DG-PF6-Na           Amber RESP
15750
    1DG      C1    1   5.212   3.937   1.356  0.1732 -0.1026 -0.9468
    1DG      C2    2   4.785   3.983   0.790  0.5849 -0.1647 -0.1952
    1DG      H3    3   5.232   4.012   1.432 -0.5379  0.8725 -1.6951
    1DG      H4    4   5.293   3.949   1.283  0.6001  1.3212 -0.2749
    1DG      H5    5   5.219   3.839   1.402  0.9406  0.0649 -0.6896
    1DG      H6    6   4.752   4.082   0.822 -2.8528 -1.4061  0.4627
    1DG      H7    7   4.879   3.997   0.737  0.4499 -1.9692 -0.9767
    1DG      H8    8   4.710   3.948   0.720  0.3425 -0.2144  0.0865
    1DG      O9    9   5.081   3.957   1.311  0.1175  0.4510  0.6157
    1DG     O10   10   4.809   3.881   0.890  0.3391 -0.1277 -0.5369
    1DG     C11   11   5.051   4.095   1.273 -0.3767  0.1723 -0.6164
    1DG     C12   12   4.720   3.876   0.994  0.1871 -0.0179 -0.0645
    1DG     H13   13   5.116   4.128   1.191  0.7840  0.4905  0.4086
    1DG     H14   14   5.067   4.163   1.356  1.4436 -1.6170  0.5757
    1DG     H15   15   4.740   3.782   1.047  1.7285 -0.2712 -1.0193
    1DG     H16   16   4.615   3.868   0.967  0.1530 -1.6141  0.4267
    1DG     C17   17   4.900   4.104   1.238  0.9030  0.3393  0.0461
    1DG     C18   18   4.743   3.991   1.104  0.1174  0.5319  1.1890
    1DG     O19   19   4.883   4.009   1.132  0.9089 -0.0450 -0.1509
    1DG     H20   20   4.874   4.206   1.209 -1.1977  0.0306  0.6694
    1DG     H21   21   4.840   4.078   1.325  1.5711 -0.6405  0.2365
    1DG     H22   22   4.708   4.086   1.064 -0.6887  0.3185  1.3730
    1DG     H23   23   4.687   3.965   1.194 -1.8974  3.0366  0.7936
    2DG      C1   24   0.436   4.138   0.197  0.6533  0.0514 -0.1470
    2DG      C2   25   0.978   4.381   0.562 -0.6190  0.2012  1.1236
    2DG      H3   26   0.350   4.126   0.130  0.1424 -0.9775  0.6754
    2DG      H4   27   0.389   4.143   0.295  1.1044 -4.1576  0.4589
    2DG      H5   28   0.492   4.046   0.211  1.1485  0.1322 -1.4943
    2DG      H6   29   0.929   4.361   0.658 -0.4445 -2.6200  0.7108
    2DG      H7   30   1.018   4.289   0.520 -5.6532 -2.2626  1.0021
    2DG      H8   31   1.065   4.446   0.568  0.5835 -1.3143  0.5988
    2DG      O9   32   0.509   4.260   0.188  0.7295 -0.3534  0.0179
    2DG     O10   33   0.877   4.427   0.468  0.1732 -0.1017  0.5666
    2DG     C11   34   0.601   4.262   0.084  0.3133 -0.3518  0.8561
    2DG     C12   35   0.928   4.490   0.353  0.3238 -0.6238  0.0855
    2DG     H13   36   0.550   4.252  -0.011 -0.3515 -0.2119  1.1932
    2DG     H14   37   0.667   4.177   0.070  1.3726  0.7630 -1.4880
    2DG     H15   38   1.006   4.430   0.306 -0.2713 -0.2898 -1.3732
    2DG     H16   39   0.953   4.593   0.376 -1.4138  0.1121 -1.1603
    2DG     C17   40   0.694   4.393   0.089 -0.4705  0.1515  0.5020
    2DG     C18   41   0.809   4.507   0.255  0.5163  0.4683 -0.3466
    2DG     O19   42   0.768   4.380   0.205 -0.2670 -0.2112 -0.1000
    2DG     H20   43   0.640   4.487   0.101  2.7062  2.4210 -1.2482
    2DG     H21   44   0.759   4.401   0.002  0.2931  0.5117  1.0941
    2DG     H22   45   0.718   4.549   0.298  0.3933  1.5051 -1.5761
    2DG     H23   46   0.841   4.570   0.172 -2.0618  2.7309  0.2452
    3DG      C1   47   3.875   3.930   5.154  0.6109  0.1337  0.1023
    3DG      C2   48   4.160   3.489   4.812 -0.1714 -0.4462 -0.0531
    3DG      H3   49   3.953   4.007   5.148  0.2408  0.4409 -1.0853
    3DG      H4   50   3.792   3.956   5.219 -0.5760  2.6561 -2.2091
    3DG      H5   51   3.834   3.922   5.053  1.8296  0.8557 -0.4801
    3DG      H6   52   4.213   3.581   4.786  0.6461 -0.5573  1.1128
    3DG      H7   53   4.219   3.401   4.785 -0.3154 -0.7877  0.7100
    3DG      H8   54   4.064   3.485   4.763  0.1187 -4.4308 -0.5872
    3DG      O9   55   3.931   3.810   5.178  0.2739  0.3598 -0.5225
    3DG     O10   56   4.130   3.485   4.951  0.1975  0.3119  0.2882
    3DG     C11   57   4.005   3.800   5.304  0.0564  0.7746  0.4231
    3DG     C12   58   4.243   3.478   5.046  0.0570  0.3910  0.3118
    3DG     H13   59   3.950   3.818   5.396 -0.8964  2.2041 -0.3824
    3DG     H14   60   4.097   3.856   5.287  1.6138 -0.8385  2.8754
    3DG     H15   61   4.323   3.539   5.003  0.1797  0.9073  1.2617
    3DG     H16   62   4.276   3.374   5.046  0.6654  0.5784  0.5649
    3DG     C17   63   4.052   3.656   5.306  0.0754  0.3471 -0.3516
    3DG     C18   64   4.197   3.508   5.183 -0.0991 -0.1461  0.4819
    3DG     O19   65   4.113   3.621   5.186 -0.2618 -0.1133  0.2953
    3DG     H20   66   3.963   3.596   5.322  1.3835 -1.5019  0.3193
    3DG     H21   67   4.116   3.630   5.390 -0.6205  2.1419  0.7902
    3DG     H22   68   4.139   3.430   5.232 -1.7266  0.6810 -0.0639
    3DG     H23   69   4.284   3.526   5.247  0.1499  1.1312 -0.1800
    4DG      C1   70   2.193   1.874   0.837 -0.4206 -0.9317 -0.4463
    4DG      C2   71   2.866   1.708   0.987 -0.1570  0.5737  0.7204
    4DG      H3   72   2.105   1.898   0.777 -1.1411  0.3358  1.0510
    4DG      H4   73   2.153   1.896   0.936 -0.3286 -0.1163 -0.5841
    4DG      H5   74   2.207   1.766   0.839  1.9440 -0.6623  1.0090
    4DG      H6   75   2.827   1.692   1.088 -1.2191 -0.4103  0.1817
    4DG      H7   76   2.897   1.614   0.941  0.1996  1.6022 -1.2741
    4DG      H8   77   2.957   1.762   1.010  0.4267 -1.2031  2.8595
    4DG      O9   78   2.311   1.939   0.792 -0.4231  0.4074  0.0637
    4DG     O10   79   2.778   1.783   0.910  0.2235  0.0567 -0.6313
    4DG     C11   80   2.357   1.914   0.660 -0.6091  1.2694 -0.7368
    4DG     C12   81   2.814   1.798   0.777 -0.0950  0.0968  0.2364
    4DG     H13   82   2.284   1.964   0.595 -1.2177  0.9336 -0.3193
    4DG     H14   83   2.348   1.809   0.635  1.8250  0.6722  0.5805
    4DG     H15   84   2.788   1.704   0.729 -1.1332 -0.4693  1.8309
    4DG     H16   85   2.918   1.831   0.775  0.7370 -2.3418 -0.6617
    4DG     C17   86   2.499   1.957   0.640  0.4931  0.0905 -0.6829
    4DG     C18   87   2.732   1.914   0.722  0.2176  0.3768  0.2503
    4DG     O19   88   2.588   1.880   0.724 -0.0446 -0.2837  0.1600
    4DG     H20   89   2.518   2.064   0.648 -0.2426  0.3057 -1.6075
    4DG     H21   90   2.532   1.933   0.539  0.5105  1.1339 -0.9369
    4DG     H22   91   2.739   2.007   0.778 -2.9107 -0.2464  1.9173
    4DG     H23   92   2.751   1.928   0.615  1.3521 -0.5433  0.3209
    5DG      C1   93   0.999   2.348   2.605  0.3938  0.4474  0.2871
    5DG      C2   94   1.188   1.957   3.082  0.0881 -0.6168 -0.3504
    5DG      H3   95   0.963   2.250   2.576  0.0880 -0.4518  3.3018
    5DG      H4   96   0.998   2.418   2.521  2.8260  0.1365 -0.0755
    5DG      H5   97   0.913   2.381   2.664  0.7757  2.1104 -0.0200
    5DG      H6   98   1.252   1.888   3.138 -1.4803 -1.6685  0.2142
    5DG      H7   99   1.101   1.984   3.142  1.6568 -0.1610  1.8391
    5DG      H8  100   1.158   1.901   2.993 -2.8141  3.1127 -2.0039
    5DG      O9  101   1.112   2.333   2.684 -0.0487 -0.4499  0.0354
    5DG     O10  102   1.248   2.066   3.022  0.9193  0.1444 -0.1799
    5DG     C11  103   1.164   2.450   2.743  0.0887  0.8276 -0.0124
    5DG     C12  104   1.298   2.160   3.103  0.1804 -0.3550  0.5765
    5DG     H13  105   1.085   2.502   2.797 -0.6277 -0.0588 -0.1829
    5DG     H14  106   1.211   2.528   2.682  0.5337  1.0820  0.6523
    5DG     H15  107   1.387   2.122   3.154  2.6573  0.9561 -2.4623
    5DG     H16  108   1.231   2.198   3.181 -3.2049 -0.5485 -2.0276
    5DG     C17  109   1.276   2.409   2.834  0.5062  0.2568  0.1849
    5DG     C18  110   1.346   2.280   3.013 -0.4243  0.2578 -0.0346
    5DG     O19  111   1.244   2.301   2.917 -0.5616 -0.2757  0.2270
    5DG     H20  112   1.304   2.494   2.896 -1.6117  1.0600  0.1182
    5DG     H21  113   1.372   2.391   2.786  0.5911 -1.2850  0.8733
    5DG     H22  114   1.371   2.373   3.063 -2.4810  1.0829 -0.4606
    5DG     H23  115   1.442   2.250   2.970 -1.1073  0.3185 -1.6506
    6DG      C1  116   0.167   0.181   3.156  0.0335 -0.0699  0.1395
    6DG      C2  117  -0.450   0.325   3.452  0.0527 -0.7287 -0.2889
    6DG      H3  118   0.198   0.124   3.068  0.5788 -1.0254  0.9376
    6DG      H4  119   0.225   0.131   3.233  1.2378  0.3219 -0.4892
    6DG      H5  120   0.219   0.277   3.152  1.2165 -0.6679  0.7860
    6DG      H6  121  -0.556   0.299   3.448  0.2118 -1.9471  1.8484
    6DG      H7  122  -0.403   0.285   3.542 -2.8854 -2.5229  0.5920
    6DG      H8  123  -0.447   0.434   3.454  0.0100 -0.7359  0.7345
    6DG      O9  124   0.025   0.183   3.170  0.5946  0.1973  0.1696
    6DG     O10  125  -0.396   0.282   3.331 -0.1900  0.1378  0.0292
    6DG     C11  126  -0.041   0.245   3.060  0.2064 -0.4114  0.3170
    6DG     C12  127  -0.392   0.141   3.323  0.1227 -0.3115 -0.4122
    6DG     H13  128  -0.020   0.185   2.972 -0.7229 -0.0561 -0.1627
    6DG     H14  129   0.008   0.342   3.049  2.7437 -1.5760  0.6751
    6DG     H15  130  -0.492   0.110   3.350 -0.0462  1.8689  1.7750
    6DG     H16  131  -0.326   0.103   3.401 -1.0265  1.8832  1.7382
    6DG     C17  132  -0.196   0.244   3.089  0.3554 -0.5980  0.5060
    6DG     C18  133  -0.361   0.083   3.184 -0.3116  0.2154  0.2328
    6DG     O19  134  -0.230   0.120   3.146 -0.2203  0.6922  0.1370
    6DG     H20  135  -0.259   0.257   3.002  2.4132 -2.3428 -1.3852
    6DG     H21  136  -0.219   0.327   3.156  0.4203  0.2673 -0.5300
    6DG     H22  137  -0.379  -0.024   3.186 -1.3161  0.3767  0.7744
    6DG     H23  138  -0.426   0.123   3.106  0.5057 -2.4215 -1.9250
    7DG      C1  139   4.054   1.271   4.020  0.3308 -0.8544 -0.5433
    7DG      C2  140   4.140   1.875   4.565  0.4951  0.0651  0.3371
    7DG      H3  141   4.043   1.314   3.921  1.4238 -1.7085 -1.0505
    7DG      H4  142   4.063   1.164   4.002 -0.3738 -1.3948  1.9803
    7DG      H5  143   4.145   1.307   4.067 -0.0711  0.7210 -0.9318
    7DG      H6  144   4.196   1.967   4.583 -0.0086  0.7208 -1.2464
    7DG      H7  145   4.061   1.862   4.639  0.0398  1.0809  0.0495
    7DG      H8  146   4.194   1.781   4.551 -1.0966 -0.4646 -3.6622
    7DG      O9  147   3.941   1.290   4.109 -0.5566  0.9777 -0.7664
    7DG     O10  148   4.086   1.872   4.432  0.5663 -0.2943 -0.3207
    7DG     C11  149   3.889   1.416   4.109  0.7659 -0.2547  0.4199
    7DG     C12  150   3.995   1.758   4.410  0.2584 -0.5202  1.0863
    7DG     H13  151   3.788   1.409   4.149 -0.1110  0.6159 -1.5055
    7DG     H14  152   3.859   1.453   4.011 -2.4455  0.8476  1.6764
    7DG     H15  153   3.908   1.779   4.471  0.1735 -0.7196  1.0315
    7DG     H16  154   4.039   1.665   4.445 -0.6067 -0.5995  1.9965
    7DG     C17  155   3.962   1.522   4.197  0.0401  0.4378  0.3842
    7DG     C18  156   3.950   1.755   4.259  0.0528  0.7072  0.1226
    7DG     O19  157   3.884   1.648   4.193  0.1390  0.3598 -0.7042
    7DG     H20  158   4.069   1.535   4.180 -0.0886 -0.0658 -0.9136
    7DG     H21  159   3.953   1.496   4.302  0.5411  0.8088  0.5211
    7DG     H22  160   3.884   1.841   4.251  0.3673  1.4172  3.5994
    7DG     H23  161   4.038   1.775   4.197  0.9200 -1.9889  0.3754
    8DG      C1  162   1.873   1.479   1.408 -0.1908 -0.1052 -0.4138
    8DG      C2  163   2.311   1.965   1.606 -0.0623  0.0125  0.6445
    8DG      H3  164   1.928   1.573   1.411 -0.8864  0.3010  0.0757
    8DG      H4  165   1.786   1.498   1.345 -1.3960 -0.3267  1.1133
    8DG      H5  166   1.932   1.408   1.351 -1.6802 -1.2799 -0.5636
    8DG      H6  167   2.323   2.073   1.613 -0.9566  0.0424  1.8466
    8DG      H7  168   2.294   1.939   1.710  1.7907 -1.6004  0.6086
    8DG      H8  169   2.398   1.907   1.574  0.9216  0.9291  1.6198
    8DG      O9  170   1.838   1.436   1.541  0.2677 -0.4648 -0.1407
    8DG     O10  171   2.189   1.934   1.539 -0.3380  0.1596  0.6166
    8DG     C11  172   1.950   1.399   1.616 -0.4360  0.0691 -1.0856
    8DG     C12  173   2.170   1.795   1.518 -0.0051 -1.1755 -0.0009
    8DG     H13  174   2.027   1.346   1.559 -1.7526 -4.1087  0.6413
    8DG     H14  175   1.913   1.333   1.694  1.1809  1.9370  1.4242
    8DG     H15  176   2.258   1.750   1.472 -0.3968  0.2681 -2.2633
    8DG     H16  177   2.082   1.780   1.455 -1.4081 -0.1974  1.6381
    8DG     C17  178   2.022   1.522   1.691  0.0597  0.8561  1.4467
    8DG     C18  179   2.133   1.720   1.640 -0.3230  0.9196  0.1558
    8DG     O19  180   2.101   1.588   1.592 -0.1005 -0.0821  0.4718
    8DG     H20  181   2.079   1.499   1.782  0.8944 -1.1845  0.4796
    8DG     H21  182   1.944   1.589   1.727  0.2795  1.3075  1.0833
    8DG     H22  183   2.218   1.721   1.708 -0.9131  0.6335  0.9102
    8DG     H23  184   2.047   1.765   1.690 -1.7277 -0.6130 -0.7758
    9DG      C1  185   3.822   3.372   5.059  0.3852  0.0867 -0.5675
    9DG      C2  186   4.174   3.861   4.875  0.3898  0.8259 -0.7464
    9DG      H3  187   3.925   3.349   5.087  0.8849 -0.2589 -2.5133
    9DG      H4  188   3.778   3.273   5.060  2.9379 -1.1764  2.7521
    9DG      H5  189   3.776   3.427   5.141  1.7983  1.4594 -0.6447
    9DG      H6  190   4.250   3.887   4.802  0.5755  2.3970 -0.0491
    9DG      H7  191   4.143   3.952   4.927 -0.9081 -0.6656  1.2588
    9DG      H8  192   4.230   3.798   4.944  2.3575  1.9899 -1.2254
    9DG      O9  193   3.823   3.452   4.937  0.4548 -0.1290 -0.0871
    9DG     O10  194   4.065   3.783   4.836  0.2498  0.0633  0.1286
    9DG     C11  195   3.701   3.506   4.907  0.9091 -0.1385  0.1028
    9DG     C12  196   3.963   3.868   4.782  0.6287  0.8467 -0.3816
    9DG     H13  197   3.652   3.560   4.988  1.2871 -1.3161  1.1442
    9DG     H14  198   3.637   3.424   4.874  1.4191 -0.4176 -0.2128
    9DG     H15  199   4.004   3.919   4.695 -1.4509  0.0051 -1.9370
    9DG     H16  200   3.918   3.940   4.850 -0.9726 -2.1138  1.9621
    9DG     C17  201   3.726   3.595   4.790  0.8223  0.2482  0.1291
    9DG     C18  202   3.860   3.774   4.716 -0.5012  0.1763  0.6911
    9DG     O19  203   3.835   3.678   4.816 -0.0632  0.1556 -0.5106
    9DG     H20  204   3.630   3.644   4.772  0.6054  0.0572  0.7134
    9DG     H21  205   3.747   3.533   4.703  1.9779  0.8653 -0.0478
    9DG     H22  206   3.770   3.836   4.705 -1.3590 -0.9423  1.2025
    9DG     H23  207   3.897   3.726   4.626 -1.8127  0.7519 -0.2002
   10DG      C1  208   1.129   0.880   4.090 -0.3458  0.3824 -0.7187
   10DG      C2  209   1.549   0.348   4.039 -0.1230  0.3279  0.5300
   10DG      H3  210   1.103   0.977   4.133  0.2326 -0.9469  2.9538
   10DG      H4  211   1.065   0.802   4.129  1.1577 -0.5461 -0.0129
   10DG      H5  212   1.116   0.872   3.982  0.8881  1.4446 -0.9830
   10DG      H6  213   1.578   0.335   3.935  1.6584 -0.8020  1.1226
   10DG      H7  214   1.624   0.307   4.107  0.0400 -0.6321 -0.2210
   10DG      H8  215   1.460   0.287   4.056 -0.1720  0.2587  0.0320
   10DG      O9  216   1.262   0.839   4.114  0.0268  0.0157 -0.2770
   10DG     O10  217   1.534   0.487   4.070 -0.4651  0.0602 -0.1881
   10DG     C11  218   1.358   0.937   4.080  0.6241  0.3074  1.0277
   10DG     C12  219   1.646   0.563   4.031 -0.2053  0.6215 -0.5498
   10DG     H13  220   1.333   1.030   4.131 -1.6797  1.5485 -2.0133
   10DG     H14  221   1.341   0.955   3.973  0.2320 -0.0620  1.0261
   10DG     H15  222   1.638   0.570   3.923  0.0204 -0.0566 -0.6134
   10DG     H16  223   1.742   0.515   4.049 -0.4849 -0.2792 -1.3823
   10DG     C17  224   1.496   0.888   4.122  0.5379  0.8969  0.7218
   10DG     C18  225   1.651   0.704   4.084  0.3459 -0.1031  0.0070
   10DG     O19  226   1.529   0.763   4.051  0.3521 -0.5366  0.4250
   10DG     H20  227   1.485   0.849   4.223 -1.6556  1.0086  0.5645
   10DG     H21  228   1.578   0.959   4.104  1.2322  0.1684  0.9557
   10DG     H22  229   1.661   0.697   4.193 -0.7426 -1.0175  0.0693
   10DG     H23  230   1.728   0.772   4.050  0.1336  0.9960  1.6131
   11DG      C1  231   5.022   4.471   3.221 -0.3622 -0.5433  0.0998
   11DG      C2  232   4.515   4.138   3.096 -0.1672  0.1166 -0.0928
   11DG      H3  233   5.040   4.364   3.228  0.6447 -0.3853 -0.0558
   11DG      H4  234   5.025   4.514   3.321  1.0325 -1.2287  0.3801
   11DG      H5  235   5.107   4.508   3.164  0.7654  1.5409  2.9232
   11DG      H6  236   4.559   4.147   2.997  0.8348  0.4505  0.3719
   11DG      H7  237   4.573   4.077   3.165 -0.1548 -0.3279 -0.4956
   11DG      H8  238   4.425   4.078   3.082 -0.1133 -0.7762  2.7602
   11DG      O9  239   4.904   4.487   3.154 -0.0696 -0.9873  0.1985
   11DG     O10  240   4.495   4.274   3.142  0.1516 -0.0160 -0.2470
   11DG     C11  241   4.878   4.621   3.123  0.2503 -0.6865  0.1307
   11DG     C12  242   4.607   4.357   3.135 -0.3126 -0.3287 -0.0129
   11DG     H13  243   4.932   4.654   3.034  1.3147 -1.1943  0.5776
   11DG     H14  244   4.890   4.698   3.200 -2.0090  1.4264 -1.4850
   11DG     H15  245   4.701   4.302   3.125 -1.1910 -1.5582 -2.1207
   11DG     H16  246   4.608   4.411   3.230  2.2282  2.2484 -1.3446
   11DG     C17  247   4.729   4.627   3.084  0.3278  0.2606  0.5682
   11DG     C18  248   4.588   4.458   3.021 -0.8116 -0.6541  0.2177
   11DG     O19  249   4.701   4.530   2.987 -0.2306 -0.3263  0.8850
   11DG     H20  250   4.697   4.718   3.036 -1.0460 -1.5025 -2.0988
   11DG     H21  251   4.671   4.619   3.176 -0.5956 -3.3663 -0.1712
   11DG     H22  252   4.564   4.404   2.929 -0.0617 -1.2143  0.3383
   11DG     H23  253   4.505   4.525   3.045 -0.3967 -0.6995  1.9415
   12DG      C1  254   3.314   5.182   0.492 -0.8477 -0.1543 -0.0223
   12DG      C2  255   3.146   5.433   0.898  0.0532  0.1751  0.4183
   12DG      H3  256   3.274   5.123   0.574 -1.3442 -0.0689 -0.1977
   12DG      H4  257   3.292   5.289   0.497  0.5560  0.1070  0.9724
   12DG      H5  258   3.421   5.168   0.479 -0.3756  0.0252  2.9337
   12DG      H6  259   3.094   5.513   0.950 -0.6175 -0.2749  0.4488
   12DG      H7  260   3.111   5.348   0.957  0.3162  0.4830  1.0251
   12DG      H8  261   3.252   5.424   0.923  0.2436 -1.8722 -0.8237
   12DG      O9  262   3.261   5.139   0.371  0.0385 -0.0037 -0.4579
   12DG     O10  263   3.116   5.424   0.757  0.0549 -0.4729  1.0047
   12DG     C11  264   3.117   5.129   0.357 -0.5785 -0.3099  0.7369
   12DG     C12  265   2.978   5.401   0.733 -0.0046 -0.2698  0.1871
   12DG     H13  266   3.085   5.039   0.409 -0.4496 -0.6094  0.3006
   12DG     H14  267   3.109   5.112   0.249 -0.0532  1.5245  0.3780
   12DG     H15  268   2.920   5.487   0.766 -1.1873 -1.9098  2.6217
   12DG     H16  269   2.946   5.317   0.794 -1.0833  0.9968  1.4321
   12DG     C17  270   3.038   5.255   0.397 -0.7049  0.8403 -0.4290
   12DG     C18  271   2.970   5.388   0.578 -0.1743 -0.1834  0.3017
   12DG     O19  272   3.045   5.274   0.542  0.0226  0.3263 -0.2451
   12DG     H20  273   2.935   5.241   0.362 -1.2344  2.8183  0.2080
   12DG     H21  274   3.083   5.342   0.348  2.1747  0.2158  0.9134
   12DG     H22  275   2.868   5.363   0.548  0.4572 -2.6967 -0.0311
   12DG     H23  276   3.004   5.482   0.536 -1.3638  0.0143 -0.2534
   13DG      C1  277   4.712   4.293   2.132  0.1224 -0.2233 -0.2129
   13DG      C2  278   4.988   5.154   2.136 -0.0152 -0.1785  0.2677
   13DG      H3  279   4.776   4.293   2.044 -0.7427 -0.2011 -0.8529
   13DG      H4  280   4.627   4.225   2.123 -2.6254  2.8840  0.3161
   13DG      H5  281   4.765   4.266   2.223 -2.4159  1.8967  2.0750
   13DG      H6  282   5.088   5.112   2.151  0.6069  1.3143  0.4774
   13DG      H7  283   4.987   5.190   2.034  1.7617 -0.1485  0.2315
   13DG      H8  284   4.977   5.229   2.214 -0.1773  0.4905 -0.3916
   13DG      O9  285   4.661   4.421   2.145 -0.4557 -0.3852 -0.3643
   13DG     O10  286   4.883   5.056   2.140  0.0787  0.2633 -0.3127
   13DG     C11  287   4.767   4.524   2.143  0.1729 -0.5747 -0.4235
   13DG     C12  288   4.885   4.976   2.260  0.8655  0.2525  0.2191
   13DG     H13  289   4.821   4.511   2.049  0.9381 -2.0209  0.1848
   13DG     H14  290   4.838   4.498   2.222  0.5713 -1.5915 -1.1065
   13DG     H15  291   4.853   5.038   2.344  0.1822 -0.7077  0.6937
   13DG     H16  292   4.984   4.933   2.276 -0.6198 -3.8106 -0.1819
   13DG     C17  293   4.710   4.663   2.162  0.3899 -0.1813 -0.4564
   13DG     C18  294   4.770   4.864   2.255  0.4784 -0.7378 -0.7525
   13DG     O19  295   4.813   4.755   2.179  0.1955 -0.3752  0.4158
   13DG     H20  296   4.649   4.651   2.252 -0.2998  1.3034 -0.7068
   13DG     H21  297   4.643   4.706   2.088  1.3022  2.8401  0.3413
   13DG     H22  298   4.741   4.836   2.356 -0.4578  3.0542  0.1901
   13DG     H23  299   4.684   4.915   2.213  0.8244  0.0176 -0.5748
   14DG      C1  300   2.150   2.327   1.613 -0.9350 -0.2689  0.2983
   14DG      C2  301   2.126   2.792   2.155 -1.1732  0.2805 -0.0295
   14DG      H3  302   2.063   2.287   1.665 -1.1669  1.2051  1.1000
   14DG      H4  303   2.247   2.285   1.638 -0.3334  1.4416  0.9513
   14DG      H5  304   2.133   2.316   1.505  1.0370 -1.2288  0.0475
   14DG      H6  305   2.077   2.882   2.193 -1.1878  0.4017 -0.3339
   14DG      H7  306   2.074   2.706   2.197 -0.6941 -0.0772 -0.1680
   14DG      H8  307   2.226   2.778   2.195 -1.8294 -1.9967  0.9773
   14DG      O9  308   2.155   2.461   1.645  0.5013  0.2135 -0.1373
   14DG     O10  309   2.149   2.770   2.013  0.2969  0.5342 -0.9171
   14DG     C11  310   2.254   2.539   1.587  0.0237  0.2820 -0.3893
   14DG     C12  311   2.261   2.846   1.964 -0.2964 -0.2810  0.4031
   14DG     H13  312   2.250   2.534   1.479  3.0524  0.9871 -0.6494
   14DG     H14  313   2.351   2.494   1.610  0.9306  1.8139 -1.0339
   14DG     H15  314   2.356   2.821   2.011 -1.1834 -3.1928  0.8779
   14DG     H16  315   2.238   2.947   1.997  0.6065 -0.1071  0.5060
   14DG     C17  316   2.262   2.683   1.628 -0.0438  0.1238  0.2626
   14DG     C18  317   2.260   2.837   1.811 -0.0510 -0.7996 -0.7779
   14DG     O19  318   2.264   2.700   1.771 -0.1969 -0.4507  0.1374
   14DG     H20  319   2.175   2.726   1.579  0.8421 -0.7782 -2.2514
   14DG     H21  320   2.347   2.732   1.580  0.7010  0.0644  1.4599
   14DG     H22  321   2.164   2.867   1.768  1.0438  0.2287 -2.6012
   14DG     H23  322   2.337   2.897   1.764 -0.2684  0.8018  0.7804
   15DG      C1  323   0.112   4.026   2.089 -0.3626 -0.5132 -0.3795
   15DG      C2  324  -0.092   3.453   2.087  0.4034  0.2910 -0.6091
   15DG      H3  325   0.200   3.963   2.078 -0.3172 -0.5907  0.3770
   15DG      H4  326   0.098   4.036   2.196  0.0428  2.8337 -0.5204
   15DG      H5  327   0.125   4.127   2.049  0.0557 -0.6031 -0.4771
   15DG      H6  328  -0.151   3.364   2.071  1.3539 -0.2862 -1.0297
   15DG      H7  329  -0.002   3.432   2.029  0.2715  2.0582 -1.5403
   15DG      H8  330  -0.068   3.457   2.193  1.5230 -0.3375 -0.8129
   15DG      O9  331  -0.005   3.969   2.034  0.5581  0.0121  0.2375
   15DG     O10  332  -0.159   3.574   2.052 -0.3380 -0.1131 -0.2263
   15DG     C11  333  -0.122   4.050   2.045 -0.3731 -0.0063 -0.3886
   15DG     C12  334  -0.262   3.617   2.139  0.9446 -0.3923  0.3000
   15DG     H13  335  -0.129   4.141   1.984 -0.1624  0.6203  0.5059
   15DG     H14  336  -0.128   4.089   2.146 -0.8764 -0.6641 -0.1583
   15DG     H15  337  -0.229   3.624   2.243 -0.5719  1.1270  0.7152
   15DG     H16  338  -0.349   3.551   2.135  0.3869  0.2671  1.1684
   15DG     C17  339  -0.242   3.955   2.025  0.9406 -0.7457  0.6022
   15DG     C18  340  -0.319   3.748   2.091 -0.4782  0.2549  0.2260
   15DG     O19  341  -0.217   3.847   2.106  0.5033 -0.3191 -0.1161
   15DG     H20  342  -0.251   3.925   1.921 -1.0011 -0.7808  0.7473
   15DG     H21  343  -0.336   4.006   2.049  1.1348  1.3715 -2.4948
   15DG     H22  344  -0.357   3.744   1.989 -1.7516 -1.4909  0.7024
   15DG     H23  345  -0.403   3.771   2.158 -0.7771 -1.3846  0.4686
   16DG      C1  346   4.983   0.083   0.364 -1.0377 -0.8287  0.5280
   16DG      C2  347   5.319  -0.344   0.448  0.0330 -1.0963  0.0781
   16DG      H3  348   4.949   0.113   0.463 -1.2774  0.1810  0.1571
   16DG      H4  349   4.919   0.002   0.331 -0.7898 -1.0179  0.5158
   16DG      H5  350   4.959   0.168   0.300 -0.3759 -2.3107 -1.8099
   16DG      H6  351   5.246  -0.278   0.494 -1.0645 -1.2623 -1.3483
   16DG      H7  352   5.266  -0.405   0.374  1.2001  0.1927 -1.9090
   16DG      H8  353   5.383  -0.396   0.519  2.5038  0.3626 -0.9556
   16DG      O9  354   5.122   0.065   0.369 -0.3574  0.4045  0.1812
   16DG     O10  355   5.413  -0.268   0.380 -0.0527 -0.4958  0.1785
   16DG     C11  356   5.201   0.171   0.409  0.4531 -0.2235 -0.0795
   16DG     C12  357   5.514  -0.201   0.462 -0.0046 -0.3432 -0.0030
   16DG     H13  358   5.183   0.206   0.511  0.6884  1.3384 -0.5364
   16DG     H14  359   5.194   0.259   0.345  1.2563  0.5654  0.8860
   16DG     H15  360   5.614  -0.235   0.436  1.1405  1.9400  1.0704
   16DG     H16  361   5.493  -0.208   0.569 -1.4003  1.1764 -0.1340
   16DG     C17  362   5.348   0.131   0.401 -0.1823  0.1402 -0.2902
   16DG     C18  363   5.499  -0.049   0.433  0.3827 -0.1854  0.0649
   16DG     O19  364   5.377   0.004   0.461  0.1986  0.2482  0.2082
   16DG     H20  365   5.411   0.212   0.438 -0.9506  0.4554  0.3361
   16DG     H21  366   5.370   0.131   0.294  0.2187 -0.0054 -0.2128
   16DG     H22  367   5.562   0.011   0.499  0.7744  0.0339 -0.5024
   16DG     H23  368   5.522  -0.025   0.329 -2.8684 -1.1689 -1.0061
   17DG      C1  369   0.604   0.833   0.557 -0.4080  0.5338 -0.5913
   17DG      C2  370   0.503   0.431   0.039 -0.4722  0.5137  0.3012
   17DG      H3  371   0.526   0.892   0.509 -1.1739  0.4873  0.5802
   17DG      H4  372   0.698   0.860   0.507 -0.7979 -1.5913 -2.6911
   17DG      H5  373   0.625   0.861   0.660  0.3051 -0.0391 -0.5675
   17DG      H6  374   0.443   0.513  -0.002  0.1951  0.9396  0.1585
   17DG      H7  375   0.597   0.444  -0.015  0.1235  3.0995  1.7960
   17DG      H8  376   0.450   0.339   0.014  1.2161 -0.3376 -0.2710
   17DG      O9  377   0.595   0.688   0.544 -0.4852 -0.0508 -0.0946
   17DG     O10  378   0.525   0.449   0.184  0.1408 -0.1500  0.1957
   17DG     C11  379   0.708   0.618   0.593 -0.4847  0.3077 -0.4429
   17DG     C12  380   0.571   0.331   0.245  0.3788 -0.4934 -0.6148
   17DG     H13  381   0.722   0.645   0.698  0.4539  1.3598 -0.8120
   17DG     H14  382   0.797   0.661   0.546  0.0903  1.4788  1.5567
   17DG     H15  383   0.661   0.311   0.188  1.4810 -0.9575  1.2005
   17DG     H16  384   0.502   0.250   0.222 -1.5393  0.5368  1.1051
   17DG     C17  385   0.680   0.473   0.569  0.4171  0.8186  0.2581
   17DG     C18  386   0.608   0.328   0.396  0.8207 -0.1336  0.7167
   17DG     O19  387   0.665   0.456   0.429  0.0389 -0.6149  0.0549
   17DG     H20  388   0.597   0.439   0.631  1.4240  1.2317  1.8989
   17DG     H21  389   0.769   0.418   0.599  0.4759  0.2831 -0.8568
   17DG     H22  390   0.513   0.324   0.450  0.2274 -0.4193 -0.3264
   17DG     H23  391   0.674   0.245   0.420 -0.9733 -1.6070  0.7664
   18DG      C1  392   4.643   1.603   0.328  0.5157 -0.0921  0.1429
   18DG      C2  393   5.199   1.912   0.683  0.0728 -0.6266  0.1546
   18DG      H3  394   4.628   1.695   0.271  1.1342 -0.4968 -0.7042
   18DG      H4  395   4.563   1.531   0.341  1.6395 -0.8565  4.0573
   18DG      H5  396   4.722   1.555   0.270  1.0972  0.9986  0.0090
   18DG      H6  397   5.263   1.831   0.648  1.7674 -0.9661  3.5959
   18DG      H7  398   5.216   2.001   0.622 -0.6395 -0.3329  0.3815
   18DG      H8  399   5.252   1.926   0.777  1.3544 -3.1415 -0.1031
   18DG      O9  400   4.704   1.635   0.452 -0.6136 -0.7997 -0.4329
   18DG     O10  401   5.058   1.896   0.699 -0.2721 -0.8671  0.2511
   18DG     C11  402   4.614   1.727   0.523  0.5074 -0.2255 -0.0616
   18DG     C12  403   5.028   1.772   0.744  0.0143 -0.0232  0.7192
   18DG     H13  404   4.511   1.691   0.528  0.2238  0.6844  0.9957
   18DG     H14  405   4.611   1.819   0.466  0.4275  0.5123  1.0945
   18DG     H15  406   5.082   1.738   0.832 -0.1313  1.6624  1.4794
   18DG     H16  407   5.039   1.700   0.662  0.3424 -0.6990  1.3417
   18DG     C17  408   4.666   1.771   0.662  0.0519  0.6678 -0.1562
   18DG     C18  409   4.876   1.775   0.776 -0.0107 -0.0700 -0.2561
   18DG     O19  410   4.810   1.790   0.654 -0.3521 -0.5294  0.6495
   18DG     H20  411   4.637   1.699   0.738 -1.3017  2.3210  0.9932
   18DG     H21  412   4.620   1.867   0.688  0.0637  0.5061  0.4789
   18DG     H22  413   4.839   1.679   0.811  1.6020 -0.9830 -0.9475
   18DG     H23  414   4.845   1.856   0.843 -0.0280 -0.1828 -0.1263
   19DG      C1  415   0.026   4.150   0.079 -0.1660 -0.1129 -0.0796
   19DG      C2  416   0.487   4.678  -0.213 -0.1918  0.3030 -0.1891
   19DG      H3  417  -0.078   4.132   0.052 -1.5943  3.1959  2.5316
   19DG      H4  418   0.023   4.243   0.137 -0.5491 -0.3572  0.2987
   19DG      H5  419   0.058   4.064   0.138  1.4304  0.2707 -0.3476
   19DG      H6  420   0.463   4.751  -0.290  4.1622  2.4958  0.2005
   19DG      H7  421   0.449   4.722  -0.121  0.6484  1.0437 -0.1773
   19DG      H8  422   0.596   4.675  -0.206 -0.2281 -2.6650  0.4864
   19DG      O9  423   0.118   4.178  -0.026 -0.1136  0.0911 -0.1887
   19DG     O10  424   0.434   4.556  -0.257  0.0625  0.0213  0.4736
   19DG     C11  425   0.050   4.254  -0.131 -0.3557 -0.1923  0.0537
   19DG     C12  426   0.454   4.448  -0.174 -0.4607  0.2538 -0.2299
   19DG     H13  427   0.018   4.352  -0.094  0.1081 -0.0957  0.2014
   19DG     H14  428  -0.034   4.196  -0.169 -0.1886 -1.0299  0.9284
   19DG     H15  429   0.431   4.478  -0.072  0.8628 -0.9218  0.4472
   19DG     H16  430   0.556   4.410  -0.164 -0.6109  0.3544  2.2043
   19DG     C17  431   0.130   4.276  -0.257  0.1144  0.0593 -0.1503
   19DG     C18  432   0.364   4.334  -0.224 -0.6596 -0.6708 -0.4966
   19DG     O19  433   0.226   4.380  -0.242 -0.0842  0.2831 -0.5007
   19DG     H20  434   0.063   4.316  -0.333 -1.3760 -1.3877  0.3494
   19DG     H21  435   0.173   4.186  -0.301 -0.1626  0.8395 -2.1330
   19DG     H22  436   0.405   4.306  -0.321  1.0656  2.4712 -0.8158
   19DG     H23  437   0.360   4.251  -0.154 -0.8153  0.3449  0.7465
   20DG      C1  438   2.483   2.262   1.433  0.6695  0.0153 -0.0519
   20DG      C2  439   2.914   1.721   1.674 -0.0066  0.2115 -0.0586
   20DG      H3  440   2.411   2.338   1.463  1.4543  1.6116 -1.9536
   20DG      H4  441   2.432   2.208   1.353 -1.9156 -0.4139  1.7941
   20DG      H5  442   2.574   2.312   1.397  0.6203 -0.1940 -0.4760
   20DG      H6  443   2.854   1.670   1.599 -1.1084  1.6681 -0.2008
   20DG      H7  444   3.003   1.764   1.627 -1.5664  2.9549 -0.7179
   20DG      H8  445   2.938   1.640   1.743 -1.9002 -0.4470 -0.1324
   20DG      O9  446   2.514   2.178   1.544  0.2865  0.0683 -0.4774
   20DG     O10  447   2.839   1.824   1.731 -0.1701 -0.5699  0.2209
   20DG     C11  448   2.575   2.248   1.654 -0.0212 -0.0593 -0.3748
   20DG     C12  449   2.702   1.803   1.780 -0.1158 -0.3108 -0.5471
   20DG     H13  450   2.525   2.336   1.693 -0.3371 -0.9674  1.4046
   20DG     H14  451   2.676   2.275   1.621 -0.8065  3.5827 -0.1930
   20DG     H15  452   2.712   1.726   1.857  1.6008 -0.4797 -0.8809
   20DG     H16  453   2.633   1.770   1.703  0.9237 -0.9039 -1.2567
   20DG     C17  454   2.584   2.150   1.764  0.4389  0.6324 -0.8364
   20DG     C18  455   2.642   1.932   1.838 -0.2108 -0.2204  0.1311
   20DG     O19  456   2.647   2.032   1.733 -0.2033 -0.2875 -0.1298
   20DG     H20  457   2.480   2.127   1.789  1.1091  0.0788  1.7151
   20DG     H21  458   2.617   2.197   1.857  0.9604  0.8207 -1.1125
   20DG     H22  459   2.539   1.912   1.868 -0.2380  1.7011  1.5014
   20DG     H23  460   2.698   1.977   1.920  0.7852  1.7670 -1.5433
   21DG      C1  461   5.430   2.941   1.276 -0.2726  0.5482  0.0199
   21DG      C2  462   5.270   2.479   0.787  0.2144  0.1370 -0.3530
   21DG      H3  463   5.431   3.045   1.307  1.2809  0.7512 -0.6376
   21DG      H4  464   5.530   2.912   1.242  1.2169  1.9672  2.7772
   21DG      H5  465   5.408   2.880   1.364  0.2262  0.8220  0.3383
   21DG      H6  466   5.206   2.418   0.723 -3.2248  0.5380  2.3317
   21DG      H7  467   5.360   2.500   0.731  0.2015  0.5209 -0.2348
   21DG      H8  468   5.300   2.417   0.872  0.6376 -0.7158 -1.1084
   21DG      O9  469   5.340   2.902   1.179 -0.4389  0.0231  0.2044
   21DG     O10  470   5.207   2.602   0.824  0.5754  0.0424 -0.4954
   21DG     C11  471   5.199   2.927   1.215  0.2789  0.2148  0.0718
   21DG     C12  472   5.095   2.574   0.915 -0.4509  0.2914  0.4517
   21DG     H13  473   5.189   3.032   1.241  0.4691  0.7910 -1.9884
   21DG     H14  474   5.183   2.869   1.306 -2.0718  0.0513 -0.4020
   21DG     H15  475   5.135   2.519   1.001  1.6852  1.3742  0.2383
   21DG     H16  476   5.018   2.514   0.868 -1.1350  1.0625  0.5543
   21DG     C17  477   5.109   2.892   1.095  0.1342 -0.2300 -0.0186
   21DG     C18  478   5.035   2.703   0.978 -0.3468 -1.4127 -0.1328
   21DG     O19  479   5.143   2.763   1.040 -0.3204 -0.1120 -0.4375
   21DG     H20  480   5.116   2.964   1.013  0.7240 -2.1864 -1.7576
   21DG     H21  481   5.005   2.892   1.128  0.0359  1.6108 -0.1966
   21DG     H22  482   5.010   2.754   0.885 -1.4808 -0.1089  0.8586
   21DG     H23  483   4.946   2.700   1.040 -1.2503  3.3352 -0.8210
   22DG      C1  484   4.023   5.439   1.289 -0.0252  0.6731 -0.2514
   22DG      C2  485   4.025   5.823   1.160  0.4829  0.0650 -0.1855
   22DG      H3  486   4.028   5.543   1.258 -0.3739  0.1278 -2.3533
   22DG      H4  487   3.917   5.416   1.283  0.1691 -0.1778 -0.6398
   22DG      H5  488   4.072   5.371   1.218  2.9374  0.1490  2.0901
   22DG      H6  489   3.974   5.792   1.068 -1.6110  0.0794  0.9086
   22DG      H7  490   4.088   5.909   1.138 -0.0353  0.3592 -0.5550
   22DG      H8  491   4.096   5.742   1.174  0.0565 -0.2378  0.2367
   22DG      O9  492   4.064   5.400   1.419  0.5187  0.4849  0.6043
   22DG     O10  493   3.936   5.833   1.274 -0.0628 -0.1568  0.6667
   22DG     C11  494   3.992   5.450   1.533  0.3745  0.3930  0.3340
   22DG     C12  495   3.998   5.897   1.381 -0.4151 -0.1714 -0.2993
   22DG     H13  496   3.988   5.387   1.621 -0.5428  1.3763  1.0232
   22DG     H14  497   3.887   5.460   1.506  0.2703  0.7775  0.8703
   22DG     H15  498   3.947   5.993   1.386 -0.6953 -0.2833 -0.8595
   22DG     H16  499   4.107   5.900   1.374 -0.4027  1.6727  0.1121
   22DG     C17  500   4.035   5.589   1.579 -0.2102  0.1221  0.3181
   22DG     C18  501   3.970   5.817   1.511  0.3283  0.5989  0.1366
   22DG     O19  502   4.012   5.686   1.476  0.4258 -0.1888 -0.0193
   22DG     H20  503   4.143   5.585   1.592  0.0095 -0.7999 -1.4548
   22DG     H21  504   3.990   5.627   1.671  0.1317  2.7865 -0.5300
   22DG     H22  505   4.012   5.858   1.603  1.9319  0.4900 -0.5228
   22DG     H23  506   3.862   5.801   1.515  0.7661 -3.1511  1.6320
   23DG      C1  507   3.821   3.143   3.222 -0.3371 -0.0769  0.0396
   23DG      C2  508   3.810   3.018   2.601 -0.5284  0.1009 -0.1374
   23DG      H3  509   3.719   3.119   3.250 -1.0040  0.0177 -2.0781
   23DG      H4  510   3.828   3.238   3.169  1.5871 -0.3759 -0.3254
   23DG      H5  511   3.879   3.168   3.311 -1.1766 -0.3360  0.6686
   23DG      H6  512   3.704   3.013   2.624 -0.6780  2.1244 -0.2073
   23DG      H7  513   3.843   3.120   2.580  2.2068 -0.8306 -0.7368
   23DG      H8  514   3.837   2.969   2.508 -2.1067  1.1039 -1.1671
   23DG      O9  515   3.887   3.042   3.145  0.0240  0.4599 -0.2751
   23DG     O10  516   3.895   2.970   2.711 -0.1158 -0.1795 -0.2278
   23DG     C11  517   3.863   2.904   3.196  0.7455 -0.6711 -0.3711
   23DG     C12  518   3.884   2.825   2.730 -0.1379  0.3812  0.3511
   23DG     H13  519   3.755   2.884   3.193  0.4142  0.9009  0.1098
   23DG     H14  520   3.898   2.896   3.299  1.0456 -2.0484 -0.5518
   23DG     H15  521   3.927   2.780   2.640 -0.4052  0.7980  0.0144
   23DG     H16  522   3.780   2.794   2.718 -1.1904  2.8549  2.2686
   23DG     C17  523   3.936   2.808   3.096 -0.3957 -0.8153  0.4045
   23DG     C18  524   3.947   2.777   2.859 -0.2719  0.3300 -0.3772
   23DG     O19  525   3.896   2.852   2.967  0.2580 -0.3200 -0.6497
   23DG     H20  526   3.904   2.704   3.103 -0.4781 -0.9143 -1.1589
   23DG     H21  527   4.044   2.813   3.100 -0.3414 -2.0129  0.7999
   23DG     H22  528   3.932   2.672   2.882 -1.6065  0.9258  1.7477
   23DG     H23  529   4.052   2.809   2.855 -0.2595  1.0808  3.1671
   24DG      C1  530   4.137   4.753   2.952 -0.4099  0.3721  0.5477
   24DG      C2  531   3.898   4.010   2.819 -0.0860  0.5494 -0.4784
   24DG      H3  532   4.071   4.772   3.037 -1.4496 -1.5283  0.2179
   24DG      H4  533   4.097   4.801   2.863  0.7099  2.2004  0.9765
   24DG      H5  534   4.236   4.794   2.971 -0.3267  0.7381 -0.6147
   24DG      H6  535   3.823   4.004   2.740 -0.0565  2.6121 -0.7146
   24DG      H7  536   3.945   3.914   2.838 -0.7868  0.1644 -0.6636
   24DG      H8  537   3.845   4.044   2.909 -2.1031  2.1646 -2.1615
   24DG      O9  538   4.161   4.610   2.945  0.2594 -0.4467  0.5629
   24DG     O10  539   3.991   4.109   2.779 -0.6319  0.5089  0.4110
   24DG     C11  540   4.259   4.580   2.850 -0.1571 -0.1925 -0.3874
   24DG     C12  541   4.083   4.134   2.893  0.1423 -0.5348 -0.3608
   24DG     H13  542   4.351   4.631   2.877 -1.3989  4.0099 -3.1101
   24DG     H14  543   4.238   4.613   2.748  0.0145 -1.0660 -0.7113
   24DG     H15  544   4.120   4.038   2.930 -0.2552 -0.3576  0.5043
   24DG     H16  545   4.041   4.190   2.976 -0.0104  0.5551 -1.1470
   24DG     C17  546   4.281   4.431   2.860  0.1085 -0.1610  0.6407
   24DG     C18  547   4.198   4.220   2.832 -0.3016  0.5013  0.1571
   24DG     O19  548   4.161   4.354   2.823  0.7691 -0.3748 -0.0581
   24DG     H20  549   4.294   4.415   2.967  0.8810  2.8519  1.0830
   24DG     H21  550   4.377   4.397   2.820  0.0159 -2.4133  2.1537
   24DG     H22  551   4.283   4.198   2.897  1.1700 -0.2093 -1.8960
   24DG     H23  552   4.229   4.179   2.736 -2.5580 -2.3162  0.4727
   25DG      C1  553   3.556   2.332   0.844  0.2144 -0.3761  0.1988
   25DG      C2  554   4.097   2.759   0.878  0.2136  0.2534  0.0806
   25DG      H3  555   3.585   2.259   0.920 -1.8232 -0.4137  1.0084
   25DG      H4  556   3.503   2.273   0.769 -0.2755 -0.3941  0.5591
   25DG      H5  557   3.505   2.412   0.898  2.6061  1.6098 -0.2874
   25DG      H6  558   4.196   2.769   0.834  1.2134  0.2867  2.2115
   25DG      H7  559   4.053   2.858   0.890 -1.0021 -0.1969 -0.4960
   25DG      H8  560   4.104   2.719   0.979  0.7765 -0.7988 -0.3665
   25DG      O9  561   3.658   2.387   0.766 -0.5974  0.0392  0.0343
   25DG     O10  562   4.011   2.675   0.804 -0.7330  0.5532  0.5857
   25DG     C11  563   3.612   2.470   0.661  0.3446 -0.2400 -0.4182
   25DG     C12  564   4.026   2.700   0.669  0.0230  0.1602 -0.8614
   25DG     H13  565   3.584   2.571   0.692  2.7606  0.3789 -0.0299
   25DG     H14  566   3.543   2.412   0.601 -0.7787 -0.0388  0.6409
   25DG     H15  567   4.130   2.690   0.636 -0.5217 -2.7369 -2.0205
   25DG     H16  568   3.984   2.798   0.649  1.7798  1.1977  0.2186
   25DG     C17  569   3.734   2.489   0.581  0.5635 -0.1603  0.1815
   25DG     C18  570   3.948   2.601   0.586  0.2139  0.1844  0.1730
   25DG     O19  571   3.828   2.569   0.650  0.5573 -0.1726 -0.3135
   25DG     H20  572   3.706   2.536   0.487  0.9688 -0.6962 -0.2102
   25DG     H21  573   3.789   2.398   0.557  0.6942  0.0515 -0.3228
   25DG     H22  574   3.917   2.647   0.492 -0.5231 -1.4486 -0.4225
   25DG     H23  575   4.003   2.511   0.563 -1.8265 -1.6936  2.1292
   26DG      C1  576   1.330   4.271   1.040 -0.2482 -0.0327  0.7481
   26DG      C2  577   1.869   4.957   1.092  0.3930  0.3917 -0.6624
   26DG      H3  578   1.363   4.255   0.937 -0.4229 -3.0827  1.0743
   26DG      H4  579   1.236   4.216   1.052  0.0106 -1.0675 -1.4545
   26DG      H5  580   1.401   4.216   1.102 -1.2577 -2.3842 -0.0336
   26DG      H6  581   1.916   4.970   0.995  0.5932 -0.4386 -0.6841
   26DG      H7  582   1.856   5.059   1.129 -1.9374  0.3045 -1.0968
   26DG      H8  583   1.942   4.900   1.150  0.5646 -0.7366 -1.9608
   26DG      O9  584   1.326   4.406   1.083  0.5754  0.2714 -0.7985
   26DG     O10  585   1.748   4.895   1.079 -0.1925  0.0409  0.0048
   26DG     C11  586   1.454   4.471   1.068  0.1237 -0.3232 -0.0474
   26DG     C12  587   1.696   4.862   1.202 -0.1758  0.5101  0.1479
   26DG     H13  588   1.493   4.451   0.968 -1.4892 -2.4135 -0.3426
   26DG     H14  589   1.528   4.439   1.141 -1.8724 -3.7335  0.7331
   26DG     H15  590   1.669   4.955   1.252 -1.4806  1.9406 -2.9765
   26DG     H16  591   1.761   4.802   1.266  0.6371 -0.0227 -1.1311
   26DG     C17  592   1.424   4.620   1.101  0.1271  0.0458 -0.7723
   26DG     C18  593   1.550   4.807   1.174 -0.1658  0.7731 -0.4872
   26DG     O19  594   1.555   4.679   1.116  0.3791 -0.0495 -0.1851
   26DG     H20  595   1.378   4.623   1.199  0.5925  1.4235 -0.5703
   26DG     H21  596   1.352   4.660   1.030  0.5590 -0.7431 -1.6779
   26DG     H22  597   1.499   4.801   1.270  0.4216 -0.6127 -0.2433
   26DG     H23  598   1.490   4.875   1.113 -1.6604 -0.6481 -0.6705
   27DG      C1  599   0.959   4.562   3.057 -0.7749 -0.8408  0.0380
   27DG      C2  600   0.495   4.137   3.115  0.3219  0.3121  0.5164
   27DG      H3  601   0.870   4.624   3.045  1.0738  1.6676 -1.8239
   27DG      H4  602   1.022   4.586   2.972 -2.3989 -1.3447 -1.3858
   27DG      H5  603   1.011   4.588   3.149  0.7852 -0.8649 -0.8199
   27DG      H6  604   0.436   4.049   3.090 -0.9764  0.9739  1.1402
   27DG      H7  605   0.503   4.148   3.224 -0.8072 -0.0844  0.6573
   27DG      H8  606   0.444   4.229   3.085 -1.9942 -1.2575 -0.6235
   27DG      O9  607   0.930   4.425   3.050  0.4937  0.0720 -0.3741
   27DG     O10  608   0.627   4.131   3.067  0.1002 -0.7705  0.0061
   27DG     C11  609   1.041   4.342   3.096  1.0741  0.0228 -0.7576
   27DG     C12  610   0.704   4.026   3.119 -1.0666 -0.3872 -0.3388
   27DG     H13  611   1.048   4.361   3.203 -1.8518 -1.0567 -0.2616
   27DG     H14  612   1.139   4.369   3.057  0.1280  3.6317 -0.9539
   27DG     H15  613   0.663   3.933   3.079 -2.0002 -0.6162  1.0926
   27DG     H16  614   0.688   4.019   3.226 -1.2380 -0.2535 -0.3551
   27DG     C17  615   1.020   4.195   3.070  0.4458  0.6364 -0.7368
   27DG     C18  616   0.848   4.039   3.080 -0.2362 -0.3944  0.3964
   27DG     O19  617   0.885   4.176   3.101  0.6194 -0.1130  0.4121
   27DG     H20  618   1.088   4.139   3.134  2.2111  0.3081 -2.7935
   27DG     H21  619   1.033   4.172   2.964  0.3558  0.5157 -0.7223
   27DG     H22  620   0.913   3.971   3.134  0.7508  1.4124  1.6030
   27DG     H23  621   0.854   4.016   2.973 -2.6245 -1.3676  0.4180
   28DG      C1  622   5.146   1.080   2.561 -0.7914 -0.4739  0.6833
   28DG      C2  623   5.731   1.349   2.936  0.9810  0.0581  0.4063
   28DG      H3  624   5.160   1.159   2.486 -1.4268  2.7283  3.6764
   28DG      H4  625   5.046   1.080   2.604 -0.4348 -1.9278  1.5759
   28DG      H5  626   5.146   0.986   2.506 -1.2533 -0.9109  1.4215
   28DG      H6  627   5.836   1.326   2.919  1.3044  0.7637  1.3999
   28DG      H7  628   5.704   1.442   2.885 -1.7172 -0.1269  1.3741
   28DG      H8  629   5.712   1.369   3.041 -0.0414  1.4087 -0.0062
   28DG      O9  630   5.258   1.081   2.654  0.4942 -0.0094 -0.1394
   28DG     O10  631   5.635   1.257   2.884 -0.5376 -0.6407  0.1950
   28DG     C11  632   5.245   0.984   2.754  0.0642 -0.0288 -0.0896
   28DG     C12  633   5.656   1.137   2.962  0.4024  0.6730 -0.1211
   28DG     H13  634   5.213   0.888   2.715 -0.1460  0.5448 -1.3753
   28DG     H14  635   5.170   1.006   2.830 -2.7208  3.0919 -3.3439
   28DG     H15  636   5.626   1.154   3.066 -2.1397 -1.0275 -0.4994
   28DG     H16  637   5.758   1.098   2.962 -0.0712 -0.6361 -1.1089
   28DG     C17  638   5.379   0.947   2.819  0.4104 -0.7650  0.9195
   28DG     C18  639   5.583   1.020   2.898 -0.3095  0.0135 -0.2897
   28DG     O19  640   5.449   1.062   2.854  0.0394  0.6567 -0.5177
   28DG     H20  641   5.448   0.906   2.745  0.3910  1.6420 -0.5130
   28DG     H21  642   5.367   0.872   2.897 -0.3586 -0.1913  1.3744
   28DG     H22  643   5.641   0.988   2.812  0.7282  2.3903 -0.5543
   28DG     H23  644   5.572   0.926   2.952 -0.7424  0.7640  0.9797
   29DG      C1  645   2.137   2.416   4.780  0.3644 -0.7722  0.3178
   29DG      C2  646   1.724   2.229   5.184 -0.0810  0.7476 -0.0550
   29DG      H3  647   2.201   2.482   4.722 -1.2845  0.5191 -0.1091
   29DG      H4  648   2.100   2.336   4.717  1.6140 -0.3372 -1.0257
   29DG      H5  649   2.185   2.366   4.864 -0.7564 -0.7558  0.9880
   29DG      H6  650   1.816   2.205   5.238  1.2705  3.4970 -0.9392
   29DG      H7  651   1.643   2.226   5.256  0.0816  1.0028  0.1423
   29DG      H8  652   1.704   2.149   5.113 -1.5098  0.1968  0.9355
   29DG      O9  653   2.027   2.487   4.829 -0.0347 -0.2108  0.4586
   29DG     O10  654   1.730   2.354   5.115 -0.0260  0.1480 -0.0488
   29DG     C11  655   1.946   2.541   4.728  0.9179 -0.9671  0.3753
   29DG     C12  656   1.621   2.369   5.030 -0.1536 -0.1251 -0.4810
   29DG     H13  657   1.936   2.483   4.636 -2.0239  1.0768 -0.7153
   29DG     H14  658   2.000   2.625   4.685 -1.0157 -0.6384 -1.5190
   29DG     H15  659   1.529   2.389   5.085  0.6727 -1.6609  1.5731
   29DG     H16  660   1.610   2.277   4.973  0.2645 -0.4908  0.0287
   29DG     C17  661   1.812   2.574   4.798  1.0348  0.2092  0.2338
   29DG     C18  662   1.647   2.486   4.939  0.1805  0.3980 -0.5831
   29DG     O19  663   1.773   2.463   4.871  0.3480  0.0373 -0.0591
   29DG     H20  664   1.743   2.587   4.715  0.0536  3.0295  1.3676
   29DG     H21  665   1.816   2.666   4.857 -1.4664  1.5560 -1.5241
   29DG     H22  666   1.572   2.474   4.861 -0.3081 -0.1658 -0.0396
   29DG     H23  667   1.645   2.585   4.984 -2.9019  0.3624 -0.4367
   30DG      C1  668   4.830   1.421   4.927 -0.6951  0.1390 -0.1383
   30DG      C2  669   4.315   1.340   4.608  0.0334  0.3063 -0.3070
   30DG      H3  670   4.730   1.381   4.946  0.0510 -1.0612  1.4571
   30DG      H4  671   4.905   1.352   4.967 -1.8864 -1.2592 -0.2107
   30DG      H5  672   4.842   1.433   4.819 -0.4592  0.0937 -0.1181
   30DG      H6  673   4.414   1.293   4.606 -0.0379  0.1601 -2.4812
   30DG      H7  674   4.235   1.268   4.626  1.6547 -1.5158  0.0094
   30DG      H8  675   4.302   1.383   4.509 -1.0988  0.7792  0.0417
   30DG      O9  676   4.846   1.550   4.975 -0.0726  1.0796  0.6374
   30DG     O10  677   4.319   1.433   4.713  0.4830 -0.6131  0.2488
   30DG     C11  678   4.758   1.644   4.919 -0.4004 -0.7383  0.0679
   30DG     C12  679   4.360   1.379   4.840 -0.2563 -0.2259 -0.0817
   30DG     H13  680   4.774   1.666   4.813  0.8930  0.1833  0.4279
   30DG     H14  681   4.801   1.732   4.967  3.6763 -2.1784 -0.5541
   30DG     H15  682   4.431   1.298   4.828 -0.0579  0.0411 -0.7772
   30DG     H16  683   4.279   1.325   4.889 -0.6251  1.1572  0.9076
   30DG     C17  684   4.611   1.619   4.963 -0.2521 -0.6490  0.5976
   30DG     C18  685   4.428   1.477   4.939  0.4377 -0.0999  0.2208
   30DG     O19  686   4.550   1.518   4.882  0.6212  0.4034 -0.5195
   30DG     H20  687   4.562   1.716   4.957  0.2370 -0.4486 -0.3135
   30DG     H21  688   4.614   1.590   5.068 -0.2758 -2.9047  0.0281
   30DG     H22  689   4.366   1.564   4.959 -0.3484 -0.4012 -0.8087
   30DG     H23  690   4.439   1.428   5.036  1.2264 -1.8163 -0.6898
   31DG      C1  691   4.385   1.381   1.288 -0.2940  0.0423  0.3042
   31DG      C2  692   4.872   1.944   1.211 -0.4190 -0.0717 -0.4366
   31DG      H3  693   4.366   1.375   1.181 -1.3766  0.1438  0.4804
   31DG      H4  694   4.285   1.380   1.332 -0.4005 -0.5715  0.0652
   31DG      H5  695   4.430   1.286   1.318 -0.2697 -0.0863 -0.1348
   31DG      H6  696   4.965   1.902   1.172  0.1487  1.3409 -0.6434
   31DG      H7  697   4.812   1.976   1.125  2.0387 -2.0943 -3.1231
   31DG      H8  698   4.887   2.029   1.277 -0.7937 -0.7007  0.4763
   31DG      O9  699   4.457   1.493   1.335  0.0647  0.7254 -0.5000
   31DG     O10  700   4.793   1.856   1.291 -0.0353  0.4446 -0.6461
   31DG     C11  701   4.481   1.497   1.476 -0.1602  0.2213  0.2331
   31DG     C12  702   4.846   1.815   1.411  0.6915 -0.3597  0.1718
   31DG     H13  703   4.537   1.418   1.525  0.0740  2.2940  3.5888
   31DG     H14  704   4.380   1.497   1.516 -0.9943  0.3698 -1.7446
   31DG     H15  705   4.890   1.903   1.459 -0.0989 -0.2754  0.7641
   31DG     H16  706   4.929   1.748   1.388  0.5968 -0.4345  0.0560
   31DG     C17  707   4.545   1.631   1.519 -0.3385 -0.4850  0.2775
   31DG     C18  708   4.752   1.754   1.515 -0.5868 -0.5111 -1.1018
   31DG     O19  709   4.671   1.658   1.453  0.0652  0.7610 -0.7742
   31DG     H20  710   4.558   1.626   1.627 -1.7594 -0.6757  0.4693
   31DG     H21  711   4.479   1.718   1.511  1.8284  1.1221 -1.4665
   31DG     H22  712   4.789   1.700   1.602  1.4612 -0.2345 -1.7502
   31DG     H23  713   4.687   1.828   1.563 -1.4519 -1.6037 -0.5229
   32DG      C1  714   1.579   0.912   1.071  0.0614 -0.5701 -0.3372
   32DG      C2  715   1.115   1.411   1.051 -0.1322  0.6423  0.1565
   32DG      H3  716   1.489   0.920   1.009 -0.9078 -1.8486  0.8331
   32DG      H4  717   1.576   0.831   1.143 -2.3384  1.3247  1.9134
   32DG      H5  718   1.660   0.905   0.999  0.6275  0.2574  0.1935
   32DG      H6  719   1.067   1.336   0.988 -0.8478  1.4308 -0.2630
   32DG      H7  720   1.038   1.469   1.101 -0.4600 -0.3968  0.8867
   32DG      H8  721   1.162   1.490   0.992 -0.1104  2.4939  2.4991
   32DG      O9  722   1.600   1.030   1.151 -0.0756  0.1024  0.2044
   32DG     O10  723   1.194   1.356   1.154  0.8051 -0.1168 -0.4791
   32DG     C11  724   1.627   1.150   1.081 -0.1221 -0.3085 -0.3413
   32DG     C12  725   1.288   1.453   1.213  0.4469  0.1394  0.0799
   32DG     H13  726   1.576   1.155   0.986  1.1926  0.5811 -1.0368
   32DG     H14  727   1.732   1.156   1.052  0.2374 -0.1732  0.9213
   32DG     H15  728   1.237   1.517   1.285  0.3797 -1.2960  1.3566
   32DG     H16  729   1.328   1.527   1.144  3.1507 -0.0336  1.3262
   32DG     C17  730   1.588   1.266   1.168  0.1669 -0.0586 -0.2138
   32DG     C18  731   1.399   1.364   1.278  0.3613 -0.6303  0.1977
   32DG     O19  732   1.446   1.276   1.171  0.0556  0.1987 -0.1687
   32DG     H20  733   1.634   1.361   1.143 -2.1894  1.1293 -0.3357
   32DG     H21  734   1.628   1.259   1.269 -0.4924  3.1875  0.3679
   32DG     H22  735   1.466   1.433   1.330 -3.6191  2.3026  1.9944
   32DG     H23  736   1.351   1.309   1.360 -0.5995  2.6329  2.0206
   33DG      C1  737   4.586   5.195   0.930 -0.1046  0.9643 -0.1790
   33DG      C2  738   4.126   5.617   0.548 -0.3639  0.0315  0.7833
   33DG      H3  739   4.684   5.148   0.943 -0.3885  0.4680  0.2324
   33DG      H4  740   4.521   5.170   1.014 -1.6547 -0.0816 -1.6525
   33DG      H5  741   4.598   5.303   0.938  2.1750  0.8017 -0.6662
   33DG      H6  742   4.067   5.610   0.457 -1.4790  1.9962  1.2858
   33DG      H7  743   4.071   5.559   0.622  1.4119 -2.3326  0.3575
   33DG      H8  744   4.122   5.721   0.580 -0.2701  0.2544  0.0738
   33DG      O9  745   4.510   5.159   0.813  0.4119 -0.0905 -0.2141
   33DG     O10  746   4.251   5.548   0.537 -0.1388  0.0550  0.0568
   33DG     C11  747   4.579   5.172   0.697 -0.1437  0.0296  0.8460
   33DG     C12  748   4.341   5.594   0.641  0.2571 -0.2534  0.8657
   33DG     H13  749   4.520   5.117   0.623  1.4117 -0.0327 -0.4152
   33DG     H14  750   4.675   5.123   0.710  1.2723  1.7272 -2.0713
   33DG     H15  751   4.294   5.593   0.739 -0.0375  0.7763  0.7519
   33DG     H16  752   4.368   5.695   0.610 -0.5132 -0.2073  0.3144
   33DG     C17  753   4.602   5.316   0.656 -0.2379 -0.1669  0.0529
   33DG     C18  754   4.482   5.526   0.633  0.5380  0.3762  0.0824
   33DG     O19  755   4.480   5.385   0.634  0.2265 -0.6770  0.3394
   33DG     H20  756   4.657   5.315   0.562 -1.1531  2.4824 -0.6002
   33DG     H21  757   4.677   5.365   0.718  0.9851  0.7741 -2.0427
   33DG     H22  758   4.528   5.558   0.540 -0.8311 -1.0508 -1.1332
   33DG     H23  759   4.537   5.568   0.717 -0.0585 -0.3033  0.8293
   34DG      C1  760   0.703   0.952   3.468 -0.7026  0.3043  0.2367
   34DG      C2  761   0.314   0.452   3.810  0.0923  0.3826 -0.4840
   34DG      H3  762   0.797   0.939   3.520 -1.5616  0.6597  1.9285
   34DG      H4  763   0.633   0.986   3.544 -0.6362  0.5654  0.1820
   34DG      H5  764   0.708   1.028   3.389  1.2184 -0.4113 -0.3845
   34DG      H6  765   0.246   0.500   3.881  1.2024 -0.6781  1.3662
   34DG      H7  766   0.294   0.345   3.811  3.4001 -0.3200  0.0690
   34DG      H8  767   0.411   0.471   3.856  0.6595 -1.5605 -0.7794
   34DG      O9  768   0.659   0.827   3.415 -0.7735  0.3950  0.1392
   34DG     O10  769   0.336   0.510   3.685  0.4954  0.3396 -0.0415
   34DG     C11  770   0.532   0.832   3.355  0.5273 -0.1383  0.1884
   34DG     C12  771   0.401   0.433   3.581  0.1851 -0.2909 -0.6649
   34DG     H13  772   0.547   0.889   3.263  1.2851 -0.1528  0.2961
   34DG     H14  773   0.461   0.887   3.417 -1.2811 -2.1576  0.0309
   34DG     H15  774   0.357   0.334   3.572 -0.2814 -0.2977  1.2458
   34DG     H16  775   0.505   0.413   3.609 -0.2782  0.3701  1.7346
   34DG     C17  776   0.485   0.685   3.329  0.7122  0.1076 -0.5475
   34DG     C18  777   0.417   0.483   3.439  0.5305 -0.2443 -0.2893
   34DG     O19  778   0.468   0.616   3.454 -0.3569 -0.1312 -0.3938
   34DG     H20  779   0.558   0.629   3.270 -0.0842 -1.6791  0.0993
   34DG     H21  780   0.390   0.678   3.276  1.3052 -2.0021 -1.4328
   34DG     H22  781   0.484   0.435   3.367  0.8438  0.7494 -0.6764
   34DG     H23  782   0.322   0.491   3.385  1.0288 -2.6823 -1.6890
   35DG      C1  783   0.770   3.539   3.585  0.7085  0.5709  0.2854
   35DG      C2  784   0.083   3.332   3.440 -0.2753  0.5602 -0.0246
   35DG      H3  785   0.756   3.485   3.679 -0.6572 -4.0242 -2.2124
   35DG      H4  786   0.846   3.616   3.597  0.7960  0.3615  1.1613
   35DG      H5  787   0.804   3.458   3.520  0.1177  0.1196  0.5241
   35DG      H6  788  -0.024   3.349   3.446 -0.1345  1.3372  0.3897
   35DG      H7  789   0.105   3.305   3.337 -2.2678 -1.4949  0.0023
   35DG      H8  790   0.119   3.248   3.500 -1.2077 -0.3009 -0.6534
   35DG      O9  791   0.647   3.592   3.530  0.8456 -0.1757  0.4332
   35DG     O10  792   0.147   3.447   3.490  0.0668  0.5518 -0.2824
   35DG     C11  793   0.573   3.675   3.620 -0.1084 -0.0933  0.1715
   35DG     C12  794   0.163   3.554   3.402  0.0358  0.5547  0.1189
   35DG     H13  795   0.630   3.742   3.685  0.4901 -1.3544  0.9870
   35DG     H14  796   0.528   3.606   3.692 -1.3983  0.1662 -0.3609
   35DG     H15  797   0.065   3.586   3.368 -0.6650 -0.0978  1.4615
   35DG     H16  798   0.214   3.525   3.310  0.3738  1.8106 -0.0977
   35DG     C17  799   0.452   3.738   3.545  0.4880  0.4138 -0.0170
   35DG     C18  800   0.235   3.670   3.467 -0.0739 -0.2084  0.0146
   35DG     O19  801   0.363   3.631   3.505 -0.0897 -0.4720  0.1671
   35DG     H20  802   0.487   3.802   3.464 -1.6695  1.2963 -0.3145
   35DG     H21  803   0.408   3.819   3.602  1.3558  0.8993 -0.0192
   35DG     H22  804   0.242   3.753   3.397 -2.6444  1.2823  1.3809
   35DG     H23  805   0.171   3.699   3.550 -0.7914  0.2486 -0.6871
   36DG      C1  806   1.921   2.207   3.743  0.7239  0.4513  0.1156
   36DG      C2  807   2.261   2.536   3.265  0.5365  0.4218 -0.1738
   36DG      H3  808   1.910   2.260   3.837  0.4784  2.0108 -0.7540
   36DG      H4  809   1.904   2.100   3.752  0.7618  0.4274 -0.0943
   36DG      H5  810   1.844   2.246   3.676 -0.1625  1.3920  1.6051
   36DG      H6  811   2.171   2.527   3.205  2.4487  2.4514 -3.6594
   36DG      H7  812   2.266   2.637   3.307  4.4642  1.0766 -1.7576
   36DG      H8  813   2.348   2.531   3.199  0.8430 -0.2792  0.2745
   36DG      O9  814   2.047   2.238   3.692 -0.3236  0.0729  0.1236
   36DG     O10  815   2.279   2.429   3.359  0.1338 -0.0136 -0.4679
   36DG     C11  816   2.152   2.214   3.784 -0.4585 -0.2322  0.4581
   36DG     C12  817   2.401   2.432   3.432  0.8440  0.2213 -0.5310
   36DG     H13  818   2.142   2.114   3.826 -2.1053 -1.6537 -2.9353
   36DG     H14  819   2.149   2.293   3.858  0.3754  0.3965 -0.1537
   36DG     H15  820   2.404   2.528   3.483  2.8091  1.2038 -2.2933
   36DG     H16  821   2.496   2.440   3.379  0.8600  1.2630 -0.3652
   36DG     C17  822   2.282   2.212   3.701 -0.0919  0.6005 -0.5551
   36DG     C18  823   2.399   2.324   3.533  0.1881 -0.4250 -0.1482
   36DG     O19  824   2.278   2.316   3.604  0.5672 -0.0135  0.1595
   36DG     H20  825   2.296   2.121   3.643  1.4357  2.8770 -4.1064
   36DG     H21  826   2.373   2.222   3.760  0.4482 -0.3375 -1.2032
   36DG     H22  827   2.409   2.231   3.477 -1.8989 -0.4858 -0.5180
   36DG     H23  828   2.487   2.327   3.597  0.6098  0.4685 -0.7519
   37DG      C1  829   2.791   4.243   5.463  0.0955  0.2453  0.1479
   37DG      C2  830   3.051   4.524   4.892 -0.5566 -0.1383  0.5867
   37DG      H3  831   2.892   4.211   5.438  0.3024 -1.1065  2.4075
   37DG      H4  832   2.710   4.172   5.448 -0.0378  1.0242 -3.6546
   37DG      H5  833   2.791   4.283   5.565 -1.3416 -1.0413  0.6967
   37DG      H6  834   3.088   4.583   4.976  0.5271 -0.0492  0.0660
   37DG      H7  835   3.098   4.426   4.893 -2.2631 -1.0079  1.9918
   37DG      H8  836   3.065   4.584   4.802 -1.4041 -0.9416 -0.0918
   37DG      O9  837   2.756   4.354   5.384 -1.0102 -0.0961  0.7579
   37DG     O10  838   2.911   4.489   4.893  0.7138 -0.0185  0.2866
   37DG     C11  839   2.845   4.464   5.398  0.1658 -0.4205  0.0638
   37DG     C12  840   2.831   4.606   4.918  0.6708  0.2446 -0.2182
   37DG     H13  841   2.944   4.427   5.372  0.0711  0.8640 -2.3999
   37DG     H14  842   2.831   4.510   5.496  0.3409  1.1744 -0.6276
   37DG     H15  843   2.736   4.564   4.887  0.5079  1.1943 -1.0344
   37DG     H16  844   2.834   4.689   4.848  1.1820  0.4082 -0.0107
   37DG     C17  845   2.805   4.572   5.290 -0.4301  0.1286 -0.2503
   37DG     C18  846   2.800   4.634   5.068 -0.2316  0.2311 -0.6078
   37DG     O19  847   2.816   4.519   5.155  0.4931 -0.2989 -0.2155
   37DG     H20  848   2.872   4.658   5.300 -1.3328  0.7869  0.2850
   37DG     H21  849   2.699   4.595   5.299 -0.0824  2.4861 -1.4895
   37DG     H22  850   2.876   4.707   5.096  0.0326  0.6768 -2.3919
   37DG     H23  851   2.701   4.679   5.079 -0.0156  0.2021  2.2394
   38DG      C1  852   5.359   1.191   2.196 -0.3999 -0.1573 -0.2253
   38DG      C2  853   5.839   0.581   2.453 -0.2915 -0.2497 -0.2315
   38DG      H3  854   5.350   1.135   2.103 -0.4701 -0.3137 -0.1252
   38DG      H4  855   5.399   1.291   2.182  0.2316 -0.1161  1.6397
   38DG      H5  856   5.255   1.185   2.230 -0.6739  0.9876 -0.8218
   38DG      H6  857   5.935   0.608   2.496 -0.6786  0.1826  0.3818
   38DG      H7  858   5.781   0.524   2.526 -0.0267 -0.3034 -0.0614
   38DG      H8  859   5.856   0.515   2.368  0.2860 -0.9227  0.3842
   38DG      O9  860   5.438   1.116   2.291 -0.3344 -0.2507  0.2413
   38DG     O10  861   5.755   0.692   2.421  0.3700  0.1171  0.3516
   38DG     C11  862   5.417   0.978   2.295 -0.2014 -0.6790  0.4269
   38DG     C12  863   5.741   0.786   2.527 -0.3224  0.2782 -0.0817
   38DG     H13  864   5.434   0.931   2.198  1.1535 -0.2015  0.4082
   38DG     H14  865   5.312   0.959   2.316 -0.7773  2.6034  1.0730
   38DG     H15  866   5.834   0.789   2.584 -1.1560  2.2719  1.2594
   38DG     H16  867   5.673   0.754   2.606  0.1366 -0.6844 -0.0614
   38DG     C17  868   5.502   0.920   2.412 -0.7181 -0.4292  0.4189
   38DG     C18  869   5.730   0.927   2.467 -1.4147 -0.0835 -0.3924
   38DG     O19  870   5.630   0.919   2.366 -0.1794  0.7185 -0.0316
   38DG     H20  871   5.469   0.818   2.430 -1.2056 -0.6132 -1.3333
   38DG     H21  872   5.470   0.977   2.499 -3.7104 -0.1115 -0.7514
   38DG     H22  873   5.710   0.996   2.548  1.0544 -0.6635  0.8167
   38DG     H23  874   5.826   0.967   2.433 -0.8945  1.4138  2.5499
   39DG      C1  875   3.143   2.544   1.861  0.5668 -0.8188  0.2901
   39DG      C2  876   2.997   2.107   1.508  0.4497  0.1109 -0.1714
   39DG      H3  877   3.092   2.461   1.909 -1.2355 -1.0088 -1.7721
   39DG      H4  878   3.192   2.613   1.930 -0.7190 -1.3147  1.7481
   39DG      H5  879   3.221   2.494   1.804 -0.1750 -2.6591  0.8334
   39DG      H6  880   3.100   2.087   1.540 -0.3943 -1.1450  1.9632
   39DG      H7  881   2.955   2.183   1.573  1.5426  1.2324 -0.7158
   39DG      H8  882   2.929   2.025   1.530 -0.2433  0.1567 -1.9954
   39DG      O9  883   3.043   2.607   1.780 -0.3970 -0.5244 -0.0331
   39DG     O10  884   2.977   2.143   1.375  0.0567  0.2344 -0.0627
   39DG     C11  885   2.953   2.542   1.691 -0.0842  0.5385  0.4201
   39DG     C12  886   3.047   2.260   1.338 -0.7302  0.2050  0.2877
   39DG     H13  887   2.882   2.622   1.667 -0.4872  0.0154 -0.1460
   39DG     H14  888   2.911   2.461   1.751  1.9285  0.6733  2.1208
   39DG     H15  889   3.072   2.258   1.232  2.0639  0.1694  0.8547
   39DG     H16  890   3.146   2.265   1.385  0.8860 -0.9630 -2.7022
   39DG     C17  891   3.016   2.505   1.554  0.5586 -0.4360 -0.2439
   39DG     C18  892   2.961   2.391   1.358 -0.3473  0.0410  0.3663
   39DG     O19  893   2.908   2.436   1.483 -0.1169 -0.1575 -0.0145
   39DG     H20  894   3.102   2.439   1.561  1.4399  0.7707  0.5919
   39DG     H21  895   3.051   2.596   1.505  0.6362 -1.0308 -1.3429
   39DG     H22  896   3.003   2.477   1.306  0.1838  0.5083  1.5283
   39DG     H23  897   2.874   2.370   1.295 -0.4664  3.1794 -0.6711
   40DG      C1  898   1.612   3.749   3.517  1.1195  0.7049  0.2503
   40DG      C2  899   1.393   3.507   2.894  0.1070 -0.8287  0.2804
   40DG      H3  900   1.555   3.740   3.609  1.4176  2.7051  0.6920
   40DG      H4  901   1.588   3.845   3.471 -3.7732 -0.5979 -0.4358
   40DG      H5  902   1.714   3.730   3.551  1.2367  3.1997  1.5405
   40DG      H6  903   1.444   3.432   2.834  0.5650  1.2408 -2.0629
   40DG      H7  904   1.287   3.506   2.867  0.1320  0.6455  0.0436
   40DG      H8  905   1.430   3.606   2.870 -0.6751 -0.6520 -0.2186
   40DG      O9  906   1.593   3.643   3.422  0.0452  0.5154  0.1570
   40DG     O10  907   1.426   3.493   3.019 -0.2212  0.5378 -0.5076
   40DG     C11  908   1.588   3.518   3.478 -0.4863  0.6643  0.4974
   40DG     C12  909   1.392   3.369   3.075  0.2681  1.0932  0.1273
   40DG     H13  910   1.515   3.499   3.556 -0.6365 -1.9022 -0.1785
   40DG     H14  911   1.679   3.499   3.535 -0.4446 -0.6091  0.0413
   40DG     H15  912   1.396   3.291   2.999 -1.7573  0.4106  0.6542
   40DG     H16  913   1.288   3.379   3.104 -0.0201  0.1378 -0.5393
   40DG     C17  914   1.605   3.407   3.370  0.1853 -0.7390  0.2648
   40DG     C18  915   1.469   3.323   3.196 -0.1522  0.2401  0.4157
   40DG     O19  916   1.485   3.431   3.283 -0.3027  0.9787 -0.2920
   40DG     H20  917   1.599   3.314   3.427  1.7585 -2.2183 -1.8258
   40DG     H21  918   1.698   3.397   3.315 -0.3499 -0.0799 -0.7865
   40DG     H22  919   1.410   3.247   3.248 -0.4642  1.5637  2.1198
   40DG     H23  920   1.558   3.272   3.160  0.4143  1.3682  0.1742
   41DG      C1  921   0.606   2.034   0.335 -0.2459  0.3005  0.0292
   41DG      C2  922  -0.000   2.168   0.849 -0.8440  0.2462 -0.0785
   41DG      H3  923   0.546   2.024   0.245 -1.6614 -0.6007  1.0422
   41DG      H4  924   0.652   1.936   0.346  1.7407  1.2804  1.0804
   41DG      H5  925   0.678   2.110   0.304 -0.5743  0.4966 -0.2556
   41DG      H6  926  -0.082   2.178   0.778 -2.1440  0.6003  1.4068
   41DG      H7  927  -0.030   2.091   0.920 -0.0632 -0.3563 -0.3969
   41DG      H8  928   0.031   2.258   0.903  0.7076  0.0462 -0.5936
   41DG      O9  929   0.530   2.079   0.453  0.3341  0.1028  0.5294
   41DG     O10  930   0.119   2.106   0.804  0.0504  0.0035 -0.5909
   41DG     C11  931   0.471   2.207   0.448  0.0729  0.2037  0.1795
   41DG     C12  932   0.241   2.115   0.884  0.1651  0.1737  0.4250
   41DG     H13  933   0.386   2.208   0.380  1.2759 -2.9407 -1.5855
   41DG     H14  934   0.544   2.267   0.393 -0.0467 -1.0006 -1.3548
   41DG     H15  935   0.280   2.015   0.903 -1.8643 -0.5302  1.1149
   41DG     H16  936   0.229   2.154   0.985  0.2765  1.5934 -0.0848
   41DG     C17  937   0.444   2.251   0.596  0.3046 -0.2422  0.1514
   41DG     C18  938   0.355   2.196   0.815  0.3809 -0.8291 -0.2927
   41DG     O19  939   0.380   2.155   0.682  0.1977 -0.0401 -0.0923
   41DG     H20  940   0.385   2.342   0.598 -0.4273 -0.6941 -0.1517
   41DG     H21  941   0.541   2.258   0.644  0.4569 -0.4432 -0.1243
   41DG     H22  942   0.333   2.302   0.811 -0.4579 -0.9681  0.3992
   41DG     H23  943   0.444   2.183   0.877 -1.3740 -2.5591  2.0339
   42DG      C1  944   3.992   4.258   5.009  0.2646  0.4238 -0.1680
   42DG      C2  945   4.766   3.893   5.113  0.1742 -0.5819 -0.9012
   42DG      H3  946   3.959   4.253   5.113  1.1384 -3.4471  0.0652
   42DG      H4  947   3.930   4.172   4.983 -1.3118  1.4369  0.0965
   42DG      H5  948   3.946   4.337   4.949 -0.4062  1.0094  1.0923
   42DG      H6  949   4.820   3.980   5.150 -5.0758  2.7094  0.0884
   42DG      H7  950   4.832   3.806   5.107  0.9533  0.0348 -1.3386
   42DG      H8  951   4.723   3.926   5.018  2.0328 -2.8006 -2.6353
   42DG      O9  952   4.133   4.245   4.993 -0.0678  0.1270 -0.1347
   42DG     O10  953   4.661   3.871   5.210 -0.2247 -0.1167  0.7029
   42DG     C11  954   4.201   4.159   5.091  0.3301 -0.2939  0.1414
   42DG     C12  955   4.610   3.977   5.287 -0.3067 -0.1229 -0.0647
   42DG     H13  956   4.171   4.054   5.099  0.1091 -0.0940  3.3069
   42DG     H14  957   4.176   4.204   5.188  1.3440  2.4349 -0.7737
   42DG     H15  958   4.690   4.009   5.354  1.1295 -0.6281 -1.4677
   42DG     H16  959   4.531   3.932   5.348 -1.1449  1.0677 -0.2242
   42DG     C17  960   4.352   4.173   5.084 -0.2666  0.0193  0.0912
   42DG     C18  961   4.548   4.098   5.218  0.9524  0.5967  0.6471
   42DG     O19  962   4.421   4.062   5.147  0.1013 -0.1428  0.3723
   42DG     H20  963   4.376   4.270   5.128 -0.2697 -0.4047  1.0533
   42DG     H21  964   4.388   4.184   4.981  0.4614 -2.7447 -0.0268
   42DG     H22  965   4.531   4.184   5.282  0.2112 -1.6309  3.7013
   42DG     H23  966   4.622   4.130   5.145  0.2230 -1.6302 -1.2078
   43DG      C1  967   1.609   3.622   4.253 -0.8597  0.5058 -1.0743
   43DG      C2  968   2.150   3.453   4.644  0.3969  0.0348  0.3718
   43DG      H3  969   1.608   3.529   4.196  0.6119  0.6422 -1.3588
   43DG      H4  970   1.572   3.697   4.183 -1.2519  0.1213 -1.2903
   43DG      H5  971   1.544   3.614   4.340  2.2662  0.3250  1.4434
   43DG      H6  972   2.184   3.433   4.746  0.9314  2.2081  0.6808
   43DG      H7  973   2.195   3.374   4.585  2.3997 -0.2169  2.0937
   43DG      H8  974   2.200   3.544   4.610  1.4176 -0.5300  0.3114
   43DG      O9  975   1.740   3.651   4.302 -0.2253  0.7511 -0.4825
   43DG     O10  976   2.009   3.453   4.636  0.0910  0.2058  0.2546
   43DG     C11  977   1.753   3.783   4.349  0.0660 -0.2083  0.6502
   43DG     C12  978   1.954   3.556   4.713  0.4412 -0.5407 -0.0150
   43DG     H13  979   1.660   3.809   4.399 -0.8277 -0.8672 -0.6530
   43DG     H14  980   1.761   3.835   4.254  0.9394 -3.7676 -1.3888
   43DG     H15  981   1.997   3.560   4.813  1.3005  3.0043 -0.3894
   43DG     H16  982   1.850   3.527   4.726 -0.0354 -0.3034 -2.8367
   43DG     C17  983   1.876   3.794   4.440  0.1408  0.4816 -0.6239
   43DG     C18  984   1.945   3.691   4.644  0.1315 -0.1215 -0.4036
   43DG     O19  985   1.864   3.685   4.534 -0.4655 -0.2019 -0.0314
   43DG     H20  986   1.867   3.892   4.487 -0.6866  0.5366 -0.8946
   43DG     H21  987   1.973   3.785   4.391  1.8192 -1.5281  2.6167
   43DG     H22  988   1.888   3.753   4.714  0.1470 -0.2067 -0.3158
   43DG     H23  989   2.040   3.740   4.626 -1.7203  3.8832 -0.4424
   44DG      C1  990   2.338   5.115   0.043  0.5051 -0.0698 -1.1095
   44DG      C2  991   1.996   5.287  -0.614 -0.1776  0.3133 -0.0131
   44DG      H3  992   2.332   5.008   0.063 -1.7218  0.3037  0.5607
   44DG      H4  993   2.239   5.160   0.056  0.6820 -0.2520  1.3266
   44DG      H5  994   2.414   5.155   0.110  0.5664 -0.5844 -0.8688
   44DG      H6  995   1.931   5.375  -0.615  1.6216  1.7502  1.8469
   44DG      H7  996   2.000   5.236  -0.710 -2.2028 -0.9562  0.4860
   44DG      H8  997   1.946   5.215  -0.548  0.9202  0.4627  1.0099
   44DG      O9  998   2.378   5.136  -0.091 -0.2985  0.0734  0.5437
   44DG     O10  999   2.129   5.327  -0.583 -0.2166  0.6444 -0.0478
   44DG     C11 1000   2.384   5.270  -0.130  0.1502  0.5310 -0.7197
   44DG     C12 1001   2.209   5.203  -0.571 -0.3518  0.1910  0.0926
   44DG     H13 1002   2.461   5.321  -0.072 -0.6798  1.1621 -0.1633
   44DG     H14 1003   2.285   5.311  -0.114  0.4768  0.2469  2.6998
   44DG     H15 1004   2.225   5.160  -0.670  1.3405 -0.0894  0.4517
   44DG     H16 1005   2.149   5.126  -0.524 -1.4349  0.2718 -1.1041
   44DG     C17 1006   2.411   5.282  -0.279  0.3348 -0.4946  0.5144
   44DG     C18 1007   2.337   5.230  -0.493  0.0520 -0.2545 -0.1411
   44DG     O19 1008   2.310   5.221  -0.353  0.5378 -0.4311  0.1859
   44DG     H20 1009   2.504   5.230  -0.304 -1.1920 -2.0220 -2.4781
   44DG     H21 1010   2.422   5.388  -0.300 -2.7711 -0.2720 -0.4191
   44DG     H22 1011   2.404   5.151  -0.526  0.0769 -0.0637 -0.5518
   44DG     H23 1012   2.379   5.326  -0.522 -1.8002  0.5214 -0.4136
   45DG      C1 1013   2.571   0.011   0.456 -0.0159 -0.0401 -0.4132
   45DG      C2 1014   2.048  -0.623   0.541 -0.1750  0.2838 -0.1823
   45DG      H3 1015   2.560   0.119   0.462  2.6354  0.2005  2.1270
   45DG      H4 1016   2.521  -0.035   0.370  0.3167 -2.9110  0.7979
   45DG      H5 1017   2.674  -0.021   0.442 -0.6929 -1.9228 -1.6352
   45DG      H6 1018   2.082  -0.713   0.593  0.9136  0.8704  0.1422
   45DG      H7 1019   2.013  -0.567   0.627  1.1246  1.1648 -0.2110
   45DG      H8 1020   1.960  -0.642   0.479  0.9991  1.4345 -2.3128
   45DG      O9 1021   2.528  -0.052   0.577 -0.4282  0.3373  0.3175
   45DG     O10 1022   2.147  -0.555   0.468 -0.2134 -0.3965  0.2082
   45DG     C11 1023   2.384  -0.059   0.601 -0.2360 -0.8379  0.1887
   45DG     C12 1024   2.229  -0.477   0.555  0.0215 -0.2577  0.2752
   45DG     H13 1025   2.324   0.027   0.571 -0.6671 -0.5265  1.8906
   45DG     H14 1026   2.369  -0.061   0.708 -0.2765 -1.4986  0.1755
   45DG     H15 1027   2.259  -0.528   0.647  0.0107 -2.4901 -0.8844
   45DG     H16 1028   2.166  -0.392   0.580 -0.4701 -0.3211 -0.7126
   45DG     C17 1029   2.328  -0.177   0.522  0.7882 -0.0928  0.6498
   45DG     C18 1030   2.354  -0.411   0.490 -0.6768 -0.1337  0.1366
   45DG     O19 1031   2.398  -0.293   0.564 -0.3844  0.1284 -0.3132
   45DG     H20 1032   2.341  -0.160   0.415 -0.2464 -1.3151  0.3012
   45DG     H21 1033   2.220  -0.183   0.525  0.3912 -0.5747 -4.5917
   45DG     H22 1034   2.433  -0.486   0.488  0.9029  1.4830 -0.1015
   45DG     H23 1035   2.336  -0.383   0.387 -0.6011 -1.0645 -0.1422
   46DG      C1 1036   1.587   5.094   2.081 -0.7411 -0.4154 -0.3534
   46DG      C2 1037   1.385   5.138   1.374 -0.1939 -0.0546 -0.4763
   46DG      H3 1038   1.519   5.180   2.077 -0.9074 -0.4477  1.1067
   46DG      H4 1039   1.645   5.111   2.172 -1.3327  0.4272 -0.1133
   46DG      H5 1040   1.521   5.011   2.102 -0.6183 -1.3277 -3.1962
   46DG      H6 1041   1.318   5.215   1.412  0.5251 -0.5751  1.9991
   46DG      H7 1042   1.409   5.163   1.270 -0.2943  1.1646 -0.2220
   46DG      H8 1043   1.328   5.046   1.362  0.2438 -0.2601 -1.0511
   46DG      O9 1044   1.651   5.086   1.953 -0.0222 -0.0312 -0.2819
   46DG     O10 1045   1.492   5.132   1.465 -0.6334  0.0534  0.3225
   46DG     C11 1046   1.716   5.202   1.926  0.5829 -0.4682 -0.3008
   46DG     C12 1047   1.578   5.249   1.457  0.2681 -0.6157  0.3798
   46DG     H13 1048   1.805   5.204   1.990 -0.0715  1.6684  0.6299
   46DG     H14 1049   1.653   5.289   1.942 -0.3274 -1.4835  2.1416
   46DG     H15 1050   1.534   5.344   1.488  2.0768  0.2465  0.4139
   46DG     H16 1051   1.613   5.255   1.354 -0.2603  1.5837  0.2916
   46DG     C17 1052   1.762   5.203   1.785  0.2898  0.3652  0.1455
   46DG     C18 1053   1.690   5.228   1.555  0.3259 -0.4943  0.2372
   46DG     O19 1054   1.652   5.220   1.689  0.5219  0.3473  0.3769
   46DG     H20 1055   1.818   5.115   1.752 -0.1835 -0.4909  1.5385
   46DG     H21 1056   1.833   5.284   1.770  0.5520  0.1045 -0.0420
   46DG     H22 1057   1.737   5.136   1.521  1.2043  1.2226 -3.7508
   46DG     H23 1058   1.771   5.300   1.540  0.6005 -0.8588 -0.0672
   47DG      C1 1059   4.237   5.274   0.989 -0.1581  0.8530 -0.3555
   47DG      C2 1060   3.917   5.990   0.628  0.2159 -0.2101  0.3080
   47DG      H3 1061   4.318   5.315   0.929 -0.5838 -1.2323 -2.5358
   47DG      H4 1062   4.245   5.165   0.984 -2.1113  0.6365  0.4742
   47DG      H5 1063   4.270   5.305   1.088 -1.5375 -0.3127  0.5176
   47DG      H6 1064   3.832   6.056   0.641  0.4449  0.2973 -0.6733
   47DG      H7 1065   4.003   6.043   0.669  0.0204  0.5895 -0.2772
   47DG      H8 1066   3.928   6.004   0.520  0.3813  2.6541  0.6052
   47DG      O9 1067   4.102   5.317   0.968 -0.1619  0.1076  0.1614
   47DG     O10 1068   3.905   5.862   0.681  0.3250 -0.3406  0.2789
   47DG     C11 1069   4.100   5.450   0.922 -0.6403 -0.2544 -0.5764
   47DG     C12 1070   3.879   5.854   0.819  0.5059  0.1504 -0.4336
   47DG     H13 1071   4.158   5.466   0.831  2.1034 -2.5986  0.5912
   47DG     H14 1072   4.153   5.512   0.994 -1.3966 -0.0199 -0.2113
   47DG     H15 1073   3.807   5.930   0.850  1.2186  1.0773 -1.0225
   47DG     H16 1074   3.967   5.882   0.876 -1.5910  1.4433  2.4260
   47DG     C17 1075   3.955   5.510   0.908 -0.9733 -0.5511  0.7078
   47DG     C18 1076   3.837   5.710   0.860 -0.0385 -0.5390  0.3546
   47DG     O19 1077   3.962   5.647   0.880 -0.0880 -0.0597 -0.1849
   47DG     H20 1078   3.909   5.505   1.007 -1.2598  2.6733  0.8302
   47DG     H21 1079   3.889   5.468   0.832  0.0576  0.9071 -1.0424
   47DG     H22 1080   3.774   5.709   0.949 -0.9963 -1.0532 -0.3081
   47DG     H23 1081   3.776   5.665   0.782 -2.3292  0.3235  1.5404
   48DG      C1 1082   2.684   5.312   4.966 -0.0474  0.0168 -0.2574
   48DG      C2 1083   2.366   5.592   5.572 -0.2690 -0.3695 -0.0130
   48DG      H3 1084   2.662   5.221   5.022  0.7494 -0.2743 -0.4084
   48DG      H4 1085   2.786   5.289   4.935  0.5957 -0.5181  2.0364
   48DG      H5 1086   2.626   5.298   4.875  1.3244  1.3552 -1.3894
   48DG      H6 1087   2.303   5.676   5.601 -0.1271 -0.0334 -0.6552
   48DG      H7 1088   2.338   5.500   5.623  1.2333  0.6944  2.9557
   48DG      H8 1089   2.469   5.613   5.601 -0.4258 -0.4705  0.6439
   48DG      O9 1090   2.652   5.439   5.019 -0.2818  0.3637 -0.6798
   48DG     O10 1091   2.350   5.561   5.436  0.0114 -0.3116 -0.2802
   48DG     C11 1092   2.727   5.452   5.142  0.0670  0.1819 -0.1872
   48DG     C12 1093   2.359   5.675   5.346 -0.6338 -0.2340 -0.0842
   48DG     H13 1094   2.834   5.446   5.122  0.4330 -2.0669  1.8998
   48DG     H14 1095   2.704   5.370   5.211 -1.5662 -0.0809 -1.0131
   48DG     H15 1096   2.325   5.766   5.395 -3.6181 -0.6243 -1.1886
   48DG     H16 1097   2.297   5.658   5.257  0.5447 -2.5590 -0.5498
   48DG     C17 1098   2.699   5.583   5.219  0.1061  0.2708  0.5242
   48DG     C18 1099   2.505   5.697   5.300 -0.2061  0.0627 -0.5484
   48DG     O19 1100   2.556   5.589   5.217 -0.3763 -0.7474 -0.1425
   48DG     H20 1101   2.736   5.665   5.156  1.0684 -1.8729 -1.9059
   48DG     H21 1102   2.736   5.580   5.322 -1.9924 -0.5702  1.2978
   48DG     H22 1103   2.507   5.794   5.251 -0.1124 -0.2283 -1.1306
   48DG     H23 1104   2.576   5.717   5.381 -0.0342 -0.4036 -0.5785
   49DG      C1 1105   3.158   0.878   0.644  0.0580  0.1838  0.0743
   49DG      C2 1106   3.029   0.225   0.405  0.2112 -0.3424 -0.2958
   49DG      H3 1107   3.255   0.922   0.670 -0.5433  0.4825  2.0191
   49DG      H4 1108   3.121   0.841   0.740 -0.0623 -0.7912 -0.3451
   49DG      H5 1109   3.094   0.959   0.609  0.3285  0.4899  0.2672
   49DG      H6 1110   3.056   0.154   0.327  3.4579  0.2894  0.0772
   49DG      H7 1111   3.061   0.173   0.496  0.5059 -0.8910 -0.7050
   49DG      H8 1112   2.925   0.255   0.398  0.0587 -0.8037 -0.0197
   49DG      O9 1113   3.185   0.774   0.552  1.3131 -0.2793  0.1062
   49DG     O10 1114   3.120   0.339   0.387 -0.2773  0.7964 -0.3108
   49DG     C11 1115   3.251   0.819   0.437 -0.0859 -0.3261  0.1024
   49DG     C12 1116   3.109   0.400   0.264  0.3422 -0.3260  0.2767
   49DG     H13 1117   3.328   0.892   0.462 -2.1269  2.8365 -1.9739
   49DG     H14 1118   3.181   0.891   0.393  0.1532  0.5408  1.0789
   49DG     H15 1119   3.019   0.459   0.248 -0.8211 -1.5616  1.8671
   49DG     H16 1120   3.121   0.332   0.180 -1.8725 -1.2684  0.6508
   49DG     C17 1121   3.293   0.709   0.332 -0.1164  0.4475  0.0428
   49DG     C18 1122   3.220   0.501   0.239 -0.2874  0.5309 -0.4400
   49DG     O19 1123   3.197   0.608   0.331 -0.3153  0.1930  0.4300
   49DG     H20 1124   3.396   0.678   0.349  0.1550  0.7191 -1.0200
   49DG     H21 1125   3.289   0.743   0.228 -1.6335 -0.8908 -0.3630
   49DG     H22 1126   3.313   0.446   0.255 -1.4168 -1.7108 -1.1243
   49DG     H23 1127   3.228   0.533   0.135  1.6157  1.0773 -0.1692
   50DG      C1 1128   1.849   4.452   2.642  0.5436  0.1252 -0.2389
   50DG      C2 1129   2.559   4.045   2.929  0.0419  0.4336 -0.2697
   50DG      H3 1130   1.792   4.412   2.726  2.4764 -0.5393  0.8277
   50DG      H4 1131   1.854   4.391   2.551 -1.7824 -0.0260 -0.3387
   50DG      H5 1132   1.794   4.542   2.614  0.7046  0.4351  0.4295
   50DG      H6 1133   2.524   3.950   2.888 -0.2575 -0.4186  1.8264
   50DG      H7 1134   2.664   4.044   2.901 -0.0459  1.7837 -0.6764
   50DG      H8 1135   2.550   4.036   3.038  0.3654 -0.2392 -0.2883
   50DG      O9 1136   1.971   4.485   2.695 -0.3732  0.1306 -0.1615
   50DG     O10 1137   2.508   4.153   2.865  0.4534 -0.7874  0.6201
   50DG     C11 1138   2.040   4.372   2.742  0.2215 -0.1413  0.4001
   50DG     C12 1139   2.469   4.260   2.945  0.5275 -0.0062  0.4046
   50DG     H13 1140   2.059   4.302   2.660  0.3549 -0.2338  0.5104
   50DG     H14 1141   1.984   4.318   2.818  0.7622  1.9800  2.3976
   50DG     H15 1142   2.546   4.313   3.001 -1.2436 -1.0099  4.0969
   50DG     H16 1143   2.409   4.232   3.032  2.0432  3.4730  2.7732
   50DG     C17 1144   2.180   4.419   2.786  0.2977  0.8576  0.6553
   50DG     C18 1145   2.385   4.364   2.863  0.6178  0.5722  0.7032
   50DG     O19 1146   2.257   4.313   2.840  0.4667 -0.2815  0.2804
   50DG     H20 1147   2.175   4.497   2.862  0.2534  2.5255 -0.9814
   50DG     H21 1148   2.216   4.467   2.694 -1.4196  1.6574  0.3520
   50DG     H22 1149   2.383   4.447   2.933  1.1046  0.4499  0.8671
   50DG     H23 1150   2.434   4.412   2.778  0.6486  3.5219  2.2459
   51DG      C1 1151   3.569   5.282   0.850 -0.3220  0.3011  0.2607
   51DG      C2 1152   4.082   4.569   0.966  0.4726  0.3675 -0.3484
   51DG      H3 1153   3.487   5.269   0.780 -0.4968  2.2286  0.0570
   51DG      H4 1154   3.658   5.308   0.791 -1.0956 -0.4842 -1.3203
   51DG      H5 1155   3.536   5.369   0.906  0.6546  0.7030  0.2362
   51DG      H6 1156   4.181   4.524   0.962  0.0793 -0.4319 -1.8002
   51DG      H7 1157   4.030   4.513   1.044  0.4388  0.4718 -0.2957
   51DG      H8 1158   4.037   4.534   0.874  0.9157 -1.5513  0.1157
   51DG      O9 1159   3.609   5.169   0.935  0.4546 -0.3346  0.1693
   51DG     O10 1160   4.074   4.710   1.007 -0.0692  0.4472 -0.4512
   51DG     C11 1161   3.689   5.194   1.054 -0.3375  0.6957 -0.5712
   51DG     C12 1162   3.943   4.773   1.008  1.2611  0.1253  0.6621
   51DG     H13 1163   3.633   5.162   1.141 -1.8911  2.0104 -1.0383
   51DG     H14 1164   3.702   5.302   1.069 -0.9634  0.7952 -0.7002
   51DG     H15 1165   3.878   4.714   1.072 -0.7457  4.6022  3.3157
   51DG     H16 1166   3.903   4.761   0.908  0.1709 -0.6774  1.1726
   51DG     C17 1167   3.832   5.144   1.036  0.0380  0.2826  0.5940
   51DG     C18 1168   3.953   4.927   1.052 -0.2500  0.1888  0.4598
   51DG     O19 1169   3.827   5.000   1.049 -0.0501  0.1658  0.0663
   51DG     H20 1170   3.903   5.190   1.104 -0.1924  1.8635 -0.1877
   51DG     H21 1171   3.866   5.178   0.938 -0.0631 -0.7822  0.1786
   51DG     H22 1172   4.008   4.945   1.144 -0.7958  2.3507  0.4185
   51DG     H23 1173   4.016   4.978   0.979  0.0566 -0.1447  0.4895
   52DG      C1 1174   2.554   3.873   4.686  0.2830  0.2361  0.1456
   52DG      C2 1175   2.708   4.302   4.261  0.7695  0.0364 -0.1757
   52DG      H3 1176   2.654   3.913   4.708 -0.0250  1.0509  0.0997
   52DG      H4 1177   2.551   3.770   4.720  1.5346  0.3074  0.5552
   52DG      H5 1178   2.484   3.933   4.744  0.0971 -0.4912  0.6824
   52DG      H6 1179   2.654   4.385   4.306  0.3303 -0.4616  0.2255
   52DG      H7 1180   2.798   4.302   4.322  2.2719  0.5349 -2.2688
   52DG      H8 1181   2.741   4.344   4.166 -0.5833  0.6942 -0.3917
   52DG      O9 1182   2.522   3.867   4.548  0.5909 -0.0103  0.8611
   52DG     O10 1183   2.645   4.178   4.246  0.0167  0.4556  0.9330
   52DG     C11 1184   2.387   3.871   4.518  0.2031  0.8270  0.2819
   52DG     C12 1185   2.521   4.188   4.184  1.2360 -0.1492 -0.0307
   52DG     H13 1186   2.343   3.958   4.566 -0.3930  0.0258  1.2317
   52DG     H14 1187   2.331   3.782   4.549 -0.4499  0.6121 -1.4034
   52DG     H15 1188   2.545   4.195   4.078  1.4391 -1.7800 -0.1219
   52DG     H16 1189   2.461   4.270   4.222 -0.7880 -1.7500  0.3882
   52DG     C17 1190   2.386   3.886   4.368 -0.1997 -0.3711 -0.0221
   52DG     C18 1191   2.439   4.057   4.210  0.0535  0.1746  0.4518
   52DG     O19 1192   2.428   4.022   4.346  0.3407  0.2832 -0.0616
   52DG     H20 1193   2.287   3.887   4.323  0.7264  1.4411 -2.2514
   52DG     H21 1194   2.455   3.817   4.319 -1.8507 -1.3077 -1.1208
   52DG     H22 1195   2.336   4.078   4.181 -0.1532  1.4863  2.0284
   52DG     H23 1196   2.474   3.971   4.154 -0.6272  0.7698 -0.9387
   53DG      C1 1197   3.891   2.195   1.951  0.2228 -0.1903  0.3104
   53DG      C2 1198   3.670   1.326   1.998 -0.5123  0.4653  0.0276
   53DG      H3 1199   3.879   2.262   1.866  1.1283 -1.9725 -1.2964
   53DG      H4 1200   3.993   2.158   1.961  0.9444  1.3890 -0.7455
   53DG      H5 1201   3.862   2.244   2.044 -0.1801 -0.4009  0.2982
   53DG      H6 1202   3.714   1.299   1.902 -0.5763  0.5526 -0.0269
   53DG      H7 1203   3.734   1.297   2.081  1.5912  0.6552 -1.4661
   53DG      H8 1204   3.569   1.286   2.007 -0.7623  0.5739 -1.8619
   53DG      O9 1205   3.801   2.080   1.929 -0.2588  0.1698 -0.1265
   53DG     O10 1206   3.657   1.465   1.994 -0.2369 -0.5614  0.3790
   53DG     C11 1207   3.825   1.969   2.013 -0.4051 -0.2281 -0.0975
   53DG     C12 1208   3.631   1.534   2.114  0.3373 -0.8795 -0.3099
   53DG     H13 1209   3.825   2.001   2.117  2.1153 -0.2120 -0.0417
   53DG     H14 1210   3.918   1.918   1.987 -0.3381 -1.8354  2.8355
   53DG     H15 1211   3.720   1.524   2.176  1.7862  0.1789 -2.1071
   53DG     H16 1212   3.547   1.482   2.161  0.7306 -0.2457  1.1384
   53DG     C17 1213   3.711   1.868   1.987  0.1811  0.6296  0.0547
   53DG     C18 1214   3.602   1.678   2.079  0.5454  0.9477  0.5434
   53DG     O19 1215   3.731   1.743   2.052  0.3696 -1.1671  0.3326
   53DG     H20 1216   3.701   1.841   1.881 -1.2489  0.7437  0.1423
   53DG     H21 1217   3.616   1.913   2.015 -0.6237 -0.3789 -1.0034
   53DG     H22 1218   3.547   1.676   1.985  2.0421  0.3692 -0.3687
   53DG     H23 1219   3.545   1.721   2.162 -0.1450 -3.4077  2.5856
   54DG      C1 1220   2.407   1.834   3.751  0.3383  0.2620 -0.1642
   54DG      C2 1221   2.776   1.984   4.494  0.2076  0.1600  0.2454
   54DG      H3 1222   2.472   1.920   3.734  0.8450  0.2384  1.4498
   54DG      H4 1223   2.313   1.854   3.699 -1.1171 -2.7239  1.0777
   54DG      H5 1224   2.459   1.748   3.709  1.1844  0.4755  0.4325
   54DG      H6 1225   2.745   2.087   4.512  0.6040  0.1471  1.0416
   54DG      H7 1226   2.777   1.929   4.588 -1.4589  1.0531  0.8292
   54DG      H8 1227   2.876   1.987   4.452 -0.8434 -0.3228 -2.4983
   54DG      O9 1228   2.376   1.817   3.889  0.1072  0.1390  0.6838
   54DG     O10 1229   2.689   1.926   4.406  0.1194  0.1568  0.2054
   54DG     C11 1230   2.483   1.846   3.974 -0.9205  0.0482 -0.4823
   54DG     C12 1231   2.723   1.790   4.373  0.1952 -0.3740 -0.5162
   54DG     H13 1232   2.482   1.955   3.978 -0.4521  0.0261  2.0709
   54DG     H14 1233   2.576   1.816   3.926  1.0204 -0.1519  3.0761
   54DG     H15 1234   2.737   1.737   4.468  0.6507  1.5558  0.5534
   54DG     H16 1235   2.812   1.778   4.311  1.8423 -0.0260  1.6404
   54DG     C17 1236   2.461   1.782   4.114  0.6388  0.0151 -0.1695
   54DG     C18 1237   2.607   1.730   4.299  0.0024 -0.2015 -0.1032
   54DG     O19 1238   2.576   1.817   4.195  0.2817  0.3715 -0.0030
   54DG     H20 1239   2.446   1.675   4.098 -1.7189  0.3022 -0.1886
   54DG     H21 1240   2.361   1.809   4.149 -0.1085 -1.5950 -0.9507
   54DG     H22 1241   2.624   1.628   4.262  0.7870 -0.3310  0.5857
   54DG     H23 1242   2.520   1.714   4.364  0.1481 -2.9486 -0.4610
   55DG      C1 1243   1.903   0.288   3.860  0.0037  0.5496 -0.1177
   55DG      C2 1244   1.593   0.412   4.407 -0.4089  0.3907 -0.6174
   55DG      H3 1245   1.987   0.354   3.842  1.3011  0.0838  3.5086
   55DG      H4 1246   1.827   0.320   3.788  0.4572  1.0942 -0.3533
   55DG      H5 1247   1.928   0.190   3.819 -1.4618  0.4357 -0.8435
   55DG      H6 1248   1.502   0.377   4.358 -1.1094 -1.0105  1.5325
   55DG      H7 1249   1.580   0.406   4.515  3.2566  0.5961 -0.0126
   55DG      H8 1250   1.610   0.515   4.378 -0.4431  0.4655 -0.3715
   55DG      O9 1251   1.869   0.271   3.993 -0.1625  0.7998  0.0385
   55DG     O10 1252   1.709   0.331   4.379 -0.1198 -0.5047  0.0113
   55DG     C11 1253   1.981   0.232   4.074 -0.1888 -0.2107  0.3823
   55DG     C12 1254   1.686   0.192   4.408 -0.4645 -0.7185 -0.6887
   55DG     H13 1255   2.069   0.297   4.065 -0.1382 -0.0414  1.8869
   55DG     H14 1256   2.016   0.130   4.059  0.8053 -0.3902  3.2496
   55DG     H15 1257   1.601   0.162   4.346 -1.4244  1.6053 -0.5969
   55DG     H16 1258   1.643   0.168   4.506  0.8601  0.3218  0.1873
   55DG     C17 1259   1.946   0.241   4.225  0.1153 -0.3969 -0.3240
   55DG     C18 1260   1.812   0.114   4.378 -0.3495 -0.6849  0.6879
   55DG     O19 1261   1.845   0.143   4.244  0.2972  0.3623 -0.5263
   55DG     H20 1262   1.911   0.339   4.254 -1.4426 -0.7030 -1.0892
   55DG     H21 1263   2.037   0.216   4.280  2.0524  1.4253 -2.4492
   55DG     H22 1264   1.895   0.129   4.446  0.4660 -0.0855 -0.4048
   55DG     H23 1265   1.782   0.010   4.368 -0.5500 -0.5610 -0.1440
   56DG      C1 1266   1.305   2.958   5.378 -0.3984  0.0116 -0.1436
   56DG      C2 1267   0.917   2.525   5.180  0.0748 -0.5554 -0.1492
   56DG      H3 1268   1.279   3.040   5.312 -2.1321  2.3275  3.1620
   56DG      H4 1269   1.391   2.995   5.433 -0.1255 -0.0618 -0.5210
   56DG      H5 1270   1.223   2.949   5.450  0.1076  0.1134  0.4540
   56DG      H6 1271   0.923   2.417   5.174 -1.1981 -0.6124 -0.5459
   56DG      H7 1272   0.900   2.549   5.285  0.3579  0.2350 -0.2707
   56DG      H8 1273   0.829   2.568   5.133  0.1258  0.5388  0.7244
   56DG      O9 1274   1.325   2.830   5.309  0.2391 -0.2057  0.0073
   56DG     O10 1275   1.043   2.587   5.148 -0.6020 -0.1448  0.1466
   56DG     C11 1276   1.406   2.844   5.190 -0.3880  0.0474 -0.0844
   56DG     C12 1277   1.096   2.573   5.017  0.2845 -0.6175 -0.8800
   56DG     H13 1278   1.507   2.879   5.211 -0.5120  0.6285 -0.4264
   56DG     H14 1279   1.367   2.914   5.116  1.5158 -0.1912 -1.3655
   56DG     H15 1280   1.025   2.597   4.937  0.7759  0.2632 -1.0619
   56DG     H16 1281   1.135   2.472   5.004  1.7499 -0.1246 -0.4159
   56DG     C17 1282   1.422   2.701   5.131 -0.4672 -0.0108  0.2145
   56DG     C18 1283   1.217   2.663   5.013 -0.2815  0.2467  0.7991
   56DG     O19 1284   1.302   2.625   5.120 -0.0537  0.4364  0.1019
   56DG     H20 1285   1.498   2.652   5.193 -1.4942  1.6087  2.8998
   56DG     H21 1286   1.462   2.724   5.032 -0.3003  2.0525  0.7272
   56DG     H22 1287   1.261   2.649   4.915  0.2838 -0.5214  1.1504
   56DG     H23 1288   1.191   2.768   5.024  1.1117  0.6987 -0.0755
   57DG      C1 1289   2.328   1.809   3.069 -0.0619  0.8773 -0.2090
   57DG      C2 1290   3.190   1.937   2.722 -0.0582 -0.0751  0.3124
   57DG      H3 1291   2.346   1.894   3.135  2.6305  1.2630 -1.3379
   57DG      H4 1292   2.264   1.740   3.123 -0.7803  1.2586 -0.5541
   57DG      H5 1293   2.272   1.843   2.981  1.1065 -0.4681 -1.5312
   57DG      H6 1294   3.193   1.863   2.642 -0.2024  0.2589 -0.0029
   57DG      H7 1295   3.160   2.032   2.678 -2.9254 -0.2253  1.7315
   57DG      H8 1296   3.294   1.935   2.756 -0.6837 -1.4640  2.3014
   57DG      O9 1297   2.454   1.746   3.037 -0.0682 -0.9681 -0.5725
   57DG     O10 1298   3.109   1.904   2.835  0.8503 -0.2005 -0.2098
   57DG     C11 1299   2.542   1.826   2.962 -0.5320  0.0693 -0.4009
   57DG     C12 1300   2.976   1.864   2.791  0.7158 -0.1583 -0.5810
   57DG     H13 1301   2.527   1.932   2.985 -1.7623 -0.7127  3.0712
   57DG     H14 1302   2.509   1.830   2.859 -2.3337  0.6466  0.1541
   57DG     H15 1303   2.973   1.782   2.720  1.1373 -2.4827  1.9450
   57DG     H16 1304   2.934   1.955   2.746 -1.9810 -0.6738  0.6628
   57DG     C17 1305   2.687   1.780   2.986  0.5240  0.0361  0.2670
   57DG     C18 1306   2.898   1.830   2.919 -0.6639  0.6388 -0.0845
   57DG     O19 1307   2.761   1.839   2.884 -0.9547  0.0053  0.0117
   57DG     H20 1308   2.701   1.673   2.973  1.9896  0.4995 -2.6786
   57DG     H21 1309   2.719   1.806   3.087  1.2882  1.5657 -0.3363
   57DG     H22 1310   2.937   1.736   2.958 -1.2978  0.2892 -0.2831
   57DG     H23 1311   2.914   1.912   2.989  1.2853  1.5289 -1.4560
   58DG      C1 1312   0.711   1.245   3.125  0.4040  0.5023  0.0983
   58DG      C2 1313   1.416   1.326   3.422  0.5017 -0.2557 -0.4271
   58DG      H3 1314   0.799   1.287   3.077  1.8247 -0.0795  2.0427
   58DG      H4 1315   0.623   1.303   3.097 -0.6939 -1.8317 -1.5373
   58DG      H5 1316   0.696   1.150   3.074  1.6391  1.5283 -2.3472
   58DG      H6 1317   1.469   1.300   3.514 -1.7606  0.0414  1.0546
   58DG      H7 1318   1.421   1.243   3.352 -1.9532  0.6053 -1.7262
   58DG      H8 1319   1.447   1.413   3.366  1.5123 -1.0013 -1.0606
   58DG      O9 1320   0.750   1.227   3.258 -0.4096 -0.6710  0.1810
   58DG     O10 1321   1.287   1.360   3.463 -0.4932  0.0629 -0.1469
   58DG     C11 1322   0.785   1.354   3.310  0.1678  0.5261 -0.5525
   58DG     C12 1323   1.223   1.243   3.518  0.5034 -0.1143  0.1550
   58DG     H13 1324   0.696   1.415   3.319  1.4706  2.3624  0.4296
   58DG     H14 1325   0.849   1.417   3.248  0.5168  1.1167  0.3879
   58DG     H15 1326   1.265   1.215   3.615  1.4109 -1.4340 -0.5938
   58DG     H16 1327   1.237   1.159   3.450  3.7423 -0.0732  0.6439
   58DG     C17 1328   0.859   1.333   3.440 -0.2857 -0.4841 -0.1758
   58DG     C18 1329   1.072   1.275   3.543  0.2613 -0.3593 -0.8641
   58DG     O19 1330   0.996   1.301   3.425 -0.8676  0.4618  0.2662
   58DG     H20 1331   0.802   1.254   3.488 -0.1859 -0.4420  0.0114
   58DG     H21 1332   0.852   1.433   3.482 -0.1659 -0.7908  0.5852
   58DG     H22 1333   1.021   1.195   3.597 -0.2873 -0.0092 -0.8566
   58DG     H23 1334   1.066   1.355   3.615 -0.9112 -1.8213  0.7438
   59DG      C1 1335   3.975   4.595   5.129  0.5761 -0.2789 -0.2420
   59DG      C2 1336   3.551   4.893   5.712  0.2127  0.6044  0.1602
   59DG      H3 1337   3.988   4.503   5.185 -2.1105 -0.5237  0.1416
   59DG      H4 1338   4.048   4.669   5.161 -0.5420  0.6449  0.2279
   59DG      H5 1339   3.979   4.569   5.023 -0.1329 -1.9328  0.1124
   59DG      H6 1340   3.588   4.924   5.614  0.9787  2.3019  0.9517
   59DG      H7 1341   3.448   4.927   5.724  0.0990  0.0106  0.9675
   59DG      H8 1342   3.613   4.953   5.778 -0.0729 -0.8778  1.8590
   59DG      O9 1343   3.852   4.650   5.165  0.1340  0.1294 -0.0064
   59DG     O10 1344   3.585   4.758   5.736 -0.3883 -0.0638  0.0594
   59DG     C11 1345   3.835   4.661   5.307  0.8111  0.3237  0.4795
   59DG     C12 1346   3.499   4.675   5.667 -0.1354 -0.4925 -0.0623
   59DG     H13 1347   3.898   4.742   5.343  1.2075 -0.7066  2.2310
   59DG     H14 1348   3.878   4.574   5.357  2.4639  1.6470  1.4616
   59DG     H15 1349   3.397   4.697   5.697  0.3485 -0.8633  1.9970
   59DG     H16 1350   3.522   4.571   5.691  2.9662 -0.1417 -1.0329
   59DG     C17 1351   3.687   4.674   5.348 -0.2586 -0.0513  0.1464
   59DG     C18 1352   3.521   4.689   5.519 -0.3964  0.0652 -0.3065
   59DG     O19 1353   3.665   4.668   5.490  0.1472  0.4957 -0.2585
   59DG     H20 1354   3.626   4.595   5.304 -1.2987  2.3021 -3.0182
   59DG     H21 1355   3.643   4.765   5.305 -0.8881 -0.7201 -0.6558
   59DG     H22 1356   3.459   4.616   5.468  0.5849 -1.1285  0.1435
   59DG     H23 1357   3.487   4.784   5.477 -1.7113 -0.4682 -0.4883
   60DG      C1 1358   1.878   4.218   5.351 -0.2957 -0.2806  0.8717
   60DG      C2 1359   2.421   4.437   5.051  0.5229 -0.0409 -0.4955
   60DG      H3 1360   1.910   4.305   5.410 -0.7813  1.5309 -1.3937
   60DG      H4 1361   1.810   4.162   5.415 -4.8196 -0.1132 -3.2509
   60DG      H5 1362   1.806   4.261   5.282  0.7197  2.0820  1.1802
   60DG      H6 1363   2.363   4.470   4.964  0.1908 -3.4576 -1.7215
   60DG      H7 1364   2.415   4.512   5.130 -0.0291 -0.3249 -0.2662
   60DG      H8 1365   2.525   4.443   5.018  1.1065  1.3404  1.4594
   60DG      O9 1366   1.995   4.145   5.315  0.0462  0.6195  0.2904
   60DG     O10 1367   2.377   4.311   5.101 -0.1743  0.3833  0.1635
   60DG     C11 1368   2.077   4.106   5.423  0.6995  0.3959 -0.0418
   60DG     C12 1369   2.451   4.264   5.210 -0.3285  0.0273 -0.1601
   60DG     H13 1370   2.026   4.026   5.476  0.5366 -0.1904 -1.0627
   60DG     H14 1371   2.084   4.181   5.501 -1.3291  1.1324 -0.4973
   60DG     H15 1372   2.442   4.345   5.282 -1.5020  0.6832 -1.0074
   60DG     H16 1373   2.551   4.241   5.176 -0.2137  0.8266 -0.3698
   60DG     C17 1374   2.204   4.047   5.376 -0.0307 -1.2511  0.0455
   60DG     C18 1375   2.397   4.133   5.266 -0.2842  0.2842  0.3701
   60DG     O19 1376   2.266   4.159   5.312  0.1059 -0.1290 -0.0221
   60DG     H20 1377   2.181   3.974   5.299 -1.6379  1.3627 -2.1405
   60DG     H21 1378   2.258   4.000   5.459  1.1708  2.8946  1.8969
   60DG     H22 1379   2.407   4.053   5.193  0.3740 -0.3996  1.1825
   60DG     H23 1380   2.453   4.103   5.354  2.8311  1.7160 -0.9701
   61DG      C1 1381   3.584   0.980   4.813 -0.3291 -0.1737  0.1680
   61DG      C2 1382   3.584   0.373   5.010 -0.2147  0.5515 -0.0840
   61DG      H3 1383   3.576   1.044   4.901 -0.4700 -1.1784  0.9109
   61DG      H4 1384   3.535   1.042   4.737 -0.9969 -1.3828 -0.4241
   61DG      H5 1385   3.686   0.958   4.781  0.2197  3.5272 -1.1055
   61DG      H6 1386   3.564   0.383   5.117 -0.8374 -2.8155  0.2458
   61DG      H7 1387   3.552   0.270   4.990  0.4789  0.0930  1.1004
   61DG      H8 1388   3.691   0.377   4.990 -0.1114  1.0554  0.5398
   61DG      O9 1389   3.507   0.865   4.828  0.2952  0.1334  0.3237
   61DG     O10 1390   3.514   0.466   4.935  0.5783 -0.0329  0.5021
   61DG     C11 1391   3.362   0.894   4.822 -0.1852 -0.4410 -0.0128
   61DG     C12 1392   3.374   0.439   4.939  0.0799 -0.1662 -0.3494
   61DG     H13 1393   3.333   0.959   4.739 -0.5365 -1.9062 -1.0615
   61DG     H14 1394   3.348   0.941   4.919  1.1519 -0.6255  0.2956
   61DG     H15 1395   3.336   0.435   5.041 -0.4750 -0.2201 -0.5580
   61DG     H16 1396   3.353   0.340   4.900 -2.2774  0.1093  0.1091
   61DG     C17 1397   3.283   0.766   4.810 -0.0678 -0.7552 -0.6568
   61DG     C18 1398   3.294   0.531   4.853  0.4473  1.4490 -0.1596
   61DG     O19 1399   3.345   0.656   4.884  0.1234 -0.3262 -0.4039
   61DG     H20 1400   3.268   0.748   4.704 -0.7809  0.0630 -0.7068
   61DG     H21 1401   3.188   0.775   4.864 -0.5368 -0.9770 -1.4382
   61DG     H22 1402   3.302   0.499   4.749 -1.5398  2.7876 -0.7802
   61DG     H23 1403   3.189   0.515   4.875  1.0016  0.9628  2.4341
   62DG      C1 1404   0.717   1.928   4.858  0.1261  0.1274  0.2752
   62DG      C2 1405   1.233   2.043   4.295 -0.2797 -1.0833 -0.5808
   62DG      H3 1406   0.784   1.903   4.941  0.9908 -1.4884 -0.8488
   62DG      H4 1407   0.630   1.867   4.885 -1.1193  1.9237  0.4397
   62DG      H5 1408   0.680   2.030   4.853  0.3452  0.2701  1.3122
   62DG      H6 1409   1.327   1.995   4.270  0.1271 -0.4376 -0.3242
   62DG      H7 1410   1.210   2.112   4.214  1.9158 -1.4446 -1.5874
   62DG      H8 1411   1.235   2.109   4.383  4.3858  1.0071 -1.9376
   62DG      O9 1412   0.773   1.892   4.729 -0.1771 -0.0217 -0.1914
   62DG     O10 1413   1.136   1.950   4.314  0.1421 -0.4407  0.3553
   62DG     C11 1414   0.866   1.787   4.734 -0.3277  0.6481  0.0580
   62DG     C12 1415   1.180   1.832   4.377 -0.6101 -0.1740  0.0527
   62DG     H13 1416   0.829   1.704   4.793 -0.2349 -1.5272 -2.7471
   62DG     H14 1417   0.958   1.812   4.785 -1.0940  1.7265  0.9712
   62DG     H15 1418   1.246   1.859   4.459  0.5138  0.0048 -0.8936
   62DG     H16 1419   1.237   1.776   4.303  3.1846  1.0030  1.8196
   62DG     C17 1420   0.902   1.724   4.594  0.3455 -0.1931  0.4168
   62DG     C18 1421   1.069   1.742   4.432  0.0068  0.2553  0.7233
   62DG     O19 1422   1.000   1.803   4.538  0.5343 -0.0605  0.0363
   62DG     H20 1423   0.814   1.723   4.530  1.9842 -2.4619 -1.9468
   62DG     H21 1424   0.933   1.623   4.619 -1.3590 -0.7248  0.5164
   62DG     H22 1425   1.009   1.707   4.348  2.1325 -0.3261 -0.6272
   62DG     H23 1426   1.125   1.654   4.465 -0.0659  0.8501  2.4996
   63DG      C1 1427   0.035   2.653   0.010 -0.0437  0.4597 -0.2267
   63DG      C2 1428  -0.504   2.604  -0.392  0.6213 -0.0283  0.4717
   63DG      H3 1429  -0.046   2.665   0.082 -2.2125 -0.8681 -2.2736
   63DG      H4 1430   0.061   2.752  -0.029  0.6547  0.4912  0.2996
   63DG      H5 1431   0.128   2.618   0.053 -0.0562  0.6366 -0.0574
   63DG      H6 1432  -0.550   2.642  -0.301 -1.7476  1.5586 -1.2489
   63DG      H7 1433  -0.478   2.687  -0.458 -0.2762  2.1588  2.7347
   63DG      H8 1434  -0.581   2.543  -0.439 -0.5657  1.5099  0.3152
   63DG      O9 1435  -0.012   2.562  -0.086  0.1983  0.3402  0.2070
   63DG     O10 1436  -0.382   2.535  -0.356 -0.1749  0.3732  0.1473
   63DG     C11 1437   0.077   2.556  -0.194 -0.1007  0.1918 -0.2675
   63DG     C12 1438  -0.319   2.469  -0.459 -0.1053  0.3890 -0.5270
   63DG     H13 1439   0.169   2.512  -0.155 -1.1552 -0.4893  1.6005
   63DG     H14 1440   0.076   2.659  -0.229 -0.8829  0.3536  0.2059
   63DG     H15 1441  -0.316   2.538  -0.544 -2.4314 -0.9254 -1.8101
   63DG     H16 1442  -0.387   2.390  -0.492  0.2217 -0.8401  1.5656
   63DG     C17 1443   0.020   2.456  -0.294  0.1977 -0.3651 -0.2076
   63DG     C18 1444  -0.179   2.417  -0.419  0.2133 -0.1046 -0.4019
   63DG     O19 1445  -0.107   2.504  -0.334 -0.6955  0.4913  0.4085
   63DG     H20 1446   0.028   2.353  -0.260  2.4501 -0.2226 -0.1414
   63DG     H21 1447   0.081   2.456  -0.383 -0.3585 -1.1985 -0.6000
   63DG     H22 1448  -0.193   2.319  -0.374  0.4394 -0.8175 -1.8210
   63DG     H23 1449  -0.120   2.401  -0.510 -0.6101 -0.2657 -0.9153
   64DG      C1 1450   3.293   4.057   2.568  0.3640  0.3866 -0.2301
   64DG      C2 1451   2.784   3.651   2.772  0.8781  0.3885 -0.4405
   64DG      H3 1452   3.266   4.010   2.473  0.0753 -0.9825  0.5062
   64DG      H4 1453   3.399   4.052   2.589  0.2597 -0.4928  0.1194
   64DG      H5 1454   3.265   4.162   2.566  3.0751  1.1681 -2.0199
   64DG      H6 1455   2.800   3.584   2.688  0.7998  0.7665 -0.7606
   64DG      H7 1456   2.775   3.589   2.861  0.6366 -1.9287 -2.0010
   64DG      H8 1457   2.689   3.697   2.747  0.5866  0.6110  0.9697
   64DG      O9 1458   3.229   3.997   2.677 -0.1252 -0.2513  0.3259
   64DG     O10 1459   2.888   3.756   2.788 -0.0883  0.2254  0.2657
   64DG     C11 1460   3.233   4.071   2.798 -0.2117  0.3104 -0.9956
   64DG     C12 1461   2.880   3.820   2.917  0.1806 -0.1263  0.0236
   64DG     H13 1462   3.159   4.147   2.772 -0.8736 -0.1054 -0.3554
   64DG     H14 1463   3.326   4.123   2.822 -0.8361  1.1709 -0.3825
   64DG     H15 1464   2.923   3.747   2.985 -1.2757 -0.9298  0.1197
   64DG     H16 1465   2.774   3.829   2.941  0.5811  0.2630  1.7826
   64DG     C17 1466   3.201   3.985   2.920  0.3268 -0.0004  0.0904
   64DG     C18 1467   2.967   3.944   2.925  1.1706  0.2279 -0.2903
   64DG     O19 1468   3.093   3.897   2.890 -0.0497 -0.2617 -0.2416
   64DG     H20 1469   3.192   4.053   3.004 -0.2316 -0.3217  0.2937
   64DG     H21 1470   3.290   3.924   2.940  0.2812 -0.6523 -1.4832
   64DG     H22 1471   2.933   4.028   2.863  3.2847  1.4906  0.1749
   64DG     H23 1472   2.969   3.969   3.031 -1.0977 -0.7364  0.0467
   65DG      C1 1473   4.287   0.766   3.571  0.2600 -0.4278  0.3549
   65DG      C2 1474   3.817   0.200   3.835 -0.1698 -0.0355  0.3161
   65DG      H3 1475   4.396   0.761   3.567  0.2622 -0.8187  0.7255
   65DG      H4 1476   4.260   0.854   3.629  0.6193  0.9387 -1.4596
   65DG      H5 1477   4.242   0.782   3.474 -0.8672  1.4961  1.1477
   65DG      H6 1478   3.804   0.116   3.904 -3.8304 -2.9510 -3.3490
   65DG      H7 1479   3.744   0.276   3.863 -0.8626 -0.9142  0.9607
   65DG      H8 1480   3.788   0.159   3.738 -0.2146 -1.7474  1.0155
   65DG      O9 1481   4.251   0.645   3.624  0.5234 -0.1585 -0.0912
   65DG     O10 1482   3.944   0.255   3.825 -0.2092  0.0931  0.3364
   65DG     C11 1483   4.107   0.613   3.605  0.6654 -0.4957  0.0658
   65DG     C12 1484   3.980   0.346   3.930 -0.2279 -0.7334  0.4058
   65DG     H13 1485   4.095   0.604   3.497 -0.0891 -0.0740  0.1092
   65DG     H14 1486   4.030   0.678   3.646  1.0153  0.7703 -1.2013
   65DG     H15 1487   3.971   0.290   4.023  1.9125 -2.5235 -0.3524
   65DG     H16 1488   3.914   0.432   3.937  0.7956 -0.0571  2.4219
   65DG     C17 1489   4.092   0.482   3.682 -0.6271  0.3556  0.0957
   65DG     C18 1490   4.123   0.392   3.901  0.0085  0.3906 -0.3148
   65DG     O19 1491   4.125   0.503   3.821 -0.0024 -0.4028 -0.5503
   65DG     H20 1492   4.156   0.399   3.653 -1.1890  0.4540 -1.5019
   65DG     H21 1493   3.987   0.452   3.682 -0.8136  0.9027  1.7634
   65DG     H22 1494   4.162   0.426   3.996 -0.6520  1.1536 -0.3038
   65DG     H23 1495   4.190   0.312   3.869  0.6603 -0.8511  3.6321
   66DG      C1 1496   2.940   0.412   3.380 -0.3748  0.4715  0.3263
   66DG      C2 1497   3.635   0.470   3.647  0.8416 -0.4392 -0.4025
   66DG      H3 1498   2.863   0.377   3.449  0.4914 -0.7761  0.6983
   66DG      H4 1499   2.913   0.370   3.284 -0.9076  0.4488  0.4858
   66DG      H5 1500   2.944   0.521   3.378  0.2165  0.4616 -2.3853
   66DG      H6 1501   3.602   0.417   3.736  0.7973  0.3473  0.0511
   66DG      H7 1502   3.742   0.463   3.626  1.2179  0.4760  1.0622
   66DG      H8 1503   3.616   0.573   3.676 -0.5065 -0.8604  0.2792
   66DG      O9 1504   3.072   0.369   3.414 -0.6651  0.3115  0.0530
   66DG     O10 1505   3.571   0.415   3.530  0.1229  0.6153 -0.3198
   66DG     C11 1506   3.180   0.454   3.360 -0.2742  1.1805  0.0101
   66DG     C12 1507   3.611   0.470   3.407 -0.4687  0.3632 -0.0954
   66DG     H13 1508   3.187   0.551   3.410  2.6491  0.7404  0.6383
   66DG     H14 1509   3.158   0.480   3.257  0.5201  1.8936  0.0116
   66DG     H15 1510   3.719   0.471   3.392 -0.1400  1.8223  1.8894
   66DG     H16 1511   3.586   0.576   3.409 -0.7922  0.2855  1.1686
   66DG     C17 1512   3.316   0.382   3.378 -0.2440  0.0667  0.1212
   66DG     C18 1513   3.535   0.413   3.285 -0.3025  0.0592 -0.7088
   66DG     O19 1514   3.401   0.460   3.295  0.1354 -0.5698  0.2021
   66DG     H20 1515   3.316   0.278   3.345  1.5904  0.5975 -1.6852
   66DG     H21 1516   3.336   0.388   3.485  1.4577 -1.3928 -0.0703
   66DG     H22 1517   3.575   0.480   3.209  0.6059  0.4843  0.1105
   66DG     H23 1518   3.547   0.306   3.269 -1.3797 -0.2136  0.1609
   67DG      C1 1519   4.841   2.304   0.810  0.0562  0.4489  0.4373
   67DG      C2 1520   4.860   2.556   0.216  0.5517  0.3200  0.0833
   67DG      H3 1521   4.819   2.406   0.841 -0.3930  0.4618  0.0722
   67DG      H4 1522   4.949   2.284   0.812  0.2824  1.0134 -2.4378
   67DG      H5 1523   4.799   2.233   0.882  1.7268  1.2931  2.3609
   67DG      H6 1524   4.817   2.641   0.268  2.3854  0.4139  1.5313
   67DG      H7 1525   4.964   2.576   0.238  0.7588 -1.1003  0.4928
   67DG      H8 1526   4.844   2.575   0.110  0.9705  1.3831  0.1996
   67DG      O9 1527   4.801   2.271   0.671 -0.5111  0.4832 -0.0860
   67DG     O10 1528   4.825   2.422   0.253 -0.5728 -0.1878 -0.0276
   67DG     C11 1529   4.848   2.144   0.629 -0.6298 -0.0756 -0.1626
   67DG     C12 1530   4.922   2.330   0.216 -0.6459 -0.4643  0.3036
   67DG     H13 1531   4.772   2.090   0.573 -1.2015 -0.6095  1.0744
   67DG     H14 1532   4.887   2.074   0.703 -2.1991 -0.7944  0.0273
   67DG     H15 1533   5.023   2.368   0.234 -0.6922 -0.0726 -0.2365
   67DG     H16 1534   4.920   2.311   0.109  2.6362 -2.5237  0.4585
   67DG     C17 1535   4.974   2.161   0.544  0.8455 -0.1388 -0.5194
   67DG     C18 1536   4.948   2.210   0.310  0.0155 -0.3455  0.0314
   67DG     O19 1537   4.950   2.262   0.445 -0.2733  0.2878  0.5098
   67DG     H20 1538   4.990   2.062   0.502 -1.8642 -0.6079 -0.6186
   67DG     H21 1539   5.054   2.186   0.614  0.5537 -0.9430  0.1188
   67DG     H22 1540   4.865   2.139   0.308 -1.3052  1.0833  1.1857
   67DG     H23 1541   5.046   2.164   0.297 -0.4310 -1.3920  0.3058
   68DG      C1 1542   3.258   2.090   3.128  0.3380  0.3102 -0.0853
   68DG      C2 1543   3.619   2.661   3.074  0.1517  0.3502  0.5277
   68DG      H3 1544   3.245   1.984   3.109 -1.9228  0.6609 -0.7543
   68DG      H4 1545   3.158   2.119   3.159 -0.4736 -1.3150 -1.0938
   68DG      H5 1546   3.331   2.114   3.206 -1.2444 -0.3192  1.6592
   68DG      H6 1547   3.591   2.760   3.038  2.3704  1.5519  1.8866
   68DG      H7 1548   3.663   2.668   3.173  0.7169  1.0643  0.2381
   68DG      H8 1549   3.700   2.619   3.014 -0.7196 -1.7880  0.7557
   68DG      O9 1550   3.287   2.166   3.016  0.4068  0.8716 -0.0760
   68DG     O10 1551   3.505   2.582   3.059  0.1052  0.3026 -0.2675
   68DG     C11 1552   3.414   2.129   2.968 -0.1979  0.5238 -0.9909
   68DG     C12 1553   3.446   2.572   2.931 -0.0797 -0.8870 -0.5852
   68DG     H13 1554   3.407   2.021   2.951  0.0982  0.7506 -2.7309
   68DG     H14 1555   3.500   2.139   3.034 -0.1377  1.3926 -1.1897
   68DG     H15 1556   3.522   2.590   2.856 -1.3703  0.5483 -1.6081
   68DG     H16 1557   3.371   2.648   2.911  1.1480  0.4924 -0.1102
   68DG     C17 1558   3.443   2.215   2.844 -0.6002 -0.0406 -0.5925
   68DG     C18 1559   3.373   2.438   2.916 -0.6853 -0.6843  0.2723
   68DG     O19 1560   3.477   2.349   2.878  0.0814 -0.3113 -0.8136
   68DG     H20 1561   3.354   2.222   2.783 -0.9502  0.1591 -0.0703
   68DG     H21 1562   3.521   2.173   2.780  0.6606  1.5836 -0.2059
   68DG     H22 1563   3.314   2.413   3.004  0.7323 -2.0195  0.9051
   68DG     H23 1564   3.319   2.440   2.822  1.3572 -2.2868 -1.0292
   69DG      C1 1565   1.528   2.621   1.885  0.1363  0.1831  0.1098
   69DG      C2 1566   1.739   3.208   1.688  1.1440 -0.2953 -0.4560
   69DG      H3 1567   1.532   2.521   1.843 -0.5139 -0.3453  1.2649
   69DG      H4 1568   1.428   2.650   1.854  0.1946 -2.2522 -2.8486
   69DG      H5 1569   1.541   2.600   1.991 -0.1390  1.4456  0.4113
   69DG      H6 1570   1.840   3.247   1.674  1.5108 -0.4995  1.3980
   69DG      H7 1571   1.681   3.218   1.596  0.3874 -0.6785 -0.0273
   69DG      H8 1572   1.680   3.261   1.763  1.3541  2.3742 -2.0455
   69DG      O9 1573   1.637   2.696   1.836  0.4902  0.6400 -0.8112
   69DG     O10 1574   1.744   3.077   1.729 -0.6179  0.1210  0.0548
   69DG     C11 1575   1.753   2.637   1.885  0.4754 -0.2051  0.0882
   69DG     C12 1576   1.809   3.007   1.629 -0.0320  1.4106  0.8006
   69DG     H13 1577   1.760   2.530   1.863  2.3415 -0.8496  3.1898
   69DG     H14 1578   1.761   2.638   1.994  2.5733 -0.8934 -0.0129
   69DG     H15 1579   1.913   3.039   1.624  0.6057 -0.7351 -2.1432
   69DG     H16 1580   1.761   3.025   1.533 -1.3696 -1.5728  0.7999
   69DG     C17 1581   1.875   2.708   1.828 -0.2821  0.1970  0.5138
   69DG     C18 1582   1.809   2.864   1.669  0.6455  0.2181  1.1414
   69DG     O19 1583   1.843   2.840   1.801  0.4064  0.1840  0.1327
   69DG     H20 1584   1.906   2.654   1.738 -2.5424 -0.4908  0.1040
   69DG     H21 1585   1.956   2.699   1.900  0.3448  0.1883 -0.1737
   69DG     H22 1586   1.715   2.816   1.641  0.4743 -0.3340  2.6015
   69DG     H23 1587   1.877   2.823   1.594  0.7703 -0.5571  1.6724
   70DG      C1 1588   4.350   0.321   0.931 -0.6281  0.4391  0.3891
   70DG      C2 1589   5.006   0.786   0.607 -0.4517 -0.3158  0.0247
   70DG      H3 1590   4.249   0.286   0.951 -0.4196  0.1763  0.9966
   70DG      H4 1591   4.380   0.379   1.018  0.6777 -0.7693  0.7751
   70DG      H5 1592   4.418   0.237   0.921  0.6266  1.1517  2.3297
   70DG      H6 1593   5.045   0.843   0.691 -2.0323  1.0827 -0.1186
   70DG      H7 1594   5.070   0.704   0.577  2.3520  1.7970 -0.1144
   70DG      H8 1595   5.002   0.855   0.523 -0.2900  0.3654  0.5668
   70DG      O9 1596   4.360   0.406   0.817  0.4142 -0.0040  0.1164
   70DG     O10 1597   4.868   0.737   0.629 -0.5178  0.0456 -0.0209
   70DG     C11 1598   4.501   0.437   0.795  0.8177 -0.0148  0.9039
   70DG     C12 1599   4.802   0.687   0.515  0.5978 -0.3923  0.5836
   70DG     H13 1600   4.556   0.347   0.767 -0.7759 -1.4818  2.2411
   70DG     H14 1601   4.549   0.489   0.877  2.1905 -0.5890  0.4965
   70DG     H15 1602   4.852   0.595   0.486  1.5839  0.4183 -0.3833
   70DG     H16 1603   4.806   0.753   0.428  1.3812  0.8454  1.5407
   70DG     C17 1604   4.501   0.534   0.670  0.6529 -0.5621  0.3705
   70DG     C18 1605   4.655   0.657   0.542  0.6723 -0.0200 -0.2672
   70DG     O19 1606   4.635   0.559   0.644 -0.5509 -0.5963  0.1948
   70DG     H20 1607   4.444   0.624   0.690  1.0055 -0.5796  1.5394
   70DG     H21 1608   4.455   0.487   0.583  0.9116  1.8721 -1.1868
   70DG     H22 1609   4.603   0.749   0.569  1.6323  0.3260  0.4600
   70DG     H23 1610   4.598   0.626   0.454 -1.3913  1.4251  0.4982
   71DG      C1 1611   2.073   1.940   3.467  0.0931 -0.9380  0.6320
   71DG      C2 1612   1.958   2.611   3.564  0.0612  0.6660  0.1213
   71DG      H3 1613   2.159   1.975   3.409  0.5494  0.7705  2.2182
   71DG      H4 1614   2.042   1.848   3.419 -0.3491  0.4410 -1.8974
   71DG      H5 1615   2.118   1.915   3.564  2.1691  0.0492 -0.0211
   71DG      H6 1616   2.042   2.616   3.633  0.0477  3.4359  0.0564
   71DG      H7 1617   1.979   2.685   3.486  1.7049  0.5771  0.4537
   71DG      H8 1618   1.864   2.636   3.614 -1.1608  0.2393 -1.8606
   71DG      O9 1619   1.965   2.039   3.483  0.8853 -0.7574 -0.3214
   71DG     O10 1620   1.939   2.487   3.502  0.1393  0.1865  1.0508
   71DG     C11 1621   1.859   2.016   3.394  0.0849  0.1815 -0.0013
   71DG     C12 1622   1.844   2.497   3.391  0.3487 -0.0619 -0.5683
   71DG     H13 1623   1.800   1.926   3.412 -1.6026  1.3569  0.5799
   71DG     H14 1624   1.893   2.022   3.291  0.5246  0.7114  0.1673
   71DG     H15 1625   1.894   2.501   3.295 -0.9699 -0.7035 -1.3051
   71DG     H16 1626   1.784   2.588   3.394 -0.6284 -0.6653 -1.2813
   71DG     C17 1627   1.767   2.137   3.412  0.6293 -0.2463 -0.1935
   71DG     C18 1628   1.766   2.369   3.371  0.0876  0.8239  0.2331
   71DG     O19 1629   1.844   2.257   3.391  0.1857 -0.4700 -0.3816
   71DG     H20 1630   1.727   2.135   3.513  0.7065 -0.3443 -0.1643
   71DG     H21 1631   1.699   2.133   3.327  3.0204  1.5355 -2.3466
   71DG     H22 1632   1.692   2.358   3.451 -0.1944  1.5615  0.0823
   71DG     H23 1633   1.722   2.356   3.273 -0.8181 -0.5412  0.7816
   72DG      C1 1634   4.433   0.182   2.848 -0.0965 -0.4373 -0.3162
   72DG      C2 1635   4.485   0.450   3.497 -0.0600  0.4726  0.9098
   72DG      H3 1636   4.533   0.175   2.892 -0.9380 -1.1493  1.6049
   72DG      H4 1637   4.432   0.276   2.793  1.6478  0.6660  1.3719
   72DG      H5 1638   4.419   0.103   2.774  2.1917 -0.7888 -0.4521
   72DG      H6 1639   4.512   0.544   3.450 -0.2272 -0.3956 -1.0375
   72DG      H7 1640   4.430   0.465   3.590 -0.0589 -1.4752  1.2784
   72DG      H8 1641   4.586   0.425   3.530  0.8295  1.8141 -0.6466
   72DG      O9 1642   4.352   0.182   2.962 -0.2321 -0.4450  0.4406
   72DG     O10 1643   4.410   0.370   3.406 -0.1419 -0.2099  0.3200
   72DG     C11 1644   4.335   0.058   3.024 -0.2222 -0.3825  0.3231
   72DG     C12 1645   4.361   0.255   3.465 -0.1279  0.5473 -0.4150
   72DG     H13 1646   4.432   0.018   3.053  0.4075 -0.6226 -1.9374
   72DG     H14 1647   4.280  -0.017   2.967  0.6801 -0.2854 -0.7080
   72DG     H15 1648   4.311   0.279   3.559 -2.2455 -1.2438 -1.0071
   72DG     H16 1649   4.444   0.195   3.503  0.9549  1.2497 -1.6158
   72DG     C17 1650   4.250   0.078   3.153  0.0028 -0.2460 -1.0861
   72DG     C18 1651   4.269   0.171   3.372 -0.2371 -0.2183 -0.1045
   72DG     O19 1652   4.334   0.142   3.248 -0.4216 -0.0223  0.1812
   72DG     H20 1653   4.203  -0.013   3.190 -3.7292  2.6508  2.2436
   72DG     H21 1654   4.161   0.138   3.133  0.1218  0.4413  0.3234
   72DG     H22 1655   4.237   0.085   3.431 -0.4537 -1.7912 -2.3977
   72DG     H23 1656   4.181   0.232   3.350 -0.3669 -0.8766 -1.5107
   73DG      C1 1657   0.318   4.919   3.767  0.4407  0.0026  0.0334
   73DG      C2 1658   0.025   5.358   3.340 -0.3473 -0.8284 -0.1413
   73DG      H3 1659   0.344   4.851   3.847  0.3148 -0.2773 -0.1642
   73DG      H4 1660   0.399   4.960   3.706 -0.8907  1.0832 -1.0784
   73DG      H5 1661   0.259   4.860   3.698  1.3635 -0.7423 -0.1355
   73DG      H6 1662  -0.077   5.381   3.309 -0.5901 -1.2521  0.3362
   73DG      H7 1663   0.103   5.434   3.330  0.5062 -1.6370  0.2389
   73DG      H8 1664   0.052   5.273   3.278 -0.4880 -0.6446 -0.4584
   73DG      O9 1665   0.257   5.038   3.808  0.2813 -0.2068 -0.3322
   73DG     O10 1666   0.029   5.317   3.473  0.5455  0.3967 -0.7341
   73DG     C11 1667   0.120   5.034   3.834 -0.7576  0.6720 -0.0222
   73DG     C12 1668   0.034   5.425   3.569 -0.1707 -0.0442 -0.4786
   73DG     H13 1669   0.106   4.982   3.929 -0.1681  2.5321  1.1597
   73DG     H14 1670   0.080   4.980   3.749  2.3734  0.3816 -1.4068
   73DG     H15 1671  -0.045   5.499   3.556  0.9045  1.1644 -0.4366
   73DG     H16 1672   0.134   5.468   3.573 -0.0847 -0.2221 -0.7011
   73DG     C17 1673   0.061   5.179   3.845 -0.4011 -0.5793 -0.3986
   73DG     C18 1674   0.011   5.367   3.707  0.0816 -0.1113  0.8246
   73DG     O19 1675   0.079   5.247   3.724 -0.8713 -0.1446  0.3419
   73DG     H20 1676   0.108   5.236   3.925  0.4110  0.3669 -1.5230
   73DG     H21 1677  -0.045   5.172   3.870 -1.2073 -1.4347 -3.5977
   73DG     H22 1678   0.057   5.434   3.779 -0.5699 -0.3333  1.4647
   73DG     H23 1679  -0.096   5.352   3.727  0.8430 -3.1108  3.6384
   74DG      C1 1680   3.075   5.060   1.693 -0.2653  0.1476 -0.1951
   74DG      C2 1681   2.501   4.833   1.697 -0.1475  0.7364 -0.2583
   74DG      H3 1682   3.095   5.090   1.796  3.0137 -2.4197  0.0598
   74DG      H4 1683   3.131   5.126   1.627 -2.0139  1.1001 -0.7983
   74DG      H5 1684   3.119   4.963   1.674 -0.4845 -0.0567  0.3236
   74DG      H6 1685   2.395   4.833   1.723 -0.4398  3.7152 -1.0982
   74DG      H7 1686   2.509   4.888   1.604 -1.4125 -2.1077 -2.2054
   74DG      H8 1687   2.540   4.731   1.691  0.4915  0.9633 -0.0436
   74DG      O9 1688   2.938   5.069   1.653  0.1826 -0.0010  0.0009
   74DG     O10 1689   2.560   4.910   1.804 -0.9208 -0.1510 -0.7661
   74DG     C11 1690   2.901   5.203   1.622  0.7168  0.1958 -0.5808
   74DG     C12 1691   2.503   5.035   1.822 -0.5547  0.1365  0.2209
   74DG     H13 1692   2.968   5.244   1.547  2.7043  0.1475  1.0799
   74DG     H14 1693   2.912   5.253   1.718 -1.1908 -0.0650 -0.1933
   74DG     H15 1694   2.536   5.070   1.919 -0.1091 -0.0829  0.1528
   74DG     H16 1695   2.394   5.032   1.823 -0.6758  0.1852 -2.7790
   74DG     C17 1696   2.745   5.206   1.588  0.1540  0.2470  0.0066
   74DG     C18 1697   2.547   5.144   1.716 -0.1341  0.3916  0.1763
   74DG     O19 1698   2.685   5.126   1.688  0.0299  0.7893 -0.1997
   74DG     H20 1699   2.734   5.176   1.484  1.7002  1.9514 -0.7165
   74DG     H21 1700   2.709   5.309   1.592  1.4970  0.7086  0.9041
   74DG     H22 1701   2.499   5.136   1.619 -0.6345 -0.6990  0.4957
   74DG     H23 1702   2.541   5.250   1.738 -2.6471  1.0531 -2.9184
   75DG      C1 1703   0.127   3.198   0.352  0.0612 -0.0805 -0.3020
   75DG      C2 1704  -0.145   4.017   0.386  0.0999 -0.4246  0.3004
   75DG      H3 1705   0.192   3.157   0.274 -0.1726  0.6569 -0.8971
   75DG      H4 1706   0.026   3.167   0.322 -0.4462 -1.4229  2.5138
   75DG      H5 1707   0.152   3.139   0.440  1.2385  1.5094  0.4663
   75DG      H6 1708  -0.153   4.111   0.332  2.5544 -0.9390 -1.1205
   75DG      H7 1709  -0.232   3.972   0.432 -0.2812 -0.3135 -0.3123
   75DG      H8 1710  -0.066   4.048   0.456  0.5214 -0.4949 -0.1377
   75DG      O9 1711   0.163   3.333   0.358 -0.4590 -0.4837 -0.6863
   75DG     O10 1712  -0.099   3.913   0.299 -0.7965 -0.1791 -0.3565
   75DG     C11 1713   0.124   3.387   0.482  0.0714 -0.6443 -0.2032
   75DG     C12 1714  -0.071   3.795   0.381 -0.3345 -0.3470 -0.0327
   75DG     H13 1715   0.207   3.370   0.551  2.3277  1.3407 -2.2420
   75DG     H14 1716   0.036   3.331   0.514 -0.1744 -0.3616 -0.3798
   75DG     H15 1717  -0.138   3.767   0.463 -0.3372  2.3943  1.0054
   75DG     H16 1718   0.030   3.803   0.420  0.7151 -3.5269 -1.7544
   75DG     C17 1719   0.080   3.541   0.458 -0.2448  0.0428 -0.7520
   75DG     C18 1720  -0.046   3.670   0.299  0.4431  0.0026  0.2360
   75DG     O19 1721  -0.043   3.554   0.386 -0.7518 -0.5385  0.2103
   75DG     H20 1722   0.160   3.602   0.416  0.7862 -0.2826  0.6810
   75DG     H21 1723   0.071   3.590   0.555  0.7472 -0.8605 -0.1866
   75DG     H22 1724  -0.125   3.652   0.226  0.6691 -1.9747  0.4212
   75DG     H23 1725   0.032   3.673   0.223 -1.4444 -2.2951 -1.9999
   76DG      C1 1726   2.458   2.345   2.062 -0.4619 -0.0485  0.0392
   76DG      C2 1727   1.887   2.468   2.501  0.1804 -0.2025 -0.3661
   76DG      H3 1728   2.503   2.387   1.973  0.4396 -2.2477 -0.6058
   76DG      H4 1729   2.495   2.244   2.078 -1.2146 -0.2044  0.8959
   76DG      H5 1730   2.479   2.396   2.156  0.6607 -2.7120  1.3540
   76DG      H6 1731   1.940   2.537   2.566  1.5165  0.2653 -1.9043
   76DG      H7 1732   1.796   2.526   2.487  2.1908  2.7631 -2.2716
   76DG      H8 1733   1.877   2.380   2.564 -1.2644 -1.0983 -1.7517
   76DG      O9 1734   2.323   2.320   2.030  0.3134  0.2885  0.0963
   76DG     O10 1735   1.952   2.447   2.377  0.3104 -0.2484  0.3112
   76DG     C11 1736   2.256   2.444   2.005 -0.1235  0.3997  0.0487
   76DG     C12 1737   1.884   2.351   2.296 -0.2176  0.5002  0.5705
   76DG     H13 1738   2.293   2.493   1.915  0.4227  0.2882  0.2135
   76DG     H14 1739   2.288   2.511   2.084  4.3939 -0.2144 -1.0114
   76DG     H15 1740   1.776   2.358   2.285 -0.2461 -0.6791 -0.0945
   76DG     H16 1741   1.913   2.249   2.317 -1.6613 -0.2638 -0.9038
   76DG     C17 1742   2.103   2.431   2.019  0.3719 -0.4137 -0.5113
   76DG     C18 1743   1.926   2.398   2.159  0.1875  0.1588 -0.1715
   76DG     O19 1744   2.069   2.398   2.145  0.6567 -0.2243 -0.2796
   76DG     H20 1745   2.073   2.354   1.948  1.1866  0.9805 -2.4355
   76DG     H21 1746   2.052   2.524   1.993  0.3804 -0.6977 -1.6030
   76DG     H22 1747   1.867   2.341   2.088  1.2106 -1.8498  0.5041
   76DG     H23 1748   1.903   2.501   2.132  0.4642 -0.0994 -1.4602
   77DG      C1 1749   1.461   1.239   2.717  0.8347  0.6246 -0.1070
   77DG      C2 1750   1.122   1.321   2.114  0.2420  0.3692  0.3810
   77DG      H3 1751   1.530   1.322   2.704 -0.1499  1.4822 -0.0117
   77DG      H4 1752   1.505   1.160   2.656  4.0127  2.2425 -0.0613
   77DG      H5 1753   1.469   1.213   2.823 -2.6157  2.2689  0.6999
   77DG      H6 1754   1.178   1.411   2.088  0.2852 -0.7919 -4.3323
   77DG      H7 1755   1.194   1.246   2.080  1.2254  0.0445  2.9321
   77DG      H8 1756   1.028   1.320   2.059  0.8500  2.0649 -0.7608
   77DG      O9 1757   1.325   1.254   2.661 -0.0443  0.3512 -0.6183
   77DG     O10 1758   1.100   1.304   2.255 -0.2005 -0.3766 -0.7270
   77DG     C11 1759   1.268   1.375   2.710  0.2940  0.3748  0.2430
   77DG     C12 1760   1.028   1.413   2.313  0.2731 -0.7552  0.6128
   77DG     H13 1761   1.325   1.452   2.657  0.5123 -1.4926 -2.4277
   77DG     H14 1762   1.276   1.375   2.819 -0.4370  0.4624  0.3063
   77DG     H15 1763   0.934   1.440   2.265  0.8217  1.8614  0.8341
   77DG     H16 1764   1.088   1.503   2.297 -3.8970  2.1918 -0.1237
   77DG     C17 1765   1.127   1.396   2.659  0.4817 -0.1495 -0.3902
   77DG     C18 1766   0.999   1.390   2.460 -0.5078 -0.1106 -0.2459
   77DG     O19 1767   1.126   1.377   2.515  0.1629 -0.2230  0.2195
   77DG     H20 1768   1.110   1.502   2.679  2.7720 -0.2832  3.0766
   77DG     H21 1769   1.052   1.335   2.710 -0.0296 -0.3647 -1.3595
   77DG     H22 1770   0.943   1.465   2.515 -0.4200  0.4609 -0.9164
   77DG     H23 1771   0.948   1.294   2.465  1.2056 -1.0286  0.5387
   78DG      C1 1772   1.398   2.152   0.278 -0.2534  0.3375  0.0586
   78DG      C2 1773   1.486   2.736   0.881  0.3044 -0.4840  0.6589
   78DG      H3 1774   1.403   2.075   0.355 -0.7893 -0.3023 -0.5287
   78DG      H4 1775   1.492   2.149   0.223  0.5336 -1.4864  1.4088
   78DG      H5 1776   1.315   2.133   0.210  0.8925 -0.5923 -1.1514
   78DG      H6 1777   1.453   2.819   0.943  1.3839  1.1587 -0.8858
   78DG      H7 1778   1.510   2.652   0.946  0.1012 -1.0509  0.0173
   78DG      H8 1779   1.580   2.772   0.839  0.0468  1.3738  1.5549
   78DG      O9 1780   1.372   2.278   0.333 -0.0593 -0.4495  0.3254
   78DG     O10 1781   1.382   2.707   0.795  0.3748 -0.8296  0.3101
   78DG     C11 1782   1.267   2.272   0.428  0.0125 -0.2125 -0.6116
   78DG     C12 1783   1.417   2.604   0.708  0.1387  0.5246  0.9202
   78DG     H13 1784   1.294   2.204   0.508  1.6856  1.8433  0.6733
   78DG     H14 1785   1.192   2.214   0.374  3.5484 -4.3254 -1.6294
   78DG     H15 1786   1.455   2.528   0.776 -0.1262 -0.6539 -0.2063
   78DG     H16 1787   1.498   2.642   0.645  0.7478 -2.0629 -0.0221
   78DG     C17 1788   1.223   2.408   0.483 -0.0831  0.3273 -0.1044
   78DG     C18 1789   1.293   2.568   0.633  0.3541 -0.8405  0.7254
   78DG     O19 1790   1.333   2.471   0.539 -0.2850  0.1760 -0.0700
   78DG     H20 1791   1.142   2.386   0.552 -1.7554  1.3308 -1.6746
   78DG     H21 1792   1.179   2.480   0.414  1.3560  1.4474  0.0866
   78DG     H22 1793   1.225   2.525   0.706  0.3200 -0.2439  1.0449
   78DG     H23 1794   1.254   2.654   0.579 -0.3749 -1.3532  0.4328
   79DG      C1 1795   0.464   2.645   0.832 -0.3283  0.1063 -1.0618
   79DG      C2 1796   0.085   2.312   0.518 -0.4305  0.0237 -0.2747
   79DG      H3 1797   0.539   2.723   0.833 -1.1616  0.9170  0.2967
   79DG      H4 1798   0.497   2.551   0.786  1.0203  0.5308 -1.0167
   79DG      H5 1799   0.429   2.627   0.933 -0.4856 -1.4147 -1.3575
   79DG      H6 1800   0.174   2.357   0.562 -0.0523 -0.0206 -0.9799
   79DG      H7 1801   0.045   2.225   0.569  1.0882 -1.6693 -1.8255
   79DG      H8 1802   0.110   2.275   0.419  1.0214  1.1744 -0.3751
   79DG      O9 1803   0.357   2.694   0.753 -0.2777  0.3668  0.6793
   79DG     O10 1804  -0.035   2.397   0.517  0.0517 -0.1587 -0.1870
   79DG     C11 1805   0.387   2.691   0.613  0.1488  1.2470  0.7069
   79DG     C12 1806  -0.032   2.519   0.437  0.2225  0.1729 -0.2877
   79DG     H13 1807   0.423   2.594   0.577 -3.9524 -0.8346  1.7124
   79DG     H14 1808   0.460   2.770   0.592  0.1084  0.7589 -1.6212
   79DG     H15 1809  -0.134   2.543   0.406 -0.2703 -0.3346  0.8649
   79DG     H16 1810   0.022   2.485   0.349 -0.4290 -1.9933  0.0802
   79DG     C17 1811   0.248   2.729   0.547 -0.5043 -0.3749  0.2084
   79DG     C18 1812   0.033   2.640   0.507 -0.2138 -0.0312 -0.4200
   79DG     O19 1813   0.174   2.624   0.498  0.1232 -0.2394  0.3920
   79DG     H20 1814   0.275   2.776   0.453 -0.8647 -1.6878 -0.5768
   79DG     H21 1815   0.187   2.803   0.600 -1.1271  0.3921 -1.4929
   79DG     H22 1816   0.002   2.732   0.458 -0.9994  0.8417  1.6019
   79DG     H23 1817  -0.003   2.649   0.610  2.2432 -3.8506  0.9648
   80DG      C1 1818   4.040   3.487   1.869 -0.2097  0.0418 -0.3471
   80DG      C2 1819   3.343   3.326   1.759 -0.4152 -0.8227 -0.6100
   80DG      H3 1820   4.137   3.460   1.827  1.6565 -0.8621  4.0035
   80DG      H4 1821   4.064   3.547   1.957  0.8221  1.3953 -1.5012
   80DG      H5 1822   3.984   3.546   1.796  0.8451  2.9304  0.9906
   80DG      H6 1823   3.341   3.410   1.689 -0.1680 -0.1018  0.2327
   80DG      H7 1824   3.251   3.273   1.734 -1.2221  0.2299  0.0570
   80DG      H8 1825   3.345   3.363   1.861 -1.5043 -2.9513  0.2226
   80DG      O9 1826   3.962   3.382   1.917 -0.3255 -0.2589  0.2328
   80DG     O10 1827   3.471   3.267   1.733 -0.6748 -0.1406  0.0959
   80DG     C11 1828   3.860   3.431   2.000  0.3732 -0.1655  0.0137
   80DG     C12 1829   3.509   3.151   1.809 -0.0457 -0.6209 -0.3152
   80DG     H13 1830   3.811   3.521   1.962  3.3070  1.0326 -1.2892
   80DG     H14 1831   3.899   3.466   2.095 -3.7206  2.5043  0.9420
   80DG     H15 1832   3.578   3.104   1.739 -0.4577 -1.1764 -0.3559
   80DG     H16 1833   3.416   3.094   1.818 -0.8588  0.7010 -0.0942
   80DG     C17 1834   3.761   3.316   2.039 -0.1737  0.1400  0.1691
   80DG     C18 1835   3.580   3.199   1.940 -0.0742  0.6299  0.1021
   80DG     O19 1836   3.691   3.286   1.914 -0.3654  0.1980  0.2981
   80DG     H20 1837   3.701   3.341   2.126 -0.2712 -0.4712  0.2843
   80DG     H21 1838   3.820   3.229   2.069  1.0348  1.2094  0.9636
   80DG     H22 1839   3.509   3.256   2.001  1.1788  1.1576  1.1238
   80DG     H23 1840   3.625   3.114   1.990 -0.2673 -0.5360 -1.6387
   81DG      C1 1841   1.408   0.801   3.178 -0.4548  0.1652  0.4932
   81DG      C2 1842   0.802   0.556   3.120 -0.9434  0.2420  0.2431
   81DG      H3 1843   1.456   0.853   3.261  1.8736 -1.4017  0.2342
   81DG      H4 1844   1.464   0.836   3.091  1.0760 -0.1013  1.3299
   81DG      H5 1845   1.417   0.693   3.188  1.6905  0.3794  1.4270
   81DG      H6 1846   0.756   0.534   3.216  0.0763  0.5280  0.8154
   81DG      H7 1847   0.728   0.562   3.040 -1.5756  0.2357  0.8198
   81DG      H8 1848   0.869   0.473   3.098 -2.8203 -1.0747 -0.7558
   81DG      O9 1849   1.273   0.831   3.169  0.4074  0.3453 -0.8182
   81DG     O10 1850   0.880   0.677   3.124 -0.2692 -0.4683 -0.1457
   81DG     C11 1851   1.251   0.970   3.132  0.0400  0.4051 -0.2012
   81DG     C12 1852   0.813   0.783   3.059  0.4618  0.3933  0.1529
   81DG     H13 1853   1.281   0.979   3.028 -0.2641 -3.3842 -0.7316
   81DG     H14 1854   1.306   1.032   3.204 -1.6926  1.4716  0.2679
   81DG     H15 1855   0.707   0.792   3.082  0.8609  2.9780  1.3604
   81DG     H16 1856   0.822   0.747   2.956 -1.2017 -2.6282  0.9670
   81DG     C17 1857   1.100   1.006   3.141 -0.1796  0.2983  0.1317
   81DG     C18 1858   0.882   0.918   3.084 -0.0361  0.1435 -0.1501
   81DG     O19 1859   1.019   0.894   3.113 -0.2105  0.4826 -0.1984
   81DG     H20 1860   1.083   1.091   3.074  3.5111  1.2591  0.2001
   81DG     H21 1861   1.063   1.047   3.235 -1.6558 -0.1979 -0.2026
   81DG     H22 1862   0.857   0.975   2.995 -1.2185 -0.6665 -0.3762
   81DG     H23 1863   0.830   0.970   3.165 -2.5756 -0.0350 -1.5611
   82DG      C1 1864   1.223   5.054   5.366  0.5348 -0.0731 -0.7067
   82DG      C2 1865   1.202   5.367   4.728 -0.1641 -0.0121 -0.0072
   82DG      H3 1866   1.218   4.964   5.305  1.5719 -2.5396  2.5736
   82DG      H4 1867   1.134   5.053   5.428 -0.8260 -0.5093 -2.5971
   82DG      H5 1868   1.318   5.055   5.420 -0.5605 -0.4984  1.3165
   82DG      H6 1869   1.108   5.357   4.675 -0.3008  0.0701  0.2195
   82DG      H7 1870   1.253   5.451   4.680 -0.6106 -0.0338 -0.5296
   82DG      H8 1871   1.256   5.274   4.706 -0.5024  0.0630 -1.2309
   82DG      O9 1872   1.191   5.160   5.284  0.6622 -0.2227  0.0281
   82DG     O10 1873   1.191   5.367   4.868  0.0690  0.3043 -0.3179
   82DG     C11 1874   1.227   5.274   5.342 -0.1055  0.0549 -1.2470
   82DG     C12 1875   1.153   5.492   4.923  0.0732  0.8062  0.9286
   82DG     H13 1876   1.333   5.286   5.315  0.6458 -2.2656  0.4248
   82DG     H14 1877   1.231   5.269   5.450  3.3816  0.5927 -1.2067
   82DG     H15 1878   1.076   5.536   4.859  1.6991  1.1813 -0.8976
   82DG     H16 1879   1.239   5.559   4.920 -1.2688  2.5830 -0.8550
   82DG     C17 1880   1.139   5.383   5.283  0.8070  0.4229  0.3939
   82DG     C18 1881   1.095   5.474   5.067 -0.2696 -0.2883 -0.4741
   82DG     O19 1882   1.180   5.386   5.148  0.1826  0.5581 -0.3551
   82DG     H20 1883   1.162   5.480   5.328  0.4258  0.5211  0.3790
   82DG     H21 1884   1.034   5.359   5.298  0.7000  1.8184  2.3932
   82DG     H22 1885   1.068   5.573   5.104  0.3582  0.0582 -0.9367
   82DG     H23 1886   0.999   5.430   5.044  0.8081 -0.7739 -4.7811
   83DG      C1 1887   1.332   2.130   2.533  0.3941 -0.0169  0.3877
   83DG      C2 1888   1.552   1.896   3.158 -0.1308  0.6539 -0.7580
   83DG      H3 1889   1.287   2.228   2.517 -0.1667 -0.3727 -0.2368
   83DG      H4 1890   1.265   2.045   2.545  1.7719 -1.4779 -1.6393
   83DG      H5 1891   1.382   2.109   2.439 -2.0848 -0.2675 -0.9394
   83DG      H6 1892   1.585   1.805   3.108  2.2459  0.9002  0.2201
   83DG      H7 1893   1.610   1.895   3.250 -0.0577  0.5584 -0.8048
   83DG      H8 1894   1.446   1.881   3.175  0.1211  0.7673  1.1703
   83DG      O9 1895   1.431   2.133   2.638  0.2181 -0.0141  0.2971
   83DG     O10 1896   1.572   1.997   3.061 -0.0843  0.4280 -0.8134
   83DG     C11 1897   1.534   2.228   2.613 -0.4775  0.8400  0.2441
   83DG     C12 1898   1.704   2.003   3.013 -0.2640  0.0267  0.3905
   83DG     H13 1899   1.492   2.325   2.587  0.6464  0.7753 -2.1042
   83DG     H14 1900   1.595   2.200   2.528  0.4210  3.2168  0.0474
   83DG     H15 1901   1.738   1.913   2.960  0.9620  1.0312 -0.6103
   83DG     H16 1902   1.777   2.009   3.094  0.8068 -0.0730 -0.5277
   83DG     C17 1903   1.619   2.235   2.740 -0.3475  0.1627  0.5593
   83DG     C18 1904   1.716   2.133   2.926  0.4287 -0.3860 -0.9890
   83DG     O19 1905   1.633   2.116   2.806 -0.4567 -0.0136  0.3287
   83DG     H20 1906   1.571   2.304   2.809  1.4997 -0.0701  2.1621
   83DG     H21 1907   1.713   2.282   2.708  0.5958 -3.0390 -1.9124
   83DG     H22 1908   1.688   2.228   2.972  1.7254 -0.0961 -0.7750
   83DG     H23 1909   1.817   2.148   2.888  1.1931 -0.4448  0.9083
   84DG      C1 1910   0.292   1.252   0.502  0.1991  0.2361  0.0251
   84DG      C2 1911  -0.215   0.803   0.876  0.0600  0.7401 -0.0688
   84DG      H3 1912   0.250   1.263   0.402 -1.1525 -1.2148  0.3867
   84DG      H4 1913   0.397   1.280   0.502 -0.2017  2.1746  2.4306
   84DG      H5 1914   0.235   1.325   0.561  0.4540  1.6941 -1.4578
   84DG      H6 1915  -0.233   0.696   0.877  0.8686  0.5714  2.0842
   84DG      H7 1916  -0.259   0.851   0.963  2.7570  0.5184  1.5439
   84DG      H8 1917  -0.262   0.862   0.797  1.1991  2.2471  0.3410
   84DG      O9 1918   0.276   1.118   0.533  0.3065 -0.0191 -0.8198
   84DG     O10 1919  -0.072   0.813   0.876 -0.2462 -0.1646  0.5254
   84DG     C11 1920   0.326   1.072   0.657  0.0060  1.0440 -0.6335
   84DG     C12 1921  -0.024   0.756   0.756  0.0532 -0.3555 -0.2717
   84DG     H13 1922   0.282   1.124   0.743  0.6345 -0.7264  0.8385
   84DG     H14 1923   0.434   1.072   0.671 -0.1308  0.9177  0.5137
   84DG     H15 1924  -0.053   0.803   0.661 -0.0063 -0.1931 -0.1740
   84DG     H16 1925  -0.042   0.649   0.757  2.8698 -0.9154  0.7708
   84DG     C17 1926   0.288   0.923   0.671 -0.7131  0.1576  1.0599
   84DG     C18 1927   0.126   0.764   0.751 -0.7215 -0.3904 -0.3235
   84DG     O19 1928   0.165   0.900   0.728  0.5584 -0.3193 -0.2110
   84DG     H20 1929   0.365   0.875   0.731  0.4835 -0.8647 -1.1648
   84DG     H21 1930   0.299   0.871   0.576 -2.7468  1.1309  0.2359
   84DG     H22 1931   0.158   0.715   0.843 -0.9222  0.8740  0.4587
   84DG     H23 1932   0.160   0.704   0.667 -1.2155 -3.3046  1.4217
   85DG      C1 1933   3.854   2.824   1.903  0.5780 -0.5192  0.4619
   85DG      C2 1934   4.192   2.795   1.362 -0.3722  0.3784  0.7298
   85DG      H3 1935   3.814   2.856   1.999 -1.4506 -0.3821 -0.3845
   85DG      H4 1936   3.877   2.718   1.899 -0.0150 -0.6972  1.3445
   85DG      H5 1937   3.786   2.843   1.820  2.6655  2.7557 -0.6966
   85DG      H6 1938   4.281   2.746   1.401  2.2580  3.2519 -1.2057
   85DG      H7 1939   4.122   2.717   1.331 -0.2392 -0.0283  1.4403
   85DG      H8 1940   4.231   2.850   1.276  0.5505 -1.2412  0.0646
   85DG      O9 1941   3.971   2.892   1.869  0.0776  0.2339 -0.1583
   85DG     O10 1942   4.132   2.880   1.458 -0.3364 -0.3367  0.3917
   85DG     C11 1943   3.960   3.033   1.867  0.0859 -0.5614  0.0510
   85DG     C12 1944   4.027   2.957   1.399  0.8024 -0.1332 -0.8461
   85DG     H13 1945   4.060   3.069   1.889  0.4979 -0.4837 -1.7706
   85DG     H14 1946   3.902   3.078   1.948  1.3262  0.1187  0.5951
   85DG     H15 1947   3.944   2.896   1.364  1.2592 -0.4010 -1.4848
   85DG     H16 1948   4.053   3.008   1.306  0.3615 -0.0177 -0.9083
   85DG     C17 1949   3.914   3.086   1.733  0.5018 -0.0722  0.1173
   85DG     C18 1950   3.967   3.059   1.497 -0.1232 -0.1278 -0.9392
   85DG     O19 1951   3.978   3.004   1.634 -0.0336 -0.2925  0.1642
   85DG     H20 1952   3.951   3.188   1.721 -1.6931  0.9797  1.6314
   85DG     H21 1953   3.805   3.083   1.728  0.5751 -2.4324 -1.8457
   85DG     H22 1954   4.016   3.156   1.488  0.8404 -0.6175 -1.1632
   85DG     H23 1955   3.865   3.075   1.464 -0.8199 -0.2428  1.0289
   86DG      C1 1956   2.168   3.421   1.250  0.6084 -0.4656 -0.2845
   86DG      C2 1957   1.800   3.731   1.043  0.1935  0.4424  0.6213
   86DG      H3 1958   2.163   3.388   1.147 -1.2110  0.2832 -0.4707
   86DG      H4 1959   2.265   3.469   1.265  0.1906  0.6803 -1.1358
   86DG      H5 1960   2.093   3.497   1.272  3.3919  1.6783  2.8652
   86DG      H6 1961   1.728   3.692   0.970 -0.3626  1.2572  0.7186
   86DG      H7 1962   1.747   3.807   1.101 -1.2674  0.1061 -0.2173
   86DG      H8 1963   1.879   3.774   0.981  1.6733 -2.0465  0.6329
   86DG      O9 1964   2.164   3.310   1.337  0.4871  0.1693  0.0778
   86DG     O10 1965   1.839   3.624   1.125  0.0709  0.1048 -0.3165
   86DG     C11 1966   2.051   3.227   1.312  0.3023  0.2586 -0.1692
   86DG     C12 1967   1.738   3.595   1.217  0.3552 -0.5271  0.4821
   86DG     H13 1968   2.056   3.139   1.376 -0.4012 -1.4562 -2.3425
   86DG     H14 1969   2.036   3.174   1.218  2.7091 -1.3265  0.2614
   86DG     H15 1970   1.646   3.571   1.163 -0.0841 -1.2503  1.5251
   86DG     H16 1971   1.708   3.680   1.278  1.5547 -0.4104  0.9334
   86DG     C17 1972   1.923   3.302   1.357  0.1834  0.8394 -0.2162
   86DG     C18 1973   1.776   3.475   1.308  0.0603 -0.5973 -0.8061
   86DG     O19 1974   1.876   3.390   1.256 -0.1385  0.5632 -0.8227
   86DG     H20 1975   1.939   3.356   1.450 -0.8098 -1.1494  1.1868
   86DG     H21 1976   1.837   3.237   1.371 -0.1118  1.5093  1.1819
   86DG     H22 1977   1.802   3.520   1.404 -0.5093 -0.5824 -0.6546
   86DG     H23 1978   1.696   3.403   1.323  0.3933 -0.9747 -0.8343
   87DG      C1 1979   2.751   2.788   0.364  0.1557  0.3729 -1.0154
   87DG      C2 1980   3.276   2.475   0.086  0.0003 -0.1148 -0.0750
   87DG      H3 1981   2.763   2.831   0.264  1.5768 -0.5085 -1.2414
   87DG      H4 1982   2.751   2.873   0.432  0.3250  0.2686 -0.8839
   87DG      H5 1983   2.663   2.724   0.366  0.5166 -0.1914 -2.1015
   87DG      H6 1984   3.242   2.408   0.008  0.8743 -0.4113 -0.2162
   87DG      H7 1985   3.277   2.574   0.041  0.8918 -0.5469 -1.0295
   87DG      H8 1986   3.367   2.438   0.134  0.1318 -0.1788 -0.3710
   87DG      O9 1987   2.863   2.711   0.404  0.4484 -0.4999 -0.6516
   87DG     O10 1988   3.165   2.483   0.179 -0.7433  0.6382 -0.0163
   87DG     C11 1989   2.839   2.615   0.507  0.0645 -0.1562  0.8482
   87DG     C12 1990   3.154   2.358   0.250 -0.3037  0.5385 -0.1925
   87DG     H13 1991   2.746   2.563   0.481  0.1332  0.1112  0.0205
   87DG     H14 1992   2.831   2.651   0.609  2.1696 -0.3393  1.1176
   87DG     H15 1993   3.251   2.312   0.267 -1.0427 -0.5811  1.2384
   87DG     H16 1994   3.098   2.291   0.184  2.1074 -0.8681 -0.9139
   87DG     C17 1995   2.945   2.515   0.516 -0.6401  0.1662  0.4650
   87DG     C18 1996   3.081   2.366   0.386 -0.1796 -0.2208  0.7712
   87DG     O19 1997   2.980   2.478   0.386 -0.1281  1.0046 -0.2295
   87DG     H20 1998   2.902   2.431   0.569 -1.7918  0.4689  0.0453
   87DG     H21 1999   3.031   2.547   0.575 -1.7554  0.9827  1.7183
   87DG     H22 2000   3.039   2.268   0.405  2.3586 -1.8166 -1.1897
   87DG     H23 2001   3.153   2.402   0.460 -0.0031  0.3418  0.3347
   88DG      C1 2002   3.357   2.648   3.954  0.5956  0.1522  0.1611
   88DG      C2 2003   2.724   2.872   4.126 -0.3363  0.1138 -0.7349
   88DG      H3 2004   3.383   2.754   3.959 -2.2174  0.9419 -0.3623
   88DG      H4 2005   3.415   2.604   3.873  1.3322  1.1248  0.1270
   88DG      H5 2006   3.394   2.598   4.044 -0.8292  0.9694  1.2358
   88DG      H6 2007   2.776   2.922   4.208 -0.1424 -1.3157  0.0524
   88DG      H7 2008   2.685   2.940   4.051  1.0297  0.6955 -0.9515
   88DG      H8 2009   2.641   2.823   4.176  0.5708 -0.4599  0.2451
   88DG      O9 2010   3.214   2.643   3.913  0.1576  0.1648 -0.2054
   88DG     O10 2011   2.810   2.782   4.063 -0.5778 -0.1054  0.7428
   88DG     C11 2012   3.167   2.505   3.912  0.1083 -0.6966 -0.1346
   88DG     C12 2013   2.739   2.683   3.989  0.2594 -0.0437 -0.4411
   88DG     H13 2014   3.159   2.475   4.016 -0.2331  1.3090  0.4647
   88DG     H14 2015   3.230   2.434   3.859  0.9547  0.0154 -0.1073
   88DG     H15 2016   2.645   2.716   3.944 -0.5292 -1.1407  0.3444
   88DG     H16 2017   2.726   2.592   4.047 -0.2641  0.8183  0.8354
   88DG     C17 2018   3.033   2.519   3.841 -0.3020 -0.0126  0.7661
   88DG     C18 2019   2.829   2.635   3.872 -0.5416 -0.8492  0.5263
   88DG     O19 2020   2.951   2.595   3.928 -0.0762 -0.4942  0.6323
   88DG     H20 2021   2.989   2.420   3.825  1.5600 -1.0044  1.5280
   88DG     H21 2022   3.041   2.575   3.748  0.7470  1.6656  1.8310
   88DG     H22 2023   2.777   2.557   3.816 -1.2044  0.3450 -0.5967
   88DG     H23 2024   2.854   2.719   3.808  0.6000 -0.7014  1.1482
   89DG      C1 2025   5.199   1.539   4.744  0.1447  0.2129  0.3711
   89DG      C2 2026   5.659   2.002   4.259  0.5886  0.1886  0.3602
   89DG      H3 2027   5.135   1.508   4.661  0.0767  1.1251  0.0709
   89DG      H4 2028   5.131   1.549   4.829 -0.9513 -0.6942 -0.3605
   89DG      H5 2029   5.268   1.458   4.767  0.3493  0.5704  1.0258
   89DG      H6 2030   5.637   1.918   4.193 -0.5777  2.1445 -1.8812
   89DG      H7 2031   5.580   2.071   4.232  0.9944  0.5924  0.1937
   89DG      H8 2032   5.743   2.054   4.214 -1.1380  2.3540 -0.5377
   89DG      O9 2033   5.287   1.641   4.716 -0.7696  0.1342  0.4676
   89DG     O10 2034   5.681   1.976   4.391  0.0880 -0.1496 -0.0670
   89DG     C11 2035   5.369   1.699   4.817  0.5187  0.3309  0.5595
   89DG     C12 2036   5.562   1.928   4.457 -0.2153 -0.2796  0.2275
   89DG     H13 2037   5.395   1.614   4.881 -1.6138 -0.5747  0.3052
   89DG     H14 2038   5.325   1.775   4.881  0.2553  0.1661  0.5793
   89DG     H15 2039   5.520   1.851   4.391 -1.1984  0.9468 -0.6223
   89DG     H16 2040   5.497   2.014   4.473 -0.8461 -1.0735  2.3656
   89DG     C17 2041   5.510   1.740   4.772  0.0726  0.0921 -0.3190
   89DG     C18 2042   5.598   1.865   4.595  0.0203  0.1845  0.4816
   89DG     O19 2043   5.479   1.817   4.652 -0.2135  0.1594 -0.7693
   89DG     H20 2044   5.576   1.656   4.751 -0.5541 -0.0127 -1.9837
   89DG     H21 2045   5.557   1.804   4.848 -0.8274  0.4528 -0.0545
   89DG     H22 2046   5.669   1.785   4.574 -0.7980  0.2730 -3.1556
   89DG     H23 2047   5.640   1.949   4.649  0.1842 -0.2480  1.0413
   90DG      C1 2048   2.193   2.535   0.544  0.0261  0.4409  0.3556
   90DG      C2 2049   1.598   2.259   0.695  0.2269 -0.2028  0.3951
   90DG      H3 2050   2.167   2.609   0.621 -0.1840  0.5837  0.1476
   90DG      H4 2051   2.144   2.583   0.460  0.6596  0.1351 -0.1945
   90DG      H5 2052   2.299   2.537   0.516 -0.2703  0.2176 -0.7937
   90DG      H6 2053   1.552   2.278   0.598  0.3076  0.6412  0.5166
   90DG      H7 2054   1.535   2.186   0.745 -1.4799 -0.1355 -1.5107
   90DG      H8 2055   1.597   2.357   0.742 -0.7581  0.0957 -0.2211
   90DG      O9 2056   2.145   2.406   0.581 -0.5966  0.0449  0.1660
   90DG     O10 2057   1.738   2.210   0.689  0.1269  0.0264  0.2904
   90DG     C11 2058   2.217   2.354   0.684 -0.3334 -0.1289 -0.6243
   90DG     C12 2059   1.786   2.201   0.815  0.0623  0.2145 -0.5921
   90DG     H13 2060   2.210   2.429   0.762  0.3077  0.9203 -1.5479
   90DG     H14 2061   2.325   2.341   0.669 -0.5330 -0.0235 -2.3216
   90DG     H15 2062   1.725   2.128   0.868  2.3723  0.0257  2.0385
   90DG     H16 2063   1.767   2.287   0.880  1.8953  0.6862 -0.6447
   90DG     C17 2064   2.153   2.226   0.746  0.8965 -0.1502 -0.2912
   90DG     C18 2065   1.935   2.150   0.800 -0.1866 -0.4932  0.2948
   90DG     O19 2066   2.014   2.260   0.765 -0.1943  0.5359  0.5490
   90DG     H20 2067   2.185   2.201   0.847 -1.1683  0.8284  0.6701
   90DG     H21 2068   2.162   2.141   0.678  0.4988  0.2583 -0.8608
   90DG     H22 2069   1.965   2.118   0.900 -0.9213  0.2161  0.7517
   90DG     H23 2070   1.960   2.065   0.737  0.3705 -0.7503  0.8456
   91DG      C1 2071   2.824   4.307   2.684  0.1598  0.4131 -0.1395
   91DG      C2 2072   2.944   4.480   3.513  0.1882  0.2693 -0.1315
   91DG      H3 2073   2.850   4.263   2.588  0.5792 -0.7480  0.4744
   91DG      H4 2074   2.776   4.401   2.657 -1.6783 -0.0403  1.3211
   91DG      H5 2075   2.752   4.244   2.735  0.8256 -0.2256  0.0342
   91DG      H6 2076   3.029   4.513   3.573  0.2376 -1.4739  0.8240
   91DG      H7 2077   2.872   4.562   3.502 -0.0908  0.4362  2.3003
   91DG      H8 2078   2.883   4.406   3.565 -0.3315  0.5197 -0.3703
   91DG      O9 2079   2.939   4.346   2.762  0.3554  0.3494 -0.7159
   91DG     O10 2080   2.979   4.414   3.389  0.3218 -0.1306  0.5247
   91DG     C11 2081   2.901   4.378   2.894  0.2256  0.5296  0.2632
   91DG     C12 2082   3.080   4.478   3.317 -0.4642 -0.4587  0.3398
   91DG     H13 2083   2.863   4.290   2.946  3.4798 -2.3238 -1.7480
   91DG     H14 2084   2.816   4.446   2.904 -1.7646 -1.4945 -1.7176
   91DG     H15 2085   3.175   4.472   3.370 -0.3471  0.5565  0.2763
   91DG     H16 2086   3.057   4.584   3.303  0.5534 -0.1468  0.9503
   91DG     C17 2087   3.023   4.415   2.974  0.3069 -0.0072 -0.1418
   91DG     C18 2088   3.110   4.421   3.177  0.0520  0.4675 -0.8080
   91DG     O19 2089   2.988   4.425   3.112  0.7354 -0.1816  0.0794
   91DG     H20 2090   3.062   4.510   2.936 -1.1205  0.4683 -0.5007
   91DG     H21 2091   3.104   4.345   2.955  2.5773  2.6771 -1.1124
   91DG     H22 2092   3.188   4.486   3.137  0.0666 -0.2620 -2.0224
   91DG     H23 2093   3.141   4.316   3.185  2.1620  1.0906  0.0889
   92DG      C1 2094   4.033   0.859   4.455 -0.0834  0.4364  0.7477
   92DG      C2 2095   3.711   1.070   3.899  0.6073 -0.0646 -0.0776
   92DG      H3 2096   3.986   0.939   4.512 -0.8990  0.9980 -0.6805
   92DG      H4 2097   4.116   0.826   4.517 -0.6264 -0.3858  1.0702
   92DG      H5 2098   3.951   0.787   4.448  1.4404 -1.1965 -1.9267
   92DG      H6 2099   3.679   1.049   3.797 -1.6275 -1.0543  0.7551
   92DG      H7 2100   3.647   1.011   3.965  1.0745  0.3287  0.7474
   92DG      H8 2101   3.689   1.175   3.915 -0.4024 -0.3490  0.5034
   92DG      O9 2102   4.065   0.910   4.319 -0.4306 -0.3606 -0.4792
   92DG     O10 2103   3.844   1.026   3.915  0.9792 -0.5547 -0.0794
   92DG     C11 2104   4.138   0.813   4.246 -0.7661  0.1937  0.0266
   92DG     C12 2105   3.851   0.883   3.914  0.7953 -0.2132  0.0934
   92DG     H13 2106   4.094   0.713   4.245  0.8556 -0.7899  4.3822
   92DG     H14 2107   4.229   0.794   4.303 -1.9051 -0.7771  1.6107
   92DG     H15 2108   3.800   0.849   3.823  2.3206  1.3174 -1.4011
   92DG     H16 2109   3.806   0.844   4.006  0.2934  4.5234  2.1315
   92DG     C17 2110   4.167   0.847   4.100  0.9562  0.1971  0.2627
   92DG     C18 2111   3.995   0.832   3.923 -0.0358 -0.2389 -0.0110
   92DG     O19 2112   4.031   0.864   4.056 -0.1001  0.2627  0.1307
   92DG     H20 2113   4.207   0.767   4.038 -0.7854 -0.4538 -0.0927
   92DG     H21 2114   4.230   0.933   4.083  0.4461  0.5637  0.1909
   92DG     H22 2115   4.004   0.723   3.917  0.1457 -0.3151  1.3523
   92DG     H23 2116   4.059   0.884   3.851 -0.5181  1.7547  0.9275
   93DG      C1 2117   1.585   0.312   0.456 -0.2319  0.6007 -0.0860
   93DG      C2 2118   1.854  -0.359   0.813 -0.3808  0.2231  0.7085
   93DG      H3 2119   1.689   0.323   0.426 -0.6670 -0.6653 -2.2976
   93DG      H4 2120   1.569   0.397   0.522 -0.5194  0.6320 -0.1958
   93DG      H5 2121   1.519   0.322   0.370  1.7289  1.4092 -1.5888
   93DG      H6 2122   1.949  -0.401   0.782  0.0290  2.0032 -0.6621
   93DG      H7 2123   1.866  -0.289   0.896  0.6026  0.3221  0.4942
   93DG      H8 2124   1.779  -0.435   0.834 -1.2914  1.0076  0.4199
   93DG      O9 2125   1.579   0.180   0.514 -0.3961 -0.5797 -0.3090
   93DG     O10 2126   1.796  -0.283   0.713  0.3200 -0.3099 -0.4023
   93DG     C11 2127   1.615   0.082   0.417 -0.4128 -1.0822  0.5413
   93DG     C12 2128   1.876  -0.179   0.666  0.5669 -0.4475  0.3700
   93DG     H13 2129   1.720   0.092   0.392 -0.2290 -1.2934  1.2105
   93DG     H14 2130   1.543   0.097   0.336  0.3432  1.3311  0.2307
   93DG     H15 2131   1.970  -0.218   0.627  0.4448 -1.0451  0.6638
   93DG     H16 2132   1.889  -0.106   0.745  0.0294  1.5285 -1.2573
   93DG     C17 2133   1.586  -0.049   0.488 -0.9660 -0.5000  0.8490
   93DG     C18 2134   1.804  -0.117   0.551  1.0169  0.0234  0.0130
   93DG     O19 2135   1.681  -0.068   0.594  0.1522 -0.1636 -0.2473
   93DG     H20 2136   1.585  -0.131   0.416 -2.4339 -0.3576  0.6694
   93DG     H21 2137   1.488  -0.059   0.536 -0.6280 -2.1841  1.2444
   93DG     H22 2138   1.865  -0.044   0.499 -2.1216  2.9546  0.0741
   93DG     H23 2139   1.794  -0.203   0.486  1.3836 -1.4319  1.8063
   94DG      C1 2140   3.165   2.881   0.525 -0.1165 -0.3618  0.5184
   94DG      C2 2141   3.807   2.989   0.344  0.3923 -0.0025 -0.5264
   94DG      H3 2142   3.087   2.870   0.451 -0.1268 -0.7663  0.5857
   94DG      H4 2143   3.173   2.986   0.551 -0.4708 -0.0837 -0.4729
   94DG      H5 2144   3.132   2.828   0.615 -0.3402 -2.6158 -0.8155
   94DG      H6 2145   3.898   2.950   0.298  0.1016 -1.2871 -0.0638
   94DG      H7 2146   3.811   3.095   0.322  2.4104  0.1151  0.2156
   94DG      H8 2147   3.815   2.968   0.451  0.1528 -0.1713 -0.5412
   94DG      O9 2148   3.287   2.845   0.473 -0.1143  0.3429  0.1282
   94DG     O10 2149   3.702   2.918   0.280  0.3148  0.0188  0.2925
   94DG     C11 2150   3.290   2.709   0.422 -0.0239  0.0461  0.0616
   94DG     C12 2151   3.705   2.778   0.285 -0.6016  0.9774  0.4032
   94DG     H13 2152   3.232   2.682   0.334  0.6644  0.7687 -0.6339
   94DG     H14 2153   3.269   2.641   0.504  0.9681 -0.5628 -0.1765
   94DG     H15 2154   3.701   2.754   0.391 -0.6091 -0.4283  0.1064
   94DG     H16 2155   3.800   2.742   0.245 -1.3355 -1.7895  0.9281
   94DG     C17 2156   3.433   2.678   0.390  0.2656  0.6686 -0.1425
   94DG     C18 2157   3.587   2.702   0.214  0.0547  0.0516  0.1340
   94DG     O19 2158   3.463   2.741   0.265  0.7275  0.6826 -0.8868
   94DG     H20 2159   3.449   2.570   0.383  2.2784  0.9719 -1.1346
   94DG     H21 2160   3.502   2.709   0.469  1.8403 -1.7740 -0.4480
   94DG     H22 2161   3.599   2.708   0.106  1.9197 -0.9388  0.2407
   94DG     H23 2162   3.600   2.596   0.232  3.1488  0.1419 -0.9367
   95DG      C1 2163   4.769   2.122   2.516 -0.3642 -0.3360 -0.4558
   95DG      C2 2164   5.027   2.136   2.132 -0.4583  0.0875 -0.5042
   95DG      H3 2165   4.698   2.113   2.434  1.6679 -1.5428 -2.1781
   95DG      H4 2166   4.804   2.225   2.508  0.9220 -0.6744  0.6366
   95DG      H5 2167   4.731   2.126   2.618  3.6384  2.2888  1.1816
   95DG      H6 2168   4.926   2.178   2.133 -0.1919  0.8084  1.7661
   95DG      H7 2169   5.098   2.217   2.117 -0.1274  0.2762  1.6836
   95DG      H8 2170   5.043   2.071   2.046 -0.6016  1.4112 -1.5682
   95DG      O9 2171   4.863   2.014   2.496  0.1660 -0.3864  0.4901
   95DG     O10 2172   5.059   2.074   2.257 -0.3663  0.3835 -0.4784
   95DG     C11 2173   4.958   2.008   2.601 -0.3337 -0.6486 -0.6231
   95DG     C12 2174   5.197   2.072   2.284 -0.3791 -0.0375 -0.2915
   95DG     H13 2175   4.902   1.980   2.690 -1.8231  0.7197 -1.0856
   95DG     H14 2176   5.019   2.098   2.610  2.1682 -2.3087 -0.0399
   95DG     H15 2177   5.241   2.171   2.278  1.3342 -0.5496  2.2637
   95DG     H16 2178   5.248   2.009   2.211  0.1739 -1.0324  0.9123
   95DG     C17 2179   5.063   1.894   2.567 -0.3716  0.1731  0.2572
   95DG     C18 2180   5.213   2.019   2.424 -0.5193  0.1998 -0.0840
   95DG     O19 2181   5.122   1.913   2.440  0.0714 -0.0235 -0.1077
   95DG     H20 2182   5.012   1.798   2.561  1.0828 -0.5379 -1.5023
   95DG     H21 2183   5.139   1.884   2.645 -0.0751 -0.6960 -0.1287
   95DG     H22 2184   5.316   1.994   2.449 -0.3518  0.7227 -0.2441
   95DG     H23 2185   5.182   2.099   2.491  0.2895  0.6683 -0.2704
   96DG      C1 2186   1.311   0.163   0.209  0.0001  0.6454 -0.3752
   96DG      C2 2187   0.622   0.069  -0.154  0.1088 -0.1068  0.2114
   96DG      H3 2188   1.312   0.065   0.256 -1.0293  0.9636  0.3536
   96DG      H4 2189   1.272   0.231   0.285 -3.1926  1.6744 -2.7274
   96DG      H5 2190   1.415   0.186   0.188  1.1851 -2.5366  1.3336
   96DG      H6 2191   0.546   0.141  -0.184 -1.1264 -2.1069 -1.7565
   96DG      H7 2192   0.602  -0.032  -0.191  0.0850  0.4044 -1.2472
   96DG      H8 2193   0.608   0.071  -0.046 -0.6694 -0.5991  0.1303
   96DG      O9 2194   1.219   0.175   0.099 -0.0047  0.3441 -0.2479
   96DG     O10 2195   0.745   0.130  -0.192  0.0538  0.3682 -0.2379
   96DG     C11 2196   1.212   0.308   0.041  0.0871  0.4804  0.9550
   96DG     C12 2197   0.769   0.257  -0.138  0.3707  0.4504 -0.1776
   96DG     H13 2198   1.313   0.349   0.030 -0.1163  0.5083 -1.1098
   96DG     H14 2199   1.152   0.362   0.114 -2.4255  0.7369 -1.1907
   96DG     H15 2200   0.754   0.254  -0.030 -0.1706 -1.1445 -0.2652
   96DG     H16 2201   0.691   0.323  -0.177  0.9589  1.3468  0.1290
   96DG     C17 2202   1.142   0.307  -0.094 -0.6638  0.6873  0.6957
   96DG     C18 2203   0.910   0.317  -0.174  0.0365 -0.0808 -0.1951
   96DG     O19 2204   1.008   0.268  -0.079 -0.3853  0.5638  0.2801
   96DG     H20 2205   1.180   0.235  -0.166 -2.5198  0.5176 -0.1608
   96DG     H21 2206   1.141   0.406  -0.139 -1.5843 -0.9652 -3.2823
   96DG     H22 2207   0.937   0.301  -0.279  2.7783 -4.2629  0.9167
   96DG     H23 2208   0.909   0.423  -0.148  1.3198 -0.0072 -0.3755
   97DG      C1 2209   0.268   2.314   1.760  0.0176  0.1984 -0.3354
   97DG      C2 2210  -0.259   2.464   2.091 -0.5254 -0.1875  0.7971
   97DG      H3 2211   0.350   2.325   1.689 -0.7985  0.0940 -1.3097
   97DG      H4 2212   0.207   2.231   1.726  2.1940 -1.6974  0.1379
   97DG      H5 2213   0.323   2.295   1.853  2.1579 -1.0790 -1.7805
   97DG      H6 2214  -0.192   2.388   2.129  1.2255  1.4959  1.2537
   97DG      H7 2215  -0.297   2.530   2.169  0.2476  1.0559  0.1591
   97DG      H8 2216  -0.338   2.418   2.032  1.6636 -1.3282 -1.4033
   97DG      O9 2217   0.191   2.425   1.777  0.3186 -0.3008  0.5287
   97DG     O10 2218  -0.171   2.535   2.005  0.7455  0.3634  0.3645
   97DG     C11 2219   0.141   2.473   1.650 -0.0323 -0.2068  0.0634
   97DG     C12 2220  -0.240   2.607   1.903 -0.0850  0.0204 -0.1016
   97DG     H13 2221   0.082   2.400   1.596 -2.7113  0.0561  2.3800
   97DG     H14 2222   0.222   2.507   1.586 -0.0557 -1.2874 -0.5600
   97DG     H15 2223  -0.312   2.680   1.941 -0.1104 -0.2288  0.3390
   97DG     H16 2224  -0.298   2.536   1.844 -0.4000  0.0593  0.1587
   97DG     C17 2225   0.058   2.599   1.688  0.8642 -0.3828  0.1190
   97DG     C18 2226  -0.141   2.678   1.811 -0.3839  1.5110  0.1598
   97DG     O19 2227  -0.055   2.570   1.770 -0.0983 -0.1601  0.2439
   97DG     H20 2228   0.024   2.640   1.593  4.6336  1.9848 -0.4294
   97DG     H21 2229   0.121   2.677   1.732  1.5925 -1.0866  0.3552
   97DG     H22 2230  -0.190   2.727   1.727  0.6758  2.4099  0.0483
   97DG     H23 2231  -0.097   2.761   1.866  0.8643  1.1507 -0.2774
   98DG      C1 2232   0.759   5.272   4.701 -0.2916 -0.3059  0.1579
   98DG      C2 2233   1.265   5.642   4.343 -0.2155 -0.5987 -0.0418
   98DG      H3 2234   0.760   5.339   4.786  1.2549 -2.0232  1.5954
   98DG      H4 2235   0.834   5.194   4.716  1.2881  1.0892 -0.2703
   98DG      H5 2236   0.660   5.225   4.700  0.2795 -1.5678 -0.0001
   98DG      H6 2237   1.291   5.706   4.428  1.5486  0.9854 -1.6821
   98DG      H7 2238   1.322   5.549   4.355 -1.3592 -1.1051  2.0275
   98DG      H8 2239   1.320   5.698   4.268 -0.7808 -0.2158 -0.1699
   98DG      O9 2240   0.776   5.359   4.583 -0.1893  0.3747  0.2692
   98DG     O10 2241   1.123   5.624   4.313  0.6459  0.2945 -0.2700
   98DG     C11 2242   0.758   5.283   4.462  0.2398 -0.2066 -0.7137
   98DG     C12 2243   1.101   5.544   4.199  0.0189 -0.1703  0.2874
   98DG     H13 2244   0.652   5.259   4.467  0.0074  0.4606 -1.9271
   98DG     H14 2245   0.817   5.193   4.480  1.5402  0.6494 -0.6032
   98DG     H15 2246   1.172   5.463   4.180  0.0659 -0.0463 -0.0772
   98DG     H16 2247   1.098   5.606   4.109  0.8496  0.9607  1.0180
   98DG     C17 2248   0.797   5.361   4.340  0.1745 -1.0812 -0.1700
   98DG     C18 2249   0.960   5.483   4.215  0.5143 -0.2570 -0.3832
   98DG     O19 2250   0.934   5.412   4.335  0.4567  0.0992  0.1557
   98DG     H20 2251   0.731   5.448   4.335 -0.9525 -1.8992  0.0180
   98DG     H21 2252   0.771   5.308   4.248 -0.9994  2.4103 -2.0096
   98DG     H22 2253   0.891   5.566   4.202  0.4839  0.0002  1.1773
   98DG     H23 2254   0.930   5.420   4.131 -2.4013 -1.0228  1.0862
   99DG      C1 2255   3.016   3.963   0.428  0.8460  1.2282  0.1247
   99DG      C2 2256   2.886   3.161   0.271 -0.2499 -0.3152 -0.4399
   99DG      H3 2257   3.003   4.028   0.341  0.4419 -0.5900 -1.2266
   99DG      H4 2258   3.124   3.952   0.436  0.5018 -1.2367  3.3198
   99DG      H5 2259   2.989   4.017   0.519 -0.8355 -0.0835  0.4742
   99DG      H6 2260   2.976   3.113   0.309 -0.5375 -0.5814 -0.0893
   99DG      H7 2261   2.806   3.086   0.270  0.5069 -1.1586 -2.0347
   99DG      H8 2262   2.899   3.194   0.168 -0.0915 -0.3361 -0.4267
   99DG      O9 2263   2.947   3.835   0.415  0.0139 -0.1570  0.6273
   99DG     O10 2264   2.857   3.276   0.348  1.0029  0.6374  0.4644
   99DG     C11 2265   2.996   3.743   0.507  0.9114  0.4187 -0.8815
   99DG     C12 2266   2.753   3.362   0.301  0.5164 -0.2349  0.8858
   99DG     H13 2267   3.017   3.790   0.603 -0.2417  1.1421 -0.9725
   99DG     H14 2268   3.087   3.698   0.466 -0.5836 -1.5142 -2.2427
   99DG     H15 2269   2.653   3.319   0.298  0.5268 -0.2278 -1.4277
   99DG     H16 2270   2.780   3.379   0.197 -1.9677  2.3567  0.5633
   99DG     C17 2271   2.888   3.629   0.517 -1.0339 -0.6996 -0.0416
   99DG     C18 2272   2.748   3.497   0.382  0.6015 -0.5930  0.9002
   99DG     O19 2273   2.876   3.555   0.393  0.2642  0.5315 -0.7241
   99DG     H20 2274   2.793   3.675   0.543 -1.3021 -1.5739  0.5778
   99DG     H21 2275   2.904   3.554   0.595  1.2008 -0.3639 -0.1146
   99DG     H22 2276   2.688   3.563   0.319  0.3550 -0.8605  0.8522
   99DG     H23 2277   2.699   3.473   0.476 -0.3557 -1.5472  0.1833
  100DG      C1 2278   3.182   2.977   4.158 -0.3258 -0.1314 -0.5355
  100DG      C2 2279   2.895   2.375   4.240  0.8440  0.3113  0.2552
  100DG      H3 2280   3.191   3.084   4.171 -0.0643  0.0082 -1.7040
  100DG      H4 2281   3.150   2.970   4.054 -1.2436  2.3252 -0.4674
  100DG      H5 2282   3.280   2.931   4.168  0.5779  1.6920 -0.6417
  100DG      H6 2283   2.812   2.314   4.274 -0.3632  0.6119 -1.9375
  100DG      H7 2284   2.900   2.368   4.131 -2.9996  0.8751 -0.0911
  100DG      H8 2285   2.988   2.327   4.269  0.2153 -1.3256 -0.3542
  100DG      O9 2286   3.084   2.922   4.243  0.8307  0.3447 -0.2054
  100DG     O10 2287   2.887   2.510   4.286  0.3380  0.8625 -0.0654
  100DG     C11 2288   3.094   2.941   4.386 -0.2969  0.8074  0.0047
  100DG     C12 2289   2.908   2.518   4.426  0.4163 -1.0895  0.1726
  100DG     H13 2290   3.106   3.045   4.418  0.9089  1.4462 -2.3049
  100DG     H14 2291   3.180   2.881   4.413 -1.6423 -2.2052 -1.8726
  100DG     H15 2292   3.003   2.467   4.444  2.2327  1.8700 -0.3840
  100DG     H16 2293   2.836   2.455   4.479 -0.8229  1.4113  1.6376
  100DG     C17 2294   2.979   2.878   4.468  0.3333  0.6979  0.1049
  100DG     C18 2295   2.904   2.651   4.488  0.1946 -0.2076  0.2101
  100DG     O19 2296   2.973   2.744   4.406  0.0556  0.1238 -0.1383
  100DG     H20 2297   2.881   2.922   4.447 -0.9141 -1.5088  0.9056
  100DG     H21 2298   3.002   2.870   4.575  0.4061 -1.3476 -0.0325
  100DG     H22 2299   2.800   2.684   4.486  0.6980  1.5864 -2.3805
  100DG     H23 2300   2.947   2.653   4.588  0.0246  0.8391  0.2818
  101DG      C1 2301   3.225   2.433   4.967 -0.2137 -0.2834 -0.0913
  101DG      C2 2302   2.876   1.868   4.971 -1.2510 -0.4641 -0.2147
  101DG      H3 2303   3.282   2.504   5.028  0.0422  0.2213 -0.8949
  101DG      H4 2304   3.180   2.491   4.885 -0.4608 -0.3497 -0.0051
  101DG      H5 2305   3.287   2.352   4.930  1.9385  0.4798  1.6328
  101DG      H6 2306   2.971   1.817   4.985 -0.8289  0.4708  0.4229
  101DG      H7 2307   2.792   1.806   5.001  0.0528 -1.1188  2.4142
  101DG      H8 2308   2.866   1.903   4.868 -0.0286  1.9319  0.4086
  101DG      O9 2309   3.117   2.369   5.038 -0.1809  0.1714 -0.4104
  101DG     O10 2310   2.881   1.983   5.061 -0.5240 -0.3353  0.5869
  101DG     C11 2311   3.017   2.460   5.067  0.0994 -0.6800 -0.4485
  101DG     C12 2312   2.756   2.049   5.078  0.0099 -0.8360 -0.3396
  101DG     H13 2313   2.968   2.501   4.979 -1.0067  1.6647  1.1515
  101DG     H14 2314   3.047   2.544   5.130  1.2378 -0.8340 -0.7700
  101DG     H15 2315   2.672   1.999   5.125  0.8922 -1.6058  0.4528
  101DG     H16 2316   2.714   2.067   4.979 -0.0509 -1.6158 -0.4578
  101DG     C17 2317   2.906   2.381   5.139  0.0432 -0.2931 -0.2090
  101DG     C18 2318   2.781   2.185   5.145  0.2271  0.3725  0.3569
  101DG     O19 2319   2.875   2.266   5.062 -0.7987 -0.3052 -0.4688
  101DG     H20 2320   2.812   2.434   5.147 -1.1915 -2.3297 -0.4737
  101DG     H21 2321   2.944   2.361   5.239  1.1778 -1.3302 -0.8090
  101DG     H22 2322   2.686   2.235   5.160 -0.4266 -0.4854 -0.7122
  101DG     H23 2323   2.817   2.164   5.245 -1.7966 -0.8789  0.8772
  102DG      C1 2324   4.018   2.570   3.419  1.2904  0.2397 -0.3605
  102DG      C2 2325   3.652   2.098   3.335  0.4083 -0.2432  0.0230
  102DG      H3 2326   4.010   2.592   3.312 -0.9729 -1.0425 -0.5204
  102DG      H4 2327   4.107   2.508   3.421  0.0753 -1.5850  1.6369
  102DG      H5 2328   4.028   2.667   3.467 -0.2230  1.0218 -1.5250
  102DG      H6 2329   3.591   2.158   3.267 -0.5839 -1.7784 -0.4866
  102DG      H7 2330   3.738   2.065   3.278  0.8142 -0.9055  0.9904
  102DG      H8 2331   3.587   2.014   3.356 -2.3911  1.4320 -1.2893
  102DG      O9 2332   3.898   2.503   3.458 -0.3584  0.0619 -0.1975
  102DG     O10 2333   3.684   2.177   3.447  0.1983 -0.0401  0.0613
  102DG     C11 2334   3.796   2.595   3.486  0.3122 -0.7460 -0.1467
  102DG     C12 2335   3.567   2.222   3.509 -0.6058  0.1032 -0.4592
  102DG     H13 2336   3.776   2.662   3.403 -1.5017 -1.6758 -0.5048
  102DG     H14 2337   3.829   2.662   3.566 -3.6926  0.2210  0.9417
  102DG     H15 2338   3.518   2.136   3.555  0.8611 -1.0758 -1.0196
  102DG     H16 2339   3.490   2.254   3.439 -2.0375  0.3921  1.1792
  102DG     C17 2340   3.669   2.519   3.517 -0.1823  0.3357 -0.1812
  102DG     C18 2341   3.589   2.325   3.621 -0.3770 -0.3721  0.0667
  102DG     O19 2342   3.702   2.412   3.600 -0.1279  0.5359  0.2852
  102DG     H20 2343   3.638   2.469   3.425  0.2321 -0.1723 -0.0472
  102DG     H21 2344   3.580   2.576   3.544 -1.0002  0.0327 -2.0557
  102DG     H22 2345   3.497   2.383   3.617 -1.3101 -1.8517 -1.1215
  102DG     H23 2346   3.602   2.272   3.715  3.2034  1.6561  0.9142
  103DG      C1 2347   2.897   3.056   1.186 -0.0175 -1.1351 -0.3416
  103DG      C2 2348   3.321   2.674   0.781 -0.6448 -0.5198  0.0091
  103DG      H3 2349   2.915   3.045   1.293  1.9921 -2.1512 -0.7311
  103DG      H4 2350   2.793   3.088   1.180  0.0397 -0.2621  2.1399
  103DG      H5 2351   2.951   3.142   1.147 -0.4739  0.8221  2.9047
  103DG      H6 2352   3.395   2.659   0.859 -1.2759  0.2304  0.7767
  103DG      H7 2353   3.334   2.596   0.706 -1.2363  1.6062 -2.4802
  103DG      H8 2354   3.348   2.767   0.732 -1.2266 -0.1312  0.4085
  103DG      O9 2355   2.917   2.928   1.125  0.1712  0.1453 -0.4283
  103DG     O10 2356   3.182   2.680   0.837 -1.0245  0.1880  0.2772
  103DG     C11 2357   2.872   2.814   1.195 -0.4655 -0.0787  0.4704
  103DG     C12 2358   3.159   2.562   0.918  0.0660  0.4052  0.0257
  103DG     H13 2359   2.769   2.831   1.224 -0.1868 -2.6915  3.6080
  103DG     H14 2360   2.940   2.795   1.278  1.4588  1.0736 -0.7566
  103DG     H15 2361   3.215   2.549   1.010 -2.5308  0.3345  1.6980
  103DG     H16 2362   3.192   2.487   0.847 -1.9267  0.2212 -0.7796
  103DG     C17 2363   2.871   2.693   1.091 -0.2581  0.4363 -0.0977
  103DG     C18 2364   3.012   2.561   0.946 -0.6261  0.3681  0.2165
  103DG     O19 2365   2.996   2.673   1.025  0.1990  0.3895  0.5299
  103DG     H20 2366   2.808   2.712   1.004 -1.3476  0.3513  0.6452
  103DG     H21 2367   2.857   2.598   1.142  0.8219  0.8149  0.9503
  103DG     H22 2368   2.956   2.563   0.853  0.1120 -0.5851 -0.2599
  103DG     H23 2369   2.993   2.468   0.999  0.9123 -0.6455 -0.9374
  104DG      C1 2370   1.754   0.609   1.623  0.4128  0.7756  0.2103
  104DG      C2 2371   1.280   0.841   1.260 -0.5654 -0.1180 -0.1823
  104DG      H3 2372   1.746   0.526   1.554  1.0157 -0.7849  1.9469
  104DG      H4 2373   1.675   0.590   1.696 -1.0548  0.3276 -1.4473
  104DG      H5 2374   1.850   0.593   1.672  0.3845  0.1001  0.0570
  104DG      H6 2375   1.212   0.781   1.321  0.0767  0.2587  0.9299
  104DG      H7 2376   1.223   0.929   1.230 -1.4393  0.8515  3.7994
  104DG      H8 2377   1.331   0.786   1.180  1.2975 -1.2265  1.6820
  104DG      O9 2378   1.720   0.740   1.575  0.0977 -0.0403 -0.0222
  104DG     O10 2379   1.389   0.885   1.339 -0.6985  0.0491 -0.1293
  104DG     C11 2380   1.719   0.843   1.680 -0.5616  0.1920 -0.2512
  104DG     C12 2381   1.360   0.996   1.424 -1.1096  0.1248 -0.5214
  104DG     H13 2382   1.821   0.855   1.717 -0.4618  1.8277 -0.9950
  104DG     H14 2383   1.655   0.827   1.767  1.0479  1.8429  1.3222
  104DG     H15 2384   1.296   0.959   1.504  0.2088 -1.2108 -0.0400
  104DG     H16 2385   1.299   1.074   1.378 -0.4325  0.8471 -0.2260
  104DG     C17 2386   1.677   0.970   1.604  0.3773  0.1896  0.2971
  104DG     C18 2387   1.495   1.055   1.472 -0.5136  1.1341  0.1174
  104DG     O19 2388   1.561   0.942   1.525  0.3490 -0.0452  0.0265
  104DG     H20 2389   1.752   0.987   1.527  0.2717 -0.4755  0.0354
  104DG     H21 2390   1.677   1.058   1.668  0.8571  0.5282 -0.1547
  104DG     H22 2391   1.555   1.088   1.386 -0.4469  1.4047  0.2656
  104DG     H23 2392   1.479   1.126   1.553 -1.1502  1.4820 -0.3029
  105DG      C1 2393   2.190   3.836   3.387 -0.3529  0.5192 -0.0777
  105DG      C2 2394   2.064   3.290   3.113  0.1271  0.2780  0.1956
  105DG      H3 2395   2.289   3.881   3.385 -0.6397  1.3702 -3.9646
  105DG      H4 2396   2.134   3.871   3.300 -2.2782 -0.3470  0.7425
  105DG      H5 2397   2.219   3.731   3.377 -0.3623  0.6292 -1.6327
  105DG      H6 2398   2.170   3.264   3.106  0.8239  2.5630  1.1686
  105DG      H7 2399   2.002   3.201   3.119  0.1014  0.3083  0.3783
  105DG      H8 2400   2.044   3.351   3.025  1.7439  0.1027 -0.3256
  105DG      O9 2401   2.121   3.855   3.508  0.2976  0.0590  0.0281
  105DG     O10 2402   2.042   3.367   3.227  0.2967 -0.2440  1.1142
  105DG     C11 2403   2.001   3.771   3.505  0.1754 -0.5555 -0.4225
  105DG     C12 2404   2.105   3.329   3.350  0.0839  0.2896  0.8094
  105DG     H13 2405   1.949   3.776   3.409 -0.5438  1.0338  0.0021
  105DG     H14 2406   1.929   3.815   3.574  0.2916  1.2927 -1.4130
  105DG     H15 2407   2.214   3.335   3.349  0.1635 -0.7980 -0.5835
  105DG     H16 2408   2.071   3.226   3.364 -0.3608  0.2607 -0.3643
  105DG     C17 2409   2.017   3.625   3.549 -0.3015 -0.1593  0.8283
  105DG     C18 2410   2.060   3.409   3.471 -0.0007 -0.0653  0.3072
  105DG     O19 2411   2.062   3.543   3.437 -0.3337 -0.8047  0.4472
  105DG     H20 2412   1.926   3.588   3.596 -0.9889  1.1152  0.5430
  105DG     H21 2413   2.088   3.617   3.631  2.4257  0.5055 -1.3123
  105DG     H22 2414   1.958   3.382   3.500  0.1759 -0.9959  0.1124
  105DG     H23 2415   2.122   3.382   3.556  1.9219  0.3644 -0.8972
  106DG      C1 2416   0.325   0.849   1.909 -0.2178  0.8126 -0.1396
  106DG      C2 2417   0.631   1.352   2.189 -0.2068  0.7947  0.2063
  106DG      H3 2418   0.346   0.920   1.829 -0.5067  2.1359  0.9209
  106DG      H4 2419   0.236   0.888   1.959 -1.2137 -1.1205 -0.2993
  106DG      H5 2420   0.320   0.747   1.871 -0.5916  0.5288  0.6333
  106DG      H6 2421   0.712   1.405   2.240  0.3711  1.0213 -0.8978
  106DG      H7 2422   0.629   1.381   2.084 -1.5302  1.7331  0.4549
  106DG      H8 2423   0.544   1.400   2.234  0.9443  1.8033  1.4561
  106DG      O9 2424   0.435   0.858   1.996  0.0842  0.1050  0.2422
  106DG     O10 2425   0.625   1.212   2.195  0.3129  0.0961  0.3552
  106DG     C11 2426   0.421   0.793   2.117  0.4349  0.1926 -0.3074
  106DG     C12 2427   0.649   1.163   2.320 -0.6105 -0.3955  0.1496
  106DG     H13 2428   0.421   0.684   2.110 -0.1874  0.2449 -1.4391
  106DG     H14 2429   0.334   0.818   2.177  0.1938  1.0734 -0.9875
  106DG     H15 2430   0.577   1.205   2.389 -0.4796  2.0185 -1.0812
  106DG     H16 2431   0.752   1.187   2.346 -0.3255  1.1655 -2.1062
  106DG     C17 2432   0.543   0.818   2.204  0.2219 -0.1679  0.5539
  106DG     C18 2433   0.641   1.005   2.320  0.2842  0.4002 -0.6249
  106DG     O19 2434   0.531   0.952   2.243 -0.1116 -1.2656 -0.0507
  106DG     H20 2435   0.634   0.795   2.148 -0.9912  1.5942 -2.3631
  106DG     H21 2436   0.542   0.756   2.293  0.9957 -0.3854  0.4142
  106DG     H22 2437   0.739   0.981   2.281  0.9134  2.7259 -0.6160
  106DG     H23 2438   0.641   0.964   2.421  2.6928 -0.4439 -0.8970
  107DG      C1 2439   0.529   3.414   4.252 -0.4637 -0.7115  0.3686
  107DG      C2 2440   0.824   2.653   4.355  0.1728 -0.0419  0.0271
  107DG      H3 2441   0.515   3.511   4.298  0.1784 -0.7167  0.5798
  107DG      H4 2442   0.433   3.365   4.235 -0.6332 -1.0870  2.2349
  107DG      H5 2443   0.576   3.407   4.153 -0.5633  0.9505  0.1762
  107DG      H6 2444   0.777   2.652   4.257  0.0203 -3.4944  0.0014
  107DG      H7 2445   0.930   2.661   4.334  0.1935  1.9194  0.6927
  107DG      H8 2446   0.809   2.557   4.405  1.0121 -0.4661 -0.5228
  107DG      O9 2447   0.611   3.320   4.333 -0.6220  0.1828 -0.2179
  107DG     O10 2448   0.780   2.762   4.441  0.0846 -0.7029  0.2066
  107DG     C11 2449   0.747   3.344   4.340  0.1545 -0.3556  0.0097
  107DG     C12 2450   0.800   2.890   4.377  0.0964  0.3910  0.5413
  107DG     H13 2451   0.752   3.445   4.381  1.4460 -0.3292 -0.1827
  107DG     H14 2452   0.791   3.343   4.241  0.5024  2.7548  0.0427
  107DG     H15 2453   0.725   2.898   4.298 -0.4912  1.1464  1.1637
  107DG     H16 2454   0.894   2.890   4.322  0.3593 -2.2896  0.8878
  107DG     C17 2455   0.800   3.254   4.441  0.6313  0.0652 -0.0552
  107DG     C18 2456   0.804   3.011   4.472 -0.1790 -0.3128 -0.1370
  107DG     O19 2457   0.772   3.124   4.396 -0.2096  0.1191  0.0594
  107DG     H20 2458   0.757   3.270   4.540  3.1828  3.1872  0.7053
  107DG     H21 2459   0.908   3.271   4.449  0.7436 -1.2106  1.6571
  107DG     H22 2460   0.735   2.995   4.554 -1.1323 -0.6468 -0.9937
  107DG     H23 2461   0.903   3.008   4.519  0.5315 -0.8328 -1.6058
  108DG      C1 2462   2.008   1.117   1.242 -0.1114  0.9434  0.3802
  108DG      C2 2463   2.395   0.878   0.558  0.2083 -0.2557 -0.0268
  108DG      H3 2464   1.901   1.113   1.260 -0.1629 -1.3242 -0.1211
  108DG      H4 2465   2.034   1.202   1.180  3.3381  0.6541  1.2038
  108DG      H5 2466   2.068   1.136   1.331  0.2821  2.0177 -0.1047
  108DG      H6 2467   2.455   0.819   0.488  1.3437 -1.5263  1.9395
  108DG      H7 2468   2.293   0.889   0.521 -0.9338  0.6437  3.0963
  108DG      H8 2469   2.444   0.975   0.565 -1.6536  0.6553  1.0983
  108DG      O9 2470   2.050   0.993   1.191  0.1487  0.2327  0.1006
  108DG     O10 2471   2.404   0.806   0.676  0.7250 -0.0756  0.5750
  108DG     C11 2472   2.184   0.997   1.154 -0.1628 -0.0815  0.3681
  108DG     C12 2473   2.343   0.873   0.782  0.8500  0.2199 -0.9625
  108DG     H13 2474   2.250   0.996   1.241 -1.2004  1.9134  1.2666
  108DG     H14 2475   2.205   1.089   1.100 -0.6004  0.3413  0.8994
  108DG     H15 2476   2.238   0.885   0.755  1.2536 -0.5944 -3.0894
  108DG     H16 2477   2.381   0.971   0.813 -1.9672  1.4817 -1.1981
  108DG     C17 2478   2.218   0.884   1.066  0.1823  0.0775 -0.7965
  108DG     C18 2479   2.369   0.795   0.916  0.2031 -0.8350 -0.3155
  108DG     O19 2480   2.353   0.881   1.029  0.1861 -0.2562 -0.5630
  108DG     H20 2481   2.147   0.874   0.984 -1.7078 -3.0418  1.0374
  108DG     H21 2482   2.192   0.789   1.113 -0.5627 -0.1278 -1.5825
  108DG     H22 2483   2.310   0.703   0.920 -0.7760 -0.2521 -0.7076
  108DG     H23 2484   2.470   0.766   0.888  0.5497 -0.0502  0.1066
  109DG      C1 2485   2.852   4.898   3.845 -0.6751  0.0036 -0.1734
  109DG      C2 2486   3.033   4.580   4.463 -0.2866 -0.7469  0.5036
  109DG      H3 2487   2.780   4.835   3.793 -0.5870  1.3391 -1.9939
  109DG      H4 2488   2.895   4.976   3.783  2.0934  1.8245  3.6105
  109DG      H5 2489   2.788   4.947   3.918  1.0381 -2.0814  2.9548
  109DG      H6 2490   3.128   4.589   4.517  0.9425 -1.8172 -1.3695
  109DG      H7 2491   2.960   4.650   4.503  0.9389 -1.1614  3.7940
  109DG      H8 2492   2.984   4.483   4.475 -2.9758 -0.1258 -3.5734
  109DG      O9 2493   2.969   4.839   3.914 -0.4645 -0.1586  0.4531
  109DG     O10 2494   3.057   4.607   4.323 -0.0582  0.0846 -0.1269
  109DG     C11 2495   3.019   4.722   3.844 -0.1287  0.3673  0.1549
  109DG     C12 2496   3.153   4.515   4.264 -0.1805 -0.4294 -1.1867
  109DG     H13 2497   3.045   4.737   3.740 -0.6601 -1.9895 -0.3720
  109DG     H14 2498   2.937   4.651   3.837  0.4620 -0.2185 -1.0733
  109DG     H15 2499   3.111   4.415   4.250  1.8166 -1.2634 -1.4744
  109DG     H16 2500   3.243   4.499   4.323 -1.8573  0.0319  1.7417
  109DG     C17 2501   3.146   4.664   3.924  0.0025 -0.1127 -0.1562
  109DG     C18 2502   3.199   4.574   4.133 -0.1829 -0.3589 -0.4731
  109DG     O19 2503   3.097   4.596   4.041  0.2224 -0.3011  0.3490
  109DG     H20 2504   3.205   4.754   3.945 -3.1767  1.5767  2.5330
  109DG     H21 2505   3.208   4.603   3.859  1.5647  0.2487  0.9382
  109DG     H22 2506   3.250   4.668   4.156 -0.4703 -0.1921 -0.5244
  109DG     H23 2507   3.267   4.503   4.087 -1.1165 -1.1760 -0.6099
  110DG      C1 2508   4.600   4.123   1.714  0.3657 -0.9114  0.0304
  110DG      C2 2509   5.041   3.512   1.845 -0.6254  0.1156 -0.7470
  110DG      H3 2510   4.549   4.124   1.810  0.7354 -0.4713  0.2321
  110DG      H4 2511   4.532   4.169   1.642  1.9981 -0.2046 -1.1416
  110DG      H5 2512   4.682   4.196   1.719  1.2994 -1.7693 -1.7035
  110DG      H6 2513   5.141   3.549   1.824  1.2796 -2.3223  2.9447
  110DG      H7 2514   5.010   3.520   1.949 -2.6753 -2.5819 -1.0517
  110DG      H8 2515   5.027   3.405   1.834  0.7322 -0.2120  0.4137
  110DG      O9 2516   4.630   3.990   1.678 -0.2358  0.3732 -0.0847
  110DG     O10 2517   4.941   3.586   1.779  0.8416 -0.0445  0.2108
  110DG     C11 2518   4.697   3.983   1.556  0.2175  0.0459  0.2334
  110DG     C12 2519   4.949   3.581   1.634 -0.5241 -0.2685  0.0731
  110DG     H13 2520   4.796   4.027   1.562  0.1790 -0.0175  1.5738
  110DG     H14 2521   4.637   4.033   1.480  2.7815  1.4674 -0.9874
  110DG     H15 2522   4.956   3.474   1.614 -0.5563 -0.3522  0.5016
  110DG     H16 2523   5.041   3.622   1.591 -2.1495  0.2221 -3.2930
  110DG     C17 2524   4.727   3.834   1.511  0.0620 -0.2405 -0.0747
  110DG     C18 2525   4.832   3.641   1.559  0.0956 -0.1222 -0.1040
  110DG     O19 2526   4.820   3.775   1.592 -0.2225 -0.2255 -0.2348
  110DG     H20 2527   4.773   3.832   1.413 -0.5211 -3.5619 -0.3872
  110DG     H21 2528   4.633   3.778   1.508 -0.0677 -0.1419  1.3816
  110DG     H22 2529   4.839   3.628   1.451 -2.2484 -0.0100 -0.3202
  110DG     H23 2530   4.752   3.579   1.599  0.4530 -0.6089 -0.1349
  111DG      C1 2531   4.673   3.302   1.778 -0.8515  1.0931 -0.3128
  111DG      C2 2532   4.789   3.483   1.062 -0.2068 -0.7511  0.0858
  111DG      H3 2533   4.759   3.317   1.842 -0.2552  0.7363 -1.0083
  111DG      H4 2534   4.611   3.224   1.822 -1.3212  1.3184 -0.5623
  111DG      H5 2535   4.613   3.392   1.784 -0.4360  1.4062 -0.7639
  111DG      H6 2536   4.690   3.507   1.022 -0.1644  3.3508  1.9491
  111DG      H7 2537   4.830   3.579   1.093 -2.7652 -0.0353  1.6552
  111DG      H8 2538   4.861   3.457   0.985  1.5339 -2.3289  2.1002
  111DG      O9 2539   4.697   3.265   1.644 -0.1311  0.7186 -0.2093
  111DG     O10 2540   4.795   3.394   1.173 -0.5902  0.1489 -0.2444
  111DG     C11 2541   4.801   3.168   1.618  0.1592 -0.4038  0.2594
  111DG     C12 2542   4.709   3.284   1.152  0.8909  0.2127  0.4330
  111DG     H13 2543   4.791   3.080   1.681 -0.4525  0.0552  0.8051
  111DG     H14 2544   4.902   3.208   1.616 -0.4167  1.0959  0.0722
  111DG     H15 2545   4.711   3.244   1.051  0.4800 -0.2582  0.6096
  111DG     H16 2546   4.605   3.314   1.164  0.4812 -0.5773 -0.9735
  111DG     C17 2547   4.773   3.113   1.474  0.4679 -0.3274 -0.3431
  111DG     C18 2548   4.730   3.167   1.248 -0.2958  0.7521 -0.0563
  111DG     O19 2549   4.765   3.217   1.376  0.2991  0.0722  0.1843
  111DG     H20 2550   4.675   3.066   1.478 -0.5708  1.6578 -1.4015
  111DG     H21 2551   4.843   3.033   1.450  1.9614  0.4114  1.3739
  111DG     H22 2552   4.641   3.104   1.242 -0.0569  0.5055 -1.6126
  111DG     H23 2553   4.820   3.114   1.216 -0.6956 -0.1868  0.3280
  112DG      C1 2554   3.920   4.533   0.256 -0.0973  0.3632  0.6241
  112DG      C2 2555   3.542   4.539   0.751 -0.5857  0.0653  0.1530
  112DG      H3 2556   3.908   4.534   0.147 -1.2091 -1.2521  0.6999
  112DG      H4 2557   4.006   4.468   0.273  0.9617  1.8113  0.9838
  112DG      H5 2558   3.945   4.633   0.293 -0.6594  0.5331  0.5482
  112DG      H6 2559   3.604   4.629   0.758 -0.5569 -0.0545  2.0321
  112DG      H7 2560   3.434   4.553   0.759 -0.9721 -2.3944  0.0436
  112DG      H8 2561   3.569   4.502   0.850 -2.2574  1.4401  1.1810
  112DG      O9 2562   3.807   4.471   0.314  0.3069 -0.4234  0.1620
  112DG     O10 2563   3.575   4.453   0.647 -0.1907 -0.1507  0.8108
  112DG     C11 2564   3.774   4.344   0.255  0.3792 -0.1123  0.1309
  112DG     C12 2565   3.485   4.347   0.630  0.5858  0.1343 -0.0928
  112DG     H13 2566   3.850   4.299   0.192  0.4676 -0.5357  0.5316
  112DG     H14 2567   3.689   4.365   0.189  1.6331 -1.2178 -1.9348
  112DG     H15 2568   3.384   4.385   0.622  0.6103  0.3464  0.5362
  112DG     H16 2569   3.482   4.279   0.715  1.0666  0.6748  0.3679
  112DG     C17 2570   3.716   4.257   0.366 -0.2702  0.7118 -0.1290
  112DG     C18 2571   3.536   4.256   0.521 -0.1754  0.7384 -0.6768
  112DG     O19 2572   3.608   4.338   0.425  0.0791 -0.0518 -0.6269
  112DG     H20 2573   3.799   4.242   0.435 -2.0161 -0.0930  1.9112
  112DG     H21 2574   3.685   4.158   0.334 -0.1871  0.1811  1.3645
  112DG     H22 2575   3.604   4.180   0.560  1.6316  0.2509 -4.3201
  112DG     H23 2576   3.464   4.206   0.456 -1.3723  1.9779 -0.3563
  113DG      C1 2577   3.358   2.519   1.382 -0.0451  0.1734 -0.2591
  113DG      C2 2578   3.051   2.235   0.714  0.1770 -0.1460  0.1370
  113DG      H3 2579   3.396   2.611   1.337 -2.3412  0.6856 -1.3000
  113DG      H4 2580   3.432   2.479   1.452 -1.0763  0.9258  1.3257
  113DG      H5 2581   3.272   2.548   1.443 -0.7910 -0.0977 -1.1671
  113DG      H6 2582   3.003   2.325   0.751 -0.0872  0.0402 -0.6307
  113DG      H7 2583   3.087   2.259   0.614 -2.1647  1.7371 -0.3493
  113DG      H8 2584   2.978   2.155   0.697  1.0269 -0.5053 -2.3139
  113DG      O9 2585   3.320   2.424   1.283 -0.7108 -0.2924  0.0260
  113DG     O10 2586   3.161   2.200   0.795  0.5975  0.6500  0.2798
  113DG     C11 2587   3.437   2.367   1.222 -0.2672 -0.5015  0.2701
  113DG     C12 2588   3.115   2.154   0.921 -0.1836  0.0216 -0.0338
  113DG     H13 2589   3.522   2.350   1.287  1.5425  2.0052 -1.2768
  113DG     H14 2590   3.476   2.425   1.138 -2.5654  0.2914 -0.3223
  113DG     H15 2591   3.068   2.062   0.884 -0.5970  0.5502 -0.8676
  113DG     H16 2592   3.039   2.213   0.973  0.3080 -0.6117  1.4484
  113DG     C17 2593   3.399   2.234   1.155  0.3560  0.2108 -0.4300
  113DG     C18 2594   3.240   2.131   1.008 -0.4660 -0.3040 -0.1128
  113DG     O19 2595   3.290   2.254   1.066 -0.5166 -0.3675  0.1029
  113DG     H20 2596   3.363   2.167   1.234 -2.6379  1.0434 -0.9926
  113DG     H21 2597   3.484   2.184   1.107  1.2238  1.4255 -0.1984
  113DG     H22 2598   3.212   2.069   1.093  0.0117  2.0480  1.9195
  113DG     H23 2599   3.315   2.084   0.945 -0.0232  0.2547 -0.0211
  114DG      C1 2600   1.156   4.080   0.818 -0.7149  0.2563 -0.1848
  114DG      C2 2601   0.995   4.086   0.051 -0.0816  0.2838 -0.2198
  114DG      H3 2602   1.167   4.186   0.840 -2.1369  0.3984 -0.0703
  114DG      H4 2603   1.235   4.036   0.879 -0.6399  0.3966 -0.1792
  114DG      H5 2604   1.058   4.045   0.850 -0.5800 -0.4990 -0.5779
  114DG      H6 2605   1.056   4.043  -0.029  3.8480  0.9629  2.1526
  114DG      H7 2606   0.889   4.088   0.026 -0.4329  0.8957  1.2622
  114DG      H8 2607   1.017   4.191   0.066 -0.5473  0.4740 -0.8325
  114DG      O9 2608   1.169   4.050   0.681  0.3774 -0.0255 -0.1446
  114DG     O10 2609   1.026   4.002   0.160 -0.5076  0.2714 -0.4538
  114DG     C11 2610   1.150   3.910   0.653 -0.7038  0.2436 -0.0961
  114DG     C12 2611   0.959   4.040   0.278  0.1717 -0.8329  0.5526
  114DG     H13 2612   1.044   3.890   0.669 -0.4442 -0.9461  0.2618
  114DG     H14 2613   1.216   3.854   0.720  1.2529 -0.0128 -2.1240
  114DG     H15 2614   0.850   4.035   0.267  0.3205 -0.7479 -1.2596
  114DG     H16 2615   0.966   4.148   0.296  1.4072 -0.6549 -0.7649
  114DG     C17 2616   1.188   3.867   0.514 -0.3052 -0.1694 -0.0971
  114DG     C18 2617   0.993   3.955   0.397 -0.2180 -0.1715 -0.1403
  114DG     O19 2618   1.133   3.959   0.419  0.1962 -0.1752  0.3468
  114DG     H20 2619   1.166   3.762   0.496  1.0763 -0.0887 -2.9436
  114DG     H21 2620   1.295   3.860   0.496 -0.4239  0.5959 -1.1916
  114DG     H22 2621   0.934   3.986   0.483 -0.5013  2.8022 -1.2725
  114DG     H23 2622   0.957   3.853   0.384  1.7335 -1.0478  0.8284
  115DG      C1 2623   0.938   0.625   3.525 -0.8005 -0.0100 -0.6909
  115DG      C2 2624   1.133   0.629   2.889  0.2989 -0.4302  0.3097
  115DG      H3 2625   0.963   0.618   3.631 -1.9643  1.0358 -0.3206
  115DG      H4 2626   0.861   0.551   3.500 -1.7570  1.5342 -2.5697
  115DG      H5 2627   0.899   0.726   3.516  0.8220  0.8029  0.8366
  115DG      H6 2628   1.235   0.656   2.864  0.2584  1.0357  1.5275
  115DG      H7 2629   1.094   0.556   2.819  3.3860 -2.5083  0.5514
  115DG      H8 2630   1.075   0.721   2.882 -1.1716 -1.2798  0.7019
  115DG      O9 2631   1.055   0.597   3.455  0.2384 -0.2206  0.0427
  115DG     O10 2632   1.151   0.577   3.016 -0.3296 -0.5995 -0.3287
  115DG     C11 2633   1.107   0.468   3.478  0.6027  0.4043  0.3471
  115DG     C12 2634   1.191   0.445   3.014 -0.1462 -0.4910 -0.1290
  115DG     H13 2635   1.017   0.407   3.465 -0.2453  2.0332 -2.4868
  115DG     H14 2636   1.146   0.444   3.576  0.9287 -3.3436 -0.5605
  115DG     H15 2637   1.251   0.421   2.926  0.8207  1.5851 -0.0939
  115DG     H16 2638   1.104   0.380   3.021 -1.2383  0.9890  0.7647
  115DG     C17 2639   1.221   0.438   3.379  0.4169 -0.4735  0.5247
  115DG     C18 2640   1.267   0.421   3.141  0.2325  0.2601  0.2640
  115DG     O19 2641   1.171   0.457   3.243  0.4079  0.4057 -0.1184
  115DG     H20 2642   1.243   0.332   3.386  0.2059 -0.7252 -1.7710
  115DG     H21 2643   1.307   0.499   3.407 -0.8383  2.4619 -1.5272
  115DG     H22 2644   1.303   0.318   3.146 -1.2151 -0.2287  1.5871
  115DG     H23 2645   1.356   0.483   3.151  0.4685 -0.0135 -0.1316
  116DG      C1 2646   3.702   2.511   2.563  0.2408  0.3715  0.2438
  116DG      C2 2647   4.262   2.040   2.807  0.5622  0.0745  0.5693
  116DG      H3 2648   3.660   2.610   2.548  1.5000  0.9507  0.3852
  116DG      H4 2649   3.625   2.441   2.596  1.3771 -1.1071 -0.0906
  116DG      H5 2650   3.745   2.477   2.469 -0.1242  0.3007  0.1036
  116DG      H6 2651   4.343   2.036   2.734  0.1440 -0.0811  0.1136
  116DG      H7 2652   4.231   2.144   2.794  0.6810  0.1861  1.1302
  116DG      H8 2653   4.301   2.024   2.908  0.1163  1.1351  0.9232
  116DG      O9 2654   3.805   2.522   2.658 -0.1921  0.2597  0.4812
  116DG     O10 2655   4.145   1.957   2.784  0.6161 -0.5357 -0.1386
  116DG     C11 2656   3.858   2.400   2.719  0.7233  0.1265 -0.8814
  116DG     C12 2657   4.092   1.971   2.651 -0.3372 -0.1090  0.4222
  116DG     H13 2658   3.774   2.332   2.736 -0.7416  2.2932  1.2120
  116DG     H14 2659   3.907   2.432   2.811 -0.0170  1.2150 -0.8437
  116DG     H15 2660   4.001   1.914   2.632  0.4061 -1.2117  0.0717
  116DG     H16 2661   4.154   1.925   2.574  1.0068  0.2752  1.2303
  116DG     C17 2662   3.946   2.317   2.623  0.6311 -0.1734  0.4358
  116DG     C18 2663   4.069   2.122   2.599  0.4616 -0.4477  0.2965
  116DG     O19 2664   3.990   2.201   2.682  0.2697 -0.6038 -0.0927
  116DG     H20 2665   4.033   2.377   2.599 -0.8642  1.6463 -0.7549
  116DG     H21 2666   3.890   2.303   2.530 -0.2951  0.6488  0.8448
  116DG     H22 2667   4.158   2.181   2.577 -1.1065  2.2002  0.6506
  116DG     H23 2668   4.013   2.105   2.507 -0.2905  1.5774  0.3345
  117DG      C1 2669   2.807   2.962   2.313  0.4641 -0.6298 -0.0922
  117DG      C2 2670   2.879   2.265   2.345 -0.0682 -0.0381 -0.2261
  117DG      H3 2671   2.836   3.048   2.374  0.8273  2.1242 -3.7956
  117DG      H4 2672   2.760   2.883   2.370 -2.1538  0.6278 -0.3877
  117DG      H5 2673   2.726   3.005   2.254 -1.7508 -2.2894  1.5871
  117DG      H6 2674   2.958   2.199   2.382 -0.6888  0.0160  1.2606
  117DG      H7 2675   2.819   2.303   2.428 -0.4397  0.2113 -0.6059
  117DG      H8 2676   2.809   2.196   2.300 -2.4232  0.5932  2.1930
  117DG      O9 2677   2.907   2.916   2.230 -0.3034 -0.0871 -0.1546
  117DG     O10 2678   2.930   2.366   2.265 -0.3243 -0.0363  0.2461
  117DG     C11 2679   3.028   2.881   2.300 -0.1886  0.5487  0.2791
  117DG     C12 2680   2.851   2.480   2.247  0.1995 -0.2555  0.5206
  117DG     H13 2681   3.007   2.860   2.405  0.3849  0.1522  0.3253
  117DG     H14 2682   3.092   2.969   2.302  1.4816 -0.5957 -0.0484
  117DG     H15 2683   2.809   2.510   2.343  1.5198  3.1639  0.1608
  117DG     H16 2684   2.766   2.449   2.185  1.3858 -2.3671 -0.1528
  117DG     C17 2685   3.089   2.765   2.223 -0.6180 -0.5021  0.6086
  117DG     C18 2686   2.918   2.604   2.185  0.2399  0.1455  0.9600
  117DG     O19 2687   3.024   2.647   2.270 -0.1420 -0.1869 -0.0158
  117DG     H20 2688   3.193   2.769   2.257 -1.2402  0.4739  2.6025
  117DG     H21 2689   3.083   2.781   2.115  2.0834  0.6028  0.5383
  117DG     H22 2690   2.949   2.575   2.085  0.2268 -0.1891  1.0506
  117DG     H23 2691   2.841   2.680   2.172 -1.4180 -1.6665 -0.4201
  118DG      C1 2692   1.036   1.314   4.829 -0.0697  0.5518 -0.3467
  118DG      C2 2693   0.618   1.423   4.159  0.6609  0.7464 -0.7127
  118DG      H3 2694   1.012   1.413   4.866  0.2781  1.9248 -3.5073
  118DG      H4 2695   1.145   1.309   4.841  0.0720  4.0668  1.1406
  118DG      H5 2696   0.994   1.231   4.887  0.3576  0.7168  0.2145
  118DG      H6 2697   0.569   1.495   4.225  2.1040  0.8240  0.3483
  118DG      H7 2698   0.641   1.472   4.065 -0.4512  1.5781 -0.5630
  118DG      H8 2699   0.541   1.347   4.149  0.2613  0.9805  0.4226
  118DG      O9 2700   1.007   1.318   4.696  0.0339  0.0576  0.0050
  118DG     O10 2701   0.729   1.366   4.235 -0.3201 -0.0822 -0.5408
  118DG     C11 2702   0.862   1.330   4.672 -0.0132 -0.3523 -0.8056
  118DG     C12 2703   0.847   1.437   4.222 -0.1921  0.2507 -0.4466
  118DG     H13 2704   0.819   1.418   4.719 -2.5860  0.0429 -3.5644
  118DG     H14 2705   0.813   1.244   4.718 -0.2730  0.2259  0.0172
  118DG     H15 2706   0.808   1.537   4.244  1.4695  1.2519 -1.7353
  118DG     H16 2707   0.880   1.435   4.118 -1.6104  0.2121 -0.9131
  118DG     C17 2708   0.848   1.325   4.518  0.5093  0.3626  0.7931
  118DG     C18 2709   0.958   1.403   4.322 -0.0515  0.4036  0.2447
  118DG     O19 2710   0.936   1.417   4.462 -0.5938  0.7759  0.1338
  118DG     H20 2711   0.749   1.358   4.488  1.2689  1.2974 -0.8335
  118DG     H21 2712   0.877   1.224   4.488  0.0894  0.7979 -1.1886
  118DG     H22 2713   1.002   1.305   4.305  0.3205  0.8432 -1.4699
  118DG     H23 2714   1.051   1.450   4.291  0.0712 -0.8747 -1.4459
  119DG      C1 2715   2.828   2.558   3.468  0.4174  0.0578 -0.0488
  119DG      C2 2716   2.186   2.561   4.019 -0.0630 -0.4295  0.2303
  119DG      H3 2717   2.832   2.451   3.449  1.0610  0.0645  0.0168
  119DG      H4 2718   2.889   2.575   3.556  0.5219 -2.1790  0.3693
  119DG      H5 2719   2.882   2.602   3.384  1.3600  0.5754  0.8087
  119DG      H6 2720   2.207   2.455   4.030 -1.5524 -0.5848  2.1686
  119DG      H7 2721   2.248   2.611   4.094  0.6160  0.2216 -0.7517
  119DG      H8 2722   2.080   2.571   4.040  0.2066  0.8325  1.1604
  119DG      O9 2723   2.693   2.604   3.482 -0.2958  0.3181 -0.2184
  119DG     O10 2724   2.210   2.608   3.894  1.1454 -0.0294 -0.3267
  119DG     C11 2725   2.689   2.739   3.525  0.4705  0.2379  0.0172
  119DG     C12 2726   2.345   2.611   3.851  0.7263 -0.8261  0.3090
  119DG     H13 2727   2.705   2.807   3.442  1.3946 -0.7414 -0.6425
  119DG     H14 2728   2.772   2.762   3.592  1.5560 -1.1334 -0.7947
  119DG     H15 2729   2.375   2.510   3.821  0.5723 -0.3382 -1.6297
  119DG     H16 2730   2.410   2.634   3.935 -0.8412  0.0690  1.3206
  119DG     C17 2731   2.543   2.766   3.576  0.3334 -0.5263 -0.0340
  119DG     C18 2732   2.378   2.704   3.734 -0.2906 -0.0038  0.7831
  119DG     O19 2733   2.501   2.671   3.673 -0.0877 -0.0989 -0.4826
  119DG     H20 2734   2.474   2.749   3.493 -0.8236  2.0001  0.3271
  119DG     H21 2735   2.537   2.868   3.613  0.8230 -0.3611 -0.3909
  119DG     H22 2736   2.299   2.704   3.659 -1.2159  2.5759  1.6577
  119DG     H23 2737   2.370   2.804   3.776 -0.0552  0.2598  0.2167
  120DG      C1 2738   3.714   3.278   1.006  0.0356 -0.1423 -0.3279
  120DG      C2 2739   3.293   3.305   0.460  0.0914 -0.0029  0.1293
  120DG      H3 2740   3.677   3.381   1.010 -0.6774 -0.4223  0.4145
  120DG      H4 2741   3.821   3.267   1.026  0.4953 -0.0814 -2.5052
  120DG      H5 2742   3.651   3.226   1.078 -0.7967  0.6163 -0.4904
  120DG      H6 2743   3.227   3.363   0.525 -0.7618 -1.0629  0.2444
  120DG      H7 2744   3.360   3.367   0.401 -0.0261  0.6889  0.7104
  120DG      H8 2745   3.232   3.268   0.377 -0.9564  0.9867  0.4309
  120DG      O9 2746   3.676   3.222   0.886 -0.2787 -0.5370  0.6667
  120DG     O10 2747   3.376   3.219   0.533  0.1395 -0.5539  0.1647
  120DG     C11 2748   3.722   3.083   0.874 -0.5704 -0.6753  0.2556
  120DG     C12 2749   3.461   3.139   0.458  0.4315  0.1863  0.3056
  120DG     H13 2750   3.707   3.023   0.964 -1.3180  0.1876  0.7299
  120DG     H14 2751   3.827   3.075   0.845  0.0102 -4.0262  2.6664
  120DG     H15 2752   3.537   3.197   0.405 -0.6961  0.7654 -0.7425
  120DG     H16 2753   3.406   3.083   0.382  2.2304 -0.7027 -0.4092
  120DG     C17 2754   3.651   3.006   0.763 -0.3421 -0.4621 -0.9665
  120DG     C18 2755   3.529   3.039   0.561  0.1348  0.8483  0.1343
  120DG     O19 2756   3.616   3.100   0.657 -0.3158 -0.0738 -0.3372
  120DG     H20 2757   3.557   2.970   0.804 -1.4065  3.2211  0.2422
  120DG     H21 2758   3.717   2.924   0.735  2.2011  1.0736  0.1329
  120DG     H22 2759   3.454   2.977   0.610 -0.1079  2.0568  1.3648
  120DG     H23 2760   3.593   2.966   0.512  0.3798  1.1528 -0.0040
  121DG      C1 2761   4.987   3.590   5.318 -0.0778  0.0715  0.0287
  121DG      C2 2762   4.928   3.852   5.999 -0.7749 -0.5135 -0.0194
  121DG      H3 2763   4.966   3.681   5.262 -1.8571 -1.3284 -1.6967
  121DG      H4 2764   4.952   3.506   5.258  0.6597 -1.5838  1.7757
  121DG      H5 2765   5.095   3.578   5.331  0.3104  1.5550 -1.4594
  121DG      H6 2766   5.035   3.857   5.976 -0.5518 -0.1707  1.0363
  121DG      H7 2767   4.888   3.952   6.015  0.4634 -0.0228  0.1624
  121DG      H8 2768   4.908   3.790   6.086 -0.5593 -0.6025 -0.0304
  121DG      O9 2769   4.915   3.572   5.442  0.0365  0.7200  0.0187
  121DG     O10 2770   4.877   3.775   5.888  0.5650 -0.3215  0.3871
  121DG     C11 2771   4.781   3.606   5.430 -0.4961  0.4214  0.2950
  121DG     C12 2772   4.867   3.851   5.768  0.4115 -0.0877  0.5853
  121DG     H13 2773   4.754   3.538   5.350 -0.4577  0.6399  0.0966
  121DG     H14 2774   4.771   3.708   5.393 -0.8302  0.4464  0.4539
  121DG     H15 2775   4.967   3.850   5.725  1.3385 -2.0906  2.6076
  121DG     H16 2776   4.837   3.955   5.780 -2.1760 -0.4693 -1.4532
  121DG     C17 2777   4.703   3.591   5.564 -0.0962 -0.1076 -0.0116
  121DG     C18 2778   4.765   3.795   5.668  0.1287 -0.0731 -0.7352
  121DG     O19 2779   4.773   3.654   5.663  0.1444  0.4191 -0.6459
  121DG     H20 2780   4.682   3.487   5.589 -0.5937 -0.0578 -0.2056
  121DG     H21 2781   4.604   3.633   5.544 -0.8219 -1.8698 -0.2747
  121DG     H22 2782   4.664   3.825   5.698  0.2205  0.2832 -0.7823
  121DG     H23 2783   4.787   3.840   5.571 -1.4305  2.9755  0.2035
  122DG      C1 2784   2.000   0.541   3.202  0.8258  0.5161 -0.3816
  122DG      C2 2785   2.347   0.778   3.763 -0.6971  0.5227 -0.2064
  122DG      H3 2786   2.050   0.579   3.112  1.9490  0.9400  0.3994
  122DG      H4 2787   1.913   0.605   3.213  1.6055  1.5710 -0.1997
  122DG      H5 2788   1.984   0.440   3.165 -0.6122  0.5369  0.1235
  122DG      H6 2789   2.271   0.823   3.826  0.6964  0.1713  1.8208
  122DG      H7 2790   2.427   0.757   3.834 -0.8751 -2.8700 -0.8208
  122DG      H8 2791   2.382   0.852   3.692 -0.3180 -0.8030 -1.4603
  122DG      O9 2792   2.085   0.540   3.314  0.3884  0.2985 -0.2642
  122DG     O10 2793   2.301   0.656   3.722  0.3115 -0.5809  0.8804
  122DG     C11 2794   2.033   0.458   3.417  0.2429 -0.0300  0.4552
  122DG     C12 2795   2.401   0.581   3.650  0.0596  0.1938  0.1963
  122DG     H13 2796   2.027   0.352   3.394 -1.4033  0.0280  0.4918
  122DG     H14 2797   1.928   0.481   3.437  0.3260  0.4758  0.3204
  122DG     H15 2798   2.486   0.549   3.710 -0.3860 -1.2001  0.1270
  122DG     H16 2799   2.439   0.634   3.562  0.1448  0.5594  0.4509
  122DG     C17 2800   2.113   0.480   3.548 -0.0705 -0.9819 -0.3515
  122DG     C18 2801   2.344   0.451   3.607  0.2571  0.2213 -0.1396
  122DG     O19 2802   2.249   0.466   3.506  0.2678 -0.0627 -0.6995
  122DG     H20 2803   2.086   0.413   3.629 -2.3253 -0.6821 -0.7930
  122DG     H21 2804   2.103   0.585   3.576  1.5289 -0.5580 -1.2568
  122DG     H22 2805   2.423   0.380   3.584  0.8349  0.1834  1.7466
  122DG     H23 2806   2.314   0.407   3.703  1.5800  2.6637  1.5093
  123DG      C1 2807   2.344   4.108   1.017 -0.2249 -0.3341 -0.3030
  123DG      C2 2808   2.960   3.639   0.961 -0.2724 -0.8470 -0.5109
  123DG      H3 2809   2.242   4.127   1.051  0.8520  2.1637  1.9154
  123DG      H4 2810   2.350   4.135   0.911 -2.4870  0.4838 -0.2780
  123DG      H5 2811   2.404   4.182   1.071 -0.8186  0.5578 -0.8339
  123DG      H6 2812   3.016   3.693   1.037  0.7070  3.0893 -3.6687
  123DG      H7 2813   3.002   3.538   0.961  0.9164 -0.3733 -1.9192
  123DG      H8 2814   2.993   3.699   0.876  0.0511  0.9345  0.8336
  123DG      O9 2815   2.407   3.987   1.044  0.1363 -0.0288 -0.2245
  123DG     O10 2816   2.825   3.658   0.992 -0.4541 -0.4988 -0.2892
  123DG     C11 2817   2.335   3.869   0.993 -0.1861 -0.0660 -0.6231
  123DG     C12 2818   2.797   3.800   0.989  0.4358  0.0162 -0.0949
  123DG     H13 2819   2.295   3.885   0.893 -0.9372 -0.0917 -0.3292
  123DG     H14 2820   2.246   3.847   1.051  0.3352  0.3264  0.3469
  123DG     H15 2821   2.798   3.840   0.888 -0.4833  2.5200  0.7836
  123DG     H16 2822   2.866   3.858   1.050 -1.0688  1.2642  0.5192
  123DG     C17 2823   2.424   3.745   1.015 -0.3720  0.5217 -0.1473
  123DG     C18 2824   2.642   3.828   1.028 -0.4281 -0.7510  0.3717
  123DG     O19 2825   2.553   3.752   0.951  0.0048 -0.2811 -0.0359
  123DG     H20 2826   2.375   3.655   0.979  0.0276  0.3755 -0.3282
  123DG     H21 2827   2.444   3.723   1.120 -0.9062 -1.8641 -0.4838
  123DG     H22 2828   2.625   3.815   1.135 -0.3361 -0.0033  0.4793
  123DG     H23 2829   2.631   3.934   1.007 -0.0555 -0.6468  0.7009
  124DG      C1 2830   2.969   2.920   1.636  0.1098 -0.3478 -0.6655
  124DG      C2 2831   2.809   3.574   1.387  0.0761  0.6281  0.2055
  124DG      H3 2832   3.013   2.839   1.577  1.2255  1.6783 -2.8400
  124DG      H4 2833   2.861   2.912   1.643 -0.0703  1.3824 -0.9776
  124DG      H5 2834   3.023   2.929   1.730  5.1555  1.6994 -3.3652
  124DG      H6 2835   2.858   3.671   1.382 -1.0526  1.1849 -0.6132
  124DG      H7 2836   2.756   3.538   1.298  0.9752 -0.1592 -0.0241
  124DG      H8 2837   2.743   3.563   1.473  1.1817 -0.4880  0.9478
  124DG      O9 2838   2.996   3.034   1.554 -0.2081 -0.2945 -0.1954
  124DG     O10 2839   2.916   3.488   1.410 -0.2110 -0.4752  0.2319
  124DG     C11 2840   3.134   3.045   1.520 -0.4039 -0.0175 -0.5154
  124DG     C12 2841   2.992   3.465   1.298  0.0915  0.2169 -0.3988
  124DG     H13 2842   3.167   2.961   1.460 -1.8604 -2.0801  1.4108
  124DG     H14 2843   3.184   3.048   1.617 -1.0367  2.8070 -0.1828
  124DG     H15 2844   3.035   3.556   1.255 -0.1087  0.9185  0.8361
  124DG     H16 2845   2.926   3.417   1.225 -0.6274  0.9252 -0.2317
  124DG     C17 2846   3.172   3.170   1.435 -0.0494  0.2557 -0.2748
  124DG     C18 2847   3.096   3.363   1.323 -0.4578  0.4733 -0.4295
  124DG     O19 2848   3.058   3.253   1.406  0.2858 -0.2222  0.4659
  124DG     H20 2849   3.208   3.136   1.338  0.4738  0.3111 -0.1000
  124DG     H21 2850   3.252   3.230   1.477  1.8409 -1.9319 -0.5614
  124DG     H22 2851   3.150   3.337   1.232  0.9556 -1.7538  0.9514
  124DG     H23 2852   3.176   3.415   1.376  1.3594 -2.0580 -0.4883
  125DG      C1 2853   5.114   2.562   4.303  0.1025  0.0953  0.3292
  125DG      C2 2854   4.820   3.184   4.126  0.1181  0.1073 -0.1933
  125DG      H3 2855   5.079   2.492   4.227 -4.0860  0.4906  1.6399
  125DG      H4 2856   5.028   2.575   4.369 -0.3320  1.4060 -0.4496
  125DG      H5 2857   5.203   2.526   4.354  1.5283  0.3244 -1.8693
  125DG      H6 2858   4.724   3.146   4.090 -1.4456  1.5209  2.2019
  125DG      H7 2859   4.813   3.183   4.234 -1.0319  2.5121 -0.1736
  125DG      H8 2860   4.830   3.291   4.106  0.5064  0.3801  1.3760
  125DG      O9 2861   5.151   2.681   4.230  0.2767  0.4712  0.5809
  125DG     O10 2862   4.928   3.111   4.075 -0.4938 -0.1236 -0.3582
  125DG     C11 2863   5.199   2.781   4.320 -0.0792  0.3502 -0.7532
  125DG     C12 2864   5.054   3.174   4.119 -0.1141 -0.1137 -0.0515
  125DG     H13 2865   5.284   2.739   4.374  1.1087  0.8180 -2.1885
  125DG     H14 2866   5.118   2.805   4.388 -0.6937 -4.4913  0.6369
  125DG     H15 2867   5.053   3.201   4.224 -0.2123 -1.3598  0.2828
  125DG     H16 2868   5.076   3.264   4.062  0.3732 -0.1082  0.1353
  125DG     C17 2869   5.256   2.904   4.243  1.0105  0.4533 -0.1505
  125DG     C18 2870   5.175   3.081   4.103 -0.6373 -0.0271  0.0111
  125DG     O19 2871   5.145   2.961   4.169 -0.0539 -0.0529  0.2132
  125DG     H20 2872   5.331   2.884   4.167  0.3456 -1.6842 -0.3205
  125DG     H21 2873   5.309   2.971   4.311  0.3820  0.0577  0.7460
  125DG     H22 2874   5.196   3.067   3.997 -0.4171 -0.1291  0.0694
  125DG     H23 2875   5.255   3.128   4.161  2.1397 -0.5743 -3.1038
  126DG      C1 2876   1.465   2.604   3.250  0.2979  0.6153  0.5378
  126DG      C2 2877   1.775   2.478   4.035 -0.4848  0.4127 -0.3512
  126DG      H3 2878   1.381   2.552   3.203  1.3803 -0.7468  0.0410
  126DG      H4 2879   1.545   2.601   3.176 -0.6030  1.1582 -0.4840
  126DG      H5 2880   1.433   2.708   3.260 -0.2646  0.5592 -0.5192
  126DG      H6 2881   1.851   2.555   4.051 -1.0151  0.9281 -0.2835
  126DG      H7 2882   1.741   2.444   4.133  0.1139 -1.7399 -0.8365
  126DG      H8 2883   1.821   2.390   3.990 -0.0266 -0.0747  1.0124
  126DG      O9 2884   1.492   2.539   3.375 -0.5779  0.4551 -0.2995
  126DG     O10 2885   1.668   2.510   3.951  0.6385 -0.1733  0.0413
  126DG     C11 2886   1.402   2.573   3.483 -0.7163 -0.7445  1.1060
  126DG     C12 2887   1.714   2.569   3.829  0.7367  0.0589  0.0824
  126DG     H13 2888   1.299   2.552   3.456 -1.2211  1.5441  1.0587
  126DG     H14 2889   1.417   2.681   3.496  2.9870 -0.6474 -2.0835
  126DG     H15 2890   1.786   2.507   3.776 -0.6872 -1.3605 -0.2765
  126DG     H16 2891   1.758   2.668   3.844 -0.6202  0.7257 -0.2004
  126DG     C17 2892   1.421   2.493   3.612 -0.0217  0.3688  0.0195
  126DG     C18 2893   1.597   2.596   3.735  0.5997  0.1183  0.0664
  126DG     O19 2894   1.547   2.476   3.671 -0.1962 -0.2421  0.0384
  126DG     H20 2895   1.392   2.393   3.580  0.5747 -0.0589  0.7877
  126DG     H21 2896   1.350   2.515   3.692 -0.5567 -1.6592  0.1576
  126DG     H22 2897   1.517   2.636   3.797  0.7132  0.6061 -0.0994
  126DG     H23 2898   1.632   2.675   3.669  0.0212 -0.5678 -1.0976
  127DG      C1 2899   0.242   4.645   2.604 -0.4076  0.4813  0.3752
  127DG      C2 2900   1.008   5.143   2.666  0.3368  0.2274 -0.4170
  127DG      H3 2901   0.203   4.556   2.653 -0.4533 -0.0083 -0.5299
  127DG      H4 2902   0.206   4.641   2.501  1.8436 -1.1683 -0.4208
  127DG      H5 2903   0.195   4.729   2.656 -3.5347 -2.7842  3.2988
  127DG      H6 2904   0.973   5.196   2.754  0.1199  1.4592 -1.2206
  127DG      H7 2905   1.117   5.141   2.675  0.4655  0.5005 -1.7126
  127DG      H8 2906   0.983   5.206   2.580  1.9888  2.4996  0.6812
  127DG      O9 2907   0.385   4.657   2.598  0.1172  0.0774  0.1095
  127DG     O10 2908   0.950   5.006   2.658  0.0625 -0.4762 -0.5695
  127DG     C11 2909   0.441   4.769   2.522 -0.1242 -0.0050  0.1277
  127DG     C12 2910   0.815   5.002   2.628 -0.4974  0.3795 -0.2052
  127DG     H13 2911   0.383   4.861   2.532  1.4974  1.3229 -1.8851
  127DG     H14 2912   0.418   4.752   2.417 -1.1347  2.7134 -0.1826
  127DG     H15 2913   0.813   4.986   2.520  2.2653 -3.8918  0.1190
  127DG     H16 2914   0.750   5.086   2.650  0.2747  0.6515  1.1319
  127DG     C17 2915   0.591   4.792   2.542 -0.0892 -0.2462  0.1391
  127DG     C18 2916   0.762   4.869   2.697 -0.3515  0.7794  0.0798
  127DG     O19 2917   0.624   4.847   2.670 -1.0661  0.0550  0.1171
  127DG     H20 2918   0.622   4.868   2.470  1.4442 -0.7361  0.2508
  127DG     H21 2919   0.649   4.700   2.543  0.1619 -0.1063 -0.9648
  127DG     H22 2920   0.834   4.787   2.683 -0.9226 -0.3273  2.8501
  127DG     H23 2921   0.766   4.879   2.806 -0.6545  1.5073  0.0261
  128DG      C1 2922   2.679   3.441   0.792  0.1096 -0.4621  0.4491
  128DG      C2 2923   2.184   2.921   0.748 -0.5914  0.6668  0.6801
  128DG      H3 2924   2.690   3.464   0.898 -1.2601  0.0514  0.5030
  128DG      H4 2925   2.730   3.513   0.728  0.7482 -1.6603 -0.4331
  128DG      H5 2926   2.728   3.344   0.783 -0.3452 -0.6002 -0.7233
  128DG      H6 2927   2.268   2.856   0.770 -0.5142  0.3723 -0.4194
  128DG      H7 2928   2.138   2.949   0.843 -2.6135 -0.4496  0.0899
  128DG      H8 2929   2.122   2.849   0.694  0.3449 -0.5375  1.1545
  128DG      O9 2930   2.546   3.445   0.764 -0.2190  0.5340  0.1073
  128DG     O10 2931   2.222   3.029   0.660  0.2211  0.5387 -0.2368
  128DG     C11 2932   2.508   3.343   0.667 -0.2922  0.0837  0.1121
  128DG     C12 2933   2.121   3.118   0.630 -0.3128 -0.2893 -0.5656
  128DG     H13 2934   2.539   3.243   0.694 -3.7034 -1.0594  0.1954
  128DG     H14 2935   2.551   3.365   0.569 -1.8093  1.6218 -0.2588
  128DG     H15 2936   2.095   3.167   0.724  1.7442 -0.3430  0.0920
  128DG     H16 2937   2.026   3.079   0.593 -0.2360  0.6260 -1.8050
  128DG     C17 2938   2.353   3.331   0.670 -0.2873  0.5685  0.4801
  128DG     C18 2939   2.177   3.224   0.533  0.1056  0.1908 -0.0049
  128DG     O19 2940   2.316   3.257   0.549  0.0159  0.1603  0.5324
  128DG     H20 2941   2.314   3.433   0.682 -3.1952 -0.1438 -1.6777
  128DG     H21 2942   2.331   3.277   0.761  0.4344 -0.6092 -0.0296
  128DG     H22 2943   2.178   3.187   0.431  2.4373  4.0857 -1.6426
  128DG     H23 2944   2.112   3.311   0.526 -0.6589 -0.3402  0.3056
  129DG      C1 2945   3.046   4.243   0.196 -0.2347 -0.1362  0.0694
  129DG      C2 2946   2.816   4.951   0.537 -0.1742  0.5912  0.8182
  129DG      H3 2947   3.146   4.255   0.237  0.1471  1.0771 -1.1716
  129DG      H4 2948   3.040   4.295   0.101  0.0065 -2.0150 -1.0193
  129DG      H5 2949   3.057   4.139   0.167 -0.5280 -0.7988  2.1278
  129DG      H6 2950   2.735   5.002   0.589 -2.3671 -1.9871  0.1069
  129DG      H7 2951   2.915   4.992   0.559  0.5676 -1.3163  1.2584
  129DG      H8 2952   2.784   4.957   0.434  0.1717 -3.4259  0.3289
  129DG      O9 2953   2.936   4.256   0.293 -0.2287  0.0347  0.3046
  129DG     O10 2954   2.824   4.814   0.558 -0.1829  0.1146  0.1601
  129DG     C11 2955   2.906   4.388   0.311 -0.5579 -0.1016 -0.0151
  129DG     C12 2956   2.696   4.745   0.544 -0.5203  0.3655  0.0322
  129DG     H13 2957   2.887   4.432   0.213  0.6866  0.6640  0.0573
  129DG     H14 2958   2.995   4.433   0.355 -0.6179 -0.2589  0.2679
  129DG     H15 2959   2.645   4.755   0.448 -1.6266  1.6429  0.7235
  129DG     H16 2960   2.634   4.762   0.633  1.7269 -2.6560  2.4029
  129DG     C17 2961   2.806   4.421   0.426 -0.2466  0.2754  0.0617
  129DG     C18 2962   2.727   4.597   0.557 -0.6701  0.0981  0.3223
  129DG     O19 2963   2.807   4.558   0.443  0.1414 -0.1405 -0.7043
  129DG     H20 2964   2.841   4.370   0.516  0.0847  1.1684  0.4444
  129DG     H21 2965   2.708   4.378   0.404  0.1509 -0.3153 -0.6043
  129DG     H22 2966   2.772   4.570   0.652  2.1937 -1.6160 -1.3628
  129DG     H23 2967   2.633   4.542   0.549 -2.1301  2.0900  2.5058
  130DG      C1 2968   0.794   2.016   3.251  0.0466 -0.1733  0.2664
  130DG      C2 2969   0.447   1.899   2.771 -0.4350  0.7572 -0.4022
  130DG      H3 2970   0.869   2.093   3.269 -0.4286  0.2239  0.5376
  130DG      H4 2971   0.844   1.934   3.198 -0.2307  0.3470 -0.8149
  130DG      H5 2972   0.764   1.992   3.353 -2.5425 -1.2864 -0.6828
  130DG      H6 2973   0.491   1.800   2.780  0.9555  1.4864  1.5263
  130DG      H7 2974   0.372   1.902   2.692 -1.7671 -1.4867  0.6730
  130DG      H8 2975   0.522   1.975   2.751  0.4868 -0.5786 -2.2185
  130DG      O9 2976   0.682   2.053   3.169 -0.7642 -0.2586  0.5004
  130DG     O10 2977   0.388   1.902   2.901 -0.0895  0.3994 -0.2843
  130DG     C11 2978   0.615   2.169   3.219  0.3293  0.3568  0.1195
  130DG     C12 2979   0.292   2.005   2.923 -0.2115 -0.3727 -0.2561
  130DG     H13 2980   0.688   2.246   3.245  1.1432 -0.7765  1.3297
  130DG     H14 2981   0.563   2.151   3.313  1.0091 -2.6289  0.0384
  130DG     H15 2982   0.220   1.970   2.998  0.5439  1.2362  1.2981
  130DG     H16 2983   0.230   2.005   2.834  0.2106 -1.5093 -0.5686
  130DG     C17 2984   0.520   2.215   3.107  0.3852  0.4691 -0.2863
  130DG     C18 2985   0.353   2.139   2.956  0.2884 -0.0434 -0.3770
  130DG     O19 2986   0.435   2.111   3.069 -0.3297 -0.0638  0.0539
  130DG     H20 2987   0.587   2.256   3.031  0.5117  0.4349 -0.1941
  130DG     H21 2988   0.458   2.299   3.135 -2.6484 -0.6306 -3.0772
  130DG     H22 2989   0.419   2.172   2.876  1.7188 -1.1569  0.3114
  130DG     H23 2990   0.279   2.219   2.964 -0.1222 -0.3408 -1.0300
  131DG      C1 2991   0.048   4.024   1.451  0.2699  0.2249 -0.6476
  131DG      C2 2992   0.241   3.277   1.276 -0.4912 -0.1974 -0.1157
  131DG      H3 2993  -0.008   4.010   1.543  0.8499  1.1630 -0.1327
  131DG      H4 2994  -0.003   4.108   1.403  0.2339 -0.6315 -2.1893
  131DG      H5 2995   0.153   4.044   1.473 -0.2611  1.3238  1.0312
  131DG      H6 2996   0.184   3.192   1.312 -1.0810  0.3185  0.1890
  131DG      H7 2997   0.305   3.238   1.197 -2.3865 -1.5313 -1.0661
  131DG      H8 2998   0.291   3.320   1.363 -1.3977  2.6194 -0.8852
  131DG      O9 2999   0.037   3.896   1.379  0.4099  0.9443  0.7874
  131DG     O10 3000   0.155   3.366   1.218 -0.4572 -0.2624 -0.1992
  131DG     C11 3001   0.077   3.905   1.241  0.1982 -0.3299  0.0339
  131DG     C12 3002   0.068   3.434   1.305 -0.3356  0.2454 -0.0215
  131DG     H13 3003   0.185   3.916   1.238  0.2027 -0.5632 -0.6080
  131DG     H14 3004   0.027   3.991   1.195 -0.6004 -0.8218 -0.0414
  131DG     H15 3005   0.123   3.464   1.395  0.3031  0.2009 -0.3940
  131DG     H16 3006  -0.012   3.370   1.343 -0.3037  0.8818  1.1528
  131DG     C17 3007   0.046   3.777   1.166 -0.0312 -0.0174  0.2001
  131DG     C18 3008   0.017   3.564   1.241  0.0626 -0.0401  0.5120
  131DG     O19 3009   0.109   3.667   1.234  0.2688 -0.5848  0.0832
  131DG     H20 3010   0.076   3.779   1.061 -0.6416 -2.3461 -0.0811
  131DG     H21 3011  -0.062   3.787   1.156 -0.0201  0.1294  0.2279
  131DG     H22 3012  -0.017   3.524   1.146 -0.2148  2.0394 -0.3160
  131DG     H23 3013  -0.078   3.587   1.290 -0.9218 -2.0805 -0.3325
  132DG      C1 3014   1.781   2.294   4.479  0.5054 -0.4197 -0.2503
  132DG      C2 3015   1.045   2.728   4.630 -0.1189 -0.5493  0.1312
  132DG      H3 3016   1.866   2.257   4.537 -0.4047  0.0504  1.4197
  132DG      H4 3017   1.796   2.402   4.476  0.9962 -0.4662 -3.5565
  132DG      H5 3018   1.799   2.271   4.374  2.2325 -0.3975  0.0035
  132DG      H6 3019   1.041   2.737   4.522  0.9926  1.0916  0.1835
  132DG      H7 3020   0.961   2.769   4.686 -0.7154 -0.6225 -0.7055
  132DG      H8 3021   1.131   2.789   4.660 -0.7714  1.3549 -1.6372
  132DG      O9 3022   1.667   2.240   4.538 -0.2016  0.5043 -0.6535
  132DG     O10 3023   1.080   2.602   4.672 -0.1997 -0.3785  0.1033
  132DG     C11 3024   1.545   2.282   4.488  0.0663  0.5221 -0.2281
  132DG     C12 3025   1.162   2.521   4.589 -0.8190  0.0983 -0.3974
  132DG     H13 3026   1.472   2.205   4.511  0.6337 -0.8262 -2.6045
  132DG     H14 3027   1.553   2.284   4.379 -0.1894  1.2831 -0.2424
  132DG     H15 3028   1.109   2.521   4.494 -2.0998 -0.7448  0.2853
  132DG     H16 3029   1.156   2.415   4.616  1.2693 -0.0530 -0.3302
  132DG     C17 3030   1.497   2.409   4.554  0.2222 -0.6845 -0.4739
  132DG     C18 3031   1.309   2.558   4.586  0.0007  0.1011 -0.3702
  132DG     O19 3032   1.365   2.448   4.519 -0.3732 -0.0036 -0.1820
  132DG     H20 3033   1.559   2.494   4.527 -2.0658  1.5512  0.9004
  132DG     H21 3034   1.502   2.407   4.663  1.8620 -0.1582 -0.5068
  132DG     H22 3035   1.323   2.652   4.532 -0.1986 -1.0724 -2.5737
  132DG     H23 3036   1.359   2.568   4.682  0.7239 -1.0979 -0.6072
  133DG      C1 3037   2.965   0.063   3.374  0.2170  0.0276  0.3283
  133DG      C2 3038   3.232  -0.209   2.874  0.3233  1.0217 -0.2488
  133DG      H3 3039   3.043   0.137   3.353  1.0952 -0.7904  0.6304
  133DG      H4 3040   3.027  -0.023   3.396  1.4472  0.7765 -0.0716
  133DG      H5 3041   2.893   0.088   3.452  1.4593  0.6602  1.3020
  133DG      H6 3042   3.251  -0.297   2.814  1.6359  2.0752 -1.4569
  133DG      H7 3043   3.174  -0.134   2.820 -1.8341  1.5683  2.5739
  133DG      H8 3044   3.329  -0.169   2.906 -0.1758  0.8163  1.6424
  133DG      O9 3045   2.893   0.030   3.260  0.1959 -0.2114 -0.4825
  133DG     O10 3046   3.169  -0.248   2.996  0.3904  0.2220  0.5465
  133DG     C11 3047   2.798  -0.076   3.272  0.4306 -0.0512  0.2441
  133DG     C12 3048   3.039  -0.313   2.975  0.0381 -0.5539  0.6694
  133DG     H13 3049   2.730  -0.057   3.188  1.7737  1.0931 -0.6327
  133DG     H14 3050   2.739  -0.066   3.363 -2.0173 -0.5609 -1.1753
  133DG     H15 3051   3.062  -0.414   2.941 -0.3737 -0.2964 -0.3844
  133DG     H16 3052   2.988  -0.253   2.900  0.6970  0.0098  0.6646
  133DG     C17 3053   2.872  -0.209   3.277  0.8765  0.5278  0.7832
  133DG     C18 3054   2.963  -0.340   3.101 -0.5415  0.4276 -0.5242
  133DG     O19 3055   2.946  -0.209   3.156 -0.0997  0.4026  0.0515
  133DG     H20 3056   2.793  -0.284   3.272 -0.6793  2.0897  0.9605
  133DG     H21 3057   2.933  -0.233   3.364 -0.5725 -1.3485  1.3529
  133DG     H22 3058   2.867  -0.380   3.068 -1.7099  1.4493  1.5000
  133DG     H23 3059   3.017  -0.408   3.168  0.3803  0.4705 -1.2009
  134DG      C1 3060   2.974   0.086   2.827  0.0696 -0.0951  0.2122
  134DG      C2 3061   3.501   0.120   2.882  0.1609 -0.0971  0.0880
  134DG      H3 3062   2.990   0.006   2.755 -0.0981 -2.4858  2.6811
  134DG      H4 3063   2.867   0.102   2.839 -0.4756 -2.2680 -1.2463
  134DG      H5 3064   3.009   0.034   2.916 -0.0923 -0.6442 -0.0370
  134DG      H6 3065   3.470   0.107   2.985  3.1111  1.4242  1.2897
  134DG      H7 3066   3.412   0.120   2.819  0.0349 -0.1136  0.2681
  134DG      H8 3067   3.560   0.031   2.864  0.3619  0.3524 -1.6863
  134DG      O9 3068   3.055   0.200   2.805  0.1414 -0.2333  0.0730
  134DG     O10 3069   3.575   0.245   2.865 -0.1481  0.0068 -1.0238
  134DG     C11 3070   3.107   0.266   2.917  0.6272  0.3554  1.1060
  134DG     C12 3071   3.522   0.378   2.879 -0.3466 -0.0416 -0.2267
  134DG     H13 3072   3.173   0.201   2.976  1.2050 -0.0049  0.0854
  134DG     H14 3073   3.032   0.297   2.990 -1.1728  1.5396 -1.1173
  134DG     H15 3074   3.605   0.449   2.875 -0.7219  0.4225  0.2741
  134DG     H16 3075   3.487   0.389   2.981 -0.1571 -1.3647 -0.0003
  134DG     C17 3076   3.194   0.386   2.875  0.5216 -0.2145 -0.4463
  134DG     C18 3077   3.408   0.421   2.780  0.5647  0.8244 -0.5665
  134DG     O19 3078   3.300   0.336   2.797 -0.1462  0.1412 -0.1719
  134DG     H20 3079   3.227   0.440   2.963 -0.2869 -0.2734 -0.0962
  134DG     H21 3080   3.126   0.452   2.820 -0.3612 -0.2262  0.6052
  134DG     H22 3081   3.369   0.521   2.799  1.2990  1.2559 -1.2571
  134DG     H23 3082   3.433   0.415   2.674 -0.7451 -1.0775 -0.8173
  135DG      C1 3083   0.769   5.431   2.513 -0.4361 -0.2743 -0.4304
  135DG      C2 3084   1.217   6.006   2.473 -0.8124  0.5118  0.6452
  135DG      H3 3085   0.778   5.327   2.482  0.3670  0.2294 -1.9352
  135DG      H4 3086   0.788   5.494   2.427 -2.5181  0.6963 -0.2593
  135DG      H5 3087   0.664   5.445   2.542 -0.0963 -0.2359  0.8418
  135DG      H6 3088   1.135   5.973   2.409  0.6993 -0.5935 -0.8365
  135DG      H7 3089   1.214   6.115   2.473 -0.2105  0.5506 -0.4356
  135DG      H8 3090   1.308   5.963   2.431 -0.2469 -0.7078  3.0098
  135DG      O9 3091   0.854   5.462   2.622  0.0791  0.1903  0.3073
  135DG     O10 3092   1.200   5.962   2.609  0.0333 -0.4307  0.4334
  135DG     C11 3093   0.801   5.530   2.730 -0.4760 -0.6226  0.3624
  135DG     C12 3094   1.171   5.826   2.634 -0.0986 -0.0107  0.1184
  135DG     H13 3095   0.830   5.472   2.818  0.6437  1.1615  1.2283
  135DG     H14 3096   0.693   5.519   2.731 -0.5727  0.2282  2.0123
  135DG     H15 3097   1.213   5.803   2.732  1.5155 -0.1651 -0.5943
  135DG     H16 3098   1.200   5.742   2.571  0.3030 -0.5170  0.9683
  135DG     C17 3099   0.845   5.678   2.718  0.2504  0.2264  0.1862
  135DG     C18 3100   1.019   5.826   2.655  0.3024 -0.0076 -0.3785
  135DG     O19 3101   0.975   5.689   2.660  0.5259  0.1896  0.4781
  135DG     H20 3102   0.839   5.721   2.817 -0.7251 -1.8843  1.1123
  135DG     H21 3103   0.773   5.730   2.654 -0.3315  0.3830  0.9609
  135DG     H22 3104   0.984   5.864   2.750  1.3531 -0.4293  0.1976
  135DG     H23 3105   0.955   5.866   2.576 -0.9339 -1.5612 -0.2257
  136DG      C1 3106   4.190   5.478   3.695 -0.2974  0.8243  0.1890
  136DG      C2 3107   3.455   5.621   3.760  0.2499  0.4726 -0.6769
  136DG      H3 3108   4.258   5.558   3.665  1.0323 -0.1243  0.6009
  136DG      H4 3109   4.247   5.386   3.686  0.2755  0.8862  2.4445
  136DG      H5 3110   4.159   5.486   3.800  1.3752 -0.5406  0.8224
  136DG      H6 3111   3.406   5.551   3.828  1.0224 -0.5261 -1.1343
  136DG      H7 3112   3.480   5.710   3.817 -2.8965 -0.3303  2.3400
  136DG      H8 3113   3.379   5.648   3.686  0.5457  0.2052 -1.0788
  136DG      O9 3114   4.076   5.456   3.607 -0.0300 -0.0741  0.2695
  136DG     O10 3115   3.568   5.553   3.714 -0.3824 -0.4802 -0.2280
  136DG     C11 3116   4.004   5.341   3.643  0.4515 -0.0567  0.0999
  136DG     C12 3117   3.534   5.438   3.641 -0.3091  0.3744 -0.2263
  136DG     H13 3118   3.964   5.347   3.744 -1.1446 -0.8270 -0.4635
  136DG     H14 3119   4.067   5.252   3.637  0.8498  0.1648  0.8930
  136DG     H15 3120   3.442   5.453   3.585 -0.4632 -1.9372 -0.6827
  136DG     H16 3121   3.524   5.349   3.703  0.9504 -0.5102 -1.2245
  136DG     C17 3122   3.873   5.320   3.560  0.3301  0.0736 -0.5241
  136DG     C18 3123   3.643   5.398   3.541 -0.3578  0.8918  0.5489
  136DG     O19 3124   3.767   5.408   3.609 -0.5776 -0.5180  0.1008
  136DG     H20 3125   3.853   5.213   3.564  2.8632 -0.4725 -0.8545
  136DG     H21 3126   3.886   5.344   3.454  0.0987  1.4590 -0.2542
  136DG     H22 3127   3.624   5.299   3.500  0.9828  0.7486  0.2065
  136DG     H23 3128   3.649   5.458   3.451 -1.5685  0.6419  0.2872
  137DG      C1 3129   0.940   4.879   4.365  0.0362  0.0222 -0.0551
  137DG      C2 3130   1.594   4.677   4.316  0.2243 -0.4947  0.0766
  137DG      H3 3131   0.870   4.958   4.336 -1.1064 -0.7648  0.5258
  137DG      H4 3132   0.947   4.854   4.471  2.8977 -1.3224 -0.4849
  137DG      H5 3133   0.932   4.792   4.301  1.3630 -1.2703  1.4617
  137DG      H6 3134   1.642   4.696   4.412 -0.6863 -0.0936  0.4683
  137DG      H7 3135   1.540   4.583   4.313  1.2074 -1.0480 -1.8876
  137DG      H8 3136   1.673   4.678   4.241  0.5972  1.1698  0.4494
  137DG      O9 3137   1.065   4.926   4.318  0.4167  0.7364 -0.0569
  137DG     O10 3138   1.499   4.791   4.288 -0.1096 -0.4388  0.6110
  137DG     C11 3139   1.100   5.052   4.370  0.5013 -0.3247  0.1813
  137DG     C12 3140   1.560   4.916   4.297 -0.1163  0.2542  0.0416
  137DG     H13 3141   1.107   5.041   4.478 -2.6236 -0.2780  0.4738
  137DG     H14 3142   1.019   5.120   4.343  1.2283 -0.8832 -4.1233
  137DG     H15 3143   1.652   4.931   4.241  1.0164 -1.4326  1.3083
  137DG     H16 3144   1.591   4.921   4.402 -1.0347 -0.9322  0.3993
  137DG     C17 3145   1.224   5.100   4.305 -0.5076  0.0933 -0.0817
  137DG     C18 3146   1.461   5.036   4.267 -0.4857 -0.3122 -0.4350
  137DG     O19 3147   1.329   5.000   4.307  0.1420  0.5535  0.7951
  137DG     H20 3148   1.255   5.193   4.352 -0.4941  0.2982 -0.4905
  137DG     H21 3149   1.201   5.127   4.202  1.2849  0.2532 -0.4673
  137DG     H22 3150   1.481   5.131   4.317 -1.2052  0.3296 -1.3186
  137DG     H23 3151   1.473   5.063   4.162  0.7273 -1.1315 -0.5160
  138DG      C1 3152   3.812   4.156   3.668 -0.1480 -0.0278  0.0302
  138DG      C2 3153   4.037   3.746   3.172 -0.0202  0.3968 -0.2616
  138DG      H3 3154   3.914   4.194   3.668 -0.6448  1.3806  0.7464
  138DG      H4 3155   3.786   4.175   3.772  0.1786  0.6642 -0.0073
  138DG      H5 3156   3.743   4.209   3.602 -0.1330  0.0725  0.0949
  138DG      H6 3157   4.131   3.715   3.217  0.0265  0.1788 -0.5048
  138DG      H7 3158   4.014   3.679   3.089 -0.6980  1.9151 -1.3528
  138DG      H8 3159   4.039   3.845   3.125 -1.2816 -0.2808 -1.8440
  138DG      O9 3160   3.821   4.019   3.635 -0.1094  0.7344 -0.2658
  138DG     O10 3161   3.949   3.735   3.279 -0.2919  0.0568 -0.4863
  138DG     C11 3162   3.695   3.958   3.629  0.1841 -0.3321  0.5472
  138DG     C12 3163   3.822   3.728   3.225 -0.2741  0.0671  0.2534
  138DG     H13 3164   3.629   4.027   3.578  0.5177  0.0082  0.5655
  138DG     H14 3165   3.650   3.945   3.728 -0.5654 -2.4196 -0.0097
  138DG     H15 3166   3.804   3.635   3.171 -1.8751 -0.7644  2.0993
  138DG     H16 3167   3.801   3.817   3.166 -0.1571  1.3137  2.0285
  138DG     C17 3168   3.698   3.822   3.556 -0.1220 -0.3363  0.2312
  138DG     C18 3169   3.727   3.739   3.341  0.9553 -0.6090 -0.2539
  138DG     O19 3170   3.759   3.852   3.422 -0.7879 -0.4367 -0.8870
  138DG     H20 3171   3.593   3.795   3.545  0.1167 -0.9342 -0.6571
  138DG     H21 3172   3.747   3.746   3.617  0.3501  1.7992  2.6577
  138DG     H22 3173   3.623   3.746   3.308  0.2246 -2.2036  1.5510
  138DG     H23 3174   3.732   3.649   3.401 -2.3406 -2.0437 -1.8717
  139DG      C1 3175   2.148   0.332   4.632 -0.0022 -0.2023  0.2208
  139DG      C2 3176   2.052  -0.057   5.191 -0.3532  0.2448  0.0515
  139DG      H3 3177   2.240   0.274   4.631 -0.1484 -0.6077 -3.4743
  139DG      H4 3178   2.154   0.405   4.713  1.0728  1.0565 -0.9737
  139DG      H5 3179   2.133   0.379   4.535 -0.6213 -0.1382  0.3388
  139DG      H6 3180   2.039  -0.004   5.285  2.4709  0.8512  0.1824
  139DG      H7 3181   1.994  -0.150   5.203  1.3549 -0.8390  0.2169
  139DG      H8 3182   2.159  -0.071   5.178 -0.6678 -2.3908 -0.4272
  139DG      O9 3183   2.038   0.250   4.671  0.7476  0.2188 -0.3661
  139DG     O10 3184   2.003   0.031   5.091 -0.3464  0.5203 -0.2018
  139DG     C11 3185   1.926   0.328   4.707 -0.6672  0.1212 -0.8596
  139DG     C12 3186   1.888   0.105   5.127 -0.1202 -0.1158 -0.1061
  139DG     H13 3187   1.887   0.370   4.614 -0.7698  0.1953 -0.7844
  139DG     H14 3188   1.948   0.422   4.759 -1.4232 -0.2983  0.2672
  139DG     H15 3189   1.926   0.204   5.151  1.7405 -0.2410 -2.2900
  139DG     H16 3190   1.833   0.048   5.203 -1.0000  0.5880 -0.2018
  139DG     C17 3191   1.834   0.243   4.791  0.4912  0.4897  0.2727
  139DG     C18 3192   1.808   0.118   4.995 -0.2355 -0.2985 -0.6776
  139DG     O19 3193   1.896   0.207   4.917  0.0665 -0.3571 -0.1058
  139DG     H20 3194   1.805   0.159   4.728  2.9114  1.7207 -2.7700
  139DG     H21 3195   1.747   0.304   4.815  0.4909  1.7647 -2.5665
  139DG     H22 3196   1.798   0.023   4.943  1.0512 -1.4528  1.0895
  139DG     H23 3197   1.714   0.172   5.008  1.3020  2.2536  0.7138
  140DG      C1 3198   1.983   4.760   2.946  0.2304 -0.2728 -0.1886
  140DG      C2 3199   1.764   5.254   3.286  0.2532  0.4060 -0.4133
  140DG      H3 3200   1.950   4.750   3.049 -0.9777  1.4984 -0.3640
  140DG      H4 3201   2.063   4.695   2.913  0.2657 -0.5887  0.5001
  140DG      H5 3202   1.897   4.750   2.879 -1.0237 -0.3427  1.3495
  140DG      H6 3203   1.805   5.348   3.247  1.8060 -0.3719 -0.7366
  140DG      H7 3204   1.665   5.241   3.241 -0.4648  2.0517  0.6015
  140DG      H8 3205   1.752   5.254   3.394 -0.0447  0.6424 -0.4445
  140DG      O9 3206   2.040   4.896   2.940  0.3410 -0.2169 -0.4286
  140DG     O10 3207   1.845   5.138   3.261 -0.7298 -0.4110  0.1828
  140DG     C11 3208   2.170   4.907   3.003 -0.9916  0.6340  1.1659
  140DG     C12 3209   1.957   5.142   3.345 -0.7221 -0.1523 -0.2898
  140DG     H13 3210   2.212   5.004   2.977  0.9207 -0.2932  0.5833
  140DG     H14 3211   2.245   4.841   2.959  0.1565  1.8148  1.2779
  140DG     H15 3212   1.923   5.147   3.448  0.3219 -1.9825  0.1898
  140DG     H16 3213   2.004   5.237   3.320  0.7010 -0.0413  2.4666
  140DG     C17 3214   2.158   4.902   3.159  0.2979 -0.4847  0.1145
  140DG     C18 3215   2.044   5.018   3.335  0.2707 -0.0895 -0.0246
  140DG     O19 3216   2.074   5.010   3.199 -0.0344 -0.3521 -0.0147
  140DG     H20 3217   2.253   4.892   3.212 -0.0818 -0.2423  0.8566
  140DG     H21 3218   2.111   4.807   3.185 -0.2705 -0.3796 -0.5116
  140DG     H22 3219   2.128   5.036   3.403  0.7124  0.2471 -0.6470
  140DG     H23 3220   1.980   4.936   3.367  1.5299 -0.9662  0.3413
  141DG      C1 3221   2.006   3.062   4.677 -0.3073 -0.0559  0.3087
  141DG      C2 3222   2.195   2.993   5.436  0.7562 -0.2948 -0.5180
  141DG      H3 3223   1.992   3.170   4.671 -1.8077 -0.2561 -0.4345
  141DG      H4 3224   1.908   3.015   4.662 -0.0659  0.1208 -2.3341
  141DG      H5 3225   2.065   3.033   4.590  0.2181  1.5991  0.0832
  141DG      H6 3226   2.239   2.921   5.504  0.3718  0.5270  0.6384
  141DG      H7 3227   2.235   3.094   5.450 -0.9493  0.2107  1.2401
  141DG      H8 3228   2.087   2.997   5.446  0.9230 -1.6766  3.5197
  141DG      O9 3229   2.089   3.037   4.785 -0.0754  0.4559 -0.3593
  141DG     O10 3230   2.245   2.969   5.308  0.4792  0.1780 -0.0015
  141DG     C11 3231   2.085   2.895   4.809 -0.2572 -0.5177  0.0755
  141DG     C12 3232   2.236   2.833   5.258 -0.4516 -0.4345 -1.2532
  141DG     H13 3233   2.089   2.845   4.712 -2.4290 -2.7518  1.0344
  141DG     H14 3234   1.986   2.880   4.854 -0.4021  4.6570  2.2194
  141DG     H15 3235   2.130   2.809   5.269 -0.4767  0.4754  1.1564
  141DG     H16 3236   2.293   2.774   5.330 -0.5612  2.7626  1.7320
  141DG     C17 3237   2.191   2.830   4.898  0.5207 -0.4850  0.1145
  141DG     C18 3238   2.285   2.822   5.114 -0.6249 -0.0506  0.1398
  141DG     O19 3239   2.183   2.877   5.029 -0.1107  0.1434 -0.1064
  141DG     H20 3240   2.292   2.846   4.862  0.5661 -2.6997 -0.8511
  141DG     H21 3241   2.175   2.723   4.887  3.5244 -0.7834 -2.7356
  141DG     H22 3242   2.379   2.874   5.093 -0.2308 -0.1612  1.5444
  141DG     H23 3243   2.308   2.717   5.091  1.0348 -0.0299  1.4981
  142DG      C1 3244   3.356   1.849   3.506  0.7431 -0.7788  0.0644
  142DG      C2 3245   3.768   2.011   2.840 -0.4288  0.7692 -0.0595
  142DG      H3 3246   3.404   1.898   3.591  1.3442 -1.1918 -0.0326
  142DG      H4 3247   3.286   1.771   3.538 -1.8173  1.9583  1.7150
  142DG      H5 3248   3.304   1.907   3.430  1.6028  1.5081  1.1318
  142DG      H6 3249   3.699   2.009   2.755 -0.6813 -1.7325  0.1473
  142DG      H7 3250   3.760   2.113   2.880  0.2564  0.3169  1.2680
  142DG      H8 3251   3.871   1.995   2.809 -0.2764  0.6681  0.5003
  142DG      O9 3252   3.469   1.792   3.439  0.1235  0.5579 -0.3184
  142DG     O10 3253   3.711   1.917   2.935  0.4039  0.1443 -0.4204
  142DG     C11 3254   3.443   1.710   3.325  0.2486  0.3292  0.3630
  142DG     C12 3255   3.802   1.879   3.035 -0.2381 -0.2491 -0.0631
  142DG     H13 3256   3.393   1.765   3.245  1.6631  0.4204 -0.4871
  142DG     H14 3257   3.379   1.626   3.352  2.4999 -0.8757  2.2681
  142DG     H15 3258   3.817   1.966   3.099  1.9733 -1.0093  0.5404
  142DG     H16 3259   3.898   1.850   2.993 -0.2008 -0.9233  0.4598
  142DG     C17 3260   3.573   1.664   3.258  0.3995  0.1210 -0.8114
  142DG     C18 3261   3.748   1.758   3.113  0.0544  0.4218  0.1511
  142DG     O19 3262   3.630   1.780   3.188  0.3667  0.7802  0.2792
  142DG     H20 3263   3.549   1.572   3.204 -0.0250 -0.0378 -0.3599
  142DG     H21 3264   3.644   1.622   3.328  0.3796 -2.2299 -2.0709
  142DG     H22 3265   3.729   1.670   3.051  1.7753 -1.1846  1.7822
  142DG     H23 3266   3.830   1.735   3.181  1.1111  0.3760 -1.0960
  143DG      C1 3267   1.487   3.452   0.952 -0.2840  0.4608 -0.0931
  143DG      C2 3268   1.764   3.440   0.367 -0.2751 -0.1371  0.0618
  143DG      H3 3269   1.452   3.375   0.882  2.2416 -0.4933 -0.4225
  143DG      H4 3270   1.405   3.468   1.022  1.0028 -0.7477  1.7866
  143DG      H5 3271   1.569   3.408   1.009 -0.2066  0.5314 -0.1483
  143DG      H6 3272   1.813   3.356   0.416  0.6592  1.2061  1.5161
  143DG      H7 3273   1.733   3.400   0.270  1.1964 -0.4845 -0.2887
  143DG      H8 3274   1.847   3.507   0.345  0.5043 -0.4902  1.8069
  143DG      O9 3275   1.549   3.557   0.870 -0.7642 -0.1380 -0.1787
  143DG     O10 3276   1.657   3.502   0.442 -0.5138  0.4043 -0.1631
  143DG     C11 3277   1.452   3.622   0.797  0.1253 -0.6757  0.1461
  143DG     C12 3278   1.630   3.631   0.395  0.3508 -0.1388  0.6686
  143DG     H13 3279   1.375   3.658   0.865  1.7569 -1.0372  2.2973
  143DG     H14 3280   1.392   3.559   0.731 -0.5857 -1.1404  1.2171
  143DG     H15 3281   1.594   3.622   0.293 -1.6328 -2.9559  1.5067
  143DG     H16 3282   1.719   3.694   0.387  0.2274 -0.1305 -1.0623
  143DG     C17 3283   1.510   3.746   0.719 -0.6699 -0.5890 -0.8763
  143DG     C18 3284   1.532   3.690   0.491  0.5863 -0.8618  0.0295
  143DG     O19 3285   1.594   3.695   0.618 -0.4112 -0.3521 -0.4272
  143DG     H20 3286   1.584   3.803   0.776 -0.0224  2.0577 -4.0590
  143DG     H21 3287   1.436   3.822   0.695  0.5245  0.6930 -0.6656
  143DG     H22 3288   1.495   3.788   0.460  0.1673 -1.6809 -2.2195
  143DG     H23 3289   1.446   3.624   0.502 -3.1162  2.8881 -3.2075
  144DG      C1 3290   1.057   2.503   3.178  0.0810  0.1757 -0.5290
  144DG      C2 3291   1.457   2.753   2.638  0.1363 -0.7496 -0.6135
  144DG      H3 3292   1.093   2.525   3.279 -0.7587  0.1675 -0.2176
  144DG      H4 3293   1.086   2.400   3.158 -1.5188 -0.3878 -0.1323
  144DG      H5 3294   0.948   2.500   3.185  0.0982  0.1031 -0.2420
  144DG      H6 3295   1.520   2.833   2.598 -1.3663  1.2950  0.9051
  144DG      H7 3296   1.522   2.667   2.651 -0.7608 -1.3031  0.4132
  144DG      H8 3297   1.387   2.736   2.556  0.3209  0.6821 -1.1126
  144DG      O9 3298   1.104   2.601   3.089  0.2434 -0.2575  0.1042
  144DG     O10 3299   1.396   2.783   2.755  0.3203  0.0221 -0.0004
  144DG     C11 3300   1.083   2.733   3.136 -0.6884  0.2372  0.2113
  144DG     C12 3301   1.466   2.830   2.865  0.2281 -0.2898 -0.5333
  144DG     H13 3302   1.126   2.745   3.235 -0.6731  0.1792  0.2120
  144DG     H14 3303   0.978   2.757   3.146 -0.6985  1.0111 -1.4702
  144DG     H15 3304   1.541   2.900   2.830  0.0934 -0.6363 -1.5346
  144DG     H16 3305   1.504   2.747   2.925  0.9242  0.2537 -0.1980
  144DG     C17 3306   1.147   2.837   3.042 -0.0393 -0.6044  0.2830
  144DG     C18 3307   1.367   2.897   2.963  0.3480 -0.8579  0.3160
  144DG     O19 3308   1.276   2.793   2.999 -0.3178 -0.2753 -0.4854
  144DG     H20 3309   1.157   2.936   3.086 -0.1866  0.0730 -1.1839
  144DG     H21 3310   1.093   2.851   2.949 -0.1634 -0.3509  0.3933
  144DG     H22 3311   1.406   2.957   3.045  1.9765  0.3113 -1.2510
  144DG     H23 3312   1.320   2.969   2.897 -0.0024 -0.5094  0.9330
  145DG      C1 3313   5.281   0.597   4.428  0.1882  0.3221 -0.0675
  145DG      C2 3314   5.461   1.061   4.855  0.7202 -0.6148  0.5304
  145DG      H3 3315   5.362   0.524   4.428 -0.3181 -0.2466  0.8785
  145DG      H4 3316   5.214   0.588   4.342  0.2438 -1.9309  0.0712
  145DG      H5 3317   5.229   0.594   4.524 -0.5755 -5.7829 -0.2933
  145DG      H6 3318   5.411   1.049   4.952  2.9160  1.7251  2.0923
  145DG      H7 3319   5.438   0.964   4.810 -1.3231 -0.5807  1.3601
  145DG      H8 3320   5.567   1.081   4.868  0.7692  0.3202 -1.1545
  145DG      O9 3321   5.327   0.733   4.419  0.1387 -0.3289  0.5434
  145DG     O10 3322   5.393   1.162   4.783 -0.5564 -0.2261 -0.5313
  145DG     C11 3323   5.433   0.754   4.504  0.3125  0.1462  0.6007
  145DG     C12 3324   5.448   1.190   4.655  0.4256 -0.1323 -0.5793
  145DG     H13 3325   5.518   0.690   4.482 -1.0410 -0.9384 -1.9726
  145DG     H14 3326   5.407   0.744   4.609 -1.2653  0.2061  0.2517
  145DG     H15 3327   5.555   1.170   4.647  0.4106 -1.3668  1.4512
  145DG     H16 3328   5.416   1.291   4.630 -3.3664 -0.8754  0.6602
  145DG     C17 3329   5.467   0.901   4.495  0.1779 -0.2332 -0.1544
  145DG     C18 3330   5.386   1.119   4.539  0.1739 -0.1143 -0.4270
  145DG     O19 3331   5.369   0.978   4.557  0.1239  0.1696  0.4390
  145DG     H20 3332   5.472   0.941   4.394 -0.6032  0.6643  0.1456
  145DG     H21 3333   5.560   0.912   4.550  0.6467 -2.1991 -0.4684
  145DG     H22 3334   5.286   1.159   4.518 -1.1910 -2.0277  1.9797
  145DG     H23 3335   5.440   1.135   4.445  0.3192  2.2079 -0.0022
  146DG      C1 3336   0.106   4.369   2.258  1.0261  0.2323 -0.2426
  146DG      C2 3337  -0.389   4.712   2.063 -0.0504  0.3679  0.0063
  146DG      H3 3338   0.164   4.291   2.208 -1.1967  0.4302 -3.4490
  146DG      H4 3339   0.019   4.307   2.278  1.7116 -0.2632  1.3683
  146DG      H5 3340   0.152   4.399   2.352  1.5265  0.9861 -0.7162
  146DG      H6 3341  -0.324   4.677   1.982 -0.9880 -0.9371 -0.2147
  146DG      H7 3342  -0.452   4.629   2.096 -0.8091  0.9064 -0.0657
  146DG      H8 3343  -0.443   4.798   2.023  1.7955  1.5044 -0.1679
  146DG      O9 3344   0.072   4.481   2.181  0.5297  0.3582 -0.1256
  146DG     O10 3345  -0.307   4.751   2.174  0.3127 -0.1141  0.2260
  146DG     C11 3346   0.041   4.436   2.053 -0.3843  0.1194  0.3710
  146DG     C12 3347  -0.196   4.832   2.137 -1.8249 -0.1410 -0.6026
  146DG     H13 3348  -0.042   4.366   2.051 -1.2912  1.1847 -1.0326
  146DG     H14 3349   0.121   4.374   2.013 -0.4185 -1.8393  3.0358
  146DG     H15 3350  -0.178   4.904   2.217 -0.2305 -1.4769  0.3098
  146DG     H16 3351  -0.223   4.893   2.050 -1.5092  0.9053  0.0130
  146DG     C17 3352   0.015   4.566   1.977  0.5101 -0.0609  0.3798
  146DG     C18 3353  -0.062   4.751   2.105 -0.7947 -0.1685 -0.4085
  146DG     O19 3354  -0.096   4.651   2.013  0.0549 -0.1273  0.2640
  146DG     H20 3355   0.001   4.527   1.876  1.5823  0.9766 -0.1946
  146DG     H21 3356   0.108   4.622   1.971  0.1710  0.7596  2.1821
  146DG     H22 3357   0.018   4.808   2.058 -1.2047  0.5880 -0.2172
  146DG     H23 3358  -0.021   4.718   2.201 -0.2866  1.9682  0.1607
  147DG      C1 3359   3.539   4.283   2.989 -0.6503 -0.1151  0.3537
  147DG      C2 3360   3.620   4.238   2.161 -0.0012 -0.2030  0.2995
  147DG      H3 3361   3.470   4.354   3.034 -1.7396 -0.2504 -0.9990
  147DG      H4 3362   3.624   4.267   3.055 -0.2367 -0.7937 -0.3164
  147DG      H5 3363   3.486   4.188   2.984  1.6964 -1.6074  1.9482
  147DG      H6 3364   3.562   4.156   2.120 -0.9650  1.7514 -2.5616
  147DG      H7 3365   3.598   4.332   2.110  0.0474 -0.2119  0.2626
  147DG      H8 3366   3.726   4.219   2.144  0.2393  1.4242 -0.1813
  147DG      O9 3367   3.577   4.333   2.863 -0.7256 -0.1586  0.9171
  147DG     O10 3368   3.612   4.255   2.298  0.0126  0.1285  0.3896
  147DG     C11 3369   3.639   4.238   2.771 -0.4659  0.2204 -0.1692
  147DG     C12 3370   3.479   4.295   2.336  0.0765 -0.0018 -0.4045
  147DG     H13 3371   3.593   4.139   2.767 -1.0795  0.4626  0.7466
  147DG     H14 3372   3.741   4.232   2.809 -0.0257  0.9497 -1.1769
  147DG     H15 3373   3.408   4.212   2.328 -0.1717  0.0473  1.0229
  147DG     H16 3374   3.444   4.384   2.283  0.0942  0.2586  0.0118
  147DG     C17 3375   3.635   4.292   2.628  0.3994 -1.0515  0.5425
  147DG     C18 3376   3.465   4.353   2.474 -0.0321 -0.7142  0.1720
  147DG     O19 3377   3.504   4.270   2.577  0.2891 -0.0168 -0.5020
  147DG     H20 3378   3.700   4.237   2.560  2.0950  2.5582 -1.0226
  147DG     H21 3379   3.667   4.395   2.617 -2.0170 -0.2088  0.8466
  147DG     H22 3380   3.513   4.449   2.492 -0.4082 -0.6450  0.8553
  147DG     H23 3381   3.358   4.370   2.488  0.1509  2.1558 -1.0906
  148DG      C1 3382   3.765   1.517   0.990  0.8047 -0.2811  0.2058
  148DG      C2 3383   4.083   1.462   1.602  0.0467  0.0370 -0.9811
  148DG      H3 3384   3.703   1.573   0.919 -0.7881  1.8959  3.1019
  148DG      H4 3385   3.694   1.460   1.049  1.2307  0.6187  1.6247
  148DG      H5 3386   3.835   1.446   0.945  0.1432 -0.6193 -0.3214
  148DG      H6 3387   4.035   1.449   1.699  0.4500 -1.5721 -0.9674
  148DG      H7 3388   4.079   1.370   1.545 -0.4984  0.2186 -1.2460
  148DG      H8 3389   4.187   1.478   1.630 -0.5322  2.4210  0.0966
  148DG      O9 3390   3.832   1.610   1.072  0.5182 -0.0264 -0.4702
  148DG     O10 3391   4.048   1.582   1.524  0.1342  0.2694  0.3298
  148DG     C11 3392   3.927   1.681   1.001 -0.8493  0.2247 -0.1781
  148DG     C12 3393   4.104   1.590   1.395 -0.0086  0.1919  1.1646
  148DG     H13 3394   3.884   1.742   0.922  0.9582  0.8069 -0.7656
  148DG     H14 3395   3.993   1.611   0.951  0.8603  1.8892 -0.3729
  148DG     H15 3396   4.087   1.498   1.338  1.6521  0.6756 -0.2284
  148DG     H16 3397   4.213   1.593   1.394  0.0339  0.4218 -1.3573
  148DG     C17 3398   4.016   1.774   1.084 -0.0427 -0.5085 -0.1999
  148DG     C18 3399   4.034   1.700   1.314 -0.5738 -0.0735 -0.2423
  148DG     O19 3400   4.085   1.690   1.176  0.9086  0.3747 -0.3033
  148DG     H20 3401   3.962   1.856   1.131  2.8239  0.0780  2.3606
  148DG     H21 3402   4.091   1.817   1.018 -0.4750 -0.0641 -0.4121
  148DG     H22 3403   3.927   1.687   1.326 -0.4417 -0.3951  0.7669
  148DG     H23 3404   4.058   1.796   1.360 -0.7291 -0.5019  0.7666
  149DG      C1 3405   3.343   2.562   2.521  0.6053  0.2173 -0.0802
  149DG      C2 3406   3.710   1.861   2.427 -0.4230  0.5718 -0.1024
  149DG      H3 3407   3.386   2.627   2.445 -2.5171  1.2210 -1.1530
  149DG      H4 3408   3.403   2.571   2.612  0.9148  1.2231 -0.3691
  149DG      H5 3409   3.246   2.602   2.550  0.9595  0.7236  0.4078
  149DG      H6 3410   3.728   1.756   2.404 -1.1664  0.2446  0.7113
  149DG      H7 3411   3.799   1.921   2.410 -0.4183  0.7455  0.4924
  149DG      H8 3412   3.714   1.871   2.536  2.2101  2.9926 -0.2862
  149DG      O9 3413   3.346   2.424   2.479  0.7272  0.3341  0.0726
  149DG     O10 3414   3.593   1.907   2.359  0.4268  0.4728  0.4233
  149DG     C11 3415   3.260   2.402   2.364  0.3160 -1.1019 -0.3776
  149DG     C12 3416   3.548   2.035   2.387 -0.0297 -0.1148 -0.3433
  149DG     H13 3417   3.282   2.470   2.282 -1.0058  1.4617  1.2808
  149DG     H14 3418   3.156   2.426   2.387  0.8314 -1.2357  2.3764
  149DG     H15 3419   3.632   2.096   2.352  1.2093 -0.4837  1.7988
  149DG     H16 3420   3.530   2.048   2.494 -4.0500 -0.1936 -0.8610
  149DG     C17 3421   3.271   2.257   2.317 -0.4586  0.0796 -0.4533
  149DG     C18 3422   3.424   2.080   2.308  0.0227 -0.2427 -0.6324
  149DG     O19 3423   3.400   2.214   2.350 -0.1722 -0.1965 -0.0169
  149DG     H20 3424   3.238   2.243   2.214 -0.6513 -0.7637 -0.2849
  149DG     H21 3425   3.211   2.196   2.384 -0.5659  0.4087 -0.2464
  149DG     H22 3426   3.438   2.080   2.200  0.5052  0.8242 -0.5773
  149DG     H23 3427   3.341   2.011   2.324  0.8048 -1.4062 -1.4743
  150DG      C1 3428   1.572   0.509   3.523 -0.3360 -0.5061 -0.0784
  150DG      C2 3429   0.867   0.145   3.539  0.5179 -0.0929  0.2298
  150DG      H3 3430   1.681   0.499   3.528 -0.4000 -0.7946  0.9127
  150DG      H4 3431   1.570   0.617   3.532 -0.5944 -0.5527  0.4152
  150DG      H5 3432   1.536   0.472   3.427 -1.7358  0.0990  0.1928
  150DG      H6 3433   0.855   0.253   3.535  0.5270 -0.1085 -3.0502
  150DG      H7 3434   0.842   0.101   3.442 -0.0872  1.5901 -0.4188
  150DG      H8 3435   0.797   0.100   3.610 -0.6170  2.3978  0.7979
  150DG      O9 3436   1.489   0.438   3.620  0.3368 -0.2908 -0.1992
  150DG     O10 3437   0.997   0.112   3.578  0.2875 -0.0286 -0.4827
  150DG     C11 3438   1.508   0.297   3.602  0.4206 -0.7606 -0.4036
  150DG     C12 3439   1.036   0.192   3.691 -0.2287  0.0185  0.5533
  150DG     H13 3440   1.606   0.267   3.640  0.1298  0.4409  1.4490
  150DG     H14 3441   1.487   0.261   3.501 -1.5730 -0.9476  0.0319
  150DG     H15 3442   0.967   0.169   3.772 -1.2147  1.5995  0.1944
  150DG     H16 3443   1.030   0.300   3.677 -0.4354  0.1689  1.7254
  150DG     C17 3444   1.414   0.227   3.701 -0.7541 -0.3336 -0.4678
  150DG     C18 3445   1.181   0.178   3.749 -0.2636  0.0230  0.1358
  150DG     O19 3446   1.283   0.223   3.658 -0.6440  0.0233 -0.0028
  150DG     H20 3447   1.412   0.275   3.799  0.3220 -2.2852  0.5687
  150DG     H21 3448   1.453   0.125   3.694 -0.8101 -0.5067  1.3008
  150DG     H22 3449   1.189   0.238   3.839  1.9830  1.0550 -0.6733
  150DG     H23 3450   1.190   0.073   3.777 -2.1742  0.0354  0.9233
  151DG      C1 3451   0.675   4.849   4.628  0.4281  0.1693 -0.3166
  151DG      C2 3452   0.281   4.499   4.150  0.2570 -0.4053 -0.1579
  151DG      H3 3453   0.716   4.748   4.631  0.9976  0.3412 -1.4715
  151DG      H4 3454   0.630   4.872   4.725  0.0022  1.5779 -0.8255
  151DG      H5 3455   0.754   4.921   4.608  0.7807  0.0283  0.5011
  151DG      H6 3456   0.178   4.489   4.113 -0.0892  2.0128 -0.0223
  151DG      H7 3457   0.341   4.537   4.067 -0.2991 -1.4104 -1.0592
  151DG      H8 3458   0.322   4.402   4.176  0.3980 -0.4128 -0.4091
  151DG      O9 3459   0.570   4.847   4.526 -0.0198  0.0272 -0.2017
  151DG     O10 3460   0.280   4.593   4.261 -0.3284  0.8238  0.0942
  151DG     C11 3461   0.517   4.972   4.494  0.0708 -0.5711 -0.5128
  151DG     C12 3462   0.243   4.714   4.207 -0.1746 -0.2401  0.0278
  151DG     H13 3463   0.572   5.011   4.409  1.5587 -0.0729  0.6321
  151DG     H14 3464   0.524   5.046   4.574  2.5360  0.2881 -1.4170
  151DG     H15 3465   0.151   4.713   4.148  0.6742 -2.2921 -1.3556
  151DG     H16 3466   0.323   4.758   4.147  0.9684 -0.6721  1.1894
  151DG     C17 3467   0.364   4.954   4.465  0.0254 -0.3052  0.0077
  151DG     C18 3468   0.225   4.805   4.330  0.0038  0.3499  0.4933
  151DG     O19 3469   0.346   4.880   4.341  0.5181  0.2042  0.0004
  151DG     H20 3470   0.321   5.054   4.462  2.3162  0.7959  1.0174
  151DG     H21 3471   0.316   4.898   4.546  0.6312 -2.3575 -0.9750
  151DG     H22 3472   0.133   4.864   4.330 -2.5856 -3.1919 -2.5888
  151DG     H23 3473   0.197   4.746   4.416 -3.8858  1.2802  0.0398
  152DG      C1 3474   3.126   0.800   2.191 -0.5230 -0.2843  1.3199
  152DG      C2 3475   2.651   0.394   2.540 -0.6888 -0.1931 -0.0313
  152DG      H3 3476   3.230   0.829   2.175 -1.5881  2.0616 -3.0200
  152DG      H4 3477   3.069   0.893   2.181  0.4710  0.0624 -2.7583
  152DG      H5 3478   3.101   0.738   2.105 -1.3738  1.3735  0.3069
  152DG      H6 3479   2.663   0.316   2.465  2.1385  2.0049 -2.0889
  152DG      H7 3480   2.660   0.347   2.639 -0.2318 -3.5286 -1.5141
  152DG      H8 3481   2.558   0.449   2.529 -1.1564 -0.8576  0.5352
  152DG      O9 3482   3.112   0.722   2.307 -0.1219  0.8259 -0.5120
  152DG     O10 3483   2.758   0.482   2.523  0.3737 -0.3537 -0.1634
  152DG     C11 3484   3.129   0.803   2.429 -0.0908  0.8127 -0.0687
  152DG     C12 3485   2.748   0.595   2.607 -0.2463  0.1281  0.3128
  152DG     H13 3486   3.074   0.894   2.408 -0.9520 -0.0453 -1.7409
  152DG     H14 3487   3.235   0.823   2.443  0.3949 -1.7823  0.3954
  152DG     H15 3488   2.707   0.570   2.705 -0.6013  1.2005  0.4476
  152DG     H16 3489   2.694   0.674   2.555  0.2527  0.0190 -0.3762
  152DG     C17 3490   3.079   0.742   2.554 -1.1224  0.3066 -0.3338
  152DG     C18 3491   2.888   0.652   2.639 -0.2029 -0.5200 -0.7924
  152DG     O19 3492   2.952   0.691   2.524  0.7634  0.0527  0.4129
  152DG     H20 3493   3.093   0.809   2.639 -0.7750 -0.7738  0.4851
  152DG     H21 3494   3.146   0.657   2.567 -0.6249  1.0220  2.2207
  152DG     H22 3495   2.879   0.736   2.709  0.2655  0.9683 -2.4520
  152DG     H23 3496   2.952   0.584   2.695  0.5747  2.0418  1.6919
  153DG      C1 3497   3.628   1.535   1.686  0.2439  0.6007 -0.3001
  153DG      C2 3498   3.266   1.055   1.447  0.3517  0.4836 -0.4904
  153DG      H3 3499   3.556   1.539   1.767 -2.5570  0.5327 -2.6427
  153DG      H4 3500   3.687   1.627   1.683 -1.3203  1.6726  0.5406
  153DG      H5 3501   3.693   1.447   1.694  0.2041  0.6074  0.1196
  153DG      H6 3502   3.174   1.040   1.392  0.8060  0.6206 -1.3030
  153DG      H7 3503   3.332   0.977   1.410  0.2533  1.0018 -1.8241
  153DG      H8 3504   3.229   1.033   1.547 -2.4886 -2.0623 -1.9372
  153DG      O9 3505   3.553   1.533   1.562  0.5037 -0.2239 -0.0753
  153DG     O10 3506   3.314   1.183   1.411 -0.1391  0.2507  0.0963
  153DG     C11 3507   3.631   1.522   1.448  0.9715  0.2520 -0.1294
  153DG     C12 3508   3.348   1.190   1.272 -0.2666 -0.5567 -0.1773
  153DG     H13 3509   3.692   1.432   1.450 -0.7934 -1.0229 -0.9523
  153DG     H14 3510   3.701   1.606   1.442  2.3370 -0.7534  1.1497
  153DG     H15 3511   3.258   1.185   1.212 -1.0839 -1.3949  1.0575
  153DG     H16 3512   3.426   1.114   1.265  0.5336  0.1119  0.9254
  153DG     C17 3513   3.544   1.508   1.327  0.0049 -0.6493  0.3121
  153DG     C18 3514   3.416   1.325   1.233 -0.7598 -0.2054 -0.4836
  153DG     O19 3515   3.476   1.383   1.348  0.1552  0.6796 -0.2740
  153DG     H20 3516   3.607   1.503   1.238  0.1469 -0.0413  0.3765
  153DG     H21 3517   3.476   1.590   1.308 -0.7013 -1.3893 -0.4710
  153DG     H22 3518   3.492   1.307   1.157  0.4011  3.2220 -0.3161
  153DG     H23 3519   3.347   1.400   1.194  0.0678  1.1717  0.5855
  154DG      C1 3520   3.718   4.600   2.889  0.1951 -0.6042  0.2281
  154DG      C2 3521   3.312   5.025   2.480  0.0824 -0.1431  0.5066
  154DG      H3 3522   3.781   4.683   2.922 -0.2101  0.3797 -1.3581
  154DG      H4 3523   3.781   4.512   2.898 -0.1820 -0.7654  1.4577
  154DG      H5 3524   3.629   4.587   2.950 -0.9513 -1.7219 -1.6276
  154DG      H6 3525   3.223   4.999   2.537  1.5726 -1.1876  2.4838
  154DG      H7 3526   3.350   5.119   2.520  0.8947  0.4918 -1.5929
  154DG      H8 3527   3.279   5.050   2.379 -2.7244 -0.5050  1.2569
  154DG      O9 3528   3.674   4.613   2.751 -0.0159 -0.1420  0.1846
  154DG     O10 3529   3.401   4.914   2.492 -0.0707  0.1831  0.2048
  154DG     C11 3530   3.780   4.644   2.675  0.4686 -0.0278  0.2965
  154DG     C12 3531   3.519   4.938   2.412  0.2413 -0.8537 -0.8256
  154DG     H13 3532   3.855   4.564   2.678  0.2269 -0.2195  2.3833
  154DG     H14 3533   3.837   4.725   2.722 -1.3377  0.5456  1.5837
  154DG     H15 3534   3.573   5.027   2.444  0.5198 -1.3530  0.1266
  154DG     H16 3535   3.490   4.966   2.310 -1.0648  1.9032  0.1983
  154DG     C17 3536   3.741   4.668   2.529  0.4692 -0.0322 -0.0750
  154DG     C18 3537   3.607   4.815   2.392  0.2695 -0.5918 -0.0670
  154DG     O19 3538   3.636   4.764   2.522  0.1694 -0.1733 -0.2360
  154DG     H20 3539   3.708   4.585   2.466 -0.6855  0.9271 -0.7851
  154DG     H21 3540   3.830   4.703   2.476  2.0429 -0.6221  2.0458
  154DG     H22 3541   3.559   4.738   2.331  1.0010 -1.5951  0.5959
  154DG     H23 3542   3.691   4.861   2.339  0.9944 -0.3350  1.2836
  155DG      C1 3543   3.339   1.012   0.957 -0.3166 -0.1641  0.4257
  155DG      C2 3544   2.870   0.463   1.159 -0.1911  0.5239  0.0964
  155DG      H3 3545   3.437   0.972   0.932 -0.0108  1.6435 -1.5019
  155DG      H4 3546   3.347   1.118   0.932  3.0779 -0.6790 -1.2683
  155DG      H5 3547   3.278   0.960   0.883  1.9622 -0.5986 -1.2658
  155DG      H6 3548   2.856   0.461   1.267 -0.7672  0.5328  0.0247
  155DG      H7 3549   2.804   0.547   1.135 -0.2230  0.4556 -0.0505
  155DG      H8 3550   2.860   0.369   1.105  4.3075  0.2409 -0.6152
  155DG      O9 3551   3.313   0.972   1.094  0.1093  0.7523  0.0752
  155DG     O10 3552   3.004   0.489   1.139  0.1205 -0.5292 -0.2965
  155DG     C11 3553   3.357   0.837   1.119 -0.0263  0.1719 -0.2521
  155DG     C12 3554   3.074   0.591   1.219  0.6020  0.6203  0.1732
  155DG     H13 3555   3.347   0.835   1.228 -1.6218  0.8932 -0.3581
  155DG     H14 3556   3.459   0.820   1.083 -0.2306 -0.6921 -0.4333
  155DG     H15 3557   3.046   0.573   1.323  0.4296 -0.8319 -0.1030
  155DG     H16 3558   3.040   0.693   1.200 -4.9486 -0.7436  0.8622
  155DG     C17 3559   3.269   0.740   1.037  0.2023  0.1645 -0.3591
  155DG     C18 3560   3.222   0.568   1.200 -0.0859  0.0074 -0.8614
  155DG     O19 3561   3.268   0.604   1.076 -0.2243 -0.2642  0.3725
  155DG     H20 3562   3.314   0.730   0.939 -0.1343 -0.4236 -0.4608
  155DG     H21 3563   3.172   0.785   1.017  0.3855  0.0801 -1.4693
  155DG     H22 3564   3.283   0.628   1.267 -0.3515  0.1394 -0.7387
  155DG     H23 3565   3.256   0.466   1.219  2.1938  0.6132 -1.4029
  156DG      C1 3566   5.107   4.097   0.080 -0.5958  0.2808  0.1225
  156DG      C2 3567   5.020   4.260  -0.622 -0.0683 -0.0218  0.3125
  156DG      H3 3568   5.131   4.034   0.166  1.8666  0.4395 -0.3963
  156DG      H4 3569   5.070   4.196   0.107  3.1378  1.2754  2.3751
  156DG      H5 3570   5.205   4.097   0.033  0.5495 -3.7366  2.0873
  156DG      H6 3571   5.032   4.364  -0.591  1.2162  0.2127 -0.8774
  156DG      H7 3572   5.084   4.224  -0.703 -1.6610 -2.6947  0.0983
  156DG      H8 3573   4.915   4.245  -0.649  0.5286 -4.8266 -0.3461
  156DG      O9 3574   5.007   4.037  -0.003  0.4679 -0.0848 -0.2213
  156DG     O10 3575   5.040   4.180  -0.504  0.4385  0.2566 -0.2349
  156DG     C11 3576   5.046   3.917  -0.069 -0.0179 -0.0685 -0.2530
  156DG     C12 3577   5.175   4.165  -0.464  0.5139 -0.3276  0.0970
  156DG     H13 3578   4.953   3.896  -0.122 -0.7092  1.5493  0.2629
  156DG     H14 3579   5.073   3.837   0.001  2.2904  1.3584  0.5994
  156DG     H15 3580   5.194   4.247  -0.395 -1.0151 -0.0670  0.2563
  156DG     H16 3581   5.247   4.163  -0.546 -0.4444 -1.4549 -0.7714
  156DG     C17 3582   5.145   3.927  -0.171 -0.3015 -0.7787  0.2815
  156DG     C18 3583   5.207   4.042  -0.376  0.1278  0.7662 -0.2580
  156DG     O19 3584   5.115   4.032  -0.270 -0.0772 -0.6346 -0.1527
  156DG     H20 3585   5.154   3.832  -0.224 -1.6703  0.3204 -2.0727
  156DG     H21 3586   5.244   3.948  -0.131 -0.5358  1.4970 -0.2177
  156DG     H22 3587   5.204   3.952  -0.438  0.6354  0.6854 -0.1618
  156DG     H23 3588   5.312   4.050  -0.348  0.7125  2.4562 -2.5972
  157DG      C1 3589   3.068   1.724   3.263 -0.2122  0.0654  0.0127
  157DG      C2 3590   3.303   1.063   2.719 -0.1484 -0.0609 -0.7507
  157DG      H3 3591   3.147   1.721   3.338 -0.2727  0.8303  0.1143
  157DG      H4 3592   2.979   1.759   3.314  0.5394  1.9708  0.1063
  157DG      H5 3593   3.104   1.783   3.178 -0.0365 -0.1818 -0.0858
  157DG      H6 3594   3.410   1.081   2.707  0.3438 -1.5509  0.9917
  157DG      H7 3595   3.298   0.960   2.753  1.3552  0.4626  1.2350
  157DG      H8 3596   3.257   1.078   2.621 -1.2770  1.8004  0.0142
  157DG      O9 3597   3.018   1.601   3.202 -0.6539 -0.1352  0.1725
  157DG     O10 3598   3.244   1.145   2.821 -0.4636 -0.0132 -0.4257
  157DG     C11 3599   3.120   1.523   3.140 -0.4397 -0.1845 -0.6713
  157DG     C12 3600   3.101   1.140   2.827 -0.8378  0.6882 -0.4963
  157DG     H13 3601   3.196   1.511   3.216 -1.0330  0.2120  0.0072
  157DG     H14 3602   3.170   1.575   3.058 -0.6846  0.3322 -0.5016
  157DG     H15 3603   3.063   1.039   2.811  1.0966 -0.3490  0.9686
  157DG     H16 3604   3.053   1.205   2.754  0.3127  1.4665 -0.5891
  157DG     C17 3605   3.056   1.386   3.107  0.3783  1.0719  0.1340
  157DG     C18 3606   3.064   1.193   2.970  0.6681  0.4555  0.4212
  157DG     O19 3607   3.116   1.322   2.993  0.5117 -0.4081  0.5869
  157DG     H20 3608   2.957   1.417   3.075  0.2500 -0.4938 -1.1709
  157DG     H21 3609   3.040   1.319   3.192 -1.7668  0.2626 -0.8461
  157DG     H22 3610   2.955   1.191   2.967  0.5991 -0.9191  2.1918
  157DG     H23 3611   3.104   1.130   3.049  1.1564  0.0309 -0.1604
  158DG      C1 3612   3.733   1.900   0.500 -0.0433 -1.0423 -0.2766
  158DG      C2 3613   3.792   1.440   0.019  0.5163 -0.7120  0.3205
  158DG      H3 3614   3.655   1.948   0.442  0.3561 -1.1691 -0.9327
  158DG      H4 3615   3.824   1.947   0.462 -1.4238  0.9029 -1.3302
  158DG      H5 3616   3.728   1.932   0.605 -0.2107  0.5669 -0.7409
  158DG      H6 3617   3.787   1.344  -0.032 -1.8779  0.0409 -1.0443
  158DG      H7 3618   3.712   1.498  -0.028  0.5156 -0.3674  0.7425
  158DG      H8 3619   3.889   1.487   0.002 -0.5090  1.7172  0.7723
  158DG      O9 3620   3.739   1.764   0.490 -0.1261 -0.5540 -0.3783
  158DG     O10 3621   3.767   1.427   0.155  0.6430 -0.1223 -0.4719
  158DG     C11 3622   3.614   1.711   0.530 -0.8889 -0.1466 -0.3258
  158DG     C12 3623   3.631   1.386   0.196  0.2757  0.6031  0.7601
  158DG     H13 3624   3.546   1.761   0.462 -0.1148  0.8908 -0.3598
  158DG     H14 3625   3.594   1.738   0.634  0.3375 -0.0789 -0.0884
  158DG     H15 3626   3.619   1.283   0.163 -0.5404  0.7513  0.5693
  158DG     H16 3627   3.554   1.449   0.152 -0.3712 -0.9693 -0.4496
  158DG     C17 3628   3.596   1.563   0.515 -0.1120 -0.0582  0.8654
  158DG     C18 3629   3.607   1.401   0.347  0.6186  0.5751 -0.3293
  158DG     O19 3630   3.664   1.522   0.393 -0.2191 -0.3011 -0.0827
  158DG     H20 3631   3.490   1.538   0.513  0.5317 -3.1546 -0.9226
  158DG     H21 3632   3.642   1.514   0.602 -0.3385  0.5360  1.3256
  158DG     H22 3633   3.498   1.400   0.352  0.4640 -2.3537 -2.0422
  158DG     H23 3634   3.643   1.313   0.399  0.0663 -0.4505 -1.6062
  159DG      C1 3635   4.490   1.901   4.412 -0.2363 -0.8985 -0.1966
  159DG      C2 3636   4.819   2.305   3.713 -1.2791  0.0082  0.5024
  159DG      H3 3637   4.432   1.987   4.444  1.1128 -0.0275 -0.0218
  159DG      H4 3638   4.492   1.840   4.502 -1.0004  0.4116  0.7314
  159DG      H5 3639   4.440   1.845   4.332  0.3259 -0.1883 -1.0689
  159DG      H6 3640   4.906   2.370   3.714  1.2048 -3.0482  1.6739
  159DG      H7 3641   4.832   2.221   3.644  0.5644 -1.0915  2.0716
  159DG      H8 3642   4.734   2.371   3.698 -1.0838  0.8425  2.7468
  159DG      O9 3643   4.618   1.952   4.373  0.8498  0.0652 -0.2124
  159DG     O10 3644   4.799   2.245   3.841  0.0224  0.7820  0.5035
  159DG     C11 3645   4.633   1.983   4.235  0.2265  0.8893  0.7699
  159DG     C12 3646   4.895   2.145   3.874  0.5554  0.0907  0.6467
  159DG     H13 3647   4.554   2.055   4.212  1.0992  1.4115 -0.7511
  159DG     H14 3648   4.629   1.893   4.174  1.1330  0.8013  0.8314
  159DG     H15 3649   4.991   2.169   3.829 -1.0662  0.5883 -2.8865
  159DG     H16 3650   4.871   2.054   3.820  1.7978  0.8402 -1.2994
  159DG     C17 3651   4.772   2.043   4.199  0.2771 -0.6746 -0.3116
  159DG     C18 3652   4.892   2.121   4.018 -0.5213  0.2010 -0.3693
  159DG     O19 3653   4.771   2.063   4.061 -0.3464  0.5072  0.0384
  159DG     H20 3654   4.847   1.969   4.225 -0.5116 -0.6853  2.2804
  159DG     H21 3655   4.793   2.137   4.251 -1.3935 -1.2836  1.5976
  159DG     H22 3656   4.975   2.053   4.039  0.0013  1.6942  3.1120
  159DG     H23 3657   4.919   2.214   4.068 -0.6876 -0.2305  0.5622
  160DG      C1 3658   0.844   3.612   0.289 -0.6459 -0.3038 -0.0950
  160DG      C2 3659   0.256   3.869  -0.063  0.4188  0.7017 -1.1675
  160DG      H3 3660   0.885   3.701   0.240  3.8225 -2.0496 -0.0094
  160DG      H4 3661   0.918   3.532   0.283  0.0793  0.3408  0.0860
  160DG      H5 3662   0.822   3.642   0.392  1.8817  2.2797 -0.1821
  160DG      H6 3663   0.232   3.775  -0.113  2.0389 -0.4542  0.1091
  160DG      H7 3664   0.195   3.887   0.026  0.1945 -1.0971 -0.9113
  160DG      H8 3665   0.235   3.947  -0.135  0.3299  0.4786 -1.3852
  160DG      O9 3666   0.723   3.558   0.234 -0.2993  0.4142 -0.0134
  160DG     O10 3667   0.395   3.870  -0.024 -0.0907 -0.4803  0.4247
  160DG     C11 3668   0.738   3.513   0.094 -0.7278  0.8719  0.0371
  160DG     C12 3669   0.484   3.851  -0.142 -0.3516  0.0390  0.5969
  160DG     H13 3670   0.649   3.452   0.075 -0.6688  1.0106 -0.7191
  160DG     H14 3671   0.828   3.453   0.085 -0.6517  0.8568  0.8226
  160DG     H15 3672   0.479   3.939  -0.207 -0.2839 -2.1395 -2.5877
  160DG     H16 3673   0.450   3.779  -0.216  1.3590 -1.4280  1.1814
  160DG     C17 3674   0.738   3.630  -0.007 -0.3598  0.1342 -0.1540
  160DG     C18 3675   0.630   3.809  -0.104  0.0735  0.2996  0.0885
  160DG     O19 3676   0.618   3.694  -0.018 -0.0780 -0.2035 -0.2931
  160DG     H20 3677   0.753   3.590  -0.107  0.1230  0.1365 -0.0867
  160DG     H21 3678   0.813   3.706   0.017  0.2495 -0.7305  0.7672
  160DG     H22 3679   0.697   3.796  -0.188 -1.3940  0.6779 -1.1932
  160DG     H23 3680   0.676   3.894  -0.054  0.6950  0.4769 -0.7688
  161DG      C1 3681   3.529   3.523   5.306 -0.0303  0.9680 -0.1916
  161DG      C2 3682   3.376   3.885   5.973  0.1637  0.1589  0.0210
  161DG      H3 3683   3.450   3.450   5.328 -0.4608  1.4798 -0.0136
  161DG      H4 3684   3.611   3.503   5.375 -2.5195  1.1376  3.0604
  161DG      H5 3685   3.564   3.494   5.207 -0.7812  0.6674 -0.3807
  161DG      H6 3686   3.295   3.814   5.958  0.1252  0.1844  0.1039
  161DG      H7 3687   3.415   3.863   6.073 -0.0083 -0.0964  0.0326
  161DG      H8 3688   3.333   3.985   5.969  0.4073  0.2944  0.6096
  161DG      O9 3689   3.484   3.653   5.332  0.2824  0.1625 -0.1736
  161DG     O10 3690   3.473   3.893   5.865 -0.2809 -0.2398  0.2319
  161DG     C11 3691   3.585   3.753   5.349  0.3242  0.0314  0.3004
  161DG     C12 3692   3.399   3.898   5.741  0.4338  0.2682  0.3937
  161DG     H13 3693   3.620   3.754   5.246  0.7665 -0.3972  0.4434
  161DG     H14 3694   3.667   3.733   5.419 -0.1303 -1.2858  0.4865
  161DG     H15 3695   3.356   3.998   5.732  2.7956  1.3084 -0.0161
  161DG     H16 3696   3.309   3.836   5.737  0.1430  0.7240 -0.4131
  161DG     C17 3697   3.505   3.883   5.376 -0.2968 -0.6448  0.8047
  161DG     C18 3698   3.486   3.870   5.622  0.7482  0.2962 -0.2736
  161DG     O19 3699   3.419   3.881   5.492 -0.3284 -0.5086  0.2923
  161DG     H20 3700   3.438   3.908   5.294  1.5454  1.5832 -0.1524
  161DG     H21 3701   3.579   3.964   5.381 -0.9875  0.0224  0.5201
  161DG     H22 3702   3.568   3.941   5.620 -0.0585  1.2515 -2.4936
  161DG     H23 3703   3.533   3.772   5.621 -0.4398 -0.3471 -2.7328
  162DG      C1 3704   0.831   3.751   1.222 -0.0968  0.1723 -0.8117
  162DG      C2 3705   1.536   3.989   1.330 -0.4482 -0.1674  0.0333
  162DG      H3 3706   0.858   3.701   1.315 -0.7797  0.8354 -0.2409
  162DG      H4 3707   0.748   3.695   1.179  0.7292  0.9810 -3.6628
  162DG      H5 3708   0.809   3.855   1.246  1.9056  0.3214  0.5835
  162DG      H6 3709   1.537   4.090   1.373 -2.8354 -0.4526  0.8822
  162DG      H7 3710   1.570   3.926   1.412  0.2111 -2.4699 -1.9070
  162DG      H8 3711   1.613   3.984   1.252  1.5387  0.4390  1.8507
  162DG      O9 3712   0.947   3.751   1.151 -0.2058  0.2284  0.0177
  162DG     O10 3713   1.405   3.943   1.284 -0.3503 -0.1070  0.5827
  162DG     C11 3714   1.009   3.621   1.147  0.7041 -0.0056  0.6039
  162DG     C12 3715   1.410   3.803   1.250  0.5010 -0.2021  0.2402
  162DG     H13 3716   0.941   3.556   1.092 -0.3933  1.8337 -0.3053
  162DG     H14 3717   1.025   3.570   1.242 -0.4820  0.5799  1.1435
  162DG     H15 3718   1.467   3.756   1.329  0.6108  3.1807  2.3674
  162DG     H16 3719   1.467   3.788   1.158 -1.6495 -0.8064 -1.0747
  162DG     C17 3720   1.144   3.623   1.073 -0.5873  0.3679  0.5924
  162DG     C18 3721   1.265   3.758   1.219  0.0113 -0.7675 -0.2025
  162DG     O19 3722   1.250   3.633   1.164 -0.0571 -0.1991  0.3263
  162DG     H20 3723   1.147   3.702   0.999  0.4268  0.4229  0.6866
  162DG     H21 3724   1.164   3.521   1.039  0.7829 -0.1295  2.7084
  162DG     H22 3725   1.204   3.763   1.309 -0.1139 -1.9988 -0.2078
  162DG     H23 3726   1.225   3.837   1.155 -1.3699  0.3036  1.8550
  163DG      C1 3727   4.828   4.420   5.215 -0.4799  1.3053 -0.2651
  163DG      C2 3728   4.584   4.073   5.948 -0.2515  0.1170 -0.0138
  163DG      H3 3729   4.843   4.500   5.142 -3.1213  0.7095 -1.5938
  163DG      H4 3730   4.733   4.374   5.187 -0.5930  0.6073  1.1630
  163DG      H5 3731   4.916   4.357   5.222 -2.3923 -1.8181 -2.0935
  163DG      H6 3732   4.605   4.107   6.049  0.3983 -0.7851  0.1612
  163DG      H7 3733   4.482   4.035   5.942  0.9198 -3.7411  1.3771
  163DG      H8 3734   4.657   3.992   5.950  0.9918  1.1892 -0.5116
  163DG      O9 3735   4.808   4.459   5.349  0.0344  0.4478  0.2817
  163DG     O10 3736   4.617   4.170   5.848  0.1979 -0.0150  0.1185
  163DG     C11 3737   4.756   4.367   5.441  0.4343  0.2483 -0.2264
  163DG     C12 3738   4.534   4.287   5.841 -0.2358  0.9236  0.2929
  163DG     H13 3739   4.834   4.293   5.458  0.5407  0.3786 -0.1444
  163DG     H14 3740   4.662   4.320   5.410  0.7325  0.0234 -0.8163
  163DG     H15 3741   4.519   4.329   5.940 -0.3932 -0.4714  0.8894
  163DG     H16 3742   4.437   4.248   5.811 -0.1236  0.1271  0.9365
  163DG     C17 3743   4.738   4.443   5.565  0.5889 -0.0246  0.2339
  163DG     C18 3744   4.586   4.399   5.745  0.7313  0.4863  0.5162
  163DG     O19 3745   4.692   4.350   5.662  0.0319  0.3360 -0.8699
  163DG     H20 3746   4.663   4.522   5.557  1.1461  0.4450 -0.4345
  163DG     H21 3747   4.833   4.485   5.596  0.3994 -0.6062  1.6501
  163DG     H22 3748   4.502   4.430   5.683 -0.9955 -1.2776  1.8770
  163DG     H23 3749   4.625   4.486   5.799  2.7998 -0.3388  0.4553
  164DG      C1 3750   3.089   1.036   4.581  0.4103 -0.2458 -0.6374
  164DG      C2 3751   2.334   1.452   4.519  0.5036  0.6551  0.2575
  164DG      H3 3752   3.164   0.981   4.524  0.2754  0.3180 -1.3691
  164DG      H4 3753   3.067   0.982   4.674  2.1179  0.3114  0.1378
  164DG      H5 3754   3.136   1.132   4.603 -2.0534  0.4062  2.5730
  164DG      H6 3755   2.255   1.400   4.465  1.3959  0.1353 -0.5581
  164DG      H7 3756   2.298   1.495   4.613  1.3524  0.7558  0.5480
  164DG      H8 3757   2.366   1.532   4.452  0.0807 -1.7410 -3.0214
  164DG      O9 3758   2.967   1.057   4.516  0.0204  0.0989 -0.0631
  164DG     O10 3759   2.443   1.362   4.545 -0.4108  0.0732  0.2218
  164DG     C11 3760   2.888   1.140   4.593  0.0981 -0.3412 -0.3568
  164DG     C12 3761   2.420   1.273   4.654 -0.1770 -0.3699 -0.2509
  164DG     H13 3762   2.905   1.240   4.553 -0.1698  0.3897  1.2977
  164DG     H14 3763   2.912   1.153   4.698  1.6712  1.6165 -0.8834
  164DG     H15 3764   2.318   1.240   4.674 -0.2488  1.2155  2.5768
  164DG     H16 3765   2.444   1.328   4.744 -3.1046  0.3545  0.2080
  164DG     C17 3766   2.743   1.097   4.592 -0.5735  0.1708  0.4890
  164DG     C18 3767   2.511   1.154   4.629 -1.0047  1.0129 -0.2271
  164DG     O19 3768   2.651   1.202   4.614  0.5607 -0.3741  0.4887
  164DG     H20 3769   2.726   1.015   4.662  0.0846 -0.6611 -0.3124
  164DG     H21 3770   2.733   1.044   4.498  0.7760  2.1291 -0.8299
  164DG     H22 3771   2.498   1.077   4.705  0.2794  0.3471 -0.6540
  164DG     H23 3772   2.483   1.104   4.536  2.3930 -2.1232  0.2250
  165DG      C1 3773   4.967   0.231   2.742 -0.1567  0.1036  0.5137
  165DG      C2 3774   4.251   0.038   2.439  0.1736  0.3651  0.8817
  165DG      H3 3775   5.072   0.211   2.762 -0.6115 -2.2817  0.8183
  165DG      H4 3776   4.944   0.302   2.821  0.8077  0.3221  0.6128
  165DG      H5 3777   4.958   0.280   2.645  0.5371 -0.3383  0.2173
  165DG      H6 3778   4.266   0.135   2.392  1.8906 -0.6440 -0.7589
  165DG      H7 3779   4.225  -0.033   2.360  1.4800  0.3593  0.4397
  165DG      H8 3780   4.171   0.037   2.513 -0.4332  1.5043  0.2572
  165DG      O9 3781   4.901   0.104   2.738 -0.6307  0.6019  0.4504
  165DG     O10 3782   4.381   0.009   2.493  0.4331  0.3670 -0.1977
  165DG     C11 3783   4.768   0.114   2.687 -0.8292  0.0904 -0.5296
  165DG     C12 3784   4.376  -0.114   2.559  0.0818 -0.2412 -1.2156
  165DG     H13 3785   4.773   0.128   2.579  2.1377  0.9975 -0.3519
  165DG     H14 3786   4.724   0.197   2.743  1.9728  0.9139  0.6178
  165DG     H15 3787   4.351  -0.199   2.495  1.2531 -0.3581 -1.5397
  165DG     H16 3788   4.315  -0.109   2.649  1.7480  4.6242 -0.0667
  165DG     C17 3789   4.699  -0.019   2.706 -0.0217  0.1035 -1.2246
  165DG     C18 3790   4.514  -0.135   2.624 -0.4041  0.5241  0.5936
  165DG     O19 3791   4.571  -0.009   2.643 -0.4692 -0.2240  0.0032
  165DG     H20 3792   4.692  -0.032   2.814  2.1740 -1.1569 -1.1849
  165DG     H21 3793   4.762  -0.102   2.673 -0.0205 -0.3281 -0.1801
  165DG     H22 3794   4.513  -0.185   2.721  1.4338  1.7742  1.3118
  165DG     H23 3795   4.563  -0.204   2.554 -0.6577 -1.8992  2.6566
  166DG      C1 3796   2.401   0.245   2.874 -0.4958 -0.1221 -0.3562
  166DG      C2 3797   1.977  -0.281   2.924 -0.9362  0.0137 -0.0262
  166DG      H3 3798   2.409   0.314   2.958  1.5703 -0.7693  0.0099
  166DG      H4 3799   2.424   0.292   2.778 -0.7890 -1.5794 -1.1719
  166DG      H5 3800   2.475   0.166   2.885  0.8926  1.1172 -0.5428
  166DG      H6 3801   2.034  -0.360   2.875  1.3960  0.6410  1.5038
  166DG      H7 3802   2.006  -0.273   3.029  2.6095  0.7983 -0.9578
  166DG      H8 3803   1.876  -0.319   2.910 -1.5778  1.2515  0.9871
  166DG      O9 3804   2.266   0.198   2.878  0.2749  0.1199  0.1690
  166DG     O10 3805   1.988  -0.150   2.857  0.3691 -0.0880  0.5445
  166DG     C11 3806   2.183   0.291   2.824  0.0679  0.4047 -0.1163
  166DG     C12 3807   1.877  -0.061   2.889 -0.2424 -0.1936 -0.6816
  166DG     H13 3808   2.220   0.319   2.726 -2.0610  1.5675 -0.6665
  166DG     H14 3809   2.192   0.384   2.881  1.1455  0.1189  0.1927
  166DG     H15 3810   1.878  -0.037   2.996  0.5817  0.4844 -0.8297
  166DG     H16 3811   1.778  -0.099   2.863 -1.2931  3.8875 -3.7470
  166DG     C17 3812   2.037   0.255   2.807 -0.5599 -0.0873 -0.2058
  166DG     C18 3813   1.890   0.069   2.808 -0.4641  0.8926 -0.0026
  166DG     O19 3814   2.022   0.116   2.833  0.0204 -0.2450  0.5172
  166DG     H20 3815   2.006   0.292   2.710 -2.5326 -0.3125  0.2940
  166DG     H21 3816   1.979   0.313   2.879 -0.8941 -0.0067 -0.5379
  166DG     H22 3817   1.884   0.053   2.700  2.0164 -2.5255  0.2041
  166DG     H23 3818   1.817   0.143   2.841 -1.0543  0.5607 -0.5291
  167DG      C1 3819   1.612   5.189   3.854  0.1595 -0.3504 -0.4684
  167DG      C2 3820   2.213   5.594   3.795  0.3600  0.2601 -0.3225
  167DG      H3 3821   1.509   5.204   3.823  0.7006  1.7880 -1.4221
  167DG      H4 3822   1.628   5.233   3.952  0.4117 -1.2217 -0.1030
  167DG      H5 3823   1.635   5.082   3.855  0.7019 -0.2383 -0.6797
  167DG      H6 3824   2.263   5.678   3.746 -0.3140  2.2924  2.2899
  167DG      H7 3825   2.193   5.641   3.891 -0.4883 -0.5348 -0.0980
  167DG      H8 3826   2.268   5.503   3.818  1.1372  0.7433 -0.2090
  167DG      O9 3827   1.692   5.247   3.758  0.5777 -0.3036  0.0871
  167DG     O10 3828   2.090   5.578   3.738 -0.5239  0.2568 -0.1438
  167DG     C11 3829   1.646   5.384   3.727  0.0884  0.3575  0.2248
  167DG     C12 3830   2.091   5.480   3.633 -0.5838 -0.0012 -0.7262
  167DG     H13 3831   1.653   5.435   3.823  1.6021  0.3353  0.1457
  167DG     H14 3832   1.542   5.381   3.694  0.5218 -2.0666 -1.1816
  167DG     H15 3833   2.120   5.384   3.677 -0.1072  0.0336 -0.9495
  167DG     H16 3834   2.172   5.483   3.559  0.0409  1.4419 -0.0240
  167DG     C17 3835   1.734   5.448   3.626  0.6111 -0.5823 -0.4251
  167DG     C18 3836   1.950   5.478   3.566 -0.8051 -0.2581  0.6721
  167DG     O19 3837   1.862   5.427   3.671 -0.1224  0.2228 -0.0430
  167DG     H20 3838   1.714   5.554   3.640  0.5265 -0.7910  1.3327
  167DG     H21 3839   1.714   5.420   3.523 -1.1846  0.7491 -0.4756
  167DG     H22 3840   1.924   5.579   3.536  2.3847 -0.0708 -1.9849
  167DG     H23 3841   1.949   5.415   3.476  0.3400 -0.3357  0.7112
  168DG      C1 3842   1.542   1.681   3.672 -0.0877 -0.7697  0.2623
  168DG      C2 3843   1.984   1.545   4.248 -0.0960  0.2727 -0.0812
  168DG      H3 3844   1.512   1.596   3.611  0.6037  0.7437 -2.4017
  168DG      H4 3845   1.496   1.769   3.626 -1.4690 -0.3935  2.2381
  168DG      H5 3846   1.500   1.680   3.772 -0.5848 -0.2491  0.0661
  168DG      H6 3847   1.937   1.447   4.255  1.6147 -0.5476  0.2554
  168DG      H7 3848   2.091   1.541   4.265 -0.1687  0.8078  0.5255
  168DG      H8 3849   1.954   1.606   4.333 -0.2922 -1.4653  1.1598
  168DG      O9 3850   1.679   1.697   3.679 -0.1125  0.1168 -0.3668
  168DG     O10 3851   1.949   1.610   4.119  0.0555  0.5120 -0.4754
  168DG     C11 3852   1.725   1.823   3.737 -0.4977 -0.1224  0.3478
  168DG     C12 3853   2.020   1.568   3.996 -0.3079  0.1061  0.5593
  168DG     H13 3854   1.687   1.842   3.837  0.9488 -0.1513  0.9159
  168DG     H14 3855   1.696   1.909   3.676 -3.4808 -1.9380 -1.0488
  168DG     H15 3856   1.977   1.475   3.957  0.4209 -0.0753  0.1715
  168DG     H16 3857   2.125   1.546   4.014 -0.1369 -0.7492 -1.2210
  168DG     C17 3858   1.873   1.799   3.748  0.2037  0.1861  0.0471
  168DG     C18 3859   2.020   1.673   3.889 -0.0075  0.8851 -0.1976
  168DG     O19 3860   1.894   1.685   3.831  0.0996  0.4294  0.4813
  168DG     H20 3861   1.932   1.887   3.776 -0.3043  0.6314 -0.2559
  168DG     H21 3862   1.916   1.787   3.648  0.5495 -1.1396  0.3419
  168DG     H22 3863   2.057   1.767   3.931  0.8864  0.1675  0.6684
  168DG     H23 3864   2.073   1.644   3.799 -3.0391 -0.8853 -1.5349
  169DG      C1 3865   4.207   4.600   0.538  0.1249  0.0897 -0.5304
  169DG      C2 3866   3.828   5.221   0.508 -0.5586 -0.2289 -0.3483
  169DG      H3 3867   4.315   4.586   0.532  0.6743  1.1000  3.6823
  169DG      H4 3868   4.155   4.562   0.450  0.3482 -1.0496 -0.1942
  169DG      H5 3869   4.177   4.549   0.630  0.2983  1.3932  0.2681
  169DG      H6 3870   3.821   5.330   0.497 -0.8191 -0.3267 -1.2081
  169DG      H7 3871   3.847   5.170   0.414  0.5792  0.0103 -0.2633
  169DG      H8 3872   3.734   5.192   0.554 -2.0890  3.2709 -0.9378
  169DG      O9 3873   4.194   4.743   0.561  0.4042 -0.0758  0.3558
  169DG     O10 3874   3.929   5.189   0.600  0.1926  0.2410 -0.3167
  169DG     C11 3875   4.223   4.784   0.691  0.2938  0.5935 -0.1277
  169DG     C12 3876   4.062   5.223   0.558 -0.6853  0.6315 -0.0944
  169DG     H13 3877   4.308   4.728   0.730 -0.6822 -1.0465 -0.2410
  169DG     H14 3878   4.139   4.766   0.758 -0.8493  0.8266 -1.4659
  169DG     H15 3879   4.080   5.330   0.567 -0.5458  0.7822 -1.7817
  169DG     H16 3880   4.069   5.198   0.452  1.0254  2.4257 -0.4636
  169DG     C17 3881   4.243   4.932   0.705  0.1254 -0.5378  0.1014
  169DG     C18 3882   4.170   5.146   0.641 -0.7593  0.1502  0.2179
  169DG     O19 3883   4.147   5.007   0.634 -0.3831 -0.8254  0.2661
  169DG     H20 3884   4.339   4.958   0.660 -0.1611  1.9343  0.7798
  169DG     H21 3885   4.250   4.967   0.807 -0.0240  1.5974 -0.5782
  169DG     H22 3886   4.267   5.170   0.596 -1.2577 -0.1444 -1.0499
  169DG     H23 3887   4.181   5.178   0.745 -0.0337 -1.5449  0.7063
  170DG      C1 3888   1.202   0.989   0.355 -0.0346 -0.6864  0.2075
  170DG      C2 3889   1.733   1.499   0.062  0.2844  0.5230 -0.0062
  170DG      H3 3890   1.204   0.896   0.412  1.5622 -0.8298 -0.0606
  170DG      H4 3891   1.106   0.981   0.303  0.7058  1.0431 -1.5231
  170DG      H5 3892   1.200   1.072   0.426  1.5264 -0.8042  0.4086
  170DG      H6 3893   1.789   1.496  -0.032 -0.1071  1.7425 -0.2952
  170DG      H7 3894   1.647   1.562   0.037  0.1567  0.5837  0.5608
  170DG      H8 3895   1.797   1.541   0.140 -0.2189 -0.3290  0.8864
  170DG      O9 3896   1.300   1.018   0.257 -0.2037  0.9730 -0.0540
  170DG     O10 3897   1.701   1.365   0.078  0.3119  0.2819  0.0520
  170DG     C11 3898   1.435   1.027   0.311 -0.4766  0.5704  0.2511
  170DG     C12 3899   1.628   1.312  -0.029 -0.3402 -0.1483 -0.0759
  170DG     H13 3900   1.443   0.933   0.366  1.8407  0.4631 -0.1655
  170DG     H14 3901   1.449   1.117   0.371 -0.1599  0.2891  0.6053
  170DG     H15 3902   1.681   1.329  -0.123  1.2990 -1.4838  0.5513
  170DG     H16 3903   1.542   1.377  -0.041 -1.1057 -1.1753 -0.3529
  170DG     C17 3904   1.522   1.036   0.190 -0.6547  0.6137  0.0153
  170DG     C18 3905   1.585   1.162   0.007 -0.3186  0.5821 -0.8370
  170DG     O19 3906   1.530   1.164   0.141  0.0379 -0.1183 -0.1862
  170DG     H20 3907   1.472   0.979   0.112 -0.9006  0.9493 -0.0730
  170DG     H21 3908   1.618   0.989   0.212 -1.3676 -1.1274 -0.4085
  170DG     H22 3909   1.507   1.134  -0.064  0.3786 -0.2488 -1.2944
  170DG     H23 3910   1.665   1.090  -0.011 -0.6424  0.3307 -1.3146
  171DG      C1 3911   1.624   1.711   1.533 -0.1339 -0.0406 -0.1589
  171DG      C2 3912   1.639   2.223   1.928 -0.2445  0.3980 -0.8298
  171DG      H3 3913   1.707   1.642   1.521 -2.2690 -2.6605 -0.9051
  171DG      H4 3914   1.632   1.786   1.454 -2.3007  2.7275  2.0183
  171DG      H5 3915   1.530   1.656   1.531 -0.4681  0.5413 -2.3138
  171DG      H6 3916   1.597   2.262   1.835  1.7696 -1.3897 -2.5854
  171DG      H7 3917   1.640   2.302   2.003 -0.5295  1.3458 -1.7918
  171DG      H8 3918   1.746   2.204   1.921 -0.1736  0.9251 -1.2429
  171DG      O9 3919   1.637   1.770   1.659  0.3541  0.1601 -0.4306
  171DG     O10 3920   1.571   2.101   1.972 -0.1071 -0.2154  0.0990
  171DG     C11 3921   1.629   1.678   1.776  0.2266 -0.2487  0.1147
  171DG     C12 3922   1.619   2.040   2.090  0.5518  0.0115  0.5339
  171DG     H13 3923   1.672   1.581   1.753  1.2421 -0.2162  1.7237
  171DG     H14 3924   1.524   1.659   1.797  0.0420  0.5247 -0.0806
  171DG     H15 3925   1.542   2.009   2.161 -0.2560 -2.8169 -1.3579
  171DG     H16 3926   1.684   2.098   2.154  1.2137 -0.0011 -0.1166
  171DG     C17 3927   1.697   1.730   1.897 -0.2190 -0.0741  0.1217
  171DG     C18 3928   1.677   1.908   2.052  0.2602  0.3305  0.3912
  171DG     O19 3929   1.626   1.853   1.932  0.2871 -0.0448 -0.4391
  171DG     H20 3930   1.804   1.740   1.875  0.4111 -0.2138  2.7166
  171DG     H21 3931   1.696   1.666   1.986  1.0960 -1.7337 -0.9952
  171DG     H22 3932   1.782   1.912   2.024 -0.2855 -0.8661 -2.1269
  171DG     H23 3933   1.649   1.847   2.138 -0.2484 -0.8597 -0.5896
  172DG      C1 3934   4.739   4.103   3.432  0.1556  0.1625 -0.1174
  172DG      C2 3935   4.903   3.380   3.783  1.0515  0.1755 -0.4337
  172DG      H3 3936   4.714   4.154   3.338 -0.6521 -0.6528 -0.3544
  172DG      H4 3937   4.794   4.177   3.491  0.8703 -0.7597  0.3861
  172DG      H5 3938   4.647   4.082   3.486  1.6739 -2.4269  1.6590
  172DG      H6 3939   4.820   3.408   3.848  0.0988  0.0381 -1.5522
  172DG      H7 3940   4.911   3.272   3.794 -2.8162 -0.1409  1.0864
  172DG      H8 3941   4.989   3.438   3.814 -0.4410  2.7261 -0.7486
  172DG      O9 3942   4.803   3.975   3.400  0.1088 -0.0003 -0.6608
  172DG     O10 3943   4.863   3.410   3.653  0.2458 -0.1334 -0.7084
  172DG     C11 3944   4.725   3.885   3.325 -0.2359  0.2751 -0.2995
  172DG     C12 3945   4.813   3.539   3.629  0.8054 -0.3334  0.2400
  172DG     H13 3946   4.726   3.930   3.226 -0.2702 -0.3707 -0.5936
  172DG     H14 3947   4.622   3.873   3.359 -0.3847  0.5687 -0.6330
  172DG     H15 3948   4.872   3.615   3.679 -0.5276  1.1198 -0.3169
  172DG     H16 3949   4.707   3.549   3.655  0.4078  0.1545 -1.4646
  172DG     C17 3950   4.785   3.747   3.337  0.0595 -0.0553  0.3079
  172DG     C18 3951   4.844   3.567   3.483 -0.0983 -0.8457  0.1332
  172DG     O19 3952   4.784   3.699   3.464 -0.5535  0.1126 -0.3363
  172DG     H20 3953   4.890   3.750   3.307 -0.0769 -1.0821 -0.3227
  172DG     H21 3954   4.736   3.677   3.269  0.0506 -1.1287  1.3858
  172DG     H22 3955   4.953   3.569   3.481 -0.0663  0.6856  1.3104
  172DG     H23 3956   4.802   3.497   3.411  0.0104  0.2385 -1.0406
  173DG      C1 3957   2.243   0.861   0.209  0.0004 -0.4104 -0.4020
  173DG      C2 3958   2.505   1.543   0.042  0.4015 -0.0172  0.3030
  173DG      H3 3959   2.338   0.849   0.261 -1.6204 -2.9474  2.2851
  173DG      H4 3960   2.253   0.782   0.134  2.2538 -0.7384  0.1442
  173DG      H5 3961   2.162   0.831   0.275  0.7828  0.4827  1.0040
  173DG      H6 3962   2.560   1.454   0.012  0.1540 -0.3301  0.7726
  173DG      H7 3963   2.500   1.621  -0.034 -2.4342  0.9989  1.4105
  173DG      H8 3964   2.549   1.583   0.133  0.5723 -2.1031  1.1844
  173DG      O9 3965   2.223   0.993   0.170 -0.0830  0.1247  0.1371
  173DG     O10 3966   2.371   1.499   0.071  1.0476 -0.1953  0.4736
  173DG     C11 3967   2.103   1.023   0.098  0.3209 -0.6158  0.7716
  173DG     C12 3968   2.292   1.449  -0.043  0.1564  0.8625 -0.1788
  173DG     H13 3969   2.010   0.979   0.132 -1.0067  0.5102 -1.2027
  173DG     H14 3970   2.111   0.981  -0.002 -1.7838 -0.1014  0.3531
  173DG     H15 3971   2.361   1.384  -0.096  2.1273  1.4164  1.5406
  173DG     H16 3972   2.254   1.532  -0.102  0.3220  1.6184  0.7519
  173DG     C17 3973   2.084   1.176   0.093  0.3140  0.6073 -0.1877
  173DG     C18 3974   2.175   1.375   0.018 -0.2009 -0.0152  0.1448
  173DG     O19 3975   2.205   1.250   0.060  0.2545  0.4554 -0.1823
  173DG     H20 3976   2.054   1.201   0.195  2.1574  0.5907  0.4084
  173DG     H21 3977   1.993   1.199   0.039  0.9464  0.5464 -1.3044
  173DG     H22 3978   2.129   1.430   0.101 -1.3879 -0.4990 -0.1776
  173DG     H23 3979   2.095   1.384  -0.055  0.1241  0.8248 -0.1178
  174DG      C1 3980   2.882   3.740   5.116 -0.0277  0.4514  0.0601
  174DG      C2 3981   3.178   3.996   5.183  0.5865 -0.3519  0.6221
  174DG      H3 3982   2.961   3.814   5.131  0.5407 -0.1639  0.1156
  174DG      H4 3983   2.864   3.719   5.011 -0.6958  0.6291  0.1362
  174DG      H5 3984   2.909   3.654   5.177 -1.7953  0.0986  0.3947
  174DG      H6 3985   3.256   4.071   5.186 -0.2347  0.5099  0.8803
  174DG      H7 3986   3.099   4.029   5.250 -0.6672  1.0062 -1.4171
  174DG      H8 3987   3.216   3.896   5.207 -3.6040 -2.1029  0.8788
  174DG      O9 3988   2.759   3.776   5.177 -0.7918 -0.1304  0.5484
  174DG     O10 3989   3.137   3.989   5.048  0.3928  0.2037 -0.1109
  174DG     C11 3990   2.684   3.873   5.097 -0.2952  0.4919 -0.2727
  174DG     C12 3991   3.092   4.114   5.006  0.7420 -0.3989  1.1950
  174DG     H13 3992   2.579   3.865   5.125  0.0888 -0.7226  0.9228
  174DG     H14 3993   2.680   3.832   4.996  1.2986  0.8180 -0.5012
  174DG     H15 3994   3.077   4.097   4.899 -0.5783  0.7047  1.1707
  174DG     H16 3995   3.149   4.206   5.021 -1.2672  1.5810 -1.9975
  174DG     C17 3996   2.740   4.018   5.088  0.0123 -0.0821 -0.2947
  174DG     C18 3997   2.943   4.140   5.049  0.2792 -0.1752 -0.2706
  174DG     O19 3998   2.875   4.019   5.049 -0.0945 -0.0508  0.5242
  174DG     H20 3999   2.727   4.076   5.179 -1.9134  2.6059 -2.1123
  174DG     H21 4000   2.684   4.076   5.014  1.3365 -0.6335 -1.7740
  174DG     H22 4001   2.949   4.179   5.150  0.0875 -0.0020 -0.3235
  174DG     H23 4002   2.896   4.215   4.984 -0.0287 -1.0935 -1.1416
  175DG      C1 4003   0.172   1.764   1.171 -0.8581 -0.2135 -0.3266
  175DG      C2 4004  -0.005   1.132   0.987 -0.2678  0.0720 -0.3995
  175DG      H3 4005   0.082   1.764   1.232 -0.9544  1.9862 -0.3653
  175DG      H4 4006   0.179   1.870   1.146  0.2198 -0.0656  0.5059
  175DG      H5 4007   0.259   1.740   1.232 -1.9627  1.6470  2.1999
  175DG      H6 4008  -0.103   1.085   0.979 -0.5489  0.9699 -2.9406
  175DG      H7 4009   0.050   1.093   0.901 -1.7300 -0.0346 -1.3093
  175DG      H8 4010   0.042   1.097   1.080 -0.3039  1.3034  0.0929
  175DG      O9 4011   0.174   1.685   1.050 -0.0246  0.0407  0.2649
  175DG     O10 4012  -0.009   1.267   0.993 -0.3499 -0.5420  0.4009
  175DG     C11 4013   0.071   1.732   0.965  0.0259  0.0268  0.0693
  175DG     C12 4014  -0.101   1.313   0.900 -0.6448  0.1452  0.2855
  175DG     H13 4015   0.103   1.832   0.934  1.3671 -0.8930 -1.7206
  175DG     H14 4016  -0.026   1.736   1.014 -1.0245 -0.6555 -1.8270
  175DG     H15 4017  -0.198   1.280   0.934 -0.6628  0.6904  0.7784
  175DG     H16 4018  -0.080   1.271   0.802  1.8164 -0.4591  0.9927
  175DG     C17 4019   0.060   1.653   0.837 -0.0119 -0.3343 -0.0578
  175DG     C18 4020  -0.090   1.471   0.898  0.0492 -0.4593 -0.0825
  175DG     O19 4021   0.045   1.511   0.866 -0.9605 -0.1826 -0.1189
  175DG     H20 4022   0.148   1.676   0.776  1.2191  0.0957  1.7712
  175DG     H21 4023  -0.025   1.690   0.781  0.5186  2.1038  0.6107
  175DG     H22 4024  -0.163   1.519   0.832  1.2948  0.3957 -0.8897
  175DG     H23 4025  -0.118   1.513   0.994 -1.5832 -1.2799 -0.1472
  176DG      C1 4026   1.243   2.195   0.905 -0.4323 -0.1432  0.3919
  176DG      C2 4027   1.822   2.493   1.513 -0.0275 -0.6144  0.2851
  176DG      H3 4028   1.262   2.088   0.894  1.1105  0.3422 -2.7836
  176DG      H4 4029   1.174   2.208   0.821 -0.6497 -1.2266  0.3909
  176DG      H5 4030   1.191   2.205   1.000  1.1164 -2.3840  1.5719
  176DG      H6 4031   1.888   2.408   1.529 -0.5336 -1.1450 -0.3528
  176DG      H7 4032   1.888   2.578   1.499  0.4837 -0.8552  1.1417
  176DG      H8 4033   1.761   2.512   1.601  1.3000  2.1493  0.6997
  176DG      O9 4034   1.355   2.279   0.901 -0.1060  0.0544  0.0280
  176DG     O10 4035   1.734   2.486   1.405  0.2732  0.0964  0.4547
  176DG     C11 4036   1.448   2.259   1.012  0.0985 -0.6010 -0.8184
  176DG     C12 4037   1.788   2.454   1.275 -0.3292 -0.9358 -0.6013
  176DG     H13 4038   1.523   2.182   0.992  1.2484 -0.4322  2.2849
  176DG     H14 4039   1.398   2.222   1.102 -0.7501  0.9976 -0.5922
  176DG     H15 4040   1.832   2.354   1.266 -1.4456 -1.4483 -0.6022
  176DG     H16 4041   1.875   2.520   1.270  0.6331 -1.9889  1.2486
  176DG     C17 4042   1.525   2.386   1.040 -1.1476  0.7361 -0.0609
  176DG     C18 4043   1.699   2.477   1.154  0.5244  0.0997 -0.3064
  176DG     O19 4044   1.611   2.362   1.147 -0.1125 -0.1555  0.1615
  176DG     H20 4045   1.450   2.462   1.063 -0.0270  1.6178  0.8146
  176DG     H21 4046   1.573   2.420   0.948  1.0094  1.8736  1.4026
  176DG     H22 4047   1.656   2.576   1.141  1.9960  0.9365  0.8545
  176DG     H23 4048   1.759   2.470   1.063  3.8020 -0.8943  1.7617
  177DG      C1 4049   1.805   2.028   1.629 -0.2338 -0.2265 -0.3323
  177DG      C2 4050   1.254   1.796   1.793  0.7472 -0.8315 -0.5477
  177DG      H3 4051   1.889   2.097   1.635  0.8860 -1.6273  0.7845
  177DG      H4 4052   1.804   1.965   1.540 -0.0575  0.1433 -0.5981
  177DG      H5 4053   1.818   1.961   1.714 -1.5430  1.1334  0.9958
  177DG      H6 4054   1.318   1.734   1.857  1.0957 -0.9620 -1.0168
  177DG      H7 4055   1.213   1.885   1.840 -1.3345 -2.0243  0.0115
  177DG      H8 4056   1.166   1.737   1.768 -0.6128  0.4774  0.9399
  177DG      O9 4057   1.678   2.097   1.643  0.0774 -0.1037 -0.6883
  177DG     O10 4058   1.322   1.832   1.681  0.3405 -0.3032 -0.0974
  177DG     C11 4059   1.647   2.181   1.532  0.3657 -0.2674 -0.0569
  177DG     C12 4060   1.252   1.910   1.578 -0.4807 -0.0281  0.1337
  177DG     H13 4061   1.729   2.204   1.463  0.6648 -0.7396  0.1316
  177DG     H14 4062   1.595   2.267   1.572 -2.0368 -2.7654  2.6435
  177DG     H15 4063   1.182   1.970   1.637  0.6217 -0.4275  1.9109
  177DG     H16 4064   1.188   1.856   1.508  1.1989  0.2057 -1.6613
  177DG     C17 4065   1.537   2.111   1.456  0.1663 -0.0808 -0.2527
  177DG     C18 4066   1.347   1.978   1.482 -0.2040 -0.5875  0.1655
  177DG     O19 4067   1.447   2.051   1.550 -0.2699 -0.5607  0.1256
  177DG     H20 4068   1.576   2.036   1.387  1.3053 -1.0037  1.3291
  177DG     H21 4069   1.484   2.188   1.399 -0.2023 -0.2025 -0.0757
  177DG     H22 4070   1.394   1.899   1.424  0.6061  0.6946 -0.9915
  177DG     H23 4071   1.285   2.037   1.413 -0.4388  0.1165  0.9614
  178DG      C1 4072   4.192   2.586   2.676  0.2342  0.0651  0.2832
  178DG      C2 4073   4.915   2.175   2.955 -0.3045  0.5221 -0.1419
  178DG      H3 4074   4.091   2.576   2.636  0.2540 -2.3050  0.6566
  178DG      H4 4075   4.220   2.687   2.648  0.1153  0.1147  0.3443
  178DG      H5 4076   4.181   2.577   2.784  0.8674  1.3116  0.4661
  178DG      H6 4077   4.837   2.140   3.023  0.0934 -0.3878 -0.1340
  178DG      H7 4078   4.972   2.085   2.931 -0.1876  0.6955 -0.5168
  178DG      H8 4079   4.981   2.243   3.008 -2.3959  0.9845  2.0674
  178DG      O9 4080   4.275   2.498   2.606  0.2547 -0.0317 -0.4440
  178DG     O10 4081   4.830   2.229   2.855 -0.5999 -0.4869  0.0653
  178DG     C11 4082   4.386   2.456   2.699  0.1598 -0.4700  0.1046
  178DG     C12 4083   4.765   2.351   2.881  0.6917 -0.2777  0.1142
  178DG     H13 4084   4.347   2.393   2.779  1.6413 -0.6474  0.7180
  178DG     H14 4085   4.443   2.543   2.732  0.0663  0.1250 -1.2221
  178DG     H15 4086   4.828   2.429   2.924 -1.3605  1.0600  0.8845
  178DG     H16 4087   4.689   2.336   2.958  2.0905 -1.6750  1.2719
  178DG     C17 4088   4.488   2.369   2.634 -0.3654  0.6606  0.0726
  178DG     C18 4089   4.690   2.399   2.756  0.7165 -0.0894  0.0476
  178DG     O19 4090   4.582   2.309   2.726  0.5528 -0.4056 -0.4082
  178DG     H20 4091   4.527   2.415   2.543 -1.8137 -2.0145 -2.0440
  178DG     H21 4092   4.448   2.280   2.586 -0.2072  0.7000 -0.1346
  178DG     H22 4093   4.646   2.496   2.777 -1.0457 -0.6094 -1.0169
  178DG     H23 4094   4.751   2.415   2.667  1.8859 -0.0712  0.8370
  179DG      C1 4095   3.002   4.960   4.792 -0.2250 -0.1272  0.4031
  179DG      C2 4096   2.449   4.827   5.289 -0.6550 -0.0801 -0.8023
  179DG      H3 4097   3.068   5.040   4.757 -1.5651  1.0970  0.5472
  179DG      H4 4098   2.903   5.001   4.772  0.8839  0.9989 -4.1818
  179DG      H5 4099   3.013   4.877   4.722 -0.8416  0.8003 -0.8428
  179DG      H6 4100   2.374   4.888   5.239 -0.5309  0.2602 -0.5743
  179DG      H7 4101   2.424   4.722   5.272 -2.4446  0.1665  0.0920
  179DG      H8 4102   2.431   4.845   5.395  2.0646 -0.6029 -0.1809
  179DG      O9 4103   3.011   4.924   4.933  0.3604 -0.1244 -0.0949
  179DG     O10 4104   2.588   4.850   5.250 -0.1784 -0.0518  0.5683
  179DG     C11 4105   3.005   5.044   5.009 -0.6727 -0.3297  0.3244
  179DG     C12 4106   2.647   4.967   5.295  0.9530 -0.7276  0.8431
  179DG     H13 4107   2.931   5.110   4.963  0.4346  1.4099  0.9393
  179DG     H14 4108   3.097   5.102   5.014 -0.7087 -0.1364 -0.9056
  179DG     H15 4109   2.617   4.988   5.397  0.2272 -0.7327  0.6351
  179DG     H16 4110   2.612   5.052   5.236 -1.5213 -0.3852  2.6503
  179DG     C17 4111   2.968   5.026   5.155  0.1729  0.0441 -0.1331
  179DG     C18 4112   2.795   4.970   5.304  0.5404 -0.0551  0.3615
  179DG     O19 4113   2.838   4.972   5.166 -0.2505 -0.4034  0.4500
  179DG     H20 4114   2.963   5.122   5.207 -0.7885 -0.2990  0.4298
  179DG     H21 4115   3.039   4.967   5.213  0.9371  0.9632 -0.0915
  179DG     H22 4116   2.829   5.060   5.355 -0.1200  0.9292 -0.8867
  179DG     H23 4117   2.829   4.885   5.363  2.9567  1.9621  2.0991
  180DG      C1 4118   4.188   4.061   0.141 -0.4085 -0.5906 -0.6071
  180DG      C2 4119   3.595   3.452   0.179  0.3582 -0.2300 -0.5870
  180DG      H3 4120   4.184   4.090   0.036  1.0431  0.4865 -0.4053
  180DG      H4 4121   4.292   4.070   0.172 -0.2519 -1.1963 -0.9324
  180DG      H5 4122   4.141   4.135   0.205 -1.7700 -3.0728  1.4576
  180DG      H6 4123   3.540   3.360   0.197  0.2947 -0.2169 -0.7132
  180DG      H7 4124   3.566   3.522   0.257  1.0192  1.5165 -1.8305
  180DG      H8 4125   3.561   3.500   0.087  0.5448 -1.5192 -1.3685
  180DG      O9 4126   4.128   3.934   0.169 -0.1383  0.8983  0.0100
  180DG     O10 4127   3.735   3.445   0.180 -0.1091 -0.2978  0.1516
  180DG     C11 4128   4.204   3.822   0.136 -0.4763 -0.7646  1.0181
  180DG     C12 4129   3.799   3.569   0.168  0.1240 -0.2365 -0.3367
  180DG     H13 4130   4.312   3.828   0.141 -0.4800 -0.7240  1.0408
  180DG     H14 4131   4.177   3.791   0.035 -0.6525 -0.2713  0.9117
  180DG     H15 4132   3.750   3.639   0.237  2.9243 -0.4797  2.0711
  180DG     H16 4133   3.788   3.604   0.065 -0.6905 -1.4213 -0.6798
  180DG     C17 4134   4.148   3.707   0.213 -0.3404  0.1965 -0.3842
  180DG     C18 4135   3.949   3.563   0.207 -0.1415 -0.2633  0.6442
  180DG     O19 4136   4.006   3.692   0.188 -0.2517  0.1581 -0.5975
  180DG     H20 4137   4.168   3.727   0.318 -0.2224  0.6468 -0.4869
  180DG     H21 4138   4.205   3.622   0.174 -0.9859 -0.9050  1.0019
  180DG     H22 4139   3.945   3.532   0.312  0.7783  2.0352  1.4110
  180DG     H23 4140   4.010   3.488   0.156 -0.6741 -0.0353 -0.3358
  181DG      C1 4141   1.410   4.638   3.078  0.1576 -1.0537 -0.4902
  181DG      C2 4142   0.784   4.989   3.163  0.1340  0.7973 -0.0574
  181DG      H3 4143   1.373   4.655   2.977  1.0721  0.1820 -0.6363
  181DG      H4 4144   1.461   4.542   3.090  1.1645 -0.6881 -1.6872
  181DG      H5 4145   1.480   4.714   3.112  0.3330 -1.0452 -0.8714
  181DG      H6 4146   0.861   5.062   3.135  1.1221  0.8362  2.5144
  181DG      H7 4147   0.730   4.949   3.077 -1.4942  1.4966  0.6076
  181DG      H8 4148   0.719   5.037   3.235  1.1623  1.1345  0.6769
  181DG      O9 4149   1.295   4.633   3.162 -0.0856 -0.0655  0.4944
  181DG     O10 4150   0.847   4.883   3.236  0.2299  0.6799 -0.0335
  181DG     C11 4151   1.321   4.608   3.299 -0.6526 -0.0673 -0.7359
  181DG     C12 4152   0.955   4.926   3.321  0.3712 -0.3063  0.5926
  181DG     H13 4153   1.402   4.668   3.340  0.7299 -3.0479  1.3347
  181DG     H14 4154   1.361   4.507   3.311  0.8461  0.4641 -1.0662
  181DG     H15 4155   0.912   4.990   3.399 -0.0350 -0.5413  0.5616
  181DG     H16 4156   1.030   4.986   3.269  0.2397  0.7619  1.5974
  181DG     C17 4157   1.194   4.645   3.374 -0.8417  0.1756  0.0302
  181DG     C18 4158   1.025   4.811   3.398  0.5377 -0.6825  0.7856
  181DG     O19 4159   1.140   4.770   3.337 -0.2719 -0.0722  0.7613
  181DG     H20 4160   1.215   4.644   3.481  2.6334  1.3243 -0.4927
  181DG     H21 4161   1.121   4.567   3.355 -0.8383 -0.2538  1.6400
  181DG     H22 4162   1.062   4.845   3.495 -0.5401  1.0471  0.6449
  181DG     H23 4163   0.954   4.730   3.414 -1.4135  1.2104  2.5137
  182DG      C1 4164   3.069   3.778   1.783 -0.5950 -0.2330 -0.3525
  182DG      C2 4165   3.197   3.229   2.143 -0.9829 -0.4405  0.6547
  182DG      H3 4166   2.975   3.816   1.821  0.0539 -0.3302  1.5034
  182DG      H4 4167   3.095   3.817   1.685 -1.3144  0.4482 -0.2732
  182DG      H5 4168   3.139   3.827   1.851  0.6662  0.2608 -1.9369
  182DG      H6 4169   3.289   3.175   2.121 -0.5492 -0.4195  2.2914
  182DG      H7 4170   3.215   3.324   2.194  0.3444 -1.6113  2.4792
  182DG      H8 4171   3.121   3.174   2.199 -0.7866 -1.9348 -0.4991
  182DG      O9 4172   3.065   3.637   1.799 -0.5083 -0.6719  0.0059
  182DG     O10 4173   3.137   3.267   2.021 -0.1452 -0.5282 -0.1063
  182DG     C11 4174   2.957   3.582   1.720 -1.0636 -0.4680 -0.6010
  182DG     C12 4175   3.031   3.175   1.984 -0.4698  0.3350  0.2054
  182DG     H13 4176   2.967   3.627   1.621  0.1984 -1.0616 -0.7551
  182DG     H14 4177   2.858   3.616   1.752 -0.3016  0.0466  1.3426
  182DG     H15 4178   2.951   3.148   2.052 -2.0847 -0.3011 -1.8308
  182DG     H16 4179   3.090   3.087   1.958 -0.2203  0.1526  1.3377
  182DG     C17 4180   2.956   3.431   1.722  0.2392  0.2455  0.3994
  182DG     C18 4181   2.973   3.234   1.857 -0.3435 -0.5923  0.1436
  182DG     O19 4182   2.965   3.376   1.859 -0.4377  0.2214 -0.6342
  182DG     H20 4183   3.045   3.403   1.666 -0.0096  0.7799 -0.2714
  182DG     H21 4184   2.869   3.393   1.669 -1.0453  2.1449  1.0228
  182DG     H22 4185   3.033   3.205   1.771  0.2464 -1.1499  0.7314
  182DG     H23 4186   2.874   3.191   1.839 -1.6392  2.7654 -1.6462
  183DG      C1 4187   3.976   3.455   3.447  0.6164  0.1056 -0.5543
  183DG      C2 4188   4.469   3.471   3.930  0.2059 -0.4285  0.0699
  183DG      H3 4189   3.881   3.418   3.407  0.1560 -0.6399  1.1546
  183DG      H4 4190   4.059   3.412   3.392  0.5945 -1.7250  0.7831
  183DG      H5 4191   3.977   3.562   3.425  1.5361  0.7893  2.3976
  183DG      H6 4192   4.414   3.471   3.835 -0.6494  2.0007  0.4829
  183DG      H7 4193   4.499   3.575   3.945 -1.2074  0.5672 -3.0059
  183DG      H8 4194   4.555   3.406   3.914  2.6683  2.1408  1.9105
  183DG      O9 4195   3.973   3.418   3.581 -0.0868  0.0351 -0.4906
  183DG     O10 4196   4.397   3.406   4.031 -0.3382  0.0745 -0.4140
  183DG     C11 4197   4.080   3.469   3.657  0.3500  0.5142  0.4414
  183DG     C12 4198   4.283   3.463   4.096 -0.1625  0.1358  0.6620
  183DG     H13 4199   4.087   3.575   3.630  2.0209  0.0101 -1.3544
  183DG     H14 4200   4.164   3.413   3.617 -0.4588  0.6365 -1.5594
  183DG     H15 4201   4.286   3.570   4.115 -1.2517  0.2960  0.0371
  183DG     H16 4202   4.267   3.412   4.191 -0.8951  1.1325  1.0839
  183DG     C17 4203   4.053   3.452   3.806  0.0695 -0.3698 -0.0490
  183DG     C18 4204   4.158   3.441   4.007  0.6288  0.2742  0.2816
  183DG     O19 4205   4.179   3.473   3.871  0.5163  0.3106 -0.1515
  183DG     H20 4206   4.021   3.348   3.812  1.4000 -0.8231 -0.3971
  183DG     H21 4207   3.980   3.521   3.848  2.3006  1.9372  0.3300
  183DG     H22 4208   4.130   3.336   4.019  3.7946 -0.5535  1.2397
  183DG     H23 4209   4.074   3.494   4.053 -0.2396  1.0779 -2.0862
  184DG      C1 4210   2.514   1.518   1.989  0.2547 -0.5575 -0.2973
  184DG      C2 4211   2.608   1.955   2.576  0.4632  1.0204  0.1275
  184DG      H3 4212   2.413   1.486   1.965 -0.7055  1.4217  0.8741
  184DG      H4 4213   2.572   1.434   2.028  0.1318  0.5223  2.4299
  184DG      H5 4214   2.560   1.551   1.896 -1.8133  1.8659 -0.5537
  184DG      H6 4215   2.578   2.042   2.634 -0.2856  0.9218 -0.0994
  184DG      H7 4216   2.535   1.875   2.584  1.1600  0.3473 -0.0598
  184DG      H8 4217   2.689   1.907   2.632 -1.5398 -0.3799  1.9799
  184DG      O9 4218   2.501   1.626   2.078 -0.3444 -0.4037  0.6893
  184DG     O10 4219   2.645   1.971   2.438 -0.1376 -0.5460 -0.9926
  184DG     C11 4220   2.426   1.588   2.195  0.2284  0.0031 -0.2773
  184DG     C12 4221   2.541   2.017   2.356 -0.4180  0.3678 -0.7541
  184DG     H13 4222   2.466   1.526   2.275  0.1875  0.7030  0.2972
  184DG     H14 4223   2.337   1.534   2.162  0.5084 -0.8803  0.3809
  184DG     H15 4224   2.576   2.036   2.254  0.8676  1.8156 -0.0882
  184DG     H16 4225   2.504   2.115   2.387 -2.1510 -0.4284 -0.1690
  184DG     C17 4226   2.370   1.707   2.268  0.6319 -0.0524 -0.1307
  184DG     C18 4227   2.425   1.929   2.326  0.2868  0.0125  0.5034
  184DG     O19 4228   2.468   1.810   2.266 -0.5209 -0.0220  0.5100
  184DG     H20 4229   2.332   1.673   2.364 -0.7163  0.0237 -0.6022
  184DG     H21 4230   2.291   1.754   2.209  0.5815  2.1158  1.5217
  184DG     H22 4231   2.382   1.909   2.424 -1.8154  2.4476  0.2050
  184DG     H23 4232   2.353   1.975   2.258 -1.1627 -1.6265  0.8454
  185DG      C1 4233   2.570   0.210   3.185 -0.4847 -0.1386 -0.3624
  185DG      C2 4234   2.493   0.905   2.956 -0.7420  0.2989 -0.0455
  185DG      H3 4235   2.484   0.143   3.173 -2.0516  1.6542  0.3864
  185DG      H4 4236   2.611   0.193   3.285  0.5336 -0.6817 -0.8502
  185DG      H5 4237   2.652   0.174   3.123  0.8400  0.4133  1.0019
  185DG      H6 4238   2.387   0.897   2.929 -0.6575 -1.7022  0.0561
  185DG      H7 4239   2.519   1.010   2.971  0.7777 -0.2751  1.6325
  185DG      H8 4240   2.561   0.880   2.875  0.3243 -0.2321  0.9740
  185DG      O9 4241   2.544   0.345   3.154 -0.1395  0.8491 -0.4214
  185DG     O10 4242   2.538   0.832   3.068 -0.3295  0.1237 -0.1907
  185DG     C11 4243   2.488   0.412   3.271 -0.1023 -1.2446 -0.5918
  185DG     C12 4244   2.456   0.841   3.182  0.3622 -0.0978  0.4062
  185DG     H13 4245   2.557   0.418   3.355 -1.4186  1.1384  0.4553
  185DG     H14 4246   2.392   0.372   3.304 -2.2544  3.9250  0.5240
  185DG     H15 4247   2.361   0.794   3.159  0.5658  0.2636 -1.2646
  185DG     H16 4248   2.441   0.945   3.211  0.0241 -0.2905  0.9469
  185DG     C17 4249   2.454   0.557   3.243 -0.0511 -0.2416  0.1689
  185DG     C18 4250   2.525   0.774   3.309  0.1815 -0.3748  0.0695
  185DG     O19 4251   2.557   0.639   3.296  0.2148 -0.2344 -0.6121
  185DG     H20 4252   2.355   0.584   3.280  0.6338 -0.8055  2.5736
  185DG     H21 4253   2.451   0.575   3.135 -2.8391  1.2117  0.3758
  185DG     H22 4254   2.617   0.830   3.322 -0.6013  0.7411  1.0048
  185DG     H23 4255   2.477   0.792   3.405  0.1487 -1.0878  0.1926
  186DG      C1 4256   3.277   4.540   2.722 -0.9150  0.0751  0.1943
  186DG      C2 4257   3.668   5.054   2.744 -0.7842 -0.0337  0.1584
  186DG      H3 4258   3.306   4.594   2.632 -3.0101 -0.9951 -1.2026
  186DG      H4 4259   3.181   4.497   2.693 -1.1460  1.9121 -2.1301
  186DG      H5 4260   3.345   4.457   2.741 -0.1930 -0.1297 -2.7500
  186DG      H6 4261   3.745   5.123   2.779  1.2068 -1.9596 -0.2095
  186DG      H7 4262   3.726   4.986   2.681 -1.7710  0.5295 -1.4107
  186DG      H8 4263   3.599   5.103   2.676  0.2488  0.1183 -0.7936
  186DG      O9 4264   3.276   4.630   2.834 -0.1097 -0.0805  0.3577
  186DG     O10 4265   3.604   4.984   2.846  0.0821  0.3750  0.0889
  186DG     C11 4266   3.182   4.742   2.840 -0.1303  0.6746 -0.6949
  186DG     C12 4267   3.515   5.066   2.922 -0.0643 -0.3436  0.1800
  186DG     H13 4268   3.083   4.700   2.854  0.8633 -1.8624 -0.7559
  186DG     H14 4269   3.176   4.795   2.745  0.6403  2.9216  0.4257
  186DG     H15 4270   3.462   5.131   2.853  0.0880 -1.0219 -0.5892
  186DG     H16 4271   3.563   5.138   2.988 -1.0422 -0.2827  0.8554
  186DG     C17 4272   3.228   4.831   2.949 -0.0226 -0.4857 -0.1159
  186DG     C18 4273   3.412   4.983   2.994 -0.1621  0.7937 -0.4310
  186DG     O19 4274   3.352   4.883   2.903 -0.0069  0.5147 -0.3438
  186DG     H20 4275   3.236   4.762   3.033 -0.6311 -0.4615 -0.0285
  186DG     H21 4276   3.160   4.915   2.962 -1.4472 -1.6801  0.4239
  186DG     H22 4277   3.455   4.928   3.078 -1.6618  2.4279  1.5116
  186DG     H23 4278   3.334   5.044   3.040 -2.0083 -1.7576  0.1003
  187DG      C1 4279   2.862   3.127   2.877 -0.3252 -0.2177 -0.7277
  187DG      C2 4280   2.206   2.832   2.906  0.2292 -0.7572 -0.5183
  187DG      H3 4281   2.919   3.213   2.841  1.5783 -1.5624 -1.1109
  187DG      H4 4282   2.912   3.034   2.849 -2.0838 -1.5266  0.2791
  187DG      H5 4283   2.861   3.130   2.986 -2.2657  0.4613 -0.7284
  187DG      H6 4284   2.130   2.812   2.830 -2.1857 -0.8251  1.7666
  187DG      H7 4285   2.267   2.742   2.919  2.3701  0.8854  1.5735
  187DG      H8 4286   2.170   2.853   3.006  0.8265  0.6067 -0.5758
  187DG      O9 4287   2.724   3.119   2.839  0.2647 -0.0407  0.7381
  187DG     O10 4288   2.287   2.935   2.866  0.0501 -0.3363 -0.1224
  187DG     C11 4289   2.666   3.234   2.890  0.2003  0.0671  0.2261
  187DG     C12 4290   2.234   3.059   2.893 -0.4160  0.3206  0.2551
  187DG     H13 4291   2.717   3.324   2.858 -0.8584  0.3328 -0.7848
  187DG     H14 4292   2.653   3.236   2.998 -1.8693  3.3553  0.0224
  187DG     H15 4293   2.233   3.073   3.001  0.2728  0.2918  0.2693
  187DG     H16 4294   2.132   3.060   2.854 -0.4259  0.1604  0.2786
  187DG     C17 4295   2.533   3.247   2.829  1.0645  0.0552 -0.3496
  187DG     C18 4296   2.319   3.169   2.825  0.3917  0.1317  0.1676
  187DG     O19 4297   2.451   3.146   2.881  0.3434 -0.0529 -0.0120
  187DG     H20 4298   2.535   3.230   2.722 -3.0086  1.8644 -0.8940
  187DG     H21 4299   2.501   3.349   2.851  2.0889  0.8284 -2.2343
  187DG     H22 4300   2.314   3.162   2.716 -0.8329 -2.6587  0.3092
  187DG     H23 4301   2.281   3.270   2.840 -1.3621 -0.0532 -2.3381
  188DG      C1 4302   2.403   5.424   2.606  0.4858 -0.1363  0.3344
  188DG      C2 4303   2.177   5.607   3.232  0.0328  0.3679  0.3317
  188DG      H3 4304   2.312   5.445   2.551  0.8585  0.6441  0.0141
  188DG      H4 4305   2.470   5.365   2.543 -1.2433  1.1452 -2.9180
  188DG      H5 4306   2.460   5.516   2.617  2.2755 -1.0427 -0.9028
  188DG      H6 4307   2.254   5.684   3.224  1.8515 -1.3434  0.4584
  188DG      H7 4308   2.095   5.646   3.172  0.4874  1.9436  0.7025
  188DG      H8 4309   2.141   5.605   3.334  0.0601 -0.3876  0.3317
  188DG      O9 4310   2.378   5.364   2.730 -0.1623  0.0242  0.1157
  188DG     O10 4311   2.211   5.489   3.161  0.3395  0.4258  0.1266
  188DG     C11 4312   2.498   5.323   2.795  0.6888 -0.6374 -0.2650
  188DG     C12 4313   2.307   5.405   3.223 -0.5174  0.2841 -0.2679
  188DG     H13 4314   2.553   5.414   2.817  0.5937 -1.2393  2.9513
  188DG     H14 4315   2.556   5.260   2.727 -0.3555 -0.3493 -1.4731
  188DG     H15 4316   2.287   5.362   3.322  0.2441 -0.2923 -0.3532
  188DG     H16 4317   2.400   5.459   3.241 -0.6758  1.2879 -2.2158
  188DG     C17 4318   2.454   5.255   2.923  0.3951  0.1559 -0.3882
  188DG     C18 4319   2.343   5.291   3.128  0.5161 -0.1001  0.3093
  188DG     O19 4320   2.384   5.348   3.005 -0.3363  0.6943  0.1897
  188DG     H20 4321   2.541   5.206   2.967 -2.1431 -2.1309  2.5926
  188DG     H21 4322   2.391   5.176   2.883  1.6112  0.3331 -2.8209
  188DG     H22 4323   2.424   5.225   3.160  0.8165 -0.7741 -1.7099
  188DG     H23 4324   2.246   5.241   3.121 -0.9879  2.8198 -1.5924
  189DG      C1 4325   0.109   3.706   2.310 -0.2710  0.3760 -0.6481
  189DG      C2 4326  -0.161   3.762   1.690 -0.5787 -0.5413 -0.0088
  189DG      H3 4327   0.006   3.733   2.333  0.1499 -0.7765  3.4489
  189DG      H4 4328   0.171   3.777   2.364  2.4328  0.0680 -3.1188
  189DG      H5 4329   0.125   3.604   2.345 -1.7351  1.0973  2.5033
  189DG      H6 4330  -0.249   3.739   1.750 -1.3863 -0.3123 -1.0713
  189DG      H7 4331  -0.173   3.860   1.643 -1.6066 -0.5856  0.1388
  189DG      H8 4332  -0.164   3.675   1.624 -3.2730  0.6363 -1.6068
  189DG      O9 4333   0.143   3.711   2.170 -0.0727 -0.1443  0.2413
  189DG     O10 4334  -0.045   3.768   1.769 -0.1768  0.5622 -0.8780
  189DG     C11 4335   0.251   3.632   2.128  0.5781 -0.0234  0.2719
  189DG     C12 4336   0.077   3.740   1.697  0.2477  0.8729  0.2420
  189DG     H13 4337   0.211   3.531   2.121  0.2645  0.1703 -0.8813
  189DG     H14 4338   0.336   3.650   2.193  1.4676 -0.6049 -0.6922
  189DG     H15 4339   0.081   3.814   1.617 -3.9395  0.4935 -0.5446
  189DG     H16 4340   0.076   3.653   1.632  1.2486  0.9344  0.1348
  189DG     C17 4341   0.294   3.668   1.986  0.1481 -0.2635  0.0336
  189DG     C18 4342   0.205   3.749   1.784  0.5051 -0.4834 -0.3115
  189DG     O19 4343   0.181   3.684   1.906  0.4343 -0.1757 -0.1428
  189DG     H20 4344   0.349   3.589   1.935  1.2855  1.5716 -1.7215
  189DG     H21 4345   0.351   3.761   1.978 -0.2649 -0.0738 -0.8336
  189DG     H22 4346   0.297   3.714   1.737  0.9176  0.4003 -0.1603
  189DG     H23 4347   0.231   3.853   1.802 -2.3421 -0.2185  3.4440
  190DG      C1 4348   1.291   2.888   1.306  0.3368 -0.3618 -0.3391
  190DG      C2 4349   0.944   2.346   1.204 -0.1366 -0.2962  0.2513
  190DG      H3 4350   1.210   2.904   1.236  0.2427 -0.2662 -0.2108
  190DG      H4 4351   1.368   2.958   1.274  0.0082 -0.5351 -1.5296
  190DG      H5 4352   1.253   2.930   1.400  1.5170  2.0357 -0.8408
  190DG      H6 4353   0.944   2.237   1.207 -0.2436 -0.2846  1.2082
  190DG      H7 4354   0.868   2.370   1.279  1.6286  1.0646  1.7113
  190DG      H8 4355   0.907   2.394   1.114 -1.2404  0.7570  1.2215
  190DG      O9 4356   1.324   2.753   1.319 -0.5937  0.4967  0.4093
  190DG     O10 4357   1.062   2.403   1.247 -0.2847 -0.1565  0.0645
  190DG     C11 4358   1.362   2.718   1.452 -0.3411 -0.0105  0.2117
  190DG     C12 4359   1.137   2.315   1.332  0.1682 -0.0511 -0.0814
  190DG     H13 4360   1.293   2.768   1.519 -0.2682  1.0448 -0.4712
  190DG     H14 4361   1.464   2.756   1.458 -0.3984  0.3433 -0.8969
  190DG     H15 4362   1.172   2.230   1.274  1.4580 -0.2215  0.9070
  190DG     H16 4363   1.084   2.287   1.423  0.8332  0.6010  0.5168
  190DG     C17 4364   1.376   2.568   1.464  0.0666  0.3312  0.0493
  190DG     C18 4365   1.270   2.377   1.370 -1.2206  0.8931 -0.3977
  190DG     O19 4366   1.258   2.510   1.416 -0.0915  0.4975  0.3878
  190DG     H20 4367   1.372   2.542   1.570 -0.7128  0.8728  0.1673
  190DG     H21 4368   1.467   2.519   1.431  0.5905  0.1001  1.7344
  190DG     H22 4369   1.308   2.316   1.452  1.2896  1.8021 -0.8127
  190DG     H23 4370   1.348   2.379   1.293 -1.6327  0.2254 -0.8447
  191DG      C1 4371   4.840   4.433   1.544  0.3511 -0.2740  0.5408
  191DG      C2 4372   4.171   4.594   1.337 -0.4674 -0.4031  0.3577
  191DG      H3 4373   4.932   4.433   1.603  1.4137 -2.1188 -0.9888
  191DG      H4 4374   4.855   4.510   1.469 -2.4626  1.3518  1.4809
  191DG      H5 4375   4.857   4.350   1.475 -0.8984  0.7906 -1.1161
  191DG      H6 4376   4.189   4.553   1.238 -1.4909 -0.2427  0.0832
  191DG      H7 4377   4.070   4.554   1.347 -0.9191 -0.3214 -2.8010
  191DG      H8 4378   4.154   4.702   1.331  2.1437  0.0204 -1.2833
  191DG      O9 4379   4.712   4.431   1.599 -0.0138  0.0067 -0.0066
  191DG     O10 4380   4.265   4.567   1.433  0.2922  0.1994  0.3823
  191DG     C11 4381   4.697   4.533   1.693 -0.0980  0.1676 -0.4313
  191DG     C12 4382   4.248   4.628   1.555  0.3290 -0.1098  0.1324
  191DG     H13 4383   4.729   4.631   1.656 -0.4811  1.2313  1.8663
  191DG     H14 4384   4.767   4.505   1.772  0.4353 -2.3806 -1.7327
  191DG     H15 4385   4.147   4.642   1.594 -0.8852 -0.8241 -2.5409
  191DG     H16 4386   4.284   4.731   1.558 -0.0621  0.0082  1.0946
  191DG     C17 4387   4.553   4.542   1.744 -0.3914 -0.4224  0.0466
  191DG     C18 4388   4.330   4.563   1.671  0.8633 -0.0450 -0.4203
  191DG     O19 4389   4.464   4.574   1.642  0.2711 -0.0300  0.8571
  191DG     H20 4390   4.545   4.615   1.825 -0.4765 -0.5807  0.1807
  191DG     H21 4391   4.530   4.443   1.782 -1.3499  0.4108  1.7492
  191DG     H22 4392   4.306   4.611   1.766  0.8560 -0.9180  0.0325
  191DG     H23 4393   4.296   4.459   1.668  0.1521  0.2025 -1.5999
  192DG      C1 4394   5.498   1.424   1.335 -0.6507 -0.0644 -0.1010
  192DG      C2 4395   5.916   1.424   0.819  0.1848  0.7496 -0.1475
  192DG      H3 4396   5.435   1.462   1.255  0.5500 -0.3241 -1.1920
  192DG      H4 4397   5.475   1.457   1.437 -1.4024 -0.5834 -0.0977
  192DG      H5 4398   5.486   1.316   1.342  2.0500 -0.4451 -0.1447
  192DG      H6 4399   6.012   1.472   0.801  0.5707  0.7529  1.7413
  192DG      H7 4400   5.920   1.333   0.760 -0.2910 -0.0438  1.0047
  192DG      H8 4401   5.834   1.483   0.778 -0.7459 -0.7479 -0.5134
  192DG      O9 4402   5.634   1.450   1.302  0.5111 -0.0429 -0.4566
  192DG     O10 4403   5.893   1.404   0.955  0.0529  0.3958 -0.1875
  192DG     C11 4404   5.721   1.410   1.406  0.5167  0.0133 -0.1201
  192DG     C12 4405   5.972   1.307   1.017  0.8169  0.3599  0.4219
  192DG     H13 4406   5.686   1.310   1.431 -3.6298  0.9043 -1.4070
  192DG     H14 4407   5.696   1.466   1.496 -3.2992  0.8659 -1.5004
  192DG     H15 4408   6.066   1.280   0.969 -0.9041 -0.8069 -2.5470
  192DG     H16 4409   5.918   1.213   1.008 -0.3181  1.1244 -1.2150
  192DG     C17 4410   5.862   1.433   1.355 -0.5942 -0.4182 -0.1751
  192DG     C18 4411   5.991   1.354   1.165  0.0908  0.7330  0.0632
  192DG     O19 4412   5.868   1.369   1.232 -0.2650 -0.1878  0.1576
  192DG     H20 4413   5.932   1.389   1.425 -0.1673  0.8511  0.2217
  192DG     H21 4414   5.887   1.537   1.332 -0.2290  0.4333  3.5135
  192DG     H22 4415   6.044   1.269   1.207  2.2292  1.1163 -1.6908
  192DG     H23 4416   6.059   1.439   1.167  1.1969 -0.0729 -1.2853
  193DG      C1 4417   1.309   4.148   1.724  0.3753 -0.0191  0.5002
  193DG      C2 4418   0.904   4.107   2.174  0.2485 -0.4117 -0.2951
  193DG      H3 4419   1.374   4.128   1.639 -1.8182 -1.0543 -1.0605
  193DG      H4 4420   1.369   4.207   1.792 -0.0939  0.8013  0.2162
  193DG      H5 4421   1.225   4.213   1.701  0.6069 -0.3775 -1.6091
  193DG      H6 4422   0.974   4.185   2.205 -2.4552  2.4695 -0.8975
  193DG      H7 4423   0.828   4.160   2.116 -1.1706  0.3959  2.1172
  193DG      H8 4424   0.844   4.066   2.255 -1.0674 -0.5975 -1.3287
  193DG      O9 4425   1.254   4.030   1.777  0.1059  0.2969  0.0376
  193DG     O10 4426   0.976   4.001   2.111  0.3745  0.3635 -0.7404
  193DG     C11 4427   1.171   3.970   1.684  0.2591 -0.0008  0.3393
  193DG     C12 4428   0.900   3.892   2.055 -0.5510 -0.0578  0.0902
  193DG     H13 4429   1.241   3.912   1.624  2.4065  0.1550  2.5699
  193DG     H14 4430   1.109   4.045   1.634  1.0035 -0.5540 -1.4947
  193DG     H15 4431   0.818   3.941   2.002  1.5553  1.4435 -2.0083
  193DG     H16 4432   0.846   3.824   2.121  1.4562 -0.6518  1.2041
  193DG     C17 4433   1.075   3.874   1.744  0.9933  0.0233 -0.1028
  193DG     C18 4434   0.979   3.821   1.951  0.6225 -0.7826 -0.3199
  193DG     O19 4435   1.031   3.925   1.868 -0.3722 -0.3794  0.2507
  193DG     H20 4436   1.119   3.776   1.757  0.4812 -0.2337 -0.2892
  193DG     H21 4437   0.988   3.851   1.682  0.2152  2.5596 -0.0754
  193DG     H22 4438   1.067   3.781   2.001  1.4587  0.8940 -0.3685
  193DG     H23 4439   0.912   3.752   1.899 -0.4304 -0.3945  0.4745
  194DG      C1 4440   1.450   5.291   2.383 -0.3467  0.0823 -0.1861
  194DG      C2 4441   2.147   5.121   2.186 -0.5415 -0.3561 -0.1613
  194DG      H3 4442   1.406   5.196   2.353 -0.1954  0.5570 -1.9973
  194DG      H4 4443   1.444   5.350   2.292  1.2273 -1.3066 -1.2572
  194DG      H5 4444   1.397   5.331   2.469 -1.0247  0.5329 -0.8030
  194DG      H6 4445   2.149   5.029   2.128  1.7198  0.7514 -2.0281
  194DG      H7 4446   2.097   5.199   2.129  0.7756  2.0110  1.7012
  194DG      H8 4447   2.251   5.154   2.200 -0.0457 -2.4286  1.6418
  194DG      O9 4448   1.589   5.277   2.397 -0.5450 -0.0990  0.0342
  194DG     O10 4449   2.084   5.104   2.306 -0.2604 -0.3374 -0.1116
  194DG     C11 4450   1.626   5.190   2.506  0.1971  0.7456  0.2715
  194DG     C12 4451   2.083   5.223   2.386 -0.0246  0.1466  0.2488
  194DG     H13 4452   1.625   5.090   2.462 -3.2781  1.6412 -2.1135
  194DG     H14 4453   1.551   5.187   2.585 -1.1591  0.4202 -0.9753
  194DG     H15 4454   2.053   5.309   2.325  1.2052  0.4125 -0.0187
  194DG     H16 4455   2.186   5.237   2.420 -0.1060 -0.3440  0.6970
  194DG     C17 4456   1.765   5.219   2.558  0.7079 -0.1099  0.3893
  194DG     C18 4457   1.994   5.200   2.511  0.4698  0.3617 -0.1875
  194DG     O19 4458   1.862   5.189   2.460  0.4370  0.4052  0.0874
  194DG     H20 4459   1.775   5.168   2.654  0.2430  0.8412  0.9582
  194DG     H21 4460   1.781   5.326   2.572  0.8926 -0.1667  0.6125
  194DG     H22 4461   2.020   5.107   2.561  0.3955  1.9239  3.0448
  194DG     H23 4462   2.010   5.277   2.587 -1.2580 -1.0857  1.7659
  195DG      C1 4463   4.287   4.851   4.698  0.0788 -0.0661 -0.1282
  195DG      C2 4464   4.280   4.946   4.043  0.1032  0.2887 -0.6378
  195DG      H3 4465   4.179   4.847   4.682  0.1476  0.6070 -0.8284
  195DG      H4 4466   4.312   4.903   4.790  0.7109 -0.6472  0.0425
  195DG      H5 4467   4.319   4.748   4.718 -0.0307  0.4750  3.6258
  195DG      H6 4468   4.313   5.014   3.964 -0.4941  1.7185  0.2976
  195DG      H7 4469   4.290   4.846   4.000 -2.4409  0.1732 -1.1302
  195DG      H8 4470   4.174   4.950   4.067  0.3543 -2.4932  1.4816
  195DG      O9 4471   4.353   4.904   4.584 -0.2681  0.4180 -0.8697
  195DG     O10 4472   4.363   4.950   4.163  0.1896  0.4161 -0.1518
  195DG     C11 4473   4.491   4.898   4.596  0.2830  0.7698 -0.5056
  195DG     C12 4474   4.497   4.954   4.133 -0.1363  0.4091 -0.0600
  195DG     H13 4475   4.516   4.793   4.612 -1.0950  0.4295 -0.5235
  195DG     H14 4476   4.531   4.943   4.687  1.9874  2.0301 -1.8000
  195DG     H15 4477   4.510   5.034   4.060 -1.2051 -0.7813 -1.6256
  195DG     H16 4478   4.520   4.857   4.087  0.8696  1.3663 -1.6866
  195DG     C17 4479   4.576   4.950   4.487 -0.2314 -0.1790 -0.4631
  195DG     C18 4480   4.581   4.982   4.260 -0.6038 -0.3688 -0.3070
  195DG     O19 4481   4.521   4.906   4.365 -0.1180  0.1632  0.0252
  195DG     H20 4482   4.677   4.913   4.509  0.5141  1.1162 -1.5125
  195DG     H21 4483   4.584   5.059   4.491 -2.0587 -0.0496  0.2282
  195DG     H22 4484   4.682   4.942   4.258 -0.1991  0.4626  1.5762
  195DG     H23 4485   4.572   5.088   4.283  0.5009 -0.3527  0.1004
  196DG      C1 4486   5.181   0.790   4.020 -0.9211  0.4979  0.2663
  196DG      C2 4487   4.693   1.234   4.645 -0.0815 -0.8362  0.4896
  196DG      H3 4488   5.150   0.699   3.970 -3.1742  1.1726  0.3323
  196DG      H4 4489   5.259   0.765   4.092 -0.6559 -0.0863 -0.2093
  196DG      H5 4490   5.222   0.852   3.940 -0.7863 -0.3167 -0.3120
  196DG      H6 4491   4.793   1.271   4.666 -0.4030 -0.5714  1.6934
  196DG      H7 4492   4.641   1.313   4.590 -0.1168 -1.3484 -0.2171
  196DG      H8 4493   4.635   1.211   4.735 -2.3038  3.6013  0.4889
  196DG      O9 4494   5.062   0.844   4.073 -0.0092 -0.0970  0.7896
  196DG     O10 4495   4.708   1.120   4.563 -0.5425  0.4398  0.2225
  196DG     C11 4496   5.003   0.761   4.170  0.1627  0.0352 -0.8197
  196DG     C12 4497   4.811   1.115   4.456  0.4403 -0.2355 -0.0455
  196DG     H13 4498   5.087   0.745   4.237  1.9254  0.4206 -2.8279
  196DG     H14 4499   4.978   0.663   4.127  0.2259 -0.4324  0.1797
  196DG     H15 4500   4.913   1.141   4.485  0.5523  1.6108 -1.8092
  196DG     H16 4501   4.795   1.195   4.383 -0.4194  0.2280  0.6376
  196DG     C17 4502   4.878   0.825   4.226 -0.2873 -0.1508  0.1539
  196DG     C18 4503   4.793   0.988   4.379 -0.1294  0.5446  0.3746
  196DG     O19 4504   4.903   0.952   4.292  0.0468 -0.2999 -0.5940
  196DG     H20 4505   4.829   0.759   4.297  0.3543 -0.6374  0.1534
  196DG     H21 4506   4.824   0.846   4.134  2.3490  2.0403 -1.0570
  196DG     H22 4507   4.773   0.917   4.459  0.2479  0.9401  0.8260
  196DG     H23 4508   4.703   0.987   4.318  1.1979 -0.6353 -1.6696
  197DG      C1 4509   2.149   1.453   0.580 -0.1972 -0.1025  0.9317
  197DG      C2 4510   2.240   2.207   0.366  0.3727 -0.3294 -0.1069
  197DG      H3 4511   2.070   1.392   0.536  0.1265 -0.0242  0.2159
  197DG      H4 4512   2.119   1.510   0.668  0.3040  0.4883  0.7240
  197DG      H5 4513   2.231   1.389   0.610  0.2510 -0.0951 -0.2254
  197DG      H6 4514   2.158   2.207   0.438 -1.5455 -0.9383 -2.1553
  197DG      H7 4515   2.334   2.227   0.418  2.0561  1.1673 -3.4155
  197DG      H8 4516   2.217   2.274   0.283 -0.2482 -0.0899  0.2491
  197DG      O9 4517   2.203   1.543   0.489 -0.5083  0.0599 -0.0393
  197DG     O10 4518   2.246   2.074   0.312 -0.1062 -0.0657  0.4713
  197DG     C11 4519   2.116   1.639   0.428  0.8672  0.3488  0.4763
  197DG     C12 4520   2.371   2.013   0.277 -0.6769 -0.3813 -0.2088
  197DG     H13 4521   2.078   1.719   0.492 -1.3047 -0.2370  0.0026
  197DG     H14 4522   2.026   1.583   0.402 -0.8642  3.4116 -0.6871
  197DG     H15 4523   2.432   2.013   0.368  0.4398  0.4934 -0.9363
  197DG     H16 4524   2.428   2.074   0.208  0.1832 -1.8715 -0.8598
  197DG     C17 4525   2.184   1.705   0.309  0.6715 -0.7066  0.4340
  197DG     C18 4526   2.342   1.873   0.235 -0.2924 -0.1458 -0.4171
  197DG     O19 4527   2.269   1.810   0.343  0.0409 -0.7583  0.2777
  197DG     H20 4528   2.105   1.753   0.251  0.0888  0.5069  2.1413
  197DG     H21 4529   2.247   1.631   0.259 -0.9963 -1.7222 -0.2609
  197DG     H22 4530   2.283   1.872   0.143  2.1559 -1.3439 -2.0772
  197DG     H23 4531   2.433   1.818   0.212  1.4144  2.2451  0.3192
  198DG      C1 4532   4.494   3.109   3.616 -0.0764 -0.5376 -0.1816
  198DG      C2 4533   4.763   2.626   3.950 -0.0035  0.7342  0.3593
  198DG      H3 4534   4.574   3.182   3.602 -0.4599 -0.5512 -2.9014
  198DG      H4 4535   4.398   3.161   3.610  0.2377 -0.0815 -1.4912
  198DG      H5 4536   4.506   3.033   3.539  1.2513 -0.8683  0.3328
  198DG      H6 4537   4.844   2.695   3.927  0.0091  0.2870 -1.0752
  198DG      H7 4538   4.802   2.560   4.027 -0.6045  0.8411  0.7642
  198DG      H8 4539   4.766   2.559   3.864 -1.1868  2.1197 -0.8158
  198DG      O9 4540   4.495   3.038   3.742  0.4670  0.1563  0.0008
  198DG     O10 4541   4.646   2.692   3.985  0.0857  0.2081 -0.3516
  198DG     C11 4542   4.453   3.122   3.850 -0.2725 -0.1303 -0.1895
  198DG     C12 4543   4.656   2.772   4.100  0.2763 -0.1111 -0.0272
  198DG     H13 4544   4.366   3.184   3.827  0.4587  0.9493 -0.1219
  198DG     H14 4545   4.538   3.185   3.877 -0.6217  0.7145 -1.0019
  198DG     H15 4546   4.740   2.842   4.093 -0.0449  0.4069  1.0422
  198DG     H16 4547   4.659   2.707   4.186 -1.2894  0.9228  0.8473
  198DG     C17 4548   4.432   3.032   3.974 -0.6017 -0.4392 -0.5753
  198DG     C18 4549   4.528   2.867   4.094 -0.5675 -0.1757 -0.1559
  198DG     O19 4550   4.524   2.927   3.968  0.2251  0.3420 -0.4357
  198DG     H20 4551   4.332   2.988   3.965  0.1876 -2.2745 -0.6879
  198DG     H21 4552   4.422   3.092   4.065 -4.8432 -0.1888 -0.9754
  198DG     H22 4553   4.432   2.820   4.117 -0.7577  1.4003  2.7354
  198DG     H23 4554   4.551   2.933   4.177 -0.4133 -2.2077  1.4976
  199DG      C1 4555   0.953   3.370   3.977 -0.7262  0.1726 -0.0254
  199DG      C2 4556   1.208   2.842   3.665  0.1849  0.6785 -0.7870
  199DG      H3 4557   0.945   3.475   4.003 -2.5078 -0.0523  0.4549
  199DG      H4 4558   1.038   3.341   4.038 -1.1863 -0.4173  0.3453
  199DG      H5 4559   0.870   3.313   4.017  0.9138 -1.4463  1.2212
  199DG      H6 4560   1.207   2.815   3.559  1.1243  1.3179 -0.9671
  199DG      H7 4561   1.276   2.785   3.727  0.0150  0.5990 -0.6741
  199DG      H8 4562   1.109   2.820   3.704  0.5475  1.2002  0.4690
  199DG      O9 4563   0.980   3.327   3.844  0.1835 -0.2113  0.1204
  199DG     O10 4564   1.211   2.984   3.669 -0.5406 -0.3134 -0.0782
  199DG     C11 4565   1.086   3.401   3.782  0.1846  0.3200 -0.4033
  199DG     C12 4566   1.331   3.038   3.621  0.7305 -0.1869  0.1398
  199DG     H13 4567   1.166   3.411   3.855  1.2948  0.6518 -1.6186
  199DG     H14 4568   1.054   3.505   3.768  1.3810  0.6769 -0.5436
  199DG     H15 4569   1.366   2.989   3.530  0.0859 -1.3697  0.5132
  199DG     H16 4570   1.407   3.052   3.698 -1.0729  2.9033  1.5511
  199DG     C17 4571   1.129   3.341   3.648 -0.0104  0.3820  0.5058
  199DG     C18 4572   1.279   3.172   3.574 -0.1915 -0.5073  0.4085
  199DG     O19 4573   1.201   3.226   3.685 -0.1060  0.0011  0.1869
  199DG     H20 4574   1.186   3.421   3.602 -0.6628  1.7912  2.0659
  199DG     H21 4575   1.048   3.309   3.582  0.5615 -0.5854  0.2503
  199DG     H22 4576   1.356   3.244   3.549 -0.3520  0.6329  2.8957
  199DG     H23 4577   1.214   3.151   3.489 -1.4379 -0.3904  1.2870
  200DG      C1 4578   5.013   4.289   0.776 -0.9488 -0.1407 -0.2138
  200DG      C2 4579   5.494   4.568   0.198 -0.1335 -0.1643  0.3484
  200DG      H3 4580   5.020   4.373   0.846 -1.5903  1.2673 -1.7616
  200DG      H4 4581   5.061   4.203   0.822 -0.8820 -0.4691 -0.8893
  200DG      H5 4582   4.906   4.268   0.782 -1.1684  0.4952 -1.5302
  200DG      H6 4583   5.552   4.480   0.172  0.9401  0.9068 -1.0308
  200DG      H7 4584   5.430   4.607   0.118  0.8613 -0.4002 -0.5951
  200DG      H8 4585   5.557   4.652   0.225 -0.6659  0.3517  0.0267
  200DG      O9 4586   5.069   4.320   0.646  0.0625  0.0087 -0.4728
  200DG     O10 4587   5.416   4.525   0.313  0.6127 -0.0963 -0.0003
  200DG     C11 4588   5.030   4.216   0.549  0.2678 -0.1735 -0.7058
  200DG     C12 4589   5.330   4.421   0.295  1.2030  0.2983 -0.2996
  200DG     H13 4590   4.923   4.203   0.564  0.6096 -1.8081  0.5821
  200DG     H14 4591   5.074   4.117   0.566  0.1218 -0.4287 -1.7402
  200DG     H15 4592   5.388   4.329   0.286  0.3313 -0.4005  0.9459
  200DG     H16 4593   5.264   4.436   0.209 -0.1897 -1.2901  0.4127
  200DG     C17 4594   5.050   4.251   0.402  0.0551 -0.0015  0.0372
  200DG     C18 4595   5.240   4.392   0.422  0.1390  0.0988 -0.1890
  200DG     O19 4596   5.178   4.278   0.363  0.2457 -0.4318 -0.7936
  200DG     H20 4597   4.989   4.338   0.376 -0.5110 -0.7782 -1.2993
  200DG     H21 4598   5.014   4.169   0.341 -0.8263  1.2615 -1.2109
  200DG     H22 4599   5.300   4.370   0.510 -0.4364  1.3747  0.5380
  200DG     H23 4600   5.169   4.472   0.442 -2.4196 -2.4140  1.6338
  201DG      C1 4601   5.332   3.065   3.647 -0.0047 -0.7868 -0.0251
  201DG      C2 4602   5.232   2.449   3.051  0.0101  0.2986  0.4746
  201DG      H3 4603   5.404   3.140   3.615 -1.0347 -1.2746 -4.0934
  201DG      H4 4604   5.364   3.018   3.740 -2.1774 -1.3832  0.4739
  201DG      H5 4605   5.264   3.145   3.674  1.4557  0.4161  0.2218
  201DG      H6 4606   5.337   2.472   3.035 -0.4958  1.6420 -1.2487
  201DG      H7 4607   5.225   2.364   3.120 -0.2273  0.6085  0.8366
  201DG      H8 4608   5.176   2.416   2.963 -1.4789  2.6277  0.4527
  201DG      O9 4609   5.272   2.976   3.554 -0.1651  0.2137  0.3860
  201DG     O10 4610   5.167   2.566   3.099 -0.2346 -0.0803  0.3029
  201DG     C11 4611   5.231   3.039   3.441 -0.1511 -0.4820  0.7277
  201DG     C12 4612   5.222   2.624   3.211 -0.4145  0.1885  0.3828
  201DG     H13 4613   5.321   3.056   3.382 -0.3708 -2.5616 -0.2827
  201DG     H14 4614   5.185   3.138   3.449  0.5408 -0.0839  0.0020
  201DG     H15 4615   5.329   2.629   3.193 -0.7449  0.9314 -1.6509
  201DG     H16 4616   5.198   2.564   3.299  1.6827  0.9878  1.5581
  201DG     C17 4617   5.136   2.949   3.358  0.1950 -0.2740 -1.0478
  201DG     C18 4618   5.145   2.749   3.232  0.6455 -0.2914 -0.2361
  201DG     O19 4619   5.197   2.821   3.346  0.1029 -0.0740  0.4119
  201DG     H20 4620   5.116   2.995   3.261 -0.8484  1.4912 -0.0425
  201DG     H21 4621   5.039   2.941   3.407  0.1794  1.0352 -0.8292
  201DG     H22 4622   5.159   2.811   3.144 -1.8726  1.6711  0.6000
  201DG     H23 4623   5.037   2.731   3.234  0.8130 -1.4131 -0.7793
  202DG      C1 4624   4.301   1.663   2.586  0.5352  0.8412  0.8652
  202DG      C2 4625   3.733   1.118   2.643  0.0598 -0.6855 -0.6905
  202DG      H3 4626   4.346   1.735   2.655  1.6980  2.7005 -1.6757
  202DG      H4 4627   4.338   1.697   2.489  4.8714  0.2241  2.1036
  202DG      H5 4628   4.348   1.567   2.610  0.6791  1.1887  2.0150
  202DG      H6 4629   3.637   1.144   2.688  0.7059  2.3274 -0.7938
  202DG      H7 4630   3.715   1.067   2.548 -1.9377 -0.0831 -0.6959
  202DG      H8 4631   3.766   1.047   2.718 -0.9608 -2.0725 -1.5010
  202DG      O9 4632   4.155   1.660   2.602  0.1907  0.7917  0.4792
  202DG     O10 4633   3.820   1.229   2.639 -0.1632 -0.6386  0.5869
  202DG     C11 4634   4.101   1.624   2.724  0.0565 -0.4157  0.3483
  202DG     C12 4635   3.794   1.324   2.529  0.1874  0.1022  0.0417
  202DG     H13 4636   4.115   1.700   2.801 -0.4082 -1.3406  1.3810
  202DG     H14 4637   4.137   1.529   2.763 -0.2944 -0.8039 -0.2650
  202DG     H15 4638   3.689   1.317   2.498 -0.2940  0.8102  1.3994
  202DG     H16 4639   3.856   1.296   2.444  1.4590  2.3218  0.1624
  202DG     C17 4640   3.950   1.610   2.721  0.0124  0.3952  0.1230
  202DG     C18 4641   3.806   1.468   2.576 -0.1869 -0.6997  0.0993
  202DG     O19 4642   3.931   1.491   2.639  0.1590  0.4949  0.0949
  202DG     H20 4643   3.896   1.698   2.687  0.4010  1.5978  2.4114
  202DG     H21 4644   3.919   1.607   2.825 -0.5831 -1.8605 -0.0620
  202DG     H22 4645   3.799   1.536   2.491  0.7726 -0.2541  0.3713
  202DG     H23 4646   3.718   1.496   2.634 -0.0749  0.6990 -0.3744
  203DG      C1 4647   2.003   4.490   4.081 -0.0769 -0.1904  0.4131
  203DG      C2 4648   1.416   3.962   3.745  0.6577  0.4412 -0.4885
  203DG      H3 4649   2.077   4.426   4.032 -0.0361  0.3612 -0.2701
  203DG      H4 4650   2.042   4.525   4.176 -4.1760  0.5765  1.9931
  203DG      H5 4651   1.995   4.576   4.014 -0.5322  0.3802  1.1903
  203DG      H6 4652   1.316   3.930   3.773  0.7271  2.3377  2.3759
  203DG      H7 4653   1.403   4.018   3.653 -0.2623  0.7497 -0.1807
  203DG      H8 4654   1.485   3.880   3.722  0.3944 -0.2883  1.1490
  203DG      O9 4655   1.881   4.428   4.110  0.1839 -0.3638 -0.2134
  203DG     O10 4656   1.475   4.043   3.841  0.4234  0.0475 -0.4167
  203DG     C11 4657   1.813   4.379   3.996  0.0794  0.0265  0.4885
  203DG     C12 4658   1.405   4.165   3.867  0.5635 -0.4133  0.4099
  203DG     H13 4659   1.868   4.318   3.925  0.8563  1.9092 -0.5939
  203DG     H14 4660   1.784   4.468   3.940 -1.2234 -0.5794  0.1682
  203DG     H15 4661   1.300   4.141   3.883  0.4489 -1.5762 -1.7589
  203DG     H16 4662   1.411   4.226   3.777  1.7368 -0.7936  0.2199
  203DG     C17 4663   1.684   4.328   4.050  1.1511 -0.3343  0.6452
  203DG     C18 4664   1.475   4.247   3.982  0.5644  0.9795  0.4850
  203DG     O19 4665   1.604   4.288   3.942  0.4584  0.2827  0.0748
  203DG     H20 4666   1.642   4.414   4.103 -2.2952 -1.1043 -0.5956
  203DG     H21 4667   1.705   4.245   4.117 -1.6286 -0.4293  1.5008
  203DG     H22 4668   1.414   4.333   4.007  0.5404  0.4405  2.4741
  203DG     H23 4669   1.466   4.169   4.058 -1.5345  0.7896  0.1105
  204DG      C1 4670   3.923   2.489   5.431 -0.4787 -0.3477 -0.5557
  204DG      C2 4671   4.237   2.977   6.120  0.0384  0.7903  0.7013
  204DG      H3 4672   3.994   2.443   5.362 -0.9962  1.6568 -2.5683
  204DG      H4 4673   3.838   2.516   5.368  0.6666 -1.0630 -2.5195
  204DG      H5 4674   3.893   2.434   5.520 -1.4303  3.0073  1.4084
  204DG      H6 4675   4.289   2.921   6.197  0.1001 -2.0496 -1.2440
  204DG      H7 4676   4.290   3.070   6.099 -0.9989  1.3013  0.3037
  204DG      H8 4677   4.134   2.993   6.153  0.2871  0.5659  1.6340
  204DG      O9 4678   3.962   2.619   5.468  0.2497  0.1335  0.2748
  204DG     O10 4679   4.251   2.895   6.004  0.1054  0.8338 -0.5577
  204DG     C11 4680   4.038   2.627   5.593  0.2959 -0.1579  0.2092
  204DG     C12 4681   4.206   2.957   5.889  0.8905 -0.2672 -0.7060
  204DG     H13 4682   4.118   2.553   5.584  0.0388 -0.3831 -0.2721
  204DG     H14 4683   3.975   2.608   5.680 -0.0612  1.2087  0.2721
  204DG     H15 4684   4.261   3.051   5.881  0.8002 -0.2527 -1.2597
  204DG     H16 4685   4.101   2.986   5.899  0.0247 -3.5699  1.2578
  204DG     C17 4686   4.088   2.768   5.621 -0.1266 -0.0795 -0.4215
  204DG     C18 4687   4.238   2.887   5.751  0.1550 -0.0912  0.4111
  204DG     O19 4688   4.169   2.769   5.738  0.3658  0.1111 -0.0731
  204DG     H20 4689   4.007   2.839   5.636 -0.1230 -0.2216  0.2946
  204DG     H21 4690   4.152   2.783   5.534 -0.8773  0.4433 -0.8975
  204DG     H22 4691   4.215   2.959   5.673  0.6336  0.3525  0.6722
  204DG     H23 4692   4.346   2.872   5.754  0.3157  0.5588 -1.1428
  205DG      C1 4693   4.739   3.105   0.695 -0.4092 -0.1784 -0.0904
  205DG      C2 4694   5.013   3.391   0.185  0.3831 -0.1883 -1.0786
  205DG      H3 4695   4.741   3.069   0.797 -0.4331 -2.1870 -0.7563
  205DG      H4 4696   4.766   3.012   0.644 -1.4067 -0.9440  0.7219
  205DG      H5 4697   4.643   3.130   0.650 -0.1962  0.5277 -0.1569
  205DG      H6 4698   4.962   3.487   0.178  0.2224 -0.1650  0.2098
  205DG      H7 4699   5.098   3.383   0.118  1.2079  0.8067 -0.1917
  205DG      H8 4700   4.954   3.302   0.161  2.2824 -1.0979 -2.6477
  205DG      O9 4701   4.853   3.183   0.660  0.7149 -0.1086  0.8599
  205DG     O10 4702   5.061   3.360   0.317  0.0922 -0.0100 -0.1941
  205DG     C11 4703   4.881   3.280   0.756  0.4320  0.2408  1.0492
  205DG     C12 4704   5.147   3.447   0.381  0.4763 -0.1829 -0.2503
  205DG     H13 4705   4.883   3.251   0.861  0.9615 -0.5870  0.8139
  205DG     H14 4706   4.795   3.348   0.754  0.0633 -0.2024  1.5093
  205DG     H15 4707   5.115   3.551   0.368 -2.1915 -0.9317 -0.3579
  205DG     H16 4708   5.241   3.443   0.327  0.4566  1.4986 -0.4687
  205DG     C17 4709   5.006   3.351   0.717  0.1759 -0.2287 -0.2726
  205DG     C18 4710   5.152   3.416   0.533  0.5972 -0.3490  0.2482
  205DG     O19 4711   5.022   3.366   0.579 -0.0321  0.5750  0.3414
  205DG     H20 4712   5.097   3.299   0.749  0.8540  1.6218  0.9248
  205DG     H21 4713   5.011   3.450   0.760 -0.8755  0.1219 -0.9295
  205DG     H22 4714   5.228   3.340   0.550  0.3121 -0.6301  0.2579
  205DG     H23 4715   5.174   3.508   0.588 -1.5593 -0.5092  1.4963
  206DG      C1 4716   3.149   1.473   1.574  0.2860 -0.5141 -0.3714
  206DG      C2 4717   3.705   1.145   1.602  0.3960 -0.2774  0.2189
  206DG      H3 4718   3.135   1.407   1.489 -0.0147 -0.9907  0.0436
  206DG      H4 4719   3.222   1.551   1.552 -0.9043  0.7496 -0.0044
  206DG      H5 4720   3.055   1.524   1.596  1.2199  0.9995  0.2487
  206DG      H6 4721   3.727   1.241   1.555 -0.7841 -0.8757 -1.6509
  206DG      H7 4722   3.799   1.124   1.652  0.7095 -3.2062 -1.3541
  206DG      H8 4723   3.684   1.078   1.519 -0.4148  0.9033 -0.5573
  206DG      O9 4724   3.199   1.398   1.679 -0.5722  0.1366 -0.2301
  206DG     O10 4725   3.597   1.172   1.689 -0.0736 -0.6730  0.1615
  206DG     C11 4726   3.117   1.288   1.723 -0.5719  0.3921  1.0031
  206DG     C12 4727   3.532   1.054   1.727 -0.1089 -0.2398 -0.4798
  206DG     H13 4728   3.084   1.227   1.639  0.1341  0.9520  0.3085
  206DG     H14 4729   3.029   1.318   1.780 -0.3260 -0.0511  1.6250
  206DG     H15 4730   3.610   0.987   1.765  0.1200  0.2522 -0.0663
  206DG     H16 4731   3.485   1.013   1.639  0.1479 -0.2816 -0.5973
  206DG     C17 4732   3.198   1.179   1.811 -0.4493  0.1670  0.2689
  206DG     C18 4733   3.417   1.082   1.826  0.1802  0.7621 -0.1239
  206DG     O19 4734   3.329   1.174   1.772 -0.3590  0.2584  0.0273
  206DG     H20 4735   3.156   1.079   1.794  1.0620 -0.2738 -1.0397
  206DG     H21 4736   3.199   1.204   1.917  0.0624  1.4653 -0.0342
  206DG     H22 4737   3.365   0.989   1.852 -1.3669  0.6799 -3.1495
  206DG     H23 4738   3.443   1.116   1.926 -0.8353 -0.2054  0.5036
  207DG      C1 4739   5.215   5.225   4.798  0.1109  0.5753 -0.0678
  207DG      C2 4740   4.520   5.438   4.372 -0.4189  0.4731 -0.7718
  207DG      H3 4741   5.321   5.203   4.784 -0.1495 -0.4947 -0.4392
  207DG      H4 4742   5.177   5.140   4.853  0.4233 -1.2062 -2.4606
  207DG      H5 4743   5.215   5.319   4.853 -0.2650  0.2634  0.4646
  207DG      H6 4744   4.520   5.543   4.342 -1.4390  0.7263  0.0386
  207DG      H7 4745   4.433   5.407   4.314 -0.4045  0.4211 -0.7656
  207DG      H8 4746   4.496   5.449   4.478 -3.7082 -1.4389 -1.1962
  207DG      O9 4747   5.152   5.223   4.665  0.2515 -0.2568  0.8225
  207DG     O10 4748   4.638   5.374   4.337 -0.4992 -0.2535 -0.3279
  207DG     C11 4749   5.190   5.320   4.572 -0.2742  0.6879 -0.0396
  207DG     C12 4750   4.743   5.404   4.431  0.2497  0.9667  0.0495
  207DG     H13 4751   5.296   5.302   4.558 -0.5887 -1.8887  0.5038
  207DG     H14 4752   5.183   5.418   4.620  0.1675 -0.1192  1.7466
  207DG     H15 4753   4.704   5.361   4.523 -2.5482  1.2714 -0.8977
  207DG     H16 4754   4.768   5.509   4.440 -0.7463  1.1130  1.5731
  207DG     C17 4755   5.110   5.318   4.444  0.2825 -0.1961  0.1993
  207DG     C18 4756   4.872   5.338   4.381  1.1062  0.0016 -0.1992
  207DG     O19 4757   4.978   5.371   4.472 -1.1015  0.0101 -0.1409
  207DG     H20 4758   5.102   5.223   4.392 -2.8754  0.8482 -1.4697
  207DG     H21 4759   5.144   5.392   4.371  0.2798 -1.4263 -1.1034
  207DG     H22 4760   4.854   5.232   4.363  1.0598 -0.1690  0.8205
  207DG     H23 4761   4.898   5.381   4.284  0.0721 -1.2320 -1.0555
  208DG      C1 4762   2.012   2.322   0.026  0.0573 -0.3532  0.4332
  208DG      C2 4763   2.462   2.998   0.393  0.4351 -0.0394  0.0925
  208DG      H3 4764   1.989   2.258   0.111 -1.2157 -1.5856 -0.7761
  208DG      H4 4765   2.065   2.258  -0.045  0.6466  0.1619  0.4043
  208DG      H5 4766   1.918   2.343  -0.024  2.4029 -0.4759 -4.7598
  208DG      H6 4767   2.542   3.070   0.376  0.8479 -0.6542 -0.6884
  208DG      H7 4768   2.378   3.065   0.403 -0.3087 -1.0382  0.7763
  208DG      H8 4769   2.467   2.942   0.487 -1.8952 -1.2222 -0.4121
  208DG      O9 4770   2.091   2.438   0.057 -0.1082 -0.0590  0.6744
  208DG     O10 4771   2.445   2.900   0.292 -0.4185  0.0327  0.2879
  208DG     C11 4772   2.028   2.516   0.160 -0.8783  0.3367 -0.2120
  208DG     C12 4773   2.340   2.814   0.313 -0.0938  0.2882 -0.2363
  208DG     H13 4774   2.017   2.456   0.250 -0.5407  2.0730  1.0380
  208DG     H14 4775   1.929   2.551   0.131 -1.7783 -0.8996  1.2448
  208DG     H15 4776   2.247   2.870   0.303  0.4620  1.2654 -0.0484
  208DG     H16 4777   2.335   2.778   0.416 -1.7319  1.4700  0.1516
  208DG     C17 4778   2.125   2.636   0.181  0.5060  0.1454  1.2961
  208DG     C18 4779   2.356   2.700   0.204 -0.2081 -0.5160  0.0566
  208DG     O19 4780   2.259   2.596   0.207  0.2710  0.2860  0.2061
  208DG     H20 4781   2.096   2.704   0.262  1.9031  3.9501 -1.0948
  208DG     H21 4782   2.122   2.701   0.093  0.3322  0.5286  1.5796
  208DG     H22 4783   2.359   2.750   0.107  0.8125  0.7968  0.7197
  208DG     H23 4784   2.450   2.646   0.217 -0.1771 -0.1062  1.8289
  209DG      C1 4785   4.327   3.205   1.404  0.0807  0.0134  0.6568
  209DG      C2 4786   4.494   2.531   1.640 -0.0909  0.5054 -0.1556
  209DG      H3 4787   4.307   3.150   1.312 -1.3405 -0.4688  1.2340
  209DG      H4 4788   4.408   3.278   1.403  0.1938 -0.1113  0.3781
  209DG      H5 4789   4.240   3.270   1.407 -0.4722 -0.5932 -0.8702
  209DG      H6 4790   4.600   2.520   1.618 -0.1605 -2.3796  0.5958
  209DG      H7 4791   4.464   2.481   1.732 -1.3123 -0.4517 -1.0306
  209DG      H8 4792   4.449   2.490   1.549 -1.7504  1.2983  0.2698
  209DG      O9 4793   4.329   3.107   1.506  0.0679 -0.3806 -0.3703
  209DG     O10 4794   4.440   2.664   1.638  0.3171 -0.5384 -0.0125
  209DG     C11 4795   4.372   3.162   1.626  0.2198 -0.4969 -0.1758
  209DG     C12 4796   4.533   2.757   1.684  0.4078  0.2599 -0.1935
  209DG     H13 4797   4.326   3.259   1.643  1.3337 -0.0862  0.5848
  209DG     H14 4798   4.481   3.166   1.622  0.2594 -1.1061  0.2082
  209DG     H15 4799   4.625   2.721   1.639  0.4031 -0.3397  0.2807
  209DG     H16 4800   4.549   2.766   1.791 -2.5851 -0.5661  0.4053
  209DG     C17 4801   4.330   3.063   1.734 -0.0695  0.2707  0.8038
  209DG     C18 4802   4.493   2.898   1.655  0.0992  0.3086 -0.1494
  209DG     O19 4803   4.364   2.928   1.716 -0.1996 -0.2934  0.1078
  209DG     H20 4804   4.221   3.058   1.731 -0.0527  0.4995 -0.8349
  209DG     H21 4805   4.361   3.094   1.834  0.4330 -0.7649  0.9837
  209DG     H22 4806   4.571   2.964   1.693  0.9407  0.1875 -1.5944
  209DG     H23 4807   4.503   2.906   1.546 -0.6244  0.1253 -0.2361
  210DG      C1 4808   3.112   5.035   0.818 -0.5315 -0.5996 -0.3854
  210DG      C2 4809   3.128   4.503   1.312 -0.5367 -0.1947  0.2835
  210DG      H3 4810   3.056   5.032   0.725 -1.1854 -0.9056  0.0105
  210DG      H4 4811   3.208   5.084   0.800 -0.4603 -0.3891  0.4869
  210DG      H5 4812   3.057   5.093   0.892 -0.0570 -1.0754  0.3608
  210DG      H6 4813   3.106   4.532   1.414 -1.0212 -0.4166  0.2431
  210DG      H7 4814   3.043   4.518   1.245 -0.4903  0.2733  0.3272
  210DG      H8 4815   3.147   4.397   1.330 -3.9619 -0.9406  0.2178
  210DG      O9 4816   3.128   4.900   0.851  0.2722 -0.2459  0.5342
  210DG     O10 4817   3.239   4.576   1.271 -0.1458 -0.4399 -0.1056
  210DG     C11 4818   3.012   4.812   0.865  0.2112 -0.1048  0.1608
  210DG     C12 4819   3.289   4.524   1.146  0.1779 -0.0973  0.5145
  210DG     H13 4820   2.949   4.812   0.776  0.8390 -1.6232 -0.3087
  210DG     H14 4821   2.947   4.851   0.944  0.4107 -0.2259  0.3846
  210DG     H15 4822   3.339   4.429   1.163  0.7262  0.3761  1.6608
  210DG     H16 4823   3.375   4.586   1.121 -1.1591  2.0207  0.9001
  210DG     C17 4824   3.068   4.672   0.898  0.2020 -1.1929  0.4730
  210DG     C18 4825   3.199   4.526   1.026  0.9218  0.1400  0.6732
  210DG     O19 4826   3.140   4.660   1.022 -0.4176  0.4627  0.2929
  210DG     H20 4827   3.137   4.656   0.815 -1.4449  1.0314 -1.4760
  210DG     H21 4828   2.990   4.596   0.891  0.6636 -1.5744 -0.6924
  210DG     H22 4829   3.260   4.512   0.937 -0.3817  0.3976 -0.2852
  210DG     H23 4830   3.123   4.449   1.039  0.3716  0.7751  1.3650
  211DG      C1 4831   3.806   1.079   0.073  0.0832  1.0470 -0.5250
  211DG      C2 4832   3.226   1.277   0.483 -0.1737 -0.0012  0.1323
  211DG      H3 4833   3.861   0.985   0.061  0.5400  1.1754  0.4631
  211DG      H4 4834   3.818   1.117   0.175 -0.7557  0.7748 -0.3214
  211DG      H5 4835   3.860   1.149   0.010  1.7224  1.1218  0.8772
  211DG      H6 4836   3.248   1.226   0.577 -1.0737 -2.3886 -0.8701
  211DG      H7 4837   3.305   1.352   0.481 -0.6684  0.5975  1.5624
  211DG      H8 4838   3.133   1.335   0.482  0.6529  1.4712 -3.4944
  211DG      O9 4839   3.670   1.074   0.036 -0.3570  0.5648  0.3204
  211DG     O10 4840   3.230   1.181   0.385  0.2459 -0.1485  0.2593
  211DG     C11 4841   3.599   0.967   0.093 -0.6232 -0.5726 -0.4083
  211DG     C12 4842   3.257   1.236   0.256 -0.9581  0.3871 -0.1760
  211DG     H13 4843   3.618   0.971   0.201  0.2858  1.1616 -0.6021
  211DG     H14 4844   3.641   0.874   0.057  2.8439  1.2925 -1.5584
  211DG     H15 4845   3.341   1.306   0.251 -0.9581  0.3548 -0.6105
  211DG     H16 4846   3.178   1.300   0.219 -0.8068  0.3779 -0.5211
  211DG     C17 4847   3.455   0.986   0.075  0.3261 -0.7864  0.0354
  211DG     C18 4848   3.281   1.123   0.150  0.6792  0.9526 -0.4091
  211DG     O19 4849   3.421   1.107   0.142 -0.2179 -0.1457  0.4030
  211DG     H20 4850   3.405   0.906   0.129 -4.0486  0.8088 -1.1895
  211DG     H21 4851   3.417   1.002  -0.026 -2.2468  0.5450  1.1351
  211DG     H22 4852   3.239   1.032   0.192  3.8402 -0.4147  0.0093
  211DG     H23 4853   3.238   1.137   0.051 -1.1719 -0.7223  0.0882
  212DG      C1 4854   2.976   1.896   2.410  0.0592  0.5421 -0.2215
  212DG      C2 4855   2.956   1.250   2.289 -0.2734  0.1678 -1.2377
  212DG      H3 4856   3.082   1.913   2.427  0.5704 -2.7169  0.4995
  212DG      H4 4857   2.938   1.854   2.503  1.4600  1.1121  0.6509
  212DG      H5 4858   2.922   1.990   2.395  0.2804  0.6500 -0.3581
  212DG      H6 4859   3.062   1.273   2.294 -0.0685 -0.8617 -0.3076
  212DG      H7 4860   2.911   1.246   2.389 -0.3641 -0.3309 -1.2926
  212DG      H8 4861   2.939   1.150   2.249 -0.5351 -0.4302  0.2805
  212DG      O9 4862   2.948   1.800   2.314  0.4257  0.3000  0.1028
  212DG     O10 4863   2.891   1.363   2.235  0.1859 -0.0997 -0.1849
  212DG     C11 4864   2.993   1.859   2.178 -0.9673  0.3239  0.0400
  212DG     C12 4865   2.916   1.386   2.093  0.0842 -0.7076  0.1855
  212DG     H13 4866   3.101   1.860   2.161  0.0238 -0.1778  5.0180
  212DG     H14 4867   2.954   1.958   2.153  1.5921  1.0116 -1.7190
  212DG     H15 4868   2.855   1.307   2.051 -0.9124 -0.2778  0.7791
  212DG     H16 4869   3.022   1.376   2.069  0.0851  2.9803 -2.1848
  212DG     C17 4870   2.940   1.752   2.078  0.2691 -1.2654 -0.2016
  212DG     C18 4871   2.870   1.533   2.056 -0.8252 -0.2361  0.5368
  212DG     O19 4872   2.952   1.626   2.132  0.3905  0.2150  0.3248
  212DG     H20 4873   2.998   1.749   1.985  0.8131 -0.8258  0.1168
  212DG     H21 4874   2.835   1.774   2.057  0.6927  1.4778  0.1868
  212DG     H22 4875   2.880   1.530   1.947 -0.7352 -0.6577  0.5578
  212DG     H23 4876   2.763   1.544   2.075 -1.4640 -1.3399 -2.0481
  213DG      C1 4877   1.962   4.606   1.611  0.3651  0.5022 -0.1485
  213DG      C2 4878   2.509   5.063   1.335  0.0777 -0.3776  0.2811
  213DG      H3 4879   2.032   4.551   1.549 -0.9277 -1.0608 -0.2717
  213DG      H4 4880   1.866   4.587   1.563  0.6495 -0.2470 -0.4279
  213DG      H5 4881   1.957   4.563   1.711  2.0741 -1.7441 -0.9610
  213DG      H6 4882   2.581   4.996   1.383 -1.3893 -1.8539  0.5052
  213DG      H7 4883   2.499   5.020   1.235 -3.1529 -0.5023  0.5538
  213DG      H8 4884   2.552   5.163   1.330  2.3045 -1.3236 -0.6362
  213DG      O9 4885   2.006   4.742   1.608  0.0627  0.0558 -0.4913
  213DG     O10 4886   2.378   5.048   1.394 -0.7911  0.2444  0.0942
  213DG     C11 4887   2.018   4.802   1.483  0.0911  0.0803 -0.8873
  213DG     C12 4888   2.279   5.135   1.325 -0.9355  0.9650 -0.1761
  213DG     H13 4889   1.921   4.798   1.435 -1.2230 -1.7782  1.7155
  213DG     H14 4890   2.091   4.739   1.432  1.8190  0.1019  1.3996
  213DG     H15 4891   2.280   5.082   1.230  3.3181  1.3092 -0.4948
  213DG     H16 4892   2.320   5.232   1.298 -0.0192  0.7067  0.2655
  213DG     C17 4893   2.073   4.943   1.506  0.9720  0.0184 -0.4705
  213DG     C18 4894   2.136   5.139   1.387 -0.4897 -0.2586 -0.5960
  213DG     O19 4895   2.072   5.012   1.381  0.0857 -0.3941 -0.0741
  213DG     H20 4896   2.170   4.939   1.554 -0.3432  2.1827  2.7799
  213DG     H21 4897   2.011   4.997   1.578 -0.7984 -0.7256 -1.3807
  213DG     H22 4898   2.150   5.190   1.482 -0.2844 -0.7600 -0.3548
  213DG     H23 4899   2.086   5.204   1.315 -0.5832 -0.2006 -0.4763
  214DG      C1 4900   0.325   3.531   4.622  0.1415 -0.5162  0.2421
  214DG      C2 4901   0.604   3.578   5.128 -0.1637  0.4134 -0.1713
  214DG      H3 4902   0.247   3.456   4.640 -0.0661 -0.5188 -0.6176
  214DG      H4 4903   0.346   3.546   4.516  1.0491  2.0011  0.7319
  214DG      H5 4904   0.291   3.622   4.671 -0.4883 -0.8929  0.5271
  214DG      H6 4905   0.535   3.541   5.205 -0.6554  0.2320 -0.6922
  214DG      H7 4906   0.602   3.687   5.137 -1.7350  0.3209  1.3649
  214DG      H8 4907   0.570   3.538   5.033  1.8522  2.8575 -2.0210
  214DG      O9 4908   0.436   3.481   4.683  0.0063  0.4762 -0.0118
  214DG     O10 4909   0.740   3.542   5.137  0.6770  0.0110  0.0879
  214DG     C11 4910   0.558   3.530   4.625  0.0519  0.3985  0.6088
  214DG     C12 4911   0.823   3.594   5.035 -0.2216 -0.4926 -0.3348
  214DG     H13 4912   0.554   3.639   4.621  2.0229  0.5656  1.7457
  214DG     H14 4913   0.566   3.490   4.523  0.4544  1.4058  0.2340
  214DG     H15 4914   0.920   3.622   5.077 -1.0102  3.1215 -0.5741
  214DG     H16 4915   0.783   3.691   5.003  2.2999  0.2062 -1.5806
  214DG     C17 4916   0.680   3.482   4.706  0.1777 -0.4475 -0.5647
  214DG     C18 4917   0.807   3.504   4.911 -0.0787 -1.1124 -0.5483
  214DG     O19 4918   0.691   3.547   4.834 -0.5578  0.1622  0.5580
  214DG     H20 4919   0.772   3.510   4.654 -0.2409 -2.2372 -2.4139
  214DG     H21 4920   0.677   3.376   4.732  1.0789 -0.1664  0.8000
  214DG     H22 4921   0.896   3.507   4.849  0.9681  0.7995  0.8952
  214DG     H23 4922   0.781   3.404   4.945 -1.0380 -1.3389 -1.9109
  215DG      C1 4923   1.512   5.457   4.148 -0.6100  0.1116 -0.2092
  215DG      C2 4924   0.727   5.249   3.807  0.7856 -0.7214 -0.5241
  215DG      H3 4925   1.483   5.562   4.162 -1.0123 -0.1849  1.3856
  215DG      H4 4926   1.592   5.460   4.075  0.9251 -0.6861  1.3565
  215DG      H5 4927   1.558   5.422   4.241  1.3237 -1.5595 -1.7214
  215DG      H6 4928   0.711   5.350   3.770 -1.4152 -0.6182  0.5585
  215DG      H7 4929   0.653   5.189   3.754  0.2564  1.4133 -2.3339
  215DG      H8 4930   0.712   5.255   3.915  0.2141  1.1285 -0.6657
  215DG      O9 4931   1.407   5.374   4.116  0.0897 -0.3801 -0.3802
  215DG     O10 4932   0.859   5.205   3.772  0.3563 -0.8615  0.2902
  215DG     C11 4933   1.347   5.407   3.993  0.3835  0.0581 -0.5443
  215DG     C12 4934   0.965   5.285   3.829  0.8639 -0.0252 -0.7298
  215DG     H13 4935   1.428   5.396   3.921  1.6605 -0.2385  0.8865
  215DG     H14 4936   1.307   5.509   3.987 -0.3271 -0.3103 -3.0939
  215DG     H15 4937   0.953   5.263   3.935  0.6679 -1.7710 -1.0919
  215DG     H16 4938   0.936   5.388   3.807  0.7981 -0.3907 -2.5566
  215DG     C17 4939   1.242   5.301   3.956 -0.1719 -0.4370  0.6449
  215DG     C18 4940   1.098   5.252   3.776 -0.1194  0.6719 -0.1688
  215DG     O19 4941   1.197   5.343   3.827  0.6223 -0.1386 -0.2470
  215DG     H20 4942   1.162   5.312   4.030  0.2858  1.6713  0.8922
  215DG     H21 4943   1.294   5.205   3.954  3.0467  1.2151 -1.5793
  215DG     H22 4944   1.132   5.149   3.775  0.3312  0.6624  3.3411
  215DG     H23 4945   1.076   5.264   3.670 -0.2357  0.3850 -0.1759
  216DG      C1 4946   4.923   3.292   4.488 -0.2206  0.0608  0.1633
  216DG      C2 4947   4.822   3.993   4.752 -0.1882  0.3155  0.4371
  216DG      H3 4948   4.844   3.231   4.445 -1.0558 -0.0822  1.8450
  216DG      H4 4949   4.909   3.305   4.595  2.2303 -1.2815  0.7226
  216DG      H5 4950   5.009   3.230   4.462 -1.1150 -1.7510  1.3443
  216DG      H6 4951   4.791   4.096   4.733 -0.0165  0.5229  1.2168
  216DG      H7 4952   4.770   3.946   4.835  1.5856 -1.0383  0.8583
  216DG      H8 4953   4.924   4.000   4.792  0.9587  1.4930 -2.4539
  216DG      O9 4954   4.920   3.421   4.417  0.1008 -0.6506 -0.6943
  216DG     O10 4955   4.807   3.908   4.638 -0.2159 -0.4186  0.5397
  216DG     C11 4956   5.011   3.521   4.481 -0.7687  0.3166 -0.4427
  216DG     C12 4957   4.889   3.942   4.526 -0.4158 -1.1171 -0.7101
  216DG     H13 4958   5.105   3.467   4.472 -1.0861 -0.5477  0.9953
  216DG     H14 4959   4.993   3.526   4.588  2.3615  1.9133  0.1397
  216DG     H15 4960   4.995   3.935   4.551  0.0187  2.0855 -1.2564
  216DG     H16 4961   4.869   4.045   4.495  1.6534 -0.3056  0.4541
  216DG     C17 4962   5.006   3.662   4.425  0.4872 -0.5232  0.0872
  216DG     C18 4963   4.869   3.856   4.400 -0.1995  0.3733  0.0874
  216DG     O19 4964   4.879   3.720   4.434  0.2871  0.2494  0.3976
  216DG     H20 4965   5.028   3.668   4.319  0.8167 -1.2837  0.1072
  216DG     H21 4966   5.082   3.709   4.488  0.6258 -1.0151  0.2929
  216DG     H22 4967   4.764   3.867   4.374  0.0855 -0.7945 -1.7708
  216DG     H23 4968   4.934   3.884   4.316 -0.7582  2.3163  0.2634
  217DG      C1 4969   4.054   3.196   4.602  0.1634 -0.0290 -0.1665
  217DG      C2 4970   3.997   3.077   4.130  0.7134 -0.0750  0.0487
  217DG      H3 4971   4.011   3.141   4.518 -0.1733  1.9914 -1.3928
  217DG      H4 4972   4.020   3.158   4.698  1.2440 -0.9707 -0.1402
  217DG      H5 4973   4.162   3.210   4.610 -0.0903  1.6386  0.9340
  217DG      H6 4974   3.942   3.041   4.217  0.4011  0.5846  0.1282
  217DG      H7 4975   4.042   2.988   4.087 -3.0143 -1.4830 -1.2819
  217DG      H8 4976   4.077   3.137   4.173  0.1829  0.6053  0.1087
  217DG      O9 4977   3.998   3.326   4.583 -0.1952  0.1532  0.3169
  217DG     O10 4978   3.900   3.144   4.041 -0.2079  0.1041 -0.4465
  217DG     C11 4979   4.066   3.400   4.482  0.2103  0.2605  0.3220
  217DG     C12 4980   3.810   3.227   4.112 -0.5946 -0.7773 -0.3417
  217DG     H13 4981   4.148   3.347   4.434 -0.1024  0.1628 -0.1212
  217DG     H14 4982   4.104   3.492   4.527 -0.5482 -0.3345  2.2752
  217DG     H15 4983   3.752   3.160   4.175  0.3470 -2.3490 -1.0769
  217DG     H16 4984   3.758   3.272   4.028  0.5089 -0.4155 -0.8514
  217DG     C17 4985   3.970   3.446   4.370 -0.1362  0.5014 -0.0911
  217DG     C18 4986   3.852   3.353   4.183 -0.1394 -0.3273 -0.3006
  217DG     O19 4987   3.952   3.340   4.288  0.0036  0.1367  0.6486
  217DG     H20 4988   4.013   3.529   4.314 -2.8673  1.8819 -0.3504
  217DG     H21 4989   3.874   3.481   4.408 -0.4702 -0.1658 -0.2983
  217DG     H22 4990   3.889   3.427   4.113  0.5471 -0.2521  0.1331
  217DG     H23 4991   3.760   3.391   4.227 -0.1698 -0.4918 -0.2203
  218DG      C1 4992   1.235   2.292   5.226  0.1780  0.0950  0.4170
  218DG      C2 4993   0.966   2.850   5.401  0.9294  0.1493  0.5979
  218DG      H3 4994   1.298   2.362   5.171  0.8166 -1.0587 -0.3719
  218DG      H4 4995   1.134   2.285   5.186 -0.2656  1.3224  1.2696
  218DG      H5 4996   1.282   2.194   5.221 -0.3715 -0.1820  0.6145
  218DG      H6 4997   0.951   2.936   5.466 -2.5514  0.4341 -0.3889
  218DG      H7 4998   1.024   2.891   5.318 -0.2895  1.2983  0.2866
  218DG      H8 4999   0.867   2.820   5.366  1.7884 -2.8704  0.4844
  218DG      O9 5000   1.234   2.340   5.361  0.0154  0.1242 -0.2182
  218DG     O10 5001   1.032   2.739   5.472 -0.1546  0.0395 -0.7358
  218DG     C11 5002   1.147   2.261   5.445  0.0110 -0.0829 -0.1137
  218DG     C12 5003   0.946   2.658   5.555 -0.6149 -0.1195  0.2749
  218DG     H13 5004   1.187   2.161   5.459 -2.5773 -1.0277  1.2860
  218DG     H14 5005   1.054   2.241   5.391 -0.2037 -0.2782  0.3193
  218DG     H15 5006   0.862   2.615   5.501 -0.4773  0.6742 -0.5854
  218DG     H16 5007   0.914   2.724   5.636 -0.6728 -1.4183  1.3544
  218DG     C17 5008   1.127   2.346   5.568  0.6940 -0.5176  0.2915
  218DG     C18 5009   1.020   2.545   5.623  0.1423  0.3336 -0.3212
  218DG     O19 5010   1.079   2.473   5.521  0.7113 -0.3692  0.4103
  218DG     H20 5011   1.212   2.365   5.633  0.8488  1.0162 -0.3061
  218DG     H21 5012   1.048   2.301   5.628  0.0973 -0.0712 -0.1402
  218DG     H22 5013   1.099   2.571   5.693  1.2085 -2.2486 -0.4519
  218DG     H23 5014   0.950   2.489   5.684  0.6261  2.4550  2.3446
  219DG      C1 5015   5.189   0.939   3.678 -0.1930 -0.8677  0.2003
  219DG      C2 5016   5.845   1.514   3.618 -0.0108 -0.1755 -0.2204
  219DG      H3 5017   5.134   0.935   3.772 -0.1403 -1.6046  0.2041
  219DG      H4 5018   5.246   0.847   3.665  3.2240  1.0501  0.4569
  219DG      H5 5019   5.112   0.952   3.601 -0.4467  1.2865  0.7489
  219DG      H6 5020   5.844   1.528   3.510  0.7897 -0.5598 -0.2849
  219DG      H7 5021   5.877   1.612   3.652  0.0354  0.1239 -1.1088
  219DG      H8 5022   5.919   1.442   3.653  1.4591  2.6122  2.9216
  219DG      O9 5023   5.269   1.052   3.655  0.1193 -0.8017 -0.2510
  219DG     O10 5024   5.718   1.495   3.678 -0.8320 -0.0836  0.4648
  219DG     C11 5025   5.388   1.045   3.741  0.2223  0.4950  0.0931
  219DG     C12 5026   5.656   1.379   3.636  0.3591  0.2430 -0.6542
  219DG     H13 5027   5.448   0.954   3.739  0.3937  0.5805  0.9247
  219DG     H14 5028   5.363   1.053   3.847  1.9791  0.7687  0.5291
  219DG     H15 5029   5.711   1.293   3.673  0.2678  1.5007  2.6624
  219DG     H16 5030   5.656   1.377   3.527  0.5970  0.0940 -0.6517
  219DG     C17 5031   5.501   1.148   3.708 -0.1031  0.1714 -0.1093
  219DG     C18 5032   5.516   1.387   3.690 -0.1107 -0.1916  0.2287
  219DG     O19 5033   5.451   1.270   3.647  0.1399  0.8462 -0.1417
  219DG     H20 5034   5.571   1.101   3.639 -0.6484 -1.9478  0.7081
  219DG     H21 5035   5.563   1.175   3.794 -0.4813 -0.0856  0.2435
  219DG     H22 5036   5.514   1.397   3.799 -1.9976  1.3501  0.1118
  219DG     H23 5037   5.462   1.474   3.651 -0.2534 -0.0806  0.6638
  220DG      C1 5038   4.480   1.161   5.182 -0.2611 -0.3544 -0.2000
  220DG      C2 5039   5.019   0.617   5.547 -0.1878 -0.5096  0.2105
  220DG      H3 5040   4.478   1.164   5.074  1.6907 -0.0311 -0.2659
  220DG      H4 5041   4.475   1.262   5.223 -1.2375 -0.0411 -1.0345
  220DG      H5 5042   4.396   1.099   5.216 -0.1598 -0.0998  0.5487
  220DG      H6 5043   5.097   0.576   5.483  0.1005 -1.3310  1.0566
  220DG      H7 5044   5.048   0.587   5.648  3.5864 -0.9107 -0.8547
  220DG      H8 5045   4.920   0.582   5.516  0.0039 -0.5117 -0.4052
  220DG      O9 5046   4.598   1.103   5.243  0.0376 -0.1007  0.5806
  220DG     O10 5047   5.031   0.758   5.547  0.0091 -0.2907  0.0375
  220DG     C11 5048   4.721   1.178   5.233  0.7172  0.2418 -0.6119
  220DG     C12 5049   4.975   0.808   5.426  0.2907 -0.0116 -0.0469
  220DG     H13 5050   4.716   1.287   5.241 -1.5101  0.1712 -0.4380
  220DG     H14 5051   4.753   1.151   5.132 -2.3095 -1.4841 -1.2236
  220DG     H15 5052   4.875   0.768   5.413  0.4687  0.2952 -2.8448
  220DG     H16 5053   5.036   0.785   5.339  0.8384 -0.0579  0.3381
  220DG     C17 5054   4.817   1.136   5.350  0.1984 -0.2433  0.3196
  220DG     C18 5055   4.945   0.961   5.443 -0.4596  0.0382  0.7514
  220DG     O19 5056   4.856   1.000   5.344  0.2445  0.0185  0.1451
  220DG     H20 5057   4.769   1.157   5.445  1.0512  0.5980  0.5733
  220DG     H21 5058   4.904   1.199   5.337  1.1934 -1.9547 -2.0885
  220DG     H22 5059   4.900   0.972   5.542 -2.5846  1.9080 -0.3373
  220DG     H23 5060   5.043   1.007   5.433 -0.4162 -0.3553 -0.8661
  221DG      C1 5061   1.628   1.191   2.384  0.6548 -0.1214  0.6562
  221DG      C2 5062   1.011   1.045   2.679  0.6163 -0.1068  0.4565
  221DG      H3 5063   1.712   1.170   2.319  0.8796  1.8272  0.2684
  221DG      H4 5064   1.665   1.198   2.486  0.8530 -2.1621  0.7589
  221DG      H5 5065   1.599   1.293   2.361 -3.9067 -1.2195  0.4603
  221DG      H6 5066   0.949   0.986   2.612 -1.2615 -1.3827  3.1141
  221DG      H7 5067   0.984   1.003   2.776 -1.2929  0.7758  0.3584
  221DG      H8 5068   0.970   1.145   2.666  0.6296  0.0816  1.7084
  221DG      O9 5069   1.522   1.097   2.373  0.3565  0.1930  0.5886
  221DG     O10 5070   1.149   1.034   2.640  0.2246  0.0954 -0.1268
  221DG     C11 5071   1.552   0.963   2.416  0.0085 -0.4466 -0.5118
  221DG     C12 5072   1.203   0.909   2.681 -0.1895  0.3289  0.1316
  221DG     H13 5073   1.597   0.962   2.516  1.8142 -2.3696 -1.2695
  221DG     H14 5074   1.644   0.941   2.362 -0.8808 -1.4293 -1.6904
  221DG     H15 5075   1.141   0.828   2.642  1.1097 -0.1233 -1.1378
  221DG     H16 5076   1.207   0.898   2.789 -2.3359  0.8372  0.2963
  221DG     C17 5077   1.438   0.867   2.408  0.7408 -0.0287  0.0191
  221DG     C18 5078   1.346   0.885   2.625  0.4157 -0.1087  0.1514
  221DG     O19 5079   1.334   0.914   2.491  0.3272 -0.5863 -0.5790
  221DG     H20 5080   1.469   0.763   2.423  0.2908 -0.2478 -0.5378
  221DG     H21 5081   1.405   0.880   2.305  0.9302  3.3924  0.2636
  221DG     H22 5082   1.426   0.939   2.676  0.8817  0.0201 -0.6952
  221DG     H23 5083   1.362   0.778   2.640  0.3049 -0.2403 -0.6645
  222DG      C1 5084   4.346   4.766   2.150 -0.1730 -0.2498 -0.6360
  222DG      C2 5085   4.042   5.295   1.962 -0.4515  0.4218 -0.7665
  222DG      H3 5086   4.357   4.774   2.042 -0.4303 -2.3240 -0.8489
  222DG      H4 5087   4.377   4.664   2.172 -1.8018 -1.2032 -2.4467
  222DG      H5 5088   4.419   4.827   2.201 -0.6270  0.0592 -0.3473
  222DG      H6 5089   3.994   5.328   2.054 -0.0463 -0.3746 -0.2516
  222DG      H7 5090   4.143   5.336   1.964 -0.7815  1.5342 -3.2538
  222DG      H8 5091   3.989   5.332   1.875 -1.6489  1.6902  0.4497
  222DG      O9 5092   4.216   4.801   2.197  0.1974  0.2504 -0.7243
  222DG     O10 5093   4.057   5.150   1.956  0.0222  0.7967  0.4814
  222DG     C11 5094   4.113   4.710   2.153  0.0341  0.1189 -0.0967
  222DG     C12 5095   3.938   5.078   1.931 -0.4087 -0.0271 -0.1112
  222DG     H13 5096   4.030   4.724   2.222  0.4366 -0.8558  0.6139
  222DG     H14 5097   4.139   4.604   2.160  0.3720  0.2638  1.3424
  222DG     H15 5098   3.887   5.122   1.845 -0.0374 -0.5203 -0.5885
  222DG     H16 5099   3.878   5.079   2.022  0.8857  1.4020  0.7696
  222DG     C17 5100   4.061   4.737   2.013  0.3606  0.0227 -0.2455
  222DG     C18 5101   3.968   4.932   1.900  0.0942  0.3437  0.6475
  222DG     O19 5102   4.035   4.879   2.009 -0.7823 -0.1893  0.2132
  222DG     H20 5103   3.970   4.682   1.988 -0.4111  1.1387  0.0104
  222DG     H21 5104   4.132   4.705   1.937  1.0433 -2.5411  1.3659
  222DG     H22 5105   3.882   4.874   1.867  0.2263  0.4293  0.1383
  222DG     H23 5106   4.041   4.929   1.819 -1.4859  3.2528 -1.0273
  223DG      C1 5107   4.395   3.533   3.531 -0.1599  0.4074  0.7653
  223DG      C2 5108   4.078   3.099   3.521 -0.0592 -0.2159  0.3912
  223DG      H3 5109   4.457   3.484   3.607 -0.0241 -2.7647 -1.2133
  223DG      H4 5110   4.307   3.584   3.570  0.1728  2.6450 -1.1516
  223DG      H5 5111   4.469   3.601   3.487  2.8646 -0.5392  3.8945
  223DG      H6 5112   4.125   3.094   3.620  0.3759  0.6244  0.2339
  223DG      H7 5113   4.106   3.186   3.462  1.0190 -1.9386 -1.8161
  223DG      H8 5114   3.970   3.104   3.524 -0.0997 -0.4857 -0.4379
  223DG      O9 5115   4.348   3.422   3.447 -0.6664 -0.5076 -0.0838
  223DG     O10 5116   4.099   2.987   3.435 -0.2789 -0.1206  0.4159
  223DG     C11 5117   4.451   3.369   3.363  0.2536 -0.3011  0.1905
  223DG     C12 5118   4.234   2.946   3.397  0.3864  0.0708 -0.6688
  223DG     H13 5119   4.544   3.343   3.414 -0.1959  0.9674  1.7338
  223DG     H14 5120   4.485   3.444   3.291  0.9254 -1.3006 -0.5552
  223DG     H15 5121   4.223   2.849   3.348  2.7572 -0.2300 -0.7296
  223DG     H16 5122   4.305   2.925   3.478  1.2916  0.4395 -1.3536
  223DG     C17 5123   4.401   3.244   3.288  0.5965  0.0622  0.5542
  223DG     C18 5124   4.286   3.037   3.290  0.4264  0.5158  0.4247
  223DG     O19 5125   4.343   3.148   3.365  0.6896  0.2190  0.3311
  223DG     H20 5126   4.483   3.201   3.231 -1.1298 -2.7019 -0.0268
  223DG     H21 5127   4.329   3.275   3.211  1.2058 -0.9310 -0.4472
  223DG     H22 5128   4.364   2.989   3.231  1.3620  1.8096  0.5773
  223DG     H23 5129   4.203   3.055   3.222  0.3151  0.5720  0.5753
  224DG      C1 5130   4.255   3.028   2.913 -0.8561 -0.6022  0.1748
  224DG      C2 5131   3.624   3.153   2.882 -0.0027 -0.3960 -0.0353
  224DG      H3 5132   4.352   3.058   2.952 -1.1647 -0.0853  0.5493
  224DG      H4 5133   4.246   2.996   2.809 -1.0594 -0.2890  0.0942
  224DG      H5 5134   4.217   2.941   2.966 -1.5849 -0.1750  0.3627
  224DG      H6 5135   3.628   3.061   2.940 -0.2253  0.1900  0.9347
  224DG      H7 5136   3.528   3.200   2.907 -0.0740 -0.3505 -0.3878
  224DG      H8 5137   3.625   3.151   2.773 -2.7443  0.6770 -0.1712
  224DG      O9 5138   4.161   3.124   2.952  0.3881 -0.2481  0.0779
  224DG     O10 5139   3.729   3.233   2.930  0.3069 -0.1963 -1.1187
  224DG     C11 5140   4.208   3.256   2.918 -0.4566  0.0236 -0.6717
  224DG     C12 5141   3.749   3.350   2.856 -0.3779  1.0184 -0.1570
  224DG     H13 5142   4.228   3.264   2.812 -0.9746  1.9202 -0.6674
  224DG     H14 5143   4.299   3.277   2.975 -1.1845 -0.3153  0.6793
  224DG     H15 5144   3.664   3.417   2.870  0.6833  1.9059  2.8621
  224DG     H16 5145   3.767   3.339   2.749 -1.1152 -1.0103 -0.1066
  224DG     C17 5146   4.104   3.369   2.952 -0.3605 -0.3044  0.0516
  224DG     C18 5147   3.875   3.411   2.913  0.1541 -0.8683  0.2624
  224DG     O19 5148   3.987   3.337   2.874 -0.1703 -0.2113  0.2698
  224DG     H20 5149   4.136   3.472   2.932  0.3894 -0.1977  1.6808
  224DG     H21 5150   4.084   3.369   3.059 -2.1807 -1.9917 -0.2429
  224DG     H22 5151   3.886   3.511   2.871  0.8335 -0.8937  0.3731
  224DG     H23 5152   3.868   3.437   3.019  0.9404  3.0955 -0.5153
  225DG      C1 5153   0.524   0.141   0.941 -0.3110  0.7973 -0.0756
  225DG      C2 5154   0.631  -0.469   1.189 -0.0071  0.7091  0.3359
  225DG      H3 5155   0.520   0.236   0.889  0.3210  0.1975 -1.2602
  225DG      H4 5156   0.571   0.157   1.038  1.6163  0.0641 -0.8171
  225DG      H5 5157   0.421   0.109   0.954  0.1911 -0.2378  1.7704
  225DG      H6 5158   0.547  -0.515   1.136  1.2126  0.7138 -1.6758
  225DG      H7 5159   0.718  -0.533   1.177 -1.0348 -0.8920  0.9702
  225DG      H8 5160   0.597  -0.478   1.292 -3.0053 -0.5105 -0.6260
  225DG      O9 5161   0.592   0.027   0.887 -0.1827 -0.5172 -0.2126
  225DG     O10 5162   0.642  -0.330   1.151  0.5721 -0.2546  0.0272
  225DG     C11 5163   0.733   0.049   0.877 -0.5212  0.1591  0.3348
  225DG     C12 5164   0.758  -0.280   1.208 -0.0566  0.3912 -1.1508
  225DG     H13 5165   0.755   0.155   0.858  1.5814 -0.2801 -0.0173
  225DG     H14 5166   0.774  -0.003   0.790  0.5155 -0.4330  1.1494
  225DG     H15 5167   0.844  -0.332   1.166 -0.8727 -0.6822 -1.5217
  225DG     H16 5168   0.752  -0.298   1.315  0.8707 -0.4518 -1.2232
  225DG     C17 5169   0.806   0.026   1.004  0.2206  0.7227 -0.5814
  225DG     C18 5170   0.773  -0.128   1.179  0.0074  0.0960  0.1803
  225DG     O19 5171   0.784  -0.111   1.034 -0.1832 -0.1134 -0.0299
  225DG     H20 5172   0.773   0.093   1.084 -0.4755 -0.8200  0.4743
  225DG     H21 5173   0.915   0.033   0.999  0.4980 -1.5634  0.6117
  225DG     H22 5174   0.682  -0.087   1.222  0.2272 -1.6498  2.5097
  225DG     H23 5175   0.856  -0.075   1.227 -1.0972  1.8131  0.2727
  226DG      C1 5176   2.941   0.782   0.194  0.2962  0.2516 -0.3684
  226DG      C2 5177   3.122   0.456   0.767 -0.5041  0.0560  1.0369
  226DG      H3 5178   2.855   0.803   0.131  0.1499  0.4871 -0.0925
  226DG      H4 5179   2.991   0.698   0.146  1.6419  0.0073  1.3582
  226DG      H5 5180   3.008   0.868   0.191  0.8304 -0.0453  1.5705
  226DG      H6 5181   3.169   0.379   0.707 -0.8436 -0.4107  1.3682
  226DG      H7 5182   3.190   0.542   0.772  0.0458 -0.3942  1.5068
  226DG      H8 5183   3.106   0.405   0.862  0.0627 -1.7601  0.2020
  226DG      O9 5184   2.906   0.758   0.332  0.1222  0.4253  0.1638
  226DG     O10 5185   2.997   0.500   0.712  0.1053  0.1474 -0.0114
  226DG     C11 5186   2.820   0.853   0.395  0.7050 -0.4025  0.6042
  226DG     C12 5187   2.933   0.596   0.797  0.3831 -0.3692  0.2421
  226DG     H13 5188   2.728   0.867   0.339 -0.3925  2.2532  2.8260
  226DG     H14 5189   2.869   0.950   0.402  1.8752 -0.9604  0.4481
  226DG     H15 5190   3.003   0.670   0.837  0.2806  1.0317 -2.0157
  226DG     H16 5191   2.887   0.541   0.879 -1.3294  0.9801  0.2485
  226DG     C17 5192   2.773   0.804   0.535  0.4622 -1.1561 -0.9065
  226DG     C18 5193   2.827   0.679   0.719 -0.0075  0.0681 -0.6756
  226DG     O19 5194   2.879   0.745   0.609 -0.4587  0.2124 -0.1644
  226DG     H20 5195   2.692   0.734   0.518  1.1641 -2.0363 -0.7264
  226DG     H21 5196   2.729   0.888   0.588  0.3102 -1.1804 -0.9936
  226DG     H22 5197   2.737   0.623   0.692  0.4881 -0.1375 -1.9194
  226DG     H23 5198   2.785   0.751   0.790  0.8326  0.2900 -0.3906
  227DG      C1 5199   0.166   5.185   2.713  1.1809 -0.1142 -0.8394
  227DG      C2 5200  -0.446   5.209   2.566 -0.7760 -0.5055 -0.0610
  227DG      H3 5201   0.142   5.242   2.623 -2.2793  0.1910  0.1114
  227DG      H4 5202   0.151   5.081   2.685 -0.7505 -0.2232  0.4309
  227DG      H5 5203   0.259   5.203   2.766  1.8266 -0.2859 -1.8998
  227DG      H6 5204  -0.422   5.113   2.520  2.6458  0.2356 -0.0799
  227DG      H7 5205  -0.554   5.224   2.561 -0.8025 -0.5805  0.2558
  227DG      H8 5206  -0.417   5.282   2.490  0.2352 -0.3615  0.4462
  227DG      O9 5207   0.070   5.212   2.818  0.4490  0.2695  0.8878
  227DG     O10 5208  -0.376   5.231   2.692 -0.2616  0.2415 -0.4066
  227DG     C11 5209   0.067   5.348   2.856  0.1934  0.3037 -0.1143
  227DG     C12 5210  -0.388   5.371   2.722  0.2434  0.1541 -0.0898
  227DG     H13 5211   0.097   5.421   2.780 -0.6901 -1.0239 -1.8049
  227DG     H14 5212   0.138   5.358   2.939 -1.0944  2.7716  0.7755
  227DG     H15 5213  -0.494   5.380   2.747  0.7259  1.1142  1.7372
  227DG     H16 5214  -0.384   5.445   2.642 -0.0891 -0.4635 -0.6925
  227DG     C17 5215  -0.067   5.393   2.898 -0.0776  0.0611 -0.0887
  227DG     C18 5216  -0.296   5.397   2.838  0.0900 -0.2716 -0.2758
  227DG     O19 5217  -0.169   5.361   2.796  0.3827 -0.3487 -0.0884
  227DG     H20 5218  -0.060   5.499   2.927  3.0817 -0.0488 -0.1109
  227DG     H21 5219  -0.096   5.349   2.993 -0.9957 -0.5375 -0.6333
  227DG     H22 5220  -0.293   5.504   2.860  0.7141 -0.3608  0.1097
  227DG     H23 5221  -0.332   5.334   2.919 -1.1339  0.2262 -0.4089
  228DG      C1 5222   2.226   2.197   2.621 -0.7604  0.3711  0.0772
  228DG      C2 5223   2.560   2.701   2.203  0.4083 -0.3846 -0.2083
  228DG      H3 5224   2.122   2.168   2.602 -0.8965  0.5445  0.5347
  228DG      H4 5225   2.237   2.288   2.680 -0.3524  0.9849 -0.9045
  228DG      H5 5226   2.280   2.126   2.682  0.7196  3.2782  2.4224
  228DG      H6 5227   2.626   2.649   2.133  1.3065 -0.8572  0.9372
  228DG      H7 5228   2.456   2.689   2.173  0.2334  1.5159 -0.4652
  228DG      H8 5229   2.587   2.806   2.210 -0.4492 -0.1417 -0.4857
  228DG      O9 5230   2.297   2.211   2.495 -0.0558 -0.0706  0.2292
  228DG     O10 5231   2.557   2.645   2.329 -0.1794  0.1451 -0.1012
  228DG     C11 5232   2.253   2.305   2.396 -0.3101 -0.3192  0.1054
  228DG     C12 5233   2.465   2.709   2.424  0.0203 -0.0087  0.2218
  228DG     H13 5234   2.147   2.297   2.373  0.1378  0.0082 -2.3981
  228DG     H14 5235   2.306   2.288   2.302 -2.0449  0.1011 -0.9958
  228DG     H15 5236   2.377   2.747   2.372  0.4023  0.7920  0.1466
  228DG     H16 5237   2.517   2.795   2.466  1.1567  0.8198 -2.6068
  228DG     C17 5238   2.270   2.456   2.432  0.6102  0.2299 -0.2996
  228DG     C18 5239   2.431   2.604   2.525 -0.3592 -0.8607  0.2121
  228DG     O19 5240   2.407   2.477   2.454  0.1279 -0.2723 -0.0669
  228DG     H20 5241   2.220   2.481   2.526 -1.8775 -0.0504 -1.4761
  228DG     H21 5242   2.226   2.518   2.354  2.0264  0.1580 -1.1883
  228DG     H22 5243   2.525   2.582   2.577 -1.0520 -0.5931  1.6112
  228DG     H23 5244   2.360   2.634   2.601 -0.1577 -0.7071  0.3413
  229DG      C1 5245   3.816   4.968   3.088 -0.5866 -0.3478 -0.5262
  229DG      C2 5246   3.407   5.489   3.257 -0.2305 -0.7475 -0.2040
  229DG      H3 5247   3.868   5.064   3.092 -1.2297  0.1615 -2.8305
  229DG      H4 5248   3.797   4.952   2.982  1.7534 -0.0346 -1.0563
  229DG      H5 5249   3.893   4.900   3.125  0.0132  1.2313  1.2647
  229DG      H6 5250   3.317   5.511   3.202  0.6234 -0.3825 -1.4931
  229DG      H7 5251   3.439   5.574   3.317  2.0212 -1.6912  0.0541
  229DG      H8 5252   3.485   5.488   3.180  0.8912 -0.2611  0.8891
  229DG      O9 5253   3.691   4.970   3.152  0.2212 -0.1611 -0.2078
  229DG     O10 5254   3.407   5.370   3.329 -0.2333 -0.2274 -0.0444
  229DG     C11 5255   3.714   4.989   3.294 -0.0769 -0.1159  0.4579
  229DG     C12 5256   3.357   5.263   3.260  0.6511 -0.0912 -0.2162
  229DG     H13 5257   3.781   5.071   3.321 -0.7880  0.0069  1.9505
  229DG     H14 5258   3.764   4.897   3.327  0.8457  0.0159 -0.5245
  229DG     H15 5259   3.410   5.252   3.165 -0.4682 -0.5503 -0.8006
  229DG     H16 5260   3.250   5.273   3.242 -0.4869 -0.7666  4.7272
  229DG     C17 5261   3.571   4.989   3.356 -0.4926 -0.4648  0.0980
  229DG     C18 5262   3.381   5.141   3.347  0.3668 -0.4861  0.0347
  229DG     O19 5263   3.526   5.122   3.343 -0.4553  0.3678 -0.4957
  229DG     H20 5264   3.572   4.954   3.459 -0.5227 -1.3605 -0.1991
  229DG     H21 5265   3.514   4.923   3.292 -2.2294  0.6878  0.3934
  229DG     H22 5266   3.339   5.156   3.446  1.7888 -0.1273  0.6038
  229DG     H23 5267   3.328   5.061   3.295 -0.0842 -0.3089  0.2230
  230DG      C1 5268   4.926   2.599   0.602  0.2787 -0.2483  0.1694
  230DG      C2 5269   4.113   2.339   0.324  0.1357  0.3380 -0.2144
  230DG      H3 5270   5.002   2.530   0.564  0.2640 -1.2681  1.8669
  230DG      H4 5271   4.922   2.606   0.711  1.4127  0.4816  0.1744
  230DG      H5 5272   4.943   2.701   0.570  0.6905  0.0278  1.2327
  230DG      H6 5273   4.156   2.245   0.289  1.2351  0.1659  1.4510
  230DG      H7 5274   4.084   2.318   0.427  0.0619 -1.1651 -0.5210
  230DG      H8 5275   4.030   2.342   0.254  2.1242 -0.4301 -2.7681
  230DG      O9 5276   4.798   2.558   0.554  0.6082  0.7803  0.1388
  230DG     O10 5277   4.190   2.458   0.322  0.5121  0.8464  0.5681
  230DG     C11 5278   4.689   2.631   0.620 -0.2883  0.0766 -0.5984
  230DG     C12 5279   4.328   2.438   0.354  0.1677 -0.0778  0.2756
  230DG     H13 5280   4.716   2.727   0.663 -0.6062  0.6114 -1.5817
  230DG     H14 5281   4.641   2.571   0.698 -2.0370  0.4255 -1.3510
  230DG     H15 5282   4.385   2.391   0.274  0.9998  1.9252 -0.3550
  230DG     H16 5283   4.339   2.382   0.447  1.8391  1.2549  0.9358
  230DG     C17 5284   4.588   2.655   0.513  0.0055 -0.3266 -0.0832
  230DG     C18 5285   4.400   2.569   0.395 -0.8898 -0.9912  0.8027
  230DG     O19 5286   4.525   2.536   0.462 -0.5837 -0.4728  0.8805
  230DG     H20 5287   4.634   2.705   0.428  0.3599 -0.0981  0.2382
  230DG     H21 5288   4.515   2.729   0.546  1.0277  0.5797  0.2043
  230DG     H22 5289   4.415   2.631   0.306 -0.0965 -2.4227 -0.1126
  230DG     H23 5290   4.330   2.629   0.453  0.2123  0.4689  0.6676
  231DG      C1 5291   0.262   3.776   3.059  0.1054 -0.8757 -0.9622
  231DG      C2 5292  -0.195   3.981   2.409  0.3273 -0.0088 -0.9524
  231DG      H3 5293   0.343   3.736   2.998 -0.7635 -1.7331 -1.5696
  231DG      H4 5294   0.220   3.710   3.135  4.7952 -3.0893  0.0581
  231DG      H5 5295   0.302   3.868   3.103 -0.8306 -0.8171 -0.2009
  231DG      H6 5296  -0.095   3.983   2.367 -0.2405  1.7197 -2.3432
  231DG      H7 5297  -0.235   3.880   2.415  0.0388  0.0093 -2.3201
  231DG      H8 5298  -0.263   4.031   2.340 -0.3744  1.7969  0.9322
  231DG      O9 5299   0.159   3.821   2.968  0.0554 -0.4071  0.3692
  231DG     O10 5300  -0.197   4.054   2.531  0.4318  0.4100  0.7020
  231DG     C11 5301   0.047   3.875   3.038 -0.5143  0.2103 -0.3679
  231DG     C12 5302  -0.141   3.975   2.641  0.3142 -0.3608  0.3638
  231DG     H13 5303   0.079   3.971   3.078  0.9206 -0.0631 -0.8017
  231DG     H14 5304   0.017   3.818   3.126 -0.8266  0.0690 -0.5645
  231DG     H15 5305  -0.040   3.942   2.618 -0.4583 -2.0291 -0.8163
  231DG     H16 5306  -0.190   3.879   2.657  0.4069 -0.6776 -1.1421
  231DG     C17 5307  -0.068   3.892   2.947 -0.6354  0.6732 -0.7899
  231DG     C18 5308  -0.140   4.047   2.780  0.2562  0.4940 -0.3987
  231DG     O19 5309  -0.037   4.004   2.863  0.1396  0.3213  0.2320
  231DG     H20 5310  -0.147   3.909   3.020  0.3572 -1.8334  1.0117
  231DG     H21 5311  -0.086   3.803   2.886 -2.7452 -0.1705  0.9519
  231DG     H22 5312  -0.110   4.148   2.753  2.9959  0.0361  0.6158
  231DG     H23 5313  -0.238   4.066   2.824  0.0203 -1.3643 -0.0067
  232DG      C1 5314   0.303   0.607   0.402 -0.5570 -0.1398 -0.3940
  232DG      C2 5315   0.825   0.962   0.266 -0.1927  0.2167 -0.0634
  232DG      H3 5316   0.229   0.614   0.482  1.0162  0.6497  1.0492
  232DG      H4 5317   0.378   0.539   0.442 -0.9662 -0.6772 -0.5330
  232DG      H5 5318   0.263   0.553   0.317  2.0064  0.5968 -2.1755
  232DG      H6 5319   0.866   1.019   0.183 -0.4656  2.4868  1.2918
  232DG      H7 5320   0.845   1.014   0.359 -1.2559 -2.1931  1.6179
  232DG      H8 5321   0.880   0.868   0.271  0.7820  0.7179 -0.8976
  232DG      O9 5322   0.357   0.727   0.358 -0.4254 -0.1501 -0.2449
  232DG     O10 5323   0.689   0.928   0.242 -0.6974 -0.1334 -0.6547
  232DG     C11 5324   0.257   0.812   0.306  0.0063 -0.0145  0.3989
  232DG     C12 5325   0.608   1.043   0.220 -0.7840  0.1110  0.1073
  232DG     H13 5326   0.172   0.838   0.370 -1.0061  1.4016 -1.4257
  232DG     H14 5327   0.198   0.765   0.228 -3.9278  2.5913  1.5054
  232DG     H15 5328   0.665   1.128   0.181 -2.1047  0.0929 -2.0174
  232DG     H16 5329   0.568   1.076   0.316 -1.1621  0.5964 -0.2105
  232DG     C17 5330   0.321   0.940   0.256  0.3954 -0.0839  0.1028
  232DG     C18 5331   0.500   1.008   0.119  1.1593  0.1427 -0.0853
  232DG     O19 5332   0.411   0.906   0.154 -0.1774 -0.3335 -0.5081
  232DG     H20 5333   0.361   0.986   0.347 -0.4003 -1.4893  1.2160
  232DG     H21 5334   0.252   1.013   0.215  1.8506  0.0803 -2.2357
  232DG     H22 5335   0.444   1.096   0.088  1.8290  0.1644 -1.3086
  232DG     H23 5336   0.551   0.975   0.028  0.9980 -1.4284  0.3671
  233DG      C1 5337   0.710   4.217   4.507  0.1622 -0.4398  0.2104
  233DG      C2 5338   0.480   3.845   4.907  0.3225  0.4859  0.2181
  233DG      H3 5339   0.779   4.196   4.588 -0.4495  1.4739  1.2833
  233DG      H4 5340   0.753   4.308   4.465  1.9633 -0.9136  0.9522
  233DG      H5 5341   0.720   4.133   4.438 -0.3013  0.1930 -0.6665
  233DG      H6 5342   0.511   3.773   4.831  0.2133  1.0160 -0.3296
  233DG      H7 5343   0.566   3.871   4.969  0.7672  3.4565 -1.4987
  233DG      H8 5344   0.402   3.808   4.974  1.2054  2.8084  2.7163
  233DG      O9 5345   0.585   4.231   4.556  0.1022  0.8171 -0.1691
  233DG     O10 5346   0.437   3.962   4.852 -0.4132 -1.0116  0.1251
  233DG     C11 5347   0.562   4.351   4.622  0.1858 -0.3127 -0.6862
  233DG     C12 5348   0.377   4.062   4.943  0.0301 -0.3551  0.0914
  233DG     H13 5349   0.562   4.441   4.561 -0.3170  1.3682  1.6661
  233DG     H14 5350   0.628   4.372   4.706 -0.7663 -1.7202  0.4667
  233DG     H15 5351   0.455   4.090   5.014 -0.0569  1.6465 -0.5284
  233DG     H16 5352   0.298   4.011   4.998  1.1552 -1.3012  0.8742
  233DG     C17 5353   0.427   4.330   4.689  0.5758 -0.3854  0.6924
  233DG     C18 5354   0.345   4.188   4.867 -0.6372  0.0297 -0.1674
  233DG     O19 5355   0.442   4.216   4.768 -0.0045  0.2070  0.3000
  233DG     H20 5356   0.356   4.312   4.609 -0.1340 -2.4089  1.7298
  233DG     H21 5357   0.405   4.423   4.742  1.5592  1.5033 -1.9713
  233DG     H22 5358   0.251   4.172   4.813 -1.6324  0.9069  1.2361
  233DG     H23 5359   0.322   4.276   4.927  1.8019 -0.3522  1.4406
  234DG      C1 5360   1.365   2.868   3.968 -0.3141 -0.1099 -0.1032
  234DG      C2 5361   0.859   3.076   3.653 -0.0488  0.0078 -0.6404
  234DG      H3 5362   1.403   2.925   3.883  1.2534  0.4173  0.9183
  234DG      H4 5363   1.395   2.764   3.964 -1.5565 -0.5013  0.4420
  234DG      H5 5364   1.409   2.910   4.058 -0.6985 -1.8228  0.9069
  234DG      H6 5365   0.889   3.181   3.652 -1.3277  0.3986 -1.1684
  234DG      H7 5366   0.926   3.017   3.591  1.6566  0.8397  0.3425
  234DG      H8 5367   0.757   3.077   3.614 -0.2800  2.2791 -0.1130
  234DG      O9 5368   1.223   2.890   3.971 -0.1508 -0.6029 -0.1736
  234DG     O10 5369   0.868   3.059   3.794  0.1322  0.4753 -0.9679
  234DG     C11 5370   1.155   2.802   4.060 -1.3432 -0.5902 -0.4339
  234DG     C12 5371   0.800   2.939   3.836 -0.0870  0.0625  0.2705
  234DG     H13 5372   1.182   2.829   4.162  0.9905 -1.5761 -0.7216
  234DG     H14 5373   1.197   2.702   4.054  0.6037  0.0350  1.4545
  234DG     H15 5374   0.847   2.851   3.793  1.5881 -0.3394  2.7007
  234DG     H16 5375   0.699   2.943   3.796 -0.3341 -0.2861  0.8385
  234DG     C17 5376   1.009   2.799   4.027 -0.6809 -0.1839  0.7469
  234DG     C18 5377   0.800   2.926   3.990 -0.4957 -0.3060  0.3716
  234DG     O19 5378   0.942   2.930   4.026  0.4550  0.3379  0.0210
  234DG     H20 5379   0.962   2.732   4.099  0.5828 -2.2305 -0.2278
  234DG     H21 5380   1.003   2.751   3.929 -2.8313  0.8532  0.3244
  234DG     H22 5381   0.756   3.011   4.041  1.0498  1.1689 -0.6414
  234DG     H23 5382   0.743   2.841   4.026  0.8257 -0.7767  1.4527
  235DG      C1 5383   0.290   3.488   2.570  0.2729 -0.2788  0.4114
  235DG      C2 5384   0.513   3.139   2.827  0.1720 -0.2957 -0.1600
  235DG      H3 5385   0.322   3.419   2.648 -1.3621 -1.9922 -0.3535
  235DG      H4 5386   0.350   3.578   2.560 -1.2999  0.7131 -0.5393
  235DG      H5 5387   0.303   3.430   2.479  0.0938  0.1191  0.1308
  235DG      H6 5388   0.511   3.104   2.724 -0.6680  1.6922 -0.8660
  235DG      H7 5389   0.608   3.185   2.853 -0.2290  0.1091  0.6235
  235DG      H8 5390   0.493   3.053   2.891  1.4715  1.1905  2.4073
  235DG      O9 5391   0.157   3.537   2.599 -0.0773  0.1710 -0.2793
  235DG     O10 5392   0.390   3.220   2.825  0.0540  0.0410  0.3142
  235DG     C11 5393   0.141   3.606   2.722  0.4354  0.5565 -0.3339
  235DG     C12 5394   0.362   3.269   2.954  0.4028  0.4814 -1.1424
  235DG     H13 5395   0.050   3.664   2.708 -0.1536 -0.4386 -0.6989
  235DG     H14 5396   0.220   3.673   2.757  1.1051 -0.3899  0.0266
  235DG     H15 5397   0.439   3.337   2.990  1.3193 -0.9485 -0.3028
  235DG     H16 5398   0.352   3.182   3.019 -2.7508  0.3027 -1.6746
  235DG     C17 5399   0.119   3.508   2.839 -0.7389 -0.5422  0.0678
  235DG     C18 5400   0.228   3.336   2.956  0.4526 -0.4040  0.5230
  235DG     O19 5401   0.245   3.448   2.876  0.2320 -0.0007 -0.1303
  235DG     H20 5402   0.046   3.434   2.805 -0.7259 -1.5777  2.1673
  235DG     H21 5403   0.059   3.557   2.916 -1.7925 -0.5861 -0.6937
  235DG     H22 5404   0.144   3.273   2.927  0.8175 -1.2457  1.2396
  235DG     H23 5405   0.215   3.374   3.058  0.2480 -0.1089  0.3890
  236DG      C1 5406   0.746   4.839   3.715  0.3527 -0.1537  0.1277
  236DG      C2 5407   0.049   4.633   3.805  0.5031 -0.8538  0.0846
  236DG      H3 5408   0.759   4.871   3.612 -3.1466 -0.9760 -0.7022
  236DG      H4 5409   0.839   4.793   3.748  1.0449  2.1089  1.5816
  236DG      H5 5410   0.711   4.912   3.788  2.8294  1.2273  0.0529
  236DG      H6 5411   0.007   4.705   3.875  2.6901 -0.8834  1.5268
  236DG      H7 5412   0.089   4.682   3.716 -1.7531  1.6492  0.3380
  236DG      H8 5413  -0.034   4.567   3.780 -0.6685  1.1512 -1.7184
  236DG      O9 5414   0.654   4.735   3.694  0.5107 -0.3493 -0.6242
  236DG     O10 5415   0.153   4.571   3.874 -0.1276 -0.0665 -0.2434
  236DG     C11 5416   0.605   4.678   3.818 -0.0828  0.9613 -0.0805
  236DG     C12 5417   0.205   4.459   3.804 -0.2137  0.6954 -0.3472
  236DG     H13 5418   0.545   4.745   3.880 -0.9381 -1.2771  1.6579
  236DG     H14 5419   0.687   4.634   3.874 -1.3794  0.7304  1.7395
  236DG     H15 5420   0.120   4.397   3.775 -1.3026  1.9482  0.0690
  236DG     H16 5421   0.264   4.409   3.880 -0.1376  0.5736 -0.4863
  236DG     C17 5422   0.502   4.564   3.788  0.3811  0.2912  0.2066
  236DG     C18 5423   0.299   4.498   3.681  0.0477 -0.6917 -0.1170
  236DG     O19 5424   0.380   4.609   3.718 -0.0647  0.1024 -0.5734
  236DG     H20 5425   0.467   4.521   3.882  1.1075 -2.1446 -0.5812
  236DG     H21 5426   0.553   4.482   3.738 -2.5922 -1.7845  0.2878
  236DG     H22 5427   0.351   4.415   3.633 -0.5043 -1.6015  0.8177
  236DG     H23 5428   0.228   4.533   3.606  1.8508 -0.0258 -1.5948
  237DG      C1 5429   2.118   1.220   5.161 -0.0246  0.3726 -0.9422
  237DG      C2 5430   2.864   1.470   5.078  0.2029 -0.1847 -0.8705
  237DG      H3 5431   2.026   1.277   5.157  0.0436  0.5538 -0.2114
  237DG      H4 5432   2.123   1.160   5.252  1.3238  0.1518 -1.1315
  237DG      H5 5433   2.123   1.156   5.073  0.4673  0.1177 -0.7382
  237DG      H6 5434   2.910   1.564   5.105  2.1164 -1.0333 -1.0343
  237DG      H7 5435   2.863   1.392   5.154 -0.6375  0.8169  0.1746
  237DG      H8 5436   2.909   1.436   4.984  0.1813  3.1505 -2.2015
  237DG      O9 5437   2.203   1.329   5.169 -0.1987  0.3522 -0.3299
  237DG     O10 5438   2.729   1.498   5.053  0.1224  0.3137  0.0311
  237DG     C11 5439   2.225   1.393   5.038  0.1533  0.1591 -0.1820
  237DG     C12 5440   2.667   1.543   5.180 -0.1607  0.4798  0.3882
  237DG     H13 5441   2.131   1.436   5.004 -0.1019  0.8665  1.3572
  237DG     H14 5442   2.265   1.313   4.975 -2.0358 -2.1425  1.1631
  237DG     H15 5443   2.723   1.629   5.217  1.0333 -1.0633  2.3939
  237DG     H16 5444   2.666   1.471   5.261  0.0462  0.7122  0.6006
  237DG     C17 5445   2.321   1.513   5.059  0.8943  0.0378 -0.2572
  237DG     C18 5446   2.525   1.581   5.151  0.1915  0.2021 -0.6085
  237DG     O19 5447   2.442   1.465   5.118  0.1193 -0.6354  0.3359
  237DG     H20 5448   2.268   1.591   5.112 -1.1349  0.0433 -2.1543
  237DG     H21 5449   2.346   1.547   4.958 -2.5593  0.8949 -0.9404
  237DG     H22 5450   2.483   1.629   5.239 -0.9073  1.6762 -1.8759
  237DG     H23 5451   2.537   1.655   5.072  0.8771 -2.1741 -2.8896
  238DG      C1 5452   2.886   0.801   1.809  0.3869 -0.2050  0.3702
  238DG      C2 5453   2.444   0.574   1.273  0.1226  0.1548 -0.1770
  238DG      H3 5454   2.953   0.729   1.762 -0.2291 -2.0956  2.1835
  238DG      H4 5455   2.825   0.741   1.878  0.6597 -0.8436  0.0646
  238DG      H5 5456   2.936   0.870   1.877 -0.9308  0.9334  0.2328
  238DG      H6 5457   2.396   0.496   1.333  0.3155  0.3804  0.2811
  238DG      H7 5458   2.376   0.620   1.202  0.5456  1.0754 -0.0001
  238DG      H8 5459   2.526   0.526   1.220 -0.4395 -0.7258 -0.2649
  238DG      O9 5460   2.800   0.863   1.719  0.2233  0.6559 -0.3356
  238DG     O10 5461   2.494   0.664   1.371 -0.2630  0.7233  0.6999
  238DG     C11 5462   2.864   0.923   1.601 -0.3981  0.3710  0.7035
  238DG     C12 5463   2.541   0.786   1.318 -0.5712 -1.0440 -0.6165
  238DG     H13 5464   2.962   0.968   1.618  0.0539 -0.1229 -0.4908
  238DG     H14 5465   2.797   1.004   1.571 -0.4653  0.3410  0.7716
  238DG     H15 5466   2.460   0.853   1.294  0.1972  0.1785  0.0952
  238DG     H16 5467   2.602   0.762   1.231  0.8099 -2.0594  0.5643
  238DG     C17 5468   2.877   0.824   1.480  0.9722  0.1968  0.1115
  238DG     C18 5469   2.634   0.861   1.416 -0.2393  0.0720 -0.3583
  238DG     O19 5470   2.744   0.769   1.450 -0.1193  0.5274 -0.3722
  238DG     H20 5471   2.944   0.741   1.504  0.2458 -0.7032 -0.8912
  238DG     H21 5472   2.923   0.877   1.396  0.0534  0.9093  0.0418
  238DG     H22 5473   2.665   0.954   1.368 -1.1110  1.6350  1.9459
  238DG     H23 5474   2.578   0.888   1.505 -0.2562 -2.7647  0.5846
  239DG      C1 5475   2.082   4.088   4.483 -0.6371  0.4252  0.5004
  239DG      C2 5476   1.421   3.929   4.163  0.0607 -0.2600 -0.5023
  239DG      H3 5477   2.075   4.021   4.398  0.8171 -0.3043  0.9212
  239DG      H4 5478   2.113   4.026   4.567  1.2809  1.1719  0.4090
  239DG      H5 5479   2.154   4.166   4.456 -1.8505  0.9200 -1.4989
  239DG      H6 5480   1.331   3.976   4.125  1.2539 -0.0331 -3.2534
  239DG      H7 5481   1.480   3.885   4.083  2.2048  2.0374 -0.3233
  239DG      H8 5482   1.385   3.845   4.223  0.6492  1.4009  2.3912
  239DG      O9 5483   1.958   4.140   4.506  0.1679 -0.2431  0.0575
  239DG     O10 5484   1.516   4.015   4.230  0.2120  0.3394 -0.1505
  239DG     C11 5485   1.909   4.217   4.397  0.0635 -0.7240 -0.4692
  239DG     C12 5486   1.459   4.081   4.340  0.2452  0.1333  0.8387
  239DG     H13 5487   1.913   4.171   4.299 -0.8584 -0.5411 -0.6001
  239DG     H14 5488   1.978   4.302   4.396 -1.8777  0.9346 -0.2361
  239DG     H15 5489   1.430   4.009   4.416 -0.5116  0.3106  0.7211
  239DG     H16 5490   1.369   4.132   4.306  0.5298 -1.1581 -2.1527
  239DG     C17 5491   1.765   4.257   4.422 -0.3526 -0.1560 -0.1947
  239DG     C18 5492   1.550   4.198   4.377  0.7445 -0.0021  0.2946
  239DG     O19 5493   1.681   4.155   4.380  0.2020 -0.3312  0.6123
  239DG     H20 5494   1.740   4.344   4.360  1.2677  0.1755 -0.4396
  239DG     H21 5495   1.741   4.300   4.519  0.1312  1.2400 -0.6680
  239DG     H22 5496   1.538   4.281   4.307  1.3802 -1.7508 -2.0171
  239DG     H23 5497   1.525   4.228   4.479  0.1182 -0.2370  0.2198
  240DG      C1 5498   1.098   3.144   4.250 -0.0376  0.2581 -0.3999
  240DG      C2 5499   1.414   3.577   3.871 -0.1426  0.1362 -0.1002
  240DG      H3 5500   1.112   3.040   4.278 -0.3537  0.7273  1.6481
  240DG      H4 5501   1.005   3.149   4.192 -0.5203  3.2257  0.4982
  240DG      H5 5502   1.087   3.210   4.336  1.8082  0.5452 -0.3590
  240DG      H6 5503   1.310   3.580   3.841  0.5913  2.1331 -2.8039
  240DG      H7 5504   1.440   3.658   3.939  0.3090 -0.3834  0.3605
  240DG      H8 5505   1.460   3.602   3.775  1.1131  1.0174  0.7032
  240DG      O9 5506   1.197   3.181   4.164  0.0085  0.1456 -0.0128
  240DG     O10 5507   1.472   3.456   3.933  0.1019 -0.1319  0.3334
  240DG     C11 5508   1.323   3.180   4.221 -0.2339  0.4051  0.8209
  240DG     C12 5509   1.507   3.351   3.837  0.3083  0.9655 -0.0996
  240DG     H13 5510   1.350   3.076   4.239 -1.7343 -0.3360 -0.9094
  240DG     H14 5511   1.305   3.222   4.320  0.0001  1.4279  0.4442
  240DG     H15 5512   1.593   3.376   3.775 -0.3743  0.3575 -1.3192
  240DG     H16 5513   1.429   3.322   3.767  0.5922 -1.0396  0.3498
  240DG     C17 5514   1.423   3.259   4.135  0.5440  0.1801  0.1083
  240DG     C18 5515   1.522   3.222   3.913 -0.4609  0.7266 -0.7583
  240DG     O19 5516   1.423   3.184   4.010 -0.4730 -0.2416  0.2302
  240DG     H20 5517   1.525   3.265   4.174 -0.6514 -0.0546  3.6717
  240DG     H21 5518   1.382   3.360   4.131 -2.2259 -0.8385  0.4616
  240DG     H22 5519   1.530   3.129   3.856  1.9310  1.1678 -1.2297
  240DG     H23 5520   1.614   3.231   3.971 -0.8558  0.6793 -0.1135
  241DG      C1 5521   2.385   5.021   2.430  0.5872 -0.1298  0.0188
  241DG      C2 5522   2.067   4.502   2.302  0.7830 -0.9392 -0.4429
  241DG      H3 5523   2.462   4.995   2.501  0.7174  3.1334  1.2545
  241DG      H4 5524   2.288   5.019   2.479 -0.6090 -0.9750 -2.2297
  241DG      H5 5525   2.417   5.121   2.398  1.0525 -0.6597 -1.2692
  241DG      H6 5526   1.994   4.439   2.253 -0.6281 -1.5402  2.2598
  241DG      H7 5527   2.113   4.415   2.349 -0.4218 -2.8819 -2.6500
  241DG      H8 5528   2.015   4.561   2.377  0.8323 -0.9009 -0.4389
  241DG      O9 5529   2.372   4.938   2.319 -0.2550 -0.0280  0.0712
  241DG     O10 5530   2.164   4.580   2.236  0.9111  0.8325  0.2387
  241DG     C11 5531   2.491   4.917   2.240  0.3543  0.1181 -0.3521
  241DG     C12 5532   2.246   4.509   2.140 -0.5947 -0.0128 -0.2150
  241DG     H13 5533   2.560   4.872   2.311  0.3831  2.0961  0.9378
  241DG     H14 5534   2.541   4.999   2.189 -1.2562  1.3228 -0.0792
  241DG     H15 5535   2.196   4.462   2.055  2.7870 -1.3608 -1.6372
  241DG     H16 5536   2.297   4.433   2.199 -1.9625  1.3954  2.9925
  241DG     C17 5537   2.466   4.822   2.127  0.1875 -0.0769  0.2512
  241DG     C18 5538   2.352   4.612   2.084  0.3408 -0.7632 -0.6881
  241DG     O19 5539   2.380   4.717   2.181  0.4958  0.1514  0.1119
  241DG     H20 5540   2.559   4.784   2.084  0.3233 -1.4676  1.6670
  241DG     H21 5541   2.404   4.873   2.053 -0.4463 -0.3131  0.6054
  241DG     H22 5542   2.432   4.545   2.053 -0.2621 -2.2054  0.7944
  241DG     H23 5543   2.310   4.658   1.994 -0.0686  2.5416  1.0262
  242DG      C1 5544   3.852   0.471   2.290  0.0057 -0.2136 -0.3982
  242DG      C2 5545   3.916   1.054   1.921 -0.3190  0.1292 -0.2061
  242DG      H3 5546   3.893   0.386   2.343 -0.0301  0.3493  0.5578
  242DG      H4 5547   3.803   0.434   2.200  0.4888 -3.4041  0.5525
  242DG      H5 5548   3.791   0.540   2.348  0.9306  1.1501 -0.9984
  242DG      H6 5549   3.880   1.028   1.822 -2.1568  0.2771  0.3893
  242DG      H7 5550   3.832   1.079   1.985  0.4796  0.4255  0.7603
  242DG      H8 5551   3.975   1.146   1.914 -2.0168  1.2768 -0.0578
  242DG      O9 5552   3.966   0.539   2.241 -0.0652 -0.0039 -0.3482
  242DG     O10 5553   4.001   0.960   1.975 -0.5732  0.4283 -0.3529
  242DG     C11 5554   4.036   0.598   2.346 -0.3158  0.5485  0.0212
  242DG     C12 5555   4.055   1.002   2.100  0.1047 -0.5563 -0.6438
  242DG     H13 5556   4.102   0.525   2.394  1.5709  2.2619  0.1429
  242DG     H14 5557   3.973   0.642   2.423 -0.4169  2.0201 -0.8764
  242DG     H15 5558   3.973   1.014   2.172 -0.8801 -1.2280 -1.6172
  242DG     H16 5559   4.111   1.095   2.091 -2.1805  1.2347  1.8163
  242DG     C17 5560   4.128   0.711   2.293  0.8176 -0.2174  0.5092
  242DG     C18 5561   4.142   0.890   2.147 -0.2773 -0.1610 -0.4560
  242DG     O19 5562   4.056   0.790   2.204 -0.2447  0.3856  0.3908
  242DG     H20 5563   4.209   0.665   2.236 -0.1161  2.0070 -2.9186
  242DG     H21 5564   4.161   0.765   2.381  0.5495 -0.0299  0.4949
  242DG     H22 5565   4.200   0.842   2.069  0.2756 -0.7458  0.3019
  242DG     H23 5566   4.196   0.931   2.233 -0.4620 -0.6267 -0.1130
  243DG      C1 5567   5.043   0.441   3.821 -0.3504 -0.3963  0.0350
  243DG      C2 5568   4.574   0.685   4.126 -0.8793 -0.3364  0.1117
  243DG      H3 5569   5.089   0.403   3.913 -2.2591 -0.5711  0.9652
  243DG      H4 5570   5.132   0.470   3.765  1.0853 -0.8520  1.9503
  243DG      H5 5571   4.985   0.361   3.777  0.4108 -0.6382 -0.5468
  243DG      H6 5572   4.524   0.589   4.136 -2.1756  0.4372  1.4949
  243DG      H7 5573   4.678   0.664   4.105 -0.9098 -1.8362  1.3073
  243DG      H8 5574   4.563   0.729   4.225 -0.5783 -0.5501  0.2387
  243DG      O9 5575   4.966   0.552   3.865  0.3421 -0.0284  0.2779
  243DG     O10 5576   4.508   0.760   4.026  0.9371  0.1834  0.1049
  243DG     C11 5577   4.930   0.631   3.752  0.0234  0.2807  0.0401
  243DG     C12 5578   4.510   0.698   3.897 -0.2731  0.1019  0.4476
  243DG     H13 5579   4.856   0.572   3.698 -0.6853  2.5418 -1.6494
  243DG     H14 5580   5.012   0.642   3.681 -1.1210 -1.3998 -1.6338
  243DG     H15 5581   4.415   0.734   3.857 -1.6178 -1.2881  2.2082
  243DG     H16 5582   4.515   0.589   3.901 -0.6289  0.0952  0.7619
  243DG     C17 5583   4.864   0.763   3.793  0.3486 -0.2326 -0.2954
  243DG     C18 5584   4.626   0.757   3.812  0.3467  0.2392 -0.2071
  243DG     O19 5585   4.752   0.736   3.876 -0.1220 -0.3493  0.0877
  243DG     H20 5586   4.853   0.830   3.708 -1.4545 -0.4959 -0.2947
  243DG     H21 5587   4.937   0.812   3.857 -0.2019 -0.8460  0.8240
  243DG     H22 5588   4.627   0.707   3.716  0.6475 -2.0928  0.9262
  243DG     H23 5589   4.607   0.862   3.794  0.3272  0.6274  1.7985
  244DG      C1 5590   0.762   1.105   1.441  0.6413  0.2918  0.1669
  244DG      C2 5591   0.470   1.785   1.453  0.4328  0.3063  0.3650
  244DG      H3 5592   0.785   1.077   1.544 -0.1968 -1.0228  0.0304
  244DG      H4 5593   0.831   1.054   1.373 -1.5746 -0.6956 -1.4811
  244DG      H5 5594   0.665   1.065   1.412  0.2572  1.0660  0.3837
  244DG      H6 5595   0.470   1.807   1.560 -0.6491  0.0040  0.4422
  244DG      H7 5596   0.465   1.872   1.388 -1.0621 -1.1492 -1.5807
  244DG      H8 5597   0.378   1.729   1.437  1.9008 -1.8416 -0.9887
  244DG      O9 5598   0.757   1.240   1.406  0.2736  0.0733  0.1481
  244DG     O10 5599   0.577   1.699   1.413 -0.4877  0.5227  0.0798
  244DG     C11 5600   0.877   1.306   1.401  0.5658  0.2262 -0.3964
  244DG     C12 5601   0.699   1.753   1.452  0.7178  0.2364  0.3854
  244DG     H13 5602   0.941   1.245   1.336  0.1473 -3.7294  2.5223
  244DG     H14 5603   0.924   1.304   1.499  1.7006 -0.7918 -0.9267
  244DG     H15 5604   0.697   1.745   1.561 -1.6994  0.2561  0.3917
  244DG     H16 5605   0.710   1.860   1.432  2.1885  0.1911  0.8507
  244DG     C17 5606   0.873   1.447   1.345  1.1102 -1.1110  0.2472
  244DG     C18 5607   0.801   1.670   1.376  0.1266  0.0737 -0.1319
  244DG     O19 5608   0.790   1.531   1.417 -0.5795  0.2938 -0.3958
  244DG     H20 5609   0.848   1.449   1.239  1.8942  1.7367  0.0491
  244DG     H21 5610   0.975   1.486   1.345  0.1014  1.7718  0.6672
  244DG     H22 5611   0.768   1.680   1.272 -0.5974 -0.1706  0.0642
  244DG     H23 5612   0.901   1.711   1.386  0.6158 -0.6932 -1.5935
  245DG      C1 5613   2.596   2.291   2.740 -0.7151 -0.5072 -0.2524
  245DG      C2 5614   3.037   2.634   3.129  0.2428 -0.1345  0.1993
  245DG      H3 5615   2.499   2.241   2.729 -2.2926  2.0112  1.2245
  245DG      H4 5616   2.685   2.241   2.702  1.0260  1.2218  1.3582
  245DG      H5 5617   2.583   2.387   2.689  2.3070 -0.9121 -2.0091
  245DG      H6 5618   3.116   2.611   3.058 -0.5916 -1.4181 -0.3409
  245DG      H7 5619   2.983   2.720   3.087  0.8185 -0.1251 -0.5409
  245DG      H8 5620   3.076   2.660   3.227 -0.2592  0.1081  0.3411
  245DG      O9 5621   2.609   2.327   2.878 -0.4305 -0.1269 -0.0019
  245DG     O10 5622   2.944   2.527   3.123 -0.2636  0.5855  0.2890
  245DG     C11 5623   2.609   2.217   2.966 -0.1956  0.3828 -0.7048
  245DG     C12 5624   3.001   2.408   3.182  0.2955  0.2220  0.2948
  245DG     H13 5625   2.649   2.125   2.922 -2.1719 -1.1410  0.4898
  245DG     H14 5626   2.504   2.189   2.980 -0.3391 -0.0361 -2.3602
  245DG     H15 5627   3.028   2.432   3.285 -1.3311  1.0556  0.5437
  245DG     H16 5628   3.090   2.378   3.126  0.6614  0.7085  0.6108
  245DG     C17 5629   2.681   2.251   3.094  0.0378  1.6009  0.2276
  245DG     C18 5630   2.901   2.297   3.192  0.0428  0.0812 -0.2368
  245DG     O19 5631   2.815   2.295   3.075 -0.8888 -0.6175  0.6715
  245DG     H20 5632   2.695   2.165   3.160  2.9605  1.3945 -0.4982
  245DG     H21 5633   2.626   2.331   3.144 -0.2262  2.0909 -0.8212
  245DG     H22 5634   2.949   2.202   3.215  0.7488  1.0319  2.7088
  245DG     H23 5635   2.834   2.313   3.277  2.5808 -0.4258  2.0194
  246DG      C1 5636   0.395   1.141   3.252  0.6957 -0.4160  0.1953
  246DG      C2 5637  -0.271   0.691   3.410 -0.0685  0.3996  0.0562
  246DG      H3 5638   0.333   1.229   3.236  1.6886 -0.1229 -2.4299
  246DG      H4 5639   0.463   1.130   3.168  0.3800 -1.7268  0.0775
  246DG      H5 5640   0.452   1.159   3.344 -0.3916  0.3036  0.7432
  246DG      H6 5641  -0.284   0.687   3.518  1.2328 -1.3637  0.1791
  246DG      H7 5642  -0.334   0.766   3.362  1.6641  1.8288 -0.0499
  246DG      H8 5643  -0.305   0.596   3.368 -1.3422  0.1870  1.4542
  246DG      O9 5644   0.309   1.024   3.259  0.4897 -0.1844 -0.0974
  246DG     O10 5645  -0.140   0.714   3.369 -0.2327 -0.4271  0.5550
  246DG     C11 5646   0.204   1.043   3.356 -0.3354 -0.4828 -0.3960
  246DG     C12 5647  -0.120   0.721   3.229 -0.0666  0.2771  0.4453
  246DG     H13 5648   0.157   1.141   3.347  1.8561  0.7722  1.0368
  246DG     H14 5649   0.252   1.046   3.454  1.4414 -2.4217 -1.1312
  246DG     H15 5650  -0.188   0.794   3.185  2.1911  1.6762 -0.9869
  246DG     H16 5651  -0.144   0.621   3.194  0.7999  0.3825 -0.5248
  246DG     C17 5652   0.102   0.924   3.352 -0.3186 -0.1398 -0.1262
  246DG     C18 5653   0.028   0.750   3.189  0.4358  0.5228  0.0138
  246DG     O19 5654   0.068   0.885   3.216  0.4061  0.8411 -0.4683
  246DG     H20 5655   0.012   0.944   3.409 -0.8355 -2.6891  0.0801
  246DG     H21 5656   0.152   0.843   3.404  0.6494  0.0642 -0.7063
  246DG     H22 5657   0.094   0.674   3.232 -1.1297 -1.1044 -0.3439
  246DG     H23 5658   0.035   0.729   3.082  3.1143  0.8803  0.0549
  247DG      C1 5659   0.532   3.222   3.827  0.9361  0.2892 -0.2975
  247DG      C2 5660   0.083   3.200   4.307 -0.5360  0.0112 -0.2038
  247DG      H3 5661   0.608   3.290   3.787 -2.1408  3.0200 -1.9872
  247DG      H4 5662   0.558   3.116   3.831 -1.1546 -0.2259  1.9648
  247DG      H5 5663   0.540   3.250   3.933 -1.6522 -0.1601  0.0708
  247DG      H6 5664   0.113   3.285   4.368  0.4695 -0.9588  0.6845
  247DG      H7 5665  -0.022   3.192   4.336 -0.7880 -0.7000 -1.2498
  247DG      H8 5666   0.130   3.108   4.341 -2.4465 -0.2589  1.9663
  247DG      O9 5667   0.393   3.242   3.785  0.7657  0.4181  0.5626
  247DG     O10 5668   0.099   3.231   4.162  0.0153 -0.5182 -0.2261
  247DG     C11 5669   0.358   3.380   3.778 -0.4923  0.2342  0.0022
  247DG     C12 5670   0.032   3.352   4.127 -0.0928  0.3417  1.0630
  247DG     H13 5671   0.372   3.406   3.673  0.6677 -2.4196 -0.5870
  247DG     H14 5672   0.412   3.442   3.850  1.1525 -2.6958  1.5268
  247DG     H15 5673   0.061   3.439   4.186  3.4801 -1.2452  1.9178
  247DG     H16 5674  -0.074   3.331   4.140  0.2264 -0.8854  1.8787
  247DG     C17 5675   0.216   3.408   3.814 -0.0458 -0.1399 -0.1429
  247DG     C18 5676   0.068   3.380   3.979  0.4811  0.1886  0.7329
  247DG     O19 5677   0.205   3.369   3.948  0.6003  0.1441  0.5097
  247DG     H20 5678   0.159   3.336   3.754  3.7460 -2.7175 -0.9796
  247DG     H21 5679   0.179   3.509   3.797  3.3127  0.9881 -1.5081
  247DG     H22 5680   0.005   3.319   3.915  3.1544 -1.1432 -0.8357
  247DG     H23 5681   0.029   3.477   3.950 -0.6287 -1.0402 -2.3130
  248DG      C1 5682   3.506   1.986   0.810  0.1316  0.1600  0.4613
  248DG      C2 5683   3.725   2.290   1.474 -0.0973  0.0285  0.6058
  248DG      H3 5684   3.549   1.949   0.717  0.7326  0.5943  0.5603
  248DG      H4 5685   3.472   2.089   0.796 -0.4650  0.4778  3.4706
  248DG      H5 5686   3.412   1.932   0.820 -1.2077  2.3129  0.1100
  248DG      H6 5687   3.755   2.270   1.577  0.8887 -0.6503  0.2035
  248DG      H7 5688   3.791   2.367   1.435 -0.5062  0.0631 -0.0247
  248DG      H8 5689   3.627   2.339   1.474  1.3228  3.1741 -1.1732
  248DG      O9 5690   3.587   1.976   0.929 -0.1322  0.2300 -0.4467
  248DG     O10 5691   3.723   2.182   1.384  0.6365 -0.3734 -0.1377
  248DG     C11 5692   3.558   1.865   1.012  1.0927  0.7362  0.2485
  248DG     C12 5693   3.646   2.076   1.433 -0.3641 -0.0242 -0.1843
  248DG     H13 5694   3.582   1.769   0.967  2.1433  0.7161  0.8218
  248DG     H14 5695   3.452   1.858   1.040  0.8290  2.0445 -0.3249
  248DG     H15 5696   3.539   2.096   1.429 -0.5495 -0.8582  0.5469
  248DG     H16 5697   3.674   2.056   1.536 -0.7028  1.1188  0.1430
  248DG     C17 5698   3.645   1.864   1.130 -0.4169 -0.1821  0.4831
  248DG     C18 5699   3.673   1.947   1.346  0.6549  0.2633 -0.8340
  248DG     O19 5700   3.600   1.962   1.227 -0.5131  0.4008  0.3246
  248DG     H20 5701   3.745   1.886   1.093 -1.0611  0.2261 -1.0956
  248DG     H21 5702   3.652   1.767   1.179  0.8727 -0.4597 -0.2152
  248DG     H22 5703   3.779   1.924   1.340  0.5083 -0.1481 -2.2936
  248DG     H23 5704   3.628   1.861   1.396 -0.0062  0.8615 -0.3773
  249DG      C1 5705   2.722   4.395   2.044 -0.0630 -0.1428  0.7754
  249DG      C2 5706   3.399   4.257   1.466 -0.8711 -0.3624  0.0604
  249DG      H3 5707   2.629   4.345   2.071 -1.0565  1.5297  0.5978
  249DG      H4 5708   2.702   4.502   2.046  1.0214  0.0691  0.8998
  249DG      H5 5709   2.799   4.386   2.120  1.2751  4.1616  0.1909
  249DG      H6 5710   3.467   4.191   1.521 -0.2726 -1.4022 -1.8374
  249DG      H7 5711   3.418   4.261   1.359 -1.2205  1.3399  0.0352
  249DG      H8 5712   3.417   4.355   1.509 -1.0416 -1.2204  2.2296
  249DG      O9 5713   2.772   4.360   1.916 -0.1600  0.1602  0.0714
  249DG     O10 5714   3.270   4.210   1.492 -0.1073 -0.1334  0.1494
  249DG     C11 5715   2.840   4.229   1.916 -0.1108 -0.6525  0.6061
  249DG     C12 5716   3.204   4.273   1.607  0.6580  0.3635 -0.3050
  249DG     H13 5717   2.773   4.158   1.964  0.5047 -0.7166  1.3999
  249DG     H14 5718   2.933   4.241   1.972  0.0949 -2.8864  0.8365
  249DG     H15 5719   3.202   4.382   1.608  0.6492  0.3921 -1.5813
  249DG     H16 5720   3.256   4.254   1.701 -0.4897  0.3758  0.3477
  249DG     C17 5721   2.885   4.187   1.780  0.6425  0.8792 -0.3278
  249DG     C18 5722   3.059   4.223   1.614 -0.0545 -0.4821  0.2309
  249DG     O19 5723   3.010   4.253   1.742 -0.2123 -0.6340  0.3268
  249DG     H20 5724   2.815   4.189   1.696  1.4097 -0.1854 -1.0232
  249DG     H21 5725   2.900   4.079   1.784 -0.1939  0.7976  2.9935
  249DG     H22 5726   3.003   4.260   1.528  0.7766 -0.7606 -0.4455
  249DG     H23 5727   3.067   4.114   1.612  1.2240 -0.4063  0.3249
  250DG      C1 5728   3.411   2.805   1.755  0.0412  0.3769 -0.0719
  250DG      C2 5729   3.554   3.505   1.289  0.1438 -0.0099  0.1881
  250DG      H3 5730   3.314   2.760   1.734 -0.1052  0.8884 -0.5113
  250DG      H4 5731   3.394   2.855   1.851  0.1030 -1.1329  0.7614
  250DG      H5 5732   3.477   2.723   1.785 -0.8380 -0.3262 -0.0184
  250DG      H6 5733   3.463   3.514   1.230 -0.6764  1.0275  1.5350
  250DG      H7 5734   3.531   3.557   1.383 -3.3838 -0.3499 -0.3445
  250DG      H8 5735   3.633   3.559   1.237  1.4372 -0.8878  1.1855
  250DG      O9 5736   3.481   2.890   1.668  0.2101  0.2533 -0.2608
  250DG     O10 5737   3.598   3.367   1.299  0.1086  0.0832  0.0449
  250DG     C11 5738   3.491   2.819   1.543  0.6156 -0.3594 -0.3495
  250DG     C12 5739   3.515   3.274   1.352 -0.2027  1.1335 -0.1509
  250DG     H13 5740   3.394   2.806   1.496  1.5115 -0.3472 -2.3467
  250DG     H14 5741   3.541   2.724   1.562  0.0960 -0.4380  0.6596
  250DG     H15 5742   3.430   3.258   1.285 -1.6767  2.6226  1.2598
  250DG     H16 5743   3.478   3.311   1.448  1.4569 -0.1952  1.0678
  250DG     C17 5744   3.559   2.910   1.440 -0.3105  0.3793  0.5436
  250DG     C18 5745   3.590   3.140   1.375  0.1288  0.1929 -0.0086
  250DG     O19 5746   3.514   3.041   1.448  0.2395 -0.2801 -0.5481
  250DG     H20 5747   3.542   2.872   1.339 -2.6343  1.4036  0.5032
  250DG     H21 5748   3.667   2.905   1.456 -0.1660 -0.4176 -0.5881
  250DG     H22 5749   3.617   3.103   1.276 -2.5023 -0.4518 -0.5381
  250DG     H23 5750   3.689   3.155   1.418  0.3419  1.1730 -0.7887
  251DG      C1 5751   0.163   2.587   3.842 -0.6278 -0.1695  0.3264
  251DG      C2 5752   0.443   2.306   4.329  0.5587  0.3694 -0.6717
  251DG      H3 5753   0.096   2.643   3.777  1.4695 -0.3798 -2.1925
  251DG      H4 5754   0.205   2.504   3.786  0.0309  1.2173 -1.3376
  251DG      H5 5755   0.238   2.653   3.885 -1.0670  0.5463  0.0168
  251DG      H6 5756   0.460   2.222   4.397 -0.8778  1.7386  1.5232
  251DG      H7 5757   0.524   2.308   4.257  1.2561 -0.6953  0.0557
  251DG      H8 5758   0.466   2.397   4.384 -1.1449  1.5205 -1.7738
  251DG      O9 5759   0.102   2.522   3.953 -0.7088 -0.7506  0.7804
  251DG     O10 5760   0.314   2.318   4.265 -0.5115 -0.2241 -0.7500
  251DG     C11 5761   0.019   2.609   4.032  0.0564 -0.4681 -0.3005
  251DG     C12 5762   0.211   2.330   4.375 -0.0305  0.2918  0.0874
  251DG     H13 5763  -0.060   2.654   3.972 -1.3331 -1.1174  0.9490
  251DG     H14 5764   0.082   2.692   4.065  1.7467 -1.8658  0.0991
  251DG     H15 5765   0.236   2.419   4.433  0.5548  0.0585  0.2054
  251DG     H16 5766   0.213   2.242   4.439 -1.8392  0.8059  0.8899
  251DG     C17 5767  -0.020   2.523   4.155  0.3996 -0.5682  0.3760
  251DG     C18 5768   0.072   2.363   4.313  0.3596 -0.5122  0.4618
  251DG     O19 5769   0.097   2.467   4.213  0.2915 -0.4179  0.0602
  251DG     H20 5770  -0.074   2.431   4.131  1.7121 -1.9822  2.5143
  251DG     H21 5771  -0.079   2.584   4.225  2.1396 -0.0136  1.4160
  251DG     H22 5772   0.030   2.277   4.261 -2.4464  2.1680 -2.0719
  251DG     H23 5773  -0.005   2.393   4.384 -1.8881 -0.8930 -1.6654
  252DG      C1 5774   2.519   3.953   0.240 -0.3156  0.0188  0.9355
  252DG      C2 5775   2.064   4.087   0.722 -0.0301 -0.0864 -0.5636
  252DG      H3 5776   2.568   3.962   0.143  0.2125  1.1361  1.2884
  252DG      H4 5777   2.507   3.845   0.253 -0.8005  0.0155  0.4662
  252DG      H5 5778   2.596   3.985   0.310 -0.4139  0.5234  0.8111
  252DG      H6 5779   2.042   4.168   0.793 -0.2918  0.1436 -0.9077
  252DG      H7 5780   1.972   4.031   0.711  0.3548 -1.1289  1.1897
  252DG      H8 5781   2.147   4.027   0.761  0.9138  2.3869  1.5864
  252DG      O9 5782   2.396   4.022   0.248 -0.9622  0.1349 -0.5642
  252DG     O10 5783   2.114   4.131   0.601  0.1870  0.0457 -0.2642
  252DG     C11 5784   2.417   4.160   0.264  0.9578 -0.1652  0.6785
  252DG     C12 5785   2.029   4.215   0.519  0.5917  0.3716 -1.1820
  252DG     H13 5786   2.477   4.190   0.177  0.6363 -1.6019 -0.0668
  252DG     H14 5787   2.487   4.181   0.345  0.1146 -1.0154  1.6452
  252DG     H15 5788   1.968   4.283   0.579 -1.7886 -0.1141 -2.8638
  252DG     H16 5789   1.960   4.146   0.469  1.9621 -3.4713  1.7480
  252DG     C17 5790   2.280   4.240   0.261 -0.0682  0.8117  0.1617
  252DG     C18 5791   2.107   4.293   0.412  0.3949 -0.2758 -0.0960
  252DG     O19 5792   2.211   4.205   0.377 -0.1405 -0.6063 -0.3640
  252DG     H20 5793   2.210   4.209   0.183  1.3266 -2.1530 -0.0554
  252DG     H21 5794   2.294   4.347   0.245  1.2868  0.7288  0.6321
  252DG     H22 5795   2.048   4.331   0.328 -0.0752  0.3915  0.5248
  252DG     H23 5796   2.150   4.376   0.468 -0.7467 -0.1116  0.5711
  253DG      C1 5797   0.742   5.193   0.080 -0.7324 -0.7515 -0.2721
  253DG      C2 5798   1.079   5.358   0.690 -0.7169  0.0838  0.0584
  253DG      H3 5799   0.736   5.092   0.122  1.2850 -0.5123  0.7146
  253DG      H4 5800   0.778   5.177  -0.022 -0.5130  0.4021 -0.3812
  253DG      H5 5801   0.649   5.246   0.102 -1.0243 -1.0698 -0.7276
  253DG      H6 5802   1.149   5.275   0.675  1.3686  1.9131 -0.8056
  253DG      H7 5803   1.142   5.441   0.719  0.8805 -0.7924 -0.7537
  253DG      H8 5804   0.997   5.328   0.756 -0.7651  0.5202  0.2009
  253DG      O9 5805   0.845   5.263   0.151 -0.5819  0.1771  0.0513
  253DG     O10 5806   1.029   5.381   0.562 -0.6096 -0.0623  0.3067
  253DG     C11 5807   0.851   5.404   0.106  0.0357 -0.0719  0.5383
  253DG     C12 5808   0.952   5.501   0.551  0.3356 -0.0600 -0.0895
  253DG     H13 5809   0.754   5.450   0.119 -0.0188 -0.3000  0.9235
  253DG     H14 5810   0.884   5.405   0.001 -1.2885  0.6056  0.1146
  253DG     H15 5811   0.985   5.570   0.629  1.7314 -1.0641  0.2576
  253DG     H16 5812   0.849   5.473   0.573  0.4630  0.3296  1.0831
  253DG     C17 5813   0.957   5.478   0.188  0.3566 -0.3312  0.2028
  253DG     C18 5814   0.967   5.559   0.409  0.0632 -0.2198 -0.3334
  253DG     O19 5815   0.945   5.445   0.324 -0.1722 -0.8047  0.2856
  253DG     H20 5816   0.932   5.582   0.168  2.4410  0.6381  2.2087
  253DG     H21 5817   1.057   5.453   0.152  0.4154 -0.7029  0.6074
  253DG     H22 5818   0.895   5.640   0.401  0.0351 -0.0005  1.7205
  253DG     H23 5819   1.070   5.595   0.401  0.1273 -0.1651  0.6494
  254DG      C1 5820   3.239   3.807   4.098 -0.1031  0.6310 -0.2480
  254DG      C2 5821   3.228   4.230   3.630 -0.6964 -0.0759 -0.6099
  254DG      H3 5822   3.207   3.766   4.002 -1.2165  1.5986 -0.3201
  254DG      H4 5823   3.191   3.745   4.173  0.3372  1.6155  0.8759
  254DG      H5 5824   3.346   3.799   4.113 -0.1445 -0.6466 -0.5230
  254DG      H6 5825   3.182   4.145   3.579  0.1951 -1.7574  1.2335
  254DG      H7 5826   3.155   4.310   3.642 -0.1390  0.4648 -0.7686
  254DG      H8 5827   3.306   4.269   3.564  0.3427  0.0248  0.6557
  254DG      O9 5828   3.176   3.936   4.105 -0.8671 -0.3625  0.3188
  254DG     O10 5829   3.274   4.172   3.755  0.5672 -0.4547 -0.1025
  254DG     C11 5830   3.223   4.025   4.207 -0.4150  0.3286 -0.9822
  254DG     C12 5831   3.355   4.272   3.822  0.6037  0.2582  0.4659
  254DG     H13 5832   3.252   3.965   4.294  0.5226  1.8091 -0.2200
  254DG     H14 5833   3.147   4.099   4.233  1.6385  1.7572  1.5854
  254DG     H15 5834   3.290   4.348   3.866  0.9280  0.9438 -0.2079
  254DG     H16 5835   3.429   4.315   3.755 -0.7778 -1.0122 -2.0346
  254DG     C17 5836   3.342   4.096   4.153  0.9135  0.0475  0.1486
  254DG     C18 5837   3.407   4.218   3.950  0.2735  0.7635 -0.2642
  254DG     O19 5838   3.303   4.145   4.028  0.2727 -1.2038  0.0533
  254DG     H20 5839   3.427   4.030   4.133  0.0943 -1.0087  0.1069
  254DG     H21 5840   3.385   4.170   4.220  0.8271  0.0247  0.2280
  254DG     H22 5841   3.485   4.147   3.922  0.9802  2.1266 -1.9736
  254DG     H23 5842   3.447   4.296   4.015 -0.5048 -0.0460  1.2380
  255DG      C1 5843   2.312   3.815   3.922  0.1455 -0.9949  0.0017
  255DG      C2 5844   2.868   3.408   3.761  0.3612  0.3842 -0.1770
  255DG      H3 5845   2.247   3.776   4.000  1.1706  0.3318  1.5928
  255DG      H4 5846   2.296   3.770   3.824  2.8512  0.2917 -1.1457
  255DG      H5 5847   2.302   3.922   3.904  1.4468 -0.7374  0.7255
  255DG      H6 5848   2.874   3.463   3.667 -0.7637 -1.0325 -1.1360
  255DG      H7 5849   2.970   3.377   3.785  0.8130  1.3575 -0.8104
  255DG      H8 5850   2.816   3.317   3.729  0.5001  1.1540 -2.7963
  255DG      O9 5851   2.438   3.774   3.977 -0.5260  0.0222 -0.0017
  255DG     O10 5852   2.807   3.487   3.860  0.0279 -0.4711 -0.6271
  255DG     C11 5853   2.445   3.636   3.969 -0.4168 -0.5389 -0.2854
  255DG     C12 5854   2.807   3.422   3.988  0.2168 -0.2762  0.0726
  255DG     H13 5855   2.467   3.603   3.867  0.1296  0.0957 -0.3822
  255DG     H14 5856   2.351   3.586   3.992  0.0866 -1.8503 -0.9512
  255DG     H15 5857   2.902   3.370   4.001 -0.5112 -1.9402 -0.9178
  255DG     H16 5858   2.724   3.351   3.991  1.0158 -1.2884 -1.0127
  255DG     C17 5859   2.551   3.576   4.068  0.1292 -0.1867 -1.2329
  255DG     C18 5860   2.786   3.539   4.087 -0.2281 -0.1174  0.8200
  255DG     O19 5861   2.678   3.628   4.041 -0.2733  0.3300 -0.2038
  255DG     H20 5862   2.561   3.469   4.055  0.2688 -1.0805  4.1163
  255DG     H21 5863   2.521   3.601   4.169  0.2857 -1.3621 -0.8835
  255DG     H22 5864   2.765   3.496   4.185 -0.2254 -2.0256  0.0280
  255DG     H23 5865   2.880   3.595   4.085 -0.8191  0.9024 -0.3123
  256DG      C1 5866   5.480   0.643   2.008 -0.3947  0.0605 -0.0050
  256DG      C2 5867   5.820   1.054   1.396 -0.2873  0.5991  0.0087
  256DG      H3 5868   5.513   0.549   1.964 -2.3522 -1.5882  1.8379
  256DG      H4 5869   5.382   0.637   2.056 -0.6654 -1.3634 -0.6773
  256DG      H5 5870   5.556   0.685   2.073 -0.1145  0.3245 -0.4970
  256DG      H6 5871   5.844   0.949   1.382  0.4542  0.7929 -0.2245
  256DG      H7 5872   5.840   1.102   1.300  1.4709  0.4102  0.2459
  256DG      H8 5873   5.888   1.109   1.461 -0.4309  1.0461 -0.2110
  256DG      O9 5874   5.463   0.730   1.899  0.0672 -0.0391 -0.0717
  256DG     O10 5875   5.687   1.055   1.444  0.2975 -0.2047  0.6014
  256DG     C11 5876   5.420   0.855   1.943  0.7229  0.1362  0.7449
  256DG     C12 5877   5.676   1.011   1.581  0.7192  0.1171  0.3006
  256DG     H13 5878   5.500   0.898   2.004  1.2993  0.5638 -0.2905
  256DG     H14 5879   5.326   0.833   1.993  0.9251 -1.3866  0.5150
  256DG     H15 5880   5.744   1.049   1.657  0.7485  0.5333  0.0701
  256DG     H16 5881   5.692   0.903   1.584  1.1502  0.2043  1.4104
  256DG     C17 5882   5.403   0.950   1.821  0.2547 -0.1467  0.2720
  256DG     C18 5883   5.536   1.039   1.641 -0.2102  0.1454 -0.4610
  256DG     O19 5884   5.531   0.964   1.761  0.0217  0.2230 -0.2736
  256DG     H20 5885   5.362   1.047   1.849 -0.4340 -0.2162 -0.4523
  256DG     H21 5886   5.341   0.902   1.746  0.7685  0.7281 -0.7551
  256DG     H22 5887   5.534   1.146   1.656 -0.0754  0.1786 -0.6692
  256DG     H23 5888   5.455   1.016   1.572 -0.1053  0.9221 -0.8521
  257DG      C1 5889   0.773   4.164   1.008  0.3935  0.0106 -0.6980
  257DG      C2 5890   0.270   4.524   0.505  0.4910 -0.3542 -0.5531
  257DG      H3 5891   0.678   4.205   1.043  0.5603 -0.2258  0.0279
  257DG      H4 5892   0.851   4.195   1.077 -1.5894 -0.7340  2.0598
  257DG      H5 5893   0.761   4.056   1.018 -1.3588  0.1399 -1.1219
  257DG      H6 5894   0.180   4.515   0.566  0.1143  2.9004 -0.4380
  257DG      H7 5895   0.295   4.630   0.516  1.0273 -0.3693 -1.5389
  257DG      H8 5896   0.237   4.509   0.403 -1.6887  0.0305  0.0362
  257DG      O9 5897   0.786   4.193   0.871 -0.6036  0.0108  0.6119
  257DG     O10 5898   0.372   4.434   0.536 -0.4780  0.1752 -0.2029
  257DG     C11 5899   0.673   4.140   0.804 -1.0302  0.0142  0.1882
  257DG     C12 5900   0.502   4.442   0.483 -0.0097  1.0213 -0.1020
  257DG     H13 5901   0.576   4.173   0.841  0.8470  2.4807  3.4278
  257DG     H14 5902   0.665   4.032   0.808  0.7167 -0.1001  2.3918
  257DG     H15 5903   0.558   4.526   0.523  0.7971  0.8624 -0.8696
  257DG     H16 5904   0.494   4.444   0.375  0.4254  0.0343 -0.1614
  257DG     C17 5905   0.673   4.169   0.659 -0.3145  0.1828  0.8044
  257DG     C18 5906   0.572   4.310   0.503  0.2013  0.2546 -0.3214
  257DG     O19 5907   0.619   4.295   0.635  0.1343 -0.0684  0.3150
  257DG     H20 5908   0.630   4.087   0.602  0.7310 -0.9429  1.6035
  257DG     H21 5909   0.775   4.176   0.621 -1.0712 -0.1108 -1.4657
  257DG     H22 5910   0.506   4.226   0.479 -0.1549  0.2700  0.5621
  257DG     H23 5911   0.653   4.290   0.433  0.9283  1.7311  0.0632
  258DG      C1 5912   1.554   2.673   4.253 -0.0301 -0.4991 -0.3823
  258DG      C2 5913   2.090   2.284   4.239 -0.2461  0.0177 -0.2233
  258DG      H3 5914   1.557   2.600   4.172  0.9540  1.3825 -2.1397
  258DG      H4 5915   1.521   2.766   4.208 -0.6989  0.0013  1.0789
  258DG      H5 5916   1.494   2.654   4.342  0.6916 -0.0213  0.2155
  258DG      H6 5917   2.195   2.282   4.209 -0.8723 -1.0205 -2.5553
  258DG      H7 5918   2.075   2.234   4.335  0.7661 -0.0082 -0.0693
  258DG      H8 5919   2.033   2.244   4.155  0.4369 -1.6135  0.0383
  258DG      O9 5920   1.692   2.679   4.296  0.1873  0.4053  0.0352
  258DG     O10 5921   2.041   2.416   4.253  0.1303 -0.1444 -0.1376
  258DG     C11 5922   1.725   2.766   4.406 -0.2007  0.6746  1.0573
  258DG     C12 5923   2.110   2.478   4.363  1.3316  0.1706  1.1835
  258DG     H13 5924   1.686   2.729   4.501  0.7958  2.2350  2.1200
  258DG     H14 5925   1.688   2.863   4.373  2.3645  1.8326  1.2934
  258DG     H15 5926   2.219   2.476   4.355  1.2200  1.0496 -1.8086
  258DG     H16 5927   2.076   2.422   4.450 -0.7606  0.1382  0.3837
  258DG     C17 5928   1.877   2.771   4.395  0.0948 -0.2089 -0.0224
  258DG     C18 5929   2.067   2.626   4.373 -0.3705  0.4226  0.1287
  258DG     O19 5930   1.928   2.640   4.402 -0.3145  0.2342  0.0184
  258DG     H20 5931   1.911   2.832   4.479 -2.7930  1.7906 -0.1973
  258DG     H21 5932   1.908   2.809   4.298  0.7065 -1.7804 -0.4833
  258DG     H22 5933   2.117   2.674   4.456  0.0610 -1.2327  0.8601
  258DG     H23 5934   2.094   2.669   4.276 -1.3491 -1.1966 -0.9262
  259DG      C1 5935   4.967   1.353   0.158 -0.5259  0.3647 -0.0357
  259DG      C2 5936   4.332   1.646  -0.251  0.1618 -0.1378 -0.1537
  259DG      H3 5937   4.982   1.246   0.145 -0.1545  0.4123 -0.0006
  259DG      H4 5938   4.928   1.368   0.259  0.9191  0.9744  0.4434
  259DG      H5 5939   5.060   1.409   0.162  0.3552 -0.8702 -1.8801
  259DG      H6 5940   4.326   1.733  -0.185  1.7480 -0.6313  0.7078
  259DG      H7 5941   4.389   1.673  -0.339 -0.1354 -0.3696 -0.4200
  259DG      H8 5942   4.236   1.627  -0.299  0.1113 -1.6557  0.4928
  259DG      O9 5943   4.888   1.405   0.059  0.2677  0.1827  0.9950
  259DG     O10 5944   4.367   1.533  -0.174  0.2223 -0.2066  0.4647
  259DG     C11 5945   4.918   1.540   0.012 -0.1395 -0.1778  0.1376
  259DG     C12 5946   4.480   1.542  -0.081  0.1702  0.2513  0.2125
  259DG     H13 5947   5.019   1.543  -0.028  0.0339 -2.1306  0.3380
  259DG     H14 5948   4.899   1.605   0.097 -2.3875 -1.4141  0.6708
  259DG     H15 5949   4.476   1.446  -0.029  3.6213 -0.4843 -0.5959
  259DG     H16 5950   4.473   1.624  -0.010  0.4406  0.2917  0.1941
  259DG     C17 5951   4.834   1.568  -0.098  0.2910 -0.2207 -0.7326
  259DG     C18 5952   4.611   1.548  -0.148 -0.4501  0.0376 -0.0798
  259DG     O19 5953   4.707   1.553  -0.049  0.2217 -0.3063 -0.4291
  259DG     H20 5954   4.861   1.497  -0.177 -0.4757 -2.9466  1.2706
  259DG     H21 5955   4.830   1.665  -0.147 -2.9294 -1.2285 -2.7901
  259DG     H22 5956   4.616   1.471  -0.224 -0.9432  1.9087 -2.1015
  259DG     H23 5957   4.617   1.635  -0.214  2.7181 -0.4640 -0.6228
  260DG      C1 5958   3.803   3.410   0.606 -0.5845  0.0725  0.3776
  260DG      C2 5959   4.550   3.692   0.628 -0.5926  0.9490 -0.0042
  260DG      H3 5960   3.805   3.387   0.713 -1.7603  0.1593  0.4321
  260DG      H4 5961   3.744   3.332   0.558 -0.1775 -0.1935  0.2971
  260DG      H5 5962   3.750   3.504   0.592  1.8244  1.7661  1.8578
  260DG      H6 5963   4.586   3.688   0.731  0.8235 -1.3984 -0.5048
  260DG      H7 5964   4.642   3.680   0.570  0.0635  1.1526  0.9789
  260DG      H8 5965   4.514   3.791   0.603  2.7691  2.2982 -0.0356
  260DG      O9 5966   3.935   3.419   0.545  0.0391 -0.0844 -0.0221
  260DG     O10 5967   4.459   3.589   0.587  0.2671 -0.1508 -0.1266
  260DG     C11 5968   4.021   3.319   0.578 -0.8134  0.4258  0.2250
  260DG     C12 5969   4.406   3.600   0.456 -0.3184 -0.0959  0.1103
  260DG     H13 5970   3.974   3.221   0.567 -0.7709  0.3093  1.0289
  260DG     H14 5971   4.053   3.329   0.682 -2.5528 -0.2180  0.8687
  260DG     H15 5972   4.482   3.618   0.381 -1.3697  1.1681 -0.6927
  260DG     H16 5973   4.335   3.682   0.442  1.1681  1.3162  0.4798
  260DG     C17 5974   4.136   3.329   0.484  0.4357  0.4010 -0.1311
  260DG     C18 5975   4.329   3.464   0.427  0.1949  0.5144  0.0285
  260DG     O19 5976   4.210   3.448   0.504  0.7348 -0.5117  0.9334
  260DG     H20 5977   4.108   3.321   0.379  0.4174  0.0385 -0.1000
  260DG     H21 5978   4.201   3.245   0.506 -0.9390 -1.3714 -2.3441
  260DG     H22 5979   4.295   3.452   0.325 -1.5296  0.5552  0.5640
  260DG     H23 5980   4.387   3.376   0.456 -1.1661 -0.2031  0.7064
  261DG      C1 5981   4.654   2.151   1.536  0.1579  0.4231 -0.3131
  261DG      C2 5982   3.883   1.848   1.642  0.4299  0.5361 -0.5744
  261DG      H3 5983   4.711   2.232   1.583  0.4662 -0.5372  1.0187
  261DG      H4 5984   4.677   2.118   1.434 -0.8131  0.6038 -0.6025
  261DG      H5 5985   4.681   2.071   1.604 -0.3653 -0.2922 -0.9413
  261DG      H6 5986   3.823   1.774   1.589 -0.7915  0.1992  1.1727
  261DG      H7 5987   3.963   1.784   1.680  0.3287  1.6377  1.6815
  261DG      H8 5988   3.833   1.902   1.722 -0.7522 -0.6850 -0.4570
  261DG      O9 5989   4.513   2.177   1.541  0.4682 -0.0972 -0.4325
  261DG     O10 5990   3.941   1.951   1.564  0.4292  0.3290 -0.4667
  261DG     C11 5991   4.449   2.217   1.419 -0.0618 -0.3600  0.3353
  261DG     C12 5992   4.071   1.988   1.590 -0.2777 -0.1369 -0.2390
  261DG     H13 5993   4.471   2.136   1.348 -1.8624 -0.8109  0.2285
  261DG     H14 5994   4.490   2.306   1.372 -0.4456  0.1870  1.0199
  261DG     H15 5995   4.137   1.902   1.578 -0.1849  0.0809 -1.3377
  261DG     H16 5996   4.080   2.021   1.694 -1.6614 -0.5605  0.0304
  261DG     C17 5997   4.301   2.229   1.436  0.5347  0.0370 -0.2565
  261DG     C18 5998   4.103   2.109   1.502  0.4474 -0.6344 -0.2969
  261DG     O19 5999   4.247   2.118   1.506  0.6720  0.2311 -0.0547
  261DG     H20 6000   4.250   2.218   1.341  1.6136 -2.4852 -0.5968
  261DG     H21 6001   4.286   2.323   1.491  0.4906  0.0472 -0.2857
  261DG     H22 6002   4.072   2.079   1.402 -0.2163 -0.4373 -0.1529
  261DG     H23 6003   4.054   2.202   1.532  0.0363 -1.1107  0.5172
  262DG      C1 6004   2.097   4.897   1.899  0.4815  0.1847  0.1514
  262DG      C2 6005   2.053   4.820   2.626  0.2084 -0.5315  0.7063
  262DG      H3 6006   2.199   4.897   1.860  0.6874 -0.3449  0.6658
  262DG      H4 6007   2.070   4.991   1.948 -0.3255  0.7537 -1.3224
  262DG      H5 6008   2.035   4.871   1.814  0.8794 -1.8601  0.4242
  262DG      H6 6009   2.000   4.726   2.639  1.2286 -1.4648 -1.4382
  262DG      H7 6010   2.161   4.813   2.636  0.5285  0.6866 -1.3249
  262DG      H8 6011   2.034   4.889   2.708  0.9729  0.3383  0.1749
  262DG      O9 6012   2.076   4.790   1.987  0.0776 -0.6085 -0.2920
  262DG     O10 6013   2.021   4.874   2.498  0.2591 -0.5065  0.3392
  262DG     C11 6014   1.940   4.741   1.997  0.3737  0.1556  0.0484
  262DG     C12 6015   1.882   4.869   2.462  0.2458  0.0199 -1.4174
  262DG     H13 6016   1.937   4.633   2.011  0.3549  0.2879  1.2306
  262DG     H14 6017   1.880   4.757   1.908  0.3324  1.2890  0.2659
  262DG     H15 6018   1.826   4.920   2.540  1.0169  1.0807 -1.5317
  262DG     H16 6019   1.853   4.765   2.472  0.6532  0.0820  1.2385
  262DG     C17 6020   1.852   4.822   2.099  0.2601 -0.1056  0.3971
  262DG     C18 6021   1.832   4.902   2.323 -0.1289 -0.1078 -0.4971
  262DG     O19 6022   1.908   4.829   2.230  0.4646 -0.2339  0.2067
  262DG     H20 6023   1.748   4.791   2.105 -0.5586  2.2741 -0.5068
  262DG     H21 6024   1.840   4.927   2.073  0.1097 -0.8327 -2.7786
  262DG     H22 6025   1.724   4.889   2.324 -0.1348 -0.0519 -0.2345
  262DG     H23 6026   1.858   5.007   2.311  0.2895 -0.0017  1.0872
  263DG      C1 6027   0.411   4.676   0.206 -0.6564 -0.3880 -0.6700
  263DG      C2 6028   0.028   4.774   0.515  0.3373  0.1371 -0.6107
  263DG      H3 6029   0.399   4.689   0.313 -0.2698  0.4136 -0.7203
  263DG      H4 6030   0.437   4.571   0.196 -1.9172 -1.0652  2.1686
  263DG      H5 6031   0.316   4.695   0.154 -0.8518 -0.7757 -0.4616
  263DG      H6 6032   0.037   4.675   0.559  0.3079  0.5050  0.2458
  263DG      H7 6033  -0.031   4.835   0.585  2.2074 -1.7544  2.9111
  263DG      H8 6034  -0.043   4.770   0.432 -1.3451  0.1921  0.7541
  263DG      O9 6035   0.517   4.757   0.158 -0.1481 -0.1380  0.3897
  263DG     O10 6036   0.154   4.835   0.486  0.2072 -0.0315  0.5615
  263DG     C11 6037   0.484   4.892   0.122  0.2359 -0.4672  0.8733
  263DG     C12 6038   0.151   4.972   0.448  0.0089  0.2746  0.2398
  263DG     H13 6039   0.394   4.900   0.061 -0.3505  0.1341  1.7874
  263DG     H14 6040   0.568   4.942   0.074 -0.9466  0.4318 -0.3288
  263DG     H15 6041   0.112   5.037   0.526 -1.4788 -0.2387 -0.0472
  263DG     H16 6042   0.084   4.984   0.363 -0.1391 -4.0034 -0.4738
  263DG     C17 6043   0.455   4.984   0.236  0.2480 -0.0981  0.1502
  263DG     C18 6044   0.297   5.007   0.411 -0.3338  1.0476 -0.2859
  263DG     O19 6045   0.343   4.930   0.300  0.4243  0.3701 -0.4951
  263DG     H20 6046   0.434   5.087   0.206 -0.7484 -0.1440  0.6574
  263DG     H21 6047   0.538   4.966   0.304 -0.3606 -0.1921  0.8772
  263DG     H22 6048   0.296   5.109   0.373 -3.3730  0.6991 -1.4259
  263DG     H23 6049   0.369   4.999   0.493  0.1700 -2.7376 -0.9102
  264DG      C1 6050   4.494   4.027   4.610  0.8186  0.1292  0.1642
  264DG      C2 6051   3.739   3.954   4.464 -0.2592 -0.0544  0.4178
  264DG      H3 6052   4.545   4.084   4.687 -1.6762  1.4578  0.9751
  264DG      H4 6053   4.529   4.036   4.507 -0.7790  0.5315 -0.3886
  264DG      H5 6054   4.478   3.923   4.637  0.1888 -0.4063 -2.0534
  264DG      H6 6055   3.715   3.850   4.488 -3.4357  1.1792  3.4386
  264DG      H7 6056   3.650   4.012   4.487  0.4785  1.4693 -0.4075
  264DG      H8 6057   3.763   3.969   4.358  0.7879 -1.4767  0.4231
  264DG      O9 6058   4.360   4.065   4.607  0.1532 -0.5676  0.0933
  264DG     O10 6059   3.856   4.009   4.532 -0.5015  0.0667  0.0053
  264DG     C11 6060   4.349   4.205   4.594 -0.9142 -0.0780  0.4766
  264DG     C12 6061   3.873   4.145   4.505 -0.2853  0.4286  0.5620
  264DG     H13 6062   4.365   4.240   4.491  2.0300 -0.6924  0.6361
  264DG     H14 6063   4.417   4.259   4.660 -0.0872 -0.0850 -0.3359
  264DG     H15 6064   3.785   4.209   4.507 -1.4830 -1.0795 -0.9676
  264DG     H16 6065   3.902   4.154   4.400 -1.8935 -0.8235 -0.0247
  264DG     C17 6066   4.205   4.243   4.622  0.3057 -0.3578 -0.3784
  264DG     C18 6067   3.982   4.202   4.594 -0.2264 -0.1947  0.0626
  264DG     O19 6068   4.111   4.168   4.544  0.3312  0.2679 -0.5944
  264DG     H20 6069   4.196   4.351   4.623 -0.3746 -0.3420  2.7357
  264DG     H21 6070   4.191   4.210   4.725 -1.5635  1.2851 -0.0495
  264DG     H22 6071   3.971   4.310   4.584 -1.7012 -0.1908  1.4040
  264DG     H23 6072   3.969   4.169   4.697 -1.7150 -1.2923 -0.4434
  265DG      C1 6073   2.842   1.068   5.352  0.0209  0.1843 -0.1433
  265DG      C2 6074   2.498   0.756   4.904 -0.5361 -0.5028  0.1485
  265DG      H3 6075   2.843   1.032   5.455  0.4361 -1.5665 -0.7212
  265DG      H4 6076   2.752   1.127   5.335 -0.7491 -0.2645  2.0034
  265DG      H5 6077   2.933   1.128   5.355  0.3827 -0.3677  0.1040
  265DG      H6 6078   2.411   0.740   4.968  1.3070 -0.7815  2.7658
  265DG      H7 6079   2.490   0.860   4.873 -0.8545 -0.2509  1.0419
  265DG      H8 6080   2.487   0.680   4.827 -1.1234  1.5768 -1.9135
  265DG      O9 6081   2.859   0.962   5.262 -0.1830  0.3779  0.1808
  265DG     O10 6082   2.621   0.750   4.977  0.6627 -0.2195  0.4980
  265DG     C11 6083   2.991   0.907   5.260 -0.5838  0.0398 -0.5111
  265DG     C12 6084   2.737   0.743   4.892 -0.4241 -0.1269 -0.5196
  265DG     H13 6085   3.022   0.886   5.362 -0.5925  0.6703 -0.3749
  265DG     H14 6086   3.057   0.981   5.215 -0.8881  2.1609  2.2083
  265DG     H15 6087   2.751   0.841   4.848 -3.1593 -0.0935 -1.5381
  265DG     H16 6088   2.719   0.668   4.814 -3.7974  0.6708 -0.6745
  265DG     C17 6089   2.990   0.784   5.164  0.1763 -0.0911 -0.5508
  265DG     C18 6090   2.862   0.702   4.985  0.4186  0.2675  0.4945
  265DG     O19 6091   2.879   0.812   5.071 -0.1356 -0.1166 -0.4061
  265DG     H20 6092   2.964   0.697   5.224 -1.6448 -0.2665 -1.5276
  265DG     H21 6093   3.088   0.779   5.116  0.3226 -0.3429 -0.2342
  265DG     H22 6094   2.830   0.617   5.045 -0.0409 -0.5220 -0.8144
  265DG     H23 6095   2.949   0.676   4.924 -0.8725  0.9598 -1.7926
  266DG      C1 6096   1.276   1.539   5.287 -0.2075 -0.1630 -0.9632
  266DG      C2 6097   0.690   1.206   5.243  0.1941 -0.5749  0.4881
  266DG      H3 6098   1.218   1.602   5.354  1.0183 -0.2774  0.2568
  266DG      H4 6099   1.281   1.581   5.187 -1.6924 -1.5266 -1.6442
  266DG      H5 6100   1.379   1.535   5.322 -1.0221 -1.9288  1.5117
  266DG      H6 6101   0.640   1.127   5.299 -0.1980  1.1969  2.7543
  266DG      H7 6102   0.661   1.297   5.293 -1.2705  0.0473 -1.3847
  266DG      H8 6103   0.644   1.214   5.144  1.6006 -1.1603 -0.2551
  266DG      O9 6104   1.220   1.408   5.285  0.6686 -0.2875 -0.0445
  266DG     O10 6105   0.830   1.181   5.249  0.0638 -0.7709 -0.4332
  266DG     C11 6106   1.293   1.313   5.214 -0.3308 -0.0373  0.0570
  266DG     C12 6107   0.877   1.093   5.145 -0.3345 -0.3914 -0.4824
  266DG     H13 6108   1.399   1.319   5.237 -0.0350  2.0997 -1.4994
  266DG     H14 6109   1.279   1.330   5.107  0.9585 -1.9677 -0.4891
  266DG     H15 6110   0.870   1.141   5.047 -0.7551  0.3557 -0.0914
  266DG     H16 6111   0.820   1.000   5.135 -3.5373  1.4965 -1.1404
  266DG     C17 6112   1.232   1.170   5.230 -0.5196  0.2872  0.3690
  266DG     C18 6113   1.021   1.055   5.170  0.1712  0.5355  0.0846
  266DG     O19 6114   1.101   1.173   5.169 -0.3253 -0.0276 -0.0647
  266DG     H20 6115   1.229   1.138   5.335  4.4432  2.0846  1.3206
  266DG     H21 6116   1.307   1.101   5.190 -0.4990  0.8601 -0.6030
  266DG     H22 6117   1.026   1.010   5.270  1.0656  1.8076  0.6368
  266DG     H23 6118   1.048   0.978   5.097  1.4927  0.1237  0.9550
  267DG      C1 6119   1.245   4.715   4.558 -0.3364  0.2224  0.0234
  267DG      C2 6120   1.005   4.872   4.007 -0.4581 -0.1043 -0.1498
  267DG      H3 6121   1.333   4.652   4.575  1.0627  0.5818 -4.4482
  267DG      H4 6122   1.177   4.701   4.641 -1.9590  2.0265 -0.9300
  267DG      H5 6123   1.277   4.818   4.542 -1.2490  0.2491 -1.9580
  267DG      H6 6124   1.087   4.944   4.003 -1.2915  0.8457 -0.3527
  267DG      H7 6125   0.974   4.873   3.902  0.5667 -0.5885 -0.4720
  267DG      H8 6126   0.928   4.922   4.065  1.8840  2.4830  0.9709
  267DG      O9 6127   1.187   4.669   4.434 -0.1377 -0.0969  0.1753
  267DG     O10 6128   1.053   4.748   4.052  0.0569  0.0635  0.0857
  267DG     C11 6129   1.131   4.540   4.450  0.2167 -0.4339  0.5012
  267DG     C12 6130   0.954   4.648   4.048 -0.2712 -0.4131  0.5627
  267DG     H13 6131   1.073   4.538   4.542  0.7990 -0.1075  0.8815
  267DG     H14 6132   1.200   4.455   4.453 -1.5778 -1.9834 -0.0844
  267DG     H15 6133   0.923   4.638   3.944  0.1656 -4.3284  0.6617
  267DG     H16 6134   0.878   4.682   4.118 -0.3166 -0.0982  0.3639
  267DG     C17 6135   1.034   4.512   4.332 -0.0384  0.5594  1.6356
  267DG     C18 6136   1.017   4.518   4.094  0.3391  0.0656  0.1894
  267DG     O19 6137   1.102   4.548   4.209  0.4906  0.1240  0.2448
  267DG     H20 6138   0.935   4.548   4.359 -0.6393  1.0971 -0.9905
  267DG     H21 6139   1.018   4.404   4.336 -1.0899  0.6749  0.9939
  267DG     H22 6140   0.939   4.448   4.122 -0.6075  1.3983  1.0582
  267DG     H23 6141   1.083   4.469   4.023 -0.5714  0.4875 -0.9657
  268DG      C1 6142   4.849   5.343   3.004  0.3521 -0.3399 -0.5201
  268DG      C2 6143   5.222   5.251   3.458 -0.0863 -0.0540  0.2300
  268DG      H3 6144   4.948   5.388   3.006  0.1600  0.0602  0.6536
  268DG      H4 6145   4.778   5.426   3.006 -0.9274 -1.3134 -2.1985
  268DG      H5 6146   4.834   5.302   2.904 -2.4203 -1.6131  0.2977
  268DG      H6 6147   5.252   5.356   3.462 -0.7589  0.1316  0.5225
  268DG      H7 6148   5.240   5.210   3.557 -1.2065 -0.9895  0.0534
  268DG      H8 6149   5.290   5.206   3.385 -2.4225  0.1460 -2.2086
  268DG      O9 6150   4.826   5.240   3.099  0.1263 -0.5208  0.5293
  268DG     O10 6151   5.082   5.226   3.422 -0.2221  0.2372 -0.1700
  268DG     C11 6152   4.924   5.140   3.093  0.3106 -0.2710 -0.4984
  268DG     C12 6153   5.051   5.091   3.455  0.2797 -1.1153 -0.4202
  268DG     H13 6154   5.015   5.184   3.132 -0.2922  0.5095  0.0477
  268DG     H14 6155   4.930   5.094   2.994  0.8283  1.7030 -1.4223
  268DG     H15 6156   5.087   5.051   3.550 -1.5085 -3.3472 -0.6114
  268DG     H16 6157   5.114   5.034   3.386  0.6884 -1.6723  0.3954
  268DG     C17 6158   4.888   5.037   3.202 -0.5450  0.3098  0.1561
  268DG     C18 6159   4.909   5.043   3.442 -0.2915  0.0519  0.0172
  268DG     O19 6160   4.853   5.098   3.325 -0.1536 -0.4761 -0.5288
  268DG     H20 6161   4.974   4.971   3.217 -0.3006  1.0374  2.1889
  268DG     H21 6162   4.802   4.977   3.174  0.4039 -1.4365  0.8078
  268DG     H22 6163   4.907   4.934   3.441  1.0343 -0.0076 -1.7973
  268DG     H23 6164   4.849   5.069   3.528 -0.8037 -0.1781 -0.2679
  269DG      C1 6165   1.761   0.688   4.691  0.0400 -0.6435  0.6935
  269DG      C2 6166   1.039   0.967   4.677  0.4492  0.1727 -0.1870
  269DG      H3 6167   1.733   0.618   4.769  1.6459 -0.4855  1.4575
  269DG      H4 6168   1.855   0.732   4.725  0.0896 -1.3219  1.4854
  269DG      H5 6169   1.783   0.644   4.594 -1.3181  2.7696 -1.3165
  269DG      H6 6170   0.984   0.953   4.584 -0.1732  0.2036  0.1761
  269DG      H7 6171   0.968   0.974   4.759 -0.2848  1.1464 -0.8730
  269DG      H8 6172   1.081   1.067   4.670  3.1595 -0.6384  2.5032
  269DG      O9 6173   1.659   0.786   4.675  0.4936  0.0701 -0.3228
  269DG     O10 6174   1.135   0.869   4.707 -0.4125  0.1646  0.6270
  269DG     C11 6175   1.641   0.853   4.802  0.0878 -0.5069  0.3773
  269DG     C12 6176   1.200   0.881   4.832 -0.4519  0.0493 -0.0126
  269DG     H13 6177   1.725   0.915   4.835 -1.7121  2.9660 -0.9928
  269DG     H14 6178   1.628   0.773   4.874 -3.0290 -0.8562 -0.4402
  269DG     H15 6179   1.135   0.834   4.905 -0.3027 -1.1992 -0.6614
  269DG     H16 6180   1.217   0.987   4.852 -0.7199 -0.1150  1.1454
  269DG     C17 6181   1.518   0.937   4.775  0.3259 -0.6477  0.1769
  269DG     C18 6182   1.334   0.806   4.837 -0.8905 -0.7028 -0.3241
  269DG     O19 6183   1.415   0.849   4.731  0.1731 -0.1351 -0.0131
  269DG     H20 6184   1.544   1.003   4.692  0.9265 -1.4634 -0.3000
  269DG     H21 6185   1.491   1.006   4.855 -1.0303  0.8386 -1.4818
  269DG     H22 6186   1.384   0.820   4.932 -0.7687 -1.9115 -0.1913
  269DG     H23 6187   1.317   0.699   4.826 -0.1997 -0.7992 -0.5073
  270DG      C1 6188   4.357   4.606   3.303 -0.3072  0.1268 -0.0489
  270DG      C2 6189   4.433   5.356   3.484 -0.0238  0.4418  0.2178
  270DG      H3 6190   4.331   4.529   3.375 -1.8376  0.7359  0.1000
  270DG      H4 6191   4.425   4.563   3.230 -0.4336  1.3889 -0.9356
  270DG      H5 6192   4.266   4.644   3.257  0.2675  0.9332 -0.5408
  270DG      H6 6193   4.497   5.371   3.397 -2.6490  2.6866 -1.5032
  270DG      H7 6194   4.336   5.398   3.455 -0.2211  0.6448  1.1337
  270DG      H8 6195   4.466   5.427   3.560 -1.0111 -0.1798  1.2677
  270DG      O9 6196   4.415   4.716   3.378  0.9564  0.0669 -0.2162
  270DG     O10 6197   4.430   5.228   3.533 -0.0182  0.3593  0.6087
  270DG     C11 6198   4.457   4.827   3.297 -0.3381  0.6102 -0.0306
  270DG     C12 6199   4.552   5.160   3.567  0.8932 -0.5573  0.3581
  270DG     H13 6200   4.372   4.889   3.271 -0.5184  0.6039  0.5191
  270DG     H14 6201   4.514   4.804   3.207 -0.4272 -0.1272  0.0927
  270DG     H15 6202   4.609   5.223   3.635  2.7050 -0.5694 -1.0740
  270DG     H16 6203   4.625   5.152   3.487  0.0542 -0.4536 -0.4333
  270DG     C17 6204   4.537   4.916   3.392 -0.6624 -0.0420 -0.2860
  270DG     C18 6205   4.510   5.023   3.608 -0.8728 -0.3156 -0.5436
  270DG     O19 6206   4.458   4.937   3.509 -0.0343  0.2316  0.4027
  270DG     H20 6207   4.581   5.000   3.338 -0.5497  1.0165  1.3793
  270DG     H21 6208   4.624   4.873   3.441  0.6079  2.8168  0.1871
  270DG     H22 6209   4.604   4.983   3.647 -0.3948  1.1113 -0.1406
  270DG     H23 6210   4.436   5.039   3.687 -1.5016  4.1180 -1.7668
  271DG      C1 6211   0.727   3.668   0.804  0.1149 -0.0304 -0.4699
  271DG      C2 6212   0.628   3.028   0.895 -0.4739  0.7031  0.5074
  271DG      H3 6213   0.833   3.670   0.779  0.2484 -0.6659 -0.0083
  271DG      H4 6214   0.707   3.684   0.910  1.1970 -2.9951  0.2898
  271DG      H5 6215   0.692   3.750   0.743  0.5123 -0.4260 -1.2497
  271DG      H6 6216   0.542   2.966   0.922 -0.6915  1.1064  0.7624
  271DG      H7 6217   0.710   2.974   0.849 -0.8741  1.0597 -0.6512
  271DG      H8 6218   0.669   3.074   0.985  1.6243 -0.2081  0.0676
  271DG      O9 6219   0.647   3.559   0.762 -0.0188 -0.2431 -0.3594
  271DG     O10 6220   0.574   3.135   0.820  0.3080  0.2817 -1.0462
  271DG     C11 6221   0.660   3.541   0.619 -0.2412 -0.0486  0.9747
  271DG     C12 6222   0.544   3.104   0.684  0.0802  0.0024 -0.6082
  271DG     H13 6223   0.758   3.513   0.581 -0.3548  2.0528 -1.0951
  271DG     H14 6224   0.627   3.630   0.566  1.0392 -0.9250 -1.4934
  271DG     H15 6225   0.472   3.023   0.668 -1.1885  0.7786  0.9207
  271DG     H16 6226   0.634   3.068   0.635  0.8789  0.3472  0.5668
  271DG     C17 6227   0.551   3.445   0.586  0.3256  0.0734  0.1039
  271DG     C18 6228   0.496   3.228   0.613 -0.0505  0.0194 -0.6547
  271DG     O19 6229   0.587   3.330   0.651  0.0684 -0.4935  0.4350
  271DG     H20 6230   0.549   3.450   0.477  0.7386  2.7049  0.1500
  271DG     H21 6231   0.457   3.492   0.615  0.9223  0.5798  1.2768
  271DG     H22 6232   0.494   3.217   0.504 -1.5068 -0.1411 -0.6235
  271DG     H23 6233   0.396   3.250   0.647 -0.7961 -1.0891 -2.0148
  272DG      C1 6234   3.840   4.924   5.004  1.0372 -0.2891  1.1003
  272DG      C2 6235   3.407   4.558   4.898  0.5079  0.4587  0.1703
  272DG      H3 6236   3.914   5.002   5.024 -0.4208  1.8343 -1.1440
  272DG      H4 6237   3.888   4.829   4.980  3.2147  0.8587  0.6122
  272DG      H5 6238   3.783   4.913   5.097 -1.6934  1.5250 -0.2106
  272DG      H6 6239   3.327   4.492   4.930  1.2456  0.6064  2.5008
  272DG      H7 6240   3.387   4.580   4.793 -0.8017  0.0670  0.3206
  272DG      H8 6241   3.499   4.499   4.892 -0.1211 -0.4139 -1.7041
  272DG      O9 6242   3.778   4.968   4.876  0.4169  0.5536  0.1404
  272DG     O10 6243   3.445   4.669   4.979  0.1508  0.1096  0.5359
  272DG     C11 6244   3.702   5.085   4.895 -0.4582 -0.0605 -0.1809
  272DG     C12 6245   3.352   4.782   4.969 -0.0361  0.1254  0.1684
  272DG     H13 6246   3.661   5.100   4.795  2.0181 -2.6350 -1.7480
  272DG     H14 6247   3.759   5.176   4.910 -3.2509  1.6923  0.4568
  272DG     H15 6248   3.262   4.749   5.021 -1.8296 -0.3320 -2.9964
  272DG     H16 6249   3.324   4.807   4.867 -1.5095  0.8275  0.7241
  272DG     C17 6250   3.584   5.061   4.992  0.3052  0.4359  0.6209
  272DG     C18 6251   3.416   4.901   5.038  0.2285 -0.2672 -0.0027
  272DG     O19 6252   3.531   4.930   4.961  0.0252 -1.0395  0.1230
  272DG     H20 6253   3.504   5.135   4.995 -0.3708 -0.2454 -0.1364
  272DG     H21 6254   3.621   5.059   5.094  1.3753  2.4892  0.3216
  272DG     H22 6255   3.341   4.980   5.026  1.2299  0.4450 -1.8520
  272DG     H23 6256   3.432   4.889   5.145 -1.4088  0.3737  0.3504
  273DG      C1 6257   2.683   1.640   2.458  0.1259 -0.7376 -0.0473
  273DG      C2 6258   3.264   1.593   2.334  0.0925  0.2025  0.1272
  273DG      H3 6259   2.710   1.736   2.414 -1.3929  0.1207  0.8147
  273DG      H4 6260   2.599   1.657   2.525  1.4481  0.8101  1.3208
  273DG      H5 6261   2.678   1.566   2.378  2.0576 -0.8660 -0.1035
  273DG      H6 6262   3.277   1.685   2.276 -2.3445  0.0104 -0.8318
  273DG      H7 6263   3.358   1.537   2.334 -0.6424 -1.1015  1.2717
  273DG      H8 6264   3.200   1.530   2.273 -0.0669 -0.4326  0.9278
  273DG      O9 6265   2.793   1.610   2.541  0.0321  0.6524 -0.4533
  273DG     O10 6266   3.214   1.629   2.462  0.2087  0.3007 -0.4951
  273DG     C11 6267   2.776   1.499   2.624  0.3370  0.1672  0.1405
  273DG     C12 6268   3.236   1.520   2.560 -0.6067  0.1897 -0.2497
  273DG     H13 6269   2.778   1.409   2.563 -1.6211  0.1313  0.0864
  273DG     H14 6270   2.682   1.498   2.680  0.6106 -0.6161  0.5997
  273DG     H15 6271   3.339   1.510   2.594 -0.3874  1.5114 -0.4688
  273DG     H16 6272   3.217   1.429   2.503  0.6722  0.5681 -1.3458
  273DG     C17 6273   2.906   1.494   2.705  1.0637 -0.0449  0.0715
  273DG     C18 6274   3.138   1.524   2.673  0.6332  0.2771  0.5887
  273DG     O19 6275   3.010   1.510   2.608 -0.2015  0.2058 -0.2253
  273DG     H20 6276   2.920   1.396   2.751  1.1021 -0.8965 -1.6556
  273DG     H21 6277   2.893   1.566   2.786 -3.0123 -1.7046  1.1406
  273DG     H22 6278   3.149   1.438   2.739 -0.6777  1.2432  2.1224
  273DG     H23 6279   3.146   1.620   2.723  0.3624  0.8909 -0.5080
  274DG      C1 6280   2.526   4.413   3.320  0.5342  0.3200  0.4312
  274DG      C2 6281   1.911   4.178   3.577  0.0354  0.6869  0.5336
  274DG      H3 6282   2.613   4.372   3.267  0.9549  0.0369  1.3220
  274DG      H4 6283   2.557   4.425   3.424  0.7581 -2.1599  0.7301
  274DG      H5 6284   2.501   4.511   3.281  0.6284 -0.3096 -1.2976
  274DG      H6 6285   1.932   4.111   3.494  0.5522 -0.2997  1.4356
  274DG      H7 6286   1.918   4.112   3.664 -1.1617 -1.3531 -0.8394
  274DG      H8 6287   1.807   4.206   3.593  0.0237  0.1151  1.5218
  274DG      O9 6288   2.425   4.315   3.299  0.3356 -0.2733  0.2316
  274DG     O10 6289   1.994   4.288   3.599 -0.1566 -0.4764 -0.0012
  274DG     C11 6290   2.443   4.190   3.365  0.2056 -0.2803  0.2046
  274DG     C12 6291   2.095   4.273   3.698 -0.1093  0.2404 -0.5734
  274DG     H13 6292   2.545   4.151   3.366  0.4853  0.4471  0.8298
  274DG     H14 6293   2.382   4.120   3.310 -0.2718  0.3373 -0.0579
  274DG     H15 6294   2.047   4.236   3.789 -0.2321 -1.0528 -1.1437
  274DG     H16 6295   2.138   4.368   3.728 -1.3939  0.4186  0.8270
  274DG     C17 6296   2.392   4.190   3.502 -0.3186  0.5446 -0.7102
  274DG     C18 6297   2.215   4.181   3.655 -0.3010  0.4266  0.8244
  274DG     O19 6298   2.253   4.212   3.516  0.3960  1.0114 -0.4277
  274DG     H20 6299   2.447   4.254   3.571 -0.4945  0.4154 -0.4480
  274DG     H21 6300   2.422   4.098   3.552  0.8823  2.0224  1.4056
  274DG     H22 6301   2.296   4.164   3.726  0.1158  2.0083  0.7742
  274DG     H23 6302   2.188   4.078   3.631  2.3326 -0.2295  0.3051
  275DG      C1 6303   1.650   4.482   3.595  0.1481  0.0505 -0.3518
  275DG      C2 6304   2.029   4.171   3.195 -0.5588 -0.0434  0.0924
  275DG      H3 6305   1.565   4.436   3.544 -1.1063  0.7521  1.0225
  275DG      H4 6306   1.625   4.574   3.647  1.2841 -1.1626  2.5077
  275DG      H5 6307   1.697   4.417   3.668  1.4769 -0.3761 -1.5328
  275DG      H6 6308   2.093   4.169   3.107  0.6858  0.9113  0.9289
  275DG      H7 6309   2.101   4.152   3.275  0.9787 -0.1056 -1.2449
  275DG      H8 6310   1.957   4.090   3.185 -0.6368 -0.0400  0.5945
  275DG      O9 6311   1.745   4.520   3.496 -0.1826 -0.0605  0.4820
  275DG     O10 6312   1.951   4.288   3.220  0.1387 -0.3164  0.3597
  275DG     C11 6313   1.680   4.584   3.385 -0.4331  0.2570  0.9125
  275DG     C12 6314   1.872   4.317   3.099 -0.5558  0.3486 -0.2398
  275DG     H13 6315   1.637   4.677   3.420  2.9854  2.6922 -0.8296
  275DG     H14 6316   1.608   4.513   3.343 -0.6556  1.2869 -0.5200
  275DG     H15 6317   1.821   4.231   3.055 -0.4401  0.1937 -0.0738
  275DG     H16 6318   1.941   4.354   3.023 -0.7868 -0.7350 -0.9909
  275DG     C17 6319   1.784   4.629   3.283 -0.9358  0.6870  0.1035
  275DG     C18 6320   1.773   4.425   3.138 -0.6256 -0.3337  0.6081
  275DG     O19 6321   1.856   4.518   3.215 -0.3150  0.2530  0.2832
  275DG     H20 6322   1.859   4.685   3.339  0.4288 -1.4528  0.5347
  275DG     H21 6323   1.738   4.692   3.207  0.9893  1.1618 -0.7428
  275DG     H22 6324   1.728   4.478   3.055 -0.6657 -2.2254 -0.6523
  275DG     H23 6325   1.687   4.377   3.185 -0.4668  0.0709  1.3233
  276DG      C1 6326   5.155   5.282   1.509 -0.7652  0.6410  0.5660
  276DG      C2 6327   5.613   4.734   1.396  0.5499 -0.6903  0.6993
  276DG      H3 6328   5.165   5.385   1.474 -0.6761 -0.1283 -1.8682
  276DG      H4 6329   5.164   5.256   1.615  0.1483 -0.9365  0.1382
  276DG      H5 6330   5.053   5.252   1.486 -0.7415  0.2097  1.0052
  276DG      H6 6331   5.557   4.678   1.471 -2.3857  0.6373 -0.3046
  276DG      H7 6332   5.648   4.673   1.312 -0.1290 -1.1534  0.7396
  276DG      H8 6333   5.693   4.787   1.446 -1.3318  2.3171  0.7967
  276DG      O9 6334   5.239   5.202   1.435 -0.2286 -0.4662 -0.1608
  276DG     O10 6335   5.527   4.830   1.337 -0.7878  0.4386  0.2965
  276DG     C11 6336   5.202   5.202   1.295 -0.2557  0.4415 -0.0952
  276DG     C12 6337   5.611   4.934   1.281  0.1736  0.0941 -0.4051
  276DG     H13 6338   5.152   5.289   1.252  2.1503 -0.1516 -4.7779
  276DG     H14 6339   5.128   5.124   1.280  1.6949 -1.0770 -2.8013
  276DG     H15 6340   5.672   4.887   1.204  1.3066 -0.7799  0.9626
  276DG     H16 6341   5.672   4.983   1.357 -1.2370  1.8255 -0.3247
  276DG     C17 6342   5.327   5.168   1.215 -0.2502 -0.4350 -0.0659
  276DG     C18 6343   5.533   5.048   1.209  0.1929  0.0428  0.0348
  276DG     O19 6344   5.416   5.080   1.278 -0.6908  0.7228 -0.3737
  276DG     H20 6345   5.383   5.260   1.195  0.0880 -1.0505 -2.1130
  276DG     H21 6346   5.303   5.120   1.121  2.9172 -1.2992 -0.5507
  276DG     H22 6347   5.591   5.140   1.201 -0.3799  0.2791 -1.9543
  276DG     H23 6348   5.522   5.015   1.105 -1.9357  0.0426  0.2182
  277DG      C1 6349   3.442   1.702   2.871 -0.1095 -0.1612  0.6750
  277DG      C2 6350   3.598   0.938   3.022 -0.6775  0.4943 -0.0064
  277DG      H3 6351   3.389   1.698   2.776 -0.0504 -1.9684  0.6737
  277DG      H4 6352   3.547   1.715   2.843  0.1734 -2.8297  0.2471
  277DG      H5 6353   3.409   1.794   2.918 -1.9053  1.4299 -3.2317
  277DG      H6 6354   3.557   0.881   2.939 -1.3867  0.8101  0.1179
  277DG      H7 6355   3.701   0.967   3.002 -1.5063  2.4813 -1.8347
  277DG      H8 6356   3.584   0.867   3.104 -1.4111 -0.8954 -1.2815
  277DG      O9 6357   3.428   1.575   2.930  0.1199  0.3154  0.0107
  277DG     O10 6358   3.511   1.054   3.044  0.7151  0.0865 -0.2681
  277DG     C11 6359   3.516   1.474   2.883  0.2311  0.5610 -0.1607
  277DG     C12 6360   3.553   1.118   3.160  0.0695  0.0842 -0.3453
  277DG     H13 6361   3.616   1.506   2.913 -1.0630  1.3354  3.8751
  277DG     H14 6362   3.507   1.472   2.774 -1.5662  1.3328 -0.0617
  277DG     H15 6363   3.662   1.120   3.165  0.0240  0.3815  1.3036
  277DG     H16 6364   3.516   1.061   3.246 -0.8089  2.0211  0.6199
  277DG     C17 6365   3.486   1.342   2.945  0.5911 -0.3982 -0.2378
  277DG     C18 6366   3.507   1.264   3.183 -0.4127  0.6278  0.1414
  277DG     O19 6367   3.533   1.362   3.085 -0.3806  0.0834  0.4496
  277DG     H20 6368   3.537   1.258   2.896 -0.1100 -0.2537 -1.2491
  277DG     H21 6369   3.381   1.316   2.949  0.5136  0.0261  3.2136
  277DG     H22 6370   3.399   1.252   3.175 -0.3892 -0.6755  1.3621
  277DG     H23 6371   3.526   1.296   3.285 -1.3096  1.7096 -0.0114
  278DG      C1 6372   0.707   1.702   3.008  0.2364 -0.0370  0.2111
  278DG      C2 6373   0.797   1.710   2.346 -0.2203  0.1980  0.2114
  278DG      H3 6374   0.651   1.708   3.101  0.1462  0.2218  0.1405
  278DG      H4 6375   0.631   1.708   2.930 -0.3439 -0.4285  0.7383
  278DG      H5 6376   0.793   1.769   2.999  1.7715 -1.7864  1.0848
  278DG      H6 6377   0.905   1.710   2.331  0.0301 -2.0848  1.6403
  278DG      H7 6378   0.755   1.668   2.254  1.3535 -1.4593  0.2205
  278DG      H8 6379   0.768   1.815   2.350  1.6448  0.8159 -1.1981
  278DG      O9 6380   0.755   1.568   2.995  0.1119  0.3700 -0.0002
  278DG     O10 6381   0.760   1.636   2.455  0.0321 -0.0240 -0.5673
  278DG     C11 6382   0.834   1.531   2.884  0.6510 -0.3748  0.0268
  278DG     C12 6383   0.622   1.647   2.492 -0.4326 -0.5293  0.1081
  278DG     H13 6384   0.906   1.449   2.894  1.2546 -0.0137 -1.2322
  278DG     H14 6385   0.896   1.614   2.852  0.0132  0.9083  1.9437
  278DG     H15 6386   0.574   1.615   2.399 -1.6565 -2.0457  1.2098
  278DG     H16 6387   0.600   1.752   2.512 -0.0484  0.0309 -2.0863
  278DG     C17 6388   0.742   1.476   2.777  0.3447  0.2823 -0.1405
  278DG     C18 6389   0.592   1.545   2.605 -1.1574  0.3391  0.0196
  278DG     O19 6390   0.691   1.581   2.707 -0.1430  0.5749  0.5182
  278DG     H20 6391   0.659   1.425   2.826 -0.8778  0.8068 -1.6016
  278DG     H21 6392   0.785   1.408   2.703 -0.3435  0.5527 -0.7941
  278DG     H22 6393   0.490   1.554   2.642 -1.1751  0.1160  0.0248
  278DG     H23 6394   0.599   1.442   2.569 -1.7609  0.6104 -0.9278
  279DG      C1 6395   5.234   1.688   2.201  1.0120  0.7720  0.1505
  279DG      C2 6396   4.566   1.870   2.303  0.3136  0.1766  0.2133
  279DG      H3 6397   5.247   1.589   2.158  0.1517  0.3828  0.7597
  279DG      H4 6398   5.228   1.667   2.308 -1.2981 -0.3309 -0.1136
  279DG      H5 6399   5.318   1.753   2.179  1.9024 -0.7441 -1.1535
  279DG      H6 6400   4.486   1.812   2.257 -0.8116 -0.2930  2.5857
  279DG      H7 6401   4.584   1.823   2.400  1.9521  1.8598  0.7961
  279DG      H8 6402   4.533   1.973   2.314 -1.2459 -0.4972  2.6928
  279DG      O9 6403   5.117   1.744   2.153 -0.0717 -0.4091 -0.8511
  279DG     O10 6404   4.684   1.869   2.227  0.0077 -0.0608  0.3068
  279DG     C11 6405   5.114   1.768   2.010 -0.5648  0.4920  0.3586
  279DG     C12 6406   4.678   1.940   2.105  0.1109  0.2333 -0.4860
  279DG     H13 6407   5.159   1.690   1.948 -0.9229 -1.6749  2.6620
  279DG     H14 6408   5.163   1.860   1.978  1.1676 -0.6710 -0.4753
  279DG     H15 6409   4.698   2.046   2.116  1.3921 -0.1791  1.7106
  279DG     H16 6410   4.577   1.952   2.066 -0.1801  0.2918  0.2710
  279DG     C17 6411   4.971   1.774   1.953 -0.1893  0.7445 -0.1275
  279DG     C18 6412   4.757   1.870   1.992 -0.0893 -0.4129 -0.7309
  279DG     O19 6413   4.892   1.851   2.043 -0.1286  0.1842 -0.0015
  279DG     H20 6414   4.921   1.677   1.954  1.1159  0.0178  2.0519
  279DG     H21 6415   4.974   1.819   1.854 -0.2863  1.2564  0.1020
  279DG     H22 6416   4.705   1.779   1.962 -1.4813  0.0337  0.2308
  279DG     H23 6417   4.751   1.937   1.907 -2.3442  2.8976  1.7674
  280DG      C1 6418   3.824   5.070   1.425  0.2313  0.1120 -0.6534
  280DG      C2 6419   4.470   4.756   0.990  0.6021 -0.3674 -0.1703
  280DG      H3 6420   3.830   5.167   1.474  1.9125 -1.1030  1.7495
  280DG      H4 6421   3.730   5.031   1.463 -0.2623  1.9650  0.1557
  280DG      H5 6422   3.816   5.072   1.316  3.9628 -1.9887 -1.1364
  280DG      H6 6423   4.397   4.782   0.915  0.0157 -0.1630  0.4611
  280DG      H7 6424   4.559   4.737   0.930 -0.1747 -0.8950 -1.1763
  280DG      H8 6425   4.455   4.655   1.031 -1.5716  0.1422  0.4098
  280DG      O9 6426   3.943   4.993   1.452 -0.3365  0.0502 -0.3222
  280DG     O10 6427   4.478   4.867   1.078  0.3112  0.6331  0.7215
  280DG     C11 6428   4.058   5.072   1.418 -0.9262  0.0890 -0.2981
  280DG     C12 6429   4.351   4.912   1.132 -0.3603  0.1487 -0.0334
  280DG     H13 6430   4.084   5.125   1.509 -0.8086  0.9088 -0.7971
  280DG     H14 6431   4.030   5.154   1.351  0.2227  0.8722  0.1542
  280DG     H15 6432   4.290   4.826   1.159 -1.2487  1.1001  1.0974
  280DG     H16 6433   4.309   4.967   1.048 -1.0525  0.3883  0.4573
  280DG     C17 6434   4.174   4.989   1.366  0.6151 -0.4007  0.9935
  280DG     C18 6435   4.381   5.009   1.243 -0.4642 -0.2570  0.0288
  280DG     O19 6436   4.261   5.070   1.289 -0.2872 -0.1758  0.2355
  280DG     H20 6437   4.138   4.908   1.302 -1.1959  0.7654  0.4758
  280DG     H21 6438   4.223   4.940   1.450 -1.0075 -1.9814  1.0873
  280DG     H22 6439   4.430   4.950   1.320  1.4566 -0.1166 -1.0118
  280DG     H23 6440   4.449   5.084   1.203 -2.0209  0.6903 -0.9880
  281DG      C1 6441   4.760   0.710   1.812  0.6620  0.2738 -0.2485
  281DG      C2 6442   5.322   1.064   1.250  0.1340  0.0377  0.4627
  281DG      H3 6443   4.706   0.660   1.732 -1.6018  1.6154  0.3633
  281DG      H4 6444   4.692   0.711   1.898 -0.6122  0.6212 -1.2289
  281DG      H5 6445   4.847   0.649   1.836  0.0013 -0.1863  1.0594
  281DG      H6 6446   5.297   0.974   1.192  0.7005  0.6444 -0.7571
  281DG      H7 6447   5.285   1.147   1.190 -1.2141 -1.3375 -0.6974
  281DG      H8 6448   5.429   1.083   1.260  0.6588 -2.5536  0.4213
  281DG      O9 6449   4.799   0.841   1.778 -0.0218 -0.0001  0.6246
  281DG     O10 6450   5.260   1.040   1.375  0.2547 -0.2123 -0.3050
  281DG     C11 6451   4.891   0.853   1.664  0.5228  0.0777 -0.3528
  281DG     C12 6452   5.202   1.145   1.439 -0.7579  0.5349  0.7902
  281DG     H13 6453   4.843   0.859   1.566  1.1936 -1.6086 -0.8276
  281DG     H14 6454   4.946   0.759   1.657  0.4585  0.0639 -0.7118
  281DG     H15 6455   5.111   1.158   1.381 -0.7835 -0.9891  0.4463
  281DG     H16 6456   5.256   1.240   1.436 -1.0150  0.6952  1.1316
  281DG     C17 6457   4.982   0.973   1.683  0.7034 -0.2847  0.4669
  281DG     C18 6458   5.139   1.108   1.578  0.1137  0.7351  0.3796
  281DG     O19 6459   5.057   0.995   1.568  1.0495  0.3971  0.1458
  281DG     H20 6460   5.046   0.960   1.771 -0.3643  0.6807  1.4078
  281DG     H21 6461   4.912   1.055   1.700  0.7986 -0.1660  0.2859
  281DG     H22 6462   5.228   1.081   1.635  0.8526  0.9813 -0.6282
  281DG     H23 6463   5.073   1.184   1.621 -0.2927  1.9864 -2.2751
  282DG      C1 6464   5.250   1.215   5.437  0.2025  0.3318 -0.0780
  282DG      C2 6465   5.141   1.930   5.448  0.0406  0.2311 -0.3879
  282DG      H3 6466   5.348   1.246   5.474 -0.0513  0.3012  0.6332
  282DG      H4 6467   5.270   1.122   5.383 -1.4607 -0.2876  0.3187
  282DG      H5 6468   5.192   1.180   5.523  1.7097  1.5289  1.5130
  282DG      H6 6469   5.248   1.923   5.469  0.1673  0.2094 -1.0034
  282DG      H7 6470   5.119   2.027   5.403  0.7765  0.9715  0.8012
  282DG      H8 6471   5.096   1.928   5.547  1.1437  0.2333  0.1237
  282DG      O9 6472   5.183   1.299   5.354  0.0212 -0.4206 -0.3548
  282DG     O10 6473   5.097   1.818   5.377  0.1025 -0.2930 -0.0663
  282DG     C11 6474   5.253   1.337   5.236 -0.3026 -0.0640 -0.3339
  282DG     C12 6475   5.166   1.818   5.251 -0.2990 -0.1098 -0.4824
  282DG     H13 6476   5.257   1.251   5.169  0.1365 -0.4124  0.1374
  282DG     H14 6477   5.355   1.356   5.271 -0.3552  0.0229 -0.2307
  282DG     H15 6478   5.274   1.823   5.256 -0.3477  0.5872 -0.0283
  282DG     H16 6479   5.138   1.905   5.192  1.8242  1.0194  0.1008
  282DG     C17 6480   5.182   1.456   5.169 -0.4440 -0.4212  0.3193
  282DG     C18 6481   5.130   1.687   5.177  0.6406 -0.6320 -0.5062
  282DG     O19 6482   5.197   1.574   5.243 -0.0786 -0.3977 -0.3237
  282DG     H20 6483   5.073   1.451   5.168 -0.6668  2.3928  0.3678
  282DG     H21 6484   5.212   1.454   5.065 -3.4589 -2.2241 -0.6343
  282DG     H22 6485   5.023   1.676   5.161  0.5493  1.1283 -1.4225
  282DG     H23 6486   5.164   1.694   5.073 -0.7141 -1.8612 -1.0620
  283DG      C1 6487   1.959   1.258   4.497  0.4216 -0.4424  0.7295
  283DG      C2 6488   1.914   1.553   5.211  0.1555  0.8397 -0.0468
  283DG      H3 6489   1.944   1.178   4.425  0.5825 -2.1544  2.5199
  283DG      H4 6490   2.010   1.206   4.578  1.9414 -0.4794 -0.2068
  283DG      H5 6491   2.029   1.331   4.456  1.8490 -2.1909 -0.0656
  283DG      H6 6492   1.934   1.459   5.263 -1.9772  0.0421 -0.5728
  283DG      H7 6493   1.998   1.615   5.242  2.3487 -0.7973 -2.2842
  283DG      H8 6494   1.815   1.583   5.244 -0.0790  1.7728 -1.5212
  283DG      O9 6495   1.829   1.299   4.532 -0.0271  0.1715  0.2921
  283DG     O10 6496   1.923   1.539   5.072 -0.3984 -0.2888 -0.7583
  283DG     C11 6497   1.812   1.344   4.663  0.4439 -0.1735 -0.0352
  283DG     C12 6498   1.869   1.658   5.011 -0.2339  0.4068  0.1803
  283DG     H13 6499   1.838   1.266   4.734 -0.2895 -0.6973 -0.3245
  283DG     H14 6500   1.704   1.358   4.675  0.6937  0.1344  2.3048
  283DG     H15 6501   1.901   1.749   5.062 -1.3935  1.3550 -0.7453
  283DG     H16 6502   1.761   1.648   5.019 -0.3391 -1.9284 -2.5716
  283DG     C17 6503   1.864   1.483   4.687 -0.2075  0.3125 -0.1282
  283DG     C18 6504   1.909   1.651   4.860  0.0531 -0.0450 -0.6879
  283DG     O19 6505   1.871   1.515   4.827 -0.2933 -0.2481 -0.6623
  283DG     H20 6506   1.806   1.558   4.633  0.4490 -0.8299 -2.5584
  283DG     H21 6507   1.964   1.485   4.644 -0.3634 -1.6614 -0.6414
  283DG     H22 6508   1.858   1.724   4.797 -2.6806 -1.1299  0.1337
  283DG     H23 6509   2.017   1.669   4.853  0.1465  0.0057  0.6434
  284DG      C1 6510   2.688   1.337   4.315  0.2948 -0.2268 -0.1624
  284DG      C2 6511   2.990   1.664   3.668  0.2139  0.3463  0.4290
  284DG      H3 6512   2.697   1.230   4.329 -0.4108 -0.1856  0.7404
  284DG      H4 6513   2.582   1.358   4.297  0.3258  0.2782  0.2263
  284DG      H5 6514   2.717   1.384   4.409 -2.3801  0.0326  0.6241
  284DG      H6 6515   3.016   1.770   3.677 -0.2804  0.7262 -1.9986
  284DG      H7 6516   3.086   1.623   3.636 -0.7908 -1.5651 -0.3170
  284DG      H8 6517   2.921   1.650   3.584 -1.5613  0.9273  1.7338
  284DG      O9 6518   2.769   1.372   4.199  0.4673  0.3272  0.0383
  284DG     O10 6519   2.950   1.579   3.780  0.4247 -0.1516 -0.7110
  284DG     C11 6520   2.886   1.438   4.239  0.1775 -0.2128  0.5261
  284DG     C12 6521   2.822   1.609   3.830  1.0104 -0.0926 -0.3215
  284DG     H13 6522   2.945   1.382   4.311  0.7210 -1.7297 -1.0317
  284DG     H14 6523   2.849   1.526   4.292  0.7991  0.5419 -0.2506
  284DG     H15 6524   2.749   1.566   3.763 -0.0311 -0.0779  0.7634
  284DG     H16 6525   2.807   1.717   3.840 -2.0081 -0.5270  0.6466
  284DG     C17 6526   2.977   1.477   4.113 -0.1197  0.1143  0.5866
  284DG     C18 6527   2.794   1.554   3.973 -0.0405 -0.6120  0.3126
  284DG     O19 6528   2.911   1.590   4.055  0.5196  0.1601 -0.2947
  284DG     H20 6529   2.975   1.404   4.032 -1.6248  1.8065 -1.0408
  284DG     H21 6530   3.079   1.503   4.139  0.1733 -0.0962 -0.3105
  284DG     H22 6531   2.709   1.604   4.018  0.8023  0.6329  0.5847
  284DG     H23 6532   2.779   1.446   3.963 -0.9987 -0.6278  1.6784
  285DG      C1 6533   4.317   0.981   0.553 -0.0736  0.4262 -0.3268
  285DG      C2 6534   4.551   0.232   0.247  0.1469 -0.0789  0.6740
  285DG      H3 6535   4.315   1.027   0.455 -0.1313 -0.5673 -0.8116
  285DG      H4 6536   4.416   0.973   0.597  0.7919  0.4229 -2.2052
  285DG      H5 6537   4.250   1.039   0.617  0.9562  0.5281  0.6870
  285DG      H6 6538   4.556   0.255   0.141 -1.5332 -0.0164  0.5770
  285DG      H7 6539   4.654   0.246   0.279  1.2788  0.4727 -2.8210
  285DG      H8 6540   4.513   0.132   0.266  2.0967 -1.0755 -0.4134
  285DG      O9 6541   4.255   0.853   0.546  0.1507 -0.0483 -0.7201
  285DG     O10 6542   4.481   0.335   0.312  0.2752  0.3132 -0.0710
  285DG     C11 6543   4.294   0.775   0.438  0.4489 -0.5864 -0.1399
  285DG     C12 6544   4.345   0.328   0.283  0.1660  0.4432 -0.4692
  285DG     H13 6545   4.402   0.769   0.439  0.3925 -5.1681  1.2032
  285DG     H14 6546   4.290   0.817   0.338  1.2886 -2.0423 -0.8154
  285DG     H15 6547   4.309   0.227   0.300 -0.4258  0.3291 -2.2773
  285DG     H16 6548   4.317   0.367   0.186  1.9120  1.6071 -0.5570
  285DG     C17 6549   4.234   0.637   0.450 -0.2495  0.1312  0.7605
  285DG     C18 6550   4.256   0.416   0.370  0.4009  0.2629  0.4026
  285DG     O19 6551   4.298   0.552   0.358 -0.4648 -0.1321  0.5844
  285DG     H20 6552   4.127   0.626   0.429 -0.2078  0.5412  0.3044
  285DG     H21 6553   4.247   0.594   0.549  1.3955  0.4514  0.7109
  285DG     H22 6554   4.152   0.404   0.339  0.3384 -0.9640  1.0114
  285DG     H23 6555   4.264   0.389   0.475 -1.7535  2.0053  1.0832
  286DG      C1 6556   0.257   1.331   2.548  0.4602  0.0955  0.0594
  286DG      C2 6557  -0.179   1.446   2.906 -0.4483 -0.1945  0.2993
  286DG      H3 6558   0.302   1.309   2.645 -0.6619  1.7476  1.0041
  286DG      H4 6559   0.308   1.419   2.508 -0.5912  0.7153  0.0284
  286DG      H5 6560   0.281   1.255   2.475 -0.6707  1.3260 -1.6736
  286DG      H6 6561  -0.131   1.515   2.836  1.8917 -1.6076  0.4041
  286DG      H7 6562  -0.244   1.490   2.981 -0.5054  0.9724 -0.4105
  286DG      H8 6563  -0.096   1.401   2.960  1.2920  0.5344 -1.6601
  286DG      O9 6564   0.121   1.356   2.559  0.6938  0.1147  0.7578
  286DG     O10 6565  -0.238   1.354   2.811  0.4226  0.1363 -0.1731
  286DG     C11 6566   0.055   1.415   2.445 -0.1946  0.1599  0.2554
  286DG     C12 6567  -0.345   1.405   2.722 -0.2832  0.5477 -0.2729
  286DG     H13 6568   0.040   1.336   2.371  0.0154  0.2545  0.1129
  286DG     H14 6569   0.126   1.484   2.400  1.2481 -0.1725  1.8779
  286DG     H15 6570  -0.415   1.466   2.779 -1.4769 -3.2151  2.6559
  286DG     H16 6571  -0.396   1.320   2.678  0.1400  0.6330 -0.9612
  286DG     C17 6572  -0.081   1.479   2.472 -0.1923 -0.5578 -1.1018
  286DG     C18 6573  -0.272   1.468   2.606  0.3135  0.1438  0.5539
  286DG     O19 6574  -0.152   1.404   2.570 -0.3296 -0.1102 -0.3266
  286DG     H20 6575  -0.140   1.492   2.382 -0.6067  1.4948 -0.5826
  286DG     H21 6576  -0.065   1.582   2.507 -1.4719 -0.7995  0.3118
  286DG     H22 6577  -0.336   1.460   2.518  0.2081  1.8714  0.4528
  286DG     H23 6578  -0.269   1.576   2.620  0.4122  0.0900  0.9534
  287DG      C1 6579   2.397   3.718   1.429 -0.2395 -0.4496  0.5079
  287DG      C2 6580   2.233   3.575   2.116 -0.0473 -0.1011  0.2786
  287DG      H3 6581   2.412   3.826   1.424  0.3554 -0.4997  1.0320
  287DG      H4 6582   2.292   3.709   1.457 -0.5239 -1.0554 -0.7130
  287DG      H5 6583   2.405   3.666   1.334 -2.1113 -0.4825  0.3356
  287DG      H6 6584   2.133   3.531   2.114  1.0164 -2.7452  0.6888
  287DG      H7 6585   2.266   3.576   2.220 -2.2923 -0.4660  1.0552
  287DG      H8 6586   2.228   3.677   2.078  0.9434  0.8669  2.5517
  287DG      O9 6587   2.479   3.658   1.531 -0.5081 -0.7867  0.0061
  287DG     O10 6588   2.332   3.516   2.030 -0.2720  0.4142  0.1618
  287DG     C11 6589   2.445   3.515   1.555  0.3449 -0.8413 -0.2850
  287DG     C12 6590   2.465   3.574   2.038  0.8952  0.5603 -0.3528
  287DG     H13 6591   2.471   3.454   1.469 -2.7248 -1.2811 -0.9955
  287DG     H14 6592   2.341   3.484   1.562  0.6846 -1.8678  0.3936
  287DG     H15 6593   2.510   3.542   2.132  2.4141 -2.9314 -2.0892
  287DG     H16 6594   2.466   3.683   2.029 -3.4187  0.7358 -1.1258
  287DG     C17 6595   2.520   3.481   1.682  0.1873  0.6479 -0.2218
  287DG     C18 6596   2.536   3.513   1.913  0.6641 -0.6905  0.2629
  287DG     O19 6597   2.466   3.551   1.800 -0.4277  0.1416 -0.1137
  287DG     H20 6598   2.625   3.501   1.660  0.6327 -1.3107 -0.0380
  287DG     H21 6599   2.535   3.373   1.690  0.3793  0.7645  1.3840
  287DG     H22 6600   2.641   3.542   1.918  0.2620  0.7890  4.2048
  287DG     H23 6601   2.540   3.405   1.930  0.6033 -0.8266 -0.5533
  288DG      C1 6602   0.399   1.728   5.168 -0.2883  0.7461 -0.3973
  288DG      C2 6603   1.088   1.860   5.027  0.2320 -0.0027 -0.2822
  288DG      H3 6604   0.398   1.659   5.084  1.4464  0.3497 -0.1128
  288DG      H4 6605   0.305   1.781   5.152 -1.0610 -0.5163 -0.1680
  288DG      H5 6606   0.399   1.679   5.265  1.2913 -0.8936 -1.1834
  288DG      H6 6607   1.188   1.874   5.069  0.1740 -0.6692  0.0788
  288DG      H7 6608   1.083   1.759   4.987 -0.9196  0.6718 -1.9322
  288DG      H8 6609   1.076   1.932   4.946 -1.0161  0.4819  0.3207
  288DG      O9 6610   0.521   1.804   5.163 -0.0027  0.4642 -0.0517
  288DG     O10 6611   0.987   1.866   5.122  0.4861  0.8221 -0.3572
  288DG     C11 6612   0.504   1.938   5.221 -0.2148  0.1566  0.0801
  288DG     C12 6613   0.980   1.994   5.177 -0.2820  0.1945 -0.2232
  288DG     H13 6614   0.431   1.949   5.301  0.1778  0.1128  0.4467
  288DG     H14 6615   0.485   2.018   5.149 -1.2306 -0.4009 -0.2853
  288DG     H15 6616   0.953   2.068   5.101 -1.3601  0.8573  0.7766
  288DG     H16 6617   1.074   2.026   5.220 -0.0879  0.6580 -0.9694
  288DG     C17 6618   0.642   1.954   5.305  0.1926 -0.1729 -0.9027
  288DG     C18 6619   0.870   1.993   5.277 -0.1006 -0.1367 -0.5204
  288DG     O19 6620   0.753   1.943   5.214 -0.1977 -0.3355 -0.0358
  288DG     H20 6621   0.645   1.878   5.383  0.4983  0.2177 -0.5269
  288DG     H21 6622   0.650   2.049   5.358 -0.1516 -1.1153  0.9126
  288DG     H22 6623   0.893   1.925   5.360 -0.3403 -0.0941 -0.4162
  288DG     H23 6624   0.855   2.094   5.315 -1.5316 -0.5828  0.2007
  289DG      C1 6625   1.221   3.148   2.635  0.3372 -0.8225 -0.4339
  289DG      C2 6626   1.493   3.860   2.569 -0.1113  0.0327  0.2771
  289DG      H3 6627   1.151   3.153   2.552 -0.2191  1.9006  0.1316
  289DG      H4 6628   1.157   3.172   2.719 -1.4048  0.5539 -2.0824
  289DG      H5 6629   1.259   3.046   2.647  1.0233 -0.7782 -2.0038
  289DG      H6 6630   1.423   3.910   2.636 -0.6823  0.6359 -0.7479
  289DG      H7 6631   1.581   3.917   2.597  0.3102  0.8497 -2.3916
  289DG      H8 6632   1.459   3.888   2.469 -2.9670  0.5886  1.3202
  289DG      O9 6633   1.330   3.245   2.631  0.6494  0.6933 -0.4650
  289DG     O10 6634   1.508   3.722   2.596 -0.0044  0.0751  0.0519
  289DG     C11 6635   1.430   3.212   2.540 -0.6836 -0.2155 -0.0851
  289DG     C12 6636   1.635   3.664   2.545 -0.0960  0.0131 -0.4083
  289DG     H13 6637   1.387   3.241   2.444  0.1944  0.1450 -0.3819
  289DG     H14 6638   1.457   3.107   2.536  1.5046  0.3105 -0.2123
  289DG     H15 6639   1.711   3.725   2.595  0.9936 -0.1735 -1.7938
  289DG     H16 6640   1.638   3.681   2.438  0.3069 -2.3275 -0.8327
  289DG     C17 6641   1.561   3.304   2.555 -0.4253  0.3174 -0.3838
  289DG     C18 6642   1.648   3.515   2.588  0.6111 -0.5673  0.8495
  289DG     O19 6643   1.535   3.439   2.542  0.1302 -0.1174  0.1308
  289DG     H20 6644   1.623   3.271   2.472 -2.6261 -3.6098 -0.7249
  289DG     H21 6645   1.610   3.269   2.646  0.3846 -1.0188 -1.3063
  289DG     H22 6646   1.737   3.477   2.539 -0.2530 -0.1437 -1.1411
  289DG     H23 6647   1.652   3.499   2.696 -2.3489 -3.6410  0.6832
  290DG      C1 6648   3.863   4.044   0.052  0.5989  0.4914 -0.3310
  290DG      C2 6649   3.499   3.906  -0.581  0.2240 -0.1816 -0.2739
  290DG      H3 6650   3.951   4.002   0.003 -0.1750 -0.6139 -0.8208
  290DG      H4 6651   3.809   3.971   0.111  0.1331  2.0862  1.3009
  290DG      H5 6652   3.908   4.107   0.129 -0.8946  0.7196  0.3826
  290DG      H6 6653   3.398   3.942  -0.601  0.4818  1.5977  1.3157
  290DG      H7 6654   3.549   3.897  -0.678  0.5155  0.5478 -0.2025
  290DG      H8 6655   3.490   3.818  -0.518 -0.8912  1.0807  1.4334
  290DG      O9 6656   3.775   4.095  -0.036  0.1998 -0.9963  0.0934
  290DG     O10 6657   3.563   3.992  -0.490  0.1575 -0.1261  0.1825
  290DG     C11 6658   3.830   4.207  -0.111  0.6391 -0.3891  0.2128
  290DG     C12 6659   3.583   4.126  -0.539  0.2793  0.5018 -0.1918
  290DG     H13 6660   3.924   4.181  -0.160  1.0207  1.9081 -0.3874
  290DG     H14 6661   3.866   4.288  -0.047  1.2007 -0.4602 -0.0018
  290DG     H15 6662   3.492   4.155  -0.591 -0.0232  1.9174  1.0711
  290DG     H16 6663   3.673   4.124  -0.600 -0.8964  3.1277 -2.1978
  290DG     C17 6664   3.719   4.273  -0.206 -0.7364  0.9909  0.3087
  290DG     C18 6665   3.609   4.223  -0.418  0.2719 -0.9202 -0.2628
  290DG     O19 6666   3.700   4.184  -0.315 -0.9862  0.0680  0.1750
  290DG     H20 6667   3.767   4.360  -0.249  0.4027 -0.3800 -1.3022
  290DG     H21 6668   3.628   4.297  -0.150 -1.5931 -0.3853 -0.4297
  290DG     H22 6669   3.618   4.320  -0.467 -1.2602 -0.4119  0.4186
  290DG     H23 6670   3.517   4.226  -0.359  1.0927  0.0968  1.0337
  291DG      C1 6671   1.590   4.868   0.248 -0.1791 -0.1161 -1.1405
  291DG      C2 6672   1.065   4.984   0.898  0.9159 -0.2621  0.1978
  291DG      H3 6673   1.688   4.875   0.200 -0.9019  0.7776 -2.5622
  291DG      H4 6674   1.508   4.890   0.180 -2.1181 -0.2644  1.0549
  291DG      H5 6675   1.581   4.764   0.278  1.3893  0.7297  2.8211
  291DG      H6 6676   0.996   4.961   0.817  0.6787 -2.5705  0.9708
  291DG      H7 6677   1.074   4.897   0.963 -0.9443 -1.5358 -1.1396
  291DG      H8 6678   1.009   5.055   0.959  0.2073 -0.7437  0.1247
  291DG      O9 6679   1.562   4.953   0.361  0.1038 -0.1497 -0.0822
  291DG     O10 6680   1.194   5.035   0.862  0.6324  0.2232  0.0733
  291DG     C11 6681   1.636   4.942   0.477  0.2363  0.1320  0.0387
  291DG     C12 6682   1.252   4.961   0.758  0.2236 -0.3877 -0.0033
  291DG     H13 6683   1.736   4.983   0.465 -0.3149  0.9988 -1.8741
  291DG     H14 6684   1.648   4.838   0.506  2.7378  0.8116  1.7508
  291DG     H15 6685   1.186   4.954   0.671 -0.4805 -1.7076  0.6126
  291DG     H16 6686   1.282   4.861   0.788  1.1003  0.2954  1.5077
  291DG     C17 6687   1.577   5.013   0.600 -0.7449 -0.0336  0.2115
  291DG     C18 6688   1.385   5.034   0.732  0.7676 -0.0719 -0.0244
  291DG     O19 6689   1.442   4.965   0.621  0.0136 -0.2413 -0.1026
  291DG     H20 6690   1.587   5.122   0.597 -2.6350  0.2590  1.9565
  291DG     H21 6691   1.629   4.975   0.689 -1.2263  0.8014  0.8693
  291DG     H22 6692   1.357   5.136   0.704  2.1599 -0.0309 -1.3836
  291DG     H23 6693   1.451   5.033   0.819  0.6782 -0.4425  0.0401
  292DG      C1 6694   1.331   0.911   3.571 -0.0595 -0.0711  0.1515
  292DG      C2 6695   1.089   1.247   3.945  0.0425  0.4919 -0.3692
  292DG      H3 6696   1.294   0.897   3.469 -0.2818 -0.3930  0.2761
  292DG      H4 6697   1.304   1.012   3.601 -0.4928  0.1120 -0.8123
  292DG      H5 6698   1.263   0.843   3.622 -1.0109  0.9896  0.3142
  292DG      H6 6699   1.040   1.149   3.952  2.4492 -0.7214  0.3830
  292DG      H7 6700   1.097   1.291   4.044  0.3371 -1.4617  0.5215
  292DG      H8 6701   1.045   1.321   3.877  1.6413  1.3456 -0.5050
  292DG      O9 6702   1.474   0.891   3.589  0.3723 -0.2100 -0.1769
  292DG     O10 6703   1.215   1.214   3.887  0.0737  0.8564  0.0556
  292DG     C11 6704   1.528   0.900   3.726  0.1803 -0.0002  0.6122
  292DG     C12 6705   1.319   1.307   3.905 -0.5219  0.5198 -0.1617
  292DG     H13 6706   1.620   0.843   3.713  1.0289  0.8422  2.4407
  292DG     H14 6707   1.471   0.850   3.804  1.0063 -1.9621  0.0199
  292DG     H15 6708   1.358   1.315   4.006  2.9366 -0.9533 -1.2061
  292DG     H16 6709   1.282   1.403   3.868 -0.7487  1.1661  1.6671
  292DG     C17 6710   1.556   1.041   3.776 -0.0332 -0.5799  0.2845
  292DG     C18 6711   1.449   1.245   3.834 -0.9464 -0.1240  0.0723
  292DG     O19 6712   1.431   1.107   3.808  0.0034 -0.0062 -0.3971
  292DG     H20 6713   1.604   1.095   3.694 -0.8665 -0.7894 -0.3567
  292DG     H21 6714   1.617   1.039   3.866 -0.6056  1.6120  0.7827
  292DG     H22 6715   1.464   1.304   3.744 -2.3880  1.2114  0.6558
  292DG     H23 6716   1.529   1.264   3.905 -1.3501  1.1067  0.2199
  293DG      C1 6717   1.933   0.646   2.566 -0.3164 -0.1985 -0.8356
  293DG      C2 6718   2.045   0.761   1.972  0.2354  0.0996 -0.0929
  293DG      H3 6719   2.001   0.703   2.503  0.6581  0.5898  0.8515
  293DG      H4 6720   1.985   0.557   2.600 -1.2819 -0.7519 -0.7810
  293DG      H5 6721   1.921   0.701   2.660 -0.9146 -1.4733 -0.1500
  293DG      H6 6722   2.049   0.699   2.062 -0.9840  0.6333  0.3468
  293DG      H7 6723   2.089   0.698   1.896  0.3140  0.0342  0.0056
  293DG      H8 6724   2.112   0.845   1.993  0.6035 -0.0782 -0.5380
  293DG      O9 6725   1.814   0.613   2.498 -0.1097  0.4509 -0.3097
  293DG     O10 6726   1.912   0.796   1.937  0.5375  0.2981  0.1525
  293DG     C11 6727   1.827   0.516   2.395  1.0384 -0.0417 -0.2491
  293DG     C12 6728   1.828   0.855   2.039 -0.0642  0.1809  0.0135
  293DG     H13 6729   1.781   0.420   2.416 -0.3113  0.7041  0.3751
  293DG     H14 6730   1.928   0.499   2.358  1.2561 -0.5913  0.5969
  293DG     H15 6731   1.766   0.933   1.995 -0.1088  0.5098  0.6463
  293DG     H16 6732   1.883   0.919   2.107  1.6747 -1.9860  0.7841
  293DG     C17 6733   1.750   0.575   2.275 -0.0039  0.3011 -0.2359
  293DG     C18 6734   1.747   0.748   2.119 -0.6597 -0.2660  0.0317
  293DG     O19 6735   1.823   0.694   2.226  0.0828 -0.4444 -0.0499
  293DG     H20 6736   1.646   0.596   2.302 -0.3791 -2.7943  1.0890
  293DG     H21 6737   1.770   0.502   2.196 -1.2522 -1.2467  0.8172
  293DG     H22 6738   1.665   0.799   2.170  0.8268  1.0508  1.2473
  293DG     H23 6739   1.713   0.667   2.054  1.0266 -1.6285  0.7692
  294DG      C1 6740   1.445   0.192   5.214  0.0974 -0.0431  0.7055
  294DG      C2 6741   2.035   0.522   5.481  0.3575  0.3746 -0.0966
  294DG      H3 6742   1.396   0.285   5.242  0.8228  1.1396 -1.6954
  294DG      H4 6743   1.370   0.120   5.244  0.1266  0.8510  3.1346
  294DG      H5 6744   1.448   0.215   5.107 -3.0054  1.1059  0.7594
  294DG      H6 6745   2.126   0.535   5.539  0.1564  1.4784 -0.0111
  294DG      H7 6746   2.042   0.522   5.373 -1.1610  0.0914 -0.2239
  294DG      H8 6747   1.980   0.613   5.505  1.7897  1.2203  0.0854
  294DG      O9 6748   1.569   0.171   5.277 -0.4787  0.3173 -0.2115
  294DG     O10 6749   1.949   0.417   5.528  0.6325 -0.1916  0.5970
  294DG     C11 6750   1.553   0.189   5.421 -0.1674  0.9730 -0.5512
  294DG     C12 6751   2.015   0.288   5.500 -0.5689  0.1307 -0.1453
  294DG     H13 6752   1.466   0.132   5.453 -0.2910  0.9136 -1.0012
  294DG     H14 6753   1.534   0.293   5.448  1.2732  0.7256  1.6857
  294DG     H15 6754   2.090   0.287   5.579 -1.8824 -0.2956  1.1581
  294DG     H16 6755   2.044   0.286   5.395 -2.5817 -2.3337 -0.7627
  294DG     C17 6756   1.677   0.137   5.499 -0.2375 -0.1067  0.2085
  294DG     C18 6757   1.905   0.188   5.531  0.7440 -0.2777 -0.8391
  294DG     O19 6758   1.788   0.219   5.452 -0.2282  0.0479 -0.1454
  294DG     H20 6759   1.697   0.031   5.490  0.0489  0.0750 -1.6421
  294DG     H21 6760   1.656   0.160   5.604 -0.5064 -2.4064  0.7164
  294DG     H22 6761   1.932   0.086   5.505 -0.9360 -0.9006 -0.2750
  294DG     H23 6762   1.876   0.189   5.636 -1.0040 -2.7626 -1.2142
  295DG      C1 6763   5.149   2.381   5.412  0.5255  0.9405 -0.2250
  295DG      C2 6764   5.070   1.834   5.820 -0.0700 -0.0058  0.2550
  295DG      H3 6765   5.053   2.350   5.373  0.3217 -2.1010  2.2816
  295DG      H4 6766   5.220   2.339   5.340 -0.2696 -0.3542 -0.2898
  295DG      H5 6767   5.170   2.488   5.412 -0.9952  1.2632  0.9875
  295DG      H6 6768   5.120   1.754   5.766  2.1927  1.9807 -0.7386
  295DG      H7 6769   5.065   1.813   5.927  1.1992 -0.9559  0.1437
  295DG      H8 6770   4.967   1.842   5.784  0.0589  0.7218  0.0179
  295DG      O9 6771   5.173   2.327   5.541  0.0723  0.2137 -0.1609
  295DG     O10 6772   5.141   1.958   5.806 -0.6023 -0.1267 -0.1361
  295DG     C11 6773   5.310   2.327   5.567 -0.0260 -0.0923 -0.1281
  295DG     C12 6774   5.285   1.951   5.838  0.5904 -0.4487  0.2176
  295DG     H13 6775   5.336   2.432   5.560 -0.6008  0.1740  1.3376
  295DG     H14 6776   5.370   2.268   5.498  2.0680 -0.4755  1.8928
  295DG     H15 6777   5.344   1.894   5.767  1.6510 -0.5773  1.1642
  295DG     H16 6778   5.287   1.884   5.925  0.1175 -1.9735 -0.9074
  295DG     C17 6779   5.346   2.287   5.712 -0.3510 -0.1905  0.1001
  295DG     C18 6780   5.330   2.092   5.843 -0.8539  0.0568  0.6713
  295DG     O19 6781   5.319   2.151   5.713  0.2472  0.4765 -0.1916
  295DG     H20 6782   5.286   2.349   5.778 -1.0910  0.2758 -0.9667
  295DG     H21 6783   5.452   2.299   5.733  0.8527 -4.1230 -2.5110
  295DG     H22 6784   5.268   2.147   5.914 -0.6846 -1.3190  1.9226
  295DG     H23 6785   5.431   2.108   5.881 -0.7138  0.1091  0.2796
  296DG      C1 6786   1.975   3.734   0.707  0.4437 -0.1870 -0.1822
  296DG      C2 6787   1.528   3.224   0.609 -0.4347  0.6795  0.1456
  296DG      H3 6788   2.014   3.802   0.782  0.3296  1.2829 -1.4153
  296DG      H4 6789   1.891   3.781   0.656  0.3688 -0.2711 -0.1378
  296DG      H5 6790   2.054   3.705   0.638  1.0435  3.1441 -1.0409
  296DG      H6 6791   1.570   3.151   0.540 -0.0418 -1.0629  2.1538
  296DG      H7 6792   1.444   3.176   0.659  0.3532  2.2787  3.2270
  296DG      H8 6793   1.481   3.308   0.557 -1.5021  0.1869  0.3062
  296DG      O9 6794   1.921   3.617   0.774 -0.7582  0.3043  0.2027
  296DG     O10 6795   1.617   3.267   0.709 -0.1725 -0.2125  0.2593
  296DG     C11 6796   2.023   3.529   0.821  0.1357  0.2245 -0.8862
  296DG     C12 6797   1.705   3.172   0.763 -0.4215 -0.0132  0.2394
  296DG     H13 6798   2.081   3.571   0.903  1.7360 -2.6328 -0.4523
  296DG     H14 6799   2.093   3.507   0.741  0.8996  0.4639 -0.2926
  296DG     H15 6800   1.776   3.124   0.695 -1.4797  0.4150 -1.2274
  296DG     H16 6801   1.655   3.083   0.800 -1.5511  0.4346 -0.1554
  296DG     C17 6802   1.949   3.417   0.884  0.3800  0.3979 -0.5728
  296DG     C18 6803   1.787   3.248   0.865 -0.4388 -0.3399 -0.1933
  296DG     O19 6804   1.867   3.345   0.795  0.0869 -0.1391 -0.0981
  296DG     H20 6805   1.889   3.447   0.970  1.5319  1.0055  0.0515
  296DG     H21 6806   2.022   3.348   0.927  0.6872  0.9181 -0.2564
  296DG     H22 6807   1.714   3.278   0.940 -1.5895 -2.8454 -0.2164
  296DG     H23 6808   1.857   3.178   0.911  0.9420  0.7522 -0.5722
  297DG      C1 6809   2.400   2.025   4.814  0.3642 -0.6095 -0.5654
  297DG      C2 6810   3.054   1.710   4.589  0.2244 -0.5287  0.0155
  297DG      H3 6811   2.487   2.078   4.773  1.4361 -3.0131 -1.6510
  297DG      H4 6812   2.397   2.040   4.921  1.5021  2.6672 -0.8800
  297DG      H5 6813   2.311   2.068   4.768  0.5955  0.5499  0.0363
  297DG      H6 6814   3.119   1.656   4.657 -0.0786 -0.2653  0.5185
  297DG      H7 6815   3.073   1.650   4.499  3.3070 -0.6802  0.6728
  297DG      H8 6816   3.093   1.810   4.572 -5.0636  1.9996  0.7250
  297DG      O9 6817   2.404   1.886   4.781 -0.3066 -0.6028 -0.0122
  297DG     O10 6818   2.921   1.702   4.627 -0.0384  0.4887 -0.1920
  297DG     C11 6819   2.522   1.829   4.836  0.3593  0.3706  0.4049
  297DG     C12 6820   2.882   1.573   4.670 -0.2832  0.6447 -0.2296
  297DG     H13 6821   2.529   1.821   4.944 -1.0369  0.3854  0.5083
  297DG     H14 6822   2.608   1.892   4.808  2.1893 -1.9130  0.5758
  297DG     H15 6823   2.937   1.558   4.762 -0.0794  0.1995 -0.4172
  297DG     H16 6824   2.899   1.499   4.592 -0.8852 -1.0864  1.2071
  297DG     C17 6825   2.548   1.695   4.767 -0.0540 -0.4859 -0.1799
  297DG     C18 6826   2.729   1.569   4.691  0.8944 -0.2393 -0.2486
  297DG     O19 6827   2.690   1.684   4.767 -0.7740  0.0817 -0.4201
  297DG     H20 6828   2.506   1.701   4.667  0.7265  2.0439 -0.4243
  297DG     H21 6829   2.505   1.611   4.822 -0.5334  0.5567  1.0801
  297DG     H22 6830   2.674   1.584   4.598  1.6354  3.0068 -0.2594
  297DG     H23 6831   2.706   1.473   4.738 -2.4087 -0.4072 -1.9084
  298DG      C1 6832   0.622   2.648   4.719  0.2923 -0.2045  0.8663
  298DG      C2 6833   0.438   2.319   5.414 -0.0455 -0.2952 -0.2636
  298DG      H3 6834   0.680   2.640   4.627  0.7907  2.3998  0.8754
  298DG      H4 6835   0.674   2.723   4.780 -0.2240  0.4440  0.5264
  298DG      H5 6836   0.526   2.694   4.696 -0.1517 -1.4096  0.2602
  298DG      H6 6837   0.399   2.418   5.392  0.9905  0.1099 -0.3373
  298DG      H7 6838   0.355   2.249   5.417  1.0120 -1.6588  3.7185
  298DG      H8 6839   0.481   2.330   5.514 -1.6577 -2.6834  0.7812
  298DG      O9 6840   0.608   2.516   4.779  0.8744 -0.2525  0.1478
  298DG     O10 6841   0.528   2.287   5.312  0.1573 -0.5364 -0.2389
  298DG     C11 6842   0.738   2.480   4.829 -0.6569  0.1731  0.9124
  298DG     C12 6843   0.476   2.293   5.174 -0.2683 -0.3262 -0.2226
  298DG     H13 6844   0.766   2.562   4.897 -0.8044  1.9722 -1.0944
  298DG     H14 6845   0.809   2.469   4.747 -1.1650 -1.2804  0.6511
  298DG     H15 6846   0.452   2.393   5.139  1.1649  0.1189  0.0108
  298DG     H16 6847   0.389   2.227   5.163  0.1229 -0.8935  0.0143
  298DG     C17 6848   0.726   2.350   4.898  0.3829  0.5182  0.0288
  298DG     C18 6849   0.574   2.256   5.068 -0.2539 -0.5321 -0.0434
  298DG     O19 6850   0.662   2.365   5.025  0.2107  0.7249  0.2050
  298DG     H20 6851   0.824   2.304   4.905 -0.2889 -1.0655 -0.4723
  298DG     H21 6852   0.678   2.278   4.832  2.0589 -0.8154  0.2002
  298DG     H22 6853   0.638   2.170   5.090 -0.9898 -1.0506  0.0773
  298DG     H23 6854   0.520   2.225   4.978  0.2935  0.5582 -0.7727
  299DG      C1 6855   1.385   2.628   0.126 -0.3840 -0.3170  0.0211
  299DG      C2 6856   1.850   2.893  -0.331  0.3080 -0.4417  0.3151
  299DG      H3 6857   1.475   2.685   0.153 -0.1974 -1.0265  0.9410
  299DG      H4 6858   1.377   2.540   0.189  2.2597 -1.6749 -1.3408
  299DG      H5 6859   1.305   2.699   0.145  0.5406  0.7044  0.2382
  299DG      H6 6860   1.756   2.932  -0.370  0.9975  1.4536  0.4542
  299DG      H7 6861   1.914   2.972  -0.292 -1.2654  1.6219 -1.0459
  299DG      H8 6862   1.896   2.859  -0.424 -3.6896 -0.6440 -1.7806
  299DG      O9 6863   1.384   2.596  -0.005 -0.2392 -0.1181 -0.4339
  299DG     O10 6864   1.821   2.789  -0.234 -0.6522  0.3904 -0.2192
  299DG     C11 6865   1.467   2.484  -0.040 -0.2135  0.4480 -0.3427
  299DG     C12 6866   1.756   2.837  -0.115 -0.2762  0.6955 -0.0061
  299DG     H13 6867   1.440   2.479  -0.146  0.4145  2.4251 -0.6374
  299DG     H14 6868   1.449   2.392   0.016  1.6978  0.4105  0.2801
  299DG     H15 6869   1.661   2.884  -0.138  0.8897  2.8815 -0.6543
  299DG     H16 6870   1.826   2.894  -0.053 -0.5741  2.6958 -1.4269
  299DG     C17 6871   1.618   2.516  -0.024 -0.0359 -0.2426 -0.1190
  299DG     C18 6872   1.723   2.718  -0.026  0.3526  0.2994  0.5435
  299DG     O19 6873   1.634   2.633  -0.097 -0.3314 -0.4878 -0.6074
  299DG     H20 6874   1.668   2.435  -0.075 -2.0722 -1.1883 -0.7112
  299DG     H21 6875   1.645   2.515   0.082 -0.2475 -0.2569 -0.0642
  299DG     H22 6876   1.810   2.661   0.007 -0.8593 -1.5959  0.5807
  299DG     H23 6877   1.681   2.769   0.060  0.3067  1.1316  0.0430
  300DG      C1 6878   3.993   0.910   3.174  0.3166 -0.4021 -0.1440
  300DG      C2 6879   3.929   0.207   3.479  0.2823 -0.0188 -0.2744
  300DG      H3 6880   4.049   0.985   3.119  0.1205  0.3027  0.5983
  300DG      H4 6881   4.046   0.891   3.268  0.0327  2.6021  0.7064
  300DG      H5 6882   3.892   0.943   3.199  0.4803  0.4571 -0.5999
  300DG      H6 6883   3.825   0.226   3.505  0.9292 -1.2840  3.8759
  300DG      H7 6884   3.945   0.100   3.472  0.6323  0.0195 -0.0687
  300DG      H8 6885   3.989   0.238   3.564 -1.0613  1.9378  0.0282
  300DG      O9 6886   3.982   0.788   3.097  0.1393  0.0229 -0.6024
  300DG     O10 6887   3.961   0.282   3.362  0.0177 -0.1215  0.2780
  300DG     C11 6888   3.928   0.676   3.168 -0.0847  0.4925  1.1682
  300DG     C12 6889   3.888   0.223   3.263  0.3957 -0.0347 -0.4816
  300DG     H13 6890   3.820   0.679   3.154 -0.0306  0.1917  0.6750
  300DG     H14 6891   3.925   0.677   3.277 -1.6271  1.8130  1.1564
  300DG     H15 6892   3.780   0.220   3.276  0.2163  2.9653 -0.5365
  300DG     H16 6893   3.914   0.119   3.243 -1.5058 -0.5955 -0.2383
  300DG     C17 6894   3.966   0.537   3.114 -0.4312 -0.2998  0.3308
  300DG     C18 6895   3.905   0.315   3.140  0.2796  0.3436 -0.2549
  300DG     O19 6896   3.888   0.450   3.187 -0.2660 -0.1378 -0.1495
  300DG     H20 6897   4.070   0.529   3.145 -0.6379 -2.7744  0.5884
  300DG     H21 6898   3.951   0.542   3.006  2.3035 -0.3791 -0.1296
  300DG     H22 6899   3.994   0.290   3.082 -0.1959  0.4347 -1.0486
  300DG     H23 6900   3.823   0.301   3.070  0.0397 -0.3377  0.1523
  301DG      C1 6901   2.957   0.415   1.579 -0.0076 -0.3096  0.0391
  301DG      C2 6902   2.413  -0.014   1.168  0.1138 -0.3567 -0.4421
  301DG      H3 6903   3.059   0.389   1.550  1.1566  0.6975  2.8873
  301DG      H4 6904   2.939   0.393   1.684  0.1277  1.6478  0.4961
  301DG      H5 6905   2.942   0.520   1.558  2.2221 -0.0065 -0.2746
  301DG      H6 6906   2.419  -0.106   1.111 -0.1660  0.6374 -2.1675
  301DG      H7 6907   2.307  -0.003   1.190  0.0111  1.7454 -1.6791
  301DG      H8 6908   2.445   0.067   1.102  0.5011  0.2013  0.4055
  301DG      O9 6909   2.873   0.338   1.496  0.3784  0.1540  0.0311
  301DG     O10 6910   2.488  -0.013   1.290  0.4340  0.2697 -0.5886
  301DG     C11 6911   2.737   0.389   1.505 -0.1026 -0.2969 -1.1525
  301DG     C12 6912   2.445   0.090   1.377 -0.1590  0.2170  0.5709
  301DG     H13 6913   2.738   0.497   1.488  1.7103  0.0969  0.9726
  301DG     H14 6914   2.721   0.382   1.612  0.7851  0.9972 -0.9111
  301DG     H15 6915   2.345   0.062   1.411 -0.1361  1.0337  1.3447
  301DG     H16 6916   2.448   0.180   1.316 -1.6484 -0.3248 -0.3616
  301DG     C17 6917   2.638   0.305   1.424  0.3413 -0.4440  0.1367
  301DG     C18 6918   2.548   0.091   1.492 -0.4730 -0.6284 -0.4573
  301DG     O19 6919   2.664   0.172   1.469 -0.0953 -0.4545 -0.0022
  301DG     H20 6920   2.647   0.323   1.317  0.2867 -0.3497  0.1477
  301DG     H21 6921   2.538   0.343   1.445  0.8347  0.6985  0.4994
  301DG     H22 6922   2.504   0.133   1.583  1.1654 -1.6074  0.8475
  301DG     H23 6923   2.579  -0.010   1.517 -0.1782 -0.4522 -0.0965
  302DG      C1 6924   1.963   0.724   5.037  0.2667 -0.8020  0.2305
  302DG      C2 6925   1.468   0.251   4.764  0.4002  0.1103  0.0290
  302DG      H3 6926   2.029   0.685   5.114  0.1392  1.2501  1.4693
  302DG      H4 6927   1.979   0.832   5.036  0.3535 -0.7853  1.5325
  302DG      H5 6928   1.999   0.685   4.942  1.0783 -1.5404  0.8317
  302DG      H6 6929   1.489   0.144   4.773 -0.2980 -0.1280 -0.9882
  302DG      H7 6930   1.360   0.245   4.748  0.5933  0.5577 -1.6542
  302DG      H8 6931   1.508   0.301   4.676  0.5043 -0.0207  0.0004
  302DG      O9 6932   1.821   0.706   5.061 -0.7505 -0.1642  0.2122
  302DG     O10 6933   1.483   0.335   4.876  0.4697 -0.3424 -0.0042
  302DG     C11 6934   1.795   0.591   5.149 -0.2239  0.4462  0.0383
  302DG     C12 6935   1.433   0.466   4.876 -0.2164  0.5990  0.7733
  302DG     H13 6936   1.827   0.618   5.250  0.1132  0.8836 -0.1827
  302DG     H14 6937   1.847   0.508   5.101 -2.5421 -0.1243 -1.6462
  302DG     H15 6938   1.324   0.474   4.867 -0.1728 -0.4642 -1.4708
  302DG     H16 6939   1.479   0.526   4.797  0.0174 -0.7843 -0.1753
  302DG     C17 6940   1.650   0.546   5.150 -0.4617 -0.0832 -0.0261
  302DG     C18 6941   1.458   0.523   5.015  0.4907  0.3276  0.1663
  302DG     O19 6942   1.598   0.548   5.018  0.2546 -0.3904 -0.4696
  302DG     H20 6943   1.597   0.626   5.201 -0.8314 -1.4472  1.8189
  302DG     H21 6944   1.647   0.454   5.208  0.8660  0.7807  1.5037
  302DG     H22 6945   1.401   0.616   5.027 -0.8898 -0.6968  2.3232
  302DG     H23 6946   1.428   0.444   5.084 -0.7108 -1.0370 -1.8133
  303DG      C1 6947   0.486   1.003   4.370  0.7682 -0.1009  0.4685
  303DG      C2 6948   0.661   0.683   3.760 -0.0298 -0.3996 -0.0034
  303DG      H3 6949   0.532   0.904   4.377  1.9555  0.4431  0.6397
  303DG      H4 6950   0.380   0.978   4.371  0.6664  0.2375 -0.8673
  303DG      H5 6951   0.503   1.067   4.457 -3.0274 -1.0526  2.1359
  303DG      H6 6952   0.658   0.757   3.680  0.6762  2.1192  2.1502
  303DG      H7 6953   0.716   0.599   3.717 -1.3649 -2.3371  1.8583
  303DG      H8 6954   0.557   0.651   3.771  0.3908 -1.3419  1.6492
  303DG      O9 6955   0.507   1.078   4.248 -0.2607  0.3879 -0.6087
  303DG     O10 6956   0.718   0.747   3.870  0.1947  0.3161  0.0163
  303DG     C11 6957   0.648   1.094   4.216  0.4041 -0.0592  0.2665
  303DG     C12 6958   0.708   0.666   3.994 -0.5565 -0.7587 -0.1310
  303DG     H13 6959   0.691   1.150   4.299  0.8675 -0.4205  0.2758
  303DG     H14 6960   0.664   1.153   4.126 -2.1128 -0.3934 -0.4694
  303DG     H15 6961   0.765   0.575   3.981 -0.1498 -0.7587  1.4345
  303DG     H16 6962   0.601   0.642   3.990 -1.4461  2.6055  0.1737
  303DG     C17 6963   0.732   0.968   4.209  0.0280 -0.0526  0.3195
  303DG     C18 6964   0.749   0.748   4.116  0.0875 -1.0040 -0.1207
  303DG     O19 6965   0.690   0.878   4.109 -0.0558 -0.4281 -0.3619
  303DG     H20 6966   0.750   0.914   4.302 -2.6492 -1.9871 -0.1656
  303DG     H21 6967   0.830   0.999   4.174  0.2639 -0.2254  0.8213
  303DG     H22 6968   0.724   0.687   4.203 -0.3010  0.3442  0.7472
  303DG     H23 6969   0.857   0.763   4.107 -0.0951  0.1395 -0.5634
  304DG      C1 6970   5.437   1.739   3.906 -0.0075 -0.2455  0.5717
  304DG      C2 6971   5.818   1.726   3.159 -0.2676 -0.3377  0.2523
  304DG      H3 6972   5.449   1.631   3.910  0.8473 -0.1725  0.1941
  304DG      H4 6973   5.337   1.751   3.947 -1.3989 -2.9080 -1.6666
  304DG      H5 6974   5.512   1.786   3.969  1.0612  0.2457 -0.9956
  304DG      H6 6975   5.889   1.643   3.156 -0.5417 -0.5721  0.2146
  304DG      H7 6976   5.781   1.723   3.056  1.7052 -2.4040 -0.4967
  304DG      H8 6977   5.883   1.813   3.173  0.9773 -1.2522  0.3592
  304DG      O9 6978   5.450   1.795   3.779  0.9703  0.9083  0.0634
  304DG     O10 6979   5.721   1.702   3.262  0.3387 -0.1057 -0.1324
  304DG     C11 6980   5.582   1.790   3.730 -0.9936 -0.0786  0.5457
  304DG     C12 6981   5.640   1.818   3.277  0.3721 -0.4526 -0.3485
  304DG     H13 6982   5.633   1.695   3.742  1.3383  1.1626  1.0448
  304DG     H14 6983   5.635   1.857   3.798 -1.2993 -1.9910  2.7650
  304DG     H15 6984   5.616   1.857   3.179  0.7407  1.5066  0.3045
  304DG     H16 6985   5.701   1.889   3.333 -1.2693 -0.5226  1.6607
  304DG     C17 6986   5.585   1.844   3.579 -0.4090 -0.0007 -0.6577
  304DG     C18 6987   5.510   1.784   3.353  0.4965 -0.3920 -0.3872
  304DG     O19 6988   5.534   1.745   3.490  0.2787  0.0287  0.5734
  304DG     H20 6989   5.679   1.881   3.539 -0.7008  0.3670 -1.0051
  304DG     H21 6990   5.512   1.925   3.574 -0.6155  0.3245  3.5573
  304DG     H22 6991   5.446   1.871   3.342 -0.2501 -0.9294 -0.4079
  304DG     H23 6992   5.462   1.698   3.306  1.3399 -0.5904 -0.9054
  305DG      C1 6993   5.451   3.627   4.801 -0.0290 -0.3619 -0.1066
  305DG      C2 6994   5.577   4.295   4.406  0.7485 -0.9078  0.2856
  305DG      H3 6995   5.513   3.623   4.890 -0.0740 -2.1703 -0.1234
  305DG      H4 6996   5.507   3.591   4.714 -0.5132  0.3249 -0.7169
  305DG      H5 6997   5.372   3.555   4.822  0.8928 -0.4662  3.5408
  305DG      H6 6998   5.685   4.287   4.391  1.1518  0.1487  2.2120
  305DG      H7 6999   5.535   4.353   4.324 -2.0765  0.5745  2.5899
  305DG      H8 7000   5.572   4.349   4.501  0.6682 -3.2033  1.6907
  305DG      O9 7001   5.396   3.754   4.770 -0.4567  0.4197 -0.3668
  305DG     O10 7002   5.516   4.173   4.426  0.4267  0.1121 -0.1051
  305DG     C11 7003   5.481   3.867   4.752  0.3629  0.4711  0.2534
  305DG     C12 7004   5.380   4.193   4.466 -0.0160 -0.4701 -0.1529
  305DG     H13 7005   5.558   3.839   4.680 -0.4518 -0.3225 -0.3179
  305DG     H14 7006   5.528   3.897   4.846  0.8269 -1.5122  0.7024
  305DG     H15 7007   5.319   4.263   4.409  1.0601  0.3499 -0.3395
  305DG     H16 7008   5.374   4.236   4.567 -0.8535  0.2196 -0.4803
  305DG     C17 7009   5.408   3.984   4.688  0.1195  0.0729 -0.4389
  305DG     C18 7010   5.312   4.056   4.483  0.2676 -0.1984  0.1613
  305DG     O19 7011   5.398   3.965   4.544  0.2233 -0.7089 -0.9187
  305DG     H20 7012   5.462   4.076   4.712 -0.8407  0.7025 -0.6402
  305DG     H21 7013   5.308   3.987   4.731 -0.6177 -0.4420 -2.0458
  305DG     H22 7014   5.216   4.071   4.533  0.8459 -1.4099  1.7056
  305DG     H23 7015   5.286   4.006   4.390  1.0480  1.5387 -1.0607
  306DG      C1 7016   0.965   4.315   1.804 -0.1781  0.0258  0.2545
  306DG      C2 7017   1.341   3.949   2.168 -0.3514 -0.0178 -0.3610
  306DG      H3 7018   0.956   4.225   1.742  0.2476  1.1474 -1.4985
  306DG      H4 7019   0.989   4.384   1.723  1.7163 -1.2741 -0.3663
  306DG      H5 7020   0.868   4.338   1.849 -0.4922  0.4501 -0.6152
  306DG      H6 7021   1.415   3.914   2.240 -2.0568  0.2479  1.6169
  306DG      H7 7022   1.244   3.909   2.196  0.1845 -0.3357  1.1411
  306DG      H8 7023   1.364   3.910   2.069 -1.5520  1.2419 -1.1622
  306DG      O9 7024   1.059   4.313   1.909 -0.0955 -0.2568 -0.1649
  306DG     O10 7025   1.324   4.087   2.167  0.1143 -0.3090 -0.9633
  306DG     C11 7026   1.041   4.425   1.998 -0.0127 -0.3185  0.6034
  306DG     C12 7027   1.282   4.143   2.295  0.0332 -0.6173  0.6158
  306DG     H13 7028   0.948   4.437   2.054  1.2403  0.3082  2.6605
  306DG     H14 7029   1.044   4.511   1.931  2.1872 -0.0083  1.0136
  306DG     H15 7030   1.350   4.153   2.380 -1.1627 -0.0209  1.5268
  306DG     H16 7031   1.198   4.088   2.337 -1.1321 -1.8070 -2.9706
  306DG     C17 7032   1.160   4.426   2.096 -0.2907 -0.4280  0.4751
  306DG     C18 7033   1.249   4.292   2.272 -0.6957  0.4049  0.3674
  306DG     O19 7034   1.168   4.300   2.156 -0.1938  0.0648  0.6201
  306DG     H20 7035   1.150   4.501   2.175  1.3694 -1.4337  1.6827
  306DG     H21 7036   1.254   4.442   2.043 -0.2368  0.2582  0.7634
  306DG     H22 7037   1.190   4.320   2.360 -3.1931 -2.9087 -0.0187
  306DG     H23 7038   1.342   4.347   2.268 -0.3286 -0.2391 -0.0783
  307DG      C1 7039   5.000   5.332   0.671  0.0977 -0.4012 -0.2834
  307DG      C2 7040   4.732   4.583   0.525  0.3210 -0.0755  0.0008
  307DG      H3 7041   4.922   5.405   0.693 -1.0227 -0.7476 -2.7495
  307DG      H4 7042   5.031   5.333   0.566  1.1819  2.9353 -0.0562
  307DG      H5 7043   5.095   5.349   0.721  0.5782 -1.9219 -0.6398
  307DG      H6 7044   4.791   4.560   0.436  1.4907 -0.4516  0.8528
  307DG      H7 7045   4.736   4.490   0.582 -0.2571  0.1703  0.4410
  307DG      H8 7046   4.632   4.606   0.489 -0.4949  1.1187  2.8007
  307DG      O9 7047   4.953   5.203   0.712 -0.3928 -0.1189  0.3961
  307DG     O10 7048   4.791   4.694   0.598  0.3230  0.0941  0.2081
  307DG     C11 7049   5.044   5.089   0.694  0.2562 -1.1673  0.2401
  307DG     C12 7050   4.717   4.731   0.716 -0.1999 -0.3230 -0.3339
  307DG     H13 7051   5.143   5.119   0.729  0.0632  0.0659 -0.2449
  307DG     H14 7052   5.041   5.061   0.589  1.1975 -1.3356  0.2496
  307DG     H15 7053   4.688   4.638   0.765 -0.9465 -0.2518 -0.6141
  307DG     H16 7054   4.620   4.775   0.693  0.4875  0.4608 -1.8519
  307DG     C17 7055   4.985   4.966   0.765 -0.2712  0.2776  0.2820
  307DG     C18 7056   4.808   4.811   0.805  0.4126 -0.1672  0.4665
  307DG     O19 7057   4.850   4.925   0.728 -0.0844  0.3599  0.1774
  307DG     H20 7058   4.990   4.978   0.873  0.1739 -1.2859  0.4690
  307DG     H21 7059   5.050   4.884   0.732  0.6370  0.4708  1.5287
  307DG     H22 7060   4.757   4.847   0.895  1.4788  1.3376  0.5105
  307DG     H23 7061   4.889   4.742   0.831  0.2088 -0.6971 -0.2723
  308DG      C1 7062   4.763   5.355   1.767 -0.2080 -0.8896 -0.4535
  308DG      C2 7063   4.756   5.839   2.397 -0.2119  0.2836 -0.7522
  308DG      H3 7064   4.869   5.374   1.747 -0.1178 -1.2188 -0.2993
  308DG      H4 7065   4.707   5.435   1.719  2.1488  1.1662  0.0455
  308DG      H5 7066   4.746   5.262   1.712  0.4915 -1.1748 -0.1976
  308DG      H6 7067   4.733   5.826   2.502 -1.6056  2.6681 -0.6851
  308DG      H7 7068   4.864   5.855   2.399  0.4702 -3.2632  3.2616
  308DG      H8 7069   4.701   5.923   2.354 -2.0561 -0.1524  0.6606
  308DG      O9 7070   4.746   5.353   1.914  0.4910  0.4170  0.1325
  308DG     O10 7071   4.737   5.711   2.334  0.0564 -0.0625  0.8075
  308DG     C11 7072   4.835   5.448   1.973  0.0013 -0.2620 -0.1614
  308DG     C12 7073   4.605   5.667   2.335  0.5535 -0.1874  0.1091
  308DG     H13 7074   4.836   5.545   1.924  1.6420 -0.2237 -0.0840
  308DG     H14 7075   4.938   5.413   1.977  0.2985  0.5899 -0.3628
  308DG     H15 7076   4.541   5.727   2.270 -2.3451 -1.3243  1.7412
  308DG     H16 7077   4.557   5.672   2.433  0.0191 -2.0226 -0.0141
  308DG     C17 7078   4.796   5.481   2.123 -0.0109 -0.0744  0.7733
  308DG     C18 7079   4.607   5.522   2.269  0.1149  0.5265  0.3892
  308DG     O19 7080   4.654   5.505   2.136  0.0791  0.1570 -0.3216
  308DG     H20 7081   4.858   5.568   2.145  2.6179 -1.3732 -1.0778
  308DG     H21 7082   4.818   5.407   2.200 -1.4595 -1.5936 -0.2027
  308DG     H22 7083   4.652   5.440   2.326 -2.3243 -1.1525  0.0689
  308DG     H23 7084   4.503   5.491   2.258  0.7347 -2.3108  1.5386
  309DG      C1 7085   4.809   1.004   2.944 -0.1437  0.1885 -0.1066
  309DG      C2 7086   4.599   1.635   2.822 -0.2425 -0.4977  0.1040
  309DG      H3 7087   4.705   0.974   2.928 -0.4653  0.8374  0.7270
  309DG      H4 7088   4.853   0.948   3.026  0.5671  0.6348 -0.1798
  309DG      H5 7089   4.868   0.978   2.856 -0.5712 -1.1330 -0.0244
  309DG      H6 7090   4.602   1.742   2.803 -2.0686 -0.1390  1.5875
  309DG      H7 7091   4.598   1.583   2.726  0.8484 -2.3317  1.0273
  309DG      H8 7092   4.498   1.635   2.863  0.0682  1.5658  0.9661
  309DG      O9 7093   4.838   1.139   2.969  0.6249 -0.1393 -0.1094
  309DG     O10 7094   4.693   1.567   2.902 -1.3490 -0.4793  0.0467
  309DG     C11 7095   4.972   1.171   2.970  0.1336 -0.7538  0.0611
  309DG     C12 7096   4.833   1.595   2.870 -0.7321  0.5785 -0.5077
  309DG     H13 7097   5.003   1.166   2.866 -0.4681 -1.5264 -0.0865
  309DG     H14 7098   5.036   1.097   3.018  1.6556  1.0430  0.9293
  309DG     H15 7099   4.841   1.703   2.883 -1.4037  0.5445  0.2408
  309DG     H16 7100   4.868   1.567   2.770 -0.7704  0.5359 -0.5094
  309DG     C17 7101   4.999   1.314   3.027  0.0532  0.2375  0.9294
  309DG     C18 7102   4.925   1.536   2.982  0.4550  0.1778  0.2601
  309DG     O19 7103   4.916   1.397   2.947 -0.6826  0.7652  0.0627
  309DG     H20 7104   5.105   1.337   3.021  0.0762 -0.0396  0.1412
  309DG     H21 7105   4.966   1.317   3.131  0.1049 -1.7199  1.0447
  309DG     H22 7106   5.024   1.581   2.979  1.0837 -1.1497  0.1470
  309DG     H23 7107   4.890   1.547   3.084 -2.3060 -2.2636 -0.2890
  310DG      C1 7108   3.811   1.305   4.511  1.3607 -0.1636 -0.1629
  310DG      C2 7109   3.473   0.592   4.093  0.1487  0.1333 -0.5897
  310DG      H3 7110   3.773   1.273   4.608  2.0594 -0.9441 -0.1355
  310DG      H4 7111   3.747   1.390   4.488 -0.9192 -1.2531  1.7494
  310DG      H5 7112   3.919   1.321   4.514  1.2723  0.6532 -1.1398
  310DG      H6 7113   3.367   0.578   4.113  0.1923  0.0702 -0.4081
  310DG      H7 7114   3.479   0.640   3.995  1.0222 -0.2392 -0.7281
  310DG      H8 7115   3.512   0.491   4.092 -1.9994 -0.7529 -0.3005
  310DG      O9 7116   3.796   1.201   4.418 -0.0101  0.1007  0.2882
  310DG     O10 7117   3.555   0.655   4.188  0.6619 -0.0346  0.5744
  310DG     C11 7118   3.654   1.188   4.371 -0.3312 -0.3853 -0.3791
  310DG     C12 7119   3.552   0.796   4.192 -1.1943 -0.1530 -0.2546
  310DG     H13 7120   3.628   1.227   4.273 -1.0311  0.7288  0.2232
  310DG     H14 7121   3.594   1.230   4.452 -0.5139 -1.0340 -0.1720
  310DG     H15 7122   3.459   0.836   4.232 -1.3275 -0.9193  0.2064
  310DG     H16 7123   3.566   0.834   4.090 -1.7599 -0.8635 -0.5975
  310DG     C17 7124   3.623   1.032   4.380 -0.6209  0.1735  0.3621
  310DG     C18 7125   3.678   0.830   4.272  0.3342  0.2025  0.0589
  310DG     O19 7126   3.689   0.967   4.265  0.5091 -0.2316 -0.2930
  310DG     H20 7127   3.518   1.007   4.368 -0.2751 -0.0615 -3.0860
  310DG     H21 7128   3.658   0.983   4.471  0.7443 -1.3380 -0.9012
  310DG     H22 7129   3.668   0.788   4.372 -0.9626 -0.1259 -0.1944
  310DG     H23 7130   3.773   0.787   4.242  0.9634  1.7394 -0.2138
  311DG      C1 7131   2.269   4.504   4.472  0.1628 -0.4755  0.0631
  311DG      C2 7132   1.615   4.635   4.794  0.8228  0.2004  0.0733
  311DG      H3 7133   2.302   4.582   4.404  2.1304 -0.8221  0.5470
  311DG      H4 7134   2.271   4.410   4.416 -0.6737  0.0958 -0.9542
  311DG      H5 7135   2.339   4.493   4.555 -1.9209 -2.3289  1.7029
  311DG      H6 7136   1.644   4.633   4.900 -1.3023 -0.6532  0.6903
  311DG      H7 7137   1.511   4.667   4.792 -0.1261 -2.6156  0.3097
  311DG      H8 7138   1.610   4.532   4.760 -2.3080 -0.0204  0.8641
  311DG      O9 7139   2.130   4.530   4.504 -0.2787 -0.3438  0.7488
  311DG     O10 7140   1.699   4.708   4.706  0.7229  0.8077 -0.2101
  311DG     C11 7141   2.122   4.649   4.579  0.0621 -0.6818  0.2088
  311DG     C12 7142   1.751   4.820   4.765 -0.0665 -0.0076  0.5594
  311DG     H13 7143   2.150   4.740   4.527  0.0342  1.4934  3.6985
  311DG     H14 7144   2.182   4.642   4.670  1.2036  0.4791 -0.4154
  311DG     H15 7145   1.813   4.808   4.854 -0.2320  1.7882  0.9613
  311DG     H16 7146   1.677   4.895   4.793 -0.5660 -0.0552 -0.5866
  311DG     C17 7147   1.979   4.678   4.611  0.1434 -0.1829 -0.7687
  311DG     C18 7148   1.846   4.883   4.666  0.1807  0.0131  0.5759
  311DG     O19 7149   1.969   4.806   4.669  0.0451 -0.4005 -0.1934
  311DG     H20 7150   1.923   4.611   4.676 -0.0513 -0.0064 -0.7559
  311DG     H21 7151   1.913   4.670   4.525 -2.6728  0.8434  1.1779
  311DG     H22 7152   1.807   4.880   4.565  1.8729 -1.3899 -0.0789
  311DG     H23 7153   1.861   4.988   4.691  1.6110  0.1858 -0.8655
  312DG      C1 7154   3.123   1.619   1.244 -0.0901  0.0398  0.5120
  312DG      C2 7155   3.248   1.639   1.911  0.4412 -0.4204 -0.1343
  312DG      H3 7156   3.102   1.673   1.152  0.1948 -3.4717 -1.7930
  312DG      H4 7157   3.079   1.519   1.242  0.0688 -0.1252 -3.6861
  312DG      H5 7158   3.228   1.591   1.246 -0.6108 -2.0505  1.6453
  312DG      H6 7159   3.337   1.582   1.885  1.3477  1.3894 -1.2068
  312DG      H7 7160   3.270   1.705   1.995  0.7769 -1.3525  0.5380
  312DG      H8 7161   3.167   1.571   1.941 -2.3149  2.5381 -0.3337
  312DG      O9 7162   3.081   1.706   1.351  0.2297 -0.4897  0.1111
  312DG     O10 7163   3.215   1.715   1.795 -0.2482 -0.0368  0.0649
  312DG     C11 7164   3.132   1.837   1.348  0.4396  0.0766  0.1582
  312DG     C12 7165   3.327   1.791   1.751 -0.8063 -0.0222  0.3085
  312DG     H13 7166   3.077   1.887   1.428 -0.6916 -2.1285  0.8338
  312DG     H14 7167   3.108   1.888   1.254 -0.2881  1.5961  1.1201
  312DG     H15 7168   3.406   1.717   1.741 -2.2565 -2.0062  2.4688
  312DG     H16 7169   3.342   1.867   1.827 -1.3093  0.9365 -0.5259
  312DG     C17 7170   3.283   1.833   1.376 -0.2464  0.0142  0.5896
  312DG     C18 7171   3.313   1.859   1.613  0.9107 -0.4969  0.0061
  312DG     O19 7172   3.321   1.774   1.500  0.1631  0.3223 -0.5937
  312DG     H20 7173   3.322   1.935   1.377 -0.3719  0.0673  0.0935
  312DG     H21 7174   3.331   1.784   1.292 -2.5006  0.7253 -1.2283
  312DG     H22 7175   3.215   1.906   1.609  0.9102 -0.5218 -0.3044
  312DG     H23 7176   3.384   1.941   1.603 -2.2181  2.1477 -2.9781
  313DG      C1 7177   5.147   1.530   3.323  0.4335 -0.7314  0.1684
  313DG      C2 7178   4.976   1.619   4.082  0.2877  0.1427  0.3637
  313DG      H3 7179   5.044   1.497   3.311 -0.8493  2.2489  1.8220
  313DG      H4 7180   5.213   1.465   3.266  0.7442  0.4441 -0.8640
  313DG      H5 7181   5.149   1.634   3.290  0.7595 -1.4549 -2.2360
  313DG      H6 7182   5.012   1.714   4.122  0.5179  0.6577 -1.0169
  313DG      H7 7183   4.887   1.639   4.022 -0.1441 -0.7627  0.6823
  313DG      H8 7184   4.942   1.551   4.160 -1.8434  0.2475 -0.4139
  313DG      O9 7185   5.183   1.512   3.460  1.0807 -0.0658 -0.5333
  313DG     O10 7186   5.081   1.556   4.012  0.6072  0.2677  0.1009
  313DG     C11 7187   5.110   1.586   3.559  0.2903  0.3108 -0.0118
  313DG     C12 7188   5.044   1.430   3.955  0.4608 -0.1437 -0.1030
  313DG     H13 7189   5.002   1.572   3.545  0.5449 -3.6654  0.9415
  313DG     H14 7190   5.118   1.694   3.542  1.4477  0.0703 -1.1507
  313DG     H15 7191   4.947   1.443   3.906 -0.8745  0.9440  2.6042
  313DG     H16 7192   5.027   1.360   4.037 -2.8888  0.1602 -0.3736
  313DG     C17 7193   5.153   1.559   3.706 -0.2987 -0.0762  0.2600
  313DG     C18 7194   5.155   1.379   3.863  0.3839  0.3478  0.2772
  313DG     O19 7195   5.145   1.419   3.728 -0.2261 -0.5102  0.4929
  313DG     H20 7196   5.078   1.615   3.761 -0.7763  1.9317 -2.2099
  313DG     H21 7197   5.258   1.585   3.722 -0.0840 -1.2557  0.8591
  313DG     H22 7198   5.248   1.400   3.914  0.4002 -1.5967  1.1415
  313DG     H23 7199   5.152   1.270   3.869  1.2833  0.3970  3.0057
  314DG      C1 7200   5.156   0.229   4.506 -0.0274  0.4538 -0.6352
  314DG      C2 7201   5.857   0.617   4.257 -0.0687 -0.3539  0.0696
  314DG      H3 7202   5.096   0.300   4.449 -0.1325  0.0456 -1.0382
  314DG      H4 7203   5.126   0.232   4.611  1.1193  0.4792 -0.2987
  314DG      H5 7204   5.123   0.133   4.466 -0.3726 -0.1060  0.9261
  314DG      H6 7205   5.815   0.608   4.157 -0.5113  2.4673 -0.0787
  314DG      H7 7206   5.793   0.688   4.310  0.9205  0.0277  0.7715
  314DG      H8 7207   5.957   0.658   4.250  0.0843 -0.6139  0.6312
  314DG      O9 7208   5.295   0.257   4.493 -0.4890 -0.4006 -0.0523
  314DG     O10 7209   5.855   0.493   4.312 -0.0248 -0.4122 -0.2789
  314DG     C11 7210   5.383   0.148   4.510 -0.2199 -0.0157  0.0602
  314DG     C12 7211   5.731   0.427   4.299 -0.2333  0.0856  0.2121
  314DG     H13 7212   5.374   0.076   4.429  1.3141  0.0882 -0.2490
  314DG     H14 7213   5.353   0.099   4.603 -1.0798 -0.0374 -0.2215
  314DG     H15 7214   5.743   0.376   4.204  0.0565 -0.0747  0.3285
  314DG     H16 7215   5.645   0.494   4.304  0.8012  1.3912  3.5989
  314DG     C17 7216   5.524   0.204   4.521  0.1547  0.4145  0.1102
  314DG     C18 7217   5.707   0.318   4.412  0.4567 -0.2074 -0.3178
  314DG     O19 7218   5.568   0.278   4.408 -0.2325 -0.0206 -0.1205
  314DG     H20 7219   5.589   0.117   4.530  1.3994  0.9118 -2.9605
  314DG     H21 7220   5.534   0.263   4.612  0.4075 -0.3171  0.5702
  314DG     H22 7221   5.777   0.234   4.410  0.4643 -0.2128  0.1117
  314DG     H23 7222   5.722   0.372   4.506  0.4542 -2.5004  1.0868
  315DG      C1 7223   2.042   0.192   0.590 -0.2170 -0.3169  0.2655
  315DG      C2 7224   1.659  -0.271   0.119 -0.3516 -0.1441  0.4780
  315DG      H3 7225   2.050   0.299   0.571  0.3296 -0.3354  0.3808
  315DG      H4 7226   2.090   0.173   0.686 -0.9945 -0.6903  0.5864
  315DG      H5 7227   1.935   0.172   0.589  0.0225 -1.7329  0.4217
  315DG      H6 7228   1.588  -0.204   0.071 -2.0115 -1.1992  1.3755
  315DG      H7 7229   1.688  -0.342   0.041 -0.5103  1.0074 -0.6654
  315DG      H8 7230   1.620  -0.318   0.209 -1.4564  0.2849  0.2474
  315DG      O9 7231   2.093   0.111   0.491  0.1778  0.5901 -0.2462
  315DG     O10 7232   1.769  -0.193   0.156 -0.3416 -0.4853  0.7469
  315DG     C11 7233   2.068   0.141   0.357 -0.3383 -0.4503  0.0654
  315DG     C12 7234   1.875  -0.272   0.206  0.3430 -0.1990  0.1172
  315DG     H13 7235   2.122   0.225   0.313  0.4078  0.5186  2.6534
  315DG     H14 7236   1.965   0.178   0.355 -0.4385 -0.7247  0.1573
  315DG     H15 7237   1.900  -0.361   0.148  3.7574  0.0626  0.9420
  315DG     H16 7238   1.847  -0.303   0.307 -4.6563  0.3990 -0.8404
  315DG     C17 7239   2.080   0.018   0.267  0.1115 -0.4141 -1.2963
  315DG     C18 7240   1.996  -0.179   0.205  0.1462 -0.1826  0.0392
  315DG     O19 7241   1.973  -0.070   0.291 -0.7577 -0.1884  0.5953
  315DG     H20 7242   2.178  -0.027   0.283  0.0210 -0.9947 -2.3015
  315DG     H21 7243   2.081   0.046   0.161 -0.3976 -0.7063 -1.3833
  315DG     H22 7244   2.084  -0.237   0.234 -1.5390 -2.2494  1.2576
  315DG     H23 7245   2.019  -0.150   0.102 -0.8682  0.8271  0.0792
  316DG      C1 7246   4.656   4.948   5.245 -0.4722  0.6162  0.4518
  316DG      C2 7247   4.813   5.140   5.888 -0.5561 -0.4480  0.3480
  316DG      H3 7248   4.716   4.957   5.154 -1.2317  1.2001 -0.0012
  316DG      H4 7249   4.592   5.035   5.252 -0.5867  0.6190 -0.4773
  316DG      H5 7250   4.595   4.857   5.239  0.5641  0.0009 -2.6976
  316DG      H6 7251   4.846   5.133   5.992  0.7438 -0.6745 -0.0493
  316DG      H7 7252   4.825   5.249   5.885  2.8755 -0.7230 -0.7652
  316DG      H8 7253   4.707   5.118   5.879 -0.7442  0.5223  0.1156
  316DG      O9 7254   4.739   4.943   5.358  0.0809  0.3310 -0.0441
  316DG     O10 7255   4.892   5.064   5.801 -0.0750 -0.0820 -0.2688
  316DG     C11 7256   4.800   4.813   5.373 -0.2349 -0.5737  0.2288
  316DG     C12 7257   4.890   4.924   5.830  0.4732 -0.6291  0.5288
  316DG     H13 7258   4.851   4.782   5.282  0.9803  0.0598  0.6750
  316DG     H14 7259   4.718   4.754   5.416 -1.1643  2.2362  2.6912
  316DG     H15 7260   4.794   4.882   5.860  1.8619 -2.1061  3.3332
  316DG     H16 7261   4.948   4.908   5.921 -2.2676 -0.7137  2.4030
  316DG     C17 7262   4.913   4.798   5.479 -0.1655  0.5952  1.3092
  316DG     C18 7263   4.947   4.848   5.713 -0.6353 -1.0925 -0.2125
  316DG     O19 7264   4.871   4.863   5.596 -0.1074  0.3809 -0.4339
  316DG     H20 7265   5.012   4.836   5.453  2.1565 -2.6730  4.3467
  316DG     H21 7266   4.933   4.693   5.499  0.1208  0.2071 -0.7869
  316DG     H22 7267   5.050   4.882   5.699 -0.2017 -1.9718  0.7005
  316DG     H23 7268   4.954   4.742   5.740 -2.2192 -1.0204  0.5982
  317DG      C1 7269   2.202   3.520   4.293  0.9121 -0.5610  0.2565
  317DG      C2 7270   1.559   3.353   4.504 -0.8162 -0.1848 -0.2280
  317DG      H3 7271   2.170   3.611   4.345 -0.1500  1.2761 -3.2823
  317DG      H4 7272   2.239   3.559   4.198  0.3525  1.5913  0.8678
  317DG      H5 7273   2.283   3.466   4.341  1.1233  0.6665  1.3270
  317DG      H6 7274   1.464   3.306   4.481 -0.8831  0.7451 -2.0113
  317DG      H7 7275   1.598   3.326   4.602 -2.6179 -2.4850 -0.0481
  317DG      H8 7276   1.531   3.457   4.487  1.1172  0.2380 -1.0919
  317DG      O9 7277   2.095   3.433   4.268  0.7992  0.2448 -0.5901
  317DG     O10 7278   1.659   3.325   4.406  0.1766  0.1991  0.3966
  317DG     C11 7279   2.133   3.298   4.260 -1.1093  0.0923  0.2117
  317DG     C12 7280   1.693   3.187   4.401 -0.6846 -0.0105 -0.2596
  317DG     H13 7281   2.174   3.259   4.353  0.0521  2.5279  0.7933
  317DG     H14 7282   2.211   3.288   4.183 -0.7774  0.4040  0.5031
  317DG     H15 7283   1.608   3.128   4.369 -0.3311 -0.1364 -0.9891
  317DG     H16 7284   1.719   3.148   4.500  1.1980 -0.9868 -1.0878
  317DG     C17 7285   2.001   3.224   4.211 -0.3057 -0.2291  0.1920
  317DG     C18 7286   1.796   3.160   4.296 -0.4781 -0.0381  0.6113
  317DG     O19 7287   1.912   3.239   4.317 -0.5056  0.1067  0.0036
  317DG     H20 7288   2.032   3.123   4.188  1.5322  0.7441 -1.9091
  317DG     H21 7289   1.962   3.283   4.128 -0.0042  0.8447  0.7897
  317DG     H22 7290   1.821   3.055   4.308 -0.9266 -0.0097  1.9719
  317DG     H23 7291   1.750   3.165   4.197  0.4833 -2.5713 -0.0251
  318DG      C1 7292   1.322   0.071   1.457 -0.5171  0.0228 -0.0115
  318DG      C2 7293   1.607  -0.261   1.010 -0.3124 -0.3298  0.3135
  318DG      H3 7294   1.419   0.043   1.499  0.4066  1.2543 -1.2256
  318DG      H4 7295   1.249  -0.010   1.460 -0.4770 -0.1886 -2.5625
  318DG      H5 7296   1.286   0.154   1.517 -2.0153 -1.4493  1.2098
  318DG      H6 7297   1.577  -0.358   0.970 -0.5711  0.5915 -1.8875
  318DG      H7 7298   1.648  -0.208   0.924  1.3500 -1.7133  0.1940
  318DG      H8 7299   1.688  -0.267   1.083 -1.3484  2.2874  1.7928
  318DG      O9 7300   1.343   0.108   1.321  0.0411 -0.2275 -0.1708
  318DG     O10 7301   1.503  -0.182   1.060 -0.0110 -0.0498 -0.2665
  318DG     C11 7302   1.223   0.141   1.252 -0.2487  0.5266 -0.5759
  318DG     C12 7303   1.402  -0.165   0.960 -0.6427  0.2783 -0.4910
  318DG     H13 7304   1.183   0.236   1.286 -0.5439 -0.2125  1.2358
  318DG     H14 7305   1.158   0.058   1.279 -1.1877  1.9156  1.7060
  318DG     H15 7306   1.364  -0.263   0.931 -2.5065  0.4984  1.0287
  318DG     H16 7307   1.456  -0.110   0.883 -0.8656  0.0634 -0.8049
  318DG     C17 7308   1.251   0.155   1.102  0.0341  0.4987  0.6592
  318DG     C18 7309   1.287  -0.076   1.026 -0.3465 -0.2376 -0.3769
  318DG     O19 7310   1.336   0.053   1.044 -0.0267 -0.7172  0.1187
  318DG     H20 7311   1.296   0.252   1.080  1.0459  0.4625  2.4101
  318DG     H21 7312   1.159   0.161   1.044  0.7411 -0.1062 -0.5596
  318DG     H22 7313   1.201  -0.078   0.959 -0.7065 -0.2920  0.0817
  318DG     H23 7314   1.247  -0.120   1.118  0.2905  2.5948  1.3912
  319DG      C1 7315   0.491   0.766   1.568 -0.5809 -0.2874  0.5209
  319DG      C2 7316   0.466   0.136   1.614  0.6046  0.3434 -0.3319
  319DG      H3 7317   0.436   0.845   1.620 -0.3704 -0.3432  0.8339
  319DG      H4 7318   0.428   0.741   1.482  0.0529  0.7170 -0.2622
  319DG      H5 7319   0.577   0.817   1.523 -1.8944  0.3924 -1.3678
  319DG      H6 7320   0.546   0.147   1.540 -0.3051 -2.7053 -1.9205
  319DG      H7 7321   0.469   0.030   1.639 -0.6522  0.3006 -0.3121
  319DG      H8 7322   0.371   0.153   1.564  0.3467  1.1840  0.4203
  319DG      O9 7323   0.511   0.661   1.657 -0.4688  0.1291 -0.3762
  319DG     O10 7324   0.474   0.236   1.715  0.3328 -0.0646 -0.1967
  319DG     C11 7325   0.622   0.693   1.747  0.5564  0.0085  0.3082
  319DG     C12 7326   0.575   0.226   1.817 -0.1630  0.0661  0.0468
  319DG     H13 7327   0.595   0.791   1.787  1.0360  0.1059  0.3967
  319DG     H14 7328   0.711   0.712   1.687  0.1942 -1.2662 -0.6809
  319DG     H15 7329   0.663   0.172   1.782  0.1707 -0.1101  1.1276
  319DG     H16 7330   0.525   0.161   1.890 -1.1362  1.3402  0.5554
  319DG     C17 7331   0.632   0.593   1.856  0.5299 -0.4598 -0.0927
  319DG     C18 7332   0.592   0.359   1.891  0.3709  0.0007 -0.3301
  319DG     O19 7333   0.614   0.466   1.798  0.4575  0.1042  0.8101
  319DG     H20 7334   0.558   0.607   1.934 -0.6446  2.4804 -1.5608
  319DG     H21 7335   0.730   0.595   1.904  0.1353  1.0165  0.7166
  319DG     H22 7336   0.513   0.372   1.964  0.0838 -1.1922 -0.3975
  319DG     H23 7337   0.678   0.356   1.957 -0.7370  0.8812  1.2064
  320DG      C1 7338   2.791   3.051   0.818 -0.4503  0.8082  0.9812
  320DG      C2 7339   3.256   2.835   1.179 -0.3626  0.1481 -0.9620
  320DG      H3 7340   2.740   3.121   0.752  0.9719  0.6305 -0.3742
  320DG      H4 7341   2.744   3.044   0.915 -1.3793  1.3216  0.5784
  320DG      H5 7342   2.767   2.958   0.765 -0.4380  1.1173  0.4190
  320DG      H6 7343   3.258   2.737   1.130  0.1221 -0.8354  0.9486
  320DG      H7 7344   3.346   2.829   1.240 -0.0372  0.6546 -1.3814
  320DG      H8 7345   3.176   2.814   1.250  1.0509 -0.5064  0.4998
  320DG      O9 7346   2.933   3.065   0.811 -0.2770  0.8604 -0.3000
  320DG     O10 7347   3.237   2.946   1.095  0.1882  0.1588 -0.2286
  320DG     C11 7348   2.974   3.202   0.824  0.3161  0.0438  0.1344
  320DG     C12 7349   3.344   2.973   1.010 -0.6037 -1.0633 -0.5846
  320DG     H13 7350   2.924   3.240   0.913  1.1391 -1.8539  1.4857
  320DG     H14 7351   2.941   3.260   0.738 -0.2916 -0.8401 -0.2468
  320DG     H15 7352   3.356   2.909   0.922  0.7072  0.2586 -1.4248
  320DG     H16 7353   3.434   2.971   1.071  0.7021  0.1671 -2.3383
  320DG     C17 7354   3.128   3.211   0.845  0.8297  0.1572 -0.0555
  320DG     C18 7355   3.315   3.115   0.954 -0.5955 -0.6463  0.6799
  320DG     O19 7356   3.181   3.097   0.915 -0.3686  0.1435  0.4373
  320DG     H20 7357   3.154   3.303   0.897  0.8345 -0.0518  0.3113
  320DG     H21 7358   3.169   3.231   0.746 -0.9512  0.6597 -0.7403
  320DG     H22 7359   3.328   3.192   1.030  0.5348  0.1626 -0.3035
  320DG     H23 7360   3.387   3.132   0.874 -3.2852  0.9453 -1.5354
  321DG      C1 7361   0.271   0.424   0.802  0.8876 -0.1454 -0.0720
  321DG      C2 7362   0.358  -0.255   0.898  0.4383  0.5533 -0.3181
  321DG      H3 7363   0.348   0.383   0.868 -0.6965  0.4838  2.3277
  321DG      H4 7364   0.316   0.520   0.775  1.0668 -0.2195 -0.0370
  321DG      H5 7365   0.264   0.370   0.708 -0.7641 -1.4692  0.7583
  321DG      H6 7366   0.403  -0.240   0.996  0.2617 -1.5653  0.1424
  321DG      H7 7367   0.369  -0.363   0.883 -0.5058  0.0850  1.9428
  321DG      H8 7368   0.423  -0.199   0.830  3.3728  0.0053  1.8155
  321DG      O9 7369   0.151   0.458   0.871 -0.6560 -0.2437 -0.1314
  321DG     O10 7370   0.223  -0.215   0.899  0.0340 -0.0710 -0.2228
  321DG     C11 7371   0.109   0.349   0.953 -0.0700  0.1039 -0.4737
  321DG     C12 7372   0.202  -0.079   0.939  0.1792 -0.1728  0.4573
  321DG     H13 7373   0.017   0.373   1.007  0.2147  0.0506  0.0396
  321DG     H14 7374   0.181   0.325   1.031  0.1388  0.8197 -0.4398
  321DG     H15 7375   0.283  -0.045   1.003  0.8427 -0.1600 -0.3879
  321DG     H16 7376   0.106  -0.086   0.991 -0.8531  0.4266 -1.2884
  321DG     C17 7377   0.087   0.219   0.872  0.6519  0.2490 -0.0641
  321DG     C18 7378   0.198   0.011   0.820 -0.6771 -0.1900 -0.1835
  321DG     O19 7379   0.217   0.150   0.858 -0.3037 -0.3966  0.2456
  321DG     H20 7380   0.022   0.237   0.787 -1.9083  0.9429  1.9285
  321DG     H21 7381   0.029   0.152   0.936  0.2946  0.5396 -0.0799
  321DG     H22 7382   0.293  -0.001   0.768 -0.3618 -0.8146  0.5082
  321DG     H23 7383   0.109  -0.005   0.759  0.1446 -1.6948 -1.0362
  322DG      C1 7384   5.080   1.004   5.112  0.6054  0.3395  0.1076
  322DG      C2 7385   4.865   0.494   4.677  0.7364  0.1319  0.2685
  322DG      H3 7386   5.168   1.066   5.131  0.5133  0.4257  0.2487
  322DG      H4 7387   5.092   0.930   5.191  3.8327 -0.1062 -0.6541
  322DG      H5 7388   4.990   1.064   5.124  0.7695  1.1359 -2.1648
  322DG      H6 7389   4.765   0.524   4.644  0.4853 -0.0105  0.8709
  322DG      H7 7390   4.896   0.440   4.588  1.8961  2.6359 -0.9554
  322DG      H8 7391   4.844   0.437   4.768  0.7585 -0.1091  0.1229
  322DG      O9 7392   5.090   0.937   4.987  0.3243 -0.2710  0.1133
  322DG     O10 7393   4.942   0.610   4.701  0.1469  0.2495  0.0841
  322DG     C11 7394   5.099   1.042   4.886  0.6901  0.7385 -0.1870
  322DG     C12 7395   4.935   0.699   4.598 -0.0385 -0.0516 -0.4833
  322DG     H13 7396   5.186   1.100   4.917  1.1885 -0.1603  0.1299
  322DG     H14 7397   5.016   1.112   4.881  0.7644  0.8909  0.6367
  322DG     H15 7398   4.834   0.739   4.587 -0.3227 -0.3198  0.9255
  322DG     H16 7399   4.967   0.636   4.515  4.3908 -1.4422  1.9359
  322DG     C17 7400   5.119   0.989   4.745 -0.0744 -0.1019  0.4372
  322DG     C18 7401   5.037   0.807   4.614 -0.6701 -0.4185 -0.0958
  322DG     O19 7402   5.007   0.897   4.718 -0.1291 -0.3944 -0.5402
  322DG     H20 7403   5.207   0.925   4.745 -1.1158 -1.6457 -1.2730
  322DG     H21 7404   5.130   1.068   4.671 -1.4033 -0.6959 -0.4360
  322DG     H22 7405   5.130   0.754   4.636 -0.7082 -1.7197 -2.7430
  322DG     H23 7406   5.050   0.858   4.519 -1.2602 -0.3021 -0.1147
  323DG      C1 7407   0.415   2.036   4.774  0.2272 -0.5464  0.2867
  323DG      C2 7408  -0.010   2.873   4.967  0.2819  0.1820 -0.8518
  323DG      H3 7409   0.467   2.024   4.869  0.4317  0.6932  0.3580
  323DG      H4 7410   0.475   2.001   4.690 -1.0588 -0.3323 -0.7419
  323DG      H5 7411   0.329   1.970   4.782 -0.3231 -0.1407 -1.7177
  323DG      H6 7412   0.049   2.872   5.058  0.1583 -1.1772 -0.7611
  323DG      H7 7413  -0.026   2.973   4.927  1.9167  0.4393 -0.9244
  323DG      H8 7414  -0.106   2.829   4.994  0.5695 -0.2015 -0.4545
  323DG      O9 7415   0.384   2.170   4.757 -0.9186  0.3899 -0.5745
  323DG     O10 7416   0.055   2.794   4.875 -0.1085  0.7567  0.5510
  323DG     C11 7417   0.278   2.229   4.828 -0.5844  0.0536  0.2851
  323DG     C12 7418   0.056   2.660   4.900  0.4364 -0.2919  0.1800
  323DG     H13 7419   0.282   2.208   4.935 -0.4210  1.1825  0.5114
  323DG     H14 7420   0.184   2.204   4.780 -0.7708  0.8091  0.2431
  323DG     H15 7421  -0.033   2.601   4.876  1.8769 -2.6029  0.2197
  323DG     H16 7422   0.084   2.655   5.005 -0.1385 -0.1984  0.3411
  323DG     C17 7423   0.294   2.374   4.799  0.3582 -0.2379  0.0621
  323DG     C18 7424   0.173   2.594   4.818  0.8524 -0.6532  0.9147
  323DG     O19 7425   0.177   2.451   4.847 -0.6727  0.3433  0.0975
  323DG     H20 7426   0.303   2.392   4.692 -1.4258  0.8016  0.0411
  323DG     H21 7427   0.383   2.417   4.844 -1.2434  4.2448 -0.4857
  323DG     H22 7428   0.165   2.606   4.710 -2.1143 -0.2603  1.0894
  323DG     H23 7429   0.274   2.630   4.837  0.4889  1.6694 -1.0397
  324DG      C1 7430   0.110   0.739   3.661  0.4167 -0.1744  0.1748
  324DG      C2 7431   0.046   1.306   4.132  0.3152 -0.7379 -0.9851
  324DG      H3 7432   0.161   0.708   3.570  0.1473 -2.0155  0.6265
  324DG      H4 7433   0.009   0.774   3.643  0.9435  0.9959 -0.7216
  324DG      H5 7434   0.098   0.651   3.723 -0.2612 -2.1808 -2.6394
  324DG      H6 7435   0.090   1.389   4.187 -2.0778 -1.5919  2.5355
  324DG      H7 7436  -0.032   1.344   4.065  0.1759  0.2713 -0.2676
  324DG      H8 7437  -0.004   1.256   4.215 -0.8137  1.6304 -0.1369
  324DG      O9 7438   0.178   0.852   3.722 -0.8770  0.0236  0.3149
  324DG     O10 7439   0.131   1.231   4.053 -0.5472 -0.4343 -0.5687
  324DG     C11 7440   0.305   0.820   3.776  0.7832  0.7733  0.1777
  324DG     C12 7441   0.227   1.150   4.124  0.2348 -0.5286 -0.9900
  324DG     H13 7442   0.369   0.764   3.708  1.0007  0.7789  0.3738
  324DG     H14 7443   0.280   0.742   3.848 -1.6823  2.2387  1.0172
  324DG     H15 7444   0.181   1.066   4.176  1.0205  0.5949  1.7239
  324DG     H16 7445   0.288   1.210   4.192  1.0590 -0.8526 -1.4328
  324DG     C17 7446   0.360   0.943   3.848  0.3692  0.9593  0.2535
  324DG     C18 7447   0.324   1.087   4.030 -0.1962 -0.3945  0.6298
  324DG     O19 7448   0.264   1.014   3.927  0.5657 -0.1065 -0.5014
  324DG     H20 7449   0.411   1.005   3.774  0.2846  1.8134  0.8974
  324DG     H21 7450   0.441   0.906   3.911  1.0577  3.2834  0.8075
  324DG     H22 7451   0.386   1.163   3.983 -0.5868  0.1809  1.0338
  324DG     H23 7452   0.387   1.015   4.083  0.4708 -0.8923 -0.8100
  325DG      C1 7453   2.648   2.694   3.154 -0.1132 -0.5018 -0.8800
  325DG      C2 7454   3.022   2.296   2.748 -0.1672 -0.1829  0.0082
  325DG      H3 7455   2.555   2.749   3.170  1.0953  0.7376  3.0685
  325DG      H4 7456   2.731   2.740   3.208 -1.3569 -1.0347  1.6485
  325DG      H5 7457   2.631   2.599   3.205 -3.6711  0.2752 -0.3655
  325DG      H6 7458   3.064   2.257   2.655  1.4298 -3.5227  1.9051
  325DG      H7 7459   3.094   2.338   2.818 -2.3612  0.0477  2.2547
  325DG      H8 7460   2.976   2.209   2.796 -2.5279  1.6108  1.1746
  325DG      O9 7461   2.673   2.665   3.017  0.6819  0.6621 -0.4549
  325DG     O10 7462   2.915   2.389   2.736 -0.1663  0.0972 -0.1443
  325DG     C11 7463   2.689   2.786   2.938  0.3092 -1.0409 -0.5355
  325DG     C12 7464   2.940   2.499   2.644  0.6178  0.0192 -0.2366
  325DG     H13 7465   2.763   2.858   2.974 -0.5565  0.7910 -2.2291
  325DG     H14 7466   2.597   2.843   2.952  0.4794 -1.0519  0.7491
  325DG     H15 7467   2.959   2.467   2.542  2.9087  2.3592 -0.6673
  325DG     H16 7468   3.037   2.543   2.669  1.5047 -0.4403 -2.6323
  325DG     C17 7469   2.710   2.759   2.789  0.3436  0.1965 -0.9354
  325DG     C18 7470   2.836   2.608   2.642 -0.3375 -0.3506 -0.5841
  325DG     O19 7471   2.821   2.676   2.773  0.1020 -0.0790 -0.1369
  325DG     H20 7472   2.728   2.850   2.730  2.0413 -0.4720 -1.5084
  325DG     H21 7473   2.620   2.715   2.745  0.5847  0.2710 -1.5185
  325DG     H22 7474   2.844   2.676   2.557 -0.4843  1.5355  0.8566
  325DG     H23 7475   2.744   2.554   2.618 -0.4641 -0.2835 -0.2482
  326DG      C1 7476   0.592   0.247   2.266 -0.1156 -0.2845 -1.1383
  326DG      C2 7477   1.058   0.298   1.679  0.8710  0.1042 -0.2407
  326DG      H3 7478   0.576   0.154   2.213  0.7714 -0.0443 -1.8512
  326DG      H4 7479   0.495   0.297   2.257  0.2701  0.9746  1.0086
  326DG      H5 7480   0.617   0.233   2.371 -0.9532  4.8523  0.0268
  326DG      H6 7481   1.090   0.194   1.666 -0.5217 -0.4985  0.8424
  326DG      H7 7482   0.971   0.311   1.615 -0.4267  0.4017  1.4942
  326DG      H8 7483   1.144   0.360   1.656  2.3649 -1.8633 -0.2558
  326DG      O9 7484   0.689   0.322   2.193  0.2619 -0.2552  0.1712
  326DG     O10 7485   1.037   0.328   1.817 -0.2865 -0.1784 -0.4695
  326DG     C11 7486   0.757   0.419   2.268 -0.5541 -1.0449 -0.2627
  326DG     C12 7487   0.988   0.463   1.828 -0.3663  0.2465  0.6544
  326DG     H13 7488   0.779   0.394   2.372 -1.2253 -0.5147  0.0106
  326DG     H14 7489   0.681   0.496   2.282  1.0860  0.3655  1.4528
  326DG     H15 7490   0.892   0.479   1.778  1.1024 -0.1671 -2.5780
  326DG     H16 7491   1.058   0.536   1.786  0.7124 -1.0454  0.1258
  326DG     C17 7492   0.889   0.466   2.195  0.2674  0.4733 -0.0492
  326DG     C18 7493   0.969   0.514   1.975 -0.2522  0.1327 -0.2677
  326DG     O19 7494   0.888   0.425   2.054  0.2044 -0.6402  0.0988
  326DG     H20 7495   0.983   0.420   2.226  0.2795  0.4625 -0.1011
  326DG     H21 7496   0.899   0.574   2.200  0.7475  0.3728  2.4997
  326DG     H22 7497   1.071   0.522   2.013 -0.4166 -1.4016  0.5547
  326DG     H23 7498   0.919   0.611   1.977 -1.9160 -0.7002  0.6641
  327DG      C1 7499   2.006   3.611   1.685  0.0225  0.8395  0.2055
  327DG      C2 7500   2.270   4.406   1.791  0.5277 -0.0475 -0.5088
  327DG      H3 7501   1.942   3.589   1.599 -0.4205  1.6346  0.3254
  327DG      H4 7502   1.966   3.559   1.773 -0.1142 -1.5599 -1.1891
  327DG      H5 7503   2.099   3.562   1.658 -1.7637 -2.3086 -0.8702
  327DG      H6 7504   2.376   4.405   1.816  0.7268 -0.7772 -1.3047
  327DG      H7 7505   2.251   4.410   1.683 -2.2946  0.0637 -0.0954
  327DG      H8 7506   2.218   4.497   1.821 -0.3365 -1.0202  1.0628
  327DG      O9 7507   2.020   3.747   1.713 -0.1539  0.4876  0.3146
  327DG     O10 7508   2.209   4.295   1.847 -0.0564 -0.2209 -0.7433
  327DG     C11 7509   2.116   3.787   1.813  0.2050  0.5890 -0.3174
  327DG     C12 7510   2.077   4.281   1.808 -0.0591  0.2442 -0.3943
  327DG     H13 7511   2.216   3.796   1.771 -0.3522  1.8338 -1.4767
  327DG     H14 7512   2.128   3.708   1.887 -1.7006  0.7510  0.2158
  327DG     H15 7513   2.063   4.271   1.700  3.2182 -0.9456 -0.8064
  327DG     H16 7514   2.024   4.363   1.855  1.0110 -0.6840  2.6445
  327DG     C17 7515   2.081   3.923   1.888 -0.3995  0.1639  0.3244
  327DG     C18 7516   2.035   4.155   1.885 -0.1537 -0.3614  0.7664
  327DG     O19 7517   2.092   4.040   1.815 -0.1648 -0.2426  0.3382
  327DG     H20 7518   2.146   3.935   1.975  0.5826  1.1674 -0.5143
  327DG     H21 7519   1.985   3.898   1.933 -1.2096  0.6235 -1.1166
  327DG     H22 7520   2.079   4.169   1.984  0.0330  0.0460  0.6279
  327DG     H23 7521   1.926   4.152   1.892 -0.2087 -0.0919  0.0933
  328DG      C1 7522   4.134   3.761   4.452  0.1482 -0.3301 -0.0084
  328DG      C2 7523   4.439   3.262   4.389 -0.3574  0.1550  0.3193
  328DG      H3 7524   4.148   3.868   4.461  1.7714 -0.4745 -0.5256
  328DG      H4 7525   4.098   3.724   4.548 -3.2216  1.4538 -0.4569
  328DG      H5 7526   4.066   3.731   4.371  0.6178  2.3230 -1.4838
  328DG      H6 7527   4.368   3.345   4.387 -0.4330  0.0885  0.2570
  328DG      H7 7528   4.437   3.196   4.302 -1.2480 -1.4771  1.5078
  328DG      H8 7529   4.415   3.189   4.467  0.6501 -0.4347  0.0890
  328DG      O9 7530   4.260   3.704   4.418  0.2242 -0.2855  0.0021
  328DG     O10 7531   4.575   3.307   4.399  0.0705 -0.4249 -0.4953
  328DG     C11 7532   4.339   3.681   4.532 -0.3473  0.1408 -0.9213
  328DG     C12 7533   4.621   3.402   4.306  0.1446 -0.4717 -0.2591
  328DG     H13 7534   4.298   3.592   4.578 -1.2352  0.6855 -0.6349
  328DG     H14 7535   4.332   3.758   4.608  1.0738  0.8272 -1.4511
  328DG     H15 7536   4.560   3.413   4.217  0.4821 -0.8663 -0.5440
  328DG     H16 7537   4.719   3.376   4.265  1.7536  0.8907  2.4165
  328DG     C17 7538   4.484   3.675   4.494 -0.5620 -0.3972  0.1785
  328DG     C18 7539   4.634   3.538   4.372 -0.3477  0.0500 -1.0751
  328DG     O19 7540   4.501   3.578   4.392 -0.4389 -0.5672 -0.2704
  328DG     H20 7541   4.547   3.653   4.580  0.9051  2.8112  0.0653
  328DG     H21 7542   4.521   3.766   4.447 -0.8202 -0.8474 -0.9341
  328DG     H22 7543   4.688   3.531   4.467 -2.3619  1.9453  0.3086
  328DG     H23 7544   4.675   3.615   4.306  0.3778  0.5697 -0.0567
  329DG      C1 7545   0.704   3.251   5.300  0.5795  0.3889 -0.6968
  329DG      C2 7546   1.135   3.144   4.900  0.4161  0.1138  0.3953
  329DG      H3 7547   0.786   3.323   5.303  2.2917 -1.3240 -2.5907
  329DG      H4 7548   0.635   3.267   5.383  0.7292 -0.2679 -0.4372
  329DG      H5 7549   0.635   3.273   5.218 -2.4657 -0.8779  1.3331
  329DG      H6 7550   1.219   3.165   4.966  0.7615  1.3994 -0.4221
  329DG      H7 7551   1.159   3.120   4.796  0.5894 -0.0418  0.4719
  329DG      H8 7552   1.069   3.230   4.897 -1.5250 -1.3104  0.1983
  329DG      O9 7553   0.765   3.122   5.311  0.4691 -0.7127 -0.0731
  329DG     O10 7554   1.069   3.036   4.966  0.3547  0.8770  0.0816
  329DG     C11 7555   0.668   3.016   5.288  0.4469 -0.6131  0.4788
  329DG     C12 7556   0.951   3.005   4.895  0.0718  0.1309 -0.1543
  329DG     H13 7557   0.565   3.049   5.299  0.8811  0.7206  0.6101
  329DG     H14 7558   0.700   2.950   5.369  0.7021 -0.9670  0.0958
  329DG     H15 7559   0.987   2.951   4.808 -1.7536 -0.1918 -0.7679
  329DG     H16 7560   0.889   3.089   4.864 -0.6793 -1.2942 -2.8170
  329DG     C17 7561   0.698   2.958   5.147  0.4883  0.0297 -0.2361
  329DG     C18 7562   0.861   2.919   4.980 -0.0047 -0.0651 -0.2090
  329DG     O19 7563   0.830   2.976   5.105  0.5519 -0.6022  0.0079
  329DG     H20 7564   0.622   2.993   5.076  0.2530  0.8259  0.3932
  329DG     H21 7565   0.692   2.850   5.150 -0.0579  0.0437 -0.5280
  329DG     H22 7566   0.774   2.903   4.917 -0.1443 -2.5898  0.5012
  329DG     H23 7567   0.896   2.817   4.998 -0.0088  0.2100  1.5684
  330DG      C1 7568   1.044   5.081   4.868  0.4378 -0.4606  0.1502
  330DG      C2 7569   1.628   5.330   5.207 -0.6156 -0.2850 -0.5298
  330DG      H3 7570   0.994   5.070   4.965  0.6213 -0.7497  0.2134
  330DG      H4 7571   0.991   5.025   4.791  0.6570 -0.6558  0.1387
  330DG      H5 7572   1.030   5.187   4.847  0.7357 -0.8406 -2.2402
  330DG      H6 7573   1.735   5.316   5.191 -0.6749 -3.6238  1.1142
  330DG      H7 7574   1.601   5.430   5.176  0.5877 -0.4990 -2.4014
  330DG      H8 7575   1.597   5.307   5.309  1.0068 -4.1160 -0.7274
  330DG      O9 7576   1.184   5.046   4.879  0.0905  0.0104 -0.0900
  330DG     O10 7577   1.554   5.226   5.141 -0.6083 -0.0947 -0.4244
  330DG     C11 7578   1.216   4.917   4.931  0.0641 -0.3101 -0.4752
  330DG     C12 7579   1.593   5.097   5.181 -0.3980  0.2976 -0.4543
  330DG     H13 7580   1.179   4.834   4.872 -2.0518 -0.5041  0.9944
  330DG     H14 7581   1.171   4.899   5.029  0.9663 -0.5493 -0.0936
  330DG     H15 7582   1.559   5.087   5.284  1.2757  1.7896  0.2938
  330DG     H16 7583   1.701   5.083   5.179 -0.6886 -2.3650 -1.4318
  330DG     C17 7584   1.366   4.902   4.954  0.4017 -0.5944 -0.0802
  330DG     C18 7585   1.543   4.976   5.097  0.0706 -0.0412  0.2010
  330DG     O19 7586   1.409   4.999   5.048  0.5416 -0.4879 -0.2857
  330DG     H20 7587   1.419   4.903   4.859 -0.5558 -0.4699 -0.6263
  330DG     H21 7588   1.368   4.803   5.000 -0.8812 -0.3538  0.5195
  330DG     H22 7589   1.619   4.975   5.020  0.4839 -2.3021  0.5604
  330DG     H23 7590   1.544   4.878   5.145 -0.8610  0.9807  2.4674
  331DG      C1 7591   3.618   2.358   4.704 -0.6625  0.3676 -0.4170
  331DG      C2 7592   3.231   2.192   5.339  0.2305  0.8257 -0.4222
  331DG      H3 7593   3.558   2.293   4.641  0.1949  0.6468 -1.5462
  331DG      H4 7594   3.712   2.379   4.653 -0.4555 -1.6731 -0.9546
  331DG      H5 7595   3.565   2.453   4.710 -1.0535  0.1101  0.3748
  331DG      H6 7596   3.194   2.294   5.324 -1.4781  0.4076  0.6800
  331DG      H7 7597   3.147   2.132   5.307 -0.5965  1.2552  0.8718
  331DG      H8 7598   3.254   2.174   5.444  0.0503  0.4426 -0.4474
  331DG      O9 7599   3.624   2.292   4.829 -0.1331  0.4525  0.2577
  331DG     O10 7600   3.352   2.175   5.262 -0.4318  0.2810  0.3517
  331DG     C11 7601   3.689   2.374   4.923 -0.1498 -0.2069 -0.4871
  331DG     C12 7602   3.468   2.238   5.319 -0.8987  0.7044  0.2508
  331DG     H13 7603   3.623   2.457   4.946 -1.3653 -1.0509 -0.7949
  331DG     H14 7604   3.787   2.409   4.890 -0.3588  0.9757  0.1170
  331DG     H15 7605   3.480   2.191   5.417  2.0425 -0.4642 -0.5862
  331DG     H16 7606   3.456   2.344   5.341  1.4355  0.8790  0.9792
  331DG     C17 7607   3.702   2.288   5.046  0.2294  0.3452 -0.3868
  331DG     C18 7608   3.595   2.219   5.239  0.0207 -1.4333  0.3819
  331DG     O19 7609   3.580   2.276   5.113 -0.0012  0.0588  0.3714
  331DG     H20 7610   3.781   2.324   5.112 -1.4409 -1.8208  3.0622
  331DG     H21 7611   3.740   2.193   5.009 -0.3237 -0.2600  0.5636
  331DG     H22 7612   3.667   2.281   5.292  0.1199 -1.4905  0.3131
  331DG     H23 7613   3.619   2.112   5.244  2.1964 -0.9339  1.8831
  332DG      C1 7614   3.518   2.528   2.042  0.5284 -0.4210 -0.0398
  332DG      C2 7615   2.909   2.181   1.990 -0.4770 -0.1933  0.0362
  332DG      H3 7616   3.465   2.622   2.027 -2.3744 -1.3637  3.1257
  332DG      H4 7617   3.625   2.540   2.021  0.2167  0.4034 -1.2687
  332DG      H5 7618   3.514   2.503   2.148  3.9598  0.4154  0.4203
  332DG      H6 7619   2.957   2.228   2.076 -0.5644  1.0041 -0.5405
  332DG      H7 7620   2.851   2.263   1.947  0.4332  0.3247 -0.2317
  332DG      H8 7621   2.853   2.095   2.026  1.3139 -1.3287  0.2075
  332DG      O9 7622   3.466   2.435   1.953 -0.3428 -0.4861  0.2747
  332DG     O10 7623   2.999   2.133   1.886  0.0066 -0.2265  0.0110
  332DG     C11 7624   3.524   2.312   1.982 -0.0698  0.4389  0.8964
  332DG     C12 7625   3.126   2.088   1.928  0.4673 -0.3967 -0.3541
  332DG     H13 7626   3.508   2.277   2.084 -0.4325 -2.6208 -0.1241
  332DG     H14 7627   3.631   2.317   1.960 -0.3527  1.3793 -0.4225
  332DG     H15 7628   3.146   1.985   1.898 -0.6448 -0.6914 -0.1271
  332DG     H16 7629   3.120   2.077   2.036  0.1361 -0.7491 -0.4029
  332DG     C17 7630   3.474   2.206   1.880 -0.2753 -0.9062 -0.7910
  332DG     C18 7631   3.239   2.186   1.898  0.2039  0.0622 -0.0845
  332DG     O19 7632   3.364   2.125   1.927 -0.1052  0.9017 -0.6247
  332DG     H20 7633   3.552   2.134   1.856 -1.4191 -1.6163 -2.6216
  332DG     H21 7634   3.459   2.247   1.780  1.0724  0.0489 -0.6370
  332DG     H22 7635   3.237   2.203   1.790 -0.5204  0.6207  0.0104
  332DG     H23 7636   3.219   2.285   1.940 -2.4179 -0.6923  0.6449
  333DG      C1 7637   3.884   4.657   0.632  0.0510 -0.3647  0.0177
  333DG      C2 7638   3.286   4.508   0.377 -0.3111 -0.4991  0.5258
  333DG      H3 7639   3.957   4.732   0.660 -0.3755 -0.2492  0.8491
  333DG      H4 7640   3.934   4.584   0.568  0.7972 -0.0753  0.2635
  333DG      H5 7641   3.850   4.604   0.721 -0.7932  0.2331  0.0672
  333DG      H6 7642   3.236   4.531   0.283 -0.8415 -1.2031  0.6251
  333DG      H7 7643   3.348   4.422   0.349 -0.4082  0.0394 -1.4970
  333DG      H8 7644   3.210   4.466   0.444  1.2762 -2.5689  1.1402
  333DG      O9 7645   3.773   4.731   0.569  0.7752  0.0715 -0.0747
  333DG     O10 7646   3.367   4.610   0.435 -0.0219  0.2767  0.2396
  333DG     C11 7647   3.734   4.839   0.647  0.5997 -0.1874 -0.2899
  333DG     C12 7648   3.294   4.712   0.496 -0.1933  0.4983 -0.1428
  333DG     H13 7649   3.812   4.915   0.646  1.0611 -0.5281  2.4310
  333DG     H14 7650   3.729   4.809   0.752  0.8782  2.4861  0.5626
  333DG     H15 7651   3.255   4.666   0.587 -0.5242 -0.3517 -0.6888
  333DG     H16 7652   3.208   4.747   0.439 -1.3366 -0.5021  0.8877
  333DG     C17 7653   3.593   4.890   0.601  0.2250 -0.4056 -0.4037
  333DG     C18 7654   3.385   4.829   0.525 -0.4180 -0.1771 -0.4321
  333DG     O19 7655   3.505   4.786   0.572 -0.7625 -0.0474 -0.4404
  333DG     H20 7656   3.613   4.953   0.514  0.5572  0.6527  0.4143
  333DG     H21 7657   3.552   4.957   0.677  1.8060  0.0362  0.0901
  333DG     H22 7658   3.399   4.886   0.433 -2.9500  0.0406 -0.7591
  333DG     H23 7659   3.338   4.902   0.590 -0.1759  0.6240 -1.1374
  334DG      C1 7660   5.245   5.134   5.168  0.1726 -0.1384  0.4108
  334DG      C2 7661   5.125   5.758   5.547  0.1847 -0.5580 -0.3787
  334DG      H3 7662   5.327   5.073   5.130  3.2132  1.4531  3.7531
  334DG      H4 7663   5.172   5.131   5.087  0.8537  0.6593 -0.2402
  334DG      H5 7664   5.203   5.078   5.252 -0.8130  2.2842  1.6360
  334DG      H6 7665   5.170   5.800   5.637 -3.0936 -1.8005  2.0466
  334DG      H7 7666   5.090   5.836   5.479 -0.6937  1.4301  2.1973
  334DG      H8 7667   5.031   5.714   5.580 -0.9453  3.8783  3.4793
  334DG      O9 7668   5.276   5.274   5.183 -0.0783  0.2015 -0.6108
  334DG     O10 7669   5.195   5.676   5.456 -0.1976  0.4722  0.4519
  334DG     C11 7670   5.371   5.286   5.287  0.5949  0.1102  0.4887
  334DG     C12 7671   5.272   5.742   5.355  0.5373  0.4764 -0.4122
  334DG     H13 7672   5.449   5.210   5.283  0.3335 -0.3761  3.0219
  334DG     H14 7673   5.320   5.262   5.380 -0.7505  3.2634  0.6655
  334DG     H15 7674   5.305   5.839   5.393 -0.5195 -0.6591  3.9146
  334DG     H16 7675   5.212   5.763   5.267 -1.0954 -1.6784  0.0998
  334DG     C17 7676   5.442   5.425   5.285 -0.1081  0.3036 -0.2336
  334DG     C18 7677   5.389   5.664   5.321  0.7341  0.4145 -0.0135
  334DG     O19 7678   5.343   5.532   5.278 -0.2515  0.4390  0.0895
  334DG     H20 7679   5.522   5.432   5.212 -1.1826  2.2200 -1.3031
  334DG     H21 7680   5.482   5.431   5.386 -0.9362  1.3550  0.0559
  334DG     H22 7681   5.437   5.728   5.247 -0.8939  2.0337  0.2725
  334DG     H23 7682   5.451   5.654   5.410  0.0494 -1.3978  0.3034
  335DG      C1 7683   4.986   4.106   1.820  0.3769  0.2632  0.2866
  335DG      C2 7684   5.315   4.367   1.156  0.0104  0.2357  0.0474
  335DG      H3 7685   4.913   4.139   1.894  0.5754  1.2226  0.0627
  335DG      H4 7686   5.018   4.006   1.848  0.0754  0.5872  1.8966
  335DG      H5 7687   4.926   4.107   1.730  0.6581  0.8235  0.0987
  335DG      H6 7688   5.229   4.331   1.101  1.2437 -0.1256 -1.7300
  335DG      H7 7689   5.326   4.472   1.129 -1.6474  0.3124 -0.4200
  335DG      H8 7690   5.396   4.304   1.121  0.6587  1.4409 -0.7156
  335DG      O9 7691   5.104   4.188   1.820  0.0030  0.5318  0.6361
  335DG     O10 7692   5.293   4.373   1.296  0.2144  0.0737  0.6959
  335DG     C11 7693   5.196   4.148   1.709  0.8830  0.3186  0.4834
  335DG     C12 7694   5.407   4.412   1.372  0.6311 -0.7120  0.4350
  335DG     H13 7695   5.140   4.115   1.622 -0.8698  1.4099  1.1319
  335DG     H14 7696   5.249   4.056   1.736 -1.9721 -1.4748  0.4976
  335DG     H15 7697   5.453   4.507   1.345 -0.5273 -1.0220 -3.1640
  335DG     H16 7698   5.492   4.347   1.352  1.2741  0.1765  0.1724
  335DG     C17 7699   5.288   4.266   1.687 -0.0738 -0.8249 -0.4286
  335DG     C18 7700   5.346   4.414   1.511 -0.2537  0.4119 -0.4790
  335DG     O19 7701   5.319   4.279   1.545  0.5904 -0.2436  0.2716
  335DG     H20 7702   5.368   4.258   1.760 -2.2676  0.1612  2.2465
  335DG     H21 7703   5.243   4.357   1.727  3.0855  1.0913 -0.8872
  335DG     H22 7704   5.416   4.459   1.582 -0.9825 -0.8248  1.0767
  335DG     H23 7705   5.262   4.484   1.518 -0.2567  0.4126 -0.5233
  336DG      C1 7706   2.736   1.189   3.206  0.0049 -0.4525 -0.6500
  336DG      C2 7707   2.823   0.911   3.815 -0.0888 -0.6704  0.1184
  336DG      H3 7708   2.804   1.225   3.129  1.0045  0.7337  0.7280
  336DG      H4 7709   2.640   1.237   3.189  0.5126  2.3171  3.1263
  336DG      H5 7710   2.727   1.080   3.202  2.0381 -0.6461 -3.0398
  336DG      H6 7711   2.835   0.917   3.923  0.1437 -2.2858  0.2002
  336DG      H7 7712   2.722   0.874   3.793 -0.3595  0.5516 -0.8065
  336DG      H8 7713   2.885   0.831   3.775  1.6580  0.7707 -0.1916
  336DG      O9 7714   2.787   1.228   3.335  0.2532  0.1108 -0.3133
  336DG     O10 7715   2.837   1.033   3.757  0.0191 -0.5106  0.1846
  336DG     C11 7716   2.763   1.361   3.366  0.1408 -0.7017  0.1127
  336DG     C12 7717   2.744   1.132   3.796  0.2531 -0.2056  0.1396
  336DG     H13 7718   2.661   1.394   3.347  1.0540  1.3912 -1.6231
  336DG     H14 7719   2.825   1.434   3.313  1.7896 -1.9397  0.2816
  336DG     H15 7720   2.737   1.152   3.902 -1.7172  0.3625 -0.0718
  336DG     H16 7721   2.642   1.112   3.765  0.7139 -2.0436 -0.3555
  336DG     C17 7722   2.787   1.378   3.518 -0.0900  0.7188 -0.7864
  336DG     C18 7723   2.784   1.266   3.735  0.1551 -0.4541  0.3438
  336DG     O19 7724   2.747   1.262   3.594 -0.2677 -0.6407 -0.5106
  336DG     H20 7725   2.731   1.459   3.565 -0.8946  0.1923 -0.8171
  336DG     H21 7726   2.889   1.403   3.547 -0.3089 -0.7642  1.6151
  336DG     H22 7727   2.724   1.342   3.786 -1.6728 -0.8129 -1.1674
  336DG     H23 7728   2.893   1.276   3.743  0.3354 -0.5749 -1.5605
  337DG      C1 7729   1.654   1.327   0.513 -0.1635 -0.3950 -0.4747
  337DG      C2 7730   1.274   1.837   0.695  0.0807 -0.1823  0.1274
  337DG      H3 7731   1.621   1.312   0.616 -1.5637  2.1666 -0.4799
  337DG      H4 7732   1.743   1.266   0.493  0.2497  0.2345 -0.5846
  337DG      H5 7733   1.570   1.292   0.453 -0.4607 -0.7142  0.1154
  337DG      H6 7734   1.268   1.861   0.801  0.9474 -0.0457  0.1574
  337DG      H7 7735   1.252   1.931   0.643  0.7788  0.2519  0.6034
  337DG      H8 7736   1.208   1.763   0.649  2.4561 -1.7548 -0.9562
  337DG      O9 7737   1.671   1.461   0.490  0.0508 -0.2527  0.0718
  337DG     O10 7738   1.408   1.800   0.667  0.0725 -0.4872  0.0076
  337DG     C11 7739   1.764   1.523   0.572  0.6029 -0.0236  0.3633
  337DG     C12 7740   1.513   1.897   0.675 -0.2578 -0.3828  0.7056
  337DG     H13 7741   1.856   1.464   0.566 -0.5291 -1.8352  0.0938
  337DG     H14 7742   1.738   1.520   0.678 -2.0657 -2.3873 -0.2295
  337DG     H15 7743   1.502   1.959   0.764  1.6086  1.9523 -0.5761
  337DG     H16 7744   1.503   1.974   0.598  1.0574 -1.3014 -0.4281
  337DG     C17 7745   1.774   1.672   0.534 -0.2701  0.4849 -0.4220
  337DG     C18 7746   1.655   1.838   0.664  0.5376  0.2410 -0.9722
  337DG     O19 7747   1.660   1.754   0.547 -0.1750  0.3069 -0.4178
  337DG     H20 7748   1.805   1.688   0.431 -0.5225  3.5906 -0.1102
  337DG     H21 7749   1.853   1.722   0.591  1.5777 -1.7934 -0.7967
  337DG     H22 7750   1.729   1.918   0.663  2.2822 -1.2528  0.1924
  337DG     H23 7751   1.671   1.774   0.751 -0.8432  2.3262  0.9152
  338DG      C1 7752   1.666   1.792   4.543 -0.2115  0.4344  0.3979
  338DG      C2 7753   2.391   2.225   4.523 -0.1683 -0.7905  0.0127
  338DG      H3 7754   1.612   1.728   4.613 -0.4562  1.0791  0.8086
  338DG      H4 7755   1.645   1.764   4.440 -2.9984 -0.8500  1.2050
  338DG      H5 7756   1.636   1.896   4.558  1.0338  0.8372  0.1877
  338DG      H6 7757   2.408   2.279   4.430 -0.2587  2.1424  1.5551
  338DG      H7 7758   2.345   2.286   4.602 -0.7635 -0.4948 -0.5508
  338DG      H8 7759   2.494   2.209   4.555 -1.2403 -1.7465  3.4941
  338DG      O9 7760   1.805   1.783   4.568  1.2402 -0.0979 -0.2802
  338DG     O10 7761   2.294   2.116   4.508  0.3893  0.3163  0.6001
  338DG     C11 7762   1.887   1.863   4.484 -0.0934  0.3919  0.2841
  338DG     C12 7763   2.352   1.996   4.455  0.0306 -0.0975 -0.6579
  338DG     H13 7764   1.859   1.967   4.502  0.4120  0.8388 -1.3634
  338DG     H14 7765   1.870   1.837   4.379 -2.1286 -1.4417  0.9774
  338DG     H15 7766   2.452   1.967   4.486 -0.2473 -0.0018  0.3660
  338DG     H16 7767   2.351   2.020   4.348 -0.6277  0.3138 -0.5646
  338DG     C17 7768   2.029   1.835   4.528  0.7406  0.0941  0.4161
  338DG     C18 7769   2.254   1.885   4.486  0.5778  0.0058  0.2549
  338DG     O19 7770   2.123   1.900   4.442  0.3305 -0.8338 -0.2209
  338DG     H20 7771   2.057   1.730   4.517 -1.2894 -0.6306  1.5988
  338DG     H21 7772   2.041   1.853   4.635 -2.0741 -1.0012  1.0026
  338DG     H22 7773   2.295   1.794   4.442 -0.8485 -1.4281  1.7919
  338DG     H23 7774   2.258   1.869   4.593 -2.6634  0.2091  0.4827
  339DG      C1 7775   2.573   4.550   0.159 -0.0715  0.1720 -0.9401
  339DG      C2 7776   2.036   5.094  -0.164 -0.3816  0.2029 -0.5142
  339DG      H3 7777   2.640   4.624   0.114  2.0367 -0.8439  0.3698
  339DG      H4 7778   2.586   4.447   0.126 -0.5312  0.0406 -0.7198
  339DG      H5 7779   2.595   4.555   0.266 -1.1464  0.6510 -0.7275
  339DG      H6 7780   2.056   5.198  -0.135 -1.8344  0.2157  0.5830
  339DG      H7 7781   2.087   5.065  -0.255 -1.8372 -0.9426 -0.9901
  339DG      H8 7782   1.929   5.098  -0.183 -0.6902  2.4619  1.1515
  339DG      O9 7783   2.436   4.593   0.140  0.2126  0.5818 -0.9292
  339DG     O10 7784   2.071   5.022  -0.050  0.2661 -0.0158 -0.2357
  339DG     C11 7785   2.418   4.723   0.198  0.8090 -0.3700 -0.0250
  339DG     C12 7786   2.046   4.880  -0.061 -0.2030  0.1372 -0.3229
  339DG     H13 7787   2.472   4.791   0.133  1.2121 -0.0111  0.6696
  339DG     H14 7788   2.460   4.732   0.299  0.3495 -0.0218  0.1440
  339DG     H15 7789   2.102   4.835  -0.143 -0.0478 -0.5576  0.1496
  339DG     H16 7790   1.937   4.874  -0.071 -0.1953  0.7693 -0.9075
  339DG     C17 7791   2.269   4.758   0.204 -0.2347  0.9728 -0.4506
  339DG     C18 7792   2.088   4.815   0.074  0.3053 -0.0013  0.6722
  339DG     O19 7793   2.229   4.792   0.075 -0.0144  0.3035  0.0410
  339DG     H20 7794   2.263   4.839   0.277  1.1880  0.0685  0.7344
  339DG     H21 7795   2.218   4.669   0.241  1.4606  0.9670  2.2157
  339DG     H22 7796   2.058   4.883   0.153  1.0898 -0.3692  1.3061
  339DG     H23 7797   2.026   4.726   0.089  1.5577 -0.7041  1.8846
  340DG      C1 7798   4.019   1.485   2.086  0.5211  0.3590 -0.0905
  340DG      C2 7799   4.559   0.907   2.156 -0.2473  0.4217 -0.7764
  340DG      H3 7800   4.006   1.515   1.983 -0.4243 -1.2386 -0.4818
  340DG      H4 7801   3.986   1.564   2.153 -0.4603 -0.7063  0.7466
  340DG      H5 7802   3.949   1.403   2.105  1.8035 -0.8933 -0.6444
  340DG      H6 7803   4.639   0.884   2.227 -1.0242  0.8291  0.2541
  340DG      H7 7804   4.491   0.822   2.147 -0.3198  0.2090  1.2306
  340DG      H8 7805   4.605   0.923   2.059  0.1434  0.6502 -0.5538
  340DG      O9 7806   4.148   1.441   2.120  0.4373 -0.3775 -0.3635
  340DG     O10 7807   4.498   1.032   2.201 -0.2879  0.0097 -0.3097
  340DG     C11 7808   4.147   1.376   2.243  0.2282 -0.6550 -0.7347
  340DG     C12 7809   4.580   1.148   2.203  0.4878 -0.8295  0.1742
  340DG     H13 7810   4.080   1.291   2.229 -0.6207  0.0629 -1.1066
  340DG     H14 7811   4.093   1.439   2.314  2.3386 -0.4016  0.7095
  340DG     H15 7812   4.614   1.168   2.101  2.5628  0.8485  1.1149
  340DG     H16 7813   4.673   1.124   2.255  0.4591 -1.2432  0.0407
  340DG     C17 7814   4.290   1.356   2.302 -0.0001  0.7230 -0.3099
  340DG     C18 7815   4.505   1.259   2.279 -0.2214 -0.0861  0.3252
  340DG     O19 7816   4.378   1.278   2.224  0.0428 -0.1058 -0.4388
  340DG     H20 7817   4.286   1.302   2.396  1.6196 -1.1468 -1.2390
  340DG     H21 7818   4.339   1.453   2.313 -0.3048  0.8860 -0.3888
  340DG     H22 7819   4.491   1.233   2.384 -1.3965 -1.8132 -0.2180
  340DG     H23 7820   4.559   1.353   2.287  1.2341 -0.6176 -2.1675
  341DG      C1 7821   1.403   1.832   2.752  0.8394 -0.8372  0.4452
  341DG      C2 7822   0.896   2.260   2.952  0.3395 -0.1693 -0.0243
  341DG      H3 7823   1.399   1.778   2.846  1.2133 -2.5988 -0.5045
  341DG      H4 7824   1.455   1.925   2.774  0.2828 -0.5046  0.3611
  341DG      H5 7825   1.459   1.763   2.688  2.1605  0.3367  0.2845
  341DG      H6 7826   0.972   2.336   2.969 -0.6426  0.5582  1.2843
  341DG      H7 7827   0.807   2.306   2.911  0.0639  0.2901  1.0530
  341DG      H8 7828   0.858   2.225   3.048  1.2382 -0.5132  0.2154
  341DG      O9 7829   1.273   1.874   2.713 -0.1600 -0.4047  0.4932
  341DG     O10 7830   0.932   2.153   2.874  0.6395  0.2412  0.0977
  341DG     C11 7831   1.182   1.761   2.720  1.0490 -0.0181  0.0206
  341DG     C12 7832   0.841   2.046   2.882 -0.0002 -0.6797  0.6049
  341DG     H13 7833   1.184   1.714   2.818  0.9290  1.1648  0.6138
  341DG     H14 7834   1.221   1.686   2.651  2.4238  0.4060  0.2973
  341DG     H15 7835   0.737   2.075   2.863 -0.7094 -0.7345  3.8183
  341DG     H16 7836   0.831   1.990   2.975 -0.5718 -1.8994 -0.1722
  341DG     C17 7837   1.045   1.811   2.682  0.3671 -0.6837  0.0417
  341DG     C18 7838   0.884   1.952   2.773  0.2648  0.2584  0.3631
  341DG     O19 7839   1.017   1.907   2.784  0.3379  0.2740  0.1664
  341DG     H20 7840   0.971   1.732   2.674  0.4906 -0.7627 -0.3500
  341DG     H21 7841   1.060   1.858   2.585  0.4490 -1.0376 -0.1202
  341DG     H22 7842   0.815   1.868   2.780  0.3494  0.0891 -0.6164
  341DG     H23 7843   0.870   1.990   2.672  0.5568 -1.6302 -0.4364
  342DG      C1 7844   5.232   2.394   3.917  0.0522  0.0982 -0.0529
  342DG      C2 7845   5.216   1.828   4.470 -0.2486 -1.2620  0.2806
  342DG      H3 7846   5.146   2.435   3.862 -0.5529 -1.4614 -0.3340
  342DG      H4 7847   5.317   2.452   3.883  0.4481 -1.7760 -2.5819
  342DG      H5 7848   5.206   2.410   4.021  0.0619 -0.1235 -0.0151
  342DG      H6 7849   5.164   1.763   4.540 -0.3545  1.4604  2.9096
  342DG      H7 7850   5.300   1.776   4.423  1.3335 -1.2791  2.9556
  342DG      H8 7851   5.269   1.908   4.521  0.6522 -0.6458 -1.5254
  342DG      O9 7852   5.234   2.250   3.885 -0.1418 -0.7353 -0.0665
  342DG     O10 7853   5.124   1.874   4.372 -0.6775 -0.2398  0.2142
  342DG     C11 7854   5.356   2.185   3.919  0.2250 -0.8744 -0.0621
  342DG     C12 7855   5.160   1.988   4.301 -0.0441  0.0152 -0.3748
  342DG     H13 7856   5.431   2.242   3.974  0.5041 -1.6706  0.3910
  342DG     H14 7857   5.391   2.168   3.817 -0.9555 -2.8439 -0.1825
  342DG     H15 7858   5.213   2.060   4.364 -0.2663 -0.4463  0.3475
  342DG     H16 7859   5.071   2.036   4.260  0.3657  0.4323 -0.8003
  342DG     C17 7860   5.336   2.052   3.984  0.0114  0.4554  0.6014
  342DG     C18 7861   5.248   1.946   4.183  0.3708 -0.3361 -0.2852
  342DG     O19 7862   5.284   2.068   4.116  0.6618 -0.0389  0.2299
  342DG     H20 7863   5.434   2.005   3.994 -0.2184  0.0796  1.2084
  342DG     H21 7864   5.270   1.992   3.922  0.5764 -0.1342  0.5606
  342DG     H22 7865   5.344   1.898   4.203  0.2266 -0.1035  1.0683
  342DG     H23 7866   5.197   1.874   4.118  1.4841 -2.3852  0.9827
  343DG      C1 7867   0.296   2.185   3.587  0.7497  0.1384 -0.0003
  343DG      C2 7868   0.289   1.600   4.056 -0.0598 -0.1310  0.2997
  343DG      H3 7869   0.282   2.286   3.550 -0.8902 -0.6869 -1.8010
  343DG      H4 7870   0.233   2.128   3.519 -0.5066  0.0856  1.1554
  343DG      H5 7871   0.401   2.158   3.584  0.4431 -1.1530  0.2743
  343DG      H6 7872   0.254   1.562   3.960  0.7392  1.5916 -0.7396
  343DG      H7 7873   0.382   1.542   4.063 -0.0040 -0.6372 -2.9669
  343DG      H8 7874   0.209   1.568   4.121 -2.1266  1.1038 -1.4926
  343DG      O9 7875   0.230   2.172   3.709 -0.5017 -0.1513 -0.1374
  343DG     O10 7876   0.308   1.745   4.062 -0.5285 -0.4466 -0.2993
  343DG     C11 7877   0.323   2.195   3.825 -0.6681  0.5560 -0.2311
  343DG     C12 7878   0.390   1.781   3.951 -0.6531 -0.3513  0.4134
  343DG     H13 7879   0.328   2.304   3.830 -2.8099  0.6546  0.6338
  343DG     H14 7880   0.421   2.155   3.798 -0.8179 -1.1996  1.5835
  343DG     H15 7881   0.350   1.753   3.854  2.1741  1.8119 -1.5156
  343DG     H16 7882   0.489   1.741   3.972 -0.5809 -0.9648 -0.9653
  343DG     C17 7883   0.262   2.131   3.950  0.3911  0.3575  0.0215
  343DG     C18 7884   0.393   1.931   3.954  0.6122 -0.4443  0.3539
  343DG     O19 7885   0.260   1.988   3.949  0.2203 -0.1859  0.8619
  343DG     H20 7886   0.168   2.179   3.979  0.7841  0.6895  0.7893
  343DG     H21 7887   0.333   2.167   4.024 -0.7397 -0.5796  1.6356
  343DG     H22 7888   0.433   1.958   4.052  0.5020  0.9106  0.0455
  343DG     H23 7889   0.463   1.966   3.879  0.6430  2.4645  1.5841
  344DG      C1 7890   1.788   3.580   3.048 -0.5504  0.2599 -0.1196
  344DG      C2 7891   1.132   3.752   3.034 -0.0558  0.1750  0.1556
  344DG      H3 7892   1.893   3.586   3.077 -0.8937  2.7514  0.8025
  344DG      H4 7893   1.783   3.572   2.940 -0.7532  0.7806 -0.1506
  344DG      H5 7894   1.751   3.482   3.080 -1.0261 -0.0295 -1.4652
  344DG      H6 7895   1.090   3.834   3.092 -0.7496 -1.1884  1.6698
  344DG      H7 7896   1.095   3.755   2.932 -0.4908  2.8206  0.3315
  344DG      H8 7897   1.101   3.663   3.089 -0.2759 -0.5314 -1.0759
  344DG      O9 7898   1.705   3.689   3.104 -0.3195  0.2927  0.1832
  344DG     O10 7899   1.271   3.758   3.032 -0.3663 -0.0492 -0.2995
  344DG     C11 7900   1.757   3.813   3.070 -0.4299 -0.3672  0.4631
  344DG     C12 7901   1.320   3.886   2.980 -0.0749  0.5770 -0.0169
  344DG     H13 7902   1.766   3.835   2.964 -0.9593 -0.4076  0.4119
  344DG     H14 7903   1.855   3.827   3.116  0.2736  2.8863 -1.6763
  344DG     H15 7904   1.280   3.960   3.049  0.0152  0.4612  0.1601
  344DG     H16 7905   1.280   3.910   2.882 -1.4125  0.1751  0.4054
  344DG     C17 7906   1.665   3.920   3.134 -0.0308  0.0366  0.2038
  344DG     C18 7907   1.474   3.903   2.988 -0.8219  0.4531  0.7950
  344DG     O19 7908   1.528   3.876   3.115  0.2420  0.6995 -0.2436
  344DG     H20 7909   1.699   4.021   3.110  0.7323 -0.1886  0.3132
  344DG     H21 7910   1.683   3.917   3.241 -0.0308 -0.6496  0.1890
  344DG     H22 7911   1.503   3.831   2.911 -0.2541 -0.1040  1.5270
  344DG     H23 7912   1.506   4.004   2.961  0.2117  0.0077  0.2709
  345DG      C1 7913   4.628   0.811   1.113  0.8828 -0.1422 -0.0689
  345DG      C2 7914   4.332   1.364   0.579 -0.8371 -0.3196 -0.0009
  345DG      H3 7915   4.694   0.762   1.185  0.0706 -0.7855  0.2611
  345DG      H4 7916   4.577   0.725   1.070 -0.4545  0.1422  0.8662
  345DG      H5 7917   4.541   0.848   1.168 -1.0327 -0.4790 -2.7006
  345DG      H6 7918   4.372   1.449   0.524  0.8329 -1.0990 -0.0305
  345DG      H7 7919   4.279   1.299   0.509  0.9309  0.1508 -1.8600
  345DG      H8 7920   4.261   1.412   0.647 -1.0939 -1.0644  0.2690
  345DG      O9 7921   4.687   0.891   1.008 -0.9533  0.4410  0.6224
  345DG     O10 7922   4.437   1.287   0.645  0.0391  0.0265  0.4332
  345DG     C11 7923   4.592   0.938   0.915 -0.3859 -0.6364 -0.3237
  345DG     C12 7924   4.545   1.253   0.562  0.3638  0.0821  0.3903
  345DG     H13 7925   4.525   1.009   0.963  0.9096  1.1962 -1.0906
  345DG     H14 7926   4.532   0.853   0.883 -1.6304 -0.3655  1.1943
  345DG     H15 7927   4.578   1.347   0.516  2.1849 -0.2380  0.9781
  345DG     H16 7928   4.516   1.189   0.479 -1.2596  0.6418  0.4848
  345DG     C17 7929   4.672   0.998   0.791  0.5598  0.4559  0.7733
  345DG     C18 7930   4.647   1.187   0.646 -0.4746  0.2675 -1.1386
  345DG     O19 7931   4.584   1.087   0.727  0.4214  0.2394  0.5875
  345DG     H20 7932   4.711   0.924   0.722  0.0640  0.4280  0.5170
  345DG     H21 7933   4.758   1.054   0.826  1.1258  1.1694 -1.5741
  345DG     H22 7934   4.724   1.149   0.579  0.3207 -1.3400  0.5770
  345DG     H23 7935   4.702   1.257   0.709 -1.4685  0.8869 -0.9477
  346DG      C1 7936   4.990   0.920   1.196 -0.2923 -0.0431 -0.1666
  346DG      C2 7937   4.772   0.307   1.101  0.1713 -0.4774  0.1389
  346DG      H3 7938   5.005   0.868   1.290 -0.4665  0.7149  0.2867
  346DG      H4 7939   4.882   0.931   1.182 -0.2196  0.2518 -0.5195
  346DG      H5 7940   5.037   1.018   1.193 -0.0478 -0.0419  2.1626
  346DG      H6 7941   4.767   0.414   1.119  0.7978  0.0739 -2.4544
  346DG      H7 7942   4.689   0.259   1.153  0.6795 -1.8849 -0.3001
  346DG      H8 7943   4.861   0.273   1.154  0.1907  0.1656  0.5257
  346DG      O9 7944   5.020   0.845   1.080 -0.6790  0.5006  0.0336
  346DG     O10 7945   4.767   0.272   0.964 -0.5327  0.2097  0.1344
  346DG     C11 7946   4.994   0.703   1.097 -0.2014 -0.4415 -0.7126
  346DG     C12 7947   4.877   0.302   0.885 -0.1988  0.1362 -0.1073
  346DG     H13 7948   4.912   0.683   1.166  1.3307 -0.6727  1.1255
  346DG     H14 7949   5.083   0.653   1.134  0.2047 -0.1539 -1.2835
  346DG     H15 7950   4.843   0.263   0.789 -1.1450  1.5800 -0.3934
  346DG     H16 7951   4.979   0.268   0.901 -0.3254 -1.5224 -2.3099
  346DG     C17 7952   4.956   0.651   0.957 -0.2263  0.0731 -0.4596
  346DG     C18 7953   4.892   0.449   0.853  0.1902 -0.3629 -0.6649
  346DG     O19 7954   4.952   0.510   0.968 -0.0748  0.1570  0.5304
  346DG     H20 7955   5.030   0.689   0.885  1.1212 -1.1466  0.2449
  346DG     H21 7956   4.856   0.678   0.922 -0.4953 -0.6763 -0.2812
  346DG     H22 7957   4.947   0.476   0.762 -0.0124  1.6294 -0.2466
  346DG     H23 7958   4.788   0.475   0.836 -0.1122 -0.5263  0.8060
  347DG      C1 7959   2.970   5.436   4.794 -0.0954  0.2072  0.4993
  347DG      C2 7960   3.054   4.981   4.194  0.1962 -0.8659 -0.4377
  347DG      H3 7961   3.019   5.371   4.867 -1.2438  0.0828  1.1867
  347DG      H4 7962   2.901   5.489   4.859  1.1205  0.6131  1.4998
  347DG      H5 7963   3.050   5.496   4.752  0.6523 -0.2819  1.2014
  347DG      H6 7964   2.999   4.894   4.159  0.9392 -1.8666  0.8215
  347DG      H7 7965   3.120   5.021   4.117 -2.0889  3.1352 -0.5984
  347DG      H8 7966   3.112   4.953   4.281 -1.3265  0.0855  0.9257
  347DG      O9 7967   2.886   5.367   4.703 -0.6683  0.6863 -0.2226
  347DG     O10 7968   2.959   5.085   4.224  0.2391  0.1020 -0.3823
  347DG     C11 7969   2.836   5.444   4.594 -0.5061  0.4418  0.3234
  347DG     C12 7970   2.855   5.053   4.320 -0.2084  1.0812 -0.1739
  347DG     H13 7971   2.914   5.494   4.537  0.1807  0.7488  1.4919
  347DG     H14 7972   2.773   5.522   4.638 -0.4126  0.0188  1.2179
  347DG     H15 7973   2.890   4.989   4.401 -0.4592  0.5834 -0.4529
  347DG     H16 7974   2.788   4.984   4.270  0.5928 -0.3783  0.7130
  347DG     C17 7975   2.748   5.348   4.511 -0.2491 -0.2345  0.4675
  347DG     C18 7976   2.768   5.163   4.364  0.2323  0.3159  0.1355
  347DG     O19 7977   2.832   5.241   4.464  0.1499 -0.1631 -0.5849
  347DG     H20 7978   2.713   5.405   4.425  1.9110  0.2799 -0.1346
  347DG     H21 7979   2.666   5.310   4.572  0.6109  0.6472  2.2250
  347DG     H22 7980   2.726   5.220   4.280 -0.1941  0.1441  0.2285
  347DG     H23 7981   2.676   5.121   4.406 -2.3997  2.4615 -2.9059
  348DG      C1 7982   4.378   4.986   1.804 -0.2061 -0.0371 -0.3440
  348DG      C2 7983   4.181   4.970   2.499  0.5873 -0.7046  0.6268
  348DG      H3 7984   4.459   5.003   1.733  1.9433  0.2929  2.0668
  348DG      H4 7985   4.294   5.051   1.779  1.2431  1.7315 -0.8496
  348DG      H5 7986   4.349   4.882   1.815 -0.7545  0.0346 -1.0105
  348DG      H6 7987   4.221   4.881   2.548 -0.0156 -0.6582  1.2072
  348DG      H7 7988   4.177   5.047   2.576 -0.4364  1.2903 -1.2924
  348DG      H8 7989   4.079   4.946   2.469 -0.2755  0.5755  2.3509
  348DG      O9 7990   4.419   5.014   1.933  0.1801  0.4536 -0.4111
  348DG     O10 7991   4.250   5.024   2.388  0.1790  0.1365  0.1301
  348DG     C11 7992   4.426   5.146   1.955 -0.1006  0.4909 -1.0829
  348DG     C12 7993   4.388   5.027   2.418 -0.1020  0.0381 -0.4139
  348DG     H13 7994   4.329   5.196   1.951 -1.6907 -2.4875 -2.3850
  348DG     H14 7995   4.477   5.214   1.886 -2.4580  2.3435 -1.1505
  348DG     H15 7996   4.417   4.922   2.410  0.7786  0.3794 -2.1521
  348DG     H16 7997   4.416   5.062   2.518 -1.5126  2.3649 -0.7674
  348DG     C17 7998   4.496   5.161   2.088 -0.0208 -0.4535 -1.4642
  348DG     C18 7999   4.474   5.104   2.316 -0.3760  0.0797 -0.5071
  348DG     O19 8000   4.436   5.080   2.184  0.2928  0.1127  0.7395
  348DG     H20 8001   4.508   5.266   2.113  0.7268 -0.9453  0.3864
  348DG     H21 8002   4.600   5.130   2.076  0.6128  1.3721 -0.9551
  348DG     H22 8003   4.460   5.211   2.332 -0.2326  0.1064 -0.5600
  348DG     H23 8004   4.581   5.092   2.332  0.1091  3.8531  0.0755
  349DG      C1 8005   2.178   3.010   3.602 -0.1274 -0.0241  0.1200
  349DG      C2 8006   2.917   3.021   3.323  0.1775 -0.6497 -0.0344
  349DG      H3 8007   2.242   2.957   3.672  2.3569  2.2139 -0.3067
  349DG      H4 8008   2.085   2.957   3.582 -0.2073 -0.3146  1.2355
  349DG      H5 8009   2.147   3.102   3.650  2.2268 -0.4982  2.7818
  349DG      H6 8010   2.979   3.091   3.267 -1.6780 -0.3046 -1.7589
  349DG      H7 8011   2.924   3.062   3.424  0.6038  1.1857 -0.7661
  349DG      H8 8012   2.957   2.921   3.313 -2.4738 -1.7300 -0.5567
  349DG      O9 8013   2.255   3.057   3.490 -0.3469  0.0696  0.5212
  349DG     O10 8014   2.778   2.998   3.289 -0.4836 -0.0932  0.2820
  349DG     C11 8015   2.265   2.955   3.393 -0.2630  0.3817  0.1721
  349DG     C12 8016   2.706   3.115   3.285 -0.3481 -0.0778  0.0856
  349DG     H13 8017   2.169   2.914   3.363  0.1112 -0.0100 -0.5193
  349DG     H14 8018   2.315   2.873   3.444 -1.5575 -1.0653 -0.7794
  349DG     H15 8019   2.763   3.179   3.217 -0.7742  1.6726  1.3092
  349DG     H16 8020   2.703   3.175   3.376  2.1926  1.5598 -0.8042
  349DG     C17 8021   2.354   3.003   3.274  0.2994  0.1122  0.1619
  349DG     C18 8022   2.566   3.097   3.229 -0.3237  0.2401  0.0104
  349DG     O19 8023   2.487   3.032   3.330 -0.0526  0.1276  0.0299
  349DG     H20 8024   2.302   3.090   3.233  0.0578 -0.3762 -0.5952
  349DG     H21 8025   2.362   2.931   3.193  0.2297  1.0481 -0.7122
  349DG     H22 8026   2.515   3.188   3.198 -0.8367  0.0427  0.2798
  349DG     H23 8027   2.582   3.035   3.140 -0.2269 -1.6916  1.3133
  350DG      C1 8028   3.016   0.864   3.507  0.4446  0.1525 -0.2760
  350DG      C2 8029   3.409   1.227   3.870  0.0971 -0.3107  0.8610
  350DG      H3 8030   2.996   0.827   3.406  2.4257 -0.1983 -0.5690
  350DG      H4 8031   2.922   0.899   3.550  1.7770  1.5648  1.6645
  350DG      H5 8032   3.047   0.787   3.577  0.3611  1.7570  1.5986
  350DG      H6 8033   3.447   1.221   3.768 -0.9840  1.8429  0.2855
  350DG      H7 8034   3.464   1.293   3.938 -1.2982 -0.5029  2.2273
  350DG      H8 8035   3.414   1.123   3.904  3.5822 -1.0518 -1.3757
  350DG      O9 8036   3.106   0.974   3.507  0.0116 -0.2087 -0.5517
  350DG     O10 8037   3.277   1.259   3.846 -0.7311 -0.2591 -0.8726
  350DG     C11 8038   3.056   1.088   3.443  0.5383 -0.0192  0.1051
  350DG     C12 8039   3.251   1.375   3.778  0.0828  0.3341  0.8172
  350DG     H13 8040   2.951   1.105   3.468 -0.4800 -1.9464 -2.4250
  350DG     H14 8041   3.048   1.062   3.337  0.4996  0.3601  0.0105
  350DG     H15 8042   3.322   1.454   3.803  1.0690 -0.0769 -0.5664
  350DG     H16 8043   3.155   1.416   3.809 -0.4563 -1.2438  1.2808
  350DG     C17 8044   3.155   1.204   3.457  0.1592  0.2480 -0.5852
  350DG     C18 8045   3.247   1.344   3.626  0.1646  0.0411 -0.0777
  350DG     O19 8046   3.156   1.240   3.597  0.0650  0.0635 -0.2714
  350DG     H20 8047   3.116   1.292   3.407  0.9192  0.9058 -0.0359
  350DG     H21 8048   3.252   1.187   3.409  0.5958  1.3020 -0.1089
  350DG     H22 8049   3.206   1.428   3.570 -1.6700 -2.1195 -2.1917
  350DG     H23 8050   3.344   1.305   3.595  0.1651  0.8188 -1.1231
  351DG      C1 8051   3.468   4.843   0.947  0.7653 -0.7792  0.1977
  351DG      C2 8052   3.144   5.154   1.203  0.6602 -0.2133 -0.5333
  351DG      H3 8053   3.493   4.949   0.934 -1.6197 -0.1464  0.4100
  351DG      H4 8054   3.386   4.817   0.880  2.5631 -0.9026 -2.0867
  351DG      H5 8055   3.554   4.792   0.904  1.0874  1.0810 -1.5270
  351DG      H6 8056   3.176   5.259   1.196 -1.7825  0.6723  0.5795
  351DG      H7 8057   3.059   5.133   1.138  0.6385 -1.9713  0.0124
  351DG      H8 8058   3.118   5.157   1.309 -2.3696  2.1839 -1.1947
  351DG      O9 8059   3.443   4.815   1.079  0.3314 -0.0773  0.5028
  351DG     O10 8060   3.246   5.063   1.169 -0.0223  0.0074 -0.6299
  351DG     C11 8061   3.557   4.833   1.157  0.6629 -0.0764 -0.1665
  351DG     C12 8062   3.375   5.116   1.200  0.0099  0.1677 -0.0332
  351DG     H13 8063   3.612   4.924   1.133 -1.6231  1.0117 -1.6382
  351DG     H14 8064   3.622   4.746   1.151  1.0361  0.0361  1.5738
  351DG     H15 8065   3.395   5.223   1.203  0.5986  0.0501  0.3123
  351DG     H16 8066   3.441   5.080   1.120 -0.4877 -1.4252  0.2284
  351DG     C17 8067   3.511   4.833   1.304  0.8809 -0.5370 -0.6431
  351DG     C18 8068   3.429   5.056   1.331  0.3356 -0.6142 -0.5297
  351DG     O19 8069   3.392   4.915   1.335  0.1361  0.7636 -0.1456
  351DG     H20 8070   3.593   4.857   1.372  0.2938  2.0905 -0.7804
  351DG     H21 8071   3.466   4.736   1.327 -1.0159  0.5018  0.2726
  351DG     H22 8072   3.534   5.084   1.341  0.5703 -1.5846 -0.1825
  351DG     H23 8073   3.369   5.106   1.407  2.2155  1.8406 -0.5218
  352DG      C1 8074   1.569   4.867   1.632  0.1300 -0.1634  0.3120
  352DG      C2 8075   1.689   4.531   2.268 -0.2616  0.6138  0.2749
  352DG      H3 8076   1.666   4.873   1.582  0.1092  2.3994  0.4396
  352DG      H4 8077   1.535   4.969   1.650  0.3004 -0.2712  1.3098
  352DG      H5 8078   1.507   4.817   1.557 -0.6320 -0.5322  1.1648
  352DG      H6 8079   1.700   4.624   2.323 -2.3035  1.1545 -0.1432
  352DG      H7 8080   1.585   4.502   2.280 -0.2363  1.0158  1.6489
  352DG      H8 8081   1.749   4.458   2.323 -0.4015  0.0792 -0.2665
  352DG      O9 8082   1.579   4.794   1.754  0.3378 -0.0254  0.2030
  352DG     O10 8083   1.732   4.537   2.136  0.2085 -0.9577  0.1604
  352DG     C11 8084   1.453   4.768   1.813 -0.0075 -0.2969 -0.0994
  352DG     C12 8085   1.702   4.422   2.059  0.0061  0.5286  0.9516
  352DG     H13 8086   1.370   4.775   1.744 -2.3504 -0.0852  2.5452
  352DG     H14 8087   1.426   4.836   1.894 -0.8407 -1.8585  1.0060
  352DG     H15 8088   1.695   4.326   2.110  0.5263  0.3148  0.6421
  352DG     H16 8089   1.780   4.408   1.984 -0.4255  2.4851  0.0780
  352DG     C17 8090   1.451   4.622   1.866  0.0728 -0.3523 -0.4922
  352DG     C18 8091   1.560   4.445   1.994 -0.1587  0.7840  0.8010
  352DG     O19 8092   1.560   4.581   1.949  0.5239 -0.2661 -0.4367
  352DG     H20 8093   1.445   4.566   1.773  1.3922  0.3021 -1.0043
  352DG     H21 8094   1.361   4.604   1.924  0.7124 -0.9773  0.3374
  352DG     H22 8095   1.560   4.380   1.906  3.7763  0.7680  0.6337
  352DG     H23 8096   1.476   4.430   2.061 -1.0930  3.0782  0.2395
  353DG      C1 8097   0.266   4.076   2.480  0.1001  0.3805 -0.3353
  353DG      C2 8098   1.017   3.979   2.695 -0.0903  0.0204  0.4024
  353DG      H3 8099   0.314   4.174   2.473  0.6913  0.2299  1.2942
  353DG      H4 8100   0.162   4.064   2.509  0.2702 -0.8638 -0.2003
  353DG      H5 8101   0.272   4.035   2.379 -0.7253  0.0707 -0.2688
  353DG      H6 8102   1.072   3.971   2.602  0.8498 -2.3071  1.0832
  353DG      H7 8103   1.058   4.056   2.761 -0.4972  1.1040 -0.5762
  353DG      H8 8104   1.024   3.882   2.745  1.3097  0.6760  1.5519
  353DG      O9 8105   0.346   3.993   2.562  0.3092 -0.6121  0.2388
  353DG     O10 8106   0.880   4.026   2.688  0.0817  0.3931  0.1146
  353DG     C11 8107   0.351   4.041   2.693 -0.2629 -0.3915 -0.0967
  353DG     C12 8108   0.783   3.920   2.671  0.0928 -0.4042  0.0113
  353DG     H13 8109   0.253   4.047   2.739 -0.1827  1.7575 -0.1245
  353DG     H14 8110   0.404   4.136   2.700 -1.7740  0.7334 -2.5707
  353DG     H15 8111   0.807   3.838   2.739  0.4920 -2.3086 -2.3216
  353DG     H16 8112   0.780   3.889   2.567 -0.1062  1.4510 -0.5857
  353DG     C17 8113   0.427   3.946   2.786  0.2523  0.0054  0.0847
  353DG     C18 8114   0.644   3.984   2.697 -0.1365 -0.5251  0.3157
  353DG     O19 8115   0.546   3.885   2.732 -0.2866  0.4544  0.1095
  353DG     H20 8116   0.369   3.856   2.809  1.0678 -0.9185 -1.3119
  353DG     H21 8117   0.439   3.996   2.882 -1.0198  1.2906 -0.3900
  353DG     H22 8118   0.664   4.045   2.784 -0.9520 -3.2669  2.5671
  353DG     H23 8119   0.615   4.046   2.612  0.6820 -1.7022 -0.8599
  354DG      C1 8120   4.259   2.440   1.138 -0.0184 -0.1012  0.6828
  354DG      C2 8121   4.091   2.236   0.743 -0.3013 -0.5741 -0.3326
  354DG      H3 8122   4.232   2.537   1.097 -0.0386 -0.7412 -0.8663
  354DG      H4 8123   4.354   2.418   1.090  0.0218  1.1553  0.1465
  354DG      H5 8124   4.288   2.448   1.243 -0.3196  0.2803  0.7421
  354DG      H6 8125   4.130   2.235   0.845  1.2359  2.2156 -0.7813
  354DG      H7 8126   4.119   2.144   0.692 -0.8365 -0.3726 -1.0050
  354DG      H8 8127   4.148   2.317   0.698 -0.4964 -0.2382  0.0124
  354DG      O9 8128   4.159   2.343   1.117 -0.0640 -0.0799 -0.0119
  354DG     O10 8129   3.955   2.253   0.736 -0.0749  0.0637 -0.6744
  354DG     C11 8130   4.036   2.376   1.183 -0.3875  0.5652  0.1470
  354DG     C12 8131   3.882   2.147   0.787  0.0780 -0.4828 -0.3642
  354DG     H13 8132   3.999   2.476   1.159  2.1063  1.4583 -0.2586
  354DG     H14 8133   4.054   2.368   1.291  1.2153 -0.7819 -0.1824
  354DG     H15 8134   3.915   2.053   0.743  0.8591 -0.8976  1.0706
  354DG     H16 8135   3.777   2.154   0.757  0.2562 -0.5614 -1.0361
  354DG     C17 8136   3.948   2.266   1.131 -0.4365 -0.0283 -0.6268
  354DG     C18 8137   3.878   2.140   0.935 -0.3098 -0.2165 -0.0932
  354DG     O19 8138   3.937   2.262   0.987  0.3300 -0.5465  0.2031
  354DG     H20 8139   3.847   2.265   1.170 -0.1505  0.5915  0.1611
  354DG     H21 8140   3.983   2.170   1.169 -0.4312  1.1144  2.5958
  354DG     H22 8141   3.772   2.154   0.958  0.6223  3.9131  2.8290
  354DG     H23 8142   3.922   2.051   0.979 -2.4097 -0.5385  1.5287
  355DG      C1 8143   1.585   0.093   1.774 -0.3704 -0.0405 -0.3254
  355DG      C2 8144   1.424   0.858   1.957 -0.0725 -1.0408  0.1310
  355DG      H3 8145   1.683   0.134   1.752  0.3064 -1.7978 -0.7356
  355DG      H4 8146   1.509   0.098   1.696  0.8719 -0.6455 -1.6020
  355DG      H5 8147   1.608  -0.014   1.772  1.5084  0.3480 -1.1822
  355DG      H6 8148   1.323   0.895   1.939  0.0616 -1.6781 -2.4272
  355DG      H7 8149   1.449   0.902   2.053  1.8505  1.5787 -1.4441
  355DG      H8 8150   1.491   0.913   1.891  1.5082  1.0310  3.2476
  355DG      O9 8151   1.546   0.150   1.899  0.2815 -0.0962 -0.1664
  355DG     O10 8152   1.428   0.707   1.963 -0.5638  0.2736 -0.0252
  355DG     C11 8153   1.547   0.293   1.903  0.1103  0.6289 -0.5591
  355DG     C12 8154   1.341   0.651   2.058  0.4203  0.2394 -0.2720
  355DG     H13 8155   1.476   0.333   1.831 -0.2345  1.2322  0.1022
  355DG     H14 8156   1.647   0.333   1.889  0.3358  0.6178  0.8610
  355DG     H15 8157   1.246   0.689   2.020  0.8172  1.3706 -0.1564
  355DG     H16 8158   1.361   0.695   2.156 -0.6700  1.1371 -0.4273
  355DG     C17 8159   1.501   0.320   2.050  0.4325  1.2480  0.4496
  355DG     C18 8160   1.355   0.497   2.063  0.6093 -0.4819  0.1271
  355DG     O19 8161   1.494   0.461   2.071  0.6625 -0.4819 -0.6959
  355DG     H20 8162   1.573   0.273   2.117 -1.6040 -3.5343 -0.3256
  355DG     H21 8163   1.410   0.266   2.071  1.1657  0.3922  1.5688
  355DG     H22 8164   1.293   0.450   2.139  0.9783 -1.6705 -0.2904
  355DG     H23 8165   1.329   0.451   1.968  1.2728 -0.7843  0.0838
  356DG      C1 8166   4.658   3.583   5.028  0.1242 -0.2999  0.1311
  356DG      C2 8167   4.280   3.060   5.126 -0.2989 -0.2255  0.1903
  356DG      H3 8168   4.754   3.582   4.977  0.6728 -2.0238  1.1197
  356DG      H4 8169   4.663   3.545   5.130 -0.6731 -0.4757  0.1126
  356DG      H5 8170   4.605   3.678   5.023  1.4312  0.3745 -2.5993
  356DG      H6 8171   4.323   3.023   5.220 -0.6587 -0.4830  0.2576
  356DG      H7 8172   4.239   3.155   5.159  0.4376  0.4534 -0.8105
  356DG      H8 8173   4.200   2.992   5.094 -1.0211  0.5477  0.3164
  356DG      O9 8174   4.593   3.477   4.952  0.3362 -0.2644  0.4455
  356DG     O10 8175   4.372   3.096   5.026 -0.3469  0.6122 -0.3602
  356DG     C11 8176   4.566   3.508   4.810 -0.2186 -0.2138 -0.0158
  356DG     C12 8177   4.313   3.107   4.895 -0.0687 -0.1285 -0.1287
  356DG     H13 8178   4.641   3.564   4.754 -0.6941 -0.8293 -1.3292
  356DG     H14 8179   4.478   3.570   4.796  0.0013  0.0198 -0.4070
  356DG     H15 8180   4.225   3.171   4.890 -0.6917 -1.0154 -0.9870
  356DG     H16 8181   4.296   3.006   4.859  0.9663 -0.3643 -0.0005
  356DG     C17 8182   4.515   3.376   4.745 -0.2239  0.9338 -0.6703
  356DG     C18 8183   4.413   3.170   4.799 -0.1678 -0.1870  0.2141
  356DG     O19 8184   4.451   3.294   4.844  0.2363 -0.5183  1.0218
  356DG     H20 8185   4.598   3.314   4.710 -0.1527  0.0078  1.0128
  356DG     H21 8186   4.444   3.381   4.663 -0.3568 -2.3108 -0.8870
  356DG     H22 8187   4.489   3.094   4.780 -1.1677 -0.7080 -1.9625
  356DG     H23 8188   4.355   3.179   4.707 -0.3040  2.8555  0.4972
  357DG      C1 8189   2.162   4.887   0.937 -0.4271  0.1868  0.2292
  357DG      C2 8190   1.949   5.469   1.293 -0.3529  0.1590 -0.3804
  357DG      H3 8191   2.066   4.838   0.924 -1.4928  1.6178  2.2829
  357DG      H4 8192   2.187   4.899   1.042  0.0819 -1.2157  0.2936
  357DG      H5 8193   2.234   4.827   0.881 -0.5392  0.1309  0.1455
  357DG      H6 8194   1.859   5.411   1.269 -0.4195  0.0661  0.0732
  357DG      H7 8195   1.985   5.443   1.392  0.7402 -0.9254 -1.0360
  357DG      H8 8196   1.925   5.574   1.277 -0.4016  0.1004 -0.7035
  357DG      O9 8197   2.181   5.013   0.873 -0.3166  0.1275 -0.1721
  357DG     O10 8198   2.060   5.447   1.204  0.0238  0.6770 -0.3517
  357DG     C11 8199   2.298   5.077   0.912  0.1310  0.0385  0.0057
  357DG     C12 8200   2.017   5.448   1.065 -0.5156  0.2003  0.4747
  357DG     H13 8201   2.378   5.047   0.845 -1.1073 -2.2650 -0.5555
  357DG     H14 8202   2.336   5.051   1.011  2.1142 -0.9443 -0.9491
  357DG     H15 8203   1.980   5.547   1.040 -1.2309 -0.5647 -1.7565
  357DG     H16 8204   1.937   5.375   1.048 -0.6123 -0.1225  2.0767
  357DG     C17 8205   2.263   5.221   0.889  0.0621  0.1444 -0.2171
  357DG     C18 8206   2.126   5.408   0.963  0.1799  0.0466 -0.2568
  357DG     O19 8207   2.161   5.272   0.978  0.0366  0.4241 -0.3326
  357DG     H20 8208   2.228   5.223   0.785 -0.3065 -1.7935 -0.1645
  357DG     H21 8209   2.357   5.276   0.894 -0.6116  1.3526 -0.3213
  357DG     H22 8210   2.087   5.431   0.864  0.9851 -2.1893 -1.1671
  357DG     H23 8211   2.216   5.469   0.975  0.3176 -0.1217 -0.4071
  358DG      C1 8212   5.034   0.386   2.114 -0.2335  0.1207 -0.3994
  358DG      C2 8213   5.742   0.147   2.178 -0.3224  0.9824  0.1562
  358DG      H3 8214   4.964   0.467   2.135 -1.2698 -1.4199  2.8842
  358DG      H4 8215   4.993   0.295   2.160  0.1692  0.3101  0.3503
  358DG      H5 8216   5.038   0.368   2.007 -0.0951 -1.1004 -0.2110
  358DG      H6 8217   5.815   0.100   2.245 -2.0332 -4.3864 -1.1853
  358DG      H7 8218   5.704   0.057   2.129  0.0751  0.8849  0.0233
  358DG      H8 8219   5.788   0.198   2.094  0.0614 -1.9234 -1.5534
  358DG      O9 8220   5.166   0.411   2.156 -0.2912  0.0807  0.2063
  358DG     O10 8221   5.639   0.228   2.231  0.7702  0.5300  0.1579
  358DG     C11 8222   5.184   0.418   2.299 -0.3247 -0.1076 -0.1565
  358DG     C12 8223   5.647   0.366   2.204  0.0087  0.3697 -0.0364
  358DG     H13 8224   5.168   0.329   2.360 -1.5615 -0.7084 -1.3067
  358DG     H14 8225   5.105   0.480   2.342 -2.2521 -2.0729 -0.7293
  358DG     H15 8226   5.619   0.379   2.099  0.7882 -2.2534 -0.6207
  358DG     H16 8227   5.752   0.392   2.213  0.5538 -2.1397  1.6378
  358DG     C17 8228   5.319   0.473   2.321  0.0791 -0.5885  0.3691
  358DG     C18 8229   5.550   0.444   2.290 -0.3162 -0.0311  0.1160
  358DG     O19 8230   5.418   0.386   2.274 -0.3549  0.3340 -0.1716
  358DG     H20 8231   5.337   0.487   2.427 -1.3073 -0.9803  0.6714
  358DG     H21 8232   5.334   0.574   2.283 -1.0558  0.3168  2.2191
  358DG     H22 8233   5.598   0.437   2.388  0.4581  1.6646 -0.0992
  358DG     H23 8234   5.554   0.549   2.260 -0.8185 -0.5031 -1.7145
  359DG      C1 8235   1.899   2.816   2.643 -0.5611  0.2374 -0.3950
  359DG      C2 8236   2.253   3.503   2.611  0.1841 -0.3402 -0.7769
  359DG      H3 8237   1.985   2.750   2.631 -0.2113  0.9197 -1.8822
  359DG      H4 8238   1.808   2.757   2.652 -2.4072  2.8853 -0.4114
  359DG      H5 8239   1.919   2.866   2.738  2.2171 -1.2132 -0.1058
  359DG      H6 8240   2.260   3.598   2.558  0.1686 -1.2313 -2.4699
  359DG      H7 8241   2.202   3.511   2.707 -1.3956  1.3557 -1.6854
  359DG      H8 8242   2.353   3.462   2.628 -0.6201 -2.4249 -0.7880
  359DG      O9 8243   1.895   2.906   2.532  0.0080  0.2130 -0.4196
  359DG     O10 8244   2.191   3.412   2.530  0.5300  0.3158 -0.1794
  359DG     C11 8245   1.971   3.026   2.544 -0.1220  0.3303  0.9050
  359DG     C12 8246   2.076   3.460   2.466  0.1652  0.7179 -0.2202
  359DG     H13 8247   2.073   2.997   2.518 -0.4854 -0.7697  0.6624
  359DG     H14 8248   1.958   3.072   2.642 -0.5186  1.1068  0.4965
  359DG     H15 8249   2.105   3.548   2.409  1.6832  1.2305  1.2573
  359DG     H16 8250   2.006   3.495   2.543  1.3774  0.0487  1.2464
  359DG     C17 8251   1.937   3.137   2.441  0.1881  0.0704 -0.1880
  359DG     C18 8252   2.019   3.349   2.384 -0.4453  0.6722  0.5575
  359DG     O19 8253   2.004   3.249   2.482 -0.6438 -0.7142 -0.2957
  359DG     H20 8254   1.829   3.149   2.436  0.2796  0.6870 -0.8025
  359DG     H21 8255   1.975   3.097   2.348  0.1420 -2.8490  0.9267
  359DG     H22 8256   1.927   3.392   2.344 -0.2249  1.4919  0.9201
  359DG     H23 8257   2.083   3.318   2.301 -1.1773  2.4970 -0.7443
  360DG      C1 8258   1.210   4.185   1.396  0.4869 -0.4547  0.5843
  360DG      C2 8259   0.612   4.703   1.412 -0.9105  0.8191  0.3520
  360DG      H3 8260   1.213   4.166   1.289  0.5723 -0.5223  0.5987
  360DG      H4 8261   1.259   4.094   1.430  0.0478 -1.3508 -1.0834
  360DG      H5 8262   1.273   4.271   1.417 -1.4095  0.8151  1.3690
  360DG      H6 8263   0.521   4.708   1.472 -1.4905  0.9974 -0.5395
  360DG      H7 8264   0.670   4.784   1.456  1.0743  0.9301 -2.2391
  360DG      H8 8265   0.605   4.722   1.305  1.1464 -0.0343  0.0088
  360DG      O9 8266   1.081   4.205   1.448 -0.1277  0.4364  0.4301
  360DG     O10 8267   0.678   4.582   1.436 -0.3340  0.1899  0.0071
  360DG     C11 8268   0.972   4.165   1.357 -0.2886  0.0152 -0.0592
  360DG     C12 8269   0.609   4.470   1.387  0.2362 -0.4722 -0.0239
  360DG     H13 8270   0.985   4.058   1.340 -0.7495 -0.2567  1.1833
  360DG     H14 8271   0.979   4.220   1.264 -0.7773 -0.4356 -0.3666
  360DG     H15 8272   0.614   4.463   1.278 -1.1534 -0.8189 -0.0815
  360DG     H16 8273   0.501   4.483   1.397 -0.1277  0.1665 -3.5038
  360DG     C17 8274   0.841   4.193   1.430  0.2290 -0.0444  0.1743
  360DG     C18 8275   0.658   4.343   1.448  0.4419 -0.3829 -0.2278
  360DG     O19 8276   0.792   4.327   1.407  0.3719 -0.4228 -0.1718
  360DG     H20 8277   0.856   4.177   1.537 -2.8418 -1.1424  0.5292
  360DG     H21 8278   0.762   4.123   1.403 -0.2939  0.1090  1.2592
  360DG     H22 8279   0.666   4.345   1.556  1.6235  1.3760 -0.3120
  360DG     H23 8280   0.592   4.265   1.409  0.5886 -1.2527  1.2097
  361DG      C1 8281   3.368   4.199   5.441 -0.2840  1.1518  0.2109
  361DG      C2 8282   2.994   4.768   5.652 -0.6581 -0.1968  0.2501
  361DG      H3 8283   3.410   4.182   5.540  2.5441  2.1222 -0.7078
  361DG      H4 8284   3.428   4.132   5.378 -3.1943 -2.4962  0.9338
  361DG      H5 8285   3.267   4.161   5.425  0.6639 -1.8520  0.5968
  361DG      H6 8286   2.972   4.874   5.651 -1.4368 -0.2833  2.2369
  361DG      H7 8287   2.898   4.731   5.691 -1.4043  1.3295 -0.0643
  361DG      H8 8288   3.072   4.757   5.728  0.5996  1.7548 -0.7005
  361DG      O9 8289   3.374   4.336   5.400  0.4104  0.2850  0.0318
  361DG     O10 8290   3.025   4.706   5.523 -0.5117 -0.0588  0.8352
  361DG     C11 8291   3.282   4.363   5.296 -0.1684 -0.4019 -0.0210
  361DG     C12 8292   3.130   4.780   5.459  0.1073 -0.1897  0.1891
  361DG     H13 8293   3.183   4.344   5.338  0.4840 -0.1031  1.7251
  361DG     H14 8294   3.315   4.305   5.210 -0.8481  1.4917 -1.6284
  361DG     H15 8295   3.206   4.809   5.531  1.6865  1.9909 -2.1894
  361DG     H16 8296   3.080   4.869   5.422  2.2681  1.2290  0.5406
  361DG     C17 8297   3.278   4.508   5.255  0.3334  0.7460 -0.1490
  361DG     C18 8298   3.187   4.709   5.332 -0.2933 -0.3297  0.2251
  361DG     O19 8299   3.238   4.586   5.368  0.1075 -0.0339 -0.5643
  361DG     H20 8300   3.212   4.524   5.169 -0.6740  1.0820  0.6749
  361DG     H21 8301   3.379   4.534   5.222  0.5465 -0.7965 -0.7801
  361DG     H22 8302   3.112   4.696   5.254  0.9743  0.4476 -1.1643
  361DG     H23 8303   3.263   4.772   5.287  1.5987 -1.7073  1.3544
  362DG      C1 8304   1.758   2.946   3.992 -0.4756  0.1092 -0.6053
  362DG      C2 8305   2.424   2.732   4.490 -0.0673  0.4241  0.1617
  362DG      H3 8306   1.766   2.946   3.883 -3.1394 -0.6154 -0.8683
  362DG      H4 8307   1.683   3.016   4.027 -0.2851  0.3014 -0.5793
  362DG      H5 8308   1.731   2.843   4.013 -0.5846  0.4225  0.9090
  362DG      H6 8309   2.407   2.777   4.587  0.8412 -1.2463  1.1508
  362DG      H7 8310   2.420   2.625   4.513 -0.5887  0.5160  0.5133
  362DG      H8 8311   2.526   2.753   4.456  0.7985 -1.2690  1.5231
  362DG      O9 8312   1.886   2.973   4.045 -0.3674  0.1935  0.4939
  362DG     O10 8313   2.327   2.758   4.392 -0.3958 -0.2200  0.1175
  362DG     C11 8314   1.991   2.878   4.002  0.3603 -0.4226 -0.0445
  362DG     C12 8315   2.310   2.904   4.369  0.9492  0.2024 -0.5160
  362DG     H13 8316   1.994   2.882   3.893 -0.4712  0.3961 -0.0440
  362DG     H14 8317   1.958   2.783   4.043 -3.2622  1.1654  1.0899
  362DG     H15 8318   2.402   2.955   4.396  1.4057 -1.2426  0.7990
  362DG     H16 8319   2.241   2.935   4.447  0.7256 -2.6214  0.5263
  362DG     C17 8320   2.129   2.921   4.044  0.0121  0.2552 -0.2005
  362DG     C18 8321   2.286   2.930   4.219  0.1553 -0.9743  0.7337
  362DG     O19 8322   2.153   2.890   4.178  0.4229  0.1860  0.1950
  362DG     H20 8323   2.145   3.026   4.022 -1.7031  0.8353  1.1356
  362DG     H21 8324   2.197   2.857   3.986  0.0776  1.9289 -2.0739
  362DG     H22 8325   2.292   3.037   4.201  3.6514 -1.0235  1.0040
  362DG     H23 8326   2.364   2.888   4.156 -2.2267 -0.2409 -2.9932
  363DG      C1 8327   5.381   5.311   0.865 -0.0620 -0.0506  0.6080
  363DG      C2 8328   4.818   5.112   1.265  0.7413 -0.2910 -0.5085
  363DG      H3 8329   5.450   5.267   0.936  2.1381  2.3357  0.0704
  363DG      H4 8330   5.430   5.398   0.823  0.0158 -0.3724  0.0256
  363DG      H5 8331   5.372   5.238   0.784 -0.8677  0.9017 -0.2025
  363DG      H6 8332   4.896   5.082   1.336  0.0678  1.3560  1.0022
  363DG      H7 8333   4.724   5.130   1.317  1.2599 -0.2837  0.4570
  363DG      H8 8334   4.805   5.023   1.204 -2.0332 -0.8659  0.7867
  363DG      O9 8335   5.250   5.351   0.911  0.1950 -0.3372 -0.5713
  363DG     O10 8336   4.863   5.217   1.181 -0.0575  0.1914  0.3290
  363DG     C11 8337   5.241   5.476   0.982 -0.9794 -0.2118 -0.0427
  363DG     C12 8338   4.821   5.350   1.198 -0.8555  0.6826 -0.4281
  363DG     H13 8339   5.299   5.552   0.929 -1.7229 -1.6826 -3.1994
  363DG     H14 8340   5.288   5.463   1.079  0.1116  1.0511 -0.3670
  363DG     H15 8341   4.855   5.373   1.299 -2.3868  2.2317 -0.2045
  363DG     H16 8342   4.713   5.361   1.189 -1.1954 -0.3800  1.7542
  363DG     C17 8343   5.094   5.513   0.996 -0.2611  0.4069  0.5794
  363DG     C18 8344   4.891   5.444   1.095 -0.4706 -0.5430  0.4368
  363DG     O19 8345   5.024   5.422   1.077 -0.1886  0.2027 -0.1221
  363DG     H20 8346   5.051   5.533   0.899 -0.2249  0.5349  0.5890
  363DG     H21 8347   5.085   5.604   1.056  0.1299  0.3987  0.6519
  363DG     H22 8348   4.847   5.446   0.996  1.6595 -0.5733 -0.5510
  363DG     H23 8349   4.876   5.547   1.129  1.1221  0.3508 -1.3913
  364DG      C1 8350   1.877   4.455   1.182 -0.2426 -0.6284  0.8246
  364DG      C2 8351   2.002   3.784   1.345  0.1488 -0.1268 -0.4206
  364DG      H3 8352   1.899   4.561   1.176 -2.4273 -0.0562  1.6043
  364DG      H4 8353   1.768   4.451   1.191 -0.1775  1.3006  3.9926
  364DG      H5 8354   1.909   4.414   1.087 -1.4107  1.8545 -0.7451
  364DG      H6 8355   1.902   3.818   1.320  0.0282 -1.5689 -2.1403
  364DG      H7 8356   2.027   3.704   1.275 -0.5927 -1.3647  0.6931
  364DG      H8 8357   1.991   3.729   1.438 -0.8870  1.2230  0.2840
  364DG      O9 8358   1.930   4.404   1.303 -0.5992 -0.1542 -0.8342
  364DG     O10 8359   2.101   3.884   1.342  0.0329  0.1701 -0.3916
  364DG     C11 8360   2.074   4.392   1.302 -0.3762 -0.8465  0.2555
  364DG     C12 8361   2.116   3.938   1.477 -0.6969  0.3679  0.9323
  364DG     H13 8362   2.106   4.494   1.323 -4.5486  1.4372 -2.9105
  364DG     H14 8363   2.106   4.351   1.207  1.8385  0.4043  0.4040
  364DG     H15 8364   2.170   3.865   1.537  0.7402 -1.6154 -2.4365
  364DG     H16 8365   2.018   3.945   1.524 -1.4122 -1.1033 -0.2580
  364DG     C17 8366   2.135   4.312   1.418 -0.1181  0.7304  0.6839
  364DG     C18 8367   2.177   4.078   1.469 -0.4073 -0.0997  0.1032
  364DG     O19 8368   2.093   4.174   1.407  0.2989 -0.0921  0.0594
  364DG     H20 8369   2.086   4.353   1.506 -1.2783 -1.0092  0.8972
  364DG     H21 8370   2.239   4.335   1.439  0.3164 -0.2367 -0.2966
  364DG     H22 8371   2.203   4.111   1.570  1.9244 -0.6547 -0.2543
  364DG     H23 8372   2.276   4.082   1.423  0.9855 -0.6752  2.8333
  365DG      C1 8373   1.214   0.067   2.032 -0.0647 -0.0537  0.0640
  365DG      C2 8374   0.838  -0.471   1.917 -0.3159 -0.3161  0.1388
  365DG      H3 8375   1.221   0.134   1.947  2.9894 -1.7082 -1.1452
  365DG      H4 8376   1.279  -0.020   2.024 -1.3012 -0.9201 -0.8331
  365DG      H5 8377   1.251   0.127   2.115  0.9742 -1.5289  0.7015
  365DG      H6 8378   0.934  -0.521   1.932  0.3177  0.2044 -1.8619
  365DG      H7 8379   0.768  -0.547   1.951  0.2801 -0.8028  0.3074
  365DG      H8 8380   0.822  -0.450   1.811  2.1970  2.0116  0.1095
  365DG      O9 8381   1.085   0.019   2.061  0.8084  0.2659  0.7005
  365DG     O10 8382   0.834  -0.353   1.997 -0.5043 -0.2654  0.2934
  365DG     C11 8383   0.981   0.117   2.055 -0.5189 -0.2386  0.1219
  365DG     C12 8384   0.709  -0.288   2.008  0.4659  0.2754 -0.3845
  365DG     H13 8385   0.968   0.151   1.952  0.5043  0.1746  0.1182
  365DG     H14 8386   1.007   0.204   2.115  0.5286 -0.8443  0.5775
  365DG     H15 8387   0.636  -0.353   2.055  1.0643 -0.4358 -0.4274
  365DG     H16 8388   0.672  -0.253   1.911 -0.7617 -1.4313 -0.5698
  365DG     C17 8389   0.852   0.041   2.097 -0.3125 -0.2118  0.6085
  365DG     C18 8390   0.745  -0.167   2.098 -0.0318 -0.4196 -0.2682
  365DG     O19 8391   0.833  -0.085   2.032 -0.4076 -0.6020  0.0869
  365DG     H20 8392   0.756   0.090   2.081 -1.7718 -3.1439 -0.3209
  365DG     H21 8393   0.866   0.025   2.204 -1.3412  0.2526  0.8264
  365DG     H22 8394   0.653  -0.114   2.124  0.0606 -0.3716 -0.0461
  365DG     H23 8395   0.781  -0.208   2.192  1.8412  1.6533 -0.0211
  366DG      C1 8396   2.005   2.533   5.221  0.5080 -0.9146 -0.2976
  366DG      C2 8397   1.840   2.067   4.761 -1.1951 -0.1166 -0.1165
  366DG      H3 8398   1.900   2.547   5.195  0.7085 -1.6234 -1.6391
  366DG      H4 8399   2.063   2.603   5.160  1.3340 -0.6464  0.7656
  366DG      H5 8400   2.029   2.551   5.325  0.9443 -1.1250 -0.3598
  366DG      H6 8401   1.896   2.103   4.675 -0.4776  0.9280  0.7475
  366DG      H7 8402   1.822   1.962   4.739  0.2971 -0.4808  0.2676
  366DG      H8 8403   1.749   2.126   4.751 -1.6762 -1.2908 -4.5935
  366DG      O9 8404   2.030   2.401   5.182  0.6267 -0.7033  0.4131
  366DG     O10 8405   1.919   2.103   4.883 -0.4938  0.5500 -0.1497
  366DG     C11 8406   2.168   2.367   5.179 -0.4916 -0.0364 -0.8113
  366DG     C12 8407   2.036   2.020   4.898 -0.2805  0.5507  0.2127
  366DG     H13 8408   2.221   2.404   5.267 -0.0509 -0.2094 -0.9991
  366DG     H14 8409   2.215   2.411   5.091  0.0176  0.2331 -0.4138
  366DG     H15 8410   2.112   2.053   4.826  1.4174 -0.3438  1.5328
  366DG     H16 8411   2.008   1.916   4.883  3.2330 -0.3969 -0.5558
  366DG     C17 8412   2.182   2.214   5.165 -0.2697 -0.7068 -0.2867
  366DG     C18 8413   2.100   2.044   5.030  0.3415  0.3868  0.4571
  366DG     O19 8414   2.110   2.190   5.049 -0.2288 -0.8213 -0.8653
  366DG     H20 8415   2.131   2.169   5.250  0.3669  1.1238  1.1455
  366DG     H21 8416   2.287   2.185   5.159  0.0347  0.3196 -0.2279
  366DG     H22 8417   2.031   1.993   5.097 -2.9611  0.4891 -2.5860
  366DG     H23 8418   2.193   1.987   5.039 -0.4372 -0.7605  1.5934
  367DG      C1 8419   0.860   4.826   2.249 -0.8111  0.4109  0.5040
  367DG      C2 8420   0.915   4.666   1.640 -0.1844  0.7354  0.1629
  367DG      H3 8421   0.965   4.849   2.261 -0.6206 -1.2808  2.6974
  367DG      H4 8422   0.810   4.858   2.340 -0.4973  2.5422 -0.0159
  367DG      H5 8423   0.811   4.888   2.174 -3.1933 -2.4933 -0.5855
  367DG      H6 8424   1.019   4.695   1.655  0.8456 -1.9120 -1.0788
  367DG      H7 8425   0.920   4.570   1.588 -1.6381 -0.3079  1.8288
  367DG      H8 8426   0.855   4.728   1.574 -0.6101  1.2430  1.0144
  367DG      O9 8427   0.845   4.693   2.213  0.2884 -0.3335 -0.2609
  367DG     O10 8428   0.861   4.664   1.768  0.1255 -0.2815 -0.1453
  367DG     C11 8429   0.708   4.637   2.217 -0.1529  0.3668 -0.7133
  367DG     C12 8430   0.731   4.601   1.779 -0.5509 -0.0953 -0.1940
  367DG     H13 8431   0.677   4.652   2.320 -3.3634  2.1761 -1.8041
  367DG     H14 8432   0.721   4.530   2.200 -0.7004  0.3302 -0.9177
  367DG     H15 8433   0.725   4.502   1.734  1.0537  0.5050 -1.8257
  367DG     H16 8434   0.661   4.674   1.738 -1.6283 -0.5710  0.7407
  367DG     C17 8435   0.617   4.701   2.119 -0.0957 -0.5919 -0.4424
  367DG     C18 8436   0.684   4.579   1.923 -0.3755 -0.3303  0.4550
  367DG     O19 8437   0.671   4.703   1.989 -0.6312  0.3330  0.4402
  367DG     H20 8438   0.601   4.805   2.150  0.7435 -0.0655 -1.7062
  367DG     H21 8439   0.517   4.664   2.141 -0.4668  1.5459  2.0709
  367DG     H22 8440   0.584   4.536   1.916  0.1899 -1.6570  0.1854
  367DG     H23 8441   0.744   4.508   1.980 -0.1492  2.1074  3.5684
  368DG      C1 8442   4.625   2.328   2.210 -0.7035 -0.1683  0.7802
  368DG      C2 8443   4.354   1.700   2.004 -0.6394 -0.5112 -0.3277
  368DG      H3 8444   4.632   2.435   2.187  0.6273 -0.8560 -2.5559
  368DG      H4 8445   4.724   2.282   2.213  0.4692  2.0780 -0.7811
  368DG      H5 8446   4.579   2.308   2.307 -0.1157 -0.4396  1.0096
  368DG      H6 8447   4.456   1.665   1.983 -0.9886 -2.1551  0.5657
  368DG      H7 8448   4.327   1.682   2.108  0.7879  0.8250  0.3154
  368DG      H8 8449   4.281   1.640   1.949  1.0263 -1.8416 -1.2236
  368DG      O9 8450   4.536   2.266   2.119  0.3364  0.4116  0.2978
  368DG     O10 8451   4.346   1.842   1.985 -0.0214 -0.3391 -0.0162
  368DG     C11 8452   4.570   2.286   1.983 -0.3600  0.3203 -0.3575
  368DG     C12 8453   4.357   1.875   1.845  0.1082  0.4918 -0.2983
  368DG     H13 8454   4.675   2.263   1.967 -0.7020 -1.2753 -0.5039
  368DG     H14 8455   4.559   2.393   1.965 -1.0762 -0.0765 -2.5396
  368DG     H15 8456   4.267   1.844   1.793 -1.1590  1.7245  1.0561
  368DG     H16 8457   4.437   1.829   1.788 -1.3237  0.5178 -2.4214
  368DG     C17 8458   4.475   2.218   1.879  1.0410 -0.3295  0.6578
  368DG     C18 8459   4.359   2.028   1.829  0.7886  1.0477 -0.1674
  368DG     O19 8460   4.463   2.078   1.905 -0.4476  0.0504  0.2698
  368DG     H20 8461   4.515   2.234   1.779 -2.1416  1.4187 -0.4810
  368DG     H21 8462   4.375   2.260   1.875  0.2086 -2.1006  1.7534
  368DG     H22 8463   4.361   2.060   1.725 -1.9056 -0.0765 -0.6662
  368DG     H23 8464   4.268   2.071   1.872  0.1626  2.1120 -2.4248
  369DG      C1 8465   3.071   3.450   4.332  0.0108 -0.2167 -0.2134
  369DG      C2 8466   3.432   3.239   4.577 -0.0978 -0.4957 -0.0378
  369DG      H3 8467   3.030   3.519   4.407  1.5135 -0.1437  0.5767
  369DG      H4 8468   3.160   3.407   4.377 -0.8061 -4.4589 -2.2023
  369DG      H5 8469   3.010   3.363   4.311  0.9012 -0.6659 -0.9924
  369DG      H6 8470   3.486   3.327   4.544 -1.1524  0.0043 -0.4900
  369DG      H7 8471   3.370   3.268   4.661  1.5210 -0.0692  1.0502
  369DG      H8 8472   3.491   3.151   4.604 -0.5080 -1.0902 -0.9793
  369DG      O9 8473   3.103   3.510   4.208 -0.4884  0.2730 -0.2772
  369DG     O10 8474   3.363   3.197   4.456 -0.5030 -0.6484 -0.0052
  369DG     C11 8475   3.161   3.413   4.117  0.7757  0.0873 -0.2974
  369DG     C12 8476   3.472   3.161   4.365 -0.2216 -0.6363  0.3304
  369DG     H13 8477   3.131   3.458   4.022 -1.4699 -0.5489  0.0426
  369DG     H14 8478   3.098   3.324   4.115 -0.0505  0.6356 -2.9704
  369DG     H15 8479   3.456   3.059   4.330  1.6806 -0.9100  0.1669
  369DG     H16 8480   3.571   3.157   4.410 -0.3546 -2.2280  0.5352
  369DG     C17 8481   3.310   3.382   4.123 -0.6559 -0.1889 -0.4452
  369DG     C18 8482   3.466   3.260   4.251  0.2294 -0.1935  0.4712
  369DG     O19 8483   3.326   3.287   4.220  0.5517  0.1635 -0.2579
  369DG     H20 8484   3.359   3.479   4.132 -1.4062  0.1914 -0.3876
  369DG     H21 8485   3.352   3.355   4.026 -2.4414 -2.6119 -0.6152
  369DG     H22 8486   3.511   3.356   4.274  0.5409 -0.4742  1.0594
  369DG     H23 8487   3.515   3.222   4.161  0.1667 -3.2861  1.6290
  370DG      C1 8488   4.879   3.973   2.187 -0.3504  0.1068 -0.0227
  370DG      C2 8489   4.292   3.656   2.302  0.1834  0.3006  0.3323
  370DG      H3 8490   4.854   4.005   2.289  1.2951  0.2435  0.3658
  370DG      H4 8491   4.864   4.057   2.120 -4.5818 -2.3807 -2.6441
  370DG      H5 8492   4.982   3.941   2.178 -1.0570 -2.4523  0.0344
  370DG      H6 8493   4.252   3.555   2.309  0.5929 -0.0310 -1.5114
  370DG      H7 8494   4.295   3.692   2.405 -1.3414 -0.5769  0.7146
  370DG      H8 8495   4.212   3.721   2.269 -1.4412 -0.7954  1.9328
  370DG      O9 8496   4.791   3.873   2.144 -0.2057 -0.0670  0.7772
  370DG     O10 8497   4.406   3.667   2.221  0.5058 -0.9910  0.6103
  370DG     C11 8498   4.808   3.841   2.006  0.1129 -0.3350 -0.4082
  370DG     C12 8499   4.389   3.624   2.085  0.5213  0.2258 -0.3464
  370DG     H13 8500   4.912   3.823   1.979  0.9411 -0.9911  2.8280
  370DG     H14 8501   4.761   3.922   1.950  0.8604  0.5334  0.1839
  370DG     H15 8502   4.322   3.690   2.030 -0.2826 -0.4789 -0.2303
  370DG     H16 8503   4.325   3.536   2.084 -0.0900  0.6697 -0.9797
  370DG     C17 8504   4.732   3.707   1.977  0.5161  0.1743 -0.1950
  370DG     C18 8505   4.525   3.604   2.010  0.0071 -0.0072  0.4042
  370DG     O19 8506   4.593   3.727   2.015  0.1511 -0.0721 -0.2083
  370DG     H20 8507   4.782   3.623   2.025  2.9583  1.8312  0.2957
  370DG     H21 8508   4.741   3.701   1.868  1.7901 -1.5734 -0.0286
  370DG     H22 8509   4.578   3.523   2.061  0.1029 -0.2685 -0.1055
  370DG     H23 8510   4.519   3.586   1.903 -1.4006 -1.0042  0.6195
  371DG      C1 8511   5.064   1.490   1.590  0.6261 -0.6269 -0.2989
  371DG      C2 8512   5.018   2.346   1.683 -0.2312 -0.5973 -0.4839
  371DG      H3 8513   4.992   1.457   1.665  0.8423 -1.2609 -0.3705
  371DG      H4 8514   5.160   1.439   1.593  0.3679 -1.0807  0.4867
  371DG      H5 8515   5.002   1.475   1.502  0.7723  1.6000 -0.8363
  371DG      H6 8516   5.004   2.405   1.592 -0.1560  0.7247  0.3241
  371DG      H7 8517   4.936   2.276   1.698 -0.5597  0.1158  1.2614
  371DG      H8 8518   5.010   2.424   1.759  0.2347 -0.5715 -0.4626
  371DG      O9 8519   5.080   1.635   1.612 -0.1048 -0.0502 -0.0114
  371DG     O10 8520   5.132   2.268   1.700 -0.0996  0.1325 -0.0634
  371DG     C11 8521   5.180   1.703   1.543  0.2853  0.8635  0.5225
  371DG     C12 8522   5.137   2.150   1.622 -0.9411  1.0095 -0.2470
  371DG     H13 8523   5.145   1.698   1.440 -2.4236  0.8489  1.3578
  371DG     H14 8524   5.280   1.659   1.538 -0.8628 -1.9488  0.3345
  371DG     H15 8525   5.241   2.125   1.602 -0.6223  1.3539  0.9057
  371DG     H16 8526   5.086   2.159   1.526 -1.3554 -2.1878 -0.4258
  371DG     C17 8527   5.199   1.848   1.591 -0.6364 -0.5342  0.1917
  371DG     C18 8528   5.081   2.035   1.703  0.3016  0.0772 -0.1062
  371DG     O19 8529   5.079   1.920   1.614 -0.0882 -0.3117  0.2926
  371DG     H20 8530   5.248   1.899   1.507  1.6227 -2.1241  0.4755
  371DG     H21 8531   5.266   1.863   1.675 -1.8795 -2.4892  1.6102
  371DG     H22 8532   5.146   2.001   1.784  2.2968  0.8773 -1.2802
  371DG     H23 8533   4.985   2.055   1.750  0.1873  2.5072 -1.2159
  372DG      C1 8534   3.775   2.441   4.177 -0.0915 -0.2001  0.7748
  372DG      C2 8535   4.178   2.767   3.781  0.0657  1.1227  0.3122
  372DG      H3 8536   3.810   2.350   4.227  0.3755 -0.1799  0.4869
  372DG      H4 8537   3.683   2.472   4.228 -0.6484  0.8237 -0.7888
  372DG      H5 8538   3.836   2.525   4.209  0.3457 -0.9100  1.8609
  372DG      H6 8539   4.157   2.751   3.676  2.3864 -0.1220 -0.0526
  372DG      H7 8540   4.230   2.862   3.792 -1.2904  1.6839  2.5129
  372DG      H8 8541   4.227   2.680   3.826  0.4453  0.0334 -2.0555
  372DG      O9 8542   3.763   2.423   4.037 -0.9106 -0.4742 -0.2030
  372DG     O10 8543   4.055   2.787   3.851  0.1428  0.0245  0.2432
  372DG     C11 8544   3.703   2.524   3.950 -0.7432 -0.6242 -0.0503
  372DG     C12 8545   3.953   2.866   3.785 -0.6112  0.3274 -0.0270
  372DG     H13 8546   3.609   2.567   3.984 -0.1856  1.1772 -0.6677
  372DG     H14 8547   3.684   2.470   3.858 -0.4079 -0.7511 -0.0456
  372DG     H15 8548   3.930   2.827   3.686  0.3812  1.7033 -0.8178
  372DG     H16 8549   4.000   2.963   3.767  0.4430 -0.0016  0.8014
  372DG     C17 8550   3.808   2.639   3.938  0.0679  0.8260  0.0529
  372DG     C18 8551   3.819   2.870   3.862  0.2784  0.3225  0.0853
  372DG     O19 8552   3.748   2.743   3.864 -0.5297 -0.1367  0.4009
  372DG     H20 8553   3.903   2.609   3.894  0.9923 -0.0097  2.4618
  372DG     H21 8554   3.829   2.683   4.035  0.0236  0.9158  0.0224
  372DG     H22 8555   3.842   2.915   3.958 -1.6076  1.1904  0.1840
  372DG     H23 8556   3.753   2.944   3.817  0.7113  0.6202 -0.0645
  373DG      C1 8557   5.246   0.353   1.108  0.6533 -0.0130 -0.4638
  373DG      C2 8558   5.919  -0.005   1.290 -0.3355 -0.3816 -0.1612
  373DG      H3 8559   5.292   0.402   1.023  0.5431 -0.7123 -0.9337
  373DG      H4 8560   5.237   0.441   1.172  0.6706  0.1416 -0.6742
  373DG      H5 8561   5.140   0.331   1.093  0.5681  0.4621 -0.5586
  373DG      H6 8562   5.915   0.007   1.182 -0.1803 -1.7949 -0.3404
  373DG      H7 8563   6.011   0.034   1.334 -0.1815 -0.7114 -0.1926
  373DG      H8 8564   5.928  -0.113   1.291  1.5235 -0.3241 -2.5079
  373DG      O9 8565   5.333   0.251   1.151 -0.6028  0.5974 -0.2983
  373DG     O10 8566   5.801   0.049   1.349  0.6417 -0.0049 -0.3848
  373DG     C11 8567   5.343   0.235   1.295  0.3444 -0.0826 -0.2069
  373DG     C12 8568   5.686  -0.013   1.292  0.2373  0.7419  0.0255
  373DG     H13 8569   5.266   0.285   1.354  1.6375  0.0859  1.4210
  373DG     H14 8570   5.434   0.285   1.328 -0.4156  0.3218  1.3485
  373DG     H15 8571   5.701  -0.119   1.270 -1.1012  0.6000 -0.3166
  373DG     H16 8572   5.674   0.034   1.195 -0.0935 -0.6561 -0.6352
  373DG     C17 8573   5.347   0.080   1.332  0.8570  0.0814  0.4846
  373DG     C18 8574   5.564   0.016   1.360 -0.0450  0.3154 -0.4085
  373DG     O19 8575   5.453   0.013   1.271  0.3859  0.0978 -0.4337
  373DG     H20 8576   5.259   0.022   1.300  0.0197  2.7804 -2.6592
  373DG     H21 8577   5.342   0.056   1.438 -0.5183  0.5423  0.5504
  373DG     H22 8578   5.545  -0.054   1.442 -2.1083  0.3043 -0.8383
  373DG     H23 8579   5.582   0.117   1.397  1.2310  0.1767 -0.5835
  374DG      C1 8580   1.146   3.678   2.597 -0.1296 -0.2827  0.5705
  374DG      C2 8581   0.758   3.655   3.149 -0.0314  0.6280  0.0352
  374DG      H3 8582   1.060   3.725   2.549  0.2277 -2.0342 -1.9726
  374DG      H4 8583   1.200   3.612   2.529  0.7883 -0.3595  1.3505
  374DG      H5 8584   1.210   3.750   2.647 -0.3967 -0.1040  0.6551
  374DG      H6 8585   0.674   3.660   3.217 -0.5864  0.1272 -0.6030
  374DG      H7 8586   0.795   3.553   3.154 -0.5548  0.4073 -0.4685
  374DG      H8 8587   0.839   3.717   3.189 -1.5216  2.0097  1.0023
  374DG      O9 8588   1.094   3.606   2.709 -0.2149  0.2374 -0.2781
  374DG     O10 8589   0.723   3.679   3.019  0.2032 -0.0029  0.1326
  374DG     C11 8590   1.043   3.479   2.666  0.0778 -0.9574  1.0049
  374DG     C12 8591   0.654   3.571   2.961 -0.1147 -0.2722 -0.0762
  374DG     H13 8592   1.126   3.409   2.652 -0.6969 -1.4222 -2.1574
  374DG     H14 8593   0.995   3.491   2.569  1.5190  3.1051  0.5963
  374DG     H15 8594   0.588   3.610   2.884 -0.6779  1.3619  1.1743
  374DG     H16 8595   0.579   3.529   3.028  0.4662 -2.4398 -0.7032
  374DG     C17 8596   0.950   3.425   2.777 -0.8343 -0.0897  0.5760
  374DG     C18 8597   0.750   3.466   2.897  0.0472  0.6632 -0.3964
  374DG     O19 8598   0.849   3.515   2.804 -0.7136 -0.2224 -0.1791
  374DG     H20 8599   1.003   3.388   2.865  0.3722 -4.0749 -1.5973
  374DG     H21 8600   0.898   3.338   2.738  1.9197  0.0042 -3.9696
  374DG     H22 8601   0.796   3.413   2.980  1.8866  2.7600 -0.0022
  374DG     H23 8602   0.697   3.388   2.842 -0.5617 -0.5691  1.8229
  375DG      C1 8603   1.238   5.366   1.732  0.4443  0.1623  0.0062
  375DG      C2 8604   1.100   5.376   2.327  0.2340  0.1487 -0.1501
  375DG      H3 8605   1.263   5.323   1.635 -0.8225 -0.4374 -0.0749
  375DG      H4 8606   1.325   5.424   1.761 -0.7973  2.6809 -1.0522
  375DG      H5 8607   1.151   5.429   1.716  0.4837  0.5121  1.0870
  375DG      H6 8608   1.000   5.393   2.288  1.5493  0.8945 -3.4965
  375DG      H7 8609   1.090   5.330   2.426  0.6861 -1.2968 -0.7606
  375DG      H8 8610   1.144   5.476   2.325  0.0662  0.2236 -2.2572
  375DG      O9 8611   1.199   5.276   1.831 -0.1623 -0.6156  0.8374
  375DG     O10 8612   1.165   5.277   2.252 -0.3015 -0.0321  0.1096
  375DG     C11 8613   1.295   5.170   1.828 -0.3722  0.2280  0.1315
  375DG     C12 8614   1.105   5.153   2.257 -0.5268 -0.4143 -0.0401
  375DG     H13 8615   1.384   5.216   1.871 -1.5648  0.2263  2.8028
  375DG     H14 8616   1.318   5.136   1.728 -1.1264  1.5459 -0.5268
  375DG     H15 8617   1.002   5.155   2.222  0.6126  1.6497 -3.7736
  375DG     H16 8618   1.107   5.123   2.362  1.3668  1.4737  0.5557
  375DG     C17 8619   1.251   5.063   1.928  0.4558 -0.3906  0.0169
  375DG     C18 8620   1.187   5.059   2.163 -0.6992  0.0067 -0.1485
  375DG     O19 8621   1.182   5.126   2.030  0.3044  0.2202 -0.0998
  375DG     H20 8622   1.331   4.997   1.960  1.9538  1.0153 -0.6779
  375DG     H21 8623   1.180   4.996   1.879 -0.0120 -0.6456  1.0106
  375DG     H22 8624   1.289   5.037   2.193 -1.0562 -0.4243  0.7977
  375DG     H23 8625   1.129   4.969   2.143 -0.6123 -0.1332  0.2367
  376DG      C1 8626   3.464   1.651   5.463 -0.4491  0.0622 -0.1811
  376DG      C2 8627   2.701   1.857   5.394 -0.2988  0.7375  0.7569
  376DG      H3 8628   3.510   1.725   5.398 -1.2121  0.9121  0.2289
  376DG      H4 8629   3.454   1.548   5.428 -1.2929 -0.3521  1.1956
  376DG      H5 8630   3.527   1.648   5.552 -0.6272  2.0182  0.0581
  376DG      H6 8631   2.693   1.810   5.296  1.5289  1.3149  0.3053
  376DG      H7 8632   2.633   1.806   5.463  0.1291 -0.7982  0.0969
  376DG      H8 8633   2.663   1.959   5.392 -2.0380  0.1393  1.1262
  376DG      O9 8634   3.322   1.685   5.499 -0.2004 -0.2170 -0.4545
  376DG     O10 8635   2.833   1.850   5.449  0.3563  0.7857  0.2566
  376DG     C11 8636   3.334   1.817   5.566  0.7179 -0.0980  0.5829
  376DG     C12 8637   2.848   1.919   5.576 -0.3253  0.0683 -0.2075
  376DG     H13 8638   3.351   1.889   5.485 -1.2365 -0.4499 -0.2048
  376DG     H14 8639   3.414   1.817   5.639 -0.9779 -0.6826  2.5410
  376DG     H15 8640   2.755   1.903   5.630  0.0687 -1.5794  0.0123
  376DG     H16 8641   2.869   2.024   5.556 -1.0615  0.2367 -0.1539
  376DG     C17 8642   3.202   1.850   5.649  0.2498  0.4811  0.2988
  376DG     C18 8643   2.969   1.857   5.651 -0.0653  0.2347  0.8939
  376DG     O19 8644   3.087   1.870   5.570  0.2728 -0.2476  0.1261
  376DG     H20 8645   3.225   1.948   5.691  0.2921  0.5216  0.1820
  376DG     H21 8646   3.197   1.769   5.722  2.8971 -0.9500 -0.9728
  376DG     H22 8647   2.980   1.913   5.745 -0.8351 -2.1240  2.4722
  376DG     H23 8648   2.949   1.755   5.682 -1.2300  0.9481  2.6479
  377DG      C1 8649   2.410   1.310   2.934  0.0134  0.0144  0.0109
  377DG      C2 8650   1.965   1.876   2.742 -0.3169 -0.7986  0.7075
  377DG      H3 8651   2.310   1.297   2.977  0.5422 -4.0275  0.4344
  377DG      H4 8652   2.462   1.342   3.024 -0.9481  2.3545 -0.2024
  377DG      H5 8653   2.454   1.212   2.914  1.9293  0.9333 -0.5394
  377DG      H6 8654   2.018   1.971   2.731 -0.4567 -0.9529 -2.3641
  377DG      H7 8655   1.870   1.890   2.689 -0.0558 -2.0822 -0.1587
  377DG      H8 8656   1.946   1.847   2.845 -2.4989 -0.5520  0.4404
  377DG      O9 8657   2.408   1.410   2.837 -0.5367 -0.3074  0.1414
  377DG     O10 8658   2.024   1.769   2.673  0.3110  0.1470 -0.2540
  377DG     C11 8659   2.344   1.360   2.722  0.1471  0.4446  0.0895
  377DG     C12 8660   2.159   1.744   2.711  0.1165  0.3349 -0.3962
  377DG     H13 8661   2.238   1.341   2.739  0.1590 -0.5649 -0.8702
  377DG     H14 8662   2.400   1.271   2.693  0.4296  0.6460  0.0076
  377DG     H15 8663   2.173   1.725   2.818  2.5323  0.0848 -0.7097
  377DG     H16 8664   2.232   1.821   2.684  1.2612 -0.3097  0.7421
  377DG     C17 8665   2.371   1.463   2.606  0.3017 -0.7857  0.6518
  377DG     C18 8666   2.192   1.617   2.639  0.6279 -0.2133 -0.6158
  377DG     O19 8667   2.330   1.593   2.645 -0.2166  0.9435 -0.1648
  377DG     H20 8668   2.325   1.438   2.511  0.6801 -1.7522  0.7149
  377DG     H21 8669   2.477   1.470   2.580  0.0673  0.8993  0.0384
  377DG     H22 8670   2.132   1.544   2.695 -1.0951  1.6977  0.1650
  377DG     H23 8671   2.152   1.608   2.538  1.2509 -1.4066 -0.7812
  378DG      C1 8672   4.173   2.609   4.144  0.3416 -0.1191 -0.0670
  378DG      C2 8673   4.776   2.840   4.438  0.8594  0.0958  0.0649
  378DG      H3 8674   4.247   2.630   4.066 -2.1510  3.0146 -1.8311
  378DG      H4 8675   4.082   2.661   4.114  1.0377  1.8511  1.0788
  378DG      H5 8676   4.151   2.502   4.151  0.2959 -0.1087 -0.0498
  378DG      H6 8677   4.835   2.756   4.401  0.0333  0.5675 -2.5613
  378DG      H7 8678   4.779   2.909   4.353 -0.4720  0.5054  0.3359
  378DG      H8 8679   4.823   2.906   4.512 -0.3609  1.7744 -0.5851
  378DG      O9 8680   4.215   2.673   4.263  0.2706 -0.3185 -0.0718
  378DG     O10 8681   4.642   2.814   4.484  0.0044  0.2036  0.0633
  378DG     C11 8682   4.179   2.807   4.280 -0.1911 -0.2079 -0.5714
  378DG     C12 8683   4.557   2.926   4.524 -0.1526  0.6563  1.3635
  378DG     H13 8684   4.070   2.810   4.276 -0.1494  1.1593 -1.8612
  378DG     H14 8685   4.220   2.881   4.211  0.4420  1.6444  1.6880
  378DG     H15 8686   4.557   2.994   4.439 -0.3534 -0.2932  0.5879
  378DG     H16 8687   4.604   2.971   4.612  1.8731 -0.8938  1.1554
  378DG     C17 8688   4.216   2.860   4.415  0.2867 -0.1258 -0.2163
  378DG     C18 8689   4.411   2.885   4.542 -0.0735 -0.6165  0.3505
  378DG     O19 8690   4.353   2.884   4.411 -0.2641 -0.0948 -0.0936
  378DG     H20 8691   4.183   2.794   4.495  1.4476 -2.5056 -1.5824
  378DG     H21 8692   4.170   2.955   4.442 -0.0727 -0.2722 -0.3092
  378DG     H22 8693   4.410   2.783   4.580 -0.5800 -0.8285 -0.2120
  378DG     H23 8694   4.358   2.959   4.602 -0.5751  0.1746 -1.0194
  379DG      C1 8695   0.723   2.834   2.702  0.0012  0.3975  0.1133
  379DG      C2 8696   1.057   3.234   2.222 -0.3971  0.3475  0.0722
  379DG      H3 8697   0.737   2.767   2.787 -1.4544 -0.6958 -0.4638
  379DG      H4 8698   0.620   2.816   2.671 -0.3438  0.9611  0.8844
  379DG      H5 8699   0.731   2.933   2.747  0.9928  1.0755 -1.4566
  379DG      H6 8700   1.089   3.331   2.259 -2.4880  0.1990  2.5933
  379DG      H7 8701   1.076   3.243   2.116  2.5865  0.5417  0.5356
  379DG      H8 8702   0.951   3.223   2.247 -0.2992 -0.4051  0.1921
  379DG      O9 8703   0.819   2.818   2.600 -0.0982 -0.5720  0.4472
  379DG     O10 8704   1.136   3.127   2.288  0.4000  0.1946 -0.4529
  379DG     C11 8705   0.950   2.792   2.658  0.7328  0.0746  0.2803
  379DG     C12 8706   1.109   2.993   2.234  0.4822 -0.0423 -0.5093
  379DG     H13 8707   0.960   2.698   2.711 -0.5538 -0.3187 -0.1407
  379DG     H14 8708   0.960   2.879   2.723 -0.7038  0.0069  0.6269
  379DG     H15 8709   1.167   2.981   2.143  1.7804 -1.5376  0.4526
  379DG     H16 8710   1.002   2.993   2.217  0.4360 -0.7471 -0.2713
  379DG     C17 8711   1.065   2.792   2.547 -0.6172  0.1906 -0.3244
  379DG     C18 8712   1.155   2.897   2.347  0.7223 -0.0000  0.0754
  379DG     O19 8713   1.067   2.913   2.464  0.1933 -0.1766 -0.5684
  379DG     H20 8714   1.060   2.699   2.490 -1.2390 -0.2422  0.4176
  379DG     H21 8715   1.166   2.795   2.590 -1.1148  2.9058  0.8629
  379DG     H22 8716   1.150   2.798   2.301  1.4632 -0.0708  0.1467
  379DG     H23 8717   1.261   2.903   2.369  0.2663 -0.9168  2.8453
  380DG      C1 8718   2.735   4.702   4.217 -0.3310 -0.2563  0.1442
  380DG      C2 8719   2.295   4.855   4.875 -0.0749 -0.0312 -0.6159
  380DG      H3 8720   2.677   4.616   4.182 -0.1330 -0.7403  0.9952
  380DG      H4 8721   2.838   4.666   4.224 -0.0135  0.6863  0.4311
  380DG      H5 8722   2.754   4.770   4.134 -0.4447  0.5945  0.8101
  380DG      H6 8723   2.315   4.892   4.976  0.0080 -2.2323  0.2462
  380DG      H7 8724   2.192   4.881   4.849  0.1669  3.2690  1.1988
  380DG      H8 8725   2.299   4.747   4.888 -0.8099  0.1773  1.8525
  380DG      O9 8726   2.684   4.772   4.332  0.4390 -0.2129  0.0055
  380DG     O10 8727   2.379   4.883   4.769 -0.4874 -0.3297  0.3197
  380DG     C11 8728   2.655   4.678   4.434 -0.2455  0.1211 -0.2493
  380DG     C12 8729   2.515   4.899   4.802 -0.0788  0.1376  0.3427
  380DG     H13 8730   2.722   4.592   4.437  0.9522  1.0433  0.2681
  380DG     H14 8731   2.550   4.649   4.429 -0.8235  1.9932  0.1911
  380DG     H15 8732   2.542   4.795   4.826  0.9001  0.0474 -1.0003
  380DG     H16 8733   2.520   4.960   4.892 -0.6092 -0.5503  0.8557
  380DG     C17 8734   2.664   4.757   4.573  0.0852  0.7492  0.2819
  380DG     C18 8735   2.596   4.951   4.682 -0.2394  0.0116  0.4637
  380DG     O19 8736   2.584   4.868   4.566  0.1874 -0.0568  0.0772
  380DG     H20 8737   2.768   4.778   4.598  0.6928 -1.0038 -0.5917
  380DG     H21 8738   2.634   4.688   4.651  0.7974  1.3941  1.1451
  380DG     H22 8739   2.549   5.046   4.654  0.3248  0.8534  2.2354
  380DG     H23 8740   2.699   4.981   4.700 -0.7683  1.9613  0.4864
  381DG      C1 8741   3.476   4.012   3.256  0.0606 -0.1133 -0.6566
  381DG      C2 8742   2.861   4.130   3.490  0.4332  0.3987 -0.3973
  381DG      H3 8743   3.514   4.037   3.355  0.6765 -1.9740 -0.3781
  381DG      H4 8744   3.448   4.102   3.203 -2.7078 -0.4663  0.0403
  381DG      H5 8745   3.563   3.973   3.203  0.8000  0.3649  0.1796
  381DG      H6 8746   2.862   4.152   3.596 -1.2701 -1.8021  0.1467
  381DG      H7 8747   2.966   4.126   3.460  0.7369  1.1764  0.5066
  381DG      H8 8748   2.809   4.205   3.430  1.9087  1.6422 -0.1845
  381DG      O9 8749   3.371   3.920   3.244  0.3128 -0.4944 -0.1884
  381DG     O10 8750   2.780   4.011   3.478  0.0185  0.7591 -0.2341
  381DG     C11 8751   3.251   3.967   3.308  0.3179 -0.1913  0.4747
  381DG     C12 8752   2.781   3.944   3.348 -0.0986 -0.6066 -0.4580
  381DG     H13 8753   3.227   4.070   3.280  0.0889 -0.3731 -0.0030
  381DG     H14 8754   3.277   3.977   3.413  0.3625  1.4017  0.3337
  381DG     H15 8755   2.757   4.019   3.272  0.3884 -1.7899 -1.8186
  381DG     H16 8756   2.696   3.877   3.348 -0.0681 -0.6505  0.1348
  381DG     C17 8757   3.138   3.873   3.280 -0.0663 -0.6069  0.0987
  381DG     C18 8758   2.907   3.872   3.309 -0.1557  0.4434 -0.2842
  381DG     O19 8759   3.025   3.944   3.303  0.5528 -0.2864  0.0878
  381DG     H20 8760   3.137   3.786   3.345 -3.9399 -0.5340  0.3740
  381DG     H21 8761   3.123   3.847   3.175 -1.3784 -1.8651  0.5675
  381DG     H22 8762   2.909   3.789   3.379 -0.0433  2.1029  1.7628
  381DG     H23 8763   2.887   3.833   3.209 -1.5251 -0.5144  0.3282
  382DG      C1 8764   4.652   3.242   5.177 -0.4802  0.3059 -0.0310
  382DG      C2 8765   5.167   2.748   5.458 -0.7658 -0.3643  0.6255
  382DG      H3 8766   4.599   3.169   5.239  0.5515 -1.8113 -1.5109
  382DG      H4 8767   4.623   3.215   5.076  2.7574 -0.5487 -0.8442
  382DG      H5 8768   4.621   3.342   5.207 -0.0140  0.5004 -0.1879
  382DG      H6 8769   5.174   2.741   5.567  0.3882  2.3193  0.7957
  382DG      H7 8770   5.087   2.688   5.415 -0.1294  0.7905 -2.4422
  382DG      H8 8771   5.258   2.707   5.417  0.2207  0.2443  2.1103
  382DG      O9 8772   4.789   3.214   5.190 -0.0810 -0.1455 -0.1645
  382DG     O10 8773   5.155   2.886   5.419  0.3801  0.2277 -0.3315
  382DG     C11 8774   4.839   3.239   5.324 -0.4652 -0.0773 -0.0458
  382DG     C12 8775   5.146   2.910   5.278  0.6265  0.0795 -0.4944
  382DG     H13 8776   4.801   3.163   5.393  2.3302  0.2888  2.1216
  382DG     H14 8777   4.816   3.340   5.357 -1.5940  0.2062 -1.5974
  382DG     H15 8778   5.064   2.850   5.237 -0.2037  0.9368 -0.1200
  382DG     H16 8779   5.234   2.870   5.228  1.7690 -1.4897  2.5327
  382DG     C17 8780   4.992   3.230   5.321  0.6424 -0.0497  0.0780
  382DG     C18 8781   5.133   3.059   5.244 -0.4756 -0.1982 -0.3652
  382DG     O19 8782   5.016   3.093   5.302  0.3737 -0.7532  0.0728
  382DG     H20 8783   5.036   3.266   5.414  0.2870 -0.8929  0.5780
  382DG     H21 8784   5.027   3.277   5.229  1.0726 -0.1952  0.1679
  382DG     H22 8785   5.220   3.111   5.283 -0.3602 -1.9329  1.8810
  382DG     H23 8786   5.129   3.080   5.137 -2.7941  0.6054 -0.1755
  383DG      C1 8787   4.444   0.740   2.476  0.0923  0.6605 -0.6193
  383DG      C2 8788   3.828   0.238   2.678  0.1680 -0.3180 -0.5531
  383DG      H3 8789   4.490   0.729   2.378  0.4837 -1.0325 -0.2834
  383DG      H4 8790   4.515   0.747   2.558  1.4869  2.1237 -1.9004
  383DG      H5 8791   4.382   0.830   2.480 -1.7683 -0.5511 -0.8429
  383DG      H6 8792   3.762   0.324   2.690 -1.2540 -1.5599  0.9682
  383DG      H7 8793   3.837   0.227   2.570  2.3590 -2.9219 -0.2230
  383DG      H8 8794   3.765   0.159   2.719 -0.6132  1.1506  1.2701
  383DG      O9 8795   4.357   0.626   2.477  0.1067 -0.0813 -0.4593
  383DG     O10 8796   3.962   0.248   2.729  0.2131 -0.4028  0.0874
  383DG     C11 8797   4.436   0.511   2.495  0.0132 -0.2487 -0.0981
  383DG     C12 8798   4.040   0.341   2.666  0.2601  0.2093  0.4264
  383DG     H13 8799   4.509   0.526   2.574  0.1736  2.2422 -0.6466
  383DG     H14 8800   4.480   0.477   2.401 -1.4026 -4.1823  0.4719
  383DG     H15 8801   3.984   0.435   2.669 -0.3836 -0.1104 -0.8576
  383DG     H16 8802   4.056   0.316   2.561  2.4875  1.2847  0.4446
  383DG     C17 8803   4.350   0.396   2.546  0.5647 -0.9061  0.1836
  383DG     C18 8804   4.180   0.343   2.723  0.4723 -0.1786 -0.1680
  383DG     O19 8805   4.272   0.441   2.664 -0.3982  0.3350  0.1147
  383DG     H20 8806   4.406   0.305   2.569 -0.9448 -1.3090  2.5835
  383DG     H21 8807   4.279   0.362   2.471  0.0177 -1.3839  0.9013
  383DG     H22 8808   4.168   0.361   2.830  0.7430  0.3340 -0.2257
  383DG     H23 8809   4.228   0.245   2.711  1.6144  0.2970  0.3923
  384DG      C1 8810   0.005   1.662   5.161 -0.0809 -0.3653 -0.0851
  384DG      C2 8811   0.445   1.658   4.544  0.4797  0.5919  0.0190
  384DG      H3 8812  -0.076   1.710   5.106  0.0440  0.4898  0.4695
  384DG      H4 8813   0.075   1.734   5.201 -1.0035 -0.4203  1.7205
  384DG      H5 8814  -0.039   1.600   5.239  0.2290  1.9817  2.0776
  384DG      H6 8815   0.502   1.616   4.462 -0.9752  2.3946 -2.0139
  384DG      H7 8816   0.366   1.720   4.501  0.4008  0.2171 -0.3791
  384DG      H8 8817   0.504   1.726   4.606  0.0093  0.2179  0.9026
  384DG      O9 8818   0.062   1.580   5.063  0.1817 -0.0161  0.3916
  384DG     O10 8819   0.392   1.565   4.636  0.2168 -0.1256  0.2429
  384DG     C11 8820   0.159   1.494   5.104 -0.0670 -0.1047 -0.1066
  384DG     C12 8821   0.482   1.513   4.728 -0.5458  0.0617 -0.4593
  384DG     H13 8822   0.099   1.419   5.155  2.1735 -1.7036  0.3544
  384DG     H14 8823   0.217   1.537   5.186 -0.2349 -0.1676  0.0471
  384DG     H15 8824   0.541   1.589   4.777 -0.0124  1.7910 -3.5194
  384DG     H16 8825   0.557   1.450   4.681 -2.2985 -2.1489 -0.4753
  384DG     C17 8826   0.243   1.421   5.002  0.3767  0.4189 -1.0890
  384DG     C18 8827   0.404   1.418   4.827  0.3255 -0.5980  0.3450
  384DG     O19 8828   0.316   1.498   4.911  0.2766 -0.1724  0.2680
  384DG     H20 8829   0.185   1.344   4.950  1.0566 -1.3178  0.5757
  384DG     H21 8830   0.315   1.365   5.063  0.1627  0.7193 -0.5591
  384DG     H22 8831   0.353   1.337   4.775  2.2721 -1.8064  0.2258
  384DG     H23 8832   0.481   1.364   4.881  1.2960 -1.5044 -1.8280
  385DG      C1 8833   5.084   4.380   4.121  0.0552 -0.7146  0.2827
  385DG      C2 8834   5.404   4.960   4.607  0.3194  0.6390  0.3496
  385DG      H3 8835   5.018   4.451   4.172 -2.0041 -1.1039 -1.6441
  385DG      H4 8836   5.048   4.283   4.156  0.9804 -0.4986  1.9117
  385DG      H5 8837   5.064   4.385   4.014  0.2384 -1.8523  0.1816
  385DG      H6 8838   5.437   4.911   4.699 -1.1875  2.4262  1.9392
  385DG      H7 8839   5.465   5.050   4.603  2.5758 -0.5087  3.9747
  385DG      H8 8840   5.300   4.992   4.612 -0.2986 -1.3957  1.5913
  385DG      O9 8841   5.219   4.411   4.153  0.0623 -0.2155 -0.0160
  385DG     O10 8842   5.411   4.863   4.498 -0.5087 -0.4831 -0.3514
  385DG     C11 8843   5.267   4.532   4.097 -0.1301 -0.0559  0.4675
  385DG     C12 8844   5.323   4.756   4.518 -0.1486 -1.2699 -0.7739
  385DG     H13 8845   5.195   4.613   4.088  0.5283  0.6301  1.2722
  385DG     H14 8846   5.326   4.509   4.008  0.0569 -0.0979  0.6022
  385DG     H15 8847   5.218   4.780   4.504 -0.1184  1.0916  2.0495
  385DG     H16 8848   5.327   4.719   4.621 -0.7996  0.4577 -0.0943
  385DG     C17 8849   5.375   4.595   4.191 -0.7800 -0.1812  0.3710
  385DG     C18 8850   5.366   4.640   4.433 -0.5096  0.3129  0.4581
  385DG     O19 8851   5.331   4.681   4.305 -0.3808 -0.0336 -0.0819
  385DG     H20 8852   5.422   4.665   4.122 -2.2071 -1.1125 -1.6809
  385DG     H21 8853   5.451   4.525   4.224 -0.1371  0.8370  1.1146
  385DG     H22 8854   5.473   4.619   4.427 -0.5403  0.3688 -0.3681
  385DG     H23 8855   5.310   4.549   4.455  0.3295  0.0177  1.4727
  386DG      C1 8856   1.085   2.876   1.864 -0.6245  0.2070 -0.6272
  386DG      C2 8857   0.595   2.749   2.317 -0.4522  0.7387 -0.2516
  386DG      H3 8858   1.134   2.945   1.932  1.0263 -0.6144 -0.9078
  386DG      H4 8859   1.001   2.921   1.812 -0.4651  2.1889  0.7538
  386DG      H5 8860   1.157   2.848   1.787  0.8959 -0.4623  0.9730
  386DG      H6 8861   0.497   2.752   2.268 -0.0218 -1.5248 -1.3384
  386DG      H7 8862   0.576   2.688   2.405 -0.9216 -0.8506 -1.4233
  386DG      H8 8863   0.629   2.846   2.354 -0.7011  0.3811  0.9750
  386DG      O9 8864   1.032   2.758   1.929 -0.7801  0.4637  0.6719
  386DG     O10 8865   0.695   2.674   2.245 -0.0971  0.4602  0.0823
  386DG     C11 8866   1.130   2.672   1.988 -0.3630 -0.0289 -0.5926
  386DG     C12 8867   0.799   2.648   2.331 -1.3110 -0.0762 -0.0677
  386DG     H13 8868   1.199   2.733   2.046  0.4741  0.4489 -2.0224
  386DG     H14 8869   1.198   2.619   1.921  1.8688  0.5152  1.1324
  386DG     H15 8870   0.765   2.578   2.407  0.0998 -1.7933 -0.9469
  386DG     H16 8871   0.831   2.734   2.391 -0.6391  0.1435 -0.7214
  386DG     C17 8872   1.057   2.581   2.081 -0.3582 -0.4600 -0.7950
  386DG     C18 8873   0.916   2.573   2.260 -0.7446  0.0778 -0.0306
  386DG     O19 8874   0.965   2.653   2.159 -0.9066 -0.9347  0.3821
  386DG     H20 8875   1.137   2.535   2.138 -1.0659 -1.9868 -0.9705
  386DG     H21 8876   1.010   2.494   2.034 -1.2843  0.8576 -2.4450
  386DG     H22 8877   0.993   2.539   2.330 -0.1055  1.0903 -0.2161
  386DG     H23 8878   0.880   2.482   2.212  0.4712 -0.1937 -0.4750
  387DG      C1 8879   3.804   1.857   0.093 -0.0285 -0.1315 -0.4260
  387DG      C2 8880   3.978   1.280   0.424  0.5469 -0.0094 -0.9015
  387DG      H3 8881   3.851   1.951   0.063 -1.3466  0.2269 -1.4747
  387DG      H4 8882   3.726   1.869   0.168  0.6737  0.3542  0.2385
  387DG      H5 8883   3.749   1.814   0.009 -0.7513 -0.6418  0.2841
  387DG      H6 8884   4.049   1.234   0.493 -0.0165  0.0027 -0.3053
  387DG      H7 8885   3.903   1.310   0.497  2.2006 -2.5922  2.1376
  387DG      H8 8886   3.922   1.210   0.362 -0.2609  1.8507 -2.3388
  387DG      O9 8887   3.911   1.772   0.131  0.0187  0.2884 -0.0034
  387DG     O10 8888   4.018   1.393   0.353 -0.0066 -0.1700 -0.5269
  387DG     C11 8889   4.003   1.768   0.035 -0.4445 -0.0498  0.0494
  387DG     C12 8890   4.107   1.365   0.247  0.1941  0.1376 -0.2479
  387DG     H13 8891   4.042   1.867   0.009  1.9666 -0.5481  1.4790
  387DG     H14 8892   3.975   1.717  -0.057  1.8323 -2.7077  0.7277
  387DG     H15 8893   4.046   1.315   0.171 -0.7731  0.5549  0.2285
  387DG     H16 8894   4.178   1.295   0.290 -1.9344 -0.6456  2.2902
  387DG     C17 8895   4.125   1.695   0.098  1.0094 -0.3592 -0.2741
  387DG     C18 8896   4.175   1.482   0.190 -0.4501 -0.7456 -0.7938
  387DG     O19 8897   4.076   1.569   0.134  0.2508 -0.1717  0.2744
  387DG     H20 8898   4.170   1.764   0.169  0.9355 -2.2607  1.7021
  387DG     H21 8899   4.199   1.667   0.022 -0.5846 -0.7502 -1.7588
  387DG     H22 8900   4.225   1.531   0.274  0.4966 -0.7392 -1.3509
  387DG     H23 8901   4.248   1.447   0.117 -0.0973 -3.4547  0.7513
  388DG      C1 8902   1.735   4.457   0.289  0.1148  0.2154 -0.1782
  388DG      C2 8903   2.260   4.465   0.970  0.8343 -0.1391 -0.2281
  388DG      H3 8904   1.758   4.375   0.222  0.1438  0.4836 -0.5029
  388DG      H4 8905   1.813   4.527   0.259 -1.0165  2.4090  1.6676
  388DG      H5 8906   1.636   4.500   0.276  0.0375  0.5032  1.2340
  388DG      H6 8907   2.240   4.358   0.964  2.2013 -0.4229  0.0851
  388DG      H7 8908   2.335   4.487   0.894 -0.1654  1.3247 -0.8611
  388DG      H8 8909   2.301   4.488   1.068  0.8188 -0.7021 -0.0871
  388DG      O9 8910   1.749   4.434   0.430 -0.1407 -0.9250  0.2946
  388DG     O10 8911   2.139   4.539   0.942 -0.0326  0.0975 -0.6211
  388DG     C11 8912   1.733   4.554   0.502  0.1692 -0.3544  0.0147
  388DG     C12 8913   2.090   4.513   0.813  0.5830  0.0728 -0.0957
  388DG     H13 8914   1.630   4.588   0.499 -0.6820 -2.2273  3.0612
  388DG     H14 8915   1.790   4.633   0.453  0.6672 -1.4052 -1.1551
  388DG     H15 8916   2.096   4.407   0.787 -0.0322 -0.2627  1.0619
  388DG     H16 8917   2.155   4.569   0.746 -1.3310  0.9599 -1.3011
  388DG     C17 8918   1.758   4.548   0.651  0.4799  0.2348 -0.3934
  388DG     C18 8919   1.940   4.559   0.795  0.1516  0.0509 -0.9764
  388DG     O19 8920   1.895   4.526   0.666  0.3020  0.1027 -0.1855
  388DG     H20 8921   1.708   4.463   0.698  0.8120  1.0066  1.4798
  388DG     H21 8922   1.727   4.642   0.697  2.1625 -0.4531  2.4285
  388DG     H22 8923   1.885   4.508   0.875  2.1713  2.6499  2.3850
  388DG     H23 8924   1.922   4.663   0.821 -2.2280 -0.9615  2.0199
  389DG      C1 8925   4.513   5.219   3.124 -0.2342  0.4966 -0.3480
  389DG      C2 8926   3.797   5.399   3.042  0.6138 -0.5763 -0.6483
  389DG      H3 8927   4.598   5.151   3.112  1.0393  1.3987  2.5925
  389DG      H4 8928   4.454   5.174   3.204  1.1622  0.2307  0.5666
  389DG      H5 8929   4.555   5.308   3.171  1.4823 -0.1721 -0.5284
  389DG      H6 8930   3.790   5.454   3.136  0.5772  2.7183 -2.4149
  389DG      H7 8931   3.750   5.463   2.967  0.6540  0.3718  0.1182
  389DG      H8 8932   3.729   5.315   3.050  1.9729 -1.6177  0.5112
  389DG      O9 8933   4.439   5.244   3.006 -0.4256  0.3719 -0.5066
  389DG     O10 8934   3.927   5.360   3.015  0.0256  0.6554  0.1153
  389DG     C11 8935   4.374   5.124   2.968 -0.1369 -0.8916  0.0010
  389DG     C12 8936   3.986   5.409   2.892  0.3299 -0.0603 -0.9997
  389DG     H13 8937   4.338   5.076   3.059 -1.9263  0.5868  0.1402
  389DG     H14 8938   4.440   5.058   2.912  1.2964  2.0978 -2.1064
  389DG     H15 8939   4.057   5.489   2.914  1.5613 -1.4872  0.4626
  389DG     H16 8940   3.920   5.454   2.818 -1.3483  1.4718  1.3212
  389DG     C17 8941   4.250   5.144   2.883 -0.0904  0.2533 -0.3982
  389DG     C18 8942   4.058   5.284   2.835 -0.1474 -0.0173 -0.4061
  389DG     O19 8943   4.153   5.237   2.928 -0.2045 -0.4140 -0.7015
  389DG     H20 8944   4.200   5.047   2.875 -3.3533  1.9164 -2.6113
  389DG     H21 8945   4.298   5.167   2.788  1.0812  1.1694  0.3880
  389DG     H22 8946   3.997   5.197   2.811  0.5443 -0.1667 -1.7099
  389DG     H23 8947   4.108   5.294   2.738  1.0035  1.3827  0.2864
  390DG      C1 8948   0.581   1.717   0.134  0.3158 -0.1561 -0.4926
  390DG      C2 8949   0.224   1.090  -0.328 -0.1756  0.3824  0.0762
  390DG      H3 8950   0.645   1.671   0.210 -1.0720 -2.0474 -0.4122
  390DG      H4 8951   0.546   1.818   0.156  0.6646  0.0489 -0.8764
  390DG      H5 8952   0.633   1.720   0.039  2.2599  2.2397  0.5481
  390DG      H6 8953   0.271   1.000  -0.287 -0.5474  0.4353  0.6246
  390DG      H7 8954   0.116   1.076  -0.329 -0.1957  0.3782 -1.6659
  390DG      H8 8955   0.258   1.110  -0.430  0.4792 -1.2777 -0.0614
  390DG      O9 8956   0.464   1.632   0.134 -0.2549  0.1113  0.6582
  390DG     O10 8957   0.243   1.204  -0.250 -0.4612  0.4448  0.2831
  390DG     C11 8958   0.473   1.509   0.072  0.6580 -0.6590 -0.2835
  390DG     C12 8959   0.199   1.168  -0.118 -0.2238 -0.0766  0.0231
  390DG     H13 8960   0.546   1.443   0.120  1.7292  0.2602 -0.5926
  390DG     H14 8961   0.497   1.517  -0.034  0.8527 -1.8720 -0.3504
  390DG     H15 8962   0.268   1.089  -0.088  0.2919 -0.3823 -1.8091
  390DG     H16 8963   0.095   1.136  -0.118 -0.3497  0.2227 -1.9977
  390DG     C17 8964   0.336   1.449   0.072 -0.9461  0.0535 -0.2990
  390DG     C18 8965   0.206   1.295  -0.040 -0.0565 -0.2339 -0.3115
  390DG     O19 8966   0.332   1.354  -0.034 -0.4089  0.0984  0.0168
  390DG     H20 8967   0.264   1.526   0.044 -2.0497 -0.1702  1.7009
  390DG     H21 8968   0.311   1.406   0.170  2.0812 -0.7216  0.2221
  390DG     H22 8969   0.158   1.366  -0.108  0.4096 -0.4325 -0.8555
  390DG     H23 8970   0.157   1.282   0.056  0.0495  1.3697 -0.0147
  391DG      C1 8971   3.282   5.288   4.597  0.5697  0.4166  0.6196
  391DG      C2 8972   3.637   5.655   4.238 -0.7341 -0.2762 -0.3750
  391DG      H3 8973   3.205   5.340   4.653 -0.6524  0.5080 -1.0608
  391DG      H4 8974   3.372   5.319   4.650  0.5951 -1.1627  1.5471
  391DG      H5 8975   3.262   5.181   4.591 -1.2408  0.7595 -0.2627
  391DG      H6 8976   3.686   5.636   4.333 -1.2480  0.4643  0.0476
  391DG      H7 8977   3.712   5.647   4.160 -0.5581  1.5412 -0.4204
  391DG      H8 8978   3.596   5.756   4.239 -0.3192 -0.1152  0.1960
  391DG      O9 8979   3.287   5.337   4.463  0.2259  0.2123  0.0924
  391DG     O10 8980   3.539   5.556   4.227 -0.0450 -0.0653 -0.2519
  391DG     C11 8981   3.183   5.291   4.387  0.2088 -0.2549 -0.5368
  391DG     C12 8982   3.449   5.586   4.124  0.5218 -0.2271 -0.2431
  391DG     H13 8983   3.093   5.341   4.423 -0.5167 -1.8600 -0.0073
  391DG     H14 8984   3.160   5.185   4.395  0.3481 -0.1683  1.7630
  391DG     H15 8985   3.513   5.582   4.036  1.8906  1.9188  0.5801
  391DG     H16 8986   3.410   5.687   4.136  0.9571 -0.3022  2.5614
  391DG     C17 8987   3.207   5.321   4.242  0.0433  0.0468 -0.2212
  391DG     C18 8988   3.340   5.478   4.112 -0.6359 -0.1221  0.2063
  391DG     O19 8989   3.284   5.443   4.238  0.0268  0.3447  0.0579
  391DG     H20 8990   3.115   5.337   4.187  0.0078 -0.5696 -0.3550
  391DG     H21 8991   3.251   5.239   4.185  0.9476  1.7224 -2.0759
  391DG     H22 8992   3.266   5.503   4.036  0.7783 -0.6358 -1.4242
  391DG     H23 8993   3.390   5.389   4.073  0.4718 -0.3849  2.1075
  392DG      C1 8994   2.512   3.141   5.025 -0.5427 -0.0841 -0.1641
  392DG      C2 8995   3.047   3.306   4.661  0.5623  0.1050  0.3379
  392DG      H3 8996   2.577   3.054   5.020  1.1322  1.1490 -1.2450
  392DG      H4 8997   2.446   3.147   4.939 -0.0465  1.3903 -0.4782
  392DG      H5 8998   2.453   3.149   5.116 -1.4027 -1.0495 -0.6288
  392DG      H6 8999   3.122   3.384   4.664 -0.4410  1.1711 -0.8166
  392DG      H7 9000   3.080   3.207   4.691 -0.2258 -0.2168  0.1710
  392DG      H8 9001   3.004   3.294   4.561 -0.1603 -0.6084  0.7251
  392DG      O9 9002   2.604   3.250   5.020 -0.1321  0.3859 -0.4884
  392DG     O10 9003   2.941   3.325   4.753  0.0416  0.2725  0.5898
  392DG     C11 9004   2.532   3.374   5.006 -0.2178 -0.0154  1.0947
  392DG     C12 9005   2.873   3.452   4.743 -0.6770 -0.0742  0.5373
  392DG     H13 9006   2.458   3.386   5.084 -1.4946 -0.5086  0.0002
  392DG     H14 9007   2.481   3.377   4.909 -1.0729  2.3097  1.5657
  392DG     H15 9008   2.843   3.466   4.639 -1.1135  1.7666  0.8745
  392DG     H16 9009   2.928   3.544   4.765 -1.7699  0.7478 -0.0791
  392DG     C17 9010   2.637   3.490   5.017  0.3389  0.6939  0.4845
  392DG     C18 9011   2.738   3.457   4.812  0.3276 -0.0344  0.3434
  392DG     O19 9012   2.757   3.466   4.946  0.6389  1.2272 -0.4634
  392DG     H20 9013   2.645   3.505   5.125 -0.3855 -2.6923  1.1277
  392DG     H21 9014   2.592   3.582   4.981 -2.4944 -1.0300 -0.6509
  392DG     H22 9015   2.688   3.545   4.770  1.4316  0.7502  0.6091
  392DG     H23 9016   2.692   3.362   4.789  4.2177 -1.9717 -0.3852
  393DG      C1 9017   0.966   5.006   1.505 -0.5701  0.2534  0.2610
  393DG      C2 9018   0.727   4.617   0.813 -0.4724  0.6179 -0.3401
  393DG      H3 9019   1.017   5.053   1.589  0.8901 -2.9695  1.3650
  393DG      H4 9020   0.873   4.966   1.546 -2.5419  1.8366 -2.3883
  393DG      H5 9021   0.944   5.084   1.433  0.8585  0.4760  0.0291
  393DG      H6 9022   0.641   4.676   0.847 -1.8604 -0.6395 -1.4922
  393DG      H7 9023   0.738   4.649   0.710 -0.3558 -0.4468 -0.6710
  393DG      H8 9024   0.702   4.511   0.820 -0.5844  0.6825  0.3902
  393DG      O9 9025   1.030   4.893   1.452 -0.0853 -0.2035 -0.0695
  393DG     O10 9026   0.837   4.633   0.903 -0.0321 -0.0619 -0.6666
  393DG     C11 9027   0.971   4.856   1.326  0.0038  0.2616 -0.5036
  393DG     C12 9028   0.861   4.522   0.995  0.2560 -0.2552  0.0577
  393DG     H13 9029   0.970   4.933   1.249  3.6508  1.7383  0.7036
  393DG     H14 9030   0.868   4.828   1.346 -0.2517  1.9111  0.7251
  393DG     H15 9031   0.901   4.433   0.946  0.5459 -0.4912  0.7222
  393DG     H16 9032   0.767   4.496   1.043  0.3534  0.1953  0.4999
  393DG     C17 9033   1.026   4.731   1.271 -0.8061 -0.8440  0.1590
  393DG     C18 9034   0.967   4.572   1.099  0.0616 -0.6191 -0.7370
  393DG     O19 9035   0.940   4.700   1.163 -0.2581 -0.4264 -0.2136
  393DG     H20 9036   1.007   4.661   1.352 -2.4220 -1.1899 -0.4730
  393DG     H21 9037   1.128   4.740   1.235 -0.9479  0.4749  0.0436
  393DG     H22 9038   0.973   4.494   1.174 -0.0723 -0.1436 -0.2253
  393DG     H23 9039   1.064   4.586   1.051 -1.1488  1.4483 -2.8428
  394DG      C1 9040   5.315   1.385   1.819  0.7050  0.0725  0.4474
  394DG      C2 9041   5.066   0.732   2.093  0.2675 -0.1160  0.7410
  394DG      H3 9042   5.361   1.372   1.721  3.2273  0.2423  1.5471
  394DG      H4 9043   5.389   1.353   1.892 -0.5038 -0.4930  1.4521
  394DG      H5 9044   5.300   1.491   1.837  4.0849  0.5776  0.9327
  394DG      H6 9045   4.997   0.699   2.170  0.1010  1.6817  1.4250
  394DG      H7 9046   5.069   0.672   2.002  0.7677  1.4122 -0.3024
  394DG      H8 9047   5.165   0.725   2.139  0.6444  0.5901  0.0548
  394DG      O9 9048   5.191   1.310   1.846  0.2126 -0.4771  0.3766
  394DG     O10 9049   5.017   0.861   2.060 -0.3622 -0.1488 -0.0556
  394DG     C11 9050   5.096   1.380   1.935  0.2183  0.4440  0.2181
  394DG     C12 9051   5.012   0.948   2.171 -0.0197  0.3348  0.3287
  394DG     H13 9052   5.038   1.461   1.892  2.3539  2.5067  0.9955
  394DG     H14 9053   5.144   1.413   2.028  0.2897  2.3757 -0.4554
  394DG     H15 9054   5.106   0.961   2.224  1.0374 -2.4971 -0.6648
  394DG     H16 9055   4.942   0.917   2.249  0.6392  0.1093  0.8371
  394DG     C17 9056   4.987   1.276   1.982  0.2221 -0.6841  0.1864
  394DG     C18 9057   4.953   1.088   2.127  0.1615 -0.0313  0.3000
  394DG     O19 9058   5.043   1.157   2.041  0.0566  0.0984  0.5654
  394DG     H20 9059   4.916   1.240   1.908  2.4940 -3.0544 -1.0162
  394DG     H21 9060   4.927   1.326   2.058 -0.6467  1.9975 -2.1149
  394DG     H22 9061   4.856   1.064   2.084 -0.2711 -0.1251  1.3003
  394DG     H23 9062   4.923   1.154   2.208 -1.1771 -0.4052  0.1437
  395DG      C1 9063   1.129   1.408   3.082  0.3210 -0.6458  0.1596
  395DG      C2 9064   1.250   2.091   3.527  0.4890  0.0114 -0.1106
  395DG      H3 9065   1.046   1.397   3.152 -0.1517  0.7484 -0.1385
  395DG      H4 9066   1.213   1.351   3.122  0.0149 -0.7244  0.7063
  395DG      H5 9067   1.107   1.358   2.988 -0.3537 -0.2448  0.0983
  395DG      H6 9068   1.317   2.059   3.607  0.7328 -1.1873 -0.7776
  395DG      H7 9069   1.323   2.143   3.465  0.3195  0.7704  0.3107
  395DG      H8 9070   1.170   2.152   3.568 -0.5722 -1.2623 -0.2021
  395DG      O9 9071   1.167   1.534   3.060 -0.1970 -0.1140 -0.6522
  395DG     O10 9072   1.193   1.984   3.444  0.7085 -0.6520  0.8660
  395DG     C11 9073   1.218   1.592   3.180 -0.2519 -0.1803 -0.1620
  395DG     C12 9074   1.127   1.895   3.530  0.0100 -0.7557 -0.6120
  395DG     H13 9075   1.280   1.675   3.148 -0.7651  1.3900  2.5547
  395DG     H14 9076   1.284   1.533   3.244 -1.1732  1.1750  2.1751
  395DG     H15 9077   1.047   1.943   3.586 -0.2417 -0.8406 -0.8976
  395DG     H16 9078   1.193   1.853   3.606 -1.4619 -0.8588  0.6597
  395DG     C17 9079   1.096   1.644   3.262  0.1179  0.1608 -0.2804
  395DG     C18 9080   1.061   1.781   3.459 -1.0141  0.1346  0.3255
  395DG     O19 9081   1.157   1.729   3.362  0.4850  0.1270  0.2483
  395DG     H20 9082   1.043   1.574   3.326 -0.1893  1.9289  1.5165
  395DG     H21 9083   1.029   1.703   3.199 -0.1142 -0.5748 -0.7317
  395DG     H22 9084   1.031   1.705   3.531  0.1676 -0.6107  0.0539
  395DG     H23 9085   0.970   1.820   3.412 -1.0232  0.7889  0.8799
  396DG      C1 9086   5.131   4.488   2.878 -0.0752  0.0901 -0.4591
  396DG      C2 9087   5.102   4.277   2.143 -0.5150  0.2296  0.1853
  396DG      H3 9088   5.025   4.468   2.865  0.0974  0.0058 -2.0386
  396DG      H4 9089   5.153   4.592   2.899  0.1855  0.2806 -1.5860
  396DG      H5 9090   5.166   4.421   2.956 -1.6346 -0.4205 -0.1651
  396DG      H6 9091   5.154   4.311   2.054 -1.7689  0.1192 -0.6204
  396DG      H7 9092   5.061   4.182   2.108  2.7288 -1.0183 -0.5167
  396DG      H8 9093   5.019   4.347   2.149  1.4394  2.5779  1.1134
  396DG      O9 9094   5.193   4.439   2.762 -0.0163  0.5382  0.4101
  396DG     O10 9095   5.179   4.274   2.259 -0.0312 -0.2184 -0.5142
  396DG     C11 9096   5.321   4.494   2.741 -0.0283 -0.0406  0.1218
  396DG     C12 9097   5.214   4.403   2.315  0.1339 -0.4193 -0.2443
  396DG     H13 9098   5.388   4.474   2.825 -2.0029 -1.6317  1.4198
  396DG     H14 9099   5.310   4.602   2.734  0.9581  0.2478  2.0551
  396DG     H15 9100   5.130   4.471   2.315  0.9282  0.5839  0.2907
  396DG     H16 9101   5.296   4.448   2.259 -0.3411  1.9858  0.8898
  396DG     C17 9102   5.408   4.443   2.634  0.2453 -0.1591 -0.6018
  396DG     C18 9103   5.242   4.386   2.464  0.4308  0.0762 -0.2457
  396DG     O19 9104   5.354   4.470   2.505  0.5868 -0.3151  0.1910
  396DG     H20 9105   5.433   4.337   2.641 -1.5219 -0.6821 -1.5630
  396DG     H21 9106   5.502   4.497   2.629 -0.1404  0.4158 -2.3361
  396DG     H22 9107   5.150   4.400   2.520  0.5397 -0.2514  0.0161
  396DG     H23 9108   5.276   4.284   2.479 -0.4616 -0.6096 -2.4489
  397DG      C1 9109   0.464   2.006   1.852  0.1214 -0.5814  0.4358
  397DG      C2 9110   1.240   2.345   1.758  0.3328 -0.4128  0.2894
  397DG      H3 9111   0.522   1.914   1.864 -2.1463 -1.8911  1.8760
  397DG      H4 9112   0.372   1.984   1.799  0.0520  1.3228 -0.3180
  397DG      H5 9113   0.447   2.051   1.950 -0.1202 -0.0992  0.1753
  397DG      H6 9114   1.333   2.362   1.703 -0.9701  0.3742 -1.7707
  397DG      H7 9115   1.234   2.444   1.803  1.4513 -0.2222  0.0508
  397DG      H8 9116   1.257   2.272   1.837 -1.1181 -0.7401  0.3215
  397DG      O9 9117   0.535   2.100   1.768  0.5808  0.6154 -0.5128
  397DG     O10 9118   1.136   2.309   1.671 -0.0243  0.0166  0.0847
  397DG     C11 9119   0.601   2.049   1.653 -0.6324  0.4606 -0.0218
  397DG     C12 9120   1.017   2.287   1.750 -0.4968  0.7913  0.5581
  397DG     H13 9121   0.526   2.036   1.575 -0.9413  1.0975  0.1667
  397DG     H14 9122   0.648   1.951   1.663  0.2680  0.6850 -1.5773
  397DG     H15 9123   0.983   2.368   1.815 -0.8335  0.3043  0.9924
  397DG     H16 9124   1.029   2.201   1.816 -0.3631 -1.5429 -2.3144
  397DG     C17 9125   0.696   2.154   1.611  0.0787 -0.4659  0.3877
  397DG     C18 9126   0.899   2.261   1.659  0.6484  0.7351  1.1211
  397DG     O19 9127   0.799   2.175   1.712  0.5769 -0.0842  0.0851
  397DG     H20 9128   0.638   2.243   1.588  1.3492 -0.4008 -3.0971
  397DG     H21 9129   0.741   2.129   1.515 -1.5691  0.7951 -0.7724
  397DG     H22 9130   0.850   2.353   1.628  1.2216  0.3283 -1.1942
  397DG     H23 9131   0.933   2.209   1.569 -0.8653 -0.9818  1.4758
  398DG      C1 9132   4.239   0.803   0.846 -0.0315  0.1565 -0.7968
  398DG      C2 9133   4.421   0.154   1.338  0.2652  0.0673 -0.1902
  398DG      H3 9134   4.338   0.792   0.802  0.7873  3.3213 -0.0373
  398DG      H4 9135   4.199   0.899   0.815  0.4521  0.0738 -1.7066
  398DG      H5 9136   4.163   0.733   0.813 -1.9685  2.4028 -1.3508
  398DG      H6 9137   4.315   0.147   1.363  0.4803 -1.3552  0.4458
  398DG      H7 9138   4.441   0.067   1.276 -0.0887 -0.5698  0.5740
  398DG      H8 9139   4.485   0.139   1.426  2.3844  1.2756 -1.4358
  398DG      O9 9140   4.256   0.792   0.988  0.2051  0.3339  0.2008
  398DG     O10 9141   4.449   0.281   1.286 -0.0086 -0.2106  0.4851
  398DG     C11 9142   4.291   0.661   1.032  0.4687  0.6721  0.0202
  398DG     C12 9143   4.430   0.385   1.384  0.1409  0.1601 -0.0289
  398DG     H13 9144   4.394   0.643   0.998 -0.4044 -1.8338 -1.6183
  398DG     H14 9145   4.232   0.588   0.976  0.3715  0.8918 -0.1654
  398DG     H15 9146   4.520   0.391   1.444  0.8900  2.5855 -1.3079
  398DG     H16 9147   4.344   0.367   1.449  0.2488  1.0315  0.3689
  398DG     C17 9148   4.291   0.654   1.185 -0.7343 -0.2347  0.2770
  398DG     C18 9149   4.423   0.522   1.326 -0.3314  0.2475  0.3100
  398DG     O19 9150   4.312   0.519   1.242  0.5153  0.3132 -0.2120
  398DG     H20 9151   4.198   0.693   1.228  0.8218  2.3245  1.5266
  398DG     H21 9152   4.363   0.730   1.214 -2.6549  1.5037  0.7290
  398DG     H22 9153   4.415   0.597   1.405 -0.0134  0.0855  0.4971
  398DG     H23 9154   4.513   0.548   1.270 -0.4772 -0.6725 -0.3719
  399DG      C1 9155   0.768   1.066   3.807  0.3599 -0.0951  0.3739
  399DG      C2 9156   1.158   1.633   4.036  0.7408  0.2839  0.0612
  399DG      H3 9157   0.838   1.013   3.743  0.5158 -0.2095  0.6412
  399DG      H4 9158   0.671   1.017   3.799  0.2794  0.2078 -0.8040
  399DG      H5 9159   0.786   1.059   3.914 -1.3012 -2.3896  0.5608
  399DG      H6 9160   1.229   1.581   3.971 -0.5091  1.2557 -2.2191
  399DG      H7 9161   1.190   1.737   4.025 -1.2407  0.8671 -0.5837
  399DG      H8 9162   1.182   1.611   4.140  3.2157  1.1786 -0.2453
  399DG      O9 9163   0.767   1.198   3.763  0.0995 -0.7670  0.6170
  399DG     O10 9164   1.018   1.616   3.995 -0.0386 -0.6273 -0.2014
  399DG     C11 9165   0.672   1.282   3.828  0.0074 -0.3205 -0.0249
  399DG     C12 9166   1.006   1.620   3.853  0.3494 -0.2879  0.2734
  399DG     H13 9167   0.684   1.277   3.936  0.6164  3.7869  0.2729
  399DG     H14 9168   0.572   1.246   3.806 -0.0468 -0.3588  0.2829
  399DG     H15 9169   1.072   1.545   3.811  1.1175  0.5941 -0.1345
  399DG     H16 9170   1.042   1.719   3.825 -1.3388  0.3766  0.3299
  399DG     C17 9171   0.696   1.427   3.783  0.2829 -0.0449  0.5444
  399DG     C18 9172   0.866   1.603   3.793  0.2135 -0.0199 -0.0610
  399DG     O19 9173   0.833   1.465   3.806 -0.2882 -0.1403  0.3173
  399DG     H20 9174   0.634   1.508   3.821  0.1563  0.3874 -0.5619
  399DG     H21 9175   0.676   1.430   3.676 -0.0611 -0.1106  0.6053
  399DG     H22 9176   0.785   1.659   3.840  0.5443 -0.6667  1.3617
  399DG     H23 9177   0.867   1.620   3.686  1.2265  2.0700  0.2359
  400DG      C1 9178   1.699   3.776   5.162 -1.2958 -0.0890  0.1122
  400DG      C2 9179   2.123   3.253   5.123  0.7730  0.4096 -0.0883
  400DG      H3 9180   1.597   3.812   5.174 -0.6176  1.4166  2.0634
  400DG      H4 9181   1.758   3.847   5.104  2.2253 -3.7695 -1.3224
  400DG      H5 9182   1.742   3.783   5.262  0.0926  0.4704 -0.4956
  400DG      H6 9183   2.149   3.271   5.228 -2.0218 -1.2588  1.0190
  400DG      H7 9184   2.145   3.146   5.124 -0.4328  0.1231 -1.6852
  400DG      H8 9185   2.189   3.298   5.049  0.3264  0.0466 -0.7096
  400DG      O9 9186   1.703   3.648   5.105 -0.0498  0.4543 -0.1187
  400DG     O10 9187   1.991   3.288   5.095  0.3503  0.0466 -0.5676
  400DG     C11 9188   1.654   3.631   4.972  0.1719 -0.0916 -0.4121
  400DG     C12 9189   1.940   3.249   4.968 -0.4518  0.1838  0.1581
  400DG     H13 9190   1.712   3.684   4.897  1.0117  2.3122  1.7716
  400DG     H14 9191   1.552   3.672   4.971  0.4132  0.5134 -0.7321
  400DG     H15 9192   1.945   3.141   4.952  0.3921 -0.2230  2.6776
  400DG     H16 9193   1.987   3.299   4.883 -2.0760 -0.0023 -0.8895
  400DG     C17 9194   1.650   3.480   4.947 -0.6925  0.1403 -0.1523
  400DG     C18 9195   1.795   3.287   4.959  0.1272 -0.1746 -0.8193
  400DG     O19 9196   1.781   3.427   4.977 -0.1028 -0.3536 -0.5099
  400DG     H20 9197   1.623   3.470   4.843 -2.4262 -0.5548  0.3379
  400DG     H21 9198   1.575   3.436   5.012 -0.2916  0.0430  0.2560
  400DG     H22 9199   1.756   3.256   4.862  2.0907  0.7383 -1.9431
  400DG     H23 9200   1.734   3.241   5.038 -0.9260  3.3559  0.6407
  401DG      C1 9201   1.290   4.579   1.477 -0.6990 -0.3849  0.2680
  401DG      C2 9202   1.605   4.018   1.883 -0.7407 -0.4745 -0.3169
  401DG      H3 9203   1.265   4.524   1.387 -0.2389 -0.5795  0.2562
  401DG      H4 9204   1.297   4.684   1.446 -1.4285 -0.1725  0.7802
  401DG      H5 9205   1.212   4.565   1.551 -2.9704  1.5398 -1.6162
  401DG      H6 9206   1.670   3.931   1.892 -0.6377 -0.2958  0.8433
  401DG      H7 9207   1.590   4.063   1.982  0.0178 -1.3333  0.2097
  401DG      H8 9208   1.510   3.980   1.847 -1.6554  2.4718 -1.2846
  401DG      O9 9209   1.407   4.515   1.536  1.1094  0.4411 -0.2926
  401DG     O10 9210   1.647   4.120   1.791 -0.5106 -0.0818 -0.6699
  401DG     C11 9211   1.511   4.485   1.445  0.2110 -0.5701  0.3177
  401DG     C12 9212   1.678   4.081   1.660  0.2043 -0.0265  0.1424
  401DG     H13 9213   1.538   4.576   1.390 -2.8537 -0.2401 -0.8257
  401DG     H14 9214   1.475   4.432   1.357  0.2885 -0.6289  0.3218
  401DG     H15 9215   1.577   4.052   1.630  0.1094  0.5153 -0.0860
  401DG     H16 9216   1.741   3.994   1.647 -0.8010 -0.6454 -0.7306
  401DG     C17 9217   1.629   4.419   1.504  0.1456  0.5847  0.3682
  401DG     C18 9218   1.720   4.199   1.575  0.1831  0.0502  0.3230
  401DG     O19 9219   1.609   4.280   1.547  0.1436 -0.5299  0.3192
  401DG     H20 9220   1.660   4.470   1.595 -2.2362  0.5484  1.2692
  401DG     H21 9221   1.720   4.427   1.445  0.0015 -0.6396 -0.0388
  401DG     H22 9222   1.793   4.261   1.628 -0.0211 -0.4175  1.1815
  401DG     H23 9223   1.768   4.164   1.484 -1.6437 -0.3857 -0.5279
  402DG      C1 9224   2.664   2.762   1.842 -0.7500  0.6765 -0.0649
  402DG      C2 9225   2.397   3.088   2.468  0.4056  0.2801 -0.6048
  402DG      H3 9226   2.760   2.749   1.892 -0.6278  1.4640 -0.0946
  402DG      H4 9227   2.693   2.780   1.738  0.4170 -1.3549 -0.1516
  402DG      H5 9228   2.611   2.667   1.853  0.0070 -0.0346 -2.0952
  402DG      H6 9229   2.318   3.160   2.489  1.0521  1.6179 -2.5079
  402DG      H7 9230   2.361   2.987   2.487 -1.0755  0.4891 -2.0103
  402DG      H8 9231   2.479   3.118   2.533 -0.0083  0.7187 -0.2730
  402DG      O9 9232   2.585   2.865   1.894 -0.0519  0.1580  0.4706
  402DG     O10 9233   2.445   3.110   2.337  0.3782  0.5747  0.1580
  402DG     C11 9234   2.653   2.987   1.898  0.6833 -0.4014  0.1744
  402DG     C12 9235   2.343   3.114   2.236  0.2139  0.1752 -0.5165
  402DG     H13 9236   2.707   3.019   1.809  2.0910 -0.7435  0.8659
  402DG     H14 9237   2.736   2.995   1.969  0.4130  3.1080  0.2609
  402DG     H15 9238   2.263   3.180   2.268  0.4144 -0.3496  1.2025
  402DG     H16 9239   2.298   3.015   2.227 -1.6087  0.8961  0.3323
  402DG     C17 9240   2.554   3.101   1.929  0.9158 -0.1857 -0.6611
  402DG     C18 9241   2.395   3.152   2.096  0.1784  0.2840 -0.1726
  402DG     O19 9242   2.494   3.065   2.055 -0.2393 -0.0253 -0.5961
  402DG     H20 9243   2.484   3.113   1.846 -1.0857  1.3747  1.1427
  402DG     H21 9244   2.609   3.194   1.941  0.5718 -0.1322  0.5908
  402DG     H22 9245   2.317   3.142   2.021 -0.3605 -1.2251  0.5357
  402DG     H23 9246   2.425   3.257   2.093  2.4054 -0.3336 -2.6575
  403DG      C1 9247   2.210   0.466   4.973  0.8301  0.1473 -0.0277
  403DG      C2 9248   2.141  -0.018   4.590  0.1655  0.9290  0.2023
  403DG      H3 9249   2.233   0.503   5.073  0.5618 -0.5163  0.2856
  403DG      H4 9250   2.103   0.452   4.962  0.8980 -0.9020  0.4719
  403DG      H5 9251   2.235   0.537   4.894  3.9286 -1.9346 -1.1399
  403DG      H6 9252   2.052  -0.060   4.637  0.2234  1.1709  0.5328
  403DG      H7 9253   2.117   0.070   4.531  0.0581  0.0115 -1.1717
  403DG      H8 9254   2.163  -0.097   4.518 -3.1617 -0.0612  0.1287
  403DG      O9 9255   2.272   0.346   4.950 -0.1034  0.9079  0.1486
  403DG     O10 9256   2.243  -0.006   4.691  0.8606  0.5210  0.4811
  403DG     C11 9257   2.411   0.353   4.960  0.5266 -0.4084  0.0356
  403DG     C12 9258   2.373  -0.003   4.635  0.4189  0.1198 -0.5533
  403DG     H13 9259   2.442   0.398   5.054  1.3174  0.1215 -0.4711
  403DG     H14 9260   2.431   0.430   4.885 -2.0868  1.6174  1.2187
  403DG     H15 9261   2.384   0.040   4.536  1.0404 -1.0503 -1.0181
  403DG     H16 9262   2.401  -0.106   4.612 -1.5428 -1.5307  3.4452
  403DG     C17 9263   2.469   0.219   4.913  0.9468 -0.2770 -0.1461
  403DG     C18 9264   2.472   0.066   4.732 -1.1853 -0.1815 -0.0312
  403DG     O19 9265   2.417   0.182   4.784 -0.7396  0.6410 -0.0657
  403DG     H20 9266   2.454   0.140   4.987  2.3571 -0.2856  0.1710
  403DG     H21 9267   2.578   0.219   4.902  0.7565 -0.7416 -2.4401
  403DG     H22 9268   2.502  -0.000   4.814 -2.5527  2.6379  2.9913
  403DG     H23 9269   2.564   0.092   4.681 -1.7433 -1.2062 -1.6301
  404DG      C1 9270   0.524   5.208   2.939  0.3668 -0.3384  0.3713
  404DG      C2 9271   0.249   4.406   2.953 -0.7865  0.1521 -0.2698
  404DG      H3 9272   0.521   5.313   2.965  2.0814  0.0956 -1.0180
  404DG      H4 9273   0.521   5.202   2.830  0.4219 -1.6254  0.4208
  404DG      H5 9274   0.619   5.162   2.964  2.5755  2.3443 -2.2976
  404DG      H6 9275   0.322   4.346   2.899 -0.5643  0.7552 -0.6341
  404DG      H7 9276   0.282   4.402   3.057  0.8941  0.3174 -0.7691
  404DG      H8 9277   0.156   4.349   2.952  0.3859 -2.0532  2.0899
  404DG      O9 9278   0.409   5.142   2.986 -0.0590 -0.0263 -0.2982
  404DG     O10 9279   0.241   4.545   2.915  0.2445  0.3472  0.3145
  404DG     C11 9280   0.408   5.005   2.960 -0.0652  0.2456 -0.1973
  404DG     C12 9281   0.145   4.618   2.988 -0.1876 -0.2075  0.0545
  404DG     H13 9282   0.467   4.948   3.032  1.2218  2.1657  0.3476
  404DG     H14 9283   0.453   4.981   2.864  0.6241 -1.7112  0.5548
  404DG     H15 9284   0.145   4.615   3.097  1.4923 -1.8121  0.0492
  404DG     H16 9285   0.048   4.574   2.968 -0.3852  0.2191  0.0645
  404DG     C17 9286   0.263   4.954   2.979  0.5232  0.3539  0.0553
  404DG     C18 9287   0.134   4.760   2.941  0.4422  0.7955  0.2155
  404DG     O19 9288   0.256   4.824   2.926 -0.1311  0.4933 -0.0784
  404DG     H20 9289   0.194   5.016   2.922  0.0363 -0.0918  0.1609
  404DG     H21 9290   0.235   4.961   3.083  0.4529  1.0334 -0.0021
  404DG     H22 9291   0.085   4.769   2.844  0.1256  2.6090  0.4965
  404DG     H23 9292   0.074   4.806   3.019  1.8898  1.1080  1.1864
  405DG      C1 9293   4.466   2.462   3.830 -0.2100 -0.1622  0.4444
  405DG      C2 9294   4.818   2.971   3.767  0.2010  0.3672  0.1797
  405DG      H3 9295   4.438   2.494   3.930 -0.3180  0.7310  0.1370
  405DG      H4 9296   4.567   2.419   3.830 -1.6356 -3.9060  2.3745
  405DG      H5 9297   4.408   2.376   3.797  0.4215  0.0641 -1.3885
  405DG      H6 9298   4.823   3.071   3.723 -2.7552  0.6313  0.2467
  405DG      H7 9299   4.787   2.987   3.870 -0.1445 -0.0683  0.1446
  405DG      H8 9300   4.919   2.931   3.772 -0.8033 -2.2120  1.8835
  405DG      O9 9301   4.459   2.575   3.749 -0.2724 -0.5264 -0.0664
  405DG     O10 9302   4.734   2.878   3.693  0.4133 -0.1413 -0.0983
  405DG     C11 9303   4.488   2.539   3.616 -0.2978 -0.2675  0.1409
  405DG     C12 9304   4.777   2.860   3.556  0.0114 -0.1970 -0.6925
  405DG     H13 9305   4.432   2.453   3.581  2.0815 -1.2093 -1.6503
  405DG     H14 9306   4.592   2.507   3.615 -0.5955 -1.2341 -0.2158
  405DG     H15 9307   4.881   2.829   3.562  0.1569  0.5041  3.8897
  405DG     H16 9308   4.763   2.958   3.509 -0.5337 -0.5262 -1.2339
  405DG     C17 9309   4.481   2.649   3.513  0.0909  0.2032  0.4628
  405DG     C18 9310   4.693   2.749   3.496 -0.1944  0.0707  0.0581
  405DG     O19 9311   4.559   2.762   3.539 -0.3740 -0.4618 -0.0711
  405DG     H20 9312   4.379   2.684   3.500  0.2776 -0.2494 -3.2047
  405DG     H21 9313   4.502   2.608   3.414 -0.6407  1.6012 -0.2954
  405DG     H22 9314   4.694   2.754   3.387  0.4123 -1.0630  0.0010
  405DG     H23 9315   4.742   2.655   3.521  1.0146 -0.5779 -4.0892
  406DG      C1 9316   0.890   3.989   4.793 -0.4083 -0.4765 -0.5481
  406DG      C2 9317   0.270   3.969   4.495 -0.1215 -0.1256 -0.2544
  406DG      H3 9318   0.845   3.928   4.871  1.8143 -1.3184  0.1555
  406DG      H4 9319   0.865   4.093   4.816 -2.1276 -0.8575 -0.5790
  406DG      H5 9320   0.996   3.965   4.795 -0.6270 -1.4365  0.6625
  406DG      H6 9321   0.228   4.011   4.404 -0.9236  0.9764  0.5958
  406DG      H7 9322   0.220   3.877   4.526  1.1015 -0.8855 -0.4733
  406DG      H8 9323   0.249   4.032   4.581  0.5884 -0.3826  0.1160
  406DG      O9 9324   0.830   3.946   4.665 -0.7466  0.0784 -0.3234
  406DG     O10 9325   0.412   3.947   4.478  0.9814  0.2645  0.2497
  406DG     C11 9326   0.862   3.808   4.640 -0.4493 -0.1613  0.3580
  406DG     C12 9327   0.454   3.860   4.374  0.1386 -0.3377 -0.2091
  406DG     H13 9328   0.826   3.745   4.721 -3.4584  0.0450 -0.7020
  406DG     H14 9329   0.970   3.798   4.632 -0.5455 -1.1995  0.3229
  406DG     H15 9330   0.411   3.899   4.281  0.7969 -1.6527 -1.0968
  406DG     H16 9331   0.422   3.759   4.400  0.3354  0.0095  1.4785
  406DG     C17 9332   0.804   3.780   4.507 -0.2780 -0.0708  0.1898
  406DG     C18 9333   0.610   3.857   4.373  0.2136  0.2163  0.4982
  406DG     O19 9334   0.666   3.820   4.504 -0.6558 -0.0239 -0.0103
  406DG     H20 9335   0.822   3.677   4.477 -0.7925 -0.5330  1.3982
  406DG     H21 9336   0.862   3.833   4.431 -0.3258 -2.0889 -1.3416
  406DG     H22 9337   0.643   3.784   4.299 -0.8211 -0.9011  1.0891
  406DG     H23 9338   0.644   3.957   4.347 -0.4853  0.4598  0.4917
  407DG      C1 9339   3.979   5.399   0.067 -0.8268  0.7280 -0.3328
  407DG      C2 9340   3.369   5.570   0.647  0.9368 -0.5289 -0.0410
  407DG      H3 9341   3.958   5.499   0.029  1.6039  1.2114 -0.5901
  407DG      H4 9342   3.961   5.323  -0.010 -0.5367  1.7058 -1.3953
  407DG      H5 9343   4.076   5.390   0.117 -0.4775 -0.7782 -1.2160
  407DG      H6 9344   3.359   5.669   0.601 -2.9533 -0.6783  0.1383
  407DG      H7 9345   3.306   5.495   0.598  1.1690 -2.2384  2.1386
  407DG      H8 9346   3.342   5.582   0.752  1.8963  0.6529  0.0902
  407DG      O9 9347   3.888   5.374   0.169 -0.3879  0.1923 -0.4236
  407DG     O10 9348   3.503   5.523   0.667 -0.4199  0.4560 -0.1080
  407DG     C11 9349   3.754   5.384   0.137  0.3074 -0.3054 -0.1387
  407DG     C12 9350   3.583   5.541   0.542 -0.7027 -0.3212 -0.0545
  407DG     H13 9351   3.738   5.326   0.046  1.4495 -0.0395 -0.5204
  407DG     H14 9352   3.730   5.486   0.105 -2.3339 -0.6565  0.5212
  407DG     H15 9353   3.689   5.539   0.566 -0.3829  1.1895 -1.2043
  407DG     H16 9354   3.561   5.645   0.517 -2.9637 -0.2964  1.7227
  407DG     C17 9355   3.654   5.349   0.248 -0.2078  0.0106  0.8070
  407DG     C18 9356   3.557   5.442   0.432 -0.1450 -0.3859  0.0881
  407DG     O19 9357   3.661   5.453   0.339  0.0881  0.1325 -0.0080
  407DG     H20 9358   3.672   5.250   0.289 -0.0160 -0.4060 -0.2664
  407DG     H21 9359   3.554   5.350   0.206  0.9217  1.1029 -2.1405
  407DG     H22 9360   3.563   5.349   0.488 -1.6334 -0.6466 -0.1541
  407DG     H23 9361   3.456   5.455   0.394 -0.2631 -1.6394 -0.0538
  408DG      C1 9362   0.478   1.723   2.072  0.3020  0.6203  0.4975
  408DG      C2 9363  -0.004   1.778   2.698 -0.4149 -0.4035 -0.6642
  408DG      H3 9364   0.420   1.775   1.995  0.2124 -0.6439 -0.3240
  408DG      H4 9365   0.507   1.624   2.038 -1.5060  0.5112 -0.8749
  408DG      H5 9366   0.564   1.783   2.104 -1.0921  1.4008  3.0846
  408DG      H6 9367   0.029   1.867   2.752 -1.4025 -0.6289  0.3500
  408DG      H7 9368  -0.112   1.771   2.703 -0.4414  0.5154  0.4817
  408DG      H8 9369   0.040   1.689   2.743  0.1101 -0.6087 -1.5686
  408DG      O9 9370   0.387   1.717   2.182  0.4312 -0.1750 -0.4160
  408DG     O10 9371   0.017   1.809   2.566 -0.5424 -0.1881  1.2268
  408DG     C11 9372   0.269   1.644   2.153  0.8280 -0.0089 -0.3374
  408DG     C12 9373   0.154   1.808   2.540 -0.5256 -0.0132 -0.0416
  408DG     H13 9374   0.260   1.563   2.225  3.9820  0.4815  0.7471
  408DG     H14 9375   0.259   1.607   2.051  3.0448  2.5019 -1.6035
  408DG     H15 9376   0.196   1.713   2.573 -0.5662 -0.4395 -1.1803
  408DG     H16 9377   0.192   1.887   2.604  2.0830 -1.6642  0.5892
  408DG     C17 9378   0.147   1.732   2.176 -0.5141 -0.3089  0.5959
  408DG     C18 9379   0.191   1.827   2.392 -0.4852 -0.2229  0.3906
  408DG     O19 9380   0.120   1.723   2.313 -0.4516 -0.3180  0.2187
  408DG     H20 9381   0.065   1.671   2.139 -1.3195 -0.8439  3.0246
  408DG     H21 9382   0.135   1.828   2.127  0.3194 -1.4563 -2.0308
  408DG     H22 9383   0.164   1.926   2.357  1.4948 -0.1347 -1.0691
  408DG     H23 9384   0.299   1.812   2.389 -0.5118 -0.2769 -1.1232
  409DG      C1 9385   2.398   3.901   2.538  0.7251 -0.2527 -0.3634
  409DG      C2 9386   1.656   4.175   2.471 -0.3024  0.2183  0.7663
  409DG      H3 9387   2.489   3.872   2.484  0.5181 -1.3942 -0.1371
  409DG      H4 9388   2.394   3.820   2.611 -1.5700  0.4700  0.4103
  409DG      H5 9389   2.413   3.998   2.585  0.1025 -0.8307  1.0871
  409DG      H6 9390   1.686   4.153   2.573  1.8110 -2.4776 -0.3198
  409DG      H7 9391   1.646   4.283   2.474  1.2879  0.4105  0.1953
  409DG      H8 9392   1.563   4.121   2.453  1.5196 -3.0785  0.2989
  409DG      O9 9393   2.284   3.873   2.457  0.3702  0.1242  0.4135
  409DG     O10 9394   1.753   4.137   2.375 -0.6298  0.2911 -0.1140
  409DG     C11 9395   2.267   3.965   2.353 -0.2368  0.2492  0.4951
  409DG     C12 9396   1.770   3.994   2.367  0.3337  0.4172 -0.9799
  409DG     H13 9397   2.350   3.958   2.283  0.0557  2.4033  0.5552
  409DG     H14 9398   2.266   4.062   2.402 -1.7059  0.8646 -0.6762
  409DG     H15 9399   1.688   3.940   2.320 -1.7926  1.2774  1.4798
  409DG     H16 9400   1.776   3.948   2.465  0.9338 -0.9084 -1.6182
  409DG     C17 9401   2.129   3.943   2.281 -0.9572 -0.4918 -0.9099
  409DG     C18 9402   1.893   3.958   2.283 -0.2153  0.0187  0.5117
  409DG     O19 9403   2.011   3.968   2.355 -0.5577 -0.4150 -0.1417
  409DG     H20 9404   2.135   3.845   2.233  0.2230 -0.1919 -1.4015
  409DG     H21 9405   2.132   4.020   2.204 -0.1557  1.5728  1.0754
  409DG     H22 9406   1.878   3.854   2.254 -0.4330 -0.0763  0.9576
  409DG     H23 9407   1.896   4.016   2.191 -1.3637  0.0739  0.4935
  410DG      C1 9408   1.804   0.839   3.397 -0.0578 -0.3944 -0.0938
  410DG      C2 9409   1.630   0.682   2.854 -0.6592 -0.6908  0.3602
  410DG      H3 9410   1.743   0.787   3.471 -1.2735 -0.8439 -1.3690
  410DG      H4 9411   1.906   0.810   3.421 -0.1388 -0.4348  0.2097
  410DG      H5 9412   1.784   0.796   3.299 -0.3609 -1.4330  0.4069
  410DG      H6 9413   1.699   0.677   2.770 -0.9486 -1.9462  0.1781
  410DG      H7 9414   1.693   0.640   2.933 -0.8545 -1.1915  0.2511
  410DG      H8 9415   1.541   0.630   2.821 -1.0124  1.3038 -2.0820
  410DG      O9 9416   1.783   0.979   3.392 -0.5081 -0.7738  0.3669
  410DG     O10 9417   1.615   0.823   2.877  0.4287  0.4957  0.7062
  410DG     C11 9418   1.670   1.039   3.338 -0.6790 -0.0664  0.0905
  410DG     C12 9419   1.733   0.896   2.893  0.5745  0.3235  0.4135
  410DG     H13 9420   1.649   1.120   3.408 -1.9877 -0.1516 -0.1733
  410DG     H14 9421   1.597   0.958   3.332  1.4855 -2.0530 -1.9150
  410DG     H15 9422   1.767   0.921   2.793 -0.2900 -1.5721 -0.3975
  410DG     H16 9423   1.817   0.850   2.946  0.5756 -1.1577 -0.8300
  410DG     C17 9424   1.688   1.086   3.193  0.3904 -0.5343 -0.0768
  410DG     C18 9425   1.698   1.020   2.976  0.6779  0.0558 -0.7834
  410DG     O19 9426   1.686   0.980   3.110 -0.0016 -1.1036 -1.1892
  410DG     H20 9427   1.778   1.145   3.174  1.0035 -0.7620  1.9086
  410DG     H21 9428   1.601   1.147   3.169 -0.6532 -1.7403  0.5581
  410DG     H22 9429   1.769   1.094   2.939  0.4964 -0.6486 -2.6695
  410DG     H23 9430   1.607   1.071   2.945  0.5144 -1.6030 -3.2824
  411DG      C1 9431   5.203   3.587   3.971 -0.0833 -0.4946 -0.8616
  411DG      C2 9432   5.406   4.183   3.952  0.2023 -0.1433 -0.8145
  411DG      H3 9433   5.199   3.595   4.080  0.5536  1.1729 -0.9288
  411DG      H4 9434   5.193   3.480   3.955 -1.8336 -0.8448  1.9218
  411DG      H5 9435   5.112   3.634   3.934 -0.6493 -0.0815  0.9464
  411DG      H6 9436   5.297   4.182   3.959  0.0853  1.3342 -1.9403
  411DG      H7 9437   5.459   4.182   4.047  3.4362  0.9166 -2.4707
  411DG      H8 9438   5.431   4.275   3.900 -3.8955 -0.4863 -3.8788
  411DG      O9 9439   5.322   3.626   3.919 -0.1511  0.2245  0.0644
  411DG     O10 9440   5.455   4.065   3.892 -0.2515  0.2101  0.4136
  411DG     C11 9441   5.321   3.606   3.778  0.2318 -0.3091 -0.8138
  411DG     C12 9442   5.421   4.072   3.755  0.1693  0.0981 -0.4677
  411DG     H13 9443   5.223   3.618   3.731  0.3191  0.8475 -0.7144
  411DG     H14 9444   5.363   3.510   3.745 -0.1718 -0.6736 -0.2815
  411DG     H15 9445   5.474   4.155   3.709 -4.2314  3.2210 -0.5342
  411DG     H16 9446   5.318   4.098   3.734 -0.6002 -1.8842  0.5914
  411DG     C17 9447   5.404   3.712   3.715  0.3761 -0.1499 -0.4422
  411DG     C18 9448   5.456   3.941   3.699  0.4956  0.6541  0.8046
  411DG     O19 9449   5.356   3.849   3.744  0.0779 -0.0433  0.4173
  411DG     H20 9450   5.400   3.694   3.607 -3.8215 -2.0815 -0.2150
  411DG     H21 9451   5.505   3.694   3.752  0.1985 -2.5887 -0.9199
  411DG     H22 9452   5.443   3.949   3.591  1.0260 -1.9898  0.4659
  411DG     H23 9453   5.559   3.916   3.723 -0.1901 -0.6880  2.5752
  412DG      C1 9454   4.155   0.332   2.144 -0.2590 -1.0688 -0.4318
  412DG      C2 9455   4.487  -0.204   1.465  0.1814 -0.1960 -0.5690
  412DG      H3 9456   4.149   0.386   2.239 -1.3799  0.3224 -1.2371
  412DG      H4 9457   4.066   0.364   2.089 -0.6045 -0.5677  0.3975
  412DG      H5 9458   4.235   0.369   2.080 -0.2672  0.2171  0.2675
  412DG      H6 9459   4.588  -0.241   1.449  0.2738 -0.5735  0.7565
  412DG      H7 9460   4.418  -0.287   1.474 -0.6260  0.5610  0.5710
  412DG      H8 9461   4.446  -0.148   1.381  3.3381  3.8444  0.2474
  412DG      O9 9462   4.158   0.191   2.168  0.2278  0.1910 -0.1410
  412DG     O10 9463   4.494  -0.147   1.592  0.4300 -0.4315 -0.5366
  412DG     C11 9464   4.160   0.102   2.059  0.5475  0.4373 -0.6662
  412DG     C12 9465   4.373  -0.082   1.645 -0.6625  0.6787  0.7941
  412DG     H13 9466   4.069   0.128   2.004 -0.6516 -1.6922  0.1926
  412DG     H14 9467   4.142   0.009   2.112  3.0838  1.2048  1.8096
  412DG     H15 9468   4.292  -0.154   1.653  0.2549 -0.6399 -0.9922
  412DG     H16 9469   4.330  -0.011   1.575 -2.6869  1.3549  2.6103
  412DG     C17 9470   4.288   0.088   1.977 -0.4518 -0.3773  0.2768
  412DG     C18 9471   4.388  -0.016   1.788  0.7244  0.4066  0.3316
  412DG     O19 9472   4.270   0.042   1.847 -0.2529 -0.3257  0.5037
  412DG     H20 9473   4.366   0.034   2.032  0.1614  1.5462  1.3924
  412DG     H21 9474   4.341   0.183   1.969  3.4446 -2.1591  2.2651
  412DG     H22 9475   4.429  -0.087   1.860 -0.5800  1.7112  2.4740
  412DG     H23 9476   4.461   0.063   1.777 -0.0323  1.0387 -0.3233
  413DG      C1 9477   5.158   3.074   0.218  0.0169 -0.1115 -0.7296
  413DG      C2 9478   4.695   3.360   0.384  0.2098 -0.8189  0.6289
  413DG      H3 9479   5.198   2.979   0.253 -1.1702 -0.2652  0.2927
  413DG      H4 9480   5.208   3.148   0.280 -1.8484  2.3373 -2.0031
  413DG      H5 9481   5.186   3.081   0.113 -0.3742 -0.8384 -0.8957
  413DG      H6 9482   4.794   3.402   0.402  0.7728 -0.1742 -3.1043
  413DG      H7 9483   4.668   3.391   0.283 -0.1370  0.9322  1.2203
  413DG      H8 9484   4.621   3.394   0.456 -1.1926 -2.2323 -0.0819
  413DG      O9 9485   5.015   3.077   0.236 -0.0187 -0.2711 -0.5504
  413DG     O10 9486   4.720   3.226   0.383  1.0471  0.4446 -0.1304
  413DG     C11 9487   4.936   2.992   0.149 -0.6899  0.4417  0.2818
  413DG     C12 9488   4.594   3.150   0.365 -0.0080  0.0004 -1.3082
  413DG     H13 9489   4.972   2.890   0.163 -4.6031 -0.8255  2.7044
  413DG     H14 9490   4.954   3.010   0.044  0.0353  2.0245  0.6548
  413DG     H15 9491   4.543   3.165   0.270  0.5753 -0.9432 -1.7910
  413DG     H16 9492   4.527   3.171   0.448  0.3388  1.8310 -1.4519
  413DG     C17 9493   4.788   2.998   0.190  0.1232 -0.6382  0.6979
  413DG     C18 9494   4.634   3.005   0.376 -0.3278  0.4973  0.1207
  413DG     O19 9495   4.769   2.984   0.335 -0.2939 -0.5021  0.3057
  413DG     H20 9496   4.723   2.922   0.148  0.4793 -0.2698 -0.5533
  413DG     H21 9497   4.758   3.096   0.154  0.9361 -0.9375 -0.8375
  413DG     H22 9498   4.606   2.961   0.471 -1.4506 -2.0180 -1.2618
  413DG     H23 9499   4.559   2.953   0.315 -0.7356 -0.5957  1.4935
  414DG      C1 9500   0.857   2.166   0.606 -0.1970 -0.3478 -0.0064
  414DG      C2 9501   0.452   1.749   0.898 -0.2063 -0.1148  0.2111
  414DG      H3 9502   0.960   2.133   0.622 -0.2386 -0.8691 -0.7406
  414DG      H4 9503   0.867   2.270   0.574  1.3509 -0.8915 -1.4502
  414DG      H5 9504   0.823   2.105   0.522  0.5510 -3.5399  1.8524
  414DG      H6 9505   0.370   1.769   0.829 -2.7835  0.2445  3.1528
  414DG      H7 9506   0.545   1.711   0.855  1.0859  2.1445  0.7952
  414DG      H8 9507   0.426   1.687   0.984  2.8454 -1.9102 -0.0263
  414DG      O9 9508   0.770   2.144   0.716  0.0811 -0.1182 -0.2591
  414DG     O10 9509   0.472   1.878   0.950 -0.3207  0.2683  0.1643
  414DG     C11 9510   0.809   2.221   0.833  0.3467  0.3871  0.1296
  414DG     C12 9511   0.556   1.879   1.062  0.3349  0.0041 -0.3448
  414DG     H13 9512   0.813   2.328   0.813 -0.4503  0.3848 -0.0532
  414DG     H14 9513   0.913   2.198   0.859  0.4830 -0.4761 -1.0994
  414DG     H15 9514   0.643   1.814   1.056  0.8308  0.6260 -0.0351
  414DG     H16 9515   0.499   1.846   1.149  1.1810 -0.6469 -0.0325
  414DG     C17 9516   0.711   2.202   0.955  0.1377  0.0874 -0.1659
  414DG     C18 9517   0.617   2.020   1.067 -0.0714  0.1594  0.5358
  414DG     O19 9518   0.672   2.064   0.941  0.0630  0.0286 -0.2093
  414DG     H20 9519   0.626   2.270   0.958  0.6396  0.7780 -1.1124
  414DG     H21 9520   0.758   2.212   1.053 -1.2406 -0.9254  0.6299
  414DG     H22 9521   0.535   2.087   1.091  1.9321  3.1755 -0.3907
  414DG     H23 9522   0.695   2.027   1.143  0.2703  1.5569  0.0981
  415DG      C1 9523   4.311   0.150   4.079  0.6527  0.2367 -0.3746
  415DG      C2 9524   4.820  -0.090   3.474  0.4065  0.1138  0.5257
  415DG      H3 9525   4.222   0.088   4.069  0.2427  0.4055  1.7683
  415DG      H4 9526   4.286   0.245   4.126 -0.0670 -0.2905  0.3265
  415DG      H5 9527   4.385   0.109   4.148  1.1021 -2.9461 -2.5305
  415DG      H6 9528   4.853  -0.072   3.371 -0.6629 -0.7270  0.0129
  415DG      H7 9529   4.910  -0.130   3.519  0.8687 -1.2570 -1.4797
  415DG      H8 9530   4.745  -0.169   3.483 -0.3384  0.9272  1.8211
  415DG      O9 9531   4.390   0.173   3.961  0.1981 -0.4894 -0.3968
  415DG     O10 9532   4.780   0.035   3.522  0.4091  0.3992  0.0859
  415DG     C11 9533   4.508   0.245   3.999  0.0561 -0.0090  0.3954
  415DG     C12 9534   4.730   0.035   3.652 -0.5420  0.0758  0.1691
  415DG     H13 9535   4.568   0.184   4.066  1.6123  0.5122 -0.4631
  415DG     H14 9536   4.487   0.341   4.047 -1.8672  0.7294 -1.7458
  415DG     H15 9537   4.809  -0.003   3.717 -1.3958 -1.0703  0.5727
  415DG     H16 9538   4.646  -0.034   3.658 -0.4150 -0.1283 -0.3719
  415DG     C17 9539   4.597   0.281   3.880 -0.6355 -0.2432 -0.4980
  415DG     C18 9540   4.694   0.167   3.698  0.5643 -0.4014 -0.5593
  415DG     O19 9541   4.618   0.154   3.819  0.2765  0.8130  0.2850
  415DG     H20 9542   4.696   0.320   3.903 -0.4052 -1.2908  0.3314
  415DG     H21 9543   4.549   0.350   3.810  1.7697  1.6342 -0.4151
  415DG     H22 9544   4.782   0.226   3.721  0.4386 -0.8763  1.3310
  415DG     H23 9545   4.623   0.216   3.631 -0.8510 -0.6266  0.7435
  416DG      C1 9546   3.849   0.256   0.226 -0.7680 -0.6134 -0.0841
  416DG      C2 9547   3.959   0.933   0.483  0.0890  0.4005  0.2201
  416DG      H3 9548   3.760   0.194   0.239 -0.6727 -0.7969 -0.3007
  416DG      H4 9549   3.873   0.320   0.311 -1.8313  1.5300 -1.3169
  416DG      H5 9550   3.936   0.197   0.200 -1.3507 -2.0158  1.0022
  416DG      H6 9551   3.973   0.920   0.590  0.1794 -1.3225  0.0244
  416DG      H7 9552   4.051   0.972   0.438 -0.9839  0.9215 -1.6257
  416DG      H8 9553   3.895   1.021   0.471  0.2369  0.5733  0.6656
  416DG      O9 9554   3.817   0.357   0.125  0.3825 -0.1971 -0.4031
  416DG     O10 9555   3.907   0.810   0.442 -0.0084 -0.6965 -0.0398
  416DG     C11 9556   3.689   0.413   0.141  0.1750 -0.0022 -0.0990
  416DG     C12 9557   3.860   0.806   0.310  0.5455 -0.3159  0.3296
  416DG     H13 9558   3.669   0.405   0.248  2.2520 -0.7524  0.2817
  416DG     H14 9559   3.619   0.351   0.084  0.7142 -0.0502 -0.7326
  416DG     H15 9560   3.941   0.835   0.242  0.4902 -1.0236 -0.0539
  416DG     H16 9561   3.790   0.884   0.279 -1.1321 -2.0333 -0.4625
  416DG     C17 9562   3.672   0.561   0.096  0.4370 -0.0585 -0.3410
  416DG     C18 9563   3.803   0.663   0.278 -0.8810 -0.2293 -0.0781
  416DG     O19 9564   3.778   0.654   0.135  0.3456  0.9621 -0.3463
  416DG     H20 9565   3.575   0.604   0.123  1.9550  2.0811  2.3142
  416DG     H21 9566   3.680   0.571  -0.012  1.0523  0.7742 -0.2316
  416DG     H22 9567   3.855   0.581   0.328 -0.0318  1.4412  1.9357
  416DG     H23 9568   3.709   0.649   0.331 -0.0321 -3.0650  0.8686
  417DG      C1 9569   1.186   1.815   2.195 -0.3884  0.4645 -0.5477
  417DG      C2 9570   1.708   1.207   1.904  0.2768 -0.6175 -1.0458
  417DG      H3 9571   1.231   1.881   2.120  1.4109  1.3342  1.1739
  417DG      H4 9572   1.196   1.854   2.297 -1.8119  0.3413 -0.3428
  417DG      H5 9573   1.082   1.789   2.181 -0.2263 -1.2014  1.0831
  417DG      H6 9574   1.750   1.111   1.871 -0.6210 -0.8121 -1.6636
  417DG      H7 9575   1.755   1.288   1.848 -0.3310  0.2935 -0.2652
  417DG      H8 9576   1.745   1.212   2.006 -1.5168  1.3716 -0.4350
  417DG      O9 9577   1.256   1.691   2.198 -0.1656  0.1716 -0.1286
  417DG     O10 9578   1.569   1.204   1.901  0.2154 -0.0458 -0.0672
  417DG     C11 9579   1.401   1.690   2.217  0.4083 -0.8110 -0.7962
  417DG     C12 9580   1.506   1.330   1.923 -0.2708  0.1116  0.8063
  417DG     H13 9581   1.436   1.735   2.310  0.9555  1.4411 -2.0029
  417DG     H14 9582   1.454   1.753   2.146  0.9082  3.2250  2.7180
  417DG     H15 9583   1.407   1.322   1.878  0.6670 -1.8618 -1.1243
  417DG     H16 9584   1.551   1.405   1.857  2.4144 -0.1963  2.1720
  417DG     C17 9585   1.434   1.544   2.207 -0.2599  0.0374  0.2846
  417DG     C18 9586   1.502   1.369   2.073  0.3781  0.3858  0.5204
  417DG     O19 9587   1.440   1.490   2.074 -0.2420  0.2449 -0.6742
  417DG     H20 9588   1.364   1.491   2.272 -1.6323  1.0056 -0.3646
  417DG     H21 9589   1.531   1.538   2.258  0.0265 -1.0685 -0.3492
  417DG     H22 9590   1.454   1.286   2.125  0.0566  1.6952  2.3928
  417DG     H23 9591   1.602   1.378   2.115  1.4546 -2.9231 -0.9384
  418DG      C1 9592   3.856   2.659   1.597 -0.0491 -0.0927 -0.9324
  418DG      C2 9593   4.247   2.947   2.103 -0.2950 -0.5198 -0.2407
  418DG      H3 9594   3.807   2.585   1.533 -2.3370  1.6006 -1.2604
  418DG      H4 9595   3.849   2.750   1.537 -1.1814  0.7898  0.4874
  418DG      H5 9596   3.789   2.669   1.682 -0.3306  0.3229 -1.2020
  418DG      H6 9597   4.241   3.051   2.070 -2.1796 -0.6392 -0.3793
  418DG      H7 9598   4.175   2.926   2.182  0.6675  0.3778  0.9236
  418DG      H8 9599   4.343   2.935   2.153 -0.5870  1.7882  0.9833
  418DG      O9 9600   3.990   2.635   1.639  0.2378 -0.7188 -0.0041
  418DG     O10 9601   4.229   2.852   2.000 -0.0290  0.2988 -0.4795
  418DG     C11 9602   4.002   2.515   1.714 -0.0232 -0.8786 -0.2827
  418DG     C12 9603   4.262   2.719   2.047  0.2028 -0.1031 -0.3158
  418DG     H13 9604   3.990   2.430   1.647 -1.4347 -0.2563 -0.8639
  418DG     H14 9605   3.926   2.510   1.792  1.7762 -1.7953  1.5031
  418DG     H15 9606   4.188   2.685   2.120  1.3710 -0.4030  0.7709
  418DG     H16 9607   4.358   2.733   2.097 -0.1910  2.5729 -0.1667
  418DG     C17 9608   4.143   2.503   1.777  0.5852 -0.2373  0.1735
  418DG     C18 9609   4.267   2.609   1.946  0.2482  0.4607 -0.1255
  418DG     O19 9610   4.148   2.608   1.869 -0.6782  0.2306 -0.0467
  418DG     H20 9611   4.231   2.499   1.713 -0.3271  3.0884 -1.4745
  418DG     H21 9612   4.156   2.409   1.832 -0.7488 -1.2822 -1.1863
  418DG     H22 9613   4.339   2.640   1.869  2.5705 -2.1072  0.8100
  418DG     H23 9614   4.291   2.516   1.998  0.1996  0.4785 -0.0716
  419DG      C1 9615   4.618   2.875   4.919  0.3009 -0.0387 -0.2207
  419DG      C2 9616   3.991   2.572   5.113 -0.0488 -0.1119 -0.3840
  419DG      H3 9617   4.572   2.885   4.820  0.4479 -2.5368 -0.5941
  419DG      H4 9618   4.725   2.874   4.895  0.4643 -1.3384  0.4626
  419DG      H5 9619   4.607   2.964   4.981  3.4718  1.5767 -1.7128
  419DG      H6 9620   3.911   2.521   5.167  0.2863 -0.2871 -0.0470
  419DG      H7 9621   4.057   2.596   5.197 -1.3447  0.5161  0.4811
  419DG      H8 9622   3.959   2.669   5.076 -2.2517 -0.5856  0.1179
  419DG      O9 9623   4.579   2.748   4.976  0.1616  0.0640 -0.7862
  419DG     O10 9624   4.046   2.488   5.010  0.0371 -0.6769  0.5206
  419DG     C11 9625   4.441   2.722   4.991 -0.0780  0.0427 -0.3268
  419DG     C12 9626   4.122   2.381   5.062 -0.1563  0.0008 -0.0288
  419DG     H13 9627   4.404   2.706   4.890  1.3801  0.9246 -1.0250
  419DG     H14 9628   4.391   2.812   5.027  0.2529 -0.6735  2.1316
  419DG     H15 9629   4.145   2.311   4.981  0.0586  2.4022 -2.1480
  419DG     H16 9630   4.067   2.325   5.138 -1.0223  1.7308  0.6582
  419DG     C17 9631   4.412   2.604   5.080 -0.5380 -0.2275  1.3470
  419DG     C18 9632   4.258   2.429   5.117 -0.0650  0.4566 -0.4809
  419DG     O19 9633   4.298   2.540   5.032 -0.4674 -0.2741  0.0733
  419DG     H20 9634   4.400   2.642   5.181 -0.6588  3.3674  0.1106
  419DG     H21 9635   4.497   2.536   5.074 -0.9431 -0.6908 -3.1645
  419DG     H22 9636   4.256   2.453   5.223  0.3851 -0.3041 -0.2860
  419DG     H23 9637   4.331   2.349   5.106 -1.8522 -1.1598 -1.0458
  420DG      C1 9638   3.090   2.861   0.086 -0.6635 -0.0302  0.3902
  420DG      C2 9639   2.552   2.996  -0.031 -1.0666 -0.4962 -0.0896
  420DG      H3 9640   3.167   2.836   0.013 -0.4948 -0.9068  0.8577
  420DG      H4 9641   3.121   2.817   0.181 -2.3192  0.5479  1.2245
  420DG      H5 9642   3.089   2.970   0.083  3.3937  0.1862 -3.2322
  420DG      H6 9643   2.513   3.014   0.069  0.8744 -0.7948  0.7764
  420DG      H7 9644   2.647   3.048  -0.043 -0.7401 -0.8387  0.8524
  420DG      H8 9645   2.484   3.039  -0.104 -1.2751  1.7540  1.3452
  420DG      O9 9646   2.968   2.809   0.042  0.2453  0.5017 -0.3678
  420DG     O10 9647   2.578   2.861  -0.057 -0.1879  0.1822 -0.2363
  420DG     C11 9648   2.954   2.671   0.069 -0.3041  0.5881 -0.3589
  420DG     C12 9649   2.648   2.841  -0.180 -0.0131 -0.1148 -0.7297
  420DG     H13 9650   2.947   2.655   0.176 -0.1313  0.1328 -0.4160
  420DG     H14 9651   3.042   2.616   0.035  0.1695  1.2438 -0.2165
  420DG     H15 9652   2.732   2.910  -0.191 -0.1952  0.6120  1.7629
  420DG     H16 9653   2.576   2.860  -0.260 -1.2801 -2.4722 -0.2332
  420DG     C17 9654   2.827   2.637  -0.007  0.1958 -0.6417  0.2048
  420DG     C18 9655   2.700   2.699  -0.202  0.3558 -0.0516 -0.7733
  420DG     O19 9656   2.831   2.677  -0.144 -0.8086 -0.0535 -0.4741
  420DG     H20 9657   2.741   2.686   0.039 -1.0100 -1.4253 -1.1019
  420DG     H21 9658   2.792   2.533  -0.008  0.9658 -0.9079 -1.4926
  420DG     H22 9659   2.628   2.628  -0.163  1.0508  0.4608  1.5913
  420DG     H23 9660   2.691   2.688  -0.310  1.6772  0.2131 -0.9338
  421DG      C1 9661   0.797   4.326   3.417 -0.5296  0.3710 -0.4906
  421DG      C2 9662   0.595   4.503   2.796 -0.5051  0.5962  0.2952
  421DG      H3 9663   0.864   4.407   3.446  0.4164 -1.1257  1.8411
  421DG      H4 9664   0.869   4.255   3.376 -0.7408  0.1966 -0.5628
  421DG      H5 9665   0.759   4.277   3.507 -2.2227 -0.3759 -1.5778
  421DG      H6 9666   0.652   4.585   2.751  0.3803 -0.5111 -0.6710
  421DG      H7 9667   0.647   4.409   2.778 -1.3829  0.2987 -0.7168
  421DG      H8 9668   0.506   4.496   2.735  0.5324  0.7542 -1.2831
  421DG      O9 9669   0.693   4.374   3.335  0.4053 -0.2920  0.1003
  421DG     O10 9670   0.574   4.505   2.934 -0.4186 -0.0737  0.2030
  421DG     C11 9671   0.622   4.476   3.410 -0.3083 -0.7874 -0.2024
  421DG     C12 9672   0.528   4.638   2.968  0.6955  0.2938 -0.2151
  421DG     H13 9673   0.689   4.561   3.426  0.7256 -1.9673  2.4288
  421DG     H14 9674   0.594   4.441   3.510  1.2019 -2.6553 -0.3830
  421DG     H15 9675   0.452   4.680   2.902  0.0472  0.6038  0.7052
  421DG     H16 9676   0.603   4.714   2.946  0.9303  0.1003 -0.0832
  421DG     C17 9677   0.506   4.522   3.324 -0.3658  0.3304 -0.3571
  421DG     C18 9678   0.481   4.634   3.114  0.5726 -0.0197 -0.5309
  421DG     O19 9679   0.557   4.539   3.195 -0.1101 -0.7041 -0.0105
  421DG     H20 9680   0.439   4.603   3.353 -1.7683 -0.6752 -0.6301
  421DG     H21 9681   0.443   4.433   3.332  2.0817 -1.4472  0.1283
  421DG     H22 9682   0.485   4.734   3.159  1.5168 -0.5834  0.7038
  421DG     H23 9683   0.377   4.610   3.136  0.8998 -1.1060 -0.1049
  422DG      C1 9684   5.342   2.739   2.786  0.4761 -0.6324  0.3209
  422DG      C2 9685   5.215   3.210   2.373  0.1003  0.0139  0.2455
  422DG      H3 9686   5.250   2.716   2.732  1.2088 -0.7851 -0.9088
  422DG      H4 9687   5.326   2.707   2.889 -0.5529  0.2759  0.4562
  422DG      H5 9688   5.424   2.673   2.756  1.7615  0.4801  1.2506
  422DG      H6 9689   5.244   3.297   2.315  2.8612 -0.0461  1.3740
  422DG      H7 9690   5.224   3.119   2.313  0.2909  0.9409 -1.1667
  422DG      H8 9691   5.107   3.217   2.385  0.1368  1.1675 -0.0125
  422DG      O9 9692   5.379   2.873   2.765  0.0531 -0.3513 -0.1576
  422DG     O10 9693   5.285   3.207   2.494  0.2338 -0.0507  0.6601
  422DG     C11 9694   5.517   2.893   2.788  0.5389 -0.5258 -0.3559
  422DG     C12 9695   5.426   3.217   2.478 -0.4157  0.7418 -0.2241
  422DG     H13 9696   5.583   2.823   2.737 -0.0861 -0.9881 -0.5392
  422DG     H14 9697   5.547   2.877   2.892  0.9119  1.2780 -0.1485
  422DG     H15 9698   5.446   3.312   2.428  0.4232 -0.2344 -1.8058
  422DG     H16 9699   5.456   3.137   2.411 -1.7389  3.3168 -4.2783
  422DG     C17 9700   5.547   3.038   2.762  0.7650  0.0669  0.6815
  422DG     C18 9701   5.500   3.207   2.614  0.1487 -0.1030  0.7749
  422DG     O19 9702   5.461   3.079   2.654 -0.3923  1.0909  0.4106
  422DG     H20 9703   5.654   3.055   2.748  0.5458  0.4392 -0.7827
  422DG     H21 9704   5.521   3.099   2.849  0.3959 -0.2778  0.8122
  422DG     H22 9705   5.603   3.217   2.583  0.0556 -2.7955 -0.6717
  422DG     H23 9706   5.467   3.289   2.678  1.5075  0.6092  0.6022
  423DG      C1 9707   0.225   5.134   4.978 -0.0424  0.4619  0.5109
  423DG      C2 9708  -0.240   4.963   5.550 -0.3282 -0.1311  0.1342
  423DG      H3 9709   0.152   5.141   4.898  0.7949 -0.6622 -0.3968
  423DG      H4 9710   0.262   5.035   4.952  1.4846  0.7075  1.6163
  423DG      H5 9711   0.305   5.204   4.954 -0.1610  0.4323  0.0082
  423DG      H6 9712  -0.230   4.857   5.575  2.4747  0.2125  0.8240
  423DG      H7 9713  -0.263   5.024   5.638 -0.2027  0.8040 -0.4708
  423DG      H8 9714  -0.317   4.974   5.474 -0.2594 -1.2795 -0.1270
  423DG      O9 9715   0.184   5.140   5.114 -0.0051 -0.6608 -0.0416
  423DG     O10 9716  -0.116   5.012   5.497  0.2464  0.7497 -0.0373
  423DG     C11 9717   0.284   5.116   5.207 -1.0082 -0.7081 -0.6472
  423DG     C12 9718  -0.009   4.993   5.588  0.2196 -0.1576  0.5845
  423DG     H13 9719   0.367   5.182   5.178  0.2948 -0.6968  2.6552
  423DG     H14 9720   0.329   5.017   5.216 -1.5274 -0.8319  0.8148
  423DG     H15 9721   0.021   4.888   5.592  1.1254 -0.0950 -2.2500
  423DG     H16 9722  -0.033   5.038   5.684 -1.7442 -1.0238  0.5532
  423DG     C17 9723   0.235   5.149   5.352 -0.2212  0.0408  0.6055
  423DG     C18 9724   0.105   5.080   5.540 -0.0638  0.0356  0.6183
  423DG     O19 9725   0.146   5.052   5.409  0.0805  0.0665 -0.2570
  423DG     H20 9726   0.189   5.248   5.356 -0.8325 -0.2509  0.9041
  423DG     H21 9727   0.329   5.150   5.408 -0.5398  2.0280  1.1996
  423DG     H22 9728   0.079   5.185   5.534 -1.1234 -0.2877 -3.2657
  423DG     H23 9729   0.187   5.075   5.611 -1.3144 -2.3197  2.0300
  424DG      C1 9730   4.659   1.597   3.811  0.9034  0.0941 -0.3880
  424DG      C2 9731   4.587   1.874   3.101  0.2310  0.3539  0.6126
  424DG      H3 9732   4.684   1.649   3.903 -2.9940  0.7752  0.4675
  424DG      H4 9733   4.653   1.488   3.812  2.8987 -0.0540  0.6605
  424DG      H5 9734   4.557   1.633   3.797  0.5810 -0.3726  0.6951
  424DG      H6 9735   4.568   1.770   3.075 -0.2858  0.4076  0.7579
  424DG      H7 9736   4.496   1.933   3.107 -0.8609 -1.2416  0.3751
  424DG      H8 9737   4.652   1.921   3.027 -1.1022  0.7168 -0.3569
  424DG      O9 9738   4.744   1.633   3.703 -0.2885 -0.4291 -0.0479
  424DG     O10 9739   4.655   1.897   3.221  0.2230 -0.3266 -0.2424
  424DG     C11 9740   4.740   1.776   3.694  0.3478 -0.6190  1.1175
  424DG     C12 9741   4.784   1.836   3.226 -0.1210  0.2890 -0.1744
  424DG     H13 9742   4.774   1.819   3.788  1.1727  0.2420  0.4433
  424DG     H14 9743   4.639   1.806   3.665  0.3028  0.1653  2.0284
  424DG     H15 9744   4.853   1.862   3.145  2.2553 -2.3018  0.8491
  424DG     H16 9745   4.783   1.727   3.220  3.3321 -0.1034  2.4881
  424DG     C17 9746   4.835   1.832   3.590  0.6213  1.2037 -0.3265
  424DG     C18 9747   4.856   1.870   3.355 -0.5604 -0.2526 -0.0768
  424DG     O19 9748   4.789   1.801   3.461 -0.0236 -0.6109 -0.1411
  424DG     H20 9749   4.934   1.786   3.588  0.4145  0.6311  1.2650
  424DG     H21 9750   4.842   1.940   3.602  0.0704  1.4746 -2.0590
  424DG     H22 9751   4.954   1.822   3.352 -0.8606 -0.9365  0.8847
  424DG     H23 9752   4.863   1.977   3.377 -0.0579 -0.3562  0.2773
  425DG      C1 9753   0.045   4.979   1.682  0.6732  0.3743 -0.1383
  425DG      C2 9754  -0.366   4.811   1.175  0.3943 -0.6527  0.4350
  425DG      H3 9755   0.061   5.074   1.630  0.5046  1.2710  1.3836
  425DG      H4 9756   0.115   4.910   1.636 -1.2113 -0.3934 -2.0357
  425DG      H5 9757   0.062   5.001   1.787  0.2269 -0.1601  0.0519
  425DG      H6 9758  -0.439   4.745   1.128 -0.7984 -0.4159  1.8626
  425DG      H7 9759  -0.375   4.908   1.127 -0.8409  0.0073  1.8963
  425DG      H8 9760  -0.265   4.774   1.158  1.3338  1.4049  1.1978
  425DG      O9 9761  -0.088   4.936   1.664 -0.0871  1.1213 -0.3921
  425DG     O10 9762  -0.396   4.820   1.312  1.0279  0.2016 -0.4375
  425DG     C11 9763  -0.126   4.810   1.727 -0.1135  0.0677 -0.3828
  425DG     C12 9764  -0.398   4.688   1.379  0.1133  0.8159  1.3091
  425DG     H13 9765  -0.106   4.828   1.833  1.0499 -0.7170 -0.4500
  425DG     H14 9766  -0.079   4.717   1.696 -0.7745  0.2540 -2.0521
  425DG     H15 9767  -0.316   4.631   1.336 -2.7787 -2.1922 -0.7656
  425DG     H16 9768  -0.482   4.624   1.352  2.1626 -1.3570 -0.3291
  425DG     C17 9769  -0.271   4.783   1.702 -0.0802 -0.6685  0.6066
  425DG     C18 9770  -0.398   4.702   1.533  0.1086 -0.2496  0.7329
  425DG     O19 9771  -0.277   4.769   1.563  0.0354 -0.2718 -0.3997
  425DG     H20 9772  -0.332   4.859   1.749 -0.2145 -0.9184  0.8406
  425DG     H21 9773  -0.299   4.686   1.743 -1.9581 -0.6564 -0.5160
  425DG     H22 9774  -0.489   4.754   1.562  0.3118 -0.6330  2.1092
  425DG     H23 9775  -0.405   4.600   1.570 -1.1056 -0.0475  1.1140
  426DG      C1 9776   5.500   2.216   3.155  0.1891  0.4831  0.3606
  426DG      C2 9777   5.880   2.573   2.658  0.3712  0.4558 -0.3988
  426DG      H3 9778   5.448   2.190   3.062  0.5232  1.1699 -0.0268
  426DG      H4 9779   5.435   2.193   3.239  1.1309  1.6573  1.4415
  426DG      H5 9780   5.578   2.141   3.160 -0.1473  0.0921 -0.1310
  426DG      H6 9781   5.844   2.481   2.611  1.2077 -0.1738  0.1534
  426DG      H7 9782   5.870   2.660   2.594 -1.6334  1.0331  0.6300
  426DG      H8 9783   5.980   2.562   2.700 -0.0395 -0.2909  0.4130
  426DG      O9 9784   5.554   2.344   3.148  0.2486  0.1428 -0.9749
  426DG     O10 9785   5.796   2.593   2.767 -0.3494  0.2923 -0.2527
  426DG     C11 9786   5.630   2.372   3.265  0.6424 -0.0445 -0.0621
  426DG     C12 9787   5.818   2.504   2.875 -1.4294 -0.0667  0.0935
  426DG     H13 9788   5.697   2.294   3.302  2.3990  2.3497  2.2639
  426DG     H14 9789   5.575   2.384   3.359  2.3182 -0.5637  1.0451
  426DG     H15 9790   5.920   2.519   2.909 -1.9585  0.4584  1.5135
  426DG     H16 9791   5.809   2.400   2.842 -0.7684 -0.5897  1.4841
  426DG     C17 9792   5.707   2.498   3.236  0.2275  0.9000  0.4259
  426DG     C18 9793   5.734   2.537   2.997  0.0604 -0.1491 -0.3887
  426DG     O19 9794   5.780   2.479   3.117 -0.4224  0.3043  0.2986
  426DG     H20 9795   5.779   2.509   3.317  0.5602  0.2810  0.2247
  426DG     H21 9796   5.661   2.596   3.232  0.9785  1.2188 -1.2185
  426DG     H22 9797   5.741   2.645   3.010 -0.5424 -0.1376 -0.1148
  426DG     H23 9798   5.631   2.508   2.973  0.4871 -3.0421  0.8793
  427DG      C1 9799   0.370   3.549   0.253 -0.1401  0.6653  0.1446
  427DG      C2 9800   0.126   3.582   0.854  0.0817  0.1203  0.3807
  427DG      H3 9801   0.272   3.554   0.205 -0.1480 -2.7533 -0.4641
  427DG      H4 9802   0.373   3.446   0.289  1.1658  0.3899 -0.6950
  427DG      H5 9803   0.453   3.565   0.184  0.6186  0.5827  1.0131
  427DG      H6 9804   0.027   3.593   0.810 -0.1036 -2.5085 -0.0025
  427DG      H7 9805   0.147   3.476   0.839 -1.4241 -0.2535  0.7816
  427DG      H8 9806   0.114   3.617   0.957  1.3529  0.5437  0.3950
  427DG      O9 9807   0.379   3.636   0.359 -0.0096 -0.7419 -0.9129
  427DG     O10 9808   0.221   3.645   0.777 -0.1044  0.0554  0.5295
  427DG     C11 9809   0.402   3.771   0.324 -1.1446 -0.2233 -0.8355
  427DG     C12 9810   0.196   3.791   0.764  0.3497 -0.3404  0.1077
  427DG     H13 9811   0.323   3.812   0.261  0.4887  2.4631 -1.2804
  427DG     H14 9812   0.492   3.799   0.268 -1.3823  0.4676 -0.8854
  427DG     H15 9813   0.202   3.841   0.860 -0.5076  0.1590 -0.0891
  427DG     H16 9814   0.102   3.818   0.715  0.7598  0.0475 -0.4854
  427DG     C17 9815   0.404   3.851   0.452  0.5356 -0.0825 -1.0928
  427DG     C18 9816   0.302   3.847   0.671 -0.2197 -0.7367 -0.4116
  427DG     O19 9817   0.291   3.814   0.533  0.2829 -0.0103 -0.4231
  427DG     H20 9818   0.402   3.957   0.425  0.4738  0.0734 -0.4961
  427DG     H21 9819   0.492   3.830   0.513 -0.8242 -1.2553  0.5498
  427DG     H22 9820   0.297   3.956   0.683  1.0706 -0.1045 -4.2127
  427DG     H23 9821   0.393   3.824   0.726 -0.5664  0.2575  0.6230
  428DG      C1 9822   1.648   1.108   4.354 -0.1924 -0.0296 -0.1555
  428DG      C2 9823   1.884   0.723   3.779  0.4107 -0.1203  0.2261
  428DG      H3 9824   1.685   1.137   4.453 -1.9462  0.2963  0.4469
  428DG      H4 9825   1.555   1.053   4.372 -0.1609 -0.6717 -1.8585
  428DG      H5 9826   1.629   1.195   4.291  0.9426 -0.9513 -1.8405
  428DG      H6 9827   1.960   0.667   3.725 -0.5601 -1.6063  0.3423
  428DG      H7 9828   1.790   0.687   3.738 -0.5954  2.1600  0.3888
  428DG      H8 9829   1.905   0.825   3.747  0.5384 -0.6694 -1.5504
  428DG      O9 9830   1.750   1.032   4.294  0.3219  0.4909 -0.2076
  428DG     O10 9831   1.898   0.698   3.921  0.1382 -0.3506 -0.6529
  428DG     C11 9832   1.779   0.920   4.377 -0.1268 -0.2239  0.0572
  428DG     C12 9833   2.019   0.766   3.970  0.0467 -0.7182 -0.2826
  428DG     H13 9834   1.699   0.860   4.418  0.3745  1.3862  3.8342
  428DG     H14 9835   1.810   0.971   4.468 -1.4848  0.7212  0.0181
  428DG     H15 9836   2.020   0.872   3.941  0.3395 -0.5646  0.2880
  428DG     H16 9837   2.109   0.717   3.936  0.1756 -1.8688  1.5976
  428DG     C17 9838   1.903   0.840   4.332  0.4395  0.0158 -0.2973
  428DG     C18 9839   2.022   0.764   4.129 -0.6841 -0.4553 -0.5010
  428DG     O19 9840   1.900   0.818   4.193 -0.0265 -0.4038  0.1189
  428DG     H20 9841   1.899   0.751   4.394 -3.4229  1.3835  1.7671
  428DG     H21 9842   1.991   0.891   4.372 -0.8595  0.5097  2.1309
  428DG     H22 9843   2.028   0.660   4.161 -2.5084 -0.4515 -0.0808
  428DG     H23 9844   2.110   0.825   4.148 -1.7699  1.2182 -0.6404
  429DG      C1 9845   3.704   0.166   5.331  0.1351  0.3977 -0.0270
  429DG      C2 9846   4.062   0.311   4.789 -0.2308 -0.4135  0.0713
  429DG      H3 9847   3.740   0.265   5.302  2.2448 -0.5209 -0.8132
  429DG      H4 9848   3.791   0.140   5.392 -0.3659  0.3679  0.6863
  429DG      H5 9849   3.619   0.176   5.398 -1.4802  0.7541 -2.0208
  429DG      H6 9850   4.102   0.406   4.823 -0.1598 -1.0697  1.9523
  429DG      H7 9851   4.133   0.253   4.730 -0.0889  0.2778 -0.4376
  429DG      H8 9852   3.974   0.333   4.729 -0.9364 -0.0856  1.1989
  429DG      O9 9853   3.682   0.121   5.205 -0.0056 -0.3132  0.4858
  429DG     O10 9854   4.024   0.236   4.906 -0.4004  1.0633 -0.0173
  429DG     C11 9855   3.696  -0.022   5.194  0.4228  0.0434  0.6946
  429DG     C12 9856   3.972   0.104   4.879 -0.0544 -0.6426  0.1841
  429DG     H13 9857   3.611  -0.062   5.249  0.4708  0.5307  1.1317
  429DG     H14 9858   3.786  -0.066   5.237  0.0364 -2.6518 -1.0184
  429DG     H15 9859   4.063   0.043   4.877  1.3063  1.0930  2.8815
  429DG     H16 9860   3.920   0.104   4.783  0.7657  0.6723 -0.2909
  429DG     C17 9861   3.673  -0.063   5.048  0.4728  0.3934 -0.0298
  429DG     C18 9862   3.866   0.080   4.988  0.3937 -0.3325  0.0182
  429DG     O19 9863   3.802  -0.046   4.973  0.8349  0.4689  0.0009
  429DG     H20 9864   3.592   0.000   5.013 -0.0893  0.7800  1.8925
  429DG     H21 9865   3.630  -0.163   5.056 -2.0793  1.5724  2.8830
  429DG     H22 9866   3.895   0.105   5.090 -0.6319  1.1522 -0.0320
  429DG     H23 9867   3.790   0.153   4.961 -0.3740  0.4208  3.6805
  430DG      C1 9868   4.455   1.818   1.131  0.3437  0.1094  0.2108
  430DG      C2 9869   4.789   1.258   1.324 -0.1459  0.0964  0.0697
  430DG      H3 9870   4.399   1.785   1.218  0.0962 -2.1575 -0.7222
  430DG      H4 9871   4.385   1.862   1.060  0.4594  0.1202  0.1003
  430DG      H5 9872   4.537   1.880   1.169 -0.8179 -0.9108  4.9396
  430DG      H6 9873   4.882   1.212   1.290 -0.2441  0.2529 -0.4145
  430DG      H7 9874   4.822   1.334   1.395 -3.1179 -0.5284  2.3432
  430DG      H8 9875   4.737   1.179   1.380  1.9491 -2.0218 -0.7825
  430DG      O9 9876   4.512   1.701   1.080 -0.5126 -0.3784 -0.1710
  430DG     O10 9877   4.712   1.320   1.224 -0.6272  0.4314  1.0376
  430DG     C11 9878   4.420   1.629   1.016 -0.0089  0.1172 -0.1568
  430DG     C12 9879   4.670   1.232   1.116  0.4802 -0.2348 -0.1699
  430DG     H13 9880   4.381   1.686   0.931  0.8524  2.3635  0.8787
  430DG     H14 9881   4.336   1.604   1.080 -0.7711  0.5794 -0.9500
  430DG     H15 9882   4.591   1.166   1.151 -1.9822  2.6353  0.1000
  430DG     H16 9883   4.756   1.179   1.073 -0.1147 -0.0131 -1.6990
  430DG     C17 9884   4.486   1.507   0.944 -0.2293 -0.2023  0.4963
  430DG     C18 9885   4.613   1.315   1.001  0.2880  0.0653  0.1983
  430DG     O19 9886   4.552   1.434   1.045  0.1517 -0.5573  0.2133
  430DG     H20 9887   4.566   1.541   0.878 -1.4272  0.5009 -0.6540
  430DG     H21 9888   4.412   1.454   0.884  1.1391 -0.4825 -1.0158
  430DG     H22 9889   4.682   1.351   0.925 -0.3249  1.5047  0.2725
  430DG     H23 9890   4.549   1.248   0.944  0.5596  1.3997 -1.7646
  431DG      C1 9891   2.933   4.031   1.254 -0.2385 -0.1255  0.6669
  431DG      C2 9892   2.421   4.037   1.872 -0.0344  0.7656 -0.3297
  431DG      H3 9893   2.894   4.045   1.153  2.5769 -0.2682 -0.5260
  431DG      H4 9894   2.929   3.925   1.278 -0.9714  0.1415  1.8015
  431DG      H5 9895   3.039   4.054   1.249 -0.2079 -0.0698  1.5634
  431DG      H6 9896   2.341   4.097   1.827 -0.4373  0.6430  0.2111
  431DG      H7 9897   2.370   3.950   1.913 -0.3493  0.1662 -1.9157
  431DG      H8 9898   2.444   4.098   1.959 -1.4108  2.3211 -0.9927
  431DG      O9 9899   2.875   4.098   1.358 -0.3961 -0.4008  0.4966
  431DG     O10 9900   2.535   4.012   1.788 -0.0040  0.9301 -0.0994
  431DG     C11 9901   2.734   4.106   1.357  0.1016 -0.5175  0.0416
  431DG     C12 9902   2.530   3.897   1.706  0.1060  0.1907  0.5828
  431DG     H13 9903   2.685   4.132   1.263 -1.0597  0.6105  0.9223
  431DG     H14 9904   2.708   4.192   1.418 -0.1466 -0.3132 -0.3448
  431DG     H15 9905   2.447   3.903   1.636  0.3132  0.6270  0.3740
  431DG     H16 9906   2.502   3.806   1.760  2.6899 -2.0379 -1.5778
  431DG     C17 9907   2.673   3.980   1.433  0.1860  0.0462 -0.2759
  431DG     C18 9908   2.667   3.868   1.645  0.0503  0.0751  0.1198
  431DG     O19 9909   2.705   3.987   1.572 -0.3140 -0.3798  0.4032
  431DG     H20 9910   2.691   3.883   1.388 -2.8251 -2.1245  2.7050
  431DG     H21 9911   2.564   3.987   1.434 -0.0635 -2.1420  3.2955
  431DG     H22 9912   2.751   3.851   1.713 -0.9219  0.8258  1.5644
  431DG     H23 9913   2.678   3.775   1.590 -1.2273 -0.3993  0.6306
  432DG      C1 9914   2.513   4.297   4.608  0.1038  0.3454 -0.7526
  432DG      C2 9915   2.830   3.778   4.331  0.3874 -0.0137  0.3266
  432DG      H3 9916   2.460   4.243   4.687  0.4892  0.8247 -0.1503
  432DG      H4 9917   2.456   4.292   4.515 -0.2391 -1.7008 -0.4776
  432DG      H5 9918   2.525   4.402   4.635 -0.3872 -0.0420  1.1537
  432DG      H6 9919   2.752   3.801   4.259 -0.0488 -1.4700  0.2918
  432DG      H7 9920   2.921   3.741   4.284  0.9293 -0.4544  1.6880
  432DG      H8 9921   2.782   3.691   4.377 -3.5546  1.4345 -0.6468
  432DG      O9 9922   2.643   4.246   4.590  0.3370 -0.6095 -0.2084
  432DG     O10 9923   2.851   3.889   4.421  0.3908  0.3263  0.3107
  432DG     C11 9924   2.736   4.279   4.693  0.1973  0.4618  0.6161
  432DG     C12 9925   2.907   3.850   4.547 -0.4355 -0.4203  0.4470
  432DG     H13 9926   2.708   4.241   4.791 -1.7947 -0.1834 -0.1536
  432DG     H14 9927   2.754   4.387   4.688  1.2082  0.2424 -2.1115
  432DG     H15 9928   2.988   3.778   4.530  0.4158  0.2309  1.6079
  432DG     H16 9929   2.836   3.796   4.610  1.1450 -2.1295  0.8746
  432DG     C17 9930   2.866   4.206   4.651  0.5166  0.0370  0.4216
  432DG     C18 9931   2.948   3.986   4.603  0.4653 -0.9019  0.2054
  432DG     O19 9932   2.833   4.070   4.623 -0.9246 -0.1246  0.1790
  432DG     H20 9933   2.942   4.207   4.730  0.1218 -2.2598  0.9215
  432DG     H21 9934   2.915   4.245   4.562  0.4113 -1.6684 -0.4161
  432DG     H22 9935   3.004   3.974   4.696 -0.1879  0.9089  0.8961
  432DG     H23 9936   3.025   4.034   4.543 -2.2584  2.2434 -1.1032
  433DG      C1 9937   1.862   4.949   3.699  0.0557  0.0871  1.2431
  433DG      C2 9938   2.191   4.516   3.195  0.5682 -0.7888 -0.5689
  433DG      H3 9939   1.895   5.051   3.679 -2.5392  0.6100 -1.1387
  433DG      H4 9940   1.823   4.939   3.800  1.6720 -0.8512  1.7973
  433DG      H5 9941   1.792   4.929   3.617  0.0383  2.1704  0.6908
  433DG      H6 9942   2.294   4.533   3.166  0.3600  0.3325 -0.7167
  433DG      H7 9943   2.196   4.415   3.236 -0.4004 -1.4451 -1.9739
  433DG      H8 9944   2.126   4.518   3.107 -0.3119  0.4968  0.0700
  433DG      O9 9945   1.973   4.864   3.684 -0.1207 -0.0284  0.0864
  433DG     O10 9946   2.152   4.608   3.292 -0.1274  0.8556  0.1945
  433DG     C11 9947   1.919   4.734   3.673 -0.2793 -0.1345 -0.2701
  433DG     C12 9948   2.245   4.626   3.395 -0.5567 -0.2193 -0.4689
  433DG     H13 9949   1.875   4.720   3.574  1.3390 -0.0858 -1.0362
  433DG     H14 9950   1.843   4.700   3.743  0.2381 -0.0606  0.3308
  433DG     H15 9951   2.323   4.692   3.357  0.6694 -1.4800 -0.2174
  433DG     H16 9952   2.291   4.530   3.418  1.8882  1.1669  0.9126
  433DG     C17 9953   2.028   4.625   3.690 -0.3729 -0.8157  0.2448
  433DG     C18 9954   2.186   4.677   3.523 -0.1065 -0.1921 -0.3345
  433DG     O19 9955   2.079   4.597   3.558  0.5097  0.1849 -0.3774
  433DG     H20 9956   1.988   4.528   3.719 -1.4188 -0.6612 -0.6224
  433DG     H21 9957   2.106   4.651   3.762 -0.1898  0.3509 -0.3517
  433DG     H22 9958   2.259   4.678   3.604  0.6118 -0.0450 -0.9764
  433DG     H23 9959   2.149   4.779   3.511 -0.4184 -0.1029  1.1550
  434DG      C1 9960   3.038   3.833   0.007  0.3345  0.4290 -0.3189
  434DG      C2 9961   2.284   3.316   0.171  0.0840  0.9930 -0.3725
  434DG      H3 9962   3.072   3.777   0.094 -0.2715 -1.4226 -1.2240
  434DG      H4 9963   3.003   3.934   0.031  2.4417  1.0925  0.2124
  434DG      H5 9964   3.119   3.838  -0.066  2.7568  0.8649  2.1874
  434DG      H6 9965   2.272   3.360   0.270  0.2617  2.3619 -0.9322
  434DG      H7 9966   2.184   3.287   0.138  0.0625  1.5968 -0.8656
  434DG      H8 9967   2.345   3.226   0.183 -0.9126  0.3793  0.2453
  434DG      O9 9968   2.936   3.755  -0.047  0.0630 -0.0992  0.1089
  434DG     O10 9969   2.333   3.422   0.090  0.0694  0.2603  0.0806
  434DG     C11 9970   2.842   3.713   0.046  0.2484  0.2544  0.0407
  434DG     C12 9971   2.461   3.481   0.117  0.1718  0.1008  0.2761
  434DG     H13 9972   2.801   3.791   0.110 -1.0938  2.4003 -3.1880
  434DG     H14 9973   2.882   3.643   0.120  1.1274 -0.3132 -0.9393
  434DG     H15 9974   2.524   3.394   0.136 -0.3912 -0.1923  0.8387
  434DG     H16 9975   2.469   3.534   0.212 -0.3609  0.2736  0.2303
  434DG     C17 9976   2.723   3.656  -0.033 -0.4297  0.2215  0.1516
  434DG     C18 9977   2.514   3.565   0.006 -0.1408 -0.4540  0.1161
  434DG     O19 9978   2.641   3.598   0.055 -0.0435  0.0479 -0.0716
  434DG     H20 9979   2.757   3.585  -0.107 -0.7909 -0.2350  0.4177
  434DG     H21 9980   2.668   3.737  -0.081  0.9894  1.1391  0.0110
  434DG     H22 9981   2.521   3.510  -0.088 -2.1320  1.2923 -1.1546
  434DG     H23 9982   2.454   3.656  -0.003  1.5652  0.8135  0.9761
  435DG      C1 9983   3.924   2.152   4.485  0.3643 -0.3851  0.4540
  435DG      C2 9984   4.003   1.489   4.903  0.3904  0.6335  0.7276
  435DG      H3 9985   4.022   2.167   4.532 -0.1249  2.4322  0.7673
  435DG      H4 9986   3.888   2.254   4.474 -0.2024 -0.7130 -0.8367
  435DG      H5 9987   3.935   2.115   4.383 -1.7989  1.9160 -0.6969
  435DG      H6 9988   3.938   1.408   4.937 -0.8609  0.4649 -1.7819
  435DG      H7 9989   4.044   1.459   4.806  0.9171  0.4336  1.0058
  435DG      H8 9990   4.076   1.491   4.983 -0.3167 -1.3160  1.4837
  435DG      O9 9991   3.849   2.061   4.559 -0.3823 -0.3545  0.0167
  435DG     O10 9992   3.934   1.610   4.887 -0.6438 -0.0922  0.2929
  435DG     C11 9993   3.869   2.084   4.704  0.1306  0.0301  0.3416
  435DG     C12 9994   3.823   1.610   4.804 -0.1170  0.5343  0.2102
  435DG     H13 9995   3.843   2.188   4.725 -0.5587 -0.1428  0.3419
  435DG     H14 9996   3.976   2.072   4.726  0.5542  1.6074 -0.6977
  435DG     H15 9997   3.756   1.528   4.827  0.2309  0.2037  0.0521
  435DG     H16 9998   3.848   1.584   4.701  0.6042 -1.5466  0.8662
  435DG     C17 9999   3.791   1.982   4.789  1.0380  0.0426 -0.9053
  435DG     C1810000   3.752   1.745   4.807 -0.4369 -0.4724  0.6529
  435DG     O1910001   3.845   1.849   4.772 -0.0390  0.3495  0.5060
  435DG     H2010002   3.692   1.969   4.747  0.9623 -0.8192 -0.4852
  435DG     H2110003   3.782   2.004   4.896  2.0238 -1.6356 -0.4363
  435DG     H2210004   3.661   1.752   4.748 -0.3939 -2.6845  0.2293
  435DG     H2310005   3.724   1.762   4.911  0.0385 -0.4916  0.7863
  436DG      C110006   2.018   5.260   3.951  0.0385  0.3447  0.2518
  436DG      C210007   2.351   4.923   4.384 -0.3576 -0.0661  0.1858
  436DG      H310008   1.933   5.281   3.886  0.6611 -1.3212 -1.1899
  436DG      H410009   2.075   5.184   3.897 -0.6256 -0.6317  0.9063
  436DG      H510010   2.089   5.343   3.959  1.2067 -0.7881  2.5805
  436DG      H610011   2.436   4.987   4.409 -2.7781  3.0014  1.2036
  436DG      H710012   2.329   4.849   4.461  1.0927 -0.9745 -0.2303
  436DG      H810013   2.386   4.867   4.297  2.4146  3.1457 -0.9845
  436DG      O910014   1.983   5.206   4.072 -0.5616  0.1876  0.2226
  436DG     O1010015   2.231   4.998   4.363 -0.5466 -0.0112 -0.2202
  436DG     C1110016   1.942   5.301   4.166  0.1287  0.7497 -0.4566
  436DG     C1210017   2.176   5.046   4.487 -0.1447  0.4293 -0.2650
  436DG     H1310018   1.843   5.332   4.131 -1.6586 -1.6327  2.0443
  436DG     H1410019   2.008   5.387   4.160  0.5876  0.5582  1.4594
  436DG     H1510020   2.235   5.134   4.514  0.0961  0.3735 -0.6089
  436DG     H1610021   2.155   4.972   4.564 -1.1777  2.1356  1.1866
  436DG     C1710022   1.923   5.247   4.305  0.6033 -0.7666 -0.4012
  436DG     C1810023   2.035   5.090   4.452  0.0346 -0.0733  0.8708
  436DG     O1910024   2.044   5.177   4.334  0.1414 -0.2104  0.0664
  436DG     H2010025   1.844   5.172   4.309  0.4576 -0.5900  0.0408
  436DG     H2110026   1.902   5.327   4.376  2.1464  0.2910 -1.0767
  436DG     H2210027   1.979   4.999   4.431 -0.7285  0.8100 -1.2380
  436DG     H2310028   1.997   5.148   4.537 -0.6917  0.7220  0.0279
  437DG      C110029   4.442   2.388   0.780  0.2486  0.1245  0.3240
  437DG      C210030   4.741   2.034   0.084  0.1854 -1.2092 -0.1396
  437DG      H310031   4.549   2.384   0.800  0.1951  0.3212  0.6417
  437DG      H410032   4.373   2.347   0.853 -0.1221 -1.0995 -0.6578
  437DG      H510033   4.416   2.491   0.757 -0.1845 -0.1973 -0.7186
  437DG      H610034   4.728   1.950   0.016 -0.0587 -1.0449 -0.2997
  437DG      H710035   4.765   2.127   0.033 -1.8955 -0.4774  0.1308
  437DG      H810036   4.833   2.019   0.141 -0.0086  0.2512  0.6170
  437DG      O910037   4.432   2.321   0.656  0.5847 -0.6114  0.0414
  437DG     O1010038   4.642   2.034   0.192  0.4854 -0.2696 -0.0812
  437DG     C1110039   4.450   2.179   0.655  0.4712  0.5740  0.1208
  437DG     C1210040   4.534   2.123   0.171 -0.0761 -0.0716 -0.4304
  437DG     H1310041   4.399   2.134   0.740 -1.1678 -0.0272 -1.1313
  437DG     H1410042   4.557   2.158   0.665  0.2990  0.2630  1.5749
  437DG     H1510043   4.487   2.097   0.077  0.6082 -0.2764 -0.7229
  437DG     H1610044   4.566   2.227   0.164 -0.5011  0.0475 -0.5983
  437DG     C1710045   4.403   2.125   0.520  1.2950  0.1559  0.3794
  437DG     C1810046   4.433   2.103   0.286  0.1853  0.1767 -0.8586
  437DG     O1910047   4.491   2.147   0.410 -0.0607  0.8039 -0.1847
  437DG     H2010048   4.301   2.153   0.495  1.5302 -0.5250 -1.4499
  437DG     H2110049   4.395   2.019   0.543  1.3265  0.2061  0.6289
  437DG     H2210050   4.341   2.153   0.256  0.4617 -0.2336 -2.4497
  437DG     H2310051   4.408   1.998   0.299  0.7507  0.4540  4.7650
  438DG      C110052   3.277   3.247   5.035  0.0742  0.5083  0.0264
  438DG      C210053   3.331   3.685   4.433  0.2592 -0.0123 -0.7619
  438DG      H310054   3.384   3.240   5.052 -0.0543  0.4387  0.8605
  438DG      H410055   3.239   3.164   4.975 -0.3103  0.9314 -0.3217
  438DG      H510056   3.227   3.238   5.132  0.9744 -3.2586  0.3053
  438DG      H610057   3.369   3.784   4.409 -2.0591  1.1794  0.2042
  438DG      H710058   3.417   3.618   4.443  0.3997  0.3064  0.3082
  438DG      H810059   3.276   3.648   4.346 -1.0264  0.9230 -0.3746
  438DG      O910060   3.254   3.368   4.965  0.3903  0.8246  0.1750
  438DG     O1010061   3.243   3.687   4.546 -0.4622  0.2241  1.0178
  438DG     C1110062   3.287   3.486   5.036 -0.6047  0.7105  0.6694
  438DG     C1210063   3.274   3.790   4.640 -0.6217 -0.2713  0.4851
  438DG     H1310064   3.392   3.493   5.063 -0.3323  0.5406 -0.3189
  438DG     H1410065   3.238   3.486   5.134  0.1463 -1.1940  1.0838
  438DG     H1510066   3.244   3.889   4.605  0.6768  0.0659  0.2990
  438DG     H1610067   3.382   3.796   4.652 -0.5938  1.4399 -0.3324
  438DG     C1710068   3.219   3.607   4.965 -0.1328  0.1728  0.2927
  438DG     C1810069   3.205   3.754   4.772  0.5198  0.2217 -0.6877
  438DG     O1910070   3.270   3.647   4.839  0.3521  0.4599  0.0355
  438DG     H2010071   3.219   3.688   5.037  1.0494 -2.2079  3.1826
  438DG     H2110072   3.114   3.590   4.940  0.1979 -0.7429 -0.5287
  438DG     H2210073   3.207   3.842   4.835  0.1466  1.5871 -2.4957
  438DG     H2310074   3.105   3.728   4.736  0.1795  2.9446 -1.9746
  439DG      C110075   1.312   2.484   4.193  0.0477  0.0266  0.5491
  439DG      C210076   1.011   2.129   4.590  0.1649  0.1325  0.2506
  439DG      H310077   1.294   2.567   4.262  0.2284  1.3027 -0.8883
  439DG      H410078   1.323   2.519   4.090  1.8237 -0.8105  0.4254
  439DG      H510079   1.403   2.438   4.231  0.1381  1.7379  2.6087
  439DG      H610080   1.013   2.086   4.490  0.8350 -1.0983  0.7783
  439DG      H710081   1.110   2.158   4.626  0.8435 -0.4073 -1.1204
  439DG      H810082   0.966   2.062   4.663 -1.4629  0.4270 -0.4293
  439DG      O910083   1.211   2.392   4.200  0.5195 -0.4603 -0.1131
  439DG     O1010084   0.945   2.250   4.578 -0.0497  0.0248  0.2992
  439DG     C1110085   1.085   2.440   4.148  0.4124  0.2365 -0.0718
  439DG     C1210086   0.824   2.249   4.504  0.3631  0.0149  0.4062
  439DG     H1310087   1.094   2.446   4.040  1.2994 -0.7312 -0.0701
  439DG     H1410088   1.057   2.541   4.179  0.9224  0.1381  0.7466
  439DG     H1510089   0.770   2.339   4.530 -2.8693 -1.3774 -0.9192
  439DG     H1610090   0.766   2.164   4.540 -0.2064  0.3225  0.2286
  439DG     C1710091   0.968   2.345   4.174 -0.0095 -0.0481  0.2015
  439DG     C1810092   0.856   2.243   4.354  1.2940  0.3973 -0.1471
  439DG     O1910093   0.937   2.345   4.313 -0.6710 -0.3362 -0.2307
  439DG     H2010094   0.999   2.246   4.140  0.5463  0.5978 -1.2639
  439DG     H2110095   0.876   2.386   4.132 -1.1905 -0.7542  1.9997
  439DG     H2210096   0.893   2.145   4.327 -0.2193 -0.0324 -0.7896
  439DG     H2310097   0.761   2.247   4.301 -0.1257  0.0381  2.1974
  440DG      C110098   4.926   2.473   2.360 -0.1348  0.0292 -0.1153
  440DG      C210099   5.669   2.210   2.563  0.1353  0.0550 -0.5718
  440DG      H310100   4.935   2.561   2.297 -0.2670  1.0206  1.2243
  440DG      H410101   4.825   2.471   2.400 -0.1044  0.8313  0.0164
  440DG      H510102   4.950   2.388   2.296  1.8116  0.5051 -0.0942
  440DG      H610103   5.647   2.117   2.509  0.5278  0.1467 -0.8959
  440DG      H710104   5.727   2.275   2.497  0.3653  0.7110  0.2688
  440DG      H810105   5.736   2.184   2.644 -1.0280  1.4390  0.8908
  440DG      O910106   5.023   2.485   2.462 -0.3724  0.2903 -0.7546
  440DG     O1010107   5.556   2.279   2.606 -0.0272 -0.5104  0.1374
  440DG     C1110108   5.113   2.372   2.475  0.1172 -0.1383  0.3829
  440DG     C1210109   5.502   2.226   2.724  0.1502 -0.1702 -0.5269
  440DG     H1310110   5.183   2.371   2.391  2.5825  2.9741  2.1739
  440DG     H1410111   5.063   2.277   2.496 -0.5387  0.0640 -0.2377
  440DG     H1510112   5.573   2.241   2.805  0.1576  2.1127 -0.8866
  440DG     H1610113   5.475   2.122   2.707 -1.9870  0.3888 -0.8056
  440DG     C1710114   5.206   2.403   2.592 -0.3586  0.0418 -0.1402
  440DG     C1810115   5.376   2.315   2.733 -0.0141  0.1134  0.4234
  440DG     O1910116   5.299   2.298   2.608 -0.2282 -0.6397 -0.1490
  440DG     H2010117   5.149   2.406   2.686 -0.0041 -0.1346  0.0847
  440DG     H2110118   5.247   2.503   2.580  0.9676 -0.6428 -1.5340
  440DG     H2210119   5.327   2.271   2.820 -0.8545  2.7089  1.3728
  440DG     H2310120   5.408   2.416   2.758  0.5624  0.0347  0.0260
  441DG      C110121   0.855   0.586   0.130 -0.1052 -0.1797  0.1103
  441DG      C210122   0.259   0.494  -0.253  0.6147  0.3563  0.5779
  441DG      H310123   0.816   0.548   0.224  0.2857  0.9980  0.7647
  441DG      H410124   0.941   0.654   0.134  0.1115 -0.3420 -1.3046
  441DG      H510125   0.883   0.498   0.073 -0.5138  0.0160 -0.4011
  441DG      H610126   0.232   0.438  -0.164  1.5532 -0.9289  0.0744
  441DG      H710127   0.162   0.535  -0.281  0.6082  0.4686  0.7595
  441DG      H810128   0.281   0.416  -0.325  0.5911  0.7510  0.1380
  441DG      O910129   0.752   0.655   0.057  0.1352  0.6430  0.2501
  441DG     O1010130   0.357   0.594  -0.246  0.4397 -0.1200  0.1680
  441DG     C1110131   0.794   0.700  -0.076  0.5117  0.3334 -0.4255
  441DG     C1210132   0.318   0.721  -0.199 -0.2791  0.2505  0.0444
  441DG     H1310133   0.832   0.621  -0.140 -0.1029  0.5098 -1.0206
  441DG     H1410134   0.875   0.772  -0.067  0.0194  0.7041  1.5543
  441DG     H1510135   0.280   0.715  -0.097 -0.0438 -0.3986  0.0971
  441DG     H1610136   0.231   0.759  -0.252 -0.5922 -1.0991 -0.4465
  441DG     C1710137   0.686   0.788  -0.142  0.8797 -0.7051 -0.6139
  441DG     C1810138   0.446   0.809  -0.197 -0.0853 -0.4544  0.2680
  441DG     O1910139   0.543   0.741  -0.128 -0.1450  0.3057  0.0265
  441DG     H2010140   0.711   0.808  -0.246 -1.3471 -1.0849 -1.2866
  441DG     H2110141   0.693   0.885  -0.093 -3.1533  0.5093 -2.0386
  441DG     H2210142   0.482   0.841  -0.295 -0.3137  1.5651  0.7830
  441DG     H2310143   0.415   0.900  -0.144  0.5775 -0.5544  0.8397
  442DG      C110144   5.075   0.035   5.000 -0.0270 -0.2614 -0.1188
  442DG      C210145   5.172  -0.167   5.646 -0.9672  0.2285 -0.0747
  442DG      H310146   4.999   0.111   5.016 -0.2570 -0.3231 -0.8570
  442DG      H410147   5.065   0.002   4.896  0.3088  0.5076 -0.4026
  442DG      H510148   5.168   0.088   5.017  0.4435 -1.7511  2.5947
  442DG      H610149   5.262  -0.112   5.619 -0.3476 -0.2219  1.0281
  442DG      H710150   5.109  -0.110   5.714  0.1542 -0.7146  1.8403
  442DG      H810151   5.216  -0.255   5.693 -2.0967 -0.3493 -0.0553
  442DG      O910152   5.057  -0.085   5.081  0.0059  0.1964  0.3366
  442DG     O1010153   5.112  -0.198   5.522  0.4618  0.0177  0.2055
  442DG     C1110154   4.926  -0.139   5.073  0.3741  0.8859 -0.6024
  442DG     C1210155   4.979  -0.256   5.533 -0.5398  0.2328 -0.7108
  442DG     H1310156   4.909  -0.190   4.979 -0.3394 -0.3977  0.1907
  442DG     H1410157   4.848  -0.062   5.073  1.2981  1.8870 -2.5649
  442DG     H1510158   4.913  -0.200   5.599  1.1361  1.6098 -0.1367
  442DG     H1610159   4.986  -0.349   5.590 -1.4561  0.1208 -0.7679
  442DG     C1710160   4.902  -0.254   5.171  0.0998  0.2599 -1.7679
  442DG     C1810161   4.914  -0.307   5.405  0.0057  0.8336  0.0007
  442DG     O1910162   4.932  -0.209   5.308  0.3651 -0.1805 -0.3068
  442DG     H2010163   4.962  -0.341   5.144 -0.4758 -1.6260  2.2715
  442DG     H2110164   4.800  -0.292   5.168  0.6972 -1.5690 -0.4568
  442DG     H2210165   4.953  -0.405   5.378  2.1557  1.9619 -1.3467
  442DG     H2310166   4.810  -0.315   5.434 -0.0446  0.5487 -0.2602
  443DG      C110167   5.139   2.830   4.764 -0.0355 -0.0327  0.5510
  443DG      C210168   5.102   3.689   4.961  0.0784 -0.7034  0.1245
  443DG      H310169   5.188   2.850   4.668 -3.4492  0.7207 -1.1975
  443DG      H410170   5.053   2.765   4.752 -0.1874  0.1447  0.6713
  443DG      H510171   5.208   2.786   4.836  0.6205 -0.2527 -0.1946
  443DG      H610172   5.039   3.773   4.989  0.2262 -0.6752  0.3803
  443DG      H710173   5.191   3.692   5.024  0.4189  1.1988 -0.3853
  443DG      H810174   5.126   3.697   4.855 -1.2609  1.3152 -0.0850
  443DG      O910175   5.095   2.950   4.826  0.0696  0.2443 -0.5064
  443DG     O1010176   5.022   3.568   4.973 -0.1098  0.0483 -0.3929
  443DG     C1110177   4.986   3.008   4.760  0.3628  0.2297  0.2806
  443DG     C1210178   5.080   3.458   4.910 -0.5029  0.3266  0.5952
  443DG     H1310179   4.917   2.924   4.747  0.8486 -0.0286 -0.7633
  443DG     H1410180   5.016   3.043   4.661 -1.3046  1.2671  0.1063
  443DG     H1510181   5.165   3.432   4.974  0.2518  0.8041 -0.1831
  443DG     H1610182   5.107   3.472   4.805  1.2110  0.4399  1.0132
  443DG     C1710183   4.929   3.136   4.830 -0.5772  0.2719 -0.8717
  443DG     C1810184   4.969   3.353   4.916  0.6694  0.4618  0.1277
  443DG     O1910185   5.017   3.246   4.831 -0.4144 -0.6722 -0.2802
  443DG     H2010186   4.914   3.098   4.931  1.5613 -1.2333 -1.0598
  443DG     H2110187   4.828   3.156   4.793 -1.2893  1.2223  1.3891
  443DG     H2210188   4.957   3.317   5.018  0.7862  1.3933  0.4789
  443DG     H2310189   4.873   3.387   4.876  1.1668 -0.2253 -1.7548
  444DG      C110190   1.501   4.432   5.085 -0.3704  0.6523 -0.2586
  444DG      C210191   0.916   4.686   4.882 -0.3149 -0.3102  0.4091
  444DG      H310192   1.452   4.410   5.180  2.5611  0.8683  1.4393
  444DG      H410193   1.517   4.538   5.066 -1.8594  0.6503 -1.7510
  444DG      H510194   1.598   4.381   5.092 -0.7065  0.0202 -0.1287
  444DG      H610195   0.826   4.664   4.940 -1.2824  0.6250 -0.6711
  444DG      H710196   1.000   4.686   4.951 -0.4803  0.1179  0.6200
  444DG      H810197   0.911   4.792   4.857 -0.2968  0.0021  1.6633
  444DG      O910198   1.440   4.374   4.973 -0.1024 -0.2195 -0.3548
  444DG     O1010199   0.919   4.614   4.759  0.3021  0.5502 -0.0920
  444DG     C1110200   1.297   4.401   4.959 -0.0932 -0.0489 -0.7156
  444DG     C1210201   0.897   4.474   4.771 -0.0823  0.3548 -1.3101
  444DG     H1310202   1.279   4.505   4.988  0.3873  0.1578 -1.1375
  444DG     H1410203   1.251   4.325   5.021 -1.6844  1.8965  0.6213
  444DG     H1510204   0.889   4.437   4.668  1.9551  1.1538 -1.7910
  444DG     H1610205   0.799   4.446   4.811  1.4121 -2.0440  0.9844
  444DG     C1710206   1.257   4.384   4.811  0.1865 -0.2103 -0.9074
  444DG     C1810207   1.023   4.405   4.834 -0.4689  0.8980 -0.4248
  444DG     O1910208   1.145   4.461   4.777  0.6874 -0.1031 -0.0631
  444DG     H2010209   1.235   4.283   4.777 -1.4542  0.1637 -1.0423
  444DG     H2110210   1.347   4.411   4.756  1.6951  3.7513  2.9350
  444DG     H2210211   1.015   4.417   4.942 -0.6944  0.6440 -0.4112
  444DG     H2310212   1.020   4.297   4.821 -0.9800  0.6675  1.3449
  445DG      C110213   3.423   0.090   0.121  0.0245 -0.5880  0.1191
  445DG      C210214   2.705  -0.148   0.099 -0.2966  0.4966 -0.0907
  445DG      H310215   3.392  -0.013   0.103 -1.1058 -0.5310  1.5258
  445DG      H410216   3.439   0.104   0.228  1.1705 -1.7981  0.1249
  445DG      H510217   3.522   0.108   0.079 -0.0838  0.3299  0.2428
  445DG      H610218   2.622  -0.214   0.075  0.7239 -0.6488 -0.5766
  445DG      H710219   2.743  -0.168   0.200  0.9161 -0.5548 -0.7216
  445DG      H810220   2.667  -0.046   0.101  1.0088  0.9965  0.5763
  445DG      O910221   3.325   0.190   0.091 -0.0701  0.6952  0.2278
  445DG     O1010222   2.809  -0.150   0.001 -0.1592  0.0652 -0.4458
  445DG     C1110223   3.306   0.194  -0.049  0.7674 -0.2807 -0.0301
  445DG     C1210224   2.900  -0.041   0.020  0.2024  0.3858  0.6389
  445DG     H1310225   3.394   0.220  -0.109 -1.2043  1.4261 -2.3930
  445DG     H1410226   3.249   0.285  -0.067  1.1507  0.1187  0.7245
  445DG     H1510227   2.952  -0.061   0.114 -0.1295 -0.5737  0.6288
  445DG     H1610228   2.862   0.061   0.015  2.0625  1.0960  0.2704
  445DG     C1710229   3.217   0.079  -0.106 -0.0489  0.3055  0.1987
  445DG     C1810230   3.021  -0.047  -0.077 -0.1292  0.2067 -0.5141
  445DG     O1910231   3.110   0.048  -0.015 -0.1558  0.4792 -0.2239
  445DG     H2010232   3.285  -0.004  -0.123  0.6198  0.5283  1.6958
  445DG     H2110233   3.181   0.115  -0.203 -1.6347 -0.4625  0.4678
  445DG     H2210234   3.063  -0.147  -0.082  1.5286  0.8723 -0.7493
  445DG     H2310235   2.977  -0.011  -0.170 -0.4359 -0.3211 -0.5741
  446DG      C110236   4.924   3.220   3.349  0.4769 -0.4769  0.0634
  446DG      C210237   4.979   2.634   2.792  0.0181  0.4369 -0.0583
  446DG      H310238   4.996   3.273   3.286  0.4758 -1.0511 -0.4363
  446DG      H410239   4.961   3.196   3.448  1.5607  0.8807  0.0168
  446DG      H510240   4.850   3.295   3.376  1.7114  1.4254 -1.5533
  446DG      H610241   4.962   2.606   2.688 -1.0976 -0.7260  0.4069
  446DG      H710242   5.034   2.728   2.798  1.1757 -0.2619  0.4769
  446DG      H810243   5.021   2.550   2.847 -1.3917  1.1456  2.2444
  446DG      O910244   4.857   3.101   3.296 -0.1331  0.7030  0.1332
  446DG     O1010245   4.850   2.670   2.844 -0.0868  0.0630  0.0948
  446DG     C1110246   4.773   3.122   3.186 -0.1417  0.2455  0.8079
  446DG     C1210247   4.864   2.691   2.983  0.1618 -0.2779  0.3699
  446DG     H1310248   4.836   3.161   3.107  0.1068 -1.9956 -0.1580
  446DG     H1410249   4.702   3.199   3.219  1.6354  3.0814 -1.5612
  446DG     H1510250   4.955   2.749   2.999  0.0390  0.8571 -2.3753
  446DG     H1610251   4.862   2.600   3.043  0.0316 -0.9345 -0.6051
  446DG     C1710252   4.706   2.989   3.149 -1.0691  1.1579  0.2054
  446DG     C1810253   4.750   2.777   3.046  0.2716 -0.1109 -0.4939
  446DG     O1910254   4.793   2.907   3.067 -0.0666  0.5631  0.3263
  446DG     H2010255   4.617   3.002   3.086 -1.0264 -1.3314 -0.4771
  446DG     H2110256   4.691   2.925   3.236  1.1413  0.7037  0.3045
  446DG     H2210257   4.663   2.782   2.981 -0.5840  1.7380  0.7114
  446DG     H2310258   4.720   2.740   3.144  0.3108  2.4423  0.5479
  447DG      C110259   3.550   0.734   2.632 -0.2635 -0.3352 -1.1301
  447DG      C210260   4.085   1.000   2.571  0.4195  0.3919  0.0940
  447DG      H310261   3.545   0.799   2.545 -1.0408  0.7238 -0.3199
  447DG      H410262   3.456   0.751   2.684  1.0146  4.0110  0.2345
  447DG      H510263   3.545   0.630   2.600  1.8106 -0.5576 -0.8786
  447DG      H610264   3.992   0.943   2.569  1.0255 -0.6066 -1.1978
  447DG      H710265   4.078   1.095   2.624  0.9735 -0.0422  0.9680
  447DG      H810266   4.116   1.030   2.471 -1.7981 -1.2361 -1.1631
  447DG      O910267   3.664   0.731   2.722 -0.0436 -0.2596  0.4349
  447DG     O1010268   4.191   0.915   2.630  0.1482 -0.2127  0.1114
  447DG     C1110269   3.786   0.718   2.661  0.0115 -0.5993  0.3124
  447DG     C1210270   4.167   0.876   2.763 -0.3472 -0.3380  0.4768
  447DG     H1310271   3.798   0.789   2.579 -0.4325  1.1936  1.7144
  447DG     H1410272   3.793   0.614   2.632  0.6338 -0.1264 -1.3209
  447DG     H1510273   4.086   0.936   2.804 -0.5709 -0.2074 -0.1400
  447DG     H1610274   4.248   0.896   2.832  0.3245  0.3877 -0.4897
  447DG     C1710275   3.896   0.748   2.754 -0.3222  0.1204  0.5760
  447DG     C1810276   4.137   0.727   2.765  0.3002 -0.2522  0.5235
  447DG     O1910277   4.018   0.695   2.701 -0.0072 -0.3304  0.2772
  447DG     H2010278   3.873   0.708   2.852  1.8905 -0.0336  1.0797
  447DG     H2110279   3.907   0.854   2.774 -3.0494  0.4801  0.5874
  447DG     H2210280   4.212   0.682   2.700  0.3625 -1.6604  1.5127
  447DG     H2310281   4.151   0.680   2.862  1.3444  1.0292  1.0186
  448DG      C110282   0.103   2.979   3.963 -0.0937 -0.2160  0.6629
  448DG      C210283   0.747   2.548   3.915 -0.2981  0.0730  1.1906
  448DG      H310284   0.044   2.925   3.888 -0.6450  2.7893 -1.2139
  448DG      H410285   0.120   3.079   3.923  0.3476 -0.3047  0.6242
  448DG      H510286   0.051   3.002   4.056  1.9794  1.0690  1.5758
  448DG      H610287   0.737   2.626   3.840  1.0946  1.2723  2.1915
  448DG      H710288   0.853   2.529   3.930  0.0420  0.7502 -0.2326
  448DG      H810289   0.698   2.460   3.871  0.9919  0.8925 -2.1874
  448DG      O910290   0.220   2.907   4.000 -0.2421 -0.5115 -0.0139
  448DG     O1010291   0.669   2.588   4.033 -0.4309  0.3315 -0.1740
  448DG     C1110292   0.325   2.980   4.064 -0.6513  0.2008  0.5343
  448DG     C1210293   0.525   2.559   4.020 -0.7056 -0.7709 -0.3420
  448DG     H1310294   0.293   3.050   4.141 -2.2818  0.4138 -0.2785
  448DG     H1410295   0.380   3.039   3.990 -0.6484  0.5417  0.8030
  448DG     H1510296   0.499   2.454   4.032 -0.4744 -0.8297 -0.3494
  448DG     H1610297   0.492   2.586   3.920  2.3128  1.5488 -0.8539
  448DG     C1710298   0.409   2.886   4.152  0.4343  0.1153 -0.4178
  448DG     C1810299   0.453   2.648   4.123 -0.4810  0.2219 -0.2500
  448DG     O1910300   0.482   2.785   4.083  0.0077  0.2606 -0.7208
  448DG     H2010301   0.349   2.858   4.239 -0.2473  1.9803 -0.2359
  448DG     H2110302   0.476   2.953   4.205 -0.0183 -0.4578  0.9383
  448DG     H2210303   0.344   2.635   4.125 -1.0235  3.7458 -0.7895
  448DG     H2310304   0.493   2.623   4.221 -3.8000 -0.8854  0.9757
  449DG      C110305   0.356   2.527   0.244 -0.0038 -0.0896  0.0711
  449DG      C210306   0.390   2.822  -0.372 -0.1577  0.6335  0.5312
  449DG      H310307   0.359   2.497   0.348 -0.1146 -0.4733 -0.0339
  449DG      H410308   0.278   2.462   0.204 -0.2809 -0.0135  0.4848
  449DG      H510309   0.313   2.626   0.231  1.1338  0.5899  1.2460
  449DG      H610310   0.455   2.789  -0.453 -0.2703 -1.6333  1.3079
  449DG      H710311   0.296   2.767  -0.373  0.5640 -0.6222  0.4801
  449DG      H810312   0.374   2.930  -0.382 -3.4799  0.2455  0.6048
  449DG      O910313   0.474   2.505   0.178 -0.0848 -0.4025  0.4138
  449DG     O1010314   0.457   2.789  -0.256 -0.7091 -0.0472  0.7535
  449DG     C1110315   0.598   2.581   0.195 -0.1109 -0.6651 -0.8978
  449DG     C1210316   0.518   2.655  -0.248  0.0360  0.1892 -0.1223
  449DG     H1310317   0.677   2.525   0.145 -0.7867 -2.1042 -0.3970
  449DG     H1410318   0.611   2.591   0.303  0.6280  1.5273 -1.1443
  449DG     H1510319   0.590   2.632  -0.326  3.2151  1.5833  2.1684
  449DG     H1610320   0.438   2.582  -0.259 -1.8026  2.2094 -0.9561
  449DG     C1710321   0.571   2.715   0.118 -0.2255  0.1502 -0.2345
  449DG     C1810322   0.591   2.637  -0.111  0.5769  0.2379  0.2567
  449DG     O1910323   0.510   2.690  -0.012  0.0531 -0.3808 -0.5102
  449DG     H2010324   0.665   2.767   0.095 -1.1211  0.8471 -2.6279
  449DG     H2110325   0.527   2.786   0.189 -0.8939 -0.3347 -0.1582
  449DG     H2210326   0.607   2.533  -0.081 -0.7598 -0.6078 -1.7518
  449DG     H2310327   0.685   2.691  -0.117  0.6545  0.4889  2.6198
  450DG      C110328   2.210   0.977   3.451 -0.5122 -0.3286  0.4527
  450DG      C210329   1.978   1.508   3.477  0.2462  0.3174  0.0458
  450DG      H310330   2.165   0.891   3.500 -0.0880  0.2935  1.9674
  450DG      H410331   2.230   0.939   3.350  1.7720 -1.9877  1.4536
  450DG      H510332   2.153   1.070   3.454 -0.0779 -0.0332 -0.1213
  450DG      H610333   1.928   1.487   3.382 -1.3096  1.0107  0.6636
  450DG      H710334   1.921   1.450   3.549  0.4237  0.1773  0.0752
  450DG      H810335   1.974   1.616   3.495  1.1770  0.3798 -0.0732
  450DG      O910336   2.341   0.999   3.514 -0.4264  0.4961  0.0463
  450DG     O1010337   2.118   1.465   3.473 -0.2039 -0.0956  0.2891
  450DG     C1110338   2.420   1.103   3.458 -0.1281  0.0755  0.2389
  450DG     C1210339   2.197   1.496   3.591 -0.0588 -0.3461  0.4606
  450DG     H1310340   2.379   1.136   3.362  0.7245 -1.6863 -0.7796
  450DG     H1410341   2.523   1.070   3.444 -0.0732 -0.0652  0.9519
  450DG     H1510342   2.158   1.446   3.680  1.9541 -0.5554  1.2675
  450DG     H1610343   2.204   1.603   3.614 -0.0327 -0.1406 -0.4975
  450DG     C1710344   2.440   1.224   3.550  1.0049  0.4637  0.0836
  450DG     C1810345   2.337   1.435   3.587  0.1479 -0.0145  0.1288
  450DG     O1910346   2.322   1.306   3.545  0.5249  0.6331  0.0932
  450DG     H2010347   2.523   1.281   3.509  2.3389 -1.3708  0.0721
  450DG     H2110348   2.477   1.208   3.652 -0.3239  1.9330  0.8412
  450DG     H2210349   2.406   1.489   3.521  1.1255 -1.0556  0.2647
  450DG     H2310350   2.381   1.453   3.685 -1.9533  1.6084  0.8522
  451DG      C110351   3.421   3.548   2.140  0.3218  0.6358 -0.5179
  451DG      C210352   3.195   4.311   2.049 -0.3720 -0.3525  0.5335
  451DG      H310353   3.520   3.531   2.098  0.2135 -0.0047 -0.5205
  451DG      H410354   3.358   3.506   2.062  0.1762 -0.8491  0.3516
  451DG      H510355   3.407   3.495   2.235  2.7000  0.0096 -0.4511
  451DG      H610356   3.110   4.309   2.117 -0.3383 -1.8652  0.5790
  451DG      H710357   3.263   4.392   2.077  1.3343 -0.9466 -1.5944
  451DG      H810358   3.165   4.336   1.948  0.0274  2.1761  0.9854
  451DG      O910359   3.407   3.688   2.139  0.2220  1.1145 -0.7160
  451DG     O1010360   3.273   4.194   2.058 -0.1745 -0.2266 -0.3446
  451DG     C1110361   3.457   3.752   2.254 -0.5163 -0.5378 -0.4867
  451DG     C1210362   3.197   4.071   2.055 -0.0665  0.3743 -0.3963
  451DG     H1310363   3.556   3.713   2.278 -0.3567 -0.3256 -0.7910
  451DG     H1410364   3.394   3.735   2.342 -1.2254 -1.6238 -1.1842
  451DG     H1510365   3.148   4.042   1.963 -0.9935 -2.3692  0.8633
  451DG     H1610366   3.110   4.077   2.121 -0.6734  1.1646 -1.2407
  451DG     C1710367   3.467   3.905   2.246 -0.0591  0.6125  0.3803
  451DG     C1810368   3.294   3.952   2.088 -0.0513 -0.3325  0.0632
  451DG     O1910369   3.344   3.973   2.219  0.1134 -0.3868  0.1244
  451DG     H2010370   3.546   3.935   2.176 -0.9351  0.7641 -0.5758
  451DG     H2110371   3.509   3.942   2.339  2.2910 -1.7192  0.3431
  451DG     H2210372   3.259   3.850   2.074 -1.0895  0.0904 -0.5178
  451DG     H2310373   3.372   3.973   2.015 -1.5972  4.0593 -0.6337
  452DG      C110374   1.450   5.356   2.993  0.5556  0.0418  0.0843
  452DG      C210375   0.977   5.291   3.427  0.1059 -0.5133 -0.5405
  452DG      H310376   1.486   5.430   3.064  0.9318  1.5875 -1.6463
  452DG      H410377   1.493   5.381   2.896  0.4451 -0.5149 -0.1131
  452DG      H510378   1.498   5.264   3.028 -1.1366 -0.3694  1.4871
  452DG      H610379   1.036   5.208   3.464  0.1679 -0.3956 -0.3744
  452DG      H710380   1.024   5.383   3.462  0.1024 -1.0731  1.0217
  452DG      H810381   0.876   5.282   3.467  0.6897 -1.0643  0.9014
  452DG      O910382   1.308   5.346   2.994 -0.4400  0.5790 -0.3855
  452DG     O1010383   0.985   5.273   3.286  0.2738 -0.0611 -0.2244
  452DG     C1110384   1.245   5.456   2.938 -0.5991  0.2916  0.2923
  452DG     C1210385   0.893   5.355   3.219  0.2820 -0.2470  0.3767
  452DG     H1310386   1.287   5.459   2.837 -1.4971 -2.1979 -0.2188
  452DG     H1410387   1.272   5.552   2.983  1.7716  0.3728 -1.1601
  452DG     H1510388   0.907   5.458   3.253 -0.9863 -0.2161  0.8535
  452DG     H1610389   0.792   5.329   3.250 -0.9053  3.3198  0.0338
  452DG     C1710390   1.093   5.436   2.924 -0.2465  0.0681 -0.2499
  452DG     C1810391   0.918   5.353   3.067  0.1604 -0.2785  0.0076
  452DG     O1910392   1.055   5.387   3.050  0.9654  0.1326 -0.4066
  452DG     H2010393   1.073   5.363   2.846  1.1425  0.0707 -0.6413
  452DG     H2110394   1.046   5.523   2.878 -0.5864 -0.6265 -1.2602
  452DG     H2210395   0.891   5.256   3.024 -1.5068 -0.4338  1.2650
  452DG     H2310396   0.864   5.429   3.012 -0.3339 -1.1865 -0.8047
  453DG      C110397   4.518   2.361   4.159 -0.3926  0.3922 -0.5470
  453DG      C210398   4.121   2.361   3.705  0.0436 -0.1649 -0.2834
  453DG      H310399   4.573   2.317   4.243 -1.8433  2.1048  1.4033
  453DG      H410400   4.485   2.463   4.179 -2.6842 -0.1094 -1.4461
  453DG      H510401   4.595   2.368   4.082  0.9842  1.3389  0.8307
  453DG      H610402   4.185   2.319   3.628 -0.3747  0.6696 -1.1120
  453DG      H710403   4.063   2.447   3.672 -1.5090 -0.5772  1.2158
  453DG      H810404   4.177   2.400   3.790  2.2991  0.1343 -1.8089
  453DG      O910405   4.418   2.277   4.101  0.1652 -0.4197  0.3293
  453DG     O1010406   4.040   2.254   3.745 -0.0846  0.3045 -0.0900
  453DG     C1110407   4.314   2.247   4.197  0.1628 -0.0995  0.5053
  453DG     C1210408   3.962   2.279   3.861 -0.7186  0.6833  0.3158
  453DG     H1310409   4.299   2.327   4.269 -0.0110  0.6773 -0.3617
  453DG     H1410410   4.353   2.169   4.263 -0.1461  1.2171  2.3076
  453DG     H1510411   3.862   2.241   3.840 -0.0486 -0.6800 -0.5752
  453DG     H1610412   3.946   2.385   3.878  1.7679  1.0058  1.1841
  453DG     C1710413   4.184   2.187   4.152  0.1795 -0.0491 -0.3538
  453DG     C1810414   4.023   2.206   3.991 -0.5278 -0.0101  0.4559
  453DG     O1910415   4.141   2.263   4.037 -1.1171  0.5567 -0.3400
  453DG     H2010416   4.111   2.179   4.232 -0.2859  1.3454 -0.6200
  453DG     H2110417   4.208   2.083   4.130 -1.0562 -0.7625  1.4166
  453DG     H2210418   3.943   2.211   4.065 -0.3122  1.2276  0.6359
  453DG     H2310419   4.035   2.102   3.961  2.3714  0.5911 -0.8336
  454DG      C110420   1.997   4.072   4.040  0.7658  0.3222  0.8025
  454DG      C210421   1.906   3.285   3.829  0.1056  0.2930 -0.4647
  454DG      H310422   2.104   4.080   4.021  0.3504  3.9719 -0.7485
  454DG      H410423   1.987   4.015   4.132 -0.9946 -0.9847 -0.1440
  454DG      H510424   1.955   4.172   4.051 -0.1485  0.0161  0.2429
  454DG      H610425   1.890   3.226   3.739 -0.2132 -1.8525  0.9405
  454DG      H710426   2.011   3.315   3.838  0.7416 -1.6451 -0.9949
  454DG      H810427   1.879   3.228   3.917 -1.4942  1.7451  0.0337
  454DG      O910428   1.940   4.007   3.927 -0.2143 -0.7822  0.2730
  454DG     O1010429   1.824   3.398   3.822  0.4451 -0.0309 -0.4447
  454DG     C1110430   1.803   3.979   3.955  0.2126 -0.2650  0.0063
  454DG     C1210431   1.880   3.507   3.889  0.3892  0.2050  0.2521
  454DG     H1310432   1.756   4.072   3.923  1.6875  0.3612 -0.3831
  454DG     H1410433   1.775   3.969   4.060  0.0610  0.4610  0.0426
  454DG     H1510434   1.968   3.543   3.836 -1.4405  2.7483 -1.2933
  454DG     H1610435   1.893   3.478   3.993 -2.4080  0.5024  0.7597
  454DG     C1710436   1.753   3.846   3.894 -0.3208 -0.2152 -0.2440
  454DG     C1810437   1.782   3.623   3.879 -0.7551  0.7161  0.4521
  454DG     O1910438   1.841   3.740   3.928  0.0918 -0.4125  0.2199
  454DG     H2010439   1.746   3.858   3.786  1.8340 -1.1134 -0.5447
  454DG     H2110440   1.650   3.825   3.921 -0.1083 -1.2445 -0.2123
  454DG     H2210441   1.768   3.630   3.771  1.5535  1.1873  0.1196
  454DG     H2310442   1.692   3.598   3.934  0.8267 -3.0069  1.6836
  455DG      C110443   3.835   2.347   3.114  0.7452 -0.2836  0.6454
  455DG      C210444   3.815   1.949   3.646 -0.2437 -0.0939 -0.3241
  455DG      H310445   3.742   2.394   3.146  0.1775 -0.5340 -0.5939
  455DG      H410446   3.804   2.243   3.099  1.0541 -0.0973 -1.5264
  455DG      H510447   3.885   2.398   3.032  0.3431 -0.9908 -0.0474
  455DG      H610448   3.748   2.004   3.712 -2.1409  0.3497 -2.4707
  455DG      H710449   3.752   1.907   3.567 -0.4683 -1.2667  0.4588
  455DG      H810450   3.851   1.864   3.703 -1.0191  0.1983  0.6275
  455DG      O910451   3.929   2.352   3.219  0.2844 -0.5650 -0.4582
  455DG     O1010452   3.911   2.034   3.590 -0.2184  0.5418  0.1869
  455DG     C1110453   4.058   2.300   3.177 -0.1027  0.0794 -0.4849
  455DG     C1210454   4.016   1.965   3.527  0.1506 -0.4634  0.2326
  455DG     H1310455   4.119   2.376   3.126  1.1723  1.0633  2.3163
  455DG     H1410456   4.040   2.230   3.096 -1.7541 -1.2597  0.9755
  455DG     H1510457   3.967   1.902   3.452 -1.7168 -0.4151  1.3520
  455DG     H1610458   4.072   1.905   3.599  2.0757  0.3442 -0.5352
  455DG     C1710459   4.140   2.232   3.287  0.5551  0.1260 -0.4785
  455DG     C1810460   4.117   2.072   3.472 -0.0850  0.4690 -0.0575
  455DG     O1910461   4.062   2.146   3.367 -0.3090  0.5990  0.3053
  455DG     H2010462   4.180   2.301   3.361  0.2926 -0.7687  0.5205
  455DG     H2110463   4.223   2.170   3.251 -1.1837 -1.6798 -1.5737
  455DG     H2210464   4.161   2.125   3.557 -0.2096 -1.0927  1.0304
  455DG     H2310465   4.198   2.012   3.431  0.7282  0.1258  1.9371
  456DG      C110466   4.407   1.781   3.489 -0.1536  0.8650  1.1075
  456DG      C210467   3.973   1.280   2.916  0.3589 -0.4388 -0.7780
  456DG      H310468   4.408   1.861   3.564  0.6851  0.7000  1.2765
  456DG      H410469   4.418   1.828   3.391 -2.0976  0.4187  0.6272
  456DG      H510470   4.484   1.708   3.511 -1.7694 -0.2759  3.3711
  456DG      H610471   3.875   1.234   2.918  0.6968 -1.3127 -2.4662
  456DG      H710472   3.967   1.368   2.853 -1.0601 -0.7184 -1.0489
  456DG      H810473   4.045   1.212   2.869 -1.2253 -0.3224 -3.5713
  456DG      O910474   4.276   1.725   3.485  0.2430 -0.4718  0.1930
  456DG     O1010475   4.007   1.321   3.050 -0.9102  0.3618  0.1159
  456DG     C1110476   4.255   1.631   3.382 -0.1553  0.1646  0.3479
  456DG     C1210477   3.924   1.426   3.100 -0.8936 -0.0650  0.9667
  456DG     H1310478   4.323   1.546   3.379  0.9373  1.0332 -0.2017
  456DG     H1410479   4.269   1.672   3.282 -0.7746  0.3219  0.3192
  456DG     H1510480   3.817   1.405   3.094 -1.1667  1.1286  1.4302
  456DG     H1610481   3.938   1.511   3.033  1.8744 -2.3854 -1.7502
  456DG     C1710482   4.108   1.577   3.394  0.3579 -0.4358 -0.0699
  456DG     C1810483   3.953   1.461   3.251 -0.9845 -0.3944  0.6834
  456DG     O1910484   4.087   1.508   3.275  0.3851  0.7366  0.1026
  456DG     H2010485   4.029   1.652   3.387 -0.3734 -1.1833  0.1081
  456DG     H2110486   4.089   1.516   3.482 -2.8648  0.1591 -0.2403
  456DG     H2210487   3.879   1.534   3.286  0.1221  0.6347  0.9333
  456DG     H2310488   3.937   1.375   3.316  1.1346 -0.4222  1.2251
  457DG      C110489   3.789   0.366   1.899 -0.2348  0.8520  0.6815
  457DG      C210490   3.725   0.856   2.305  0.1861  0.5645  0.4243
  457DG      H310491   3.844   0.304   1.828  1.2368 -0.5857  2.9612
  457DG      H410492   3.686   0.330   1.903  0.4757 -1.7342 -1.3436
  457DG      H510493   3.812   0.337   2.001 -3.2703  0.7552  1.4345
  457DG      H610494   3.713   0.964   2.308 -0.4086  0.4874  1.5146
  457DG      H710495   3.633   0.813   2.344 -0.7474  1.5183 -0.6420
  457DG      H810496   3.803   0.815   2.370  1.1740 -1.2964 -1.7892
  457DG      O910497   3.797   0.502   1.889  0.2493  0.5313 -0.6474
  457DG     O1010498   3.741   0.799   2.173 -0.5932  0.1325  0.0292
  457DG     C1110499   3.716   0.543   1.783 -0.1511  0.5965 -0.7800
  457DG     C1210500   3.637   0.851   2.098  0.2611  0.0707 -0.2448
  457DG     H1310501   3.611   0.522   1.806 -0.0842  0.4847 -0.5715
  457DG     H1410502   3.743   0.487   1.694  2.4710  1.2585 -0.4766
  457DG     H1510503   3.660   0.951   2.060 -0.7547  0.4205  0.0235
  457DG     H1610504   3.545   0.862   2.155 -0.3697 -0.1823 -1.1858
  457DG     C1710505   3.723   0.700   1.767 -0.2689  0.7791  0.4175
  457DG     C1810506   3.610   0.772   1.973 -0.7508 -0.4786 -0.1861
  457DG     O1910507   3.723   0.778   1.884  0.1307  0.3162  0.0393
  457DG     H2010508   3.641   0.745   1.711 -1.5465 -0.7112  1.0381
  457DG     H2110509   3.815   0.717   1.711 -0.9633 -1.1092 -1.4383
  457DG     H2210510   3.590   0.670   2.006 -0.4828 -0.7741 -0.9226
  457DG     H2310511   3.514   0.811   1.938 -0.0413  0.4268 -1.2149
  458DG      C110512   2.583   4.218   2.318 -0.0401 -0.6189 -0.1621
  458DG      C210513   2.541   4.701   2.941 -0.4149 -0.2131  0.3686
  458DG      H310514   2.633   4.194   2.224  0.1681 -0.9055  0.0201
  458DG      H410515   2.479   4.203   2.292 -0.0036 -1.1821  0.0024
  458DG      H510516   2.601   4.145   2.397 -3.2870 -2.9304 -1.3513
  458DG      H610517   2.615   4.622   2.929 -0.0013  0.1653  0.4143
  458DG      H710518   2.585   4.798   2.965 -0.3102 -0.2634  0.3821
  458DG      H810519   2.477   4.690   3.029 -0.5507  0.6676  0.3877
  458DG      O910520   2.600   4.353   2.346 -0.5707 -0.3594  0.1835
  458DG     O1010521   2.444   4.697   2.841 -0.9311  0.3995 -0.0505
  458DG     C1110522   2.533   4.396   2.464 -0.6191 -0.3097 -0.0743
  458DG     C1210523   2.477   4.786   2.743  0.6387  0.2554  0.9597
  458DG     H1310524   2.561   4.330   2.546 -1.2512 -0.2462  0.1960
  458DG     H1410525   2.425   4.387   2.452 -0.3880 -2.0564 -1.1233
  458DG     H1510526   2.518   4.882   2.772 -1.0196  0.9560  1.1331
  458DG     H1610527   2.376   4.810   2.708 -0.5494 -2.0041  2.5369
  458DG     C1710528   2.574   4.535   2.476 -0.2744  0.1528  0.3092
  458DG     C1810529   2.549   4.713   2.638  0.1624  0.9783  0.0439
  458DG     O1910530   2.511   4.584   2.595 -0.6951  0.7952 -0.8471
  458DG     H2010531   2.537   4.588   2.389 -1.1727 -0.7361  0.1262
  458DG     H2110532   2.681   4.554   2.483  0.0152 -0.8162 -1.1998
  458DG     H2210533   2.554   4.776   2.550  0.2464  1.1342  0.1598
  458DG     H2310534   2.651   4.688   2.667  0.0798 -0.6051 -0.9293
  459DG      C110535   2.592   1.787   3.407  0.2996 -0.4254  0.4113
  459DG      C210536   2.517   2.305   4.077  0.1415  0.1059 -0.8097
  459DG      H310537   2.654   1.783   3.317 -0.8138  2.3726 -0.5782
  459DG      H410538   2.488   1.806   3.381 -0.1998 -1.8950  1.1930
  459DG      H510539   2.595   1.697   3.469 -0.3893  0.0650  1.1685
  459DG      H610540   2.413   2.338   4.081 -0.5650 -2.0935  1.4917
  459DG      H710541   2.517   2.205   4.119  1.8362 -0.2083 -1.4942
  459DG      H810542   2.576   2.377   4.134 -0.1276 -0.3711  0.0834
  459DG      O910543   2.651   1.889   3.491  0.0817 -0.2104  0.4101
  459DG     O1010544   2.562   2.301   3.944 -0.1768  0.1281  0.0559
  459DG     C1110545   2.626   2.023   3.455  0.4156 -0.3282 -0.3542
  459DG     C1210546   2.678   2.220   3.915 -0.9451  0.3636  0.4576
  459DG     H1310547   2.520   2.049   3.446  0.8457  1.4328 -0.6199
  459DG     H1410548   2.682   2.046   3.365  4.0620  0.8315  2.0045
  459DG     H1510549   2.663   2.115   3.940  2.3069 -0.3315 -0.0825
  459DG     H1610550   2.760   2.257   3.977 -2.0227 -1.4610  3.2004
  459DG     C1710551   2.704   2.119   3.552  0.0487 -0.2489 -0.7570
  459DG     C1810552   2.713   2.216   3.766 -0.1191 -0.2606  0.2917
  459DG     O1910553   2.640   2.127   3.684 -0.4804 -0.7329  0.2633
  459DG     H2010554   2.712   2.220   3.511  0.8619 -0.2625 -0.6438
  459DG     H2110555   2.804   2.077   3.557  0.0130 -0.2034  2.0324
  459DG     H2210556   2.715   2.314   3.718 -0.7498 -0.4419 -0.1257
  459DG     H2310557   2.815   2.177   3.770  0.2911  0.8142  0.6748
  460DG      C110558   0.685   2.362   2.012 -0.2307 -0.0442  0.0870
  460DG      C210559   0.732   3.076   2.065 -0.1789  0.1686  0.1168
  460DG      H310560   0.683   2.356   2.121  2.9077  1.3732  0.3165
  460DG      H410561   0.787   2.335   1.988  0.6484  0.2296  3.0970
  460DG      H510562   0.624   2.281   1.970  1.3130 -1.3845  0.3057
  460DG      H610563   0.646   3.120   2.116 -1.0231 -1.0260 -0.2224
  460DG      H710564   0.803   3.056   2.145 -1.6540  2.5502  2.1363
  460DG      H810565   0.781   3.152   2.005  2.5761 -1.5257  0.0501
  460DG      O910566   0.654   2.491   1.954 -0.0043 -0.1469 -0.8324
  460DG     O1010567   0.696   2.951   1.990  0.7309 -0.4877  0.2151
  460DG     C1110568   0.697   2.504   1.817 -0.4600  0.3114 -0.3652
  460DG     C1210569   0.657   2.969   1.852 -0.7824 -0.0902  0.1591
  460DG     H1310570   0.659   2.420   1.760  0.7123 -1.2935  1.1150
  460DG     H1410571   0.806   2.501   1.805 -0.3525 -1.4058  0.7424
  460DG     H1510572   0.751   2.982   1.800 -0.2520 -0.3941  1.0125
  460DG     H1610573   0.599   3.061   1.849 -0.1914  0.2467 -1.2321
  460DG     C1710574   0.633   2.624   1.757 -0.5015 -0.7365 -0.2641
  460DG     C1810575   0.585   2.853   1.796  0.0018  0.0637 -0.1018
  460DG     O1910576   0.677   2.745   1.812  0.5252  0.3244  0.0710
  460DG     H2010577   0.528   2.614   1.782 -0.1885  0.0485  1.5887
  460DG     H2110578   0.642   2.634   1.649  3.1657 -0.6876 -0.0772
  460DG     H2210579   0.493   2.835   1.851  1.1095  0.8943  2.1787
  460DG     H2310580   0.561   2.852   1.690  1.7706 -0.2919 -0.5437
  461DG      C110581   5.315   5.048   3.086  0.5334  0.3304  0.5844
  461DG      C210582   5.536   4.947   2.454  0.3481  0.1489 -0.0444
  461DG      H310583   5.404   5.111   3.081 -1.6848  3.6147 -1.3791
  461DG      H410584   5.321   4.958   3.147 -0.6591  1.4623  2.5015
  461DG      H510585   5.231   5.101   3.131  0.8988 -0.3465  2.1399
  461DG      H610586   5.603   4.890   2.519  1.4736  1.4350 -0.0150
  461DG      H710587   5.534   4.898   2.357  0.8270  1.0496 -0.5189
  461DG      H810588   5.586   5.044   2.450  2.3352 -0.7513  1.0721
  461DG      O910589   5.275   5.006   2.954  0.0342  0.3327 -0.6000
  461DG     O1010590   5.409   4.953   2.519 -0.1899  0.6049 -0.0068
  461DG     C1110591   5.190   4.891   2.948  0.2645 -0.0929  0.7531
  461DG     C1210592   5.347   4.830   2.512 -0.5202  0.2561  0.6119
  461DG     H1310593   5.110   4.894   3.023  0.3742  1.6289  0.8455
  461DG     H1410594   5.257   4.809   2.974  1.3514  1.0305  1.5742
  461DG     H1510595   5.407   4.750   2.556  0.1558  0.3506 -0.1128
  461DG     H1610596   5.317   4.798   2.412 -0.3576  0.7971  0.3876
  461DG     C1710597   5.135   4.883   2.808 -0.5150 -0.3507  0.2760
  461DG     C1810598   5.219   4.842   2.593 -0.2074 -0.7659 -0.0657
  461DG     O1910599   5.252   4.890   2.726 -0.3300  0.0945  0.5658
  461DG     H2010600   5.059   4.959   2.789  0.1240  0.1294 -0.4205
  461DG     H2110601   5.099   4.782   2.792  0.5678 -0.4609 -1.7985
  461DG     H2210602   5.158   4.917   2.543 -1.2178 -1.2212  0.4417
  461DG     H2310603   5.161   4.750   2.595 -0.3116 -0.8208 -2.6409
  462DG      C110604   1.808   2.794   2.237  0.0804  0.3529  0.0457
  462DG      C210605   1.442   2.965   1.699  0.1098 -0.5043  0.1452
  462DG      H310606   1.884   2.838   2.302 -0.1593  0.1807  0.4433
  462DG      H410607   1.867   2.733   2.168 -2.7588 -0.5793 -1.7494
  462DG      H510608   1.742   2.729   2.293 -1.9239  0.0574 -2.4604
  462DG      H610609   1.339   2.982   1.667 -0.4377 -0.6785  1.7118
  462DG      H710610   1.508   3.031   1.642 -0.6693 -1.1139 -1.5220
  462DG      H810611   1.465   2.861   1.677 -2.9337 -1.2870  0.2607
  462DG      O910612   1.737   2.891   2.170 -0.5081 -0.3567  0.5294
  462DG     O1010613   1.456   2.989   1.838  1.0944  0.3276  0.3131
  462DG     C1110614   1.640   2.955   2.259 -0.9047  0.2898 -0.0678
  462DG     C1210615   1.413   3.121   1.878 -0.2482  0.5138  0.4766
  462DG     H1310616   1.670   2.983   2.360  1.4998  1.2885 -0.9850
  462DG     H1410617   1.566   2.878   2.279 -0.5851  0.1157  0.4546
  462DG     H1510618   1.304   3.128   1.880 -0.3747 -1.0925  0.5881
  462DG     H1610619   1.458   3.203   1.822 -0.2136  0.2009  0.0373
  462DG     C1710620   1.575   3.080   2.203 -0.8094 -0.7523  0.5567
  462DG     C1810621   1.449   3.148   2.028 -0.5404 -0.3109  0.6573
  462DG     O1910622   1.561   3.069   2.064  0.0302 -0.2526  0.1242
  462DG     H2010623   1.645   3.162   2.222 -2.6593  0.8111  0.9588
  462DG     H2110624   1.484   3.116   2.250 -1.0078  0.8387 -0.9586
  462DG     H2210625   1.475   3.252   2.046  0.8848 -0.4892 -0.1816
  462DG     H2310626   1.361   3.137   2.091  0.6096  1.6960  2.7968
  463DG      C110627   2.743   3.854   2.076 -0.4768  0.4572 -0.0130
  463DG      C210628   2.537   3.399   2.408 -0.0639 -0.1792 -0.1448
  463DG      H310629   2.804   3.909   2.149  2.5662 -1.8146 -0.6326
  463DG      H410630   2.641   3.891   2.074 -1.0381 -1.0952 -1.0766
  463DG      H510631   2.780   3.868   1.975 -2.6783 -1.8171 -1.2302
  463DG      H610632   2.564   3.351   2.314  3.8223  1.3762 -0.0099
  463DG      H710633   2.482   3.324   2.463  1.6061 -1.4508 -0.1372
  463DG      H810634   2.468   3.482   2.387 -1.1410 -0.2795  2.6521
  463DG      O910635   2.736   3.713   2.109 -0.3785  0.1648 -0.7734
  463DG     O1010636   2.650   3.457   2.475  0.1445 -0.2695 -0.2530
  463DG     C1110637   2.860   3.655   2.071 -0.1875 -0.7993 -0.5840
  463DG     C1210638   2.769   3.377   2.463 -0.7321  0.8049  0.5287
  463DG     H1310639   2.952   3.712   2.080  1.0011 -2.0876 -3.2147
  463DG     H1410640   2.846   3.644   1.963  0.4417  0.8561 -0.8599
  463DG     H1510641   2.760   3.273   2.494  1.5321  0.7974  1.3788
  463DG     H1610642   2.833   3.419   2.540  0.5670 -0.8829  0.4422
  463DG     C1710643   2.870   3.507   2.130  0.4520 -0.6177 -0.4335
  463DG     C1810644   2.834   3.371   2.325  0.6258 -0.0021 -0.1327
  463DG     O1910645   2.819   3.501   2.265  0.3557 -0.1162  0.6990
  463DG     H2010646   2.975   3.476   2.121  0.2062 -1.1688 -1.6416
  463DG     H2110647   2.803   3.448   2.068 -3.0268  2.4214  0.0856
  463DG     H2210648   2.941   3.352   2.333  0.8884  0.9680 -1.0926
  463DG     H2310649   2.792   3.291   2.265 -1.7457  1.7265 -0.9408
  464DG      C110650   3.482   0.433   0.510  0.3198  0.0863 -0.0891
  464DG      C210651   3.580   1.233   0.729 -0.5610  0.1927  0.4940
  464DG      H310652   3.499   0.414   0.404 -0.7374  0.8256 -0.4112
  464DG      H410653   3.376   0.431   0.532  0.6259 -0.8026  1.4483
  464DG      H510654   3.525   0.353   0.570  1.0469 -0.1751 -0.9428
  464DG      H610655   3.478   1.265   0.707 -0.9192 -2.2442 -1.9077
  464DG      H710656   3.592   1.167   0.815  0.5902  1.5934  1.4755
  464DG      H810657   3.640   1.308   0.780 -0.9812 -0.1854  1.5712
  464DG      O910658   3.547   0.553   0.547  0.7931  0.4104 -0.2298
  464DG     O1010659   3.643   1.172   0.621 -0.5607  0.0400 -0.2181
  464DG     C1110660   3.524   0.582   0.678 -0.3090  0.5233 -0.1812
  464DG     C1210661   3.580   1.046   0.581  0.2491  0.2680 -0.4108
  464DG     H1310662   3.562   0.504   0.743  0.6928  2.8708  2.2463
  464DG     H1410663   3.421   0.599   0.708 -0.6853  1.8330 -2.0529
  464DG     H1510664   3.618   1.021   0.481 -0.0349 -1.6277 -0.0855
  464DG     H1610665   3.473   1.064   0.571  0.2916 -0.1266 -1.8342
  464DG     C1710666   3.596   0.709   0.720 -0.1928  0.7326  0.0690
  464DG     C1810667   3.617   0.932   0.680  0.1451  1.1680  0.2559
  464DG     O1910668   3.561   0.815   0.637 -0.1244  0.0772 -0.3105
  464DG     H2010669   3.705   0.697   0.720 -0.1349  1.0386  1.5483
  464DG     H2110670   3.569   0.731   0.824  0.6681 -2.4085  1.0569
  464DG     H2210671   3.726   0.925   0.679  0.0887 -1.3615 -2.1992
  464DG     H2310672   3.576   0.954   0.779 -0.7654  1.9934 -0.2936
  465DG      C110673   0.358   0.758   2.969 -0.0285  0.5670  0.0638
  465DG      C210674  -0.358   0.620   2.975  0.4792 -0.7098  0.2315
  465DG      H310675   0.310   0.764   3.067 -0.7989 -1.1157 -0.1739
  465DG      H410676   0.374   0.858   2.927  2.7925 -0.1167 -0.6802
  465DG      H510677   0.458   0.719   2.986  0.4447  1.1905 -1.1254
  465DG      H610678  -0.375   0.654   3.077  1.0307 -0.8378  0.3712
  465DG      H710679  -0.367   0.715   2.921  0.6449 -2.2045 -2.6226
  465DG      H810680  -0.443   0.554   2.958 -1.1213  1.5461 -1.2067
  465DG      O910681   0.280   0.680   2.893 -0.5746  0.1857 -0.1050
  465DG     O1010682  -0.239   0.553   2.941 -0.5934 -0.4006 -0.0501
  465DG     C1110683   0.250   0.545   2.938 -0.4928 -0.7777 -0.1246
  465DG     C1210684  -0.210   0.549   2.800 -0.9280  0.2888 -0.2085
  465DG     H1310685   0.201   0.518   3.032 -0.7435 -0.7152 -0.2371
  465DG     H1410686   0.352   0.506   2.946 -0.5497 -0.5513  2.7417
  465DG     H1510687  -0.211   0.645   2.749 -0.2655 -0.7568 -2.2935
  465DG     H1610688  -0.274   0.480   2.745 -0.0659  0.4596 -1.4750
  465DG     C1710689   0.163   0.482   2.828 -0.6099 -0.2101 -0.3205
  465DG     C1810690  -0.069   0.493   2.770  0.3563  1.0967  0.3090
  465DG     O1910691   0.031   0.539   2.850 -0.4453 -0.0781  0.0889
  465DG     H2010692   0.143   0.377   2.848  0.5296 -0.4498 -0.3862
  465DG     H2110693   0.188   0.493   2.723 -1.2499  2.0314 -0.2901
  465DG     H2210694  -0.069   0.385   2.784  0.2380  1.1342  0.5982
  465DG     H2310695  -0.051   0.489   2.662  1.5354 -0.5849  0.5217
  466DG      C110696   3.552   5.462   1.355  0.6422  0.1919 -0.7405
  466DG      C210697   3.723   5.536   2.120  0.0408 -0.2818  0.4477
  466DG      H310698   3.527   5.356   1.356 -0.8316  0.5147 -0.8151
  466DG      H410699   3.619   5.487   1.273  0.4559  0.1309 -0.9145
  466DG      H510700   3.455   5.507   1.331  1.7395  1.8985 -2.2553
  466DG      H610701   3.686   5.447   2.172 -0.3871  0.0289  0.6750
  466DG      H710702   3.816   5.581   2.155  0.2518 -0.8119  0.5939
  466DG      H810703   3.655   5.620   2.133 -1.2512 -0.3200 -4.1009
  466DG      O910704   3.607   5.504   1.486  0.1475  0.4737 -0.2104
  466DG     O1010705   3.753   5.521   1.982 -0.0662  0.4223  0.6188
  466DG     C1110706   3.586   5.643   1.523 -0.0743  0.0819  0.1399
  466DG     C1210707   3.648   5.474   1.892 -0.4681  0.1539 -0.6321
  466DG     H1310708   3.489   5.685   1.496  0.1472 -0.2457 -1.2329
  466DG     H1410709   3.650   5.700   1.455 -0.8092 -1.0216 -1.5531
  466DG     H1510710   3.565   5.541   1.915  1.0459  1.6058  0.9062
  466DG     H1610711   3.622   5.370   1.911 -0.7445  0.3297 -0.0255
  466DG     C1710712   3.632   5.677   1.662  0.3677 -0.3265 -0.8618
  466DG     C1810713   3.729   5.478   1.762 -0.2198  0.3395  0.3254
  466DG     O1910714   3.747   5.605   1.710  0.0930 -0.3264  0.6290
  466DG     H2010715   3.551   5.674   1.735  1.6901  0.1934  0.6767
  466DG     H2110716   3.655   5.783   1.668 -2.9974  0.4638 -0.3106
  466DG     H2210717   3.820   5.421   1.774  1.0718  1.7398 -2.1145
  466DG     H2310718   3.689   5.418   1.681 -0.7186  0.0052  0.8129
  467DG      C110719   2.018   2.078   1.892  0.1599 -0.8022 -0.9657
  467DG      C210720   1.697   1.714   2.465  0.4236  0.1954 -0.1471
  467DG      H310721   1.984   1.985   1.848 -1.1337 -0.5851 -0.4846
  467DG      H410722   2.124   2.098   1.878  0.3389  0.2123  1.2969
  467DG      H510723   1.972   2.168   1.850  2.9434  1.8516  1.1976
  467DG      H610724   1.801   1.684   2.452 -0.3426 -2.1264 -1.6268
  467DG      H710725   1.658   1.723   2.566  1.8320  1.2922  0.3277
  467DG      H810726   1.634   1.631   2.431 -0.1256  0.9543 -1.0339
  467DG      O910727   1.988   2.096   2.035  0.3360  0.0129 -0.6575
  467DG     O1010728   1.662   1.825   2.388 -0.0169 -0.4173  0.4607
  467DG     C1110729   2.049   1.995   2.113  0.2021  0.3942 -0.3261
  467DG     C1210730   1.703   1.956   2.446 -0.6651  0.5907  0.4646
  467DG     H1310731   2.155   2.000   2.089  0.2189 -0.4034 -0.4350
  467DG     H1410732   2.022   1.895   2.080  0.7245 -0.8960  2.7910
  467DG     H1510733   1.675   1.968   2.550  0.9611  0.2225  0.9767
  467DG     H1610734   1.651   2.027   2.382  0.3987 -0.3989 -1.6052
  467DG     C1710735   2.021   2.000   2.261 -0.6408  0.4689 -0.3683
  467DG     C1810736   1.855   1.977   2.429 -0.1224 -1.0104 -0.2669
  467DG     O1910737   1.889   1.968   2.293  0.5289 -0.5347 -0.0084
  467DG     H2010738   2.057   2.094   2.304 -0.5399  0.4080 -0.3193
  467DG     H2110739   2.087   1.921   2.295 -0.3082  0.9822  0.1971
  467DG     H2210740   1.882   2.066   2.488 -1.2753 -1.0682  0.3742
  467DG     H2310741   1.907   1.897   2.482 -0.7389  0.0419  2.0953
  468DG      C110742   3.304   0.789   3.220  0.9048  0.3212 -0.8708
  468DG      C210743   2.754   0.370   2.907  0.1607  0.1631  0.0567
  468DG      H310744   3.370   0.754   3.300  0.6713 -1.1194 -1.2738
  468DG      H410745   3.211   0.804   3.274  1.6891  2.9504 -0.0975
  468DG      H510746   3.340   0.889   3.195  2.1003 -0.1393 -1.0823
  468DG      H610747   2.803   0.323   2.822  0.3830  1.2745 -0.4532
  468DG      H710748   2.745   0.301   2.991 -1.2228  0.5091  0.2176
  468DG      H810749   2.652   0.399   2.883 -2.0368 -2.6699  4.5921
  468DG      O910750   3.288   0.702   3.105  0.5287 -0.1752 -0.6772
  468DG     O1010751   2.843   0.477   2.941 -0.3413  0.0501  0.2857
  468DG     C1110752   3.224   0.769   3.003 -0.2617 -0.5984  0.2388
  468DG     C1210753   2.803   0.553   3.055 -0.2592 -0.6235 -0.3485
  468DG     H1310754   3.222   0.701   2.917 -1.6666  0.5794 -0.7370
  468DG     H1410755   3.289   0.855   2.986 -2.1285  0.9149  0.3805
  468DG     H1510756   2.830   0.508   3.152  1.2483 -1.4978 -1.1247
  468DG     H1610757   2.696   0.570   3.056 -0.0863  0.5679  0.7318
  468DG     C1710758   3.080   0.799   3.022 -0.1531 -0.7663  0.2374
  468DG     C1810759   2.879   0.680   3.044  0.0845  0.0870  0.5297
  468DG     O1910760   3.024   0.668   3.036 -0.0076 -0.0494 -0.3504
  468DG     H2010761   3.043   0.849   2.932 -2.1737  0.8265  1.8636
  468DG     H2110762   3.055   0.866   3.103 -1.7968  0.0109 -0.8589
  468DG     H2210763   2.847   0.743   2.960 -0.1003  1.4298  1.5715
  468DG     H2310764   2.847   0.745   3.126 -1.3134 -0.9268  0.8166
  469DG      C110765   0.428   4.277   2.058 -0.1234  0.6036  0.2792
  469DG      C210766   0.983   4.553   2.505  0.1872  0.5150  0.3290
  469DG      H310767   0.326   4.312   2.038 -0.2139 -0.1896 -0.7747
  469DG      H410768   0.439   4.171   2.038 -0.5961  0.7611 -0.9429
  469DG      H510769   0.495   4.334   1.994  2.1004 -1.9887  0.1342
  469DG      H610770   0.967   4.661   2.499 -0.8803  0.3525 -0.1016
  469DG      H710771   1.022   4.528   2.603 -1.3360 -2.0034  0.3875
  469DG      H810772   1.060   4.534   2.430  0.5456  0.9342  0.5917
  469DG      O910773   0.460   4.272   2.197  0.2031 -0.1154  0.9088
  469DG     O1010774   0.861   4.481   2.480 -0.3808  0.1944  0.3374
  469DG     C1110775   0.469   4.394   2.260 -0.4570  1.1632  0.1343
  469DG     C1210776   0.883   4.334   2.493  0.4431 -0.1259 -0.3454
  469DG     H1310777   0.372   4.441   2.278 -1.1872 -0.1113 -0.3286
  469DG     H1410778   0.524   4.471   2.206 -0.4899  1.3093  0.3064
  469DG     H1510779   0.927   4.310   2.590  1.5092 -1.6091 -1.1490
  469DG     H1610780   0.963   4.306   2.425  0.9929 -1.1817  0.7008
  469DG     C1710781   0.531   4.364   2.395  0.2587 -0.4563  0.0916
  469DG     C1810782   0.743   4.272   2.471  0.2685  0.3678 -0.1156
  469DG     O1910783   0.668   4.334   2.369  0.1356 -0.5407  0.1816
  469DG     H2010784   0.475   4.287   2.449  1.1179  0.4270  2.3816
  469DG     H2110785   0.529   4.450   2.462  1.4277  0.8330 -1.4613
  469DG     H2210786   0.768   4.170   2.444  1.5230  0.6144  0.0533
  469DG     H2310787   0.687   4.262   2.564 -0.6276 -0.3171 -0.7201
  470DG      C110788   1.075   2.203   2.204  0.1320  0.9915  0.2425
  470DG      C210789   0.813   1.478   1.786  0.1818  0.3338 -0.0811
  470DG      H310790   1.182   2.226   2.196 -0.0501  1.9506  0.4068
  470DG      H410791   1.054   2.155   2.299  0.2244 -0.3055 -0.3782
  470DG      H510792   1.017   2.296   2.202 -0.7188  0.4606 -0.2739
  470DG      H610793   0.831   1.439   1.686 -1.6301  2.6031 -1.3885
  470DG      H710794   0.788   1.390   1.845  0.5338 -1.8759 -3.0099
  470DG      H810795   0.737   1.556   1.786  1.6042  1.7776 -0.8088
  470DG      O910796   1.035   2.113   2.096 -0.5865 -0.2743  0.0799
  470DG     O1010797   0.938   1.533   1.831  0.8768  0.3176  0.0982
  470DG     C1110798   0.902   2.069   2.116  0.2470 -0.0400 -0.0513
  470DG     C1210799   0.933   1.614   1.946 -0.1867  0.9702 -0.4262
  470DG     H1310800   0.836   2.155   2.130 -0.6320 -0.8215  0.7356
  470DG     H1410801   0.903   2.013   2.210  1.0808 -1.1362 -0.6848
  470DG     H1510802   1.031   1.623   1.994 -0.4589  1.6144  0.0203
  470DG     H1610803   0.868   1.565   2.018  3.5436 -3.2640  0.5530
  470DG     C1710804   0.848   1.979   2.002 -0.6812 -0.4705 -0.1672
  470DG     C1810805   0.888   1.759   1.899 -0.4987 -0.3731  0.0893
  470DG     O1910806   0.909   1.845   2.011 -0.4318 -0.4674  0.3419
  470DG     H2010807   0.861   2.018   1.902  1.2608 -0.1392  0.1645
  470DG     H2110808   0.740   1.971   2.013 -0.6495 -2.9640 -0.9820
  470DG     H2210809   0.938   1.802   1.812 -0.6498  1.2607  0.7650
  470DG     H2310810   0.782   1.769   1.875 -0.7191  2.1186  1.6734
  471DG      C110811   4.895   2.740   1.488 -0.1260  0.2300  0.0756
  471DG      C210812   5.149   3.506   1.263  0.1807 -0.0199  0.9706
  471DG      H310813   4.796   2.771   1.522 -0.7631 -0.6316 -0.9366
  471DG      H410814   4.916   2.658   1.557 -2.5820 -1.0732 -0.6491
  471DG      H510815   4.884   2.707   1.385 -1.0297 -1.6271  0.7142
  471DG      H610816   5.219   3.588   1.254 -0.6211  0.7705  1.6706
  471DG      H710817   5.136   3.456   1.167 -1.9799  0.9731  0.6762
  471DG      H810818   5.050   3.541   1.293 -1.4062 -2.5957 -0.8097
  471DG      O910819   4.990   2.840   1.482 -0.0380 -0.3657 -0.2669
  471DG     O1010820   5.197   3.424   1.371  0.1644 -0.6504 -0.0675
  471DG     C1110821   5.034   2.890   1.611 -0.0260  0.1204  0.2102
  471DG     C1210822   5.113   3.308   1.392  0.4259 -0.2421 -0.8303
  471DG     H1310823   5.069   2.815   1.681 -1.3086 -0.0243  0.7224
  471DG     H1410824   4.954   2.945   1.662  1.3202  0.7262  1.7388
  471DG     H1510825   5.103   3.262   1.293 -1.4258  1.1705 -1.3464
  471DG     H1610826   5.018   3.348   1.425  0.9019  1.5177 -1.4955
  471DG     C1710827   5.148   2.990   1.587  0.4476 -1.2281  1.1112
  471DG     C1810828   5.175   3.205   1.490  0.1447  0.6696  0.2241
  471DG     O1910829   5.089   3.091   1.505  0.4503 -0.3501 -0.5348
  471DG     H2010830   5.236   2.949   1.537  0.9751  0.3144  0.6957
  471DG     H2110831   5.179   3.029   1.684 -1.8502 -0.1752  1.4722
  471DG     H2210832   5.273   3.166   1.461 -0.2434 -0.9334  0.9824
  471DG     H2310833   5.179   3.250   1.589  0.6593 -1.8587  1.4330
  472DG      C110834   3.956   2.493   2.158  0.5298  0.0038  0.1813
  472DG      C210835   4.019   1.774   2.318  0.1734 -0.0251  0.3348
  472DG      H310836   3.881   2.439   2.214  0.1973 -0.6557 -0.8760
  472DG      H410837   3.908   2.514   2.063 -2.2691 -1.8118  1.0917
  472DG      H510838   3.975   2.583   2.218  0.8330 -0.0925  0.2325
  472DG      H610839   3.976   1.755   2.416  0.2905  0.4564  0.4857
  472DG      H710840   3.938   1.788   2.246 -0.5374 -1.3663  0.8554
  472DG      H810841   4.087   1.696   2.286  0.5833  0.1916  0.6717
  472DG      O910842   4.064   2.403   2.145  0.5106 -0.7966 -0.4313
  472DG     O1010843   4.082   1.894   2.338  0.2274  0.0066  0.0638
  472DG     C1110844   4.129   2.386   2.267 -0.0797 -0.6963 -0.9505
  472DG     C1210845   4.171   1.916   2.235 -0.9712  0.7131  0.8117
  472DG     H1310846   4.064   2.356   2.350  0.8350  0.4121  0.2137
  472DG     H1410847   4.178   2.481   2.287  1.6872 -1.5622 -0.9382
  472DG     H1510848   4.117   1.898   2.142  1.3613 -1.0299 -0.3266
  472DG     H1610849   4.251   1.842   2.236  0.3170  1.9660 -1.5130
  472DG     C1710850   4.231   2.276   2.250  1.0629  0.0611  0.5839
  472DG     C1810851   4.252   2.047   2.240 -0.2720 -0.2595  0.6360
  472DG     O1910852   4.160   2.153   2.254 -0.0031  0.7966 -0.1322
  472DG     H2010853   4.301   2.271   2.333  0.1573  0.4704  1.3831
  472DG     H2110854   4.277   2.285   2.152  0.1729 -0.3774  0.1078
  472DG     H2210855   4.312   2.057   2.331 -1.3651  1.4225  1.2141
  472DG     H2310856   4.320   2.053   2.155 -0.7758  1.3873  0.3182
  473DG      C110857   1.323   0.173   0.725  0.2282 -0.0672  0.6007
  473DG      C210858   1.435   0.545   0.213 -0.7812 -0.0382 -0.8669
  473DG      H310859   1.391   0.098   0.685  1.2325  0.3719  1.4369
  473DG      H410860   1.278   0.150   0.822 -1.9514  0.2328 -0.2854
  473DG      H510861   1.388   0.257   0.748 -1.9732  1.7602  0.5347
  473DG      H610862   1.511   0.556   0.291 -1.0708 -1.5463 -0.3393
  473DG      H710863   1.482   0.469   0.151 -1.3197 -1.7273  0.7116
  473DG      H810864   1.421   0.636   0.154  1.0274  1.7887  1.2854
  473DG      O910865   1.230   0.217   0.632  0.4699 -0.8965 -0.0724
  473DG     O1010866   1.319   0.483   0.267  0.2196  0.3001 -0.1329
  473DG     C1110867   1.132   0.303   0.691  0.0960  0.0900 -0.9362
  473DG     C1210868   1.227   0.574   0.324  0.5111 -0.0911 -0.6950
  473DG     H1310869   1.174   0.372   0.764 -0.4465 -0.8598  0.3087
  473DG     H1410870   1.069   0.248   0.760 -0.3218 -1.0305 -2.1576
  473DG     H1510871   1.191   0.639   0.244 -1.0992  1.2717  1.0508
  473DG     H1610872   1.280   0.637   0.396 -0.3869 -1.3471  1.1502
  473DG     C1710873   1.059   0.376   0.584  0.5693 -0.1222 -0.3138
  473DG     C1810874   1.108   0.498   0.388  0.1197 -0.0546  0.2837
  473DG     O1910875   1.158   0.429   0.503 -0.1325 -0.3521 -0.4787
  473DG     H2010876   1.007   0.459   0.630  1.6738  0.7023 -0.5014
  473DG     H2110877   1.010   0.310   0.513 -1.6846  0.7779  0.3352
  473DG     H2210878   1.029   0.570   0.412  0.6459  0.4252  0.6207
  473DG     H2310879   1.056   0.424   0.328 -2.2068  1.8622 -0.2671
  474DG      C110880   1.353   0.720   4.456  0.4928  0.2110 -0.2747
  474DG      C210881   1.306   0.594   3.814  0.2597  1.1264 -0.0314
  474DG      H310882   1.306   0.719   4.554  0.9372 -0.0731 -0.0590
  474DG      H410883   1.321   0.813   4.409 -1.9375 -0.6032 -0.3844
  474DG      H510884   1.457   0.714   4.488  0.1005 -0.7153  0.9167
  474DG      H610885   1.312   0.524   3.730 -0.2364  2.0721 -0.8728
  474DG      H710886   1.245   0.681   3.788  1.5943  1.7243 -1.2966
  474DG      H810887   1.407   0.625   3.840  0.7716 -1.2832  1.1699
  474DG      O910888   1.297   0.613   4.383 -0.5285  0.2656  0.4412
  474DG     O1010889   1.240   0.513   3.920 -0.3543 -0.3433  0.0804
  474DG     C1110890   1.153   0.625   4.384  0.2250  1.0640  0.5272
  474DG     C1210891   1.096   0.509   3.920  0.5639  0.4337  0.2347
  474DG     H1310892   1.120   0.727   4.359 -0.0521  0.4949 -1.6892
  474DG     H1410893   1.112   0.610   4.484  0.3314 -0.0261  0.4177
  474DG     H1510894   1.071   0.429   3.851  0.4269  1.1649 -0.5852
  474DG     H1610895   1.055   0.602   3.880  2.0747  0.9515 -0.1642
  474DG     C1710896   1.086   0.523   4.286  0.5248 -0.2471  0.1673
  474DG     C1810897   1.042   0.491   4.065  0.1618 -0.4677  0.9793
  474DG     O1910898   1.134   0.546   4.156 -0.0307 -0.3286  0.2744
  474DG     H2010899   0.979   0.542   4.292  0.7010  0.7565  0.2452
  474DG     H2110900   1.095   0.419   4.319 -0.8581 -0.2105  0.7153
  474DG     H2210901   0.942   0.534   4.072 -0.1578 -1.0236  0.0085
  474DG     H2310902   1.036   0.382   4.070 -2.2217 -0.3773  1.4330
  475DG      C110903   4.690   4.387   3.670 -0.4106  0.1324  0.2979
  475DG      C210904   3.946   4.522   3.552  0.0477 -0.1982 -0.0905
  475DG      H310905   4.785   4.340   3.692  0.6619  1.8623 -0.3995
  475DG      H410906   4.645   4.441   3.754  1.8605  3.7630 -0.5765
  475DG      H510907   4.697   4.460   3.589 -1.7383  0.0684  0.1026
  475DG      H610908   3.969   4.625   3.581 -1.8013  0.2292 -0.0206
  475DG      H710909   3.989   4.515   3.452  0.2096  2.5529 -0.2984
  475DG      H810910   3.839   4.500   3.553 -0.1759  0.7928 -0.7220
  475DG      O910911   4.590   4.297   3.637 -0.0281 -0.5979  0.1254
  475DG     O1010912   4.023   4.425   3.630  0.4433 -0.4660 -0.1617
  475DG     C1110913   4.461   4.352   3.624  0.4895  0.3376  0.4475
  475DG     C1210914   4.035   4.456   3.766 -0.0206 -0.6890  0.3838
  475DG     H1310915   4.409   4.320   3.533 -0.6687  1.5078  0.6794
  475DG     H1410916   4.472   4.460   3.620  1.3194  0.3118  1.5986
  475DG     H1510917   3.940   4.429   3.813 -0.8832 -1.3740 -1.6477
  475DG     H1610918   4.060   4.559   3.788 -1.6465 -0.3713  0.8371
  475DG     C1710919   4.366   4.318   3.739  0.6912  0.2478  0.3827
  475DG     C1810920   4.156   4.375   3.818  0.8337 -0.2006  0.2091
  475DG     O1910921   4.265   4.412   3.742 -0.0793  0.4435  0.3684
  475DG     H2010922   4.417   4.326   3.835  0.9741 -1.4539  0.4024
  475DG     H2110923   4.334   4.214   3.745 -0.8711  0.7611  1.8115
  475DG     H2210924   4.173   4.392   3.924 -0.4736 -1.1081  0.5949
  475DG     H2310925   4.125   4.270   3.809 -2.4670  0.8283 -3.3147
  476DG      C110926   3.300   3.764   3.727 -0.2377  0.5602  1.1709
  476DG      C210927   2.900   4.321   3.892  0.0483  0.1120  0.3273
  476DG      H310928   3.357   3.801   3.812  0.6609  0.8937  0.4341
  476DG      H410929   3.340   3.809   3.636 -1.6557 -1.2847 -0.4537
  476DG      H510930   3.312   3.656   3.714 -0.9932  0.5924 -0.0689
  476DG      H610931   2.927   4.335   3.996 -0.6779  1.3188  0.3694
  476DG      H710932   2.977   4.379   3.842 -1.4155  1.4952 -0.3993
  476DG      H810933   2.802   4.360   3.864 -0.5872 -2.4494 -1.4285
  476DG      O910934   3.162   3.791   3.762  0.4669 -0.1249  0.4101
  476DG     O1010935   2.919   4.188   3.850 -0.1104  0.0486  0.0095
  476DG     C1110936   3.068   3.768   3.662  0.4649  0.1237 -0.0121
  476DG     C1210937   2.833   4.097   3.918  0.4847  0.1512 -0.8815
  476DG     H1310938   3.083   3.666   3.627  0.8656  0.2411 -0.1856
  476DG     H1410939   3.079   3.839   3.580  1.1024  0.1491  0.0885
  476DG     H1510940   2.731   4.135   3.928 -0.0503 -1.4035 -0.1569
  476DG     H1610941   2.861   4.078   4.022 -0.8169  1.2160 -0.3045
  476DG     C1710942   2.931   3.791   3.741 -0.1448 -0.3212  0.1178
  476DG     C1810943   2.813   3.965   3.843 -0.0244  0.5864 -0.3574
  476DG     O1910944   2.941   3.923   3.786  0.0063 -1.2320  0.0899
  476DG     H2010945   2.923   3.733   3.832  0.6925 -1.1621 -0.3162
  476DG     H2110946   2.846   3.763   3.680 -0.6831  1.2253  0.0953
  476DG     H2210947   2.787   3.899   3.926  2.2262 -1.5337 -1.2253
  476DG     H2310948   2.735   3.959   3.767 -2.2468 -0.8695  1.8536
  477DG      C110949   4.920   1.473   0.532  0.5445 -0.4152 -0.1080
  477DG      C210950   5.241   0.891   0.289  0.7809 -0.0371 -0.1429
  477DG      H310951   4.958   1.543   0.459  0.6479 -1.3652 -0.9768
  477DG      H410952   4.869   1.525   0.614  0.2319 -2.5270  1.1033
  477DG      H510953   4.846   1.413   0.479  0.5234 -0.0467 -0.5010
  477DG      H610954   5.327   0.825   0.299 -0.7352 -2.0198  0.3737
  477DG      H710955   5.169   0.809   0.287  0.6808 -0.0117  1.2639
  477DG      H810956   5.244   0.946   0.195 -2.4158 -0.8706 -0.8562
  477DG      O910957   5.027   1.395   0.587 -0.0714 -0.2209  0.0467
  477DG     O1010958   5.223   0.965   0.416  0.0090  0.1544 -0.2785
  477DG     C1110959   4.988   1.283   0.666  0.0409  0.3018 -0.1389
  477DG     C1210960   5.339   1.036   0.449  0.3243  0.2875  0.4357
  477DG     H1310961   4.924   1.220   0.604  1.3285 -0.8407 -0.3569
  477DG     H1410962   4.943   1.308   0.762  0.8945  0.1098  0.3267
  477DG     H1510963   5.359   1.104   0.367 -1.7836  0.4751  0.0252
  477DG     H1610964   5.418   0.961   0.457 -0.3511 -0.3679  1.1890
  477DG     C1710965   5.118   1.205   0.693 -0.2830 -0.7727 -0.2992
  477DG     C1810966   5.320   1.110   0.586  0.6666  0.3059 -0.1688
  477DG     O1910967   5.195   1.182   0.575  0.4253 -0.8144 -0.5635
  477DG     H2010968   5.082   1.114   0.741 -2.9029  0.0851 -0.4560
  477DG     H2110969   5.178   1.262   0.764 -0.8742  0.9042 -1.0888
  477DG     H2210970   5.314   1.035   0.664  0.8850 -1.0276 -1.3898
  477DG     H2310971   5.407   1.166   0.619  2.0705 -2.0527  0.3047
  478DG      C110972   4.979   3.161   2.662 -0.2673  0.0840  0.6179
  478DG      C210973   5.502   2.828   2.411 -0.3265 -0.2924 -0.0196
  478DG      H310974   5.073   3.196   2.703  1.6172 -2.1674 -1.4470
  478DG      H410975   4.917   3.113   2.737  0.3441 -2.1201 -0.2184
  478DG      H510976   4.926   3.248   2.622 -0.6282  0.0407  1.0032
  478DG      H610977   5.521   2.934   2.398 -1.9779 -0.2572 -3.3076
  478DG      H710978   5.540   2.798   2.509  0.0400  1.1832  0.3131
  478DG      H810979   5.566   2.765   2.350  0.5956 -0.4350  1.0534
  478DG      O910980   5.024   3.055   2.568  0.2249 -0.0855  0.4147
  478DG     O1010981   5.359   2.801   2.405 -0.3967 -0.1428  0.4390
  478DG     C1110982   4.917   3.010   2.490 -0.4653  0.2285 -0.0952
  478DG     C1210983   5.304   2.841   2.283  0.2908  0.3164  0.4491
  478DG     H1310984   4.883   3.095   2.431  0.5182  1.2928  0.8188
  478DG     H1410985   4.837   2.977   2.556 -0.8342 -0.9845 -1.0891
  478DG     H1510986   5.349   2.782   2.204 -0.3671  0.2371  0.1243
  478DG     H1610987   5.325   2.945   2.255  2.2651 -0.4520 -1.2093
  478DG     C1710988   4.963   2.889   2.406 -0.2773 -0.4648 -0.9973
  478DG     C1810989   5.155   2.820   2.284  0.1218 -0.4689  0.2574
  478DG     O1910990   5.099   2.896   2.388 -1.0869  0.1097  0.0284
  478DG     H2010991   4.909   2.904   2.312 -0.9625  0.4110 -0.4757
  478DG     H2110992   4.941   2.794   2.455  1.1532 -0.8765 -1.1122
  478DG     H2210993   5.112   2.852   2.189 -3.3768 -3.4009  0.6055
  478DG     H2310994   5.130   2.714   2.278  0.8114 -0.6479  0.4751
  479DG      C110995   4.694   3.774   3.876  0.0021 -0.5263  0.0169
  479DG      C210996   4.011   4.141   4.117  0.3121 -0.3187  0.6522
  479DG      H310997   4.639   3.697   3.823  0.6298 -0.1093 -1.2733
  479DG      H410998   4.796   3.738   3.888 -0.0889 -0.4765  1.0830
  479DG      H510999   4.702   3.857   3.806  0.2225  0.4458  1.1519
  479DG      H611000   3.943   4.198   4.182  0.2626 -1.8166  1.9827
  479DG      H711001   3.981   4.136   4.013  0.2949 -0.7489  0.6774
  479DG      H811002   4.005   4.038   4.153  1.6016 -1.0853 -1.1909
  479DG      O911003   4.630   3.826   3.993  0.6348 -0.2938  0.0283
  479DG     O1011004   4.138   4.204   4.100 -0.4109  0.0670 -0.3217
  479DG     C1111005   4.502   3.878   3.972  0.3224 -0.6607  0.1474
  479DG     C1211006   4.228   4.196   4.209 -0.2326  0.6154 -0.1840
  479DG     H1311007   4.435   3.805   3.927  1.7082 -1.0925 -1.2635
  479DG     H1411008   4.510   3.970   3.913  0.0252 -0.6240  0.1599
  479DG     H1511009   4.179   4.233   4.299 -0.6871 -1.9176  0.6936
  479DG     H1611010   4.310   4.263   4.180  0.0429 -0.4955 -2.1753
  479DG     C1711011   4.437   3.922   4.113 -0.1725  0.6323 -0.5310
  479DG     C1811012   4.289   4.057   4.221  0.8325  0.3470 -0.7627
  479DG     O1911013   4.333   4.011   4.095 -0.3176 -0.5043 -0.1080
  479DG     H2011014   4.516   3.958   4.179 -1.0876 -1.2394  1.7081
  479DG     H2111015   4.389   3.840   4.165  1.0234 -0.7020 -1.4444
  479DG     H2211016   4.371   4.055   4.293 -0.1440 -2.2602  0.4149
  479DG     H2311017   4.219   3.981   4.258  0.0429  2.5354  2.6551
  480DG      C111018   5.086   4.560   4.674  0.0875 -0.9049  0.2967
  480DG      C211019   4.321   4.578   5.034  0.4007 -0.4214  0.3934
  480DG      H311020   5.096   4.522   4.776 -1.0841 -0.6928  0.4983
  480DG      H411021   5.100   4.668   4.674  0.2860 -0.9084 -1.2756
  480DG      H511022   5.166   4.509   4.620 -0.4108 -1.1103 -0.2488
  480DG      H611023   4.250   4.639   4.978 -0.7920 -2.9047 -1.0019
  480DG      H711024   4.273   4.481   5.047 -0.1510 -0.0658  1.0850
  480DG      H811025   4.336   4.621   5.133  1.9849  0.0280 -0.0104
  480DG      O911026   4.955   4.520   4.623 -0.1016 -0.1927  0.0813
  480DG     O1011027   4.444   4.558   4.966 -0.5946  0.1736  0.3455
  480DG     C1111028   4.847   4.597   4.669 -0.4196  0.5399 -0.1274
  480DG     C1211029   4.529   4.671   4.966 -0.6031 -0.8559 -0.1200
  480DG     H1311030   4.827   4.672   4.593 -1.1837  2.2550  1.6657
  480DG     H1411031   4.878   4.659   4.753 -1.1286  1.4356 -0.5059
  480DG     H1511032   4.545   4.712   5.066 -2.8009  1.4640 -0.6133
  480DG     H1611033   4.484   4.753   4.910 -1.0547 -1.8956 -1.3315
  480DG     C1711034   4.719   4.519   4.696  0.5562  0.4673 -0.1243
  480DG     C1811035   4.658   4.632   4.895  0.1201 -0.5426 -0.0839
  480DG     O1911036   4.626   4.593   4.759 -0.2603 -0.5370 -0.2769
  480DG     H2011037   4.730   4.425   4.751 -1.5739 -0.3151 -0.9318
  480DG     H2111038   4.676   4.492   4.600 -0.0671  1.1677 -0.0513
  480DG     H2211039   4.725   4.718   4.890 -1.6622  0.9562  0.7147
  480DG     H2311040   4.685   4.539   4.945 -1.0799 -0.7124  0.2731
  481DG      C111041   0.610   3.485   2.046  0.1467  0.3507 -0.4229
  481DG      C211042   1.350   3.506   2.256  0.3182 -0.4346 -0.0190
  481DG      H311043   0.525   3.450   1.988  0.2710  0.7012 -0.8192
  481DG      H411044   0.603   3.594   2.039  2.6737  0.4973 -2.0482
  481DG      H511045   0.602   3.447   2.148 -0.3731  0.2620 -0.4929
  481DG      H611046   1.424   3.585   2.245  1.5103 -1.4707  0.3818
  481DG      H711047   1.255   3.560   2.264  0.3926 -0.1433 -0.9899
  481DG      H811048   1.368   3.446   2.345 -2.5426 -1.4312 -0.0137
  481DG      O911049   0.731   3.455   1.974  0.6466  0.0447 -0.4334
  481DG     O1011050   1.358   3.423   2.142  0.2375  0.1676  0.6466
  481DG     C1111051   0.845   3.471   2.049  0.7736 -0.5713 -0.4021
  481DG     C1211052   1.340   3.490   2.019 -0.6093  0.1812  1.0376
  481DG     H1311053   0.845   3.400   2.132  0.6684 -0.2634 -0.1342
  481DG     H1411054   0.847   3.573   2.087  0.8689  0.2592 -2.4978
  481DG     H1511055   1.428   3.459   1.962  0.5607  2.6061  1.4016
  481DG     H1611056   1.364   3.596   2.017  0.5694 -0.0083 -2.5522
  481DG     C1711057   0.979   3.435   1.967  0.2055 -0.7824 -0.0776
  481DG     C1811058   1.216   3.444   1.945 -0.1631 -0.3424  0.1052
  481DG     O1911059   1.102   3.475   2.021 -0.0800  0.5173  0.1800
  481DG     H2011060   0.974   3.480   1.868 -1.2873 -0.8818 -0.0724
  481DG     H2111061   0.974   3.327   1.952 -1.9156 -0.7955  0.3915
  481DG     H2211062   1.206   3.503   1.854 -3.0112 -0.8334  0.0182
  481DG     H2311063   1.218   3.336   1.926 -0.6787 -0.3878  0.3034
  482DG      C111064   5.330   0.083   2.314 -0.1373  0.0239 -0.0107
  482DG      C211065   5.730  -0.210   1.888 -0.0483 -0.0406 -0.3830
  482DG      H311066   5.361   0.146   2.231 -2.6276  1.8002  0.3283
  482DG      H411067   5.376   0.133   2.399  0.4500 -1.7604  0.7919
  482DG      H511068   5.224   0.105   2.324 -0.7034 -2.3319 -0.1899
  482DG      H611069   5.743  -0.313   1.854 -0.2455 -0.4315  0.6827
  482DG      H711070   5.686  -0.153   1.807 -1.9012 -0.8149  0.0248
  482DG      H811071   5.825  -0.164   1.918  0.0652  1.5290 -2.8634
  482DG      O911072   5.363  -0.055   2.314  0.7130 -0.1719  0.0343
  482DG     O1011073   5.636  -0.220   2.005  0.1460  0.2604 -0.1819
  482DG     C1111074   5.490  -0.095   2.277 -0.5536  0.6694  0.1592
  482DG     C1211075   5.520  -0.302   1.971  0.5693 -0.0865  0.3732
  482DG     H1311076   5.570  -0.044   2.331 -0.2183  2.7295 -2.0942
  482DG     H1411077   5.511  -0.050   2.180  0.1868 -0.8633 -0.4191
  482DG     H1511078   5.550  -0.405   1.993  1.0878 -0.3459 -1.3965
  482DG     H1611079   5.488  -0.298   1.867  0.2560 -0.8267  0.4334
  482DG     C1711080   5.505  -0.249   2.275 -0.7223 -0.1821 -0.2712
  482DG     C1811081   5.394  -0.273   2.059 -0.6207 -0.1044  0.3935
  482DG     O1911082   5.420  -0.319   2.191 -0.1469 -0.0688  0.2122
  482DG     H2011083   5.494  -0.282   2.378 -2.4864 -1.2097 -0.7536
  482DG     H2111084   5.610  -0.258   2.247 -0.9891  0.7241 -1.6668
  482DG     H2211085   5.359  -0.171   2.044 -1.7908 -0.8046 -2.3059
  482DG     H2311086   5.307  -0.329   2.025 -0.6882  0.2337  0.0053
  483DG      C111087   2.340   1.278   3.968  0.1161  0.3335  0.2335
  483DG      C211088   1.993   1.168   3.754  0.1717 -0.4815 -0.6705
  483DG      H311089   2.418   1.340   3.924  0.9331 -0.2256  0.8464
  483DG      H411090   2.243   1.326   3.957 -0.6133 -0.9952  0.5778
  483DG      H511091   2.332   1.194   3.899 -1.2390 -0.2645  1.0796
  483DG      H611092   1.977   1.237   3.671 -2.7390  0.0289  0.1766
  483DG      H711093   2.097   1.182   3.785 -0.8735 -0.7873  3.6151
  483DG      H811094   1.975   1.074   3.702 -4.5428 -0.0865 -0.1967
  483DG      O911095   2.372   1.253   4.103  0.4159 -0.2041  0.0856
  483DG     O1011096   1.891   1.229   3.833 -0.5286 -0.0970  0.3462
  483DG     C1111097   2.262   1.205   4.186  0.4333  0.4260 -0.3949
  483DG     C1211098   1.868   1.157   3.952  0.5945 -0.4536 -0.5116
  483DG     H1311099   2.201   1.290   4.215 -0.9938 -0.9184  0.7281
  483DG     H1411100   2.309   1.167   4.277  2.9429  1.0088 -1.3807
  483DG     H1511101   1.855   1.050   3.936 -1.0214 -0.4461  0.5443
  483DG     H1611102   1.769   1.171   3.994  1.4067 -0.0580  1.3629
  483DG     C1711103   2.181   1.084   4.132 -0.3516 -0.2335  0.2777
  483DG     C1811104   1.975   1.181   4.063  0.5392  0.2081 -0.3505
  483DG     O1911105   2.091   1.108   4.027 -0.3082 -0.1113 -0.2982
  483DG     H2011106   2.131   1.041   4.219  0.5912 -2.6584 -0.3044
  483DG     H2111107   2.251   1.018   4.081  2.2858  1.0267  2.0342
  483DG     H2211108   1.998   1.285   4.088  3.0164 -1.0455  3.5003
  483DG     H2311109   1.940   1.141   4.158  0.4941 -0.7585 -0.7684
  484DG      C111110   5.221   0.451   4.932  0.5774 -0.3691 -0.3010
  484DG      C211111   4.695   0.920   4.854 -0.5279  0.0426 -0.7236
  484DG      H311112   5.255   0.494   4.838  3.1171  0.0015  0.7153
  484DG      H411113   5.240   0.344   4.919 -0.9863 -0.5259 -1.6525
  484DG      H511114   5.282   0.493   5.011 -1.6450  1.5266  0.5469
  484DG      H611115   4.587   0.919   4.868 -0.9021  0.7556 -3.0968
  484DG      H711116   4.736   1.015   4.886  0.1480 -0.8773  1.3220
  484DG      H811117   4.706   0.910   4.746  3.1578  1.8081 -0.6568
  484DG      O911118   5.081   0.493   4.953  0.1537 -0.2591 -0.0818
  484DG     O1011119   4.753   0.807   4.924 -0.6085  0.0372 -0.3053
  484DG     C1111120   5.024   0.444   5.069  0.6205 -0.0418  0.5469
  484DG     C1211121   4.734   0.817   5.067 -0.4662  0.3182 -0.3439
  484DG     H1311122   5.089   0.470   5.152  1.6190 -0.3911 -0.1156
  484DG     H1411123   5.017   0.336   5.054 -1.3662  0.3098 -1.7948
  484DG     H1511124   4.639   0.864   5.094 -1.5390 -0.3752 -2.6559
  484DG     H1611125   4.812   0.878   5.112 -1.2045  0.7910  0.3360
  484DG     C1711126   4.882   0.485   5.103  1.0497 -0.0742  0.1787
  484DG     C1811127   4.742   0.674   5.107 -1.2463  0.5188 -0.8344
  484DG     O1911128   4.868   0.624   5.073 -0.5381 -0.3726  0.5667
  484DG     H2011129   4.852   0.462   5.205 -1.6341 -1.5796 -0.8391
  484DG     H2111130   4.807   0.442   5.036  1.7327  1.5788 -1.7515
  484DG     H2211131   4.733   0.660   5.215  0.3678  0.2932 -0.7085
  484DG     H2311132   4.676   0.610   5.048  2.2403 -2.1539 -2.1857
  485DG      C111133   1.445   1.436   0.867  0.1865  0.2095 -0.4195
  485DG      C211134   1.518   1.718   0.248  0.0996 -0.4021  0.5811
  485DG      H311135   1.512   1.517   0.896 -0.5948 -0.0908  2.4664
  485DG      H411136   1.508   1.347   0.858  1.0067  0.7053  0.1867
  485DG      H511137   1.374   1.402   0.942 -1.0114 -1.5258 -2.2406
  485DG      H611138   1.509   1.684   0.144 -0.2959  1.3533  0.0091
  485DG      H711139   1.448   1.800   0.231 -1.7377 -2.2924 -1.7861
  485DG      H811140   1.622   1.737   0.273  0.4799  0.3919 -1.3766
  485DG      O911141   1.382   1.464   0.749  0.4599 -0.0949 -0.7092
  485DG     O1011142   1.453   1.628   0.335 -0.0505 -0.4710  0.1824
  485DG     C1111143   1.307   1.357   0.707  0.0624 -0.5986 -0.4777
  485DG     C1211144   1.335   1.560   0.279 -0.2750  0.4636  0.0913
  485DG     H1311145   1.248   1.314   0.787 -0.7757 -0.3942 -0.9701
  485DG     H1411146   1.377   1.287   0.662  0.5853 -1.1184  1.0828
  485DG     H1511147   1.364   1.477   0.215 -0.3674 -1.2341  2.1367
  485DG     H1611148   1.278   1.632   0.220  0.8441 -0.7523 -2.6030
  485DG     C1711149   1.218   1.403   0.594 -0.0055 -0.4738 -0.0955
  485DG     C1811150   1.237   1.514   0.386 -0.5455  0.8324  1.1332
  485DG     O1911151   1.308   1.466   0.501  0.2066  0.4815  0.6757
  485DG     H2011152   1.148   1.478   0.632  2.0531 -0.5657  4.4767
  485DG     H2111153   1.158   1.329   0.543 -3.7652  2.0964  0.1577
  485DG     H2211154   1.186   1.604   0.420  0.1298  1.4237  0.6188
  485DG     H2311155   1.179   1.433   0.341  0.2190  0.6732  0.4074
  486DG      C111156   3.930   4.189   3.263  0.3670 -0.3197 -0.9446
  486DG      C211157   4.160   3.811   3.814 -0.0736  0.4661  0.0416
  486DG      H311158   3.946   4.240   3.168  0.2643 -0.9334 -1.3023
  486DG      H411159   3.894   4.258   3.338  0.9532 -1.3612  0.3286
  486DG      H511160   3.840   4.127   3.258 -0.6982  1.2597 -3.2350
  486DG      H611161   4.059   3.781   3.842  0.5955  0.6269  3.0121
  486DG      H711162   4.223   3.722   3.821  0.6033  1.0042  1.1030
  486DG      H811163   4.181   3.872   3.902  0.5111 -0.9798  0.9600
  486DG      O911164   4.038   4.108   3.300  0.7553  0.1771  0.3428
  486DG     O1011165   4.185   3.876   3.686  0.3853 -0.4229 -0.2297
  486DG     C1111166   4.159   4.176   3.297 -0.0858  0.4215 -0.4238
  486DG     C1211167   4.325   3.903   3.660 -0.5500 -0.5879 -0.4468
  486DG     H1311168   4.169   4.267   3.356 -1.8033 -0.8421  1.9780
  486DG     H1411169   4.187   4.204   3.195  0.6070 -1.6153 -0.8286
  486DG     H1511170   4.376   3.811   3.689  0.1621  0.0707  0.4486
  486DG     H1611171   4.375   3.975   3.725  0.8207 -1.0788 -0.9196
  486DG     C1711172   4.271   4.081   3.340 -0.0365 -0.6594 -0.7289
  486DG     C1811173   4.346   3.931   3.507  0.2690 -0.3966  0.0672
  486DG     O1911174   4.248   4.025   3.470 -0.3667 -0.4000 -1.1061
  486DG     H2011175   4.367   4.132   3.335 -0.3911 -0.0535 -1.4250
  486DG     H2111176   4.290   3.997   3.273  2.8708  0.3382 -1.2524
  486DG     H2211177   4.446   3.974   3.495  0.7457 -0.7663  2.3015
  486DG     H2311178   4.335   3.840   3.449  1.5246  0.3190 -1.3676
  487DG      C111179   4.370   2.110   3.809 -0.1996  0.4028 -0.0743
  487DG      C211180   4.903   2.469   3.365  0.3169 -0.4318  0.4023
  487DG      H311181   4.274   2.156   3.830  0.2663  2.0415 -1.3220
  487DG      H411182   4.439   2.132   3.891 -1.3508 -0.1985  1.0842
  487DG      H511183   4.349   2.004   3.813  1.6357  0.0252  2.1380
  487DG      H611184   4.923   2.519   3.271  3.3583  0.4477  1.4058
  487DG      H711185   4.935   2.547   3.435 -0.6498  1.6217 -1.3289
  487DG      H811186   4.974   2.390   3.390  1.6437  0.9126  1.0559
  487DG      O911187   4.415   2.148   3.680 -0.0177 -0.5059  0.3417
  487DG     O1011188   4.774   2.418   3.381 -0.3401  0.8036 -0.7521
  487DG     C1111189   4.547   2.096   3.643 -0.3122  0.1977  0.1022
  487DG     C1211190   4.745   2.310   3.288 -0.1378 -0.2823  0.2064
  487DG     H1311191   4.560   2.001   3.695 -0.9522  0.5815  0.9777
  487DG     H1411192   4.626   2.153   3.691  1.9439 -2.0924 -0.5939
  487DG     H1511193   4.813   2.229   3.314 -2.0128 -1.0011  3.4771
  487DG     H1611194   4.766   2.347   3.187  0.7428  1.8724  1.1198
  487DG     C1711195   4.569   2.091   3.490  0.2288 -0.1225  0.0682
  487DG     C1811196   4.597   2.254   3.307  0.0893 -0.2997 -0.5549
  487DG     O1911197   4.573   2.229   3.446 -0.3431 -0.0302 -0.0899
  487DG     H2011198   4.487   2.041   3.439  0.0413  0.4327 -0.1718
  487DG     H2111199   4.656   2.033   3.456 -1.3101 -2.8698  0.5044
  487DG     H2211200   4.531   2.336   3.279  0.6220  0.3166 -0.0427
  487DG     H2311201   4.581   2.172   3.236  1.7635  0.6058 -2.0713
  488DG      C111202   4.732   0.149   3.230 -0.4304 -0.6389  0.3116
  488DG      C211203   4.394   0.661   3.185 -0.3985 -0.1733  0.3417
  488DG      H311204   4.646   0.090   3.263 -1.5507  1.6611  1.7972
  488DG      H411205   4.772   0.200   3.317  0.3680 -0.6561 -0.0379
  488DG      H511206   4.807   0.093   3.174 -0.5957  1.7251 -2.5383
  488DG      H611207   4.496   0.664   3.221 -0.5076  0.2585  0.6172
  488DG      H711208   4.356   0.760   3.162  2.1809  1.0433  0.9559
  488DG      H811209   4.336   0.613   3.264 -1.4479 -1.3284 -1.0648
  488DG      O911210   4.687   0.248   3.141  0.3041 -0.0429 -0.4120
  488DG     O1011211   4.377   0.573   3.077 -0.5875 -0.1018  0.1152
  488DG     C1111212   4.788   0.338   3.091 -0.3323  0.5564  0.6817
  488DG     C1211213   4.425   0.623   2.952 -0.1546 -0.0222  0.0029
  488DG     H1311214   4.881   0.290   3.060 -0.8731 -0.6178  0.8686
  488DG     H1411215   4.815   0.393   3.182  0.7607  1.5116 -0.1707
  488DG     H1511216   4.398   0.725   2.925 -0.5427  0.5034  2.1811
  488DG     H1611217   4.386   0.559   2.873  3.1859 -0.8640 -1.1314
  488DG     C1711218   4.735   0.420   2.979 -0.7709 -0.6857  0.2974
  488DG     C1811219   4.576   0.598   2.953 -0.3080  0.1906 -0.5075
  488DG     O1911220   4.609   0.469   3.007  0.8632 -0.1525  0.1389
  488DG     H2011221   4.736   0.371   2.881  0.9722  2.1483 -1.2509
  488DG     H2111222   4.803   0.505   2.964 -0.6254 -0.6100  1.3434
  488DG     H2211223   4.599   0.602   2.846  0.0908  0.7706 -0.4051
  488DG     H2311224   4.626   0.682   3.002 -1.4315  2.0416 -2.3311
  489DG      C111225   1.435   3.094   1.024 -0.1333  0.6259  0.7493
  489DG      C211226   1.609   3.714   1.623 -0.0471  0.2580  0.0325
  489DG      H311227   1.497   3.020   1.073 -2.4483 -1.0025  1.4015
  489DG      H411228   1.508   3.145   0.962 -0.9442  0.0970 -0.6902
  489DG      H511229   1.368   3.046   0.953  0.9970 -0.5930  0.4670
  489DG      H611230   1.673   3.783   1.567 -0.6231  0.6712 -0.1328
  489DG      H711231   1.533   3.768   1.680 -0.0659  0.9234 -0.6022
  489DG      H811232   1.675   3.664   1.693 -1.6936 -0.3819  1.1784
  489DG      O911233   1.362   3.175   1.116 -0.3416  0.1929 -0.0734
  489DG     O1011234   1.558   3.617   1.530  0.6136 -0.2992 -0.9389
  489DG     C1111235   1.448   3.229   1.219 -0.1147 -0.3317  0.3370
  489DG     C1211236   1.451   3.538   1.597 -0.7178 -0.8309 -0.2731
  489DG     H1311237   1.512   3.308   1.180 -0.6099 -0.5844 -1.0526
  489DG     H1411238   1.523   3.157   1.251  1.3714  1.8853  2.1323
  489DG     H1511239   1.377   3.603   1.642  0.1108 -0.2445  0.2655
  489DG     H1611240   1.485   3.464   1.671  1.3994  0.5766  0.2469
  489DG     C1711241   1.364   3.294   1.332 -0.0222  0.3916  0.5253
  489DG     C1811242   1.370   3.467   1.493  0.7965  0.1187  0.0505
  489DG     O1911243   1.448   3.373   1.416  0.2039  0.9770 -0.5413
  489DG     H2011244   1.299   3.228   1.389 -1.3380  1.5502  0.4247
  489DG     H2111245   1.291   3.358   1.281 -0.3898  0.3416  0.9876
  489DG     H2211246   1.290   3.419   1.548  0.2095 -0.9859 -1.7232
  489DG     H2311247   1.309   3.526   1.425  0.4018 -1.8436 -1.3605
  490DG      C111248   4.916   0.532   1.401  0.0038  0.0146 -0.1565
  490DG      C211249   4.585   0.380   2.037 -0.2059  0.3714 -0.0842
  490DG      H311250   4.855   0.622   1.391 -1.1257 -0.8858 -1.9095
  490DG      H411251   4.967   0.519   1.306 -0.2280 -2.8894  0.0183
  490DG      H511252   4.988   0.564   1.476 -0.1810  0.0721 -0.0039
  490DG      H611253   4.679   0.365   2.091 -0.4022 -0.0942  0.1354
  490DG      H711254   4.542   0.474   2.074 -0.8523 -0.0531  0.2698
  490DG      H811255   4.509   0.303   2.052  0.8630 -0.8570 -0.8303
  490DG      O911256   4.837   0.423   1.441 -0.1692 -0.2457  0.5314
  490DG     O1011257   4.598   0.376   1.893 -0.0697 -0.0147 -0.6398
  490DG     C1111258   4.912   0.304   1.462  0.3329 -0.1056 -1.0813
  490DG     C1211259   4.711   0.308   1.847  0.1085  0.0095 -0.1459
  490DG     H1311260   4.997   0.308   1.530 -0.0441 -1.1195 -0.5255
  490DG     H1411261   4.938   0.269   1.362 -0.0104 -2.6196 -0.3571
  490DG     H1511262   4.706   0.210   1.893 -1.0610  1.3999  2.9886
  490DG     H1611263   4.805   0.355   1.874  0.8780 -2.3140  1.5054
  490DG     C1711264   4.822   0.192   1.513  0.0136  0.2689  0.2286
  490DG     C1811265   4.703   0.306   1.693 -0.0371  0.4368 -0.0321
  490DG     O1911266   4.807   0.217   1.653  0.5673  0.5127 -0.0056
  490DG     H2011267   4.881   0.102   1.498 -0.9935 -0.3974  0.2307
  490DG     H2111268   4.725   0.182   1.464 -0.9523 -1.3558  2.3230
  490DG     H2211269   4.608   0.273   1.651  0.6976 -0.9349 -0.6903
  490DG     H2311270   4.730   0.399   1.644 -0.8365 -0.0972 -1.5438
  491DG      C111271   1.951   1.952   4.090  0.5219 -0.4760 -0.4196
  491DG      C211272   1.183   2.077   3.903 -0.4252 -0.1253  0.3933
  491DG      H311273   2.026   1.950   4.011 -0.4985  0.8999 -1.4594
  491DG      H411274   1.922   1.855   4.129  1.7415 -1.3926 -1.6853
  491DG      H511275   2.003   2.002   4.172  0.5234 -2.2508  0.7256
  491DG      H611276   1.160   2.173   3.949  1.4854 -0.7540  2.9018
  491DG      H711277   1.156   2.062   3.799  3.0428  0.4295 -0.7231
  491DG      H811278   1.148   1.996   3.967  0.0913 -0.6759 -0.0091
  491DG      O911279   1.837   2.022   4.043  0.0893  0.8441 -0.2371
  491DG     O1011280   1.327   2.074   3.901  0.8563  0.8081  0.4270
  491DG     C1111281   1.735   2.048   4.138 -0.2806  0.6769 -0.0631
  491DG     C1211282   1.391   2.200   3.869  0.1829  0.4208  0.4726
  491DG     H1311283   1.767   2.112   4.221 -1.4551  0.3142  0.7085
  491DG     H1411284   1.704   1.952   4.180 -0.9771  0.9780  0.1412
  491DG     H1511285   1.378   2.288   3.932  0.7896  1.6847 -1.0931
  491DG     H1611286   1.347   2.241   3.778 -1.2929 -1.6244  0.1996
  491DG     C1711287   1.621   2.123   4.073  0.1140 -0.5634  0.2868
  491DG     C1811288   1.547   2.180   3.853 -0.1709  0.3046  0.4279
  491DG     O1911289   1.611   2.080   3.937  0.7564 -0.6368  0.3301
  491DG     H2011290   1.627   2.231   4.081  0.5624 -0.4551 -1.2162
  491DG     H2111291   1.529   2.108   4.131 -1.0771  2.2703 -0.6909
  491DG     H2211292   1.561   2.133   3.756 -0.9554 -0.7243  0.7876
  491DG     H2311293   1.590   2.280   3.849  0.9110 -0.0415  2.2150
  492DG      C111294   0.497   4.973   3.427  0.4922  0.0943  0.3244
  492DG      C211295   0.349   5.434   3.813  0.0710  0.2608 -0.1790
  492DG      H311296   0.573   4.967   3.505  2.2875 -1.0802 -1.3882
  492DG      H411297   0.545   4.918   3.346  0.3971  1.3389 -0.6111
  492DG      H511298   0.410   4.911   3.449  1.3393 -0.9051  0.9510
  492DG      H611299   0.297   5.354   3.866  0.6209 -0.8233 -1.2186
  492DG      H711300   0.444   5.440   3.864 -0.5373 -0.6010  1.1104
  492DG      H811301   0.299   5.529   3.830  0.0960  0.1330  0.6272
  492DG      O911302   0.463   5.112   3.406  0.6229 -0.1559 -0.2537
  492DG     O1011303   0.364   5.386   3.679  0.4369 -0.3537  0.6224
  492DG     C1111304   0.422   5.147   3.277  0.6960 -1.4056 -0.4432
  492DG     C1211305   0.427   5.477   3.596  0.4242  0.3253  0.1185
  492DG     H1311306   0.335   5.085   3.257 -0.8670  0.9086 -1.1791
  492DG     H1411307   0.503   5.115   3.212 -0.2456 -0.1493 -2.2958
  492DG     H1511308   0.511   5.523   3.648  0.6274 -0.6236  0.6533
  492DG     H1611309   0.359   5.557   3.565 -1.0748 -0.9700 -0.0667
  492DG     C1711310   0.400   5.306   3.268 -0.4250  0.5550  0.5209
  492DG     C1811311   0.481   5.408   3.471  0.1847  0.3862 -0.8686
  492DG     O1911312   0.366   5.357   3.393 -0.6985  0.1752  0.1067
  492DG     H2011313   0.323   5.328   3.194  0.4451  0.8111 -0.3280
  492DG     H2111314   0.488   5.352   3.223  0.2956 -1.0355  0.2187
  492DG     H2211315   0.519   5.498   3.421 -0.5340  1.8097  1.0109
  492DG     H2311316   0.562   5.339   3.495  0.6857  1.0343 -0.6501
  493DG      C111317   1.558   1.920   1.083 -0.1778 -0.1001  0.2697
  493DG      C211318   2.309   2.337   1.113 -0.0279  0.0684  0.3734
  493DG      H311319   1.575   1.896   0.978 -1.0601 -0.3198  0.1720
  493DG      H411320   1.482   1.998   1.082  1.4780  1.5958 -0.0395
  493DG      H511321   1.520   1.839   1.145  0.5223  1.5179  2.9878
  493DG      H611322   2.372   2.406   1.168 -0.7262 -0.7866  2.3112
  493DG      H711323   2.377   2.282   1.048  0.9876 -0.2092  1.6439
  493DG      H811324   2.237   2.399   1.059 -0.4399 -2.2957 -2.0110
  493DG      O911325   1.670   1.977   1.144 -0.5088 -0.1948  0.5954
  493DG     O1011326   2.235   2.250   1.201 -0.0029  0.6704  0.3241
  493DG     C1111327   1.768   1.883   1.176 -0.3397 -0.2282  0.1876
  493DG     C1211328   2.144   2.168   1.133  0.0591  0.3295 -0.1199
  493DG     H1311329   1.798   1.840   1.080 -0.6716  1.9435 -0.9536
  493DG     H1411330   1.738   1.801   1.241  0.0993 -1.9551 -1.6748
  493DG     H1511331   2.205   2.107   1.066  0.6314  1.2325 -0.4283
  493DG     H1611332   2.074   2.234   1.081 -0.0469 -0.9305 -1.6721
  493DG     C1711333   1.886   1.942   1.257  0.0454 -0.1029 -0.2209
  493DG     C1811334   2.074   2.083   1.232  0.7507 -0.0330  0.0268
  493DG     O1911335   1.963   2.021   1.171  0.4745  0.1691  0.1536
  493DG     H2011336   1.937   1.875   1.325  0.6613  1.5792  1.0223
  493DG     H2111337   1.840   2.002   1.335 -0.0330 -0.2930 -0.1206
  493DG     H2211338   2.135   2.001   1.269  0.6954 -0.0625  0.0518
  493DG     H2311339   2.040   2.144   1.315  0.8460  1.4654 -1.0001
  494DG      C111340   2.588   2.655   1.429 -0.2347  0.5276  0.1553
  494DG      C211341   2.612   3.323   1.178  0.8285  0.2374 -0.0876
  494DG      H311342   2.559   2.551   1.418 -2.3209  1.1056 -0.2601
  494DG      H411343   2.595   2.672   1.536  1.0557 -0.1787  0.1947
  494DG      H511344   2.687   2.669   1.385 -0.7303  1.1283 -0.8123
  494DG      H611345   2.543   3.405   1.162 -1.0724 -1.0296  1.2137
  494DG      H711346   2.647   3.310   1.280 -0.5070 -0.7375  0.2809
  494DG      H811347   2.704   3.335   1.120 -0.1277  0.0665 -1.6827
  494DG      O911348   2.503   2.749   1.362 -0.1279 -0.2515  0.4535
  494DG     O1011349   2.550   3.208   1.123  0.3892  0.1708 -0.6480
  494DG     C1111350   2.478   2.716   1.227 -1.4166  1.0082  0.4665
  494DG     C1211351   2.409   3.192   1.139  0.3444 -0.0352 -0.2114
  494DG     H1311352   2.444   2.613   1.215  1.3497 -0.2188  2.1039
  494DG     H1411353   2.577   2.714   1.182 -0.4534 -1.1041  2.4161
  494DG     H1511354   2.362   3.269   1.079 -0.8915 -0.0571  0.6888
  494DG     H1611355   2.383   3.212   1.243 -0.2891  0.6367 -0.4951
  494DG     C1711356   2.379   2.819   1.174 -0.4567 -0.0899 -0.0839
  494DG     C1811357   2.366   3.044   1.105  0.5056  0.2061  0.2452
  494DG     O1911358   2.438   2.946   1.176 -0.1028  0.1488 -0.6203
  494DG     H2011359   2.293   2.821   1.241 -0.2908 -0.5330  0.1470
  494DG     H2111360   2.343   2.800   1.073  1.1056 -1.3082 -0.4384
  494DG     H2211361   2.259   3.034   1.122  0.5617 -0.6923  0.1537
  494DG     H2311362   2.377   3.018   1.000  0.8381  0.2106  0.2783
  495DG      C111363   4.336   4.582   4.184 -0.3023  0.2481  0.1220
  495DG      C211364   4.063   5.092   4.448 -0.0213 -0.8580  0.2736
  495DG      H311365   4.378   4.482   4.173 -0.2761  0.1598  0.9138
  495DG      H411366   4.401   4.645   4.124 -1.3759  2.3400  1.0594
  495DG      H511367   4.233   4.578   4.150 -0.4713  0.0924  0.6440
  495DG      H611368   3.991   5.163   4.407 -1.9469 -0.9420  3.1655
  495DG      H711369   4.042   5.086   4.555 -1.0747  0.8306  0.2024
  495DG      H811370   4.162   5.136   4.438  0.2893 -1.3441  1.0989
  495DG      O911371   4.341   4.626   4.317 -0.2816 -0.1181  0.3914
  495DG     O1011372   4.062   4.971   4.384 -0.5010 -0.6057 -0.3676
  495DG     C1111373   4.263   4.539   4.404 -0.3610  0.5426 -0.6624
  495DG     C1211374   3.943   4.901   4.409 -0.5023  0.5668 -0.0395
  495DG     H1311375   4.283   4.563   4.508  1.8751 -1.2341 -0.6184
  495DG     H1411376   4.277   4.433   4.382  2.4913  0.6063  0.4869
  495DG     H1511377   3.856   4.942   4.359  0.4281  0.2473 -2.0200
  495DG     H1611378   3.911   4.906   4.514 -1.3394  0.7453 -0.2990
  495DG     C1711379   4.115   4.575   4.381  0.0726  0.0380 -0.1907
  495DG     C1811380   3.965   4.753   4.365 -0.8506 -0.5440 -0.7469
  495DG     O1911381   4.094   4.721   4.402 -0.0154 -0.1808 -0.6540
  495DG     H2011382   4.054   4.518   4.451 -1.4153  0.1549 -1.3331
  495DG     H2111383   4.075   4.545   4.285 -1.5996 -1.1719  0.8262
  495DG     H2211384   3.891   4.690   4.413  1.2327 -2.5904 -0.0523
  495DG     H2311385   3.947   4.742   4.258 -0.8384  1.0914 -0.9467
  496DG      C111386   5.255   3.561   2.605  0.5120 -0.2248 -0.2362
  496DG      C211387   5.290   3.824   3.348 -0.1026 -0.5411 -0.5180
  496DG      H311388   5.219   3.626   2.525 -0.1026  1.0476  1.0120
  496DG      H411389   5.215   3.461   2.590 -0.4471  0.3212 -1.4946
  496DG      H511390   5.363   3.558   2.592  0.3668 -1.8034 -1.2754
  496DG      H611391   5.383   3.834   3.403  0.4148  1.8001 -1.6884
  496DG      H711392   5.269   3.920   3.300 -0.6951 -0.8327 -0.8598
  496DG      H811393   5.205   3.796   3.409 -0.9469 -1.2822 -1.9730
  496DG      O911394   5.212   3.595   2.738 -0.5454  0.5970 -0.1743
  496DG     O1011395   5.294   3.733   3.238  0.2319  0.1560  0.6412
  496DG     C1111396   5.068   3.588   2.757  0.5088 -0.2692 -0.3207
  496DG     C1211397   5.178   3.735   3.161  0.1303 -0.3691 -0.3661
  496DG     H1311398   5.032   3.487   2.772 -3.4741  0.4276 -3.3556
  496DG     H1411399   5.013   3.622   2.669  0.2324  2.0225  0.6696
  496DG     H1511400   5.166   3.828   3.105 -1.1922  0.3761  1.1121
  496DG     H1611401   5.096   3.726   3.231  0.9707 -2.5530  0.4337
  496DG     C1711402   5.039   3.666   2.879 -0.0871 -0.8127 -0.5652
  496DG     C1811403   5.196   3.621   3.057  0.0745 -0.3130  0.0016
  496DG     O1911404   5.079   3.583   2.987 -0.0193 -0.2917 -0.4126
  496DG     H2011405   4.935   3.696   2.891  0.5572  1.3987 -0.0588
  496DG     H2111406   5.094   3.759   2.868 -1.8866  0.4531  0.5307
  496DG     H2211407   5.283   3.635   2.992  2.8785  0.6857  3.6116
  496DG     H2311408   5.218   3.527   3.108 -1.8337 -0.1757  1.1496
  497DG      C111409   2.944   1.328   0.786 -0.3470 -0.8833 -0.2974
  497DG      C211410   2.419   1.293   1.352 -0.4269 -0.1010  0.9174
  497DG      H311411   2.913   1.430   0.806  0.8016 -0.8416  1.4516
  497DG      H411412   2.976   1.329   0.682 -1.9562 -0.5493 -0.8217
  497DG      H511413   3.035   1.316   0.844 -0.7219  2.5507  1.2622
  497DG      H611414   2.517   1.321   1.390  0.3854  0.0147 -1.1301
  497DG      H711415   2.367   1.389   1.354 -0.5622 -0.1813  2.1945
  497DG      H811416   2.367   1.230   1.424 -2.7565 -1.2814 -1.5965
  497DG      O911417   2.836   1.242   0.814 -0.0719 -0.5929 -0.3178
  497DG     O1011418   2.412   1.237   1.218 -0.3800  0.9927  0.6098
  497DG     C1111419   2.727   1.251   0.720  0.1760 -1.0079 -0.0213
  497DG     C1211420   2.464   1.304   1.108 -0.0058  0.3127 -0.2119
  497DG     H1311421   2.757   1.190   0.634  1.5470  0.3540 -0.5577
  497DG     H1411422   2.697   1.352   0.690  1.0586 -0.2306  1.6012
  497DG     H1511423   2.556   1.363   1.117 -0.6629  1.5893 -1.4049
  497DG     H1611424   2.389   1.367   1.061  1.9932  0.4007 -3.6077
  497DG     C1711425   2.605   1.197   0.786  0.5432 -0.0891 -0.5259
  497DG     C1811426   2.490   1.206   0.998  0.5281  0.4319 -0.4777
  497DG     O1911427   2.564   1.270   0.898 -0.5847  0.0529  0.6075
  497DG     H2011428   2.622   1.093   0.813  1.4483  0.0708 -0.4475
  497DG     H2111429   2.525   1.211   0.713 -1.2829 -0.0196  1.3906
  497DG     H2211430   2.546   1.115   1.023 -0.2550  0.1885  0.4429
  497DG     H2311431   2.398   1.167   0.955  0.7938 -1.1022  0.2830
  498DG      C111432   1.253   0.052   3.336  0.6342 -0.1742  0.4277
  498DG      C211433   1.213  -0.544   3.028  0.2234  0.2856  0.7906
  498DG      H311434   1.350   0.086   3.301 -0.2526  2.1510  0.0188
  498DG      H411435   1.218   0.111   3.420 -1.3320 -2.6606  1.5083
  498DG      H511436   1.188   0.065   3.250  0.7214  2.0804  0.6483
  498DG      H611437   1.285  -0.516   2.951 -1.2162 -0.1926 -0.8135
  498DG      H711438   1.222  -0.653   3.036 -0.5890 -0.2424 -3.0914
  498DG      H811439   1.109  -0.531   2.996  0.7123 -0.0040 -1.0205
  498DG      O911440   1.269  -0.082   3.370 -0.3392  1.1592  0.3130
  498DG     O1011441   1.250  -0.466   3.142 -0.3426  0.1934 -0.0696
  498DG     C1111442   1.363  -0.111   3.473 -0.0225  0.2290  0.9945
  498DG     C1211443   1.368  -0.508   3.213  0.0019  0.2851 -0.2925
  498DG     H1311444   1.338  -0.058   3.565 -2.6463  0.9302 -0.0284
  498DG     H1411445   1.460  -0.075   3.440 -0.9278  0.1024 -2.1584
  498DG     H1511446   1.458  -0.468   3.167  1.0335  1.0325  2.2445
  498DG     H1611447   1.363  -0.616   3.230 -1.3468  0.4758  0.7060
  498DG     C1711448   1.377  -0.267   3.486 -0.0143 -0.0784  0.7836
  498DG     C1811449   1.360  -0.471   3.361  0.4174 -0.4597 -0.4602
  498DG     O1911450   1.372  -0.328   3.357 -0.4092  0.0717  0.4014
  498DG     H2011451   1.287  -0.300   3.538 -1.1963 -0.5315 -1.4052
  498DG     H2111452   1.468  -0.285   3.543  0.9245 -0.7996 -0.8945
  498DG     H2211453   1.269  -0.514   3.404  0.6430  0.2193  0.7541
  498DG     H2311454   1.437  -0.525   3.416  2.0926 -2.7048 -4.5888
  499DG      C111455   2.309   3.636   0.451  0.1360  0.4178  0.1696
  499DG      C211456   2.404   4.359   0.636  1.0089  0.0974  0.6319
  499DG      H311457   2.249   3.663   0.364 -0.8361 -1.6355  0.1431
  499DG      H411458   2.241   3.620   0.535  0.1006 -3.2552 -0.4030
  499DG      H511459   2.353   3.539   0.427  0.1918  0.5945 -0.4565
  499DG      H611460   2.474   4.438   0.665  1.9367 -0.1209 -0.8822
  499DG      H711461   2.345   4.400   0.554 -0.3132 -0.4106  1.3008
  499DG      H811462   2.350   4.327   0.725  3.5863 -0.3145  2.1642
  499DG      O911463   2.401   3.735   0.473 -0.0230 -0.6444  0.1969
  499DG     O1011464   2.478   4.248   0.586  0.0447  0.4915  0.1479
  499DG     C1111465   2.481   3.726   0.590 -0.4892 -0.1706 -0.1192
  499DG     C1211466   2.567   4.191   0.680  0.8851 -0.1783 -0.4047
  499DG     H1311467   2.538   3.634   0.581 -1.2724 -0.8241  1.2473
  499DG     H1411468   2.419   3.719   0.680 -0.4443  0.8271 -0.0039
  499DG     H1511469   2.511   4.161   0.769 -3.6588  0.8156 -2.6131
  499DG     H1611470   2.641   4.264   0.712  0.2004  0.7338 -0.8652
  499DG     C1711471   2.585   3.837   0.590  1.1459 -0.5262  0.3002
  499DG     C1811472   2.626   4.058   0.630  0.3143  0.4300  0.3568
  499DG     O1911473   2.527   3.964   0.601  0.0648 -0.1520 -0.4671
  499DG     H2011474   2.655   3.828   0.507  0.9884 -2.6205  0.3548
  499DG     H2111475   2.638   3.815   0.683 -0.1948 -1.3546  0.8930
  499DG     H2211476   2.695   4.060   0.546  1.8404 -1.4412  1.4852
  499DG     H2311477   2.690   4.017   0.708  1.5659  0.5207 -0.5894
  500DG      C111478   5.473   3.073   0.001  0.5611  0.4147  0.1075
  500DG      C211479   5.523   3.862  -0.390  0.2925 -0.1725  0.1081
  500DG      H311480   5.385   3.022  -0.039  0.3257  0.9441 -0.0583
  500DG      H411481   5.485   3.040   0.104 -0.5166 -2.6008 -0.6210
  500DG      H511482   5.561   3.027  -0.043 -0.4765 -2.4809  0.8052
  500DG      H611483   5.514   3.970  -0.399  4.0543  0.0488 -3.8389
  500DG      H711484   5.628   3.847  -0.413  0.0731  0.3820 -1.3761
  500DG      H811485   5.461   3.808  -0.462  0.0971  0.1482  0.0337
  500DG      O911486   5.479   3.212  -0.026 -0.3443 -0.0938  0.6661
  500DG     O1011487   5.495   3.811  -0.259 -0.8737 -0.5635 -0.3878
  500DG     C1111488   5.376   3.294   0.024  0.2263 -0.3854  0.9220
  500DG     C1211489   5.511   3.672  -0.243 -0.1169  0.6238  0.4268
  500DG     H1311490   5.349   3.258   0.124  1.5113  0.7125  1.6969
  500DG     H1411491   5.292   3.287  -0.045  1.0944 -0.6665 -0.1189
  500DG     H1511492   5.610   3.646  -0.282 -0.0239  1.5071  0.0379
  500DG     H1611493   5.438   3.619  -0.304  1.7215 -1.4011 -0.1446
  500DG     C1711494   5.414   3.445   0.037  0.0458  0.6858  0.1517
  500DG     C1811495   5.483   3.625  -0.101  0.8925 -0.0664  0.4084
  500DG     O1911496   5.460   3.490  -0.092 -0.2102 -0.0875  0.3352
  500DG     H2011497   5.490   3.456   0.115 -0.0857  1.3084  0.2019
  500DG     H2111498   5.333   3.506   0.078 -0.9192 -1.0011  0.8467
  500DG     H2211499   5.562   3.652  -0.031  1.5239  0.7953 -0.6047
  500DG     H2311500   5.391   3.669  -0.063 -1.1721 -4.1392  0.6418
  501DG      C111501   3.559   3.228   2.505 -0.2631  0.0265 -0.1612
  501DG      C211502   3.537   3.811   2.872 -0.4329 -1.1514 -0.0612
  501DG      H311503   3.618   3.168   2.436 -0.2368  1.1715 -1.1842
  501DG      H411504   3.476   3.255   2.440 -1.2482  0.2037  1.1255
  501DG      H511505   3.523   3.165   2.586  2.2035 -1.3791 -0.0645
  501DG      H611506   3.467   3.761   2.939 -1.6682  1.5454  0.8415
  501DG      H711507   3.634   3.784   2.913 -1.1298 -0.7985  1.9420
  501DG      H811508   3.511   3.916   2.888 -1.4866 -1.6954  2.2199
  501DG      O911509   3.643   3.328   2.548  0.3768 -0.2147  0.0147
  501DG     O1011510   3.495   3.773   2.744 -0.3397  0.1028  0.2086
  501DG     C1111511   3.673   3.424   2.441  0.3511  0.7166  0.5181
  501DG     C1211512   3.571   3.835   2.635 -0.2209 -0.1700 -0.5535
  501DG     H1311513   3.584   3.452   2.385  0.0087 -0.4873  0.4246
  501DG     H1411514   3.738   3.368   2.374 -0.4375  0.1002  0.2465
  501DG     H1511515   3.605   3.936   2.661  1.0777  0.1055 -3.0063
  501DG     H1611516   3.509   3.852   2.547  0.2575  2.9477 -0.3992
  501DG     C1711517   3.744   3.550   2.500 -0.1224  0.0212 -0.2714
  501DG     C1811518   3.686   3.753   2.602  0.2997 -0.6415 -0.7707
  501DG     O1911519   3.637   3.634   2.541  0.2549 -0.5656  0.7147
  501DG     H2011520   3.790   3.608   2.419 -0.0879 -0.0914 -0.3318
  501DG     H2111521   3.817   3.519   2.574 -0.7383 -0.6584  0.0612
  501DG     H2211522   3.753   3.815   2.542 -0.2615 -0.9697 -1.7512
  501DG     H2311523   3.722   3.720   2.699  2.0943 -0.4097 -1.3295
  502DG      C111524   5.415   3.640   4.423  0.1384  0.4534 -0.4152
  502DG      C211525   6.081   3.729   4.023  0.3472  1.1831 -0.1470
  502DG      H311526   5.308   3.651   4.407 -0.1329 -1.1287  0.1083
  502DG      H411527   5.438   3.710   4.504 -0.8225 -1.4809  1.6589
  502DG      H511528   5.430   3.537   4.457 -2.4181  0.6414  1.6155
  502DG      H611529   6.105   3.751   3.918 -1.8840 -2.7979 -1.6938
  502DG      H711530   6.148   3.793   4.081  0.3940  1.2835 -0.3096
  502DG      H811531   6.094   3.624   4.049 -0.2907  1.3555  0.9145
  502DG      O911532   5.490   3.665   4.303  0.3383  0.2658  0.0996
  502DG     O1011533   5.946   3.765   4.039  0.4039  0.0468  0.0211
  502DG     C1111534   5.496   3.801   4.276 -0.1078 -0.0739  0.5670
  502DG     C1211535   5.850   3.685   3.976  0.3584  0.1867  0.5431
  502DG     H1311536   5.553   3.840   4.361  2.1493  1.8981 -1.6784
  502DG     H1411537   5.401   3.854   4.271  0.7474  1.3646 -2.0789
  502DG     H1511538   5.849   3.592   4.034  0.5959 -0.1618 -0.0030
  502DG     H1611539   5.881   3.667   3.873 -0.2503  0.6778  0.2679
  502DG     C1711540   5.564   3.843   4.147  0.0975  0.3086 -0.3783
  502DG     C1811541   5.713   3.745   3.993  0.3601  0.3813  0.7776
  502DG     O1911542   5.689   3.773   4.130  0.2655  0.1216  1.0607
  502DG     H2011543   5.594   3.947   4.159 -0.2922  0.2996  0.7786
  502DG     H2111544   5.485   3.832   4.073 -1.6700  0.8659  1.3256
  502DG     H2211545   5.706   3.834   3.932  0.1382  0.8523  1.4783
  502DG     H2311546   5.640   3.674   3.954  1.4300 -1.7750  2.4222
  503DG      C111547   4.413   2.021   4.849 -0.1463 -0.3217 -0.4220
  503DG      C211548   4.134   2.162   5.428 -0.9528 -0.3630 -0.2050
  503DG      H311549   4.410   2.055   4.953 -0.9075  0.5022 -0.7073
  503DG      H411550   4.445   2.098   4.779  2.2624 -0.2592  0.6272
  503DG      H511551   4.502   1.958   4.840 -0.1456 -0.3009 -0.5463
  503DG      H611552   4.037   2.161   5.475 -0.9630 -0.8754 -0.2279
  503DG      H711553   4.209   2.145   5.505  0.1551  2.2274 -0.6057
  503DG      H811554   4.151   2.260   5.383 -0.5080 -0.0282  0.6797
  503DG      O911555   4.293   1.954   4.821 -0.0718  0.3927  0.1971
  503DG     O1011556   4.150   2.057   5.328  0.2009 -0.1528 -0.2946
  503DG     C1111557   4.265   1.836   4.890  0.0092  0.7100 -0.6284
  503DG     C1211558   4.036   2.052   5.247 -0.6714 -0.2009 -0.3366
  503DG     H1311559   4.348   1.799   4.951 -0.0248  1.6065 -0.0074
  503DG     H1411560   4.249   1.758   4.816  2.1492 -2.1182  1.6369
  503DG     H1511561   4.021   2.130   5.173  0.2728 -0.9960 -1.4158
  503DG     H1611562   3.939   2.049   5.298  0.2465  0.7383  1.5347
  503DG     C1711563   4.129   1.856   4.962 -0.3543  0.3143 -0.2851
  503DG     C1811564   4.038   1.919   5.167  0.0581 -0.8117 -0.1158
  503DG     O1911565   4.158   1.913   5.092  0.2057  0.3477 -0.1953
  503DG     H2011566   4.081   1.759   4.974 -1.2837  1.0388  2.5463
  503DG     H2111567   4.071   1.919   4.895  1.0168 -0.4662 -2.3084
  503DG     H2211568   4.030   1.829   5.228 -3.2484 -0.4201  0.2622
  503DG     H2311569   3.949   1.902   5.105  0.0514 -1.0265 -0.0491
  504DG      C111570   2.851   4.718   3.114  0.6743 -0.8682  0.7073
  504DG      C211571   3.329   4.819   3.616  0.3389  0.1952 -0.7121
  504DG      H311572   2.884   4.707   3.010  0.9597 -0.0649  0.7027
  504DG      H411573   2.802   4.624   3.138 -0.6486 -1.2963 -3.0171
  504DG      H511574   2.936   4.732   3.181 -0.8485  2.3648  2.1972
  504DG      H611575   3.302   4.743   3.689  2.0712  1.2251  1.1180
  504DG      H711576   3.369   4.763   3.531 -0.6153 -1.2785 -0.2316
  504DG      H811577   3.406   4.882   3.661  0.5056 -0.7808  0.4122
  504DG      O911578   2.763   4.829   3.138 -0.1119 -0.1255  0.8213
  504DG     O1011579   3.216   4.896   3.575  0.1162  0.0287 -0.0419
  504DG     C1111580   2.698   4.816   3.267  0.0277  0.0551  0.2823
  504DG     C1211581   3.119   4.824   3.498 -0.0005 -0.4025 -0.0808
  504DG     H1311582   2.678   4.713   3.294 -0.9999  0.7337  2.3877
  504DG     H1411583   2.605   4.874   3.262 -0.6647 -1.1237 -0.9912
  504DG     H1511584   3.083   4.738   3.554  1.1218  1.4028  3.7479
  504DG     H1611585   3.168   4.788   3.408 -1.0368  0.3951 -0.9827
  504DG     C1711586   2.779   4.899   3.378  0.2698  0.2047 -0.2851
  504DG     C1811587   2.993   4.908   3.475 -0.4137  0.2759 -0.6245
  504DG     O1911588   2.900   4.832   3.406 -0.1908 -0.2599  0.4001
  504DG     H2011589   2.737   4.912   3.477 -0.9054  0.5155 -0.8096
  504DG     H2111590   2.802   4.998   3.338 -0.6382 -0.0844 -1.5824
  504DG     H2211591   2.947   4.929   3.572 -1.3728 -1.7507 -0.5642
  504DG     H2311592   3.019   4.998   3.421  2.4041  0.6886  1.2445
  505DG      C111593   2.087   0.936   1.581 -0.0400  0.8395 -0.0705
  505DG      C211594   2.593   1.155   2.180  0.1964  0.2465  0.1344
  505DG      H311595   2.185   0.903   1.546  0.5024 -1.2132  2.9827
  505DG      H411596   2.009   0.935   1.505  1.0965  0.2404 -1.2731
  505DG      H511597   2.065   0.856   1.651  0.2944  1.0739  0.3105
  505DG      H611598   2.690   1.128   2.136 -0.9164 -1.9049 -1.2143
  505DG      H711599   2.608   1.242   2.244 -0.3526  0.7875 -0.4604
  505DG      H811600   2.574   1.066   2.240  0.4237 -0.5616 -0.9570
  505DG      O911601   2.090   1.058   1.649  0.1469  0.3811  0.3672
  505DG     O1011602   2.489   1.186   2.084 -0.1242  0.2268  0.0089
  505DG     C1111603   2.203   1.074   1.729 -0.0261 -0.8345  0.0399
  505DG     C1211604   2.358   1.186   2.147  0.2801  0.0033  0.4926
  505DG     H1311605   2.282   1.123   1.673 -1.7720  0.5004 -1.3718
  505DG     H1411606   2.226   0.974   1.768 -2.0579 -2.1017 -1.7798
  505DG     H1511607   2.371   1.242   2.239  2.4109  1.5820 -0.6866
  505DG     H1611608   2.344   1.083   2.178  0.3062  0.0985  0.8230
  505DG     C1711609   2.172   1.174   1.838  0.3930 -0.0218  0.0338
  505DG     C1811610   2.258   1.227   2.044 -0.6297 -0.3005 -0.2170
  505DG     O1911611   2.282   1.161   1.922 -0.0436  0.3877 -0.3256
  505DG     H2011612   2.075   1.148   1.880  0.6547  0.9571  1.3095
  505DG     H2111613   2.165   1.273   1.793 -3.4602 -0.2109 -0.1247
  505DG     H2211614   2.158   1.196   2.074  0.0818 -2.0886  0.4811
  505DG     H2311615   2.260   1.336   2.039  0.3058 -0.1706  1.9211
  506DG      C111616   0.421   3.819   1.108  0.0483 -0.0156 -0.1308
  506DG      C211617   0.650   4.054   1.803  0.5465 -0.0858  0.0470
  506DG      H311618   0.489   3.786   1.029  2.2948  0.8742  1.3262
  506DG      H411619   0.438   3.926   1.102  1.2289 -0.1386  0.5299
  506DG      H511620   0.324   3.781   1.078  0.7958 -0.3000 -2.4049
  506DG      H611621   0.608   4.024   1.899 -2.0027 -0.1709 -1.0250
  506DG      H711622   0.751   4.094   1.819 -0.1921  1.3417  1.4662
  506DG      H811623   0.587   4.135   1.767  0.9574  1.1808  1.9995
  506DG      O911624   0.482   3.765   1.229  0.2438 -0.6579 -0.2810
  506DG     O1011625   0.675   3.957   1.706 -0.0874 -0.1170 -0.3875
  506DG     C1111626   0.392   3.691   1.311  0.8423  0.3303 -0.1849
  506DG     C1211627   0.557   3.875   1.683 -0.4845  0.0764  0.5008
  506DG     H1311628   0.342   3.615   1.251  1.7993 -0.7468  0.3453
  506DG     H1411629   0.321   3.759   1.358  1.5324  0.9252  0.0219
  506DG     H1511630   0.475   3.946   1.672  0.8779  1.7055  0.3929
  506DG     H1611631   0.543   3.815   1.772 -2.3044 -0.3171 -0.0003
  506DG     C1711632   0.458   3.623   1.430  0.4238  0.5313 -0.2115
  506DG     C1811633   0.583   3.790   1.558  0.1589  0.3467 -0.2094
  506DG     O1911634   0.468   3.707   1.547 -0.3350 -0.2070 -0.8219
  506DG     H2011635   0.553   3.572   1.415 -0.5677 -1.5643  0.2606
  506DG     H2111636   0.385   3.544   1.448  0.3004  1.0944  1.9829
  506DG     H2211637   0.584   3.852   1.468 -1.3791  0.1981 -0.3520
  506DG     H2311638   0.670   3.726   1.575 -1.2159 -2.5010 -2.9047
  507DG      C111639   5.499   5.478   4.870  0.5775 -0.8120  0.0834
  507DG      C211640   5.868   6.136   4.749 -0.2324  0.2941  0.0203
  507DG      H311641   5.503   5.407   4.788 -2.7504 -1.8326  0.6913
  507DG      H411642   5.394   5.497   4.892  0.0484  0.3114 -2.9968
  507DG      H511643   5.555   5.448   4.959  0.5881 -0.3998  0.2184
  507DG      H611644   5.905   6.128   4.647  2.7951  0.7476  0.9838
  507DG      H711645   5.882   6.244   4.761  0.4965  0.0403  1.7843
  507DG      H811646   5.942   6.086   4.812  0.1796 -0.2411 -0.8700
  507DG      O911647   5.562   5.601   4.833 -0.3316 -0.2274  0.3055
  507DG     O1011648   5.737   6.092   4.775 -0.3791 -0.6571  0.5765
  507DG     C1111649   5.544   5.710   4.925 -0.4323  0.0464 -0.0775
  507DG     C1211650   5.697   6.153   4.899 -0.5404 -0.1168  0.1116
  507DG     H1311651   5.577   5.684   5.025 -0.5906  3.1223  0.8533
  507DG     H1411652   5.439   5.729   4.948 -0.2315 -0.4568  1.3666
  507DG     H1511653   5.685   6.257   4.869  1.5438  0.9677  2.7008
  507DG     H1611654   5.773   6.138   4.976 -1.5173 -0.6854  0.9818
  507DG     C1711655   5.619   5.843   4.886 -0.2959 -0.2375 -0.2824
  507DG     C1811656   5.573   6.078   4.949  0.2844  0.2440 -0.0492
  507DG     O1911657   5.600   5.939   4.987 -0.2213  0.2878  0.1638
  507DG     H2011658   5.585   5.887   4.792  0.6625  1.0215 -0.0628
  507DG     H2111659   5.727   5.835   4.883 -0.2583  0.2394 -0.2678
  507DG     H2211660   5.543   6.120   5.045 -2.2279 -2.8581  0.6717
  507DG     H2311661   5.491   6.079   4.878  1.3316  1.4030 -1.3201
  508DG      C111662   3.764   1.015   1.133  0.2643  0.4662 -0.0312
  508DG      C211663   3.455   0.334   0.975 -0.2613 -0.6508 -0.5498
  508DG      H311664   3.787   0.969   1.229 -0.3861 -1.8686 -0.9159
  508DG      H411665   3.673   1.074   1.148  0.9464  1.1343  1.6560
  508DG      H511666   3.838   1.090   1.107 -0.1901  0.6587 -0.8062
  508DG      H611667   3.442   0.307   0.870 -1.8496 -2.9247  0.1726
  508DG      H711668   3.458   0.231   1.008  0.4132 -0.5649 -0.3270
  508DG      H811669   3.357   0.373   1.003 -0.9936 -2.2867 -0.7361
  508DG      O911670   3.743   0.925   1.027  0.3119 -0.3448  0.3859
  508DG     O1011671   3.577   0.406   0.986 -0.4668  0.2383 -0.7677
  508DG     C1111672   3.851   0.841   0.993 -0.5168 -0.1684  0.8112
  508DG     C1211673   3.594   0.451   1.117  0.0877  0.4797 -0.1461
  508DG     H1311674   3.947   0.891   0.991 -0.1446 -0.8535  1.4085
  508DG     H1411675   3.834   0.816   0.888 -0.9696 -0.4267  0.9403
  508DG     H1511676   3.607   0.371   1.190  1.3377 -0.1577 -1.0423
  508DG     H1611677   3.520   0.524   1.148  1.0854  0.4396  2.6260
  508DG     C1711678   3.856   0.713   1.074 -0.4186 -0.1514  0.4759
  508DG     C1811679   3.725   0.527   1.120 -0.8959 -0.2964  0.1749
  508DG     O1911680   3.728   0.651   1.065  0.1426 -0.2442 -0.2548
  508DG     H2011681   3.873   0.737   1.179 -0.7456 -0.5776  0.6311
  508DG     H2111682   3.940   0.650   1.047 -0.0418 -0.3338  1.9587
  508DG     H2211683   3.768   0.541   1.219  1.0628 -1.8008 -0.3968
  508DG     H2311684   3.792   0.458   1.069  0.7235  1.0538  0.4235
  509DG      C111685   4.565   5.086   0.109  0.3261 -0.2632 -0.3968
  509DG      C211686   3.896   5.052  -0.057  1.2535  0.0264 -0.3664
  509DG      H311687   4.549   5.096   0.001 -2.0708 -0.4687 -0.1299
  509DG      H411688   4.666   5.045   0.117  0.8308  1.0932  0.4579
  509DG      H511689   4.572   5.182   0.160  1.1416 -0.6412  0.2042
  509DG      H611690   3.935   5.091  -0.151 -0.3284  0.9493 -0.6854
  509DG      H711691   3.852   4.954  -0.072  0.3137  0.3607  0.0686
  509DG      H811692   3.809   5.115  -0.034 -0.0980 -0.5570 -3.4285
  509DG      O911693   4.455   5.003   0.144  0.5635 -0.3550  0.4982
  509DG     O1011694   4.003   5.054   0.039 -0.5410 -0.2005 -0.4969
  509DG     C1111695   4.434   4.974   0.286 -0.3915 -0.1486  0.1631
  509DG     C1211696   3.957   5.040   0.174  0.1839 -0.0905  0.4519
  509DG     H1311697   4.441   5.067   0.344  0.4653  0.2259 -0.5195
  509DG     H1411698   4.507   4.910   0.335 -2.6652 -1.8014  1.6329
  509DG     H1511699   3.860   4.990   0.182 -0.3320  0.6735 -0.6576
  509DG     H1611700   3.950   5.140   0.217 -0.5962 -0.8382  2.1653
  509DG     C1711701   4.292   4.913   0.303  0.1390 -1.0455  0.2539
  509DG     C1811702   4.060   4.951   0.249 -0.2429  0.7671 -0.0764
  509DG     O1911703   4.198   4.999   0.244  0.4497  0.7951 -0.5771
  509DG     H2011704   4.258   4.912   0.406 -2.0882 -0.3298 -0.4113
  509DG     H2111705   4.284   4.811   0.266  0.8210 -1.1018  0.2588
  509DG     H2211706   4.023   4.945   0.351  1.0478 -0.1819  0.3638
  509DG     H2311707   4.067   4.847   0.215  2.6972  0.9836 -0.4506
  510DG      C111708   0.325   5.267   1.503  0.0180  0.0779 -0.1230
  510DG      C211709   0.278   4.873   2.184 -0.3934 -0.6461  0.5573
  510DG      H311710   0.321   5.222   1.404 -0.1267 -0.4156  0.1066
  510DG      H411711   0.404   5.341   1.517  2.2674 -2.1406 -0.4120
  510DG      H511712   0.228   5.315   1.515  0.2336  0.4549  0.1535
  510DG      H611713   0.182   4.916   2.154  0.1677 -0.0644 -0.4525
  510DG      H711714   0.268   4.792   2.257  1.7428 -1.9498 -0.5041
  510DG      H811715   0.359   4.937   2.218  0.5264 -1.4460 -0.0862
  510DG      O911716   0.336   5.162   1.597  0.2831 -0.3848  0.4392
  510DG     O1011717   0.325   4.802   2.063  0.0281 -0.3220  0.2604
  510DG     C1111718   0.443   5.072   1.572  1.0434  0.5333 -0.3464
  510DG     C1211719   0.358   4.889   1.955  0.3704  0.0243 -0.4408
  510DG     H1311720   0.534   5.125   1.544  1.3986 -0.6837 -1.6323
  510DG     H1411721   0.421   5.021   1.478  0.4458  0.9959 -0.4646
  510DG     H1511722   0.463   4.914   1.968  1.2522 -3.2137 -0.4106
  510DG     H1611723   0.287   4.972   1.960  0.0566 -0.2075 -0.9048
  510DG     C1711724   0.469   4.980   1.691  0.3244  0.1862 -0.5860
  510DG     C1811725   0.340   4.827   1.821  0.1009 -0.3041  0.2627
  510DG     O1911726   0.343   4.921   1.714  0.1655 -0.1785  0.1585
  510DG     H2011727   0.500   5.037   1.779  0.7525 -0.5024 -0.2860
  510DG     H2111728   0.546   4.907   1.669 -1.9194 -2.4644 -0.1501
  510DG     H2211729   0.420   4.755   1.804  2.2504  1.8209  0.9954
  510DG     H2311730   0.245   4.773   1.831 -0.9450  1.5283  0.5852
  511DG      C111731   5.502   3.365   1.648  1.2356 -0.6520  0.5885
  511DG      C211732   6.002   3.014   1.282 -0.2064 -0.6068  0.0669
  511DG      H311733   5.466   3.430   1.728  0.5795  0.8750 -0.8730
  511DG      H411734   5.475   3.262   1.673 -3.1599  0.4127  1.0985
  511DG      H511735   5.464   3.399   1.552  0.6835 -0.8212  0.7417
  511DG      H611736   5.920   2.982   1.218  1.1947 -0.0651 -2.0936
  511DG      H711737   6.083   3.059   1.225  2.1304 -1.7136  2.2629
  511DG      H811738   6.051   2.924   1.321  1.1895  0.9305  2.0562
  511DG      O911739   5.642   3.371   1.629  0.2786 -0.1734 -0.1184
  511DG     O1011740   5.946   3.101   1.386 -0.1513  0.5378  0.0728
  511DG     C1111741   5.708   3.367   1.750  0.4803  0.8303  0.1053
  511DG     C1211742   6.036   3.103   1.501 -0.0945 -0.1512  1.1815
  511DG     H1311743   5.676   3.286   1.815  1.1897  0.4374 -0.0178
  511DG     H1411744   5.702   3.460   1.807  1.7880 -0.1989  2.0687
  511DG     H1511745   6.136   3.112   1.459 -0.2862 -0.3002  0.6846
  511DG     H1611746   6.037   3.009   1.557  0.2835 -0.0183  1.4021
  511DG     C1711747   5.859   3.347   1.736 -0.7743  0.1684  0.0542
  511DG     C1811748   6.005   3.229   1.584  0.2910 -0.8890 -0.9538
  511DG     O1911749   5.884   3.225   1.662  0.3218 -0.0014 -0.4407
  511DG     H2011750   5.906   3.342   1.834  2.6419  2.0994 -1.3289
  511DG     H2111751   5.896   3.437   1.687 -0.4713 -0.3385 -0.6748
  511DG     H2211752   6.089   3.245   1.650  0.0365 -0.1313 -0.8095
  511DG     H2311753   5.996   3.318   1.521 -1.3804  0.5492  1.2016
  512DG      C111754   3.209   5.428   1.568  0.1747 -0.7118  0.2786
  512DG      C211755   3.444   4.594   1.656 -0.2543 -0.6878  0.3629
  512DG      H311756   3.148   5.410   1.479 -0.6684 -1.0002  0.9034
  512DG      H411757   3.268   5.518   1.548  0.6577 -1.1507 -0.2908
  512DG      H511758   3.138   5.430   1.651 -0.1220  1.8280  0.0444
  512DG      H611759   3.336   4.591   1.669 -0.2552  1.7284  1.2475
  512DG      H711760   3.448   4.598   1.547  0.5117  0.4934  0.4161
  512DG      H811761   3.480   4.500   1.698 -0.8085 -1.5804 -1.0529
  512DG      O911762   3.298   5.314   1.567 -0.2764  0.1483  0.0107
  512DG     O1011763   3.483   4.716   1.727  0.5051  0.2398  0.7215
  512DG     C1111764   3.372   5.305   1.690 -0.2008 -0.1662 -0.2972
  512DG     C1211765   3.400   4.827   1.689 -0.1041  0.3368  0.3513
  512DG     H1311766   3.309   5.274   1.774 -0.2974 -1.4468 -0.8194
  512DG     H1411767   3.415   5.398   1.726  1.7744 -1.0191 -0.3148
  512DG     H1511768   3.308   4.830   1.749  0.3463 -0.1797  1.0861
  512DG     H1611769   3.387   4.822   1.581  1.4142 -2.3550  0.2040
  512DG     C1711770   3.468   5.189   1.691  0.4757  0.2784 -0.2401
  512DG     C1811771   3.483   4.955   1.718  0.8839  0.7539 -0.3205
  512DG     O1911772   3.406   5.065   1.689  0.2687  0.2673  0.4863
  512DG     H2011773   3.528   5.199   1.781  2.8030  1.2277 -1.8162
  512DG     H2111774   3.545   5.193   1.615  1.5288  1.4784  0.8528
  512DG     H2211775   3.505   4.953   1.825 -0.1138 -0.8075 -0.1079
  512DG     H2311776   3.573   4.963   1.658  0.4889  1.4494 -0.8370
  513DG      C111777   1.414   4.077   5.262 -0.5516 -0.2676 -0.3851
  513DG      C211778   1.244   3.673   5.748 -0.3005  0.6907  0.8131
  513DG      H311779   1.483   4.073   5.346 -0.5925  2.3701 -0.1289
  513DG      H411780   1.390   4.183   5.248 -0.7667 -0.2503  0.0902
  513DG      H511781   1.476   4.056   5.175 -0.5406  3.7884 -1.5834
  513DG      H611782   1.316   3.592   5.735 -1.1748 -0.0755  0.6160
  513DG      H711783   1.283   3.765   5.792 -1.4827  0.2918  2.8052
  513DG      H811784   1.152   3.645   5.799 -2.7911  0.6126 -3.2472
  513DG      O911785   1.305   3.990   5.288 -0.5053  0.0317  0.0673
  513DG     O1011786   1.196   3.714   5.619  0.3399  0.6844  0.4143
  513DG     C1111787   1.222   3.965   5.181  0.4428 -0.0950  0.2587
  513DG     C1211788   1.157   3.607   5.530 -0.2194  1.1111  0.4498
  513DG     H1311789   1.287   3.929   5.101  3.1314  1.5880  1.5234
  513DG     H1411790   1.168   4.053   5.148 -0.6426 -0.1205  1.8586
  513DG     H1511791   1.074   3.554   5.577  0.6574  0.5603  1.4261
  513DG     H1611792   1.238   3.536   5.510 -1.2299  0.3976 -1.4215
  513DG     C1711793   1.126   3.846   5.229 -0.5254  0.1767  0.4414
  513DG     C1811794   1.101   3.677   5.408  0.0229 -0.0851 -0.4411
  513DG     O1911795   1.186   3.770   5.343  0.1545 -0.2647  0.0602
  513DG     H2011796   1.101   3.769   5.155  0.6071 -0.7590  1.0084
  513DG     H2111797   1.024   3.874   5.256 -1.3152 -2.3978  0.3855
  513DG     H2211798   1.084   3.601   5.332 -2.0250  0.5123 -0.6399
  513DG     H2311799   1.005   3.726   5.426  0.6880  0.8353  0.8049
  514DG      C111800   1.916   4.005   2.712  0.2325 -0.4496 -0.0485
  514DG      C211801   2.593   3.490   3.149 -0.7900  0.2048  0.5778
  514DG      H311802   1.907   3.954   2.616 -2.0309 -0.1820 -0.0394
  514DG      H411803   1.973   4.097   2.698 -0.8384  0.0802 -1.2325
  514DG      H511804   1.821   4.055   2.731  1.0124  0.4758  1.6364
  514DG      H611805   2.616   3.580   3.207  0.2017  1.0206 -1.0054
  514DG      H711806   2.612   3.395   3.200  3.1773  1.0309  1.0024
  514DG      H811807   2.655   3.499   3.060  0.3066 -3.6627  0.7952
  514DG      O911808   1.964   3.926   2.821  0.1165 -0.6459 -0.1932
  514DG     O1011809   2.461   3.509   3.099 -0.7085 -0.4004  0.3290
  514DG     C1111810   2.102   3.899   2.819  0.1461 -0.2815  0.3275
  514DG     C1211811   2.433   3.623   3.023 -0.4284  0.4428  0.3357
  514DG     H1311812   2.155   3.990   2.845  2.2971 -1.1541 -0.6594
  514DG     H1411813   2.126   3.867   2.717 -1.8125 -0.5700 -0.0712
  514DG     H1511814   2.481   3.625   2.924 -1.1813 -1.9531 -0.1436
  514DG     H1611815   2.473   3.713   3.068 -0.6190  0.0423  1.3162
  514DG     C1711816   2.132   3.784   2.917 -0.2924 -0.1262  0.3594
  514DG     C1811817   2.286   3.633   3.000  0.6554  0.6819 -0.3083
  514DG     O1911818   2.270   3.740   2.911 -0.8984  0.1824 -1.3871
  514DG     H2011819   2.073   3.699   2.883 -1.5087  0.4686  0.9395
  514DG     H2111820   2.113   3.799   3.023  0.5152  1.7266  0.2842
  514DG     H2211821   2.256   3.536   2.959  2.6588  0.2011 -0.7367
  514DG     H2311822   2.238   3.651   3.096 -0.6143  3.8662 -1.4211
  515DG      C111823   2.525   1.107   0.333 -0.0341 -0.0854  0.7732
  515DG      C211824   3.062   1.718   0.545 -0.7524 -0.3405  0.4091
  515DG      H311825   2.582   1.021   0.370  0.5481 -0.0044  0.0939
  515DG      H411826   2.554   1.126   0.230 -1.6569  0.9750  0.4835
  515DG      H511827   2.421   1.084   0.355 -1.1220  3.9185  0.4580
  515DG      H611828   3.092   1.821   0.563  2.3593 -1.0315 -0.2147
  515DG      H711829   3.092   1.673   0.639 -2.0997  0.3291  1.1922
  515DG      H811830   3.126   1.687   0.462 -1.9839  0.6509 -0.9740
  515DG      O911831   2.568   1.213   0.422 -0.2112 -0.3006  0.6477
  515DG     O1011832   2.923   1.718   0.519 -0.4694  0.3116 -0.4778
  515DG     C1111833   2.486   1.324   0.390  0.1885  0.7752  0.0468
  515DG     C1211834   2.868   1.597   0.464  0.2046  0.4874 -0.3588
  515DG     H1311835   2.390   1.297   0.433 -0.2391  0.6408 -0.9668
  515DG     H1411836   2.458   1.341   0.286  1.8326  2.6352 -0.1383
  515DG     H1511837   2.898   1.513   0.527  0.6414  0.4559 -0.5992
  515DG     H1611838   2.906   1.580   0.363 -1.3260 -0.6360 -0.7828
  515DG     C1711839   2.533   1.456   0.460  0.4933  0.4022 -0.1975
  515DG     C1811840   2.718   1.603   0.468  0.4061 -0.2372 -0.5645
  515DG     O1911841   2.665   1.484   0.416  0.1496  0.8442  0.3229
  515DG     H2011842   2.530   1.448   0.569  0.3591 -0.8057 -0.2830
  515DG     H2111843   2.469   1.539   0.429 -1.1656 -0.4331  0.8461
  515DG     H2211844   2.687   1.615   0.572  1.5452 -2.3673  0.0814
  515DG     H2311845   2.677   1.682   0.405  1.4098 -0.3706 -1.3992
  516DG      C111846   5.252   5.020   3.793 -0.5887  0.0750  0.1951
  516DG      C211847   5.504   5.528   4.141  0.6125  0.4332  0.4652
  516DG      H311848   5.180   5.095   3.760  0.2582  0.4005 -0.9463
  516DG      H411849   5.216   4.924   3.755  1.3715 -1.2575  1.5187
  516DG      H511850   5.348   5.032   3.745 -0.1032 -1.9761  0.5352
  516DG      H611851   5.436   5.578   4.210  0.0197 -1.4818  1.3402
  516DG      H711852   5.596   5.545   4.198  1.0108  0.5854 -0.2212
  516DG      H811853   5.498   5.573   4.042 -0.2464 -1.7559 -0.5484
  516DG      O911854   5.248   5.046   3.932  0.1456  0.3409 -0.2597
  516DG     O1011855   5.479   5.388   4.120 -0.6089  0.0191 -0.5212
  516DG     C1111856   5.308   4.945   4.010 -0.0272  0.2185  0.2006
  516DG     C1211857   5.504   5.311   4.232 -0.6854 -0.3465 -0.4312
  516DG     H1311858   5.409   4.934   3.972 -0.0888 -2.0725  0.5513
  516DG     H1411859   5.267   4.846   3.991  0.1169  0.5233 -2.0327
  516DG     H1511860   5.441   5.335   4.317 -0.6989  0.5289 -0.6790
  516DG     H1611861   5.599   5.343   4.275 -1.3364  1.7851 -0.4663
  516DG     C1711862   5.325   4.985   4.159 -0.1255 -0.4173 -0.3607
  516DG     C1811863   5.491   5.152   4.209  1.0816 -0.1039  0.5854
  516DG     O1911864   5.356   5.126   4.177  0.4149 -0.4599  0.0662
  516DG     H2011865   5.389   4.920   4.219  0.7227  0.7694  0.0544
  516DG     H2111866   5.228   4.974   4.207  1.0944  0.1852  2.4542
  516DG     H2211867   5.559   5.113   4.133 -0.6776 -2.0921 -0.0503
  516DG     H2311868   5.525   5.104   4.300 -0.7895 -0.1332  1.3108
  517DG      C111869   5.290   3.178   0.922 -0.1587 -0.6181  0.2743
  517DG      C211870   5.446   2.578   1.105 -0.1743 -0.4665 -0.8942
  517DG      H311871   5.270   3.218   1.021  0.4322  2.7278 -0.8513
  517DG      H411872   5.200   3.130   0.882  0.0302  0.8821 -2.1743
  517DG      H511873   5.298   3.271   0.866 -1.2776  0.1499  1.3273
  517DG      H611874   5.480   2.608   1.204  0.9091 -3.4434 -0.2456
  517DG      H711875   5.337   2.585   1.103 -0.0675  1.6138 -2.5268
  517DG      H811876   5.476   2.473   1.096  0.3540 -0.8947  3.4325
  517DG      O911877   5.397   3.090   0.909 -0.2070  0.2387 -0.7312
  517DG     O1011878   5.502   2.663   1.011  0.6115  0.1757  0.1286
  517DG     C1111879   5.513   3.140   0.962  0.0265 -0.0019 -0.5527
  517DG     C1211880   5.633   2.697   1.036 -0.0946 -0.2773 -0.6044
  517DG     H1311881   5.524   3.149   1.070 -1.4236 -1.0302 -0.2887
  517DG     H1411882   5.538   3.238   0.923  0.2529  1.0901  2.1127
  517DG     H1511883   5.692   2.608   1.015  1.3398 -0.1923  2.4243
  517DG     H1611884   5.635   2.728   1.141  0.1756  1.5654 -1.1230
  517DG     C1711885   5.624   3.043   0.919  0.4201  0.0377  1.2380
  517DG     C1811886   5.670   2.811   0.945 -0.6011 -0.5400  0.0215
  517DG     O1911887   5.580   2.912   0.963 -0.3217 -0.3197  0.3035
  517DG     H2011888   5.719   3.068   0.966  1.3991 -1.3119  0.0726
  517DG     H2111889   5.637   3.044   0.811  2.1479 -1.2896  1.3798
  517DG     H2211890   5.771   2.829   0.983 -0.8122 -0.4460  0.5384
  517DG     H2311891   5.678   2.786   0.839  1.6059 -0.1217  0.0396
  518DG      C111892   5.373   2.136   1.892 -0.3462 -0.7706  0.7807
  518DG      C211893   5.667   2.692   2.082  0.3536 -0.0827 -0.2875
  518DG      H311894   5.302   2.206   1.850  0.7143  0.4008  0.8970
  518DG      H411895   5.317   2.056   1.940 -1.7500  0.6447  1.5840
  518DG      H511896   5.432   2.108   1.804  2.3274  0.1370  2.1724
  518DG      H611897   5.575   2.748   2.064  0.5193 -0.7130 -3.6947
  518DG      H711898   5.732   2.752   2.146  0.4095 -1.6386  1.1870
  518DG      H811899   5.713   2.684   1.984  0.4462 -0.0079 -0.2507
  518DG      O911900   5.451   2.196   1.990 -0.1942 -0.3256 -0.4245
  518DG     O1011901   5.653   2.565   2.139  0.6025  0.7019 -0.3770
  518DG     C1111902   5.547   2.093   2.032  0.2722 -0.7874 -0.2496
  518DG     C1211903   5.770   2.499   2.161  0.4263 -0.0080 -0.6075
  518DG     H1311904   5.600   2.055   1.944 -0.0035  2.3441 -1.9264
  518DG     H1411905   5.492   2.009   2.074  1.1759 -0.7028  1.1783
  518DG     H1511906   5.812   2.554   2.245 -0.1415 -1.5061  0.7113
  518DG     H1611907   5.836   2.504   2.075 -0.6510 -0.3534 -1.4793
  518DG     C1711908   5.630   2.151   2.147  0.1959  0.0205 -0.5771
  518DG     C1811909   5.740   2.355   2.213  0.0577  0.6874  0.1279
  518DG     O1911910   5.667   2.281   2.110 -0.2799  1.0852  0.1395
  518DG     H2011911   5.709   2.088   2.187  0.8717 -0.6902 -2.8681
  518DG     H2111912   5.560   2.162   2.230  0.5527 -1.3227 -0.0821
  518DG     H2211913   5.832   2.299   2.230  0.0308 -0.4411 -2.8192
  518DG     H2311914   5.691   2.350   2.310 -0.6331 -0.2738 -0.2460
  519DG      C111915   0.956   0.163   4.615 -0.0818  0.2820  0.2204
  519DG      C211916   0.581   0.508   5.085  0.7580 -0.2420  0.2602
  519DG      H311917   1.042   0.105   4.647  0.4070 -0.0987 -1.6711
  519DG      H411918   0.938   0.169   4.507  0.6260 -1.1002  0.0127
  519DG      H511919   0.870   0.105   4.649  0.9813 -1.3269  0.2514
  519DG      H611920   0.562   0.608   5.125 -0.8387  0.2270 -1.4874
  519DG      H711921   0.482   0.472   5.056  0.7798  0.4543 -0.7421
  519DG      H811922   0.603   0.441   5.168 -0.6811 -1.2601 -0.1231
  519DG      O911923   0.924   0.279   4.690 -0.5587  0.1296  0.6042
  519DG     O1011924   0.686   0.511   4.986 -0.3301 -0.4598  0.2362
  519DG     C1111925   1.041   0.359   4.705 -1.0088 -0.6649  0.4912
  519DG     C1211926   0.805   0.572   5.048  0.4810 -0.3661 -0.1250
  519DG     H1311927   1.094   0.384   4.613 -1.2654  0.9673  0.7465
  519DG     H1411928   1.116   0.304   4.760  0.1421 -1.7314 -2.0157
  519DG     H1511929   0.846   0.528   5.139  2.3679  1.2678 -0.1207
  519DG     H1611930   0.772   0.664   5.098  0.7010 -0.0850 -0.4913
  519DG     C1711931   1.017   0.498   4.769  0.4819  0.1753  0.4624
  519DG     C1811932   0.913   0.602   4.947 -0.6076 -0.3222 -0.3234
  519DG     O1911933   0.943   0.480   4.890  0.1665  0.5325 -0.0205
  519DG     H2011934   0.948   0.559   4.710 -1.9315 -0.9390  2.0221
  519DG     H2111935   1.111   0.553   4.785  1.4081 -1.0748 -0.5124
  519DG     H2211936   0.877   0.673   4.873  0.8514 -1.1978 -1.9327
  519DG     H2311937   1.007   0.633   4.991 -0.0483 -1.4032 -0.7174
  520DG      C111938   1.080   2.656   0.933  0.3580 -0.3057  0.3021
  520DG      C211939   1.008   2.642   1.604  0.0058  0.1328 -0.1039
  520DG      H311940   1.067   2.713   0.841 -0.7201 -0.7621  0.1567
  520DG      H411941   1.021   2.567   0.908 -0.2814  0.6769 -1.9689
  520DG      H511942   1.178   2.610   0.945  0.5648  0.2483  0.7733
  520DG      H611943   1.077   2.680   1.680  0.3269  1.7835 -1.1760
  520DG      H711944   0.916   2.603   1.647 -0.1158 -0.0302 -0.5068
  520DG      H811945   1.052   2.545   1.579  0.5955  0.0235  1.2699
  520DG      O911946   1.036   2.727   1.049  0.1053  0.3746 -0.4724
  520DG     O1011947   0.994   2.721   1.486  0.1672  0.3491  0.1539
  520DG     C1111948   0.898   2.767   1.048 -0.2825 -0.0011  0.9639
  520DG     C1211949   0.891   2.818   1.506  0.1363 -0.1081  0.2896
  520DG     H1311950   0.830   2.684   1.065 -0.7412  0.5372  1.8483
  520DG     H1411951   0.877   2.817   0.953  0.0061 -0.4717  0.6530
  520DG     H1511952   0.899   2.881   1.594 -2.0995 -0.5924  0.8848
  520DG     H1611953   0.794   2.769   1.507 -0.1736  0.4704 -0.5142
  520DG     C1711954   0.880   2.880   1.150  0.2012 -0.4182  0.0300
  520DG     C1811955   0.901   2.901   1.382 -1.0225  0.1181 -0.0401
  520DG     O1911956   0.899   2.811   1.272 -0.7458  0.7110 -0.4652
  520DG     H2011957   0.777   2.915   1.142 -0.1170 -1.0445  1.1898
  520DG     H2111958   0.939   2.971   1.141 -1.8098  1.0670  1.1303
  520DG     H2211959   0.820   2.973   1.374 -0.1689  1.4860  2.5910
  520DG     H2311960   0.995   2.957   1.379 -2.6663  3.0758  0.0255
  521DG      C111961   3.613   3.903   1.462 -0.0291 -0.2326 -0.3957
  521DG      C211962   4.293   3.860   1.722 -0.0561 -0.1659  0.3024
  521DG      H311963   3.556   3.991   1.495  2.2004  0.9685  0.5284
  521DG      H411964   3.576   3.830   1.533  3.0382 -0.9032  0.6767
  521DG      H511965   3.579   3.861   1.368 -0.7350 -1.2841  0.3073
  521DG      H611966   4.393   3.885   1.685 -0.0240 -3.0263 -1.8492
  521DG      H711967   4.282   3.883   1.828  1.6120 -0.4268  0.5676
  521DG      H811968   4.286   3.752   1.708  1.2710 -0.4519  1.5892
  521DG      O911969   3.759   3.926   1.475  0.1873  0.2066 -0.2200
  521DG     O1011970   4.189   3.933   1.649 -0.3805  0.4410 -0.2080
  521DG     C1111971   3.810   4.030   1.397 -0.2232 -0.1890 -0.0729
  521DG     C1211972   4.183   4.070   1.687 -0.3451  0.7233  0.6684
  521DG     H1311973   3.758   4.123   1.416  0.8445  1.0410 -2.7163
  521DG     H1411974   3.790   4.005   1.292 -2.9043  0.8175  0.1444
  521DG     H1511975   4.283   4.113   1.689  0.1819 -0.4497  0.1118
  521DG     H1611976   4.153   4.074   1.792  3.9864 -2.6381  2.3037
  521DG     C1711977   3.964   4.056   1.414 -0.3045 -0.0070 -0.5165
  521DG     C1811978   4.091   4.149   1.599 -0.5556 -0.5413 -0.0790
  521DG     O1911979   3.986   4.062   1.553 -0.2373  0.2735 -1.3538
  521DG     H2011980   3.983   4.144   1.354 -1.6879 -0.8967 -2.3837
  521DG     H2111981   4.016   3.972   1.368  0.8837  1.3109 -1.6315
  521DG     H2211982   4.050   4.238   1.647 -1.0799 -0.1592 -1.1898
  521DG     H2311983   4.143   4.178   1.508 -0.8050 -0.0691 -0.0728
  522DG      C111984   1.117   3.301   5.293  0.2421 -0.1675 -0.4013
  522DG      C211985   1.387   2.954   5.934 -0.0718  0.0513  0.3077
  522DG      H311986   1.183   3.350   5.222 -2.7362  1.0065 -2.5528
  522DG      H411987   1.034   3.368   5.318 -0.7624 -0.8115 -1.8688
  522DG      H511988   1.072   3.218   5.239 -1.6715  1.0240 -0.7511
  522DG      H611989   1.352   2.868   5.877 -0.8615 -1.1258  2.4601
  522DG      H711990   1.496   2.959   5.929 -0.0959  2.3326  0.8439
  522DG      H811991   1.359   2.944   6.039 -0.0190 -1.9662  0.1538
  522DG      O911992   1.177   3.258   5.414 -0.4313  0.2659 -0.2409
  522DG     O1011993   1.334   3.076   5.875  0.6934 -0.7205 -0.3348
  522DG     C1111994   1.088   3.237   5.523 -0.1098  0.0828 -0.7378
  522DG     C1211995   1.426   3.127   5.772  0.4309 -0.1130 -0.2913
  522DG     H1311996   1.010   3.162   5.516  0.9938 -1.2495  0.6283
  522DG     H1411997   1.034   3.328   5.552  0.5613  0.2115  0.1521
  522DG     H1511998   1.410   3.065   5.684  1.1583 -1.2352  0.3314
  522DG     H1611999   1.533   3.122   5.789  0.5017  1.5176 -0.0552
  522DG     C1712000   1.182   3.214   5.642  0.1638 -0.3029  0.2253
  522DG     C1812001   1.386   3.275   5.743 -0.3391  0.3587  0.4761
  522DG     O1912002   1.299   3.292   5.627 -0.7904  0.0632  0.0600
  522DG     H2012003   1.199   3.108   5.623  1.6520 -0.0848  0.2561
  522DG     H2112004   1.140   3.234   5.740  0.2180 -1.2810  0.4580
  522DG     H2212005   1.350   3.320   5.836 -1.2368  1.4622 -0.3687
  522DG     H2312006   1.471   3.333   5.708 -1.5876  1.4906 -0.8548
  523DG      C112007   1.394   4.730   2.204  0.2794 -0.3243 -0.7666
  523DG      C212008   1.646   4.947   2.910 -0.1312 -0.2455 -0.1305
  523DG      H312009   1.361   4.629   2.228 -0.0081  0.2964  1.7125
  523DG      H412010   1.495   4.736   2.163  1.4493  0.3974  1.9534
  523DG      H512011   1.328   4.766   2.125 -1.7220  3.6806  2.3433
  523DG      H612012   1.694   4.883   2.983  2.1974  0.3440 -1.0318
  523DG      H712013   1.730   4.967   2.843  3.1217 -2.8768  2.7730
  523DG      H812014   1.631   5.039   2.966  1.8489 -0.3082  0.5821
  523DG      O912015   1.376   4.823   2.320  0.3068 -0.7665  0.5660
  523DG     O1012016   1.530   4.894   2.851 -0.3222  0.3171  0.5212
  523DG     C1112017   1.269   4.793   2.412  0.2887 -0.3806  0.1229
  523DG     C1212018   1.563   4.782   2.772 -0.1196  0.0925  0.6463
  523DG     H1312019   1.288   4.691   2.443 -0.6814 -0.2862  1.0592
  523DG     H1412020   1.169   4.801   2.369  0.7489  1.2555 -0.7741
  523DG     H1512021   1.573   4.699   2.843  0.6398 -1.1086 -0.8064
  523DG     H1612022   1.655   4.786   2.714 -1.5051 -3.0359 -2.0865
  523DG     C1712023   1.303   4.879   2.543 -1.1377 -0.4118 -0.3631
  523DG     C1812024   1.451   4.749   2.675 -0.1235 -0.0273  0.6902
  523DG     O1912025   1.435   4.864   2.594 -0.3542  0.5431 -0.3962
  523DG     H2012026   1.229   4.882   2.624 -0.7341 -1.4401  0.0585
  523DG     H2112027   1.301   4.979   2.501 -2.3136 -0.0481  0.5136
  523DG     H2212028   1.482   4.663   2.616 -1.6673  0.2310 -0.5799
  523DG     H2312029   1.367   4.721   2.739 -0.4607 -1.0645 -0.1689
  524DG      C112030   4.131   0.099   5.294 -0.3878  0.7332  0.4787
  524DG      C212031   4.345   0.734   5.170  0.0563 -0.0807  0.0282
  524DG      H312032   4.145  -0.006   5.321 -1.7848  1.5268  5.0989
  524DG      H412033   4.035   0.102   5.242 -1.3740 -0.1628  2.1605
  524DG      H512034   4.111   0.143   5.392  1.2242 -0.4599  1.3996
  524DG      H612035   4.402   0.742   5.262  1.8563 -0.1684 -1.0324
  524DG      H712036   4.376   0.823   5.114 -0.9350 -0.2383 -0.8121
  524DG      H812037   4.236   0.729   5.178  0.0648  1.6584  1.8525
  524DG      O912038   4.245   0.174   5.239  0.0425 -0.2703 -0.0863
  524DG     O1012039   4.390   0.610   5.115 -0.0920  0.0156  0.0039
  524DG     C1112040   4.282   0.119   5.112  0.4677 -0.7836 -0.3020
  524DG     C1212041   4.334   0.572   4.989 -0.2357 -0.2801 -0.9299
  524DG     H1312042   4.189   0.106   5.057 -1.4638  0.7029  2.3816
  524DG     H1412043   4.324   0.020   5.129  0.0322 -0.9484 -0.1664
  524DG     H1512044   4.384   0.631   4.912 -0.5594  1.1125 -0.0935
  524DG     H1612045   4.226   0.572   4.978 -0.4462 -1.7854  0.6769
  524DG     C1712046   4.388   0.217   5.064 -0.1961  0.9854  0.4240
  524DG     C1812047   4.386   0.433   4.965  0.8614 -0.5633 -0.1441
  524DG     O1912048   4.339   0.343   5.059 -0.3277  0.2273 -0.5214
  524DG     H2012049   4.405   0.179   4.963 -0.8683 -0.1519  0.7226
  524DG     H2112050   4.475   0.225   5.128  1.4652  0.1659 -1.5844
  524DG     H2212051   4.362   0.404   4.863  0.6751  0.1929 -0.3241
  524DG     H2312052   4.495   0.444   4.963  0.9380 -1.2837 -0.1101
  525DG      C112053   2.052   0.379   1.346 -0.0193  0.1348  0.0949
  525DG      C212054   2.669   0.152   0.946  0.3708 -0.3829  0.5049
  525DG      H312055   2.079   0.413   1.446  0.9068 -1.2280  0.3286
  525DG      H412056   2.007   0.281   1.357 -0.1315  0.2399  0.5850
  525DG      H512057   1.972   0.449   1.321 -0.2677 -0.2249 -0.1284
  525DG      H612058   2.725   0.168   0.854 -1.8591 -1.1921 -1.0494
  525DG      H712059   2.731   0.154   1.036  0.4177  1.0720  0.4632
  525DG      H812060   2.628   0.052   0.939 -0.0997 -0.1473 -0.1989
  525DG      O912061   2.152   0.389   1.247 -0.7828 -0.2705  0.3848
  525DG     O1012062   2.571   0.253   0.947 -0.2732 -0.2427 -0.5077
  525DG     C1112063   2.112   0.358   1.111 -0.2064 -0.0223  0.1144
  525DG     C1212064   2.499   0.266   0.825  0.3776  0.0664 -0.1384
  525DG     H1312065   2.019   0.412   1.089 -1.2589 -1.2039  1.4321
  525DG     H1412066   2.088   0.253   1.096  1.9654 -0.2462 -2.2944
  525DG     H1512067   2.462   0.166   0.805 -1.8235  0.5149  1.3177
  525DG     H1612068   2.563   0.300   0.744  0.7878  0.1301  0.2092
  525DG     C1712069   2.205   0.397   0.997  0.4726 -0.4380 -0.0896
  525DG     C1812070   2.380   0.358   0.854 -0.3425  0.3475  0.8497
  525DG     O1912071   2.300   0.307   0.960 -0.6151  0.3886  0.8728
  525DG     H2012072   2.254   0.489   1.030 -0.5983 -0.1542  0.7780
  525DG     H2112073   2.144   0.431   0.913  2.7338  0.1975 -1.5549
  525DG     H2212074   2.402   0.461   0.884 -0.4774  0.1462  1.6718
  525DG     H2312075   2.322   0.364   0.762  2.6005  0.0713 -1.1502
  526DG      C112076   4.587   0.488   5.425 -0.2627 -0.2378  0.9190
  526DG      C212077   3.971   0.407   5.153  0.0965  0.0734 -0.3270
  526DG      H312078   4.617   0.427   5.339  0.9421  1.5685  0.0106
  526DG      H412079   4.609   0.413   5.502  1.0489 -0.2130  0.5827
  526DG      H512080   4.656   0.572   5.422 -0.9957  0.3504 -0.3595
  526DG      H612081   3.865   0.424   5.171  0.0819 -0.6410  0.3266
  526DG      H712082   3.992   0.466   5.064  1.1903  1.9940  1.1142
  526DG      H812083   4.002   0.304   5.137 -0.2792 -0.5483  2.3839
  526DG      O912084   4.456   0.538   5.420  0.0227  0.1816 -0.1974
  526DG     O1012085   4.046   0.469   5.261 -0.5166  0.3952 -0.5787
  526DG     C1112086   4.426   0.597   5.541 -0.1710 -0.0107 -0.1707
  526DG     C1212087   3.993   0.438   5.388 -0.5378 -0.1804 -0.2072
  526DG     H1312088   4.485   0.688   5.554  3.9245 -1.7955 -3.8883
  526DG     H1412089   4.448   0.523   5.618 -1.1080 -2.3782 -2.0488
  526DG     H1512090   4.004   0.333   5.417  0.5416 -0.0714 -0.1624
  526DG     H1612091   3.886   0.455   5.399 -0.3889  0.2340  0.7201
  526DG     C1712092   4.281   0.622   5.542  0.0444 -0.6952  0.1843
  526DG     C1812093   4.062   0.527   5.494 -0.6121  0.3541  0.2778
  526DG     O1912094   4.205   0.511   5.485 -0.1787 -0.1078 -0.3687
  526DG     H2012095   4.257   0.715   5.491  1.4644 -1.0485 -1.2323
  526DG     H2112096   4.247   0.645   5.643 -3.1384  0.4902 -1.0511
  526DG     H2212097   4.030   0.631   5.503 -0.5989  0.3285  0.6696
  526DG     H2312098   4.029   0.477   5.585 -1.0545 -1.1984 -0.6999
  527DG      C112099   2.770   0.586   3.716 -0.6859  0.2391  0.2006
  527DG      C212100   2.673   0.760   4.429 -0.1251 -0.6830 -0.4005
  527DG      H312101   2.769   0.477   3.707 -1.1810  0.1981  0.6941
  527DG      H412102   2.869   0.630   3.716 -1.0820  1.2729  2.7227
  527DG      H512103   2.716   0.621   3.628  0.1109  1.4385  0.1700
  527DG      H612104   2.570   0.736   4.405 -2.6744  3.3933  4.4483
  527DG      H712105   2.741   0.679   4.454  2.1583  1.5473  1.0838
  527DG      H812106   2.665   0.800   4.531 -0.0499  0.5131 -0.8441
  527DG      O912107   2.708   0.638   3.832 -1.0174  0.6439 -0.0481
  527DG     O1012108   2.741   0.853   4.341 -0.3205  0.0844  0.5415
  527DG     C1112109   2.757   0.582   3.953  0.3895  0.2075 -0.2191
  527DG     C1212110   2.648   0.933   4.265 -0.4328 -0.2689 -0.1397
  527DG     H1312111   2.862   0.610   3.958  0.8786 -1.6083  0.9285
  527DG     H1412112   2.742   0.474   3.953 -1.9511  0.4758 -1.0469
  527DG     H1512113   2.696   1.029   4.245 -0.6336  0.8092  3.7911
  527DG     H1612114   2.561   0.979   4.313 -1.0332 -0.5972 -0.8888
  527DG     C1712115   2.678   0.645   4.071  0.0800  0.3118 -0.1121
  527DG     C1812116   2.593   0.865   4.136 -0.1768  0.2526  0.5677
  527DG     O1912117   2.689   0.792   4.061 -0.2443  0.7143 -0.3693
  527DG     H2012118   2.707   0.619   4.172 -1.6313  0.0728  0.3577
  527DG     H2112119   2.574   0.611   4.065  0.0321 -0.0199  1.9484
  527DG     H2212120   2.514   0.800   4.173 -0.5565  0.3418 -0.0732
  527DG     H2312121   2.548   0.934   4.064  1.7068  1.7155  0.7009
  528DG      C112122   4.137   4.135   1.032 -0.3211 -0.7132  0.9137
  528DG      C212123   3.723   3.867   0.531 -0.2818  0.2766 -0.0037
  528DG      H312124   4.049   4.128   1.096 -0.0425  1.9058  1.7259
  528DG      H412125   4.140   4.234   0.986 -0.9821 -0.7800  0.7067
  528DG      H512126   4.221   4.117   1.098  1.0365  1.6300 -0.0372
  528DG      H612127   3.741   3.970   0.502  0.3238  0.0198 -0.5719
  528DG      H712128   3.691   3.799   0.452 -1.1153  0.6287  0.0174
  528DG      H812129   3.630   3.869   0.587 -1.4694 -4.4984 -1.3622
  528DG      O912130   4.114   4.028   0.940 -0.3066 -0.9488 -0.7530
  528DG     O1012131   3.824   3.793   0.605 -0.4213 -0.7464  0.0468
  528DG     C1112132   4.220   4.006   0.856 -0.5931 -0.9376 -0.3424
  528DG     C1212133   3.951   3.791   0.534  0.2756 -0.1059 -0.3429
  528DG     H1312134   4.318   4.020   0.901 -1.2819 -1.1608  1.3203
  528DG     H1412135   4.220   4.087   0.784  0.1619 -1.0573 -0.4843
  528DG     H1512136   3.970   3.881   0.475 -0.9082 -0.2540 -0.9678
  528DG     H1612137   3.938   3.711   0.461 -1.7476  0.3241 -0.5069
  528DG     C1712138   4.211   3.875   0.787  0.7248 -0.2032 -0.0885
  528DG     C1812139   4.066   3.765   0.631  0.1574  0.2042 -0.4597
  528DG     O1912140   4.095   3.878   0.708 -0.1396 -0.3460 -0.5380
  528DG     H2012141   4.199   3.798   0.863  1.2651  1.1278  1.4086
  528DG     H2112142   4.301   3.856   0.728  0.1700 -1.3580 -0.5911
  528DG     H2212143   4.046   3.682   0.699  2.5926  0.7598  1.0816
  528DG     H2312144   4.162   3.743   0.585  0.9236 -0.1322  1.2091
  529DG      C112145   3.187   3.530   0.135 -0.6083  0.2142  0.5224
  529DG      C212146   3.853   3.297  -0.102 -0.6204  1.0017 -0.6910
  529DG      H312147   3.081   3.525   0.113 -0.0756  0.9335 -2.6137
  529DG      H412148   3.232   3.593   0.059 -1.6210  1.9143  1.2767
  529DG      H512149   3.211   3.569   0.234  1.6723  1.5403 -0.4786
  529DG      H612150   3.879   3.296   0.003 -1.0477  1.0259 -0.5831
  529DG      H712151   3.909   3.217  -0.152  0.5491  1.5213 -0.2447
  529DG      H812152   3.893   3.392  -0.137 -0.4939  1.1440 -0.1618
  529DG      O912153   3.233   3.392   0.123  0.0117  0.3939  0.5899
  529DG     O1012154   3.714   3.278  -0.114 -0.3919  0.2163  0.2132
  529DG     C1112155   3.211   3.337  -0.013 -0.7110 -0.2376 -0.0338
  529DG     C1212156   3.653   3.165  -0.046 -0.2749 -0.2284 -0.2973
  529DG     H1312157   3.261   3.394  -0.092  2.4452 -1.1755  1.1248
  529DG     H1412158   3.103   3.337  -0.024 -0.5741 -0.7324 -1.5161
  529DG     H1512159   3.661   3.168   0.063  1.8809  2.2255 -0.4235
  529DG     H1612160   3.708   3.079  -0.084 -1.4084 -1.0739 -0.0691
  529DG     C1712161   3.290   3.204  -0.021  0.2490 -0.4404 -0.6275
  529DG     C1812162   3.509   3.143  -0.084  1.1477  0.4813  0.5473
  529DG     O1912163   3.428   3.244  -0.024  0.1388 -0.4024 -0.0994
  529DG     H2012164   3.270   3.152  -0.115 -1.5866  0.6563 -0.8957
  529DG     H2112165   3.264   3.127   0.052 -0.2171  0.3620  0.0634
  529DG     H2212166   3.493   3.141  -0.192  1.1768  2.2518  0.4784
  529DG     H2312167   3.473   3.048  -0.046  0.0335  0.5846 -0.2114
  530DG      C112168   0.395   4.625   1.074  0.0884 -1.1682 -0.1895
  530DG      C212169  -0.322   4.625   0.754  0.1999 -0.1889  0.0121
  530DG      H312170   0.372   4.522   1.099  1.4886 -0.7552  3.4123
  530DG      H412171   0.402   4.687   1.164  1.9048  1.0994 -1.7765
  530DG      H512172   0.488   4.627   1.018 -0.1791 -1.7223 -0.6569
  530DG      H612173  -0.280   4.537   0.705 -1.3468 -1.9754  1.7263
  530DG      H712174  -0.362   4.604   0.853  1.4942  2.6161  1.2316
  530DG      H812175  -0.412   4.644   0.695  0.5407 -0.9759 -0.7980
  530DG      O912176   0.291   4.684   0.997 -0.4292 -0.1535 -0.3447
  530DG     O1012177  -0.240   4.738   0.751 -0.2005 -0.1489 -0.5944
  530DG     C1112178   0.307   4.821   0.948  0.3699 -0.2738  0.4790
  530DG     C1212179  -0.116   4.721   0.821  0.2313  0.4379 -0.2251
  530DG     H1312180   0.393   4.832   0.882 -0.3626  1.8925 -0.2064
  530DG     H1412181   0.302   4.896   1.027 -0.1359 -0.3159  0.4904
  530DG     H1512182  -0.044   4.665   0.761 -0.7243 -2.6384  1.2852
  530DG     H1612183  -0.137   4.661   0.909  1.4916  1.3924  0.7590
  530DG     C1712184   0.181   4.836   0.863 -0.3143 -0.3517 -0.3176
  530DG     C1812185  -0.060   4.856   0.864 -0.6089  0.6952 -0.0002
  530DG     O1912186   0.062   4.843   0.936 -0.1221 -0.0933  0.0084
  530DG     H2012187   0.179   4.756   0.788 -2.7939  0.0577 -0.7698
  530DG     H2112188   0.182   4.931   0.809  1.2076  0.1119  0.4606
  530DG     H2212189  -0.051   4.919   0.775 -1.5514  0.3983 -0.3163
  530DG     H2312190  -0.124   4.905   0.937  0.5115 -0.3172  1.7510
  531DG      C112191   1.559   0.323   2.716  0.3386  0.3551  0.4121
  531DG      C212192   2.196   0.215   2.378 -0.2484 -0.2233 -0.2605
  531DG      H312193   1.531   0.416   2.666  1.5866  0.5715  0.0857
  531DG      H412194   1.622   0.366   2.794 -1.0962  3.4730 -0.0040
  531DG      H512195   1.469   0.284   2.763  1.5059 -1.4064  1.2946
  531DG      H612196   2.276   0.208   2.452 -0.3095 -2.6679 -0.3417
  531DG      H712197   2.238   0.192   2.281  1.7676  1.9213  0.0075
  531DG      H812198   2.159   0.317   2.378  0.6994  0.1475 -2.1680
  531DG      O912199   1.633   0.237   2.634  0.4130 -0.2096 -0.3820
  531DG     O1012200   2.087   0.134   2.405 -0.2487  0.3951 -0.1240
  531DG     C1112201   1.571   0.225   2.503 -0.4612  0.2267  0.7339
  531DG     C1212202   2.005   0.120   2.291 -0.2626 -0.2641 -0.1966
  531DG     H1312203   1.564   0.320   2.451 -0.0524 -0.1468 -0.0290
  531DG     H1412204   1.474   0.177   2.515  0.4947 -1.7174  1.1664
  531DG     H1512205   2.059   0.061   2.217 -0.5702  0.1617 -0.7620
  531DG     H1612206   1.995   0.212   2.234  1.3038 -1.1338 -2.0150
  531DG     C1712207   1.654   0.124   2.419  0.5419 -0.8152  0.7121
  531DG     C1812208   1.868   0.062   2.323 -0.6513 -0.2920 -0.1834
  531DG     O1912209   1.794   0.159   2.392  0.6215 -0.0224 -0.1090
  531DG     H2012210   1.608   0.137   2.321 -1.0784  2.8021  1.7840
  531DG     H2112211   1.658   0.019   2.448 -1.3023 -1.5921 -1.4995
  531DG     H2212212   1.824   0.018   2.234 -0.9375 -2.7480  1.1027
  531DG     H2312213   1.876  -0.023   2.390  0.9188 -0.1318 -0.1218
  532DG      C112214   1.034   3.065   0.859 -0.9297 -0.0767 -0.4663
  532DG      C212215   0.433   3.431   0.954  0.6687  0.1578 -0.6163
  532DG      H312216   1.114   3.015   0.913 -0.7606  1.2341  0.5609
  532DG      H412217   1.074   3.130   0.781  0.8809  0.2794  0.7020
  532DG      H512218   0.966   2.993   0.815 -1.1955 -0.1030 -0.0199
  532DG      H612219   0.448   3.538   0.938  0.9809  0.0174 -1.3357
  532DG      H712220   0.399   3.377   0.865  1.0618  0.5422 -1.0050
  532DG      H812221   0.354   3.416   1.028  2.5299 -2.6442  0.9865
  532DG      O912222   0.959   3.143   0.952  0.5726 -0.0456  0.1860
  532DG     O1012223   0.546   3.366   1.017  0.2744 -0.0379  0.3106
  532DG     C1112224   1.031   3.236   1.036  0.3226 -0.1515 -0.5739
  532DG     C1212225   0.589   3.423   1.138  0.0735 -0.3760  0.1256
  532DG     H1312226   1.072   3.320   0.981  0.8825  0.0261  0.1154
  532DG     H1412227   1.110   3.190   1.094  0.8591 -1.1917 -2.0689
  532DG     H1512228   0.514   3.411   1.216 -0.9493  3.4157 -0.0754
  532DG     H1612229   0.612   3.526   1.113 -0.7464 -0.4320 -0.9706
  532DG     C1712230   0.930   3.285   1.140 -0.4623 -0.5137  0.2023
  532DG     C1812231   0.715   3.360   1.191  0.7375  0.0024 -0.9436
  532DG     O1912232   0.812   3.331   1.085  0.0015 -0.0415  0.0118
  532DG     H2012233   0.977   3.363   1.200  0.9484 -0.4478 -0.9191
  532DG     H2112234   0.902   3.207   1.211 -1.1176  0.6310  1.2391
  532DG     H2212235   0.762   3.416   1.272 -1.1620  0.5566 -0.1775
  532DG     H2312236   0.684   3.267   1.237 -1.9838  1.1352 -0.3421
  533DG      C112237   1.258   1.435   1.629 -0.2737 -0.0465 -0.4948
  533DG      C212238   0.948   0.631   1.487 -0.5073 -0.5025  0.9483
  533DG      H312239   1.320   1.469   1.712 -3.0239 -0.2469  1.8035
  533DG      H412240   1.164   1.489   1.633  0.0615  0.4864  0.3144
  533DG      H512241   1.302   1.478   1.538 -3.1811  1.7553 -1.1695
  533DG      H612242   0.984   0.671   1.392  0.3929  0.4625  1.6801
  533DG      H712243   0.988   0.530   1.483  0.9142  0.0625  0.2599
  533DG      H812244   0.839   0.627   1.491 -0.5367  0.4299  1.1638
  533DG      O912245   1.226   1.293   1.621  0.1622  0.2150  0.3752
  533DG     O1012246   1.006   0.704   1.595  0.3219  0.4082 -0.5700
  533DG     C1112247   1.162   1.257   1.741 -0.2936 -0.5387 -0.0677
  533DG     C1212248   0.997   0.845   1.592 -0.4248 -0.6292 -0.5448
  533DG     H1312249   1.056   1.282   1.739  0.2656  1.9567 -0.6793
  533DG     H1412250   1.202   1.315   1.824  3.5252 -2.8718 -0.0267
  533DG     H1512251   0.891   0.868   1.606 -0.6815 -0.1609 -2.8641
  533DG     H1612252   1.009   0.890   1.494  0.7283 -0.3997 -0.3121
  533DG     C1712253   1.168   1.107   1.779  0.0258 -0.0439 -0.4686
  533DG     C1812254   1.096   0.903   1.694  0.6058  0.2541  0.2030
  533DG     O1912255   1.080   1.040   1.690 -0.2987  0.1848  0.1620
  533DG     H2012256   1.127   1.081   1.877 -1.9174  0.9121 -0.9672
  533DG     H2112257   1.271   1.072   1.781 -0.4221 -1.4534 -1.0375
  533DG     H2212258   1.087   0.861   1.794  0.0498  1.5179  0.6996
  533DG     H2312259   1.198   0.875   1.667  0.5041 -0.6712  0.7245
  534DG      C112260   1.203   1.023   0.922 -0.1892  0.8094  0.4456
  534DG      C212261   1.544   0.908   0.664 -0.9781 -0.1036 -0.7432
  534DG      H312262   1.109   1.027   0.977  0.0073 -1.0839  0.9863
  534DG      H412263   1.195   1.077   0.827  1.6523  0.3349 -0.0211
  534DG      H512264   1.273   1.054   1.000 -0.4812  0.5516  0.8158
  534DG      H612265   1.460   0.923   0.731  0.0799 -2.2965  1.2085
  534DG      H712266   1.635   0.889   0.722 -0.2590  3.6667 -0.3238
  534DG      H812267   1.577   1.005   0.625 -0.5724  0.2310  0.4007
  534DG      O912268   1.229   0.890   0.889 -0.6520  0.2830 -0.1814
  534DG     O1012269   1.528   0.813   0.564 -0.1876  0.3222  0.0067
  534DG     C1112270   1.127   0.826   0.811  0.1886 -0.4771 -0.4264
  534DG     C1212271   1.521   0.683   0.616  0.7501 -0.4401 -1.0199
  534DG     H1312272   1.092   0.891   0.730 -0.2856 -1.2508 -0.8606
  534DG     H1412273   1.035   0.819   0.868  0.9824  0.1648  0.9781
  534DG     H1512274   1.619   0.672   0.664  1.5441  1.9850 -1.9617
  534DG     H1612275   1.512   0.614   0.532 -1.2073 -2.1457  0.4678
  534DG     C1712276   1.159   0.697   0.740  0.1144  0.1166 -0.0022
  534DG     C1812277   1.400   0.658   0.706 -0.0140 -0.4739  0.0687
  534DG     O1912278   1.273   0.720   0.658 -0.1984  0.5022  0.3995
  534DG     H2012279   1.078   0.667   0.674 -1.6470  3.5150  0.3934
  534DG     H2112280   1.171   0.626   0.821 -2.3040  0.8918  1.1270
  534DG     H2212281   1.388   0.551   0.720 -0.1512 -0.8752 -2.5627
  534DG     H2312282   1.408   0.704   0.805 -3.2677  0.1840  0.1500
  535DG      C112283   5.163   1.116   4.256  0.1244 -0.2431 -0.2383
  535DG      C212284   5.773   1.305   4.474 -0.4461  0.0275 -0.5830
  535DG      H312285   5.075   1.119   4.192  0.8068 -1.6591 -1.2909
  535DG      H412286   5.124   1.081   4.352  0.5162  0.9920  0.4042
  535DG      H512287   5.210   1.019   4.237 -1.0799 -0.8338 -0.2602
  535DG      H612288   5.763   1.260   4.573  1.1151  1.9235  0.4934
  535DG      H712289   5.795   1.216   4.414 -0.5811 -0.9027  0.7003
  535DG      H812290   5.869   1.355   4.464  0.0331 -0.7018  0.2485
  535DG      O912291   5.250   1.230   4.272  0.1244  0.3050 -0.2551
  535DG     O1012292   5.652   1.361   4.421  0.1415 -0.1467  0.4905
  535DG     C1112293   5.170   1.334   4.325  0.0344  0.0948 -0.7332
  535DG     C1212294   5.600   1.468   4.488 -0.5851  0.2526 -0.5178
  535DG     H1312295   5.134   1.307   4.424 -0.2729  0.9025 -0.6182
  535DG     H1412296   5.093   1.371   4.257  0.0523  2.6822  0.5034
  535DG     H1512297   5.663   1.557   4.477 -1.8004  1.2468  0.2562
  535DG     H1612298   5.598   1.445   4.595  0.5703  1.4097 -0.2125
  535DG     C1712299   5.262   1.455   4.339  0.1808 -0.4725  0.0628
  535DG     C1812300   5.472   1.517   4.422 -0.1495  0.0892  0.3105
  535DG     O1912301   5.379   1.412   4.404  0.3917 -0.1938 -0.0024
  535DG     H2012302   5.216   1.534   4.399 -0.9970  0.4685 -1.9588
  535DG     H2112303   5.283   1.510   4.247  0.3025  0.7236  0.7771
  535DG     H2212304   5.418   1.597   4.472  1.0426  1.8482 -1.0983
  535DG     H2312305   5.499   1.574   4.333 -0.7354 -0.7071 -0.3980
  536DG      C112306   0.028   4.689   5.374 -0.0905  0.0712 -0.7418
  536DG      C212307   0.522   4.616   4.941  0.4388 -0.5410 -0.5295
  536DG      H312308   0.028   4.588   5.414  0.1271  0.2519 -0.2694
  536DG      H412309  -0.069   4.731   5.401 -0.1367  0.5191 -1.5736
  536DG      H512310   0.100   4.755   5.423 -0.6934 -0.2512  0.6506
  536DG      H612311   0.560   4.707   4.987 -0.8023 -0.6556  0.8144
  536DG      H712312   0.559   4.528   4.994 -0.1949  1.1791  3.1055
  536DG      H812313   0.551   4.606   4.837  1.3316  0.5412 -0.4024
  536DG      O912314   0.045   4.690   5.236  0.3285 -0.2908 -0.4139
  536DG     O1012315   0.379   4.629   4.930 -0.3002  0.0380  0.0342
  536DG     C1112316   0.067   4.817   5.176  0.3396  0.0057  0.3730
  536DG     C1212317   0.341   4.729   4.832  0.0749  0.0257 -0.1048
  536DG     H1312318   0.154   4.870   5.214 -0.9605  1.7773  1.0240
  536DG     H1412319  -0.015   4.880   5.211  2.4588  1.1734  3.7516
  536DG     H1512320   0.368   4.709   4.728  1.0393 -1.3459  0.3774
  536DG     H1612321   0.398   4.817   4.861 -0.6823  0.5325 -0.1151
  536DG     C1712322   0.053   4.820   5.023 -0.2928  0.5813  0.4751
  536DG     C1812323   0.196   4.764   4.845 -0.1812 -0.2721 -0.2421
  536DG     O1912324   0.181   4.785   4.981 -0.0427 -0.2483 -0.0567
  536DG     H2012325   0.025   4.918   4.984  0.5227  1.0233  0.9712
  536DG     H2112326  -0.014   4.742   4.988  0.1463  0.3431  0.1494
  536DG     H2212327   0.178   4.850   4.780  4.6646  0.8505 -0.4805
  536DG     H2312328   0.141   4.674   4.820  3.3515 -3.3510  1.9948
  537DG      C112329   0.068   2.830   4.497 -0.0076 -0.3577 -0.0483
  537DG      C212330  -0.157   3.312   5.156 -0.3688 -0.4167 -0.7203
  537DG      H312331   0.172   2.864   4.498 -0.1382  0.0488  0.0144
  537DG      H412332   0.056   2.778   4.403  0.3648 -0.3142 -0.1215
  537DG      H512333   0.052   2.758   4.578  2.4507 -1.7466 -0.6946
  537DG      H612334  -0.093   3.246   5.214 -0.7129 -1.3724 -1.4047
  537DG      H712335  -0.190   3.393   5.221  0.5129 -1.5787  1.2590
  537DG      H812336  -0.252   3.278   5.114  0.8336 -0.0465 -4.0582
  537DG      O912337  -0.017   2.939   4.499 -0.4268 -0.1098  0.0104
  537DG     O1012338  -0.085   3.370   5.042 -0.6124 -0.2850  0.4968
  537DG     C1112339  -0.022   3.002   4.628 -0.5891  0.6196 -0.1244
  537DG     C1212340  -0.025   3.282   4.946  0.4537 -0.0966  0.4247
  537DG     H1312341   0.076   3.042   4.652  0.2694 -1.2567 -0.3259
  537DG     H1412342  -0.056   2.932   4.705  0.7910  2.0278  1.8436
  537DG     H1512343   0.039   3.214   5.002 -0.1255  0.4807  1.8338
  537DG     H1612344   0.051   3.337   4.890 -1.2591  2.7684  0.6689
  537DG     C1712345  -0.105   3.129   4.630  0.2762  0.3004  0.7238
  537DG     C1812346  -0.123   3.243   4.837  0.7008  0.4868 -0.3398
  537DG     O1912347  -0.048   3.216   4.721  0.4080 -0.4815 -0.2251
  537DG     H2012348  -0.210   3.110   4.649 -0.6758  1.6706 -2.4695
  537DG     H2112349  -0.114   3.168   4.529 -2.2774 -0.3515  0.6361
  537DG     H2212350  -0.178   3.154   4.869  3.8903 -1.0383  1.3725
  537DG     H2312351  -0.200   3.319   4.821 -1.2264 -0.8498  1.8288
  538DG      C112352   3.283   1.305   4.193  0.0519  0.4601 -0.0390
  538DG      C212353   3.376   0.800   3.696 -0.4756  0.4205 -0.2875
  538DG      H312354   3.317   1.386   4.128  1.3367 -1.1415 -1.4842
  538DG      H412355   3.367   1.251   4.236  0.8874 -0.6463 -2.7947
  538DG      H512356   3.228   1.348   4.277 -0.0632  0.2840 -0.0231
  538DG      H612357   3.381   0.882   3.625 -0.0421 -1.0882 -2.0826
  538DG      H712358   3.474   0.762   3.726 -1.5641 -2.5120 -0.1192
  538DG      H812359   3.317   0.727   3.641 -1.8349  1.3529 -0.1020
  538DG      O912360   3.209   1.217   4.112  0.0415  0.3709 -0.1649
  538DG     O1012361   3.307   0.865   3.805  0.4268  0.1979 -0.0875
  538DG     C1112362   3.137   1.116   4.187  0.3499 -0.3597 -0.5905
  538DG     C1212363   3.216   0.780   3.877 -0.5907 -0.1016 -0.1273
  538DG     H1312364   3.077   1.156   4.269  2.1454 -1.3404  1.2969
  538DG     H1412365   3.210   1.055   4.239  0.2345  0.6346  0.8004
  538DG     H1512366   3.256   0.684   3.911  1.0619  0.8198  0.6191
  538DG     H1612367   3.143   0.757   3.799 -0.3527 -2.5304  0.2875
  538DG     C1712368   3.033   1.047   4.099  0.7187  0.5633  0.0362
  538DG     C1812369   3.144   0.855   3.995 -0.2048  0.0931  0.2519
  538DG     O1912370   3.098   0.993   3.985 -0.2640  0.6978 -0.2323
  538DG     H2012371   2.957   1.122   4.077 -0.2708 -0.1129  1.0456
  538DG     H2112372   2.964   0.974   4.140 -1.6135  1.3261 -2.2338
  538DG     H2212373   3.057   0.792   4.015 -0.1268 -0.9500 -2.3540
  538DG     H2312374   3.212   0.844   4.080  1.5617 -1.4806 -1.2582
  539DG      C112375   2.563   0.236   3.960 -0.0894  0.6958 -0.2510
  539DG      C212376   3.148  -0.252   3.752 -0.3610 -0.4657 -0.7072
  539DG      H312377   2.580   0.312   4.036 -0.9455 -0.7021  1.4143
  539DG      H412378   2.545   0.139   4.007 -0.2359 -0.8518 -3.2552
  539DG      H512379   2.468   0.249   3.908  1.0093 -0.6353 -2.7756
  539DG      H612380   3.216  -0.303   3.820  1.5576  1.4278 -1.0950
  539DG      H712381   3.047  -0.286   3.773 -1.0092  0.3820 -2.2376
  539DG      H812382   3.163  -0.272   3.645 -1.2193 -1.3342 -0.6767
  539DG      O912383   2.668   0.221   3.869  0.3738  1.0762 -0.2210
  539DG     O1012384   3.161  -0.122   3.801 -0.4628 -0.2866 -0.6916
  539DG     C1112385   2.641   0.107   3.789 -0.0791  0.1475 -0.4397
  539DG     C1212386   3.073  -0.031   3.726 -0.8045  0.6242  0.3519
  539DG     H1312387   2.536   0.106   3.760  0.3544 -0.5680 -2.1057
  539DG     H1412388   2.654   0.018   3.851  1.9643  1.8871  1.7990
  539DG     H1512389   3.106  -0.031   3.622  0.3289  2.9555  0.6438
  539DG     H1612390   3.114   0.066   3.754 -0.1899  0.2090  0.9109
  539DG     C1712391   2.732   0.096   3.658  0.0742 -0.4206  0.0190
  539DG     C1812392   2.917  -0.025   3.753  0.1555 -0.0678 -0.6463
  539DG     O1912393   2.870   0.093   3.695 -1.0278  0.3818  0.1173
  539DG     H2012394   2.720   0.180   3.590  0.1573  1.0742  1.7617
  539DG     H2112395   2.711  -0.000   3.611  1.5442 -0.2966 -0.9754
  539DG     H2212396   2.872  -0.111   3.704 -1.0276  0.2005 -0.0607
  539DG     H2312397   2.906  -0.021   3.862  1.4596  0.6774 -0.5091
  540DG      C112398   1.726   0.220   1.418 -0.5944  0.0077  0.4852
  540DG      C212399   1.916   0.591   0.781  0.0105 -0.4226  0.9870
  540DG      H312400   1.703   0.115   1.432  1.6297 -0.1674  3.6238
  540DG      H412401   1.639   0.274   1.455 -0.9364  0.2851 -0.6622
  540DG      H512402   1.813   0.246   1.477  0.5615 -1.4243 -0.5189
  540DG      H612403   1.915   0.694   0.818  0.5215 -0.2807  0.6171
  540DG      H712404   2.014   0.561   0.820  0.0660 -0.1679  1.0477
  540DG      H812405   1.911   0.589   0.673 -0.5662  0.0520  0.9973
  540DG      O912406   1.756   0.246   1.275  0.2125  0.1799 -0.2652
  540DG     O1012407   1.811   0.516   0.831 -0.4700  0.4061  0.5224
  540DG     C1112408   1.654   0.177   1.199  0.9074  0.8641 -0.1814
  540DG     C1212409   1.808   0.383   0.782 -0.2011  0.5487  0.0110
  540DG     H1312410   1.564   0.239   1.197 -0.4178 -0.9104  1.4320
  540DG     H1412411   1.633   0.078   1.238 -0.5004  0.8598 -0.8952
  540DG     H1512412   1.909   0.346   0.801  0.3285  1.5490 -0.7544
  540DG     H1612413   1.793   0.380   0.674  1.3534 -1.5358 -0.2041
  540DG     C1712414   1.683   0.157   1.047 -0.2404 -0.0422  0.2736
  540DG     C1812415   1.707   0.284   0.848 -0.3134 -0.3267 -0.3343
  540DG     O1912416   1.745   0.273   0.987  0.2957  0.6395 -0.1627
  540DG     H2012417   1.586   0.132   1.004  0.3825 -0.6039 -0.8418
  540DG     H2112418   1.751   0.074   1.032 -1.3983 -1.0103  0.2211
  540DG     H2212419   1.603   0.315   0.833  0.1596  0.8962 -1.2993
  540DG     H2312420   1.725   0.185   0.807  1.6127  0.6308 -1.9648
  541DG      C112421   3.393   2.191   4.407 -0.5814 -0.0593 -0.2486
  541DG      C212422   3.442   1.679   3.972 -0.7049  0.4308  0.8816
  541DG      H312423   3.396   2.225   4.511  2.5335 -0.6938 -0.0166
  541DG      H412424   3.295   2.217   4.368  0.2292  1.8592 -1.1345
  541DG      H512425   3.474   2.252   4.366 -0.1533  0.1865  0.9117
  541DG      H612426   3.347   1.692   3.920 -0.1697 -0.1532 -0.2950
  541DG      H712427   3.515   1.745   3.925 -1.8538 -0.0539 -1.7730
  541DG      H812428   3.474   1.579   3.941  0.8660  0.6050  1.8582
  541DG      O912429   3.425   2.053   4.396 -0.1130 -0.0925  0.1992
  541DG     O1012430   3.437   1.691   4.117 -0.4583 -0.3158  0.0377
  541DG     C1112431   3.540   2.021   4.471 -0.0812  0.9822 -0.0265
  541DG     C1212432   3.553   1.634   4.177  0.4126  0.0413 -0.1515
  541DG     H1312433   3.531   2.046   4.576  1.3727  0.9704  0.1235
  541DG     H1412434   3.626   2.072   4.427  0.1342  1.9442  1.4772
  541DG     H1512435   3.637   1.675   4.120 -0.4060  1.2673 -0.5092
  541DG     H1612436   3.543   1.525   4.179 -1.9556  0.2322  1.2131
  541DG     C1712437   3.562   1.867   4.463  0.0081 -0.3460 -0.2294
  541DG     C1812438   3.577   1.679   4.325 -0.3893 -0.1043 -0.0093
  541DG     O1912439   3.552   1.822   4.327  0.4495  0.5907 -0.3717
  541DG     H2012440   3.495   1.811   4.528  0.0031 -0.6711 -0.5104
  541DG     H2112441   3.661   1.847   4.503  1.7291  1.6743 -3.0796
  541DG     H2212442   3.490   1.632   4.372  0.4604  0.0198  1.7389
  541DG     H2312443   3.662   1.643   4.382 -1.0870  1.9052  2.4458
  542DG      C112444   1.584   0.958   5.162 -0.7551  0.2779  0.2194
  542DG      C212445   1.256   1.646   4.730  0.1353 -0.2002 -0.6361
  542DG      H312446   1.501   0.888   5.153 -1.5444  0.8908  2.0734
  542DG      H412447   1.613   0.965   5.267  0.9543  2.8094 -0.3413
  542DG      H512448   1.677   0.916   5.124 -0.5135  0.5623  0.4898
  542DG      H612449   1.290   1.653   4.626 -0.5478  0.0032 -0.8483
  542DG      H712450   1.200   1.552   4.734  1.0160 -0.7073  0.2643
  542DG      H812451   1.201   1.730   4.772  0.5750 -1.0959  1.9319
  542DG      O912452   1.567   1.086   5.110  0.0024  0.6544  0.4397
  542DG     O1012453   1.374   1.620   4.808 -0.5547  0.1287 -0.1516
  542DG     C1112454   1.684   1.161   5.095  0.0525  0.5737  0.4866
  542DG     C1212455   1.399   1.491   4.855 -0.2139  0.5730 -0.9608
  542DG     H1312456   1.752   1.134   5.015  1.8876  1.9204  1.5115
  542DG     H1412457   1.744   1.154   5.186 -0.1730 -0.9277  0.5283
  542DG     H1512458   1.403   1.434   4.763  1.5089  0.4502 -0.8509
  542DG     H1612459   1.313   1.455   4.911  0.5192  1.7718  1.0987
  542DG     C1712460   1.647   1.311   5.067  0.2197 -0.3535 -0.0711
  542DG     C1812461   1.533   1.479   4.930 -0.2519 -0.0776  1.1418
  542DG     O1912462   1.568   1.343   4.954  0.5192  0.1959 -0.1331
  542DG     H2012463   1.744   1.357   5.047  1.4502 -2.3048  1.0561
  542DG     H2112464   1.595   1.349   5.155 -0.2645 -1.0724 -0.0417
  542DG     H2212465   1.619   1.524   4.880 -1.5061  1.8640  0.6184
  542DG     H2312466   1.521   1.529   5.025 -4.4062  0.6326  0.4522
  543DG      C112467   0.605   1.821   3.512 -0.7882  0.3959 -0.1997
  543DG      C212468   0.737   1.921   4.344  0.3818 -0.0712 -0.0964
  543DG      H312469   0.597   1.888   3.426 -0.6240  1.3034  0.4821
  543DG      H412470   0.513   1.810   3.568  0.8728 -1.4786  2.4035
  543DG      H512471   0.637   1.722   3.479  0.3360  0.6800 -0.0208
  543DG      H612472   0.661   1.999   4.328  0.9062  0.5166  0.2529
  543DG      H712473   0.684   1.829   4.367  0.2340  0.3194  1.1803
  543DG      H812474   0.781   1.953   4.438  0.8020 -0.5201 -0.1423
  543DG      O912475   0.702   1.863   3.606  0.5190 -0.3426 -0.4573
  543DG     O1012476   0.831   1.896   4.238  0.3087 -0.2858  0.1143
  543DG     C1112477   0.681   1.989   3.676 -0.0516 -0.5569  0.2153
  543DG     C1212478   0.770   1.849   4.123 -0.1939  0.3074 -0.5080
  543DG     H1312479   0.577   1.998   3.705 -0.2010  0.0422 -0.4623
  543DG     H1412480   0.684   2.068   3.600  0.0561 -1.7181 -1.0151
  543DG     H1512481   0.662   1.865   4.117 -0.6668 -0.2309  3.8411
  543DG     H1612482   0.792   1.742   4.122 -1.0751  0.1038 -2.5291
  543DG     C1712483   0.790   2.013   3.788 -0.0232  0.3421  0.1410
  543DG     C1812484   0.848   1.926   4.016 -0.1689  0.0589  0.5584
  543DG     O1912485   0.780   1.919   3.891  0.6202  0.4363  0.0318
  543DG     H2012486   0.780   2.119   3.813 -1.9569 -0.1496  1.7114
  543DG     H2112487   0.888   2.010   3.741  0.2470 -0.8574  0.7415
  543DG     H2212488   0.858   2.032   4.040  1.0736 -0.0048  0.4093
  543DG     H2312489   0.949   1.885   4.002 -0.6363 -0.7306 -0.7396
  544DG      C112490   1.765   1.559   2.883  0.2951 -0.3981 -0.2141
  544DG      C212491   2.128   0.908   2.847 -0.0171 -0.0695  0.1291
  544DG      H312492   1.778   1.659   2.926 -0.4891 -0.5803  0.4795
  544DG      H412493   1.658   1.541   2.876  0.4732 -1.7844  0.3106
  544DG      H512494   1.811   1.550   2.785  2.9129  0.8295  0.8156
  544DG      H612495   2.152   0.820   2.907 -1.5022  0.0604  0.9549
  544DG      H712496   2.021   0.909   2.823  0.0996  0.4305 -0.3953
  544DG      H812497   2.179   0.905   2.751 -1.2608 -0.0660 -0.5606
  544DG      O912498   1.819   1.474   2.987  0.4632 -0.3569 -0.0421
  544DG     O1012499   2.143   1.027   2.927 -0.3341  0.6977  0.0263
  544DG     C1112500   1.955   1.503   3.010 -0.0712  0.2063  0.0605
  544DG     C1212501   2.069   1.027   3.048  0.3008  0.3150 -0.3639
  544DG     H1312502   1.959   1.597   3.066  0.2644  0.3757 -0.2471
  544DG     H1412503   2.001   1.515   2.912 -0.9734 -0.3782 -0.4487
  544DG     H1512504   2.118   0.950   3.109 -0.6015 -0.6062 -0.7774
  544DG     H1612505   1.965   0.996   3.043  0.4940 -0.6921  1.1890
  544DG     C1712506   2.024   1.397   3.092 -0.0867 -0.8963  0.2888
  544DG     C1812507   2.076   1.168   3.113 -0.4464  0.3696 -0.4431
  544DG     O1912508   2.024   1.271   3.025 -0.2949 -0.3979  0.2178
  544DG     H2012509   1.985   1.392   3.194 -0.8028 -4.2945 -0.0514
  544DG     H2112510   2.120   1.433   3.127  0.3898 -2.7078  0.9588
  544DG     H2212511   2.013   1.152   3.200  0.6483  0.3059  0.3620
  544DG     H2312512   2.175   1.192   3.152 -0.1019 -0.2844 -0.8925
  545DG      C112513   0.750   0.673   4.519  0.4449  0.1907 -0.0224
  545DG      C212514   0.605   0.146   4.976  0.2457  0.0863  0.3489
  545DG      H312515   0.821   0.674   4.436  0.7697 -4.2102 -0.0287
  545DG      H412516   0.809   0.721   4.598 -0.4834 -0.2411  0.9564
  545DG      H512517   0.663   0.736   4.502 -0.6925 -1.1075  0.7775
  545DG      H612518   0.622   0.039   4.980 -0.7123 -0.0968 -0.1169
  545DG      H712519   0.674   0.190   5.047  1.0564 -0.9746  0.2373
  545DG      H812520   0.508   0.155   5.025 -0.3716 -2.3562 -0.3007
  545DG      O912521   0.714   0.541   4.555  0.1558 -0.3857 -0.3535
  545DG     O1012522   0.618   0.200   4.849  0.0304  0.5112 -0.4250
  545DG     C1112523   0.644   0.494   4.451  0.7402  0.5326  1.2155
  545DG     C1212524   0.513   0.153   4.757 -0.6446  0.0846 -0.9192
  545DG     H1312525   0.682   0.524   4.354 -2.7313 -1.2382 -0.9061
  545DG     H1412526   0.541   0.530   4.460  0.2773 -0.6272  0.8161
  545DG     H1512527   0.423   0.211   4.779 -0.2533 -0.2842  2.0331
  545DG     H1612528   0.478   0.050   4.765 -0.4784  0.0954  0.1357
  545DG     C1712529   0.643   0.341   4.463  0.4497 -0.1147  0.8530
  545DG     C1812530   0.557   0.180   4.616 -0.0265  0.0288  0.1708
  545DG     O1912531   0.600   0.314   4.592  0.0272 -0.0674 -0.7458
  545DG     H2012532   0.741   0.297   4.445 -0.2979 -2.5904  2.4528
  545DG     H2112533   0.574   0.309   4.384  0.9524 -2.4095  1.2782
  545DG     H2212534   0.643   0.114   4.601  0.8020  0.8664  1.0841
  545DG     H2312535   0.481   0.152   4.544 -0.2609  1.0069  0.0284
  546DG      C112536   3.706   5.373   3.992 -0.2584 -0.3236  0.4932
  546DG      C212537   3.408   4.794   4.515 -0.4444  0.3006  0.5020
  546DG      H312538   3.791   5.358   3.925 -0.7914  0.8456 -0.4938
  546DG      H412539   3.754   5.391   4.088 -0.3494 -0.0106  0.4823
  546DG      H512540   3.654   5.463   3.958  2.8568  1.5080  0.1866
  546DG      H612541   3.376   4.863   4.593  1.8526  0.6840  1.1879
  546DG      H712542   3.326   4.722   4.512  0.1242 -0.3145 -0.5445
  546DG      H812543   3.496   4.740   4.551 -0.1861  0.3907  0.0170
  546DG      O912544   3.613   5.272   4.003 -0.3550 -0.3561 -0.4958
  546DG     O1012545   3.425   4.848   4.384 -0.3024  0.5965  0.2450
  546DG     C1112546   3.667   5.157   4.063 -0.2085 -0.7521 -0.4765
  546DG     C1212547   3.504   4.769   4.295 -0.7266 -0.2558 -0.4842
  546DG     H1312548   3.698   5.167   4.167 -2.3351  0.7235  0.0894
  546DG     H1412549   3.756   5.129   4.006  0.4149  0.9417 -0.3903
  546DG     H1512550   3.466   4.667   4.288 -1.4452 -0.0546  0.2785
  546DG     H1612551   3.611   4.772   4.317 -0.9532  0.7611  0.6215
  546DG     C1712552   3.566   5.040   4.050  0.0291 -0.7422 -0.3785
  546DG     C1812553   3.490   4.832   4.158  0.0953 -0.0865 -0.2035
  546DG     O1912554   3.588   4.943   4.150  0.2231 -0.2842  0.4895
  546DG     H2012555   3.573   4.992   3.953  0.7498 -5.4627  1.7064
  546DG     H2112556   3.468   5.088   4.055  1.1724  1.6235  1.2909
  546DG     H2212557   3.507   4.757   4.081 -1.1526 -1.2567  0.6185
  546DG     H2312558   3.385   4.858   4.152  0.1991  0.5090  0.3962
  547DG      C112559   0.058   0.736   4.092 -0.0835  0.2691 -0.5626
  547DG      C212560  -0.029   0.261   3.449  1.4567  0.5410 -0.9305
  547DG      H312561   0.014   0.761   4.189 -1.3638 -0.2792 -0.9766
  547DG      H412562  -0.021   0.773   4.027  0.5145  0.9719 -0.9008
  547DG      H512563   0.148   0.791   4.064  0.6742 -2.1954 -3.4053
  547DG      H612564  -0.018   0.365   3.419 -0.2842  1.2302  0.6435
  547DG      H712565   0.067   0.214   3.427  2.3217  1.8010 -0.0199
  547DG      H812566  -0.101   0.211   3.384  0.5406  2.7398 -1.6812
  547DG      O912567   0.081   0.601   4.067 -0.9979  0.1500  0.3952
  547DG     O1012568  -0.069   0.238   3.585 -0.0217  0.1234  0.3673
  547DG     C1112569  -0.041   0.530   4.067 -0.3110  0.2343  0.2902
  547DG     C1212570   0.021   0.303   3.677  0.1858  0.3116 -0.2374
  547DG     H1312571  -0.110   0.573   3.994 -1.2016 -0.0779  0.9248
  547DG     H1412572  -0.087   0.531   4.166  1.0495  0.9105  0.9458
  547DG     H1512573   0.047   0.406   3.651  1.7880 -0.0733 -0.2586
  547DG     H1612574   0.114   0.247   3.679 -0.2325 -0.4034 -0.4642
  547DG     C1712575  -0.032   0.383   4.036  1.0536 -0.9863 -0.5155
  547DG     C1812576  -0.050   0.292   3.809 -0.0716  0.0363 -0.2510
  547DG     O1912577   0.020   0.366   3.907 -0.0371 -0.3243  0.3650
  547DG     H2012578  -0.134   0.346   4.031  0.9398 -0.5981 -1.2422
  547DG     H2112579   0.027   0.322   4.104  0.7323 -0.4878  0.2221
  547DG     H2212580  -0.151   0.332   3.805  0.3181  1.1875  0.9178
  547DG     H2312581  -0.066   0.190   3.845  0.9474 -0.0511 -0.0034
  548DG      C112582   0.335   3.012   0.046  0.0328 -0.1451 -0.4446
  548DG      C212583   1.048   2.935   0.288 -0.1336 -0.1727  0.3227
  548DG      H312584   0.265   3.092   0.074  0.4143 -1.2673  4.8700
  548DG      H412585   0.322   2.928   0.115  2.0545  0.3119  0.5750
  548DG      H512586   0.311   2.964  -0.048 -3.7075 -1.0613  0.8059
  548DG      H612587   1.108   2.926   0.197 -1.5314  0.2056 -0.6691
  548DG      H712588   1.120   2.958   0.366 -0.1867 -0.1002  0.3498
  548DG      H812589   0.997   2.838   0.297 -0.4810  0.2027  3.3135
  548DG      O912590   0.461   3.071   0.046  0.1558 -0.0651  0.8997
  548DG     O1012591   0.954   3.042   0.271 -0.0987  0.6998  0.3423
  548DG     C1112592   0.500   3.110   0.175 -0.2265  0.1921 -0.2927
  548DG     C1212593   0.891   3.070   0.395 -0.1191  0.4030 -0.8344
  548DG     H1312594   0.472   3.034   0.248 -0.1329  0.4610  0.0280
  548DG     H1412595   0.459   3.208   0.202  0.3202  0.2084  0.5138
  548DG     H1512596   0.965   3.092   0.472  0.4829 -2.2935 -0.5566
  548DG     H1612597   0.837   2.986   0.439  0.1441 -0.6422 -2.4435
  548DG     C1712598   0.656   3.128   0.194 -0.4707 -0.0505 -0.5366
  548DG     C1812599   0.801   3.197   0.381 -0.6605  0.0291 -0.0864
  548DG     O1912600   0.672   3.157   0.336 -0.3615 -0.3357 -0.1123
  548DG     H2012601   0.688   3.209   0.128  2.0505  0.2260  0.9120
  548DG     H2112602   0.708   3.035   0.170 -0.5602 -0.1397 -0.3867
  548DG     H2212603   0.795   3.244   0.479 -1.5921  0.5222 -0.3770
  548DG     H2312604   0.853   3.264   0.313 -0.0201 -1.2889 -0.9473
  549DG      C112605   2.697   4.536   1.671 -0.1278 -0.5857 -0.0073
  549DG      C212606   2.847   5.128   2.013  0.4975  0.0701 -0.4264
  549DG      H312607   2.686   4.567   1.567  0.3907 -1.3513 -0.3008
  549DG      H412608   2.598   4.522   1.715 -0.7335 -0.8874 -1.3997
  549DG      H512609   2.747   4.439   1.670  0.4543 -0.3097  0.8124
  549DG      H612610   2.953   5.140   1.989  0.9065  0.3288  1.3332
  549DG      H712611   2.793   5.193   1.944  1.3866  0.6490 -0.5901
  549DG      H812612   2.829   5.167   2.114 -2.0447 -1.2579 -0.3005
  549DG      O912613   2.772   4.621   1.754 -0.3307  0.3838  0.3396
  549DG     O1012614   2.813   4.992   1.997 -0.1897  0.1075  0.4536
  549DG     C1112615   2.912   4.613   1.729  0.2939  0.2269 -0.3103
  549DG     C1212616   2.871   4.903   2.096  0.2216 -0.2773  0.9861
  549DG     H1312617   2.945   4.678   1.648 -0.3150 -0.0837 -0.8187
  549DG     H1412618   2.947   4.517   1.691  0.7161 -0.8485  2.5135
  549DG     H1512619   2.811   4.894   2.187  0.1957  1.7794  1.2127
  549DG     H1612620   2.961   4.956   2.129 -0.2983  0.9590  0.4844
  549DG     C1712621   2.999   4.650   1.850  0.3304 -0.0904  0.4458
  549DG     C1812622   2.890   4.770   2.029  0.2798  0.3900  0.3172
  549DG     O1912623   2.959   4.775   1.903 -0.2411  0.5095 -0.3510
  549DG     H2012624   3.101   4.667   1.818  0.6540 -1.5272  0.6336
  549DG     H2112625   3.002   4.565   1.920 -3.7477 -0.2913  0.6671
  549DG     H2212626   2.952   4.724   2.106 -0.7566 -1.6169  0.0212
  549DG     H2312627   2.805   4.702   2.023  2.7840 -2.8959 -0.9494
  550DG      C112628   0.439   3.089   4.585 -0.4578 -0.0249 -0.5422
  550DG      C212629   0.331   3.412   5.406 -0.1958  0.4926 -0.1429
  550DG      H312630   0.433   3.057   4.481  1.6565 -2.0025 -0.1331
  550DG      H412631   0.545   3.085   4.612 -0.9140 -0.9308  1.2547
  550DG      H512632   0.399   3.190   4.590  3.8360  1.8641  2.8193
  550DG      H612633   0.398   3.334   5.443 -0.0434  0.1026 -1.2028
  550DG      H712634   0.368   3.509   5.438  0.4673  0.0906  0.3370
  550DG      H812635   0.233   3.381   5.440  0.2020 -0.0567  0.5322
  550DG      O912636   0.360   2.994   4.666 -0.1723 -0.5795 -0.1587
  550DG     O1012637   0.349   3.416   5.264  1.0623 -0.3447  0.1358
  550DG     C1112638   0.380   3.018   4.806 -0.5517 -0.0344  0.2193
  550DG     C1212639   0.311   3.287   5.202 -0.0080 -0.3013  0.2592
  550DG     H1312640   0.484   3.008   4.836 -0.7811  1.3573  1.6327
  550DG     H1412641   0.319   2.948   4.862 -2.9302  0.5240 -1.4803
  550DG     H1512642   0.208   3.252   5.213 -0.9042  0.5784 -3.7994
  550DG     H1612643   0.369   3.204   5.242  0.7450 -1.3388 -2.7030
  550DG     C1712644   0.335   3.160   4.860 -0.4323 -0.3322 -0.0798
  550DG     C1812645   0.344   3.292   5.050  0.6766 -0.1257 -0.0443
  550DG     O1912646   0.346   3.159   5.002  0.1238  0.4739 -0.3476
  550DG     H2012647   0.231   3.174   4.830 -0.4753  0.4222  0.3999
  550DG     H2112648   0.399   3.234   4.811 -0.6164 -0.2329 -0.1715
  550DG     H2212649   0.276   3.358   4.997  1.6976  2.4457  1.6495
  550DG     H2312650   0.445   3.331   5.034  1.0950 -0.9790  0.4237
  551DG      C112651   5.114   2.704   3.913 -0.5501 -0.4199  1.2448
  551DG      C212652   5.165   2.152   3.347  0.0625 -0.3833 -1.2608
  551DG      H312653   5.070   2.659   4.003  1.2200  1.9671  3.4670
  551DG      H412654   5.088   2.810   3.919 -0.5833 -0.3134 -0.3767
  551DG      H512655   5.221   2.685   3.920 -0.4245 -0.4042 -0.3270
  551DG      H612656   5.094   2.114   3.420 -0.9310 -0.5587 -2.2917
  551DG      H712657   5.098   2.164   3.262 -3.4597 -1.3046  1.1532
  551DG      H812658   5.235   2.070   3.328  0.6192 -0.4370  0.7832
  551DG      O912659   5.065   2.655   3.785  0.2365 -0.2236 -0.2903
  551DG     O1012660   5.203   2.281   3.392 -0.1591 -0.2593  0.1729
  551DG     C1112661   5.138   2.706   3.677  0.2351  0.0498  0.2797
  551DG     C1212662   5.278   2.278   3.517  0.0799 -0.0671 -0.0137
  551DG     H1312663   5.160   2.807   3.710  0.6589  0.1098 -0.1705
  551DG     H1412664   5.066   2.709   3.595 -1.8713 -1.0094  1.9743
  551DG     H1512665   5.366   2.215   3.506  0.7942  1.0910 -1.2764
  551DG     H1612666   5.218   2.240   3.599 -1.2212 -0.0414 -0.9057
  551DG     C1712667   5.262   2.635   3.634 -0.5998  0.6144 -0.0768
  551DG     C1812668   5.324   2.419   3.548  0.0802 -0.4454 -0.8894
  551DG     O1912669   5.216   2.502   3.597 -0.1788  1.0512 -0.9331
  551DG     H2012670   5.332   2.630   3.718  1.4077 -1.3453 -1.7084
  551DG     H2112671   5.323   2.687   3.559 -0.9262 -0.2924 -0.9968
  551DG     H2212672   5.392   2.416   3.634  0.2208 -0.0245 -0.9808
  551DG     H2312673   5.359   2.461   3.454 -1.8433  0.7728 -1.1215
  552DG      C112674   2.358   1.890   5.273  0.3938 -0.8733  0.2409
  552DG      C212675   2.707   2.251   5.892  0.0583 -0.0921  0.0808
  552DG      H312676   2.258   1.925   5.246 -0.0946  0.2790  3.2153
  552DG      H412677   2.351   1.816   5.353  1.3661  0.8211  1.9716
  552DG      H512678   2.409   1.840   5.191  2.1476  1.2320 -0.0388
  552DG      H612679   2.778   2.331   5.910 -1.8441  1.4943  0.9553
  552DG      H712680   2.611   2.282   5.935  0.1751  2.8554 -1.5319
  552DG      H812681   2.738   2.162   5.946  0.0112  0.5437  1.1950
  552DG      O912682   2.435   2.006   5.312 -0.3766  0.4731 -0.5416
  552DG     O1012683   2.692   2.211   5.761  0.1509  0.2370  0.4249
  552DG     C1112684   2.367   2.078   5.413  0.8171 -0.7650  0.0213
  552DG     C1212685   2.637   2.315   5.677 -0.0926  0.3160 -0.0963
  552DG     H1312686   2.337   2.022   5.501 -0.4366  1.2180  0.9037
  552DG     H1412687   2.267   2.094   5.374  1.4312 -0.8145 -1.6890
  552DG     H1512688   2.691   2.409   5.689  1.3943 -0.6712  1.3901
  552DG     H1612689   2.531   2.328   5.701  0.4289 -0.2920  2.9180
  552DG     C1712690   2.452   2.202   5.441  0.1809  0.2880  0.4945
  552DG     C1812691   2.662   2.289   5.531 -0.2027  0.2335  0.0452
  552DG     O1912692   2.580   2.172   5.496 -0.5550 -0.6648  0.4834
  552DG     H2012693   2.405   2.275   5.506 -0.7506  0.0700  0.0767
  552DG     H2112694   2.478   2.263   5.355 -3.6720  1.6295  0.1002
  552DG     H2212695   2.627   2.370   5.468  1.8740  0.3853 -0.9870
  552DG     H2312696   2.770   2.270   5.530 -0.4647 -1.4425 -1.7466
  553DG      C112697   4.928   4.982   4.720  0.3732 -0.0715  0.0209
  553DG      C212698   5.155   4.437   5.415  0.5435  0.3763  0.1801
  553DG      H312699   4.956   4.967   4.615  1.2455 -0.2468  0.2708
  553DG      H412700   4.962   5.082   4.748 -2.3024  0.9750 -0.1542
  553DG      H512701   4.819   4.981   4.721  0.2874 -1.4729 -2.4331
  553DG      H612702   5.237   4.400   5.477  0.1215 -0.2400  0.3776
  553DG      H712703   5.066   4.467   5.470 -0.3924  0.1886 -1.1723
  553DG      H812704   5.128   4.357   5.347  2.5645  0.5412 -0.9051
  553DG      O912705   4.985   4.877   4.808  0.1600 -0.5634 -0.5530
  553DG     O1012706   5.204   4.555   5.352 -0.6187  0.1910  0.2660
  553DG     C1112707   4.977   4.910   4.949  0.0535  0.5596 -0.0772
  553DG     C1212708   5.130   4.616   5.251 -0.5589  0.3215 -0.4194
  553DG     H1312709   4.888   4.962   4.985  0.4084  0.9018  0.3043
  553DG     H1412710   5.056   4.985   4.948  0.0668  0.5447 -0.2925
  553DG     H1512711   5.029   4.628   5.290  0.0965 -1.1995  1.9951
  553DG     H1612712   5.123   4.546   5.168  0.0267  0.5512 -0.6645
  553DG     C1712713   5.033   4.789   5.027 -0.7638  0.0540 -0.4355
  553DG     C1812714   5.185   4.748   5.212 -0.1534 -0.3719 -0.0511
  553DG     O1912715   5.081   4.825   5.158  0.9141  0.0271 -0.4827
  553DG     H2012716   5.116   4.752   4.968 -2.6797  0.5195 -3.6522
  553DG     H2112717   4.958   4.715   5.055 -1.7274  0.6798 -1.2747
  553DG     H2212718   5.217   4.797   5.304 -1.6018  1.0488 -0.2504
  553DG     H2312719   5.279   4.742   5.157 -0.1470  2.5207 -0.5432
  554DG      C112720   4.641   3.011   2.067 -0.3988  0.1447 -0.4213
  554DG      C212721   4.007   3.214   2.312 -0.7464 -0.9134 -0.1794
  554DG      H312722   4.743   3.044   2.087 -1.1900  1.5441  1.6662
  554DG      H412723   4.617   2.984   1.965 -0.4261 -0.1846 -0.3284
  554DG      H512724   4.618   2.920   2.121 -0.5125 -0.0274 -0.7630
  554DG      H612725   4.010   3.134   2.238 -2.1264 -0.0792 -1.1791
  554DG      H712726   3.908   3.258   2.308  0.1513  1.2580  0.2370
  554DG      H812727   4.082   3.284   2.276  0.2418 -1.7732  0.1581
  554DG      O912728   4.541   3.097   2.118 -0.0749 -0.6243  0.0187
  554DG     O1012729   4.041   3.165   2.439  0.3418 -0.4856  0.6951
  554DG     C1112730   4.567   3.134   2.255  0.2140 -0.0853  0.1751
  554DG     C1212731   4.164   3.092   2.450 -0.3287 -0.4206  0.3013
  554DG     H1312732   4.670   3.168   2.267  0.6782 -2.1946  3.0863
  554DG     H1412733   4.560   3.044   2.315 -0.7232  0.7431  1.3586
  554DG     H1512734   4.153   2.999   2.394 -2.8278 -1.2909  2.0518
  554DG     H1612735   4.163   3.055   2.553 -1.2741 -2.2084 -0.3081
  554DG     C1712736   4.474   3.249   2.299  0.4688  0.7151  0.9758
  554DG     C1812737   4.297   3.162   2.432  0.1663 -0.4521  0.0562
  554DG     O1912738   4.338   3.196   2.298 -0.0655 -0.2461  0.3048
  554DG     H2012739   4.471   3.328   2.224  0.0633  0.4703  0.7317
  554DG     H2112740   4.494   3.300   2.393 -0.4067  0.6562  1.2018
  554DG     H2212741   4.298   3.251   2.496 -2.2230 -0.8832  0.7707
  554DG     H2312742   4.370   3.089   2.468  1.6311  0.3761 -1.1334
  555DG      C112743   4.227   4.878   5.303  0.2047 -0.3414  0.0523
  555DG      C212744   4.310   5.392   5.757  0.1266 -0.2156  0.3362
  555DG      H312745   4.280   4.806   5.366  1.3744  2.0303  1.9382
  555DG      H412746   4.240   4.835   5.204 -1.7525 -0.8043 -0.0450
  555DG      H512747   4.126   4.881   5.344  0.7167 -1.1097  1.4349
  555DG      H612748   4.308   5.496   5.789 -5.1781 -0.3471  1.2591
  555DG      H712749   4.208   5.355   5.764 -0.4864  1.6441  2.1098
  555DG      H812750   4.355   5.335   5.838 -2.2158 -0.8980  1.2469
  555DG      O912751   4.292   5.008   5.315 -0.2890 -0.2631  0.3646
  555DG     O1012752   4.362   5.350   5.630  0.0118  0.6622 -0.5701
  555DG     C1112753   4.246   5.105   5.225 -1.1650  0.1189 -0.4019
  555DG     C1212754   4.349   5.440   5.524  0.4376  0.0678 -0.1364
  555DG     H1312755   4.145   5.133   5.256 -0.6906  2.8078 -1.0443
  555DG     H1412756   4.242   5.067   5.123 -1.4483  0.1317 -0.3974
  555DG     H1512757   4.414   5.523   5.552 -2.4598  1.4905  3.2767
  555DG     H1612758   4.246   5.472   5.507 -0.2255 -0.7121  2.0808
  555DG     C1712759   4.348   5.219   5.234 -0.5424 -0.6710  0.2200
  555DG     C1812760   4.416   5.378   5.400  0.2489  0.9722  0.4303
  555DG     O1912761   4.329   5.276   5.365  0.3806  0.1744  0.7142
  555DG     H2012762   4.323   5.287   5.153  0.6145  1.8935  1.8633
  555DG     H2112763   4.444   5.176   5.208 -0.3074 -2.3228  3.3458
  555DG     H2212764   4.414   5.446   5.315 -0.1978  1.2914  0.6901
  555DG     H2312765   4.515   5.343   5.428 -0.7697 -1.2697  1.4787
  556DG      C112766   1.309   4.472   0.704 -0.2439 -0.5765  0.6641
  556DG      C212767   1.919   4.110   1.105 -0.2704  0.2172  0.1905
  556DG      H312768   1.234   4.405   0.747  0.1994 -0.9275  0.8934
  556DG      H412769   1.277   4.525   0.614 -2.9898 -2.3014  0.4939
  556DG      H512770   1.318   4.544   0.784  0.9086 -0.4756  0.4559
  556DG      H612771   2.012   4.053   1.113  0.4188  1.3074  0.2516
  556DG      H712772   1.949   4.212   1.132  0.2724  1.0657 -3.1359
  556DG      H812773   1.862   4.073   1.189  0.0763 -0.0451  0.3138
  556DG      O912774   1.431   4.402   0.691  0.1055  0.6897  0.5063
  556DG     O1012775   1.863   4.090   0.974 -0.3240 -0.0866 -0.7276
  556DG     C1112776   1.417   4.270   0.645  0.1911  0.2062 -0.5268
  556DG     C1212777   1.732   4.144   0.957 -0.5688  0.2276 -0.0864
  556DG     H1312778   1.386   4.276   0.541 -1.6400 -1.9291 -0.1909
  556DG     H1412779   1.347   4.224   0.715  1.6081 -0.2025  0.6889
  556DG     H1512780   1.724   4.249   0.985  1.0778 -0.3341  2.8582
  556DG     H1612781   1.660   4.090   1.020  1.9761 -1.1692  1.8434
  556DG     C1712782   1.554   4.204   0.658 -0.6358  0.1456 -0.5911
  556DG     C1812783   1.711   4.135   0.811 -0.2630  0.1905 -0.3245
  556DG     O1912784   1.583   4.188   0.790  0.4692  0.4322  0.1644
  556DG     H2012785   1.635   4.261   0.612  0.9630 -1.5426 -0.0172
  556DG     H2112786   1.555   4.104   0.614  0.0782  0.3683 -1.1057
  556DG     H2212787   1.790   4.188   0.758  0.6011  0.8836  1.5749
  556DG     H2312788   1.717   4.032   0.778  0.9046  0.6219 -1.5482
  557DG      C112789   2.727   1.123   4.985  0.6732  0.3091  0.0365
  557DG      C212790   2.610   0.697   5.411  0.3144 -0.4021 -1.0427
  557DG      H312791   2.788   1.062   4.919  1.4676 -1.0273  1.8989
  557DG      H412792   2.787   1.151   5.071 -0.6731  1.2828  0.7047
  557DG      H512793   2.716   1.216   4.929  1.3973  0.3938  0.0229
  557DG      H612794   2.616   0.680   5.519  0.5581  2.2566 -0.5777
  557DG      H712795   2.535   0.625   5.377 -0.2464  0.7597 -2.3651
  557DG      H812796   2.712   0.684   5.375  2.3561  0.0725  3.7330
  557DG      O912797   2.609   1.054   5.016  0.1146  0.6722  0.0381
  557DG     O1012798   2.573   0.833   5.379  0.0143  0.6676 -0.1057
  557DG     C1112799   2.493   1.134   5.056 -0.3606 -0.0842 -0.4526
  557DG     C1212800   2.461   0.890   5.447 -0.2783  0.2485  0.0931
  557DG     H1312801   2.402   1.077   5.038 -0.3027 -0.2693 -0.1640
  557DG     H1412802   2.487   1.232   5.009  0.6861  0.5565  0.6921
  557DG     H1512803   2.486   0.880   5.552  1.3034 -1.4370 -0.3959
  557DG     H1612804   2.362   0.844   5.438 -0.1848 -0.0932  0.7475
  557DG     C1712805   2.489   1.166   5.204  0.0092  1.1513  0.2417
  557DG     C1812806   2.452   1.043   5.403  0.4110 -0.8266  0.3013
  557DG     O1912807   2.495   1.040   5.268  0.9572  0.3673 -0.2678
  557DG     H2012808   2.408   1.233   5.234  0.3241  0.5513  2.6012
  557DG     H2112809   2.580   1.216   5.237  1.7512  0.4099 -2.9512
  557DG     H2212810   2.351   1.081   5.413  0.7173 -0.3305  1.7020
  557DG     H2312811   2.514   1.110   5.461 -2.1946  1.3503  0.7601
  558DG      C112812   3.136   1.816   5.224 -0.0579 -0.1342  0.8681
  558DG      C212813   2.916   2.228   4.738  0.5526  0.2870  1.0043
  558DG      H312814   3.045   1.844   5.278  0.1275 -0.2998  1.2664
  558DG      H412815   3.213   1.813   5.302 -0.8644  1.6251  1.8079
  558DG      H512816   3.116   1.721   5.175 -2.9367  0.2873  1.0434
  558DG      H612817   2.907   2.320   4.682  1.6919 -0.2511 -0.1226
  558DG      H712818   2.864   2.152   4.679  2.1005  0.3413 -0.5109
  558DG      H812819   2.864   2.249   4.831 -0.5583 -0.4138  0.5582
  558DG      O912820   3.187   1.910   5.128  0.1601 -0.3326 -0.0434
  558DG     O1012821   3.051   2.191   4.776 -0.3958 -0.3156  0.2026
  558DG     C1112822   3.287   1.855   5.039  0.5885  0.3155  0.2784
  558DG     C1212823   3.127   2.116   4.689  0.1051  0.3059  0.2779
  558DG     H1312824   3.243   1.771   4.985  0.1630  0.9038 -0.3107
  558DG     H1412825   3.370   1.813   5.096  1.6731  0.9023 -0.8159
  558DG     H1512826   3.143   2.174   4.598  0.9514  0.0880  0.2779
  558DG     H1612827   3.070   2.029   4.658 -0.1010  0.9805 -1.3375
  558DG     C1712828   3.339   1.968   4.944 -0.0140  0.1371  0.2708
  558DG     C1812829   3.258   2.083   4.749 -0.4723  0.1424 -0.8686
  558DG     O1912830   3.223   2.009   4.862 -0.2346 -0.5068 -0.2088
  558DG     H2012831   3.414   1.936   4.871 -0.5627 -0.3565 -0.0953
  558DG     H2112832   3.382   2.043   5.009 -0.3788  0.2709  0.3576
  558DG     H2212833   3.319   2.027   4.678 -2.5340  0.1352 -2.7304
  558DG     H2312834   3.313   2.168   4.789  0.6379 -0.9502  0.0113
  559DG      C112835   5.178   4.260   3.497  0.1652  1.2494  0.3510
  559DG      C212836   4.602   4.720   3.769  0.2829  0.0967  0.4479
  559DG      H312837   5.276   4.228   3.534 -0.9032 -1.6318  0.9440
  559DG      H412838   5.188   4.257   3.389 -1.3893 -0.0668  0.2036
  559DG      H512839   5.111   4.184   3.537  0.0675  1.0255 -0.2263
  559DG      H612840   4.548   4.713   3.674  3.4267 -1.3761 -1.3753
  559DG      H712841   4.555   4.661   3.848  0.1626 -0.9561 -0.3776
  559DG      H812842   4.593   4.823   3.804 -0.5146  0.2655 -0.2057
  559DG      O912843   5.140   4.389   3.542  0.0547  0.5189  0.3599
  559DG     O1012844   4.733   4.675   3.764  0.3797  0.2615  0.8354
  559DG     C1112845   5.162   4.403   3.681 -0.3810 -0.0732 -0.4161
  559DG     C1212846   4.817   4.750   3.680  0.2649  0.6679 -0.6806
  559DG     H1312847   5.266   4.384   3.708 -0.6718 -1.2010 -0.0189
  559DG     H1412848   5.101   4.326   3.729  0.3643 -0.9060 -0.7686
  559DG     H1512849   4.802   4.855   3.703 -1.3747  0.2948  0.0936
  559DG     H1612850   4.795   4.744   3.573  0.1889 -0.2596 -0.6180
  559DG     C1712851   5.138   4.544   3.727 -0.0034 -0.5517  0.0717
  559DG     C1812852   4.963   4.717   3.713  0.0169  0.0525 -0.7906
  559DG     O1912853   5.008   4.578   3.696  0.5284 -0.0971  0.1334
  559DG     H2012854   5.205   4.608   3.670  1.2740 -1.7264  0.1842
  559DG     H2112855   5.161   4.552   3.833 -1.0977  0.6245  0.2315
  559DG     H2212856   5.021   4.786   3.651  0.7411  2.0922  1.9679
  559DG     H2312857   4.997   4.748   3.812 -0.8571 -2.8074  0.5169
  560DG      C112858   2.743   2.975   4.748  1.2344 -0.3925  0.0348
  560DG      C212859   2.917   3.359   5.251 -0.0255 -0.3662 -0.2858
  560DG      H312860   2.758   3.067   4.692  2.8827  1.0063  2.6026
  560DG      H412861   2.639   2.949   4.770  1.4565 -2.4258 -1.0630
  560DG      H512862   2.782   2.899   4.680  0.2535 -1.3324  0.4798
  560DG      H612863   2.815   3.360   5.289  0.7803  0.0528  2.0200
  560DG      H712864   2.973   3.420   5.322  0.0313  1.5013 -1.8410
  560DG      H812865   2.913   3.421   5.161  1.9727 -1.2689 -1.0606
  560DG      O912866   2.826   2.987   4.865  0.0609  0.4187 -1.3075
  560DG     O1012867   2.977   3.235   5.224 -1.1347 -1.1186 -0.3528
  560DG     C1112868   2.844   2.860   4.931 -0.5569  0.2167  0.4418
  560DG     C1212869   2.940   3.137   5.317 -0.4973 -0.4187  0.2988
  560DG     H1312870   2.882   2.785   4.862  1.3803 -1.3224  3.0086
  560DG     H1412871   2.752   2.816   4.968 -1.5614  1.1367 -0.8516
  560DG     H1512872   2.833   3.141   5.341 -0.8721  2.5492 -1.3617
  560DG     H1612873   2.983   3.142   5.417  0.8271  0.8762 -0.3066
  560DG     C1712874   2.944   2.879   5.050  0.1101  0.3794 -0.4415
  560DG     C1812875   2.976   3.005   5.246  0.1152  0.2778 -0.2965
  560DG     O1912876   2.917   3.005   5.122  0.2795  0.3647 -0.0451
  560DG     H2012877   3.046   2.867   5.016  0.1596 -1.7645  0.3440
  560DG     H2112878   2.934   2.798   5.122  0.3012  0.5824 -0.1815
  560DG     H2212879   3.083   2.990   5.232  0.0449 -1.9770  1.1023
  560DG     H2312880   2.940   2.926   5.312  1.5065  0.6430  0.9363
  561DG      C112881   0.641   4.592   4.220  0.4530 -0.4524 -0.5811
  561DG      C212882   1.118   4.127   4.528  0.0614 -0.9522 -0.4298
  561DG      H312883   0.565   4.627   4.151 -0.3124 -1.3656 -0.2174
  561DG      H412884   0.693   4.678   4.261  1.2598 -0.1260 -2.1799
  561DG      H512885   0.583   4.555   4.304 -0.6908  2.5883  0.0860
  561DG      H612886   1.103   4.191   4.616  1.8094  0.2502 -0.9629
  561DG      H712887   1.141   4.028   4.567 -0.0361  0.0946  2.5352
  561DG      H812888   1.207   4.166   4.479  0.5003 -2.0204 -0.4964
  561DG      O912889   0.715   4.485   4.176  0.8883 -0.0968  0.5329
  561DG     O1012890   1.011   4.141   4.435  0.3491  0.1288 -0.1524
  561DG     C1112891   0.649   4.352   4.176  1.0937 -0.4928 -0.4905
  561DG     C1212892   1.049   4.106   4.300 -0.5918 -1.0265  0.5928
  561DG     H1312893   0.571   4.357   4.100  0.5841  2.4431  0.0767
  561DG     H1412894   0.603   4.325   4.270  2.9377 -0.5289  0.4411
  561DG     H1512895   1.093   4.006   4.292  3.7211  0.8042 -2.4773
  561DG     H1612896   1.127   4.169   4.258  0.4155 -0.4084  3.1788
  561DG     C1712897   0.751   4.240   4.141  0.2166  0.0716  0.5369
  561DG     C1812898   0.930   4.101   4.212  0.7406 -0.3488  0.0985
  561DG     O1912899   0.863   4.226   4.235 -0.9748  0.1457  0.1998
  561DG     H2012900   0.793   4.263   4.043 -1.1193  0.4860  0.0443
  561DG     H2112901   0.695   4.148   4.125  2.1564 -0.9028 -1.0105
  561DG     H2212902   0.965   4.089   4.110  2.2760  0.8181  0.4647
  561DG     H2312903   0.853   4.028   4.239 -3.0458  2.5071 -1.9212
  562DG      C112904   4.653   1.386   1.834 -0.1610  0.6017  0.1160
  562DG      C212905   4.525   0.910   1.507  0.0970  0.1328  0.1257
  562DG      H312906   4.662   1.456   1.917  1.6396  0.4158  0.1244
  562DG      H412907   4.731   1.407   1.761 -0.0804  1.8720  0.5448
  562DG      H512908   4.666   1.281   1.861 -1.0009  0.2394 -0.8295
  562DG      H612909   4.577   0.930   1.413 -2.8154  4.0956 -0.9321
  562DG      H712910   4.596   0.912   1.591  0.2572  0.4173 -0.0155
  562DG      H812911   4.480   0.811   1.504 -1.9340  0.9984  0.6613
  562DG      O912912   4.518   1.413   1.790  0.2483  0.0719 -0.2504
  562DG     O1012913   4.431   1.015   1.533 -0.3890 -0.2456  0.5474
  562DG     C1112914   4.415   1.370   1.886 -0.3483 -0.5691  0.6911
  562DG     C1212915   4.355   0.993   1.649  0.3072  0.2648 -0.6513
  562DG     H1312916   4.335   1.443   1.898 -0.9738 -1.3078  1.0432
  562DG     H1412917   4.453   1.376   1.988  0.1218 -0.8828  0.5412
  562DG     H1512918   4.425   0.983   1.732  2.1409  3.7149 -1.5948
  562DG     H1612919   4.308   0.897   1.629  2.5119 -1.4688  1.8512
  562DG     C1712920   4.368   1.233   1.848  0.8018 -0.4460 -0.9604
  562DG     C1812921   4.244   1.102   1.681 -0.2668  0.3695 -0.1916
  562DG     O1912922   4.310   1.229   1.718 -0.2385  0.7529  0.1196
  562DG     H2012923   4.294   1.209   1.924  1.1443  1.0896 -0.0888
  562DG     H2112924   4.450   1.162   1.844  1.2342  0.0867 -2.4025
  562DG     H2212925   4.170   1.123   1.603  0.2655  5.0315  0.2621
  562DG     H2312926   4.191   1.055   1.764  0.5828  1.1592  0.8288
  563DG      C112927   4.869   4.687   4.078  0.6085  0.4685  0.7300
  563DG      C212928   4.477   5.314   3.916 -0.1258 -0.2309  0.6530
  563DG      H312929   4.910   4.687   4.179  0.3007 -0.5901  0.8721
  563DG      H412930   4.934   4.648   4.000 -0.8702 -2.2078  0.7094
  563DG      H512931   4.782   4.622   4.088  1.3503 -0.5670  0.7098
  563DG      H612932   4.404   5.243   3.878  1.7071 -1.3178 -1.0226
  563DG      H712933   4.454   5.328   4.021  0.9606 -2.1812  1.2095
  563DG      H812934   4.471   5.410   3.865 -1.2089  1.3142  3.4665
  563DG      O912935   4.833   4.823   4.053  0.1133 -0.2285  0.7498
  563DG     O1012936   4.603   5.263   3.883 -0.2501 -0.1543 -0.4392
  563DG     C1112937   4.940   4.910   4.075 -0.6679 -0.2184 -0.2187
  563DG     C1212938   4.695   5.315   3.972  0.1362 -0.7258 -0.4034
  563DG     H1312939   5.036   4.861   4.061 -0.5604 -0.6536  1.7970
  563DG     H1412940   4.947   4.953   4.175  0.4972 -1.1407  0.1219
  563DG     H1512941   4.651   5.315   4.072  0.0468 -1.9535 -0.4304
  563DG     H1612942   4.719   5.421   3.965  0.0802 -0.6320  0.6752
  563DG     C1712943   4.933   5.027   3.981 -0.0500  0.0810  0.5966
  563DG     C1812944   4.828   5.238   3.965 -0.4477  0.0247  0.0605
  563DG     O1912945   4.807   5.101   3.993  0.1616  0.2760 -0.0969
  563DG     H2012946   4.942   4.997   3.877  0.0849  2.1305 -0.0431
  563DG     H2112947   5.017   5.089   4.011 -0.0194  1.3823 -1.8741
  563DG     H2212948   4.881   5.258   3.872 -0.5406 -0.1901 -0.0375
  563DG     H2312949   4.890   5.290   4.038 -0.4325  1.3488 -0.8448
  564DG      C112950   3.975   3.757   1.124 -0.0810  0.3508  0.0373
  564DG      C212951   4.403   3.174   0.968 -0.4786 -0.4053 -0.6894
  564DG      H312952   3.923   3.717   1.211 -2.3220 -3.7596 -2.8515
  564DG      H412953   3.926   3.854   1.124  0.7021  0.7620  1.0170
  564DG      H512954   4.077   3.768   1.159 -0.0148  2.6782 -0.7746
  564DG      H612955   4.306   3.132   0.993  0.0249 -0.9463  0.4121
  564DG      H712956   4.465   3.111   0.904  1.4797  0.7219 -0.0017
  564DG      H812957   4.442   3.168   1.069  1.1677 -0.6537 -1.2918
  564DG      O912958   3.958   3.665   1.015 -0.3936 -0.3047 -0.1902
  564DG     O1012959   4.389   3.312   0.925  0.0095 -0.2812  0.0217
  564DG     C1112960   4.013   3.542   1.059 -0.3496  0.3123  0.2306
  564DG     C1212961   4.330   3.337   0.796 -0.5705 -0.7626  0.0028
  564DG     H1312962   3.932   3.473   1.082  0.9826 -1.8611 -1.1969
  564DG     H1412963   4.068   3.537   1.154 -0.4245 -2.0076  0.2242
  564DG     H1512964   4.252   3.262   0.785 -1.9665  0.8283 -1.4007
  564DG     H1612965   4.406   3.328   0.718 -0.0811 -1.2718  0.5202
  564DG     C1712966   4.094   3.468   0.951 -0.5402 -0.1750  0.7920
  564DG     C1812967   4.287   3.488   0.806  0.0996  0.2730 -0.5379
  564DG     O1912968   4.218   3.529   0.926 -0.6761 -0.5634 -0.3187
  564DG     H2012969   4.032   3.482   0.863 -2.1425  2.1130  2.1674
  564DG     H2112970   4.110   3.364   0.979  0.0796 -0.6072 -1.0737
  564DG     H2212971   4.379   3.547   0.807  0.6226 -0.5111 -0.9632
  564DG     H2312972   4.225   3.516   0.721  0.3188  3.5470  0.2514
  565DG      C112973   1.020   4.494   3.701 -0.2528 -0.2771  0.5991
  565DG      C212974   1.620   4.184   3.407  0.4248 -0.4072 -0.6411
  565DG      H312975   1.063   4.504   3.801 -0.3299  1.6545  0.4755
  565DG      H412976   0.937   4.562   3.687  0.0483 -0.1964 -1.0358
  565DG      H512977   1.092   4.536   3.631 -0.3861 -0.0633  0.5903
  565DG      H612978   1.666   4.133   3.323  0.3933  0.8967 -1.4722
  565DG      H712979   1.678   4.276   3.415 -2.5098  1.5458 -0.2094
  565DG      H812980   1.617   4.114   3.490  2.4211 -0.0724 -0.2445
  565DG      O912981   0.990   4.371   3.651  0.2121  0.4186 -0.8888
  565DG     O1012982   1.489   4.244   3.385  0.8785 -0.5669  0.8538
  565DG     C1112983   1.079   4.270   3.702 -0.2159 -0.3247 -0.3172
  565DG     C1212984   1.384   4.149   3.366 -0.6867  0.5408 -0.7088
  565DG     H1312985   1.038   4.206   3.781  0.1176  0.0141  0.1369
  565DG     H1412986   1.169   4.324   3.730  1.2248 -2.1909 -1.1763
  565DG     H1512987   1.408   4.067   3.433  2.0529  1.5636 -0.3355
  565DG     H1612988   1.394   4.100   3.269  2.5776 -0.6083  0.0849
  565DG     C1712989   1.142   4.191   3.585  0.2456 -0.3890 -0.3033
  565DG     C1812990   1.235   4.194   3.374  0.1624  0.3893 -0.2473
  565DG     O1912991   1.206   4.271   3.487  0.2578 -0.0543  0.5187
  565DG     H2012992   1.053   4.144   3.542 -1.1496  1.0799  0.8592
  565DG     H2112993   1.201   4.102   3.603 -0.3536 -1.1351 -1.8240
  565DG     H2212994   1.232   4.267   3.292  2.7066  0.1604 -0.6190
  565DG     H2312995   1.165   4.113   3.355  0.2170  0.5437 -1.1889
  566DG      C112996   3.516   2.997   3.470  0.1741 -0.5678  0.9798
  566DG      C212997   3.334   2.875   2.627  0.3299  0.3261 -0.5818
  566DG      H312998   3.568   3.092   3.482 -2.3474  1.0847 -0.3121
  566DG      H412999   3.582   2.912   3.492 -0.2685 -1.2871 -0.3219
  566DG      H513000   3.442   3.004   3.550  0.5722  0.1095  1.2889
  566DG      H613001   3.250   2.863   2.559 -3.2633 -0.3406  3.5933
  566DG      H713002   3.375   2.972   2.601 -2.7817  1.8586 -0.1895
  566DG      H813003   3.418   2.807   2.611  1.0491  1.0296  0.1343
  566DG      O913004   3.445   2.977   3.351  0.3811  0.0178  0.0123
  566DG     O1013005   3.282   2.868   2.760 -0.0685 -0.1823 -0.6519
  566DG     C1113006   3.360   3.085   3.314 -0.1980 -0.4558  0.1199
  566DG     C1213007   3.355   2.948   2.854  1.2835  0.2662 -0.0256
  566DG     H1313008   3.421   3.170   3.283 -0.1735 -0.2007  0.8472
  566DG     H1413009   3.302   3.126   3.396  1.8248  1.7536  0.5623
  566DG     H1513010   3.364   3.052   2.820  0.3648  0.6328  0.8208
  566DG     H1613011   3.452   2.899   2.864  1.8084  1.0630 -1.0138
  566DG     C1713012   3.267   3.035   3.201 -0.8123 -0.5460 -0.7008
  566DG     C1813013   3.284   2.940   2.986 -0.2305 -0.2020 -0.3176
  566DG     O1913014   3.348   3.021   3.085 -0.3980  0.1618 -0.0551
  566DG     H2013015   3.192   3.112   3.180 -1.7290 -1.1361  0.3478
  566DG     H2113016   3.227   2.938   3.228 -1.6285 -0.0288  0.0102
  566DG     H2213017   3.186   2.982   2.964 -0.5571 -0.0784  1.2612
  566DG     H2313018   3.276   2.839   3.025  0.2584  0.4344  1.5324
  567DG      C113019   3.902   2.883   5.291  0.0453 -1.0774 -0.0244
  567DG      C213020   3.266   2.893   4.792 -0.8609  0.3917  0.0491
  567DG      H313021   3.983   2.823   5.331  0.3950 -0.0426  0.8487
  567DG      H413022   3.875   2.962   5.361  0.9018 -1.3139  0.5918
  567DG      H513023   3.958   2.930   5.210  2.6303 -1.0936  1.6550
  567DG      H613024   3.346   2.920   4.724  0.1427 -0.9667  0.6351
  567DG      H713025   3.193   2.842   4.729  2.4194 -2.1616 -1.9962
  567DG      H813026   3.236   2.984   4.844  0.1196 -0.1855  1.7204
  567DG      O913027   3.786   2.808   5.243  0.0170  0.1251  0.0486
  567DG     O1013028   3.302   2.791   4.895 -0.0453 -0.8421  0.3889
  567DG     C1113029   3.681   2.788   5.334 -0.3739  1.2138  0.5193
  567DG     C1213030   3.425   2.820   4.955 -0.5236 -0.7289  0.6492
  567DG     H1313031   3.656   2.885   5.377  2.4496  1.0807  2.8213
  567DG     H1413032   3.728   2.723   5.408 -2.7088 -2.1701 -0.7282
  567DG     H1513033   3.415   2.923   4.989 -1.3946 -0.7727  0.5383
  567DG     H1613034   3.499   2.814   4.875  0.7889  2.9466  1.3574
  567DG     C1713035   3.555   2.728   5.277  0.1825 -0.1295  0.2842
  567DG     C1813036   3.442   2.726   5.074 -0.3253 -0.7903  0.5285
  567DG     O1913037   3.529   2.800   5.156  0.5419 -0.4272 -0.4088
  567DG     H2013038   3.472   2.737   5.347  1.0655  1.9695  1.1353
  567DG     H2113039   3.571   2.622   5.255  0.0432 -0.1167  0.1127
  567DG     H2213040   3.346   2.700   5.119 -0.5275  0.9032  1.1476
  567DG     H2313041   3.483   2.632   5.038 -0.3681 -0.2529 -0.9984
  568DG      C113042   3.342   2.528   3.340 -0.3364  0.0252 -0.2891
  568DG      C213043   2.924   3.084   3.943 -0.0834 -0.0635  0.1571
  568DG      H313044   3.437   2.481   3.312  0.5771  0.5992  1.6205
  568DG      H413045   3.308   2.586   3.255 -1.0667 -1.2690 -0.9139
  568DG      H513046   3.271   2.452   3.373 -0.6613 -0.5392 -2.1587
  568DG      H613047   2.931   3.139   4.037 -3.1821 -1.3727  1.2928
  568DG      H713048   2.827   3.112   3.901  0.0779  1.8202  0.9342
  568DG      H813049   2.919   2.978   3.969  0.4983 -0.9320 -2.8404
  568DG      O913050   3.348   2.616   3.458 -0.2672  0.5295 -0.4994
  568DG     O1013051   3.029   3.125   3.859 -0.3194  0.5286  0.7239
  568DG     C1113052   3.238   2.706   3.469  1.0191  0.6816 -1.5618
  568DG     C1213053   3.041   3.062   3.738 -0.4535  0.5855 -0.2176
  568DG     H1313054   3.139   2.660   3.466  1.0656  0.3752  0.3697
  568DG     H1413055   3.253   2.784   3.394  0.2571  1.4198 -0.9709
  568DG     H1513056   3.090   3.131   3.669 -0.1799  2.0215  1.3466
  568DG     H1613057   2.947   3.036   3.689 -0.2445 -1.8678  0.5748
  568DG     C1713058   3.249   2.769   3.609 -0.3746  0.5593  0.0028
  568DG     C1813059   3.121   2.932   3.747  0.6152  1.1249  0.4253
  568DG     O1913060   3.153   2.877   3.619  0.1525 -0.0386  0.2222
  568DG     H2013061   3.355   2.789   3.628  0.5500  0.2927 -3.8876
  568DG     H2113062   3.226   2.709   3.696  1.7049  2.5172  2.0709
  568DG     H2213063   3.217   2.945   3.797  0.9046  0.2015  0.1234
  568DG     H2313064   3.064   2.859   3.805  0.5424  1.5121  0.8447
  569DG      C113065   2.474   3.848   3.614 -0.1591  0.4414 -0.1349
  569DG      C213066   2.457   3.143   3.915  0.0211 -0.2596 -0.0977
  569DG      H313067   2.512   3.897   3.524 -2.7503  4.0280  0.4701
  569DG      H413068   2.556   3.874   3.682  0.1812  2.3731 -1.2152
  569DG      H513069   2.376   3.890   3.638 -0.7533 -1.9135  1.9750
  569DG      H613070   2.365   3.197   3.937  0.9829  2.0126 -1.3942
  569DG      H713071   2.431   3.043   3.881  0.9606 -0.1504 -1.1812
  569DG      H813072   2.506   3.141   4.013 -3.4078  1.0073  1.8085
  569DG      O913073   2.473   3.714   3.590  0.2232 -0.1067 -0.3635
  569DG     O1013074   2.540   3.210   3.810  0.7870 -0.0974 -0.4710
  569DG     C1113075   2.601   3.659   3.570 -0.5216 -0.1280  0.0306
  569DG     C1213076   2.466   3.216   3.692  0.6945 -0.5899 -0.3452
  569DG     H1313077   2.656   3.664   3.664  0.1471 -0.5461 -0.3295
  569DG     H1413078   2.639   3.722   3.490 -1.5648  0.0366 -0.3474
  569DG     H1513079   2.369   3.262   3.705  0.6090 -1.3338  2.2971
  569DG     H1613080   2.452   3.119   3.646 -0.6791  0.9800 -3.4884
  569DG     C1713081   2.598   3.512   3.525  0.0540 -0.7978 -0.5633
  569DG     C1813082   2.541   3.302   3.599  0.7670 -0.1089  0.6832
  569DG     O1913083   2.555   3.434   3.635  0.1869 -0.3833  0.3367
  569DG     H2013084   2.696   3.484   3.486 -0.5794 -1.2253 -1.9003
  569DG     H2113085   2.532   3.509   3.438 -0.6843 -0.1563 -0.0402
  569DG     H2213086   2.636   3.248   3.594 -0.5541 -2.5943  1.1987
  569DG     H2313087   2.492   3.293   3.502  2.0064 -1.1571  0.1232
  570DG      C113088   3.589   4.723   2.020  0.0301 -0.5731 -0.5089
  570DG      C213089   3.066   4.375   2.415 -0.0131  0.2082 -0.3983
  570DG      H313090   3.665   4.681   2.086  0.4769  2.2479  0.8737
  570DG      H413091   3.637   4.810   1.975  0.0602 -0.3955 -0.1324
  570DG      H513092   3.573   4.646   1.943 -0.4784  0.9660 -2.0037
  570DG      H613093   3.116   4.279   2.404 -3.8127 -2.1362  0.8567
  570DG      H713094   3.051   4.385   2.523  1.6595 -0.7301 -0.0442
  570DG      H813095   2.969   4.381   2.366  0.7876 -0.0329 -2.0710
  570DG      O913096   3.481   4.764   2.101 -0.3721  0.0605  0.0899
  570DG     O1013097   3.142   4.487   2.375 -0.2172  0.4269 -0.2028
  570DG     C1113098   3.359   4.801   2.039  0.0505  0.2580  0.4138
  570DG     C1213099   3.078   4.612   2.394  0.3728 -0.2183 -0.0001
  570DG     H1313100   3.326   4.723   1.970  0.6728 -1.8243  2.3365
  570DG     H1413101   3.364   4.895   1.985 -0.5063  0.9715  1.5641
  570DG     H1513102   3.064   4.629   2.501 -0.4995 -2.4795  0.2798
  570DG     H1613103   2.984   4.627   2.340 -0.1581 -0.9881  0.7042
  570DG     C1713104   3.248   4.816   2.150  1.0318 -0.5380 -0.1277
  570DG     C1813105   3.179   4.718   2.348 -0.3892  0.1814 -0.4133
  570DG     O1913106   3.228   4.694   2.214  0.3086 -0.0983 -0.0303
  570DG     H2013107   3.157   4.855   2.106  0.0077 -2.2105  0.4219
  570DG     H2113108   3.276   4.880   2.233 -1.4609 -1.6863  1.7097
  570DG     H2213109   3.136   4.816   2.367  0.9665  0.6403  0.3961
  570DG     H2313110   3.267   4.712   2.412 -1.2324  1.9128  1.0019
  571DG      C113111   4.701   4.285   2.673  0.6548 -0.1394 -0.2007
  571DG      C213112   3.947   4.318   2.376 -0.2915 -0.4303  0.6282
  571DG      H313113   4.661   4.192   2.714 -2.8073 -0.2644 -3.2450
  571DG      H413114   4.740   4.350   2.751  1.4568  1.1857 -1.6402
  571DG      H513115   4.777   4.250   2.603 -1.0820  0.7155 -2.6478
  571DG      H613116   3.878   4.313   2.460  0.5332  1.9900  1.5525
  571DG      H713117   3.890   4.345   2.286  1.1647  1.1174  0.1007
  571DG      H813118   3.980   4.218   2.351  1.2113  0.5843 -1.9310
  571DG      O913119   4.599   4.342   2.599  0.3400 -0.4330  0.1364
  571DG     O1013120   4.049   4.421   2.382 -0.0083 -0.0674  0.2891
  571DG     C1113121   4.620   4.481   2.572  0.3806 -0.6646 -0.2171
  571DG     C1213122   4.156   4.393   2.472 -0.6056 -0.5105 -0.3768
  571DG     H1313123   4.715   4.506   2.525  1.5670 -1.2612  1.7432
  571DG     H1413124   4.623   4.530   2.669  2.2146  2.1280 -1.5488
  571DG     H1513125   4.186   4.292   2.448 -1.9806 -0.9887 -0.1631
  571DG     H1613126   4.113   4.388   2.572 -1.8142 -0.0690 -0.8527
  571DG     C1713127   4.504   4.524   2.487 -0.3182 -0.2848 -0.5970
  571DG     C1813128   4.271   4.500   2.449  0.0783 -0.9375  0.0347
  571DG     O1913129   4.383   4.461   2.530  0.7765  0.2141 -0.7460
  571DG     H2013130   4.519   4.490   2.384  3.7528  0.8173 -0.5220
  571DG     H2113131   4.492   4.632   2.493 -0.4009 -0.3209 -0.0068
  571DG     H2213132   4.293   4.501   2.342  0.0258 -0.2677  0.0258
  571DG     H2313133   4.244   4.604   2.469 -0.3977 -1.5440  3.0225
  572DG      C113134   1.292   4.300   0.017 -0.3730  0.3144 -0.2288
  572DG      C213135   1.482   3.642  -0.106 -0.2107  0.3647  0.4352
  572DG      H313136   1.388   4.330  -0.024  0.5772 -1.3224  0.7067
  572DG      H413137   1.259   4.365   0.098 -1.8793 -1.6641  0.8139
  572DG      H513138   1.216   4.318  -0.059 -1.5664 -2.2663  0.2539
  572DG      H613139   1.449   3.569  -0.031  0.0149  0.6793  0.8483
  572DG      H713140   1.403   3.651  -0.179 -1.2697  0.5653  1.5685
  572DG      H813141   1.571   3.609  -0.159 -1.1339 -0.0556 -0.8838
  572DG      O913142   1.285   4.167   0.059  0.1156 -0.3111  0.3672
  572DG     O1013143   1.515   3.775  -0.064  0.0701  0.1687  0.5031
  572DG     C1113144   1.325   4.142   0.190 -0.1889 -0.0672 -0.2134
  572DG     C1213145   1.601   3.775   0.041 -0.0242 -0.0549  0.4991
  572DG     H1313146   1.263   4.062   0.230  1.3436 -0.9918  0.3921
  572DG     H1413147   1.318   4.230   0.255 -1.6262 -0.6775  0.5148
  572DG     H1513148   1.703   3.757   0.007 -0.5499 -0.5350 -0.9056
  572DG     H1613149   1.570   3.698   0.112 -0.3133  0.5802  1.0707
  572DG     C1713150   1.468   4.090   0.197  0.2594  0.8668  0.1490
  572DG     C1813151   1.598   3.914   0.113 -0.5926  0.2640 -0.0113
  572DG     O1913152   1.464   3.967   0.123  0.7550  0.2408  0.6147
  572DG     H2013153   1.497   4.069   0.299 -2.4459 -0.2762  0.7843
  572DG     H2113154   1.535   4.164   0.154  0.2387 -0.2159 -1.8914
  572DG     H2213155   1.650   3.917   0.208 -1.9286 -1.2532  0.8109
  572DG     H2313156   1.653   3.990   0.056  0.5117  0.9892  1.9242
  573DG      C113157   0.288   5.493   0.033 -0.4044 -0.4489 -0.3967
  573DG      C213158  -0.222   6.034   0.455  0.1975  0.7647  0.1433
  573DG      H313159   0.206   5.421   0.027 -1.7830  1.1583 -1.5400
  573DG      H413160   0.349   5.491   0.124 -0.3797  2.0216 -0.3036
  573DG      H513161   0.351   5.459  -0.049 -0.7920 -1.2827 -0.3589
  573DG      H613162  -0.197   5.989   0.551 -0.0005  1.7018  0.6510
  573DG      H713163  -0.223   6.143   0.461 -0.8250  0.7988 -0.4452
  573DG      H813164  -0.317   5.994   0.420  0.0631  0.8673  0.3896
  573DG      O913165   0.244   5.625   0.019 -0.4745 -0.3188  0.3387
  573DG     O1013166  -0.121   5.990   0.372 -0.6955 -0.2596 -0.2377
  573DG     C1113167   0.151   5.660   0.118  0.7047  0.8015  0.1208
  573DG     C1213168  -0.150   6.026   0.237 -0.2600  0.2150  0.2858
  573DG     H1313169   0.194   5.649   0.217 -0.3296  1.1002  0.6156
  573DG     H1413170   0.065   5.593   0.112  1.5939 -0.4633  1.0899
  573DG     H1513171  -0.150   6.135   0.234  2.4133  0.5390  4.4024
  573DG     H1613172  -0.248   5.992   0.202  0.4030 -0.3368 -1.1481
  573DG     C1713173   0.115   5.809   0.095 -0.7016 -0.0680  0.1166
  573DG     C1813174  -0.029   5.979   0.148 -0.5364 -0.3391  0.5535
  573DG     O1913175   0.004   5.846   0.178  0.5853  0.1584  0.0535
  573DG     H2013176   0.099   5.825  -0.011  1.4539  1.2393 -0.0817
  573DG     H2113177   0.202   5.868   0.125 -0.3624  0.3775 -1.6198
  573DG     H2213178  -0.059   5.988   0.043 -1.2362 -0.3210  0.7489
  573DG     H2313179   0.050   6.050   0.172  0.0484 -0.5843 -0.5970
  574DG      C113180   2.715   3.191   1.524  0.3166 -0.4721 -0.8099
  574DG      C213181   2.034   3.196   1.985 -0.6514  0.0985  0.2424
  574DG      H313182   2.750   3.157   1.621 -1.1015  1.3266  0.4091
  574DG      H413183   2.748   3.293   1.505 -1.1245 -0.3585 -3.1170
  574DG      H513184   2.760   3.123   1.452  1.0467 -2.0771  1.0849
  574DG      H613185   2.104   3.256   2.043  2.7082 -1.4798 -1.8115
  574DG      H713186   1.941   3.248   1.964 -0.4624  0.6428  0.7272
  574DG      H813187   1.996   3.118   2.051 -1.9657  1.3891  1.0694
  574DG      O913188   2.570   3.183   1.528 -0.9750 -0.0068 -0.3599
  574DG     O1013189   2.100   3.146   1.868 -0.3529  0.4239  0.2190
  574DG     C1113190   2.516   3.055   1.490  0.5987 -0.9366 -0.3112
  574DG     C1213191   2.162   3.244   1.789 -0.7063 -0.2464  0.6441
  574DG     H1313192   2.562   2.977   1.551 -2.9825 -0.4677  3.4045
  574DG     H1413193   2.528   3.038   1.383  1.9932 -1.7176 -0.0543
  574DG     H1513194   2.249   3.279   1.845 -0.9793 -0.3242  1.1227
  574DG     H1613195   2.098   3.329   1.767  0.0794 -0.0392 -0.9990
  574DG     C1713196   2.362   3.060   1.516  0.2812 -0.3789 -0.0089
  574DG     C1813197   2.212   3.192   1.650 -0.0887 -0.2871  0.7948
  574DG     O1913198   2.333   3.120   1.645 -0.1770 -0.5914 -0.3545
  574DG     H2013199   2.313   2.962   1.508  2.3281 -1.4522 -0.0964
  574DG     H2113200   2.319   3.129   1.443  0.1214 -0.0213  0.4252
  574DG     H2213201   2.136   3.125   1.608  0.6840 -0.7452  0.0968
  574DG     H2313202   2.215   3.275   1.580  0.2395 -1.2329 -0.3444
  575DG      C113203   0.303   2.227   1.327  0.2430 -0.3663 -0.5328
  575DG      C213204  -0.314   2.592   1.383 -0.5726  1.0172  0.2527
  575DG      H313205   0.371   2.227   1.413 -0.7289  2.3414  0.3375
  575DG      H413206   0.216   2.291   1.342 -0.2087 -1.0767 -0.0266
  575DG      H513207   0.364   2.261   1.244  0.9385 -0.7858 -0.2052
  575DG      H613208  -0.404   2.604   1.323 -0.7470 -1.3282 -0.0406
  575DG      H713209  -0.341   2.624   1.484 -2.2309  2.5920 -0.6256
  575DG      H813210  -0.244   2.658   1.331 -0.0874  0.0310 -0.3634
  575DG      O913211   0.261   2.090   1.310 -0.3681  0.7021 -0.0136
  575DG     O1013212  -0.281   2.456   1.377  0.1187  0.2607 -0.5651
  575DG     C1113213   0.150   2.043   1.389 -0.6878  0.5272  0.3569
  575DG     C1213214  -0.153   2.412   1.424  0.6678 -0.3131  0.0782
  575DG     H1313215   0.172   2.098   1.480 -1.9647  4.3605 -1.4506
  575DG     H1413216   0.168   1.936   1.403  0.4152  0.7009  0.3952
  575DG     H1513217  -0.147   2.402   1.532  0.8018 -0.8673  0.0196
  575DG     H1613218  -0.073   2.483   1.402  1.0336 -0.0245  2.1079
  575DG     C1713219   0.015   2.088   1.338  0.3079  0.5306  0.2316
  575DG     C1813220  -0.126   2.272   1.348  0.0886  0.3573 -0.6181
  575DG     O1913221  -0.005   2.213   1.391 -0.8173  0.7435  0.0580
  575DG     H2013222  -0.050   2.016   1.387  1.0756 -1.6111 -1.6929
  575DG     H2113223   0.001   2.077   1.230  1.8407  0.8021 -0.0264
  575DG     H2213224  -0.205   2.198   1.357  1.2233 -1.0150 -1.5680
  575DG     H2313225  -0.113   2.293   1.242  0.7534 -0.3243 -0.6758
  576DG      C113226   0.718   0.362   1.394 -0.3189  0.4098 -0.1864
  576DG      C213227   0.178   0.464   1.743 -0.0122 -0.0692  0.4945
  576DG      H313228   0.756   0.370   1.496  0.8678  1.1241 -0.6692
  576DG      H413229   0.788   0.394   1.317  0.4695 -0.2537  0.2361
  576DG      H513230   0.690   0.258   1.377 -2.4246  0.6544  1.3679
  576DG      H613231   0.081   0.514   1.751 -0.1774 -0.0886 -1.0448
  576DG      H713232   0.172   0.358   1.769 -1.4914 -0.4344 -1.1508
  576DG      H813233   0.259   0.516   1.793  0.8884 -0.0317 -0.9715
  576DG      O913234   0.593   0.433   1.383 -0.4196 -0.7889  0.7413
  576DG     O1013235   0.226   0.480   1.613 -0.1819 -0.1765 -0.2398
  576DG     C1113236   0.528   0.403   1.257  0.1456 -0.1899 -0.4534
  576DG     C1213237   0.132   0.433   1.521  0.1913  0.4945 -0.6815
  576DG     H1313238   0.503   0.297   1.252 -3.3333  0.3682  1.6288
  576DG     H1413239   0.593   0.426   1.173  0.9317  0.7301  0.3718
  576DG     H1513240   0.029   0.462   1.540  0.8024  1.0325  2.4838
  576DG     H1613241   0.138   0.325   1.527  0.8285  0.5967  0.9682
  576DG     C1713242   0.389   0.463   1.252 -0.1439 -0.0404 -0.4785
  576DG     C1813243   0.178   0.482   1.378  0.0930  0.1765  0.0793
  576DG     O1913244   0.320   0.438   1.372 -0.3545  0.1558  0.7177
  576DG     H2013245   0.348   0.428   1.157  1.5721 -1.8777 -0.6224
  576DG     H2113246   0.400   0.570   1.233  0.3037 -0.1075 -0.6176
  576DG     H2213247   0.123   0.445   1.292  1.0179  0.9445 -0.8700
  576DG     H2313248   0.182   0.591   1.373  0.6210  0.2350  1.3255
  577DG      C113249   3.958   2.584   4.579 -0.0714 -0.0154  0.1682
  577DG      C213250   4.801   2.580   4.749 -0.4180  0.6187 -0.5335
  577DG      H313251   3.926   2.538   4.485  0.5556 -1.2717  0.5485
  577DG      H413252   3.995   2.686   4.571  1.5168 -0.6681 -1.5435
  577DG      H513253   3.868   2.597   4.639 -0.4596 -1.0007 -0.1830
  577DG      H613254   4.776   2.658   4.821 -2.6304 -0.6078  0.1100
  577DG      H713255   4.815   2.489   4.808  1.3848  1.5150  0.5087
  577DG      H813256   4.895   2.611   4.703  0.7109 -1.3586  0.2909
  577DG      O913257   4.047   2.500   4.651  0.2945 -0.6205  0.3609
  577DG     O1013258   4.707   2.575   4.647  0.1135 -0.2526 -0.5246
  577DG     C1113259   4.171   2.520   4.589 -0.4736  0.5854  0.8698
  577DG     C1213260   4.585   2.517   4.687  0.5683  0.0083 -0.0145
  577DG     H1313261   4.198   2.624   4.571 -2.8158  0.9141 -1.3758
  577DG     H1413262   4.157   2.489   4.485  0.3796  0.2277  0.8523
  577DG     H1513263   4.535   2.577   4.763 -0.5916 -1.1883  0.2053
  577DG     H1613264   4.607   2.424   4.739 -3.9021 -0.1701  2.0335
  577DG     C1713265   4.279   2.440   4.662 -0.2017 -0.7002  0.2424
  577DG     C1813266   4.498   2.493   4.564  0.9233  0.6163  0.4146
  577DG     O1913267   4.387   2.395   4.582  0.5060  0.2677 -0.2052
  577DG     H2013268   4.240   2.358   4.722  3.6654 -1.3587  2.2061
  577DG     H2113269   4.321   2.507   4.737 -1.6016  1.6163 -0.9226
  577DG     H2213270   4.457   2.577   4.509  0.8918 -0.6398 -1.5532
  577DG     H2313271   4.562   2.446   4.490 -0.4749 -0.9124  0.1219
  578DG      C113272   4.719   1.045   2.611 -0.5074  0.3509 -0.6299
  578DG      C213273   4.547   1.410   3.194 -0.3951 -0.1936  0.7452
  578DG      H313274   4.683   0.957   2.664  2.3969  0.3213  1.5498
  578DG      H413275   4.826   1.060   2.623 -0.6424  0.9023  0.0048
  578DG      H513276   4.699   1.032   2.505 -2.9492 -0.7547 -0.1143
  578DG      H613277   4.506   1.505   3.228  2.9924  1.7460 -0.1075
  578DG      H713278   4.500   1.327   3.247 -0.0358 -0.9999 -0.1682
  578DG      H813279   4.655   1.399   3.206 -0.0686  1.3779 -0.3358
  578DG      O913280   4.657   1.161   2.665  0.2311  0.6508 -0.4868
  578DG     O1013281   4.519   1.388   3.061 -0.1801  0.6175  0.2720
  578DG     C1113282   4.518   1.152   2.671  0.0502 -0.0803  0.1677
  578DG     C1213283   4.385   1.413   3.018 -0.8735  0.2226  0.0637
  578DG     H1313284   4.480   1.081   2.745 -0.6636 -0.4071 -0.4946
  578DG     H1413285   4.480   1.105   2.580  2.0881 -1.6992  0.0739
  578DG     H1513286   4.370   1.518   2.993  2.2000  0.5107 -0.9024
  578DG     H1613287   4.320   1.379   3.099  1.2071 -4.6554  0.0513
  578DG     C1713288   4.453   1.289   2.678  0.0896 -0.1530  0.2109
  578DG     C1813289   4.357   1.319   2.892 -0.9474 -0.1604 -0.7611
  578DG     O1913290   4.469   1.344   2.805  0.6536  0.0827  0.3324
  578DG     H2013291   4.347   1.284   2.654 -0.3623 -2.8730  2.2520
  578DG     H2113292   4.507   1.341   2.598 -2.0382  1.3219 -0.3567
  578DG     H2213293   4.364   1.212   2.910 -2.6432 -0.2629 -0.5350
  578DG     H2313294   4.260   1.346   2.851 -0.8168  2.8815  0.6145
  579DG      C113295   1.867   2.566   0.757  0.5277  0.0632 -1.0931
  579DG      C213296   1.926   2.034   0.392  0.2638 -0.3362  0.5185
  579DG      H313297   1.959   2.617   0.728 -0.0685  1.3583 -0.8128
  579DG      H413298   1.904   2.500   0.835  0.1738 -0.4936 -1.3950
  579DG      H513299   1.797   2.635   0.804  0.6869 -0.1850 -0.4880
  579DG      H613300   2.027   2.025   0.434  0.6786 -0.8999 -0.5619
  579DG      H713301   1.857   1.982   0.458  0.8445 -2.5751 -0.5318
  579DG      H813302   1.922   1.984   0.296 -0.4183 -0.4494  0.6065
  579DG      O913303   1.799   2.511   0.640  0.0073  0.0940  0.4303
  579DG     O1013304   1.880   2.166   0.372  0.2062  0.0306 -0.4585
  579DG     C1113305   1.791   2.608   0.533 -0.0745  0.1681  0.4688
  579DG     C1213306   1.746   2.177   0.325 -0.4388 -0.4247 -0.1462
  579DG     H1313307   1.893   2.613   0.495 -0.3468  1.5114 -0.1571
  579DG     H1413308   1.755   2.707   0.563 -0.3773 -0.6972  3.2197
  579DG     H1513309   1.684   2.146   0.409 -0.8224 -0.1922 -0.3477
  579DG     H1613310   1.725   2.127   0.231  0.7639  2.9095 -2.3743
  579DG     C1713311   1.713   2.527   0.422  0.5866  0.3788 -0.6554
  579DG     C1813312   1.722   2.325   0.286  0.0930 -0.2292  0.0138
  579DG     O1913313   1.790   2.407   0.387  0.2772 -0.4417 -0.0232
  579DG     H2013314   1.703   2.579   0.326 -0.5504 -1.2373 -1.4674
  579DG     H2113315   1.611   2.508   0.456  0.1525  1.2896 -1.3851
  579DG     H2213316   1.766   2.339   0.187  2.6557 -0.6780  1.0274
  579DG     H2313317   1.615   2.344   0.292  0.0862 -0.5438  1.0298
  580DG      C113318   3.752   4.644   4.014 -0.8225 -0.3167 -0.4007
  580DG      C213319   3.929   4.656   4.711  0.8509  0.3295 -0.0934
  580DG      H313320   3.685   4.721   3.976 -0.1569  0.0045 -0.9467
  580DG      H413321   3.783   4.587   3.927  0.5713  0.7941 -0.6885
  580DG      H513322   3.837   4.709   4.036 -1.0798  0.5932 -1.9521
  580DG      H613323   3.895   4.622   4.809  0.7221 -0.2115 -0.3222
  580DG      H713324   4.035   4.636   4.699  0.1757 -2.6448 -2.6564
  580DG      H813325   3.902   4.760   4.689  2.5665  1.3251  2.1414
  580DG      O913326   3.705   4.577   4.128 -0.3624  0.5061  0.4183
  580DG     O1013327   3.860   4.562   4.625 -0.2826 -0.0653 -0.6663
  580DG     C1113328   3.736   4.442   4.150 -0.1859  0.3046  0.0014
  580DG     C1213329   3.722   4.590   4.601 -0.0671  0.1917  0.1348
  580DG     H1313330   3.843   4.426   4.161  0.0258  0.5368 -1.5335
  580DG     H1413331   3.706   4.387   4.061  1.6287  1.3774 -1.3541
  580DG     H1513332   3.693   4.691   4.573 -1.8885  0.0715  1.4192
  580DG     H1613333   3.661   4.573   4.690 -1.4642 -1.1028 -1.0337
  580DG     C1713334   3.684   4.397   4.290 -0.4686 -0.2211  0.2521
  580DG     C1813335   3.665   4.488   4.506  0.0013  0.9271  0.1120
  580DG     O1913336   3.737   4.485   4.384 -0.1944 -0.0407 -0.0369
  580DG     H2013337   3.719   4.296   4.310 -0.2232  0.0058  0.9869
  580DG     H2113338   3.575   4.403   4.293 -0.5482 -0.6883  5.2384
  580DG     H2213339   3.660   4.387   4.545 -2.1069  0.7554 -0.5144
  580DG     H2313340   3.563   4.512   4.478  0.0419  2.0067  0.8053
  581DG      C113341   0.605   4.997   4.091 -0.2893 -0.7547  0.2410
  581DG      C213342   0.199   5.297   4.632 -0.1657  0.0428 -0.8742
  581DG      H313343   0.635   5.000   3.986  3.1888 -1.5079  1.1161
  581DG      H413344   0.523   4.928   4.111 -1.6907  0.8760  0.3709
  581DG      H513345   0.690   4.962   4.149  0.0864  0.3513  0.3803
  581DG      H613346   0.095   5.266   4.647  0.5034 -1.4421  1.1100
  581DG      H713347   0.264   5.212   4.655  0.6814  0.7924 -0.4350
  581DG      H813348   0.211   5.371   4.711 -0.7107 -2.2207  1.4864
  581DG      O913349   0.557   5.117   4.141 -0.6317 -0.4750 -0.4963
  581DG     O1013350   0.214   5.350   4.501 -0.1611  0.2867 -0.6279
  581DG     C1113351   0.442   5.177   4.081 -0.1657  0.0266  0.5651
  581DG     C1213352   0.338   5.420   4.498  0.2970 -0.2555  0.4061
  581DG     H1313353   0.356   5.113   4.096 -1.7842  2.0910  0.4811
  581DG     H1413354   0.464   5.197   3.976 -0.2687  0.8895  0.7016
  581DG     H1513355   0.419   5.372   4.552  0.4122  0.6200  1.0271
  581DG     H1613356   0.336   5.519   4.544  0.7699 -0.6576  1.3210
  581DG     C1713357   0.413   5.313   4.151 -0.2109  0.0160 -0.0837
  581DG     C1813358   0.371   5.430   4.344  0.4543 -0.0228  0.1126
  581DG     O1913359   0.389   5.295   4.293 -0.4690 -0.1216 -0.0957
  581DG     H2013360   0.331   5.374   4.113  0.9154  3.4145  2.4133
  581DG     H2113361   0.505   5.369   4.138  0.6786 -1.3057  0.2286
  581DG     H2213362   0.287   5.483   4.297 -1.0771 -0.4058  2.2521
  581DG     H2313363   0.461   5.490   4.335  0.4200  0.1933  1.1138
  582DG      C113364   0.149   0.820   1.183 -0.2599 -0.7327 -0.8786
  582DG      C213365   0.844   1.099   1.086  0.0844 -0.6052  0.0128
  582DG      H313366   0.133   0.766   1.276  0.8401 -0.1110 -0.3043
  582DG      H413367   0.085   0.783   1.103 -2.0386  0.3414 -0.0389
  582DG      H513368   0.138   0.927   1.202 -0.2043 -0.8606 -0.0938
  582DG      H613369   0.876   1.067   0.987 -2.6866  0.3917 -1.2995
  582DG      H713370   0.822   1.206   1.084  1.8251 -0.2363 -1.3435
  582DG      H813371   0.927   1.096   1.157 -0.0991  1.7839  0.4186
  582DG      O913372   0.282   0.781   1.146  1.0369 -0.6665  0.0650
  582DG     O1013373   0.743   1.022   1.144 -0.4894  0.1912  0.5933
  582DG     C1113374   0.354   0.875   1.070  0.1766 -0.8659  0.5650
  582DG     C1213375   0.784   0.883   1.145  0.6795  0.4157  0.1406
  582DG     H1313376   0.338   0.977   1.103  1.5568 -0.8836  1.3710
  582DG     H1413377   0.322   0.866   0.966 -0.3889 -0.9605  0.7422
  582DG     H1513378   0.878   0.863   1.197 -0.0861 -2.4107  0.5929
  582DG     H1613379   0.795   0.845   1.044  0.8143  2.6505 -0.7496
  582DG     C1713380   0.503   0.842   1.066 -0.3512  0.4107 -0.1125
  582DG     C1813381   0.680   0.806   1.225  0.5718 -0.2496  0.4384
  582DG     O1913382   0.546   0.845   1.201  0.2354 -0.3253  0.7984
  582DG     H2013383   0.559   0.922   1.017  0.1312  0.6696  0.8228
  582DG     H2113384   0.526   0.746   1.019 -1.5429 -0.1292  0.3807
  582DG     H2213385   0.697   0.702   1.200 -0.8604 -0.4535  0.2278
  582DG     H2313386   0.698   0.804   1.333  0.2307  1.9423  0.5894
  583DG      C113387   5.098   3.093   2.960  0.0634 -0.0219 -0.0269
  583DG      C213388   5.828   2.878   3.066 -0.2851  0.3943  0.0178
  583DG      H313389   5.031   3.179   2.963  1.9802  1.7273 -2.5922
  583DG      H413390   5.100   3.049   3.059 -0.2395 -2.1105 -0.8935
  583DG      H513391   5.067   3.014   2.891  1.3557  0.3559 -1.0852
  583DG      H613392   5.796   2.805   3.141 -2.8343 -0.1910 -1.4942
  583DG      H713393   5.848   2.825   2.973  0.9398 -0.8423  0.9375
  583DG      H813394   5.909   2.943   3.097 -1.5584  1.8604  0.4273
  583DG      O913395   5.231   3.133   2.917 -0.3779  0.1446  0.0292
  583DG     O1013396   5.716   2.961   3.045 -0.2160  0.1824  0.0408
  583DG     C1113397   5.292   3.235   2.983  0.0603 -0.2422 -0.1089
  583DG     C1213398   5.679   3.028   3.169 -0.0758  0.4489  0.4716
  583DG     H1313399   5.223   3.317   3.001  1.5597  0.5515  2.4992
  583DG     H1413400   5.370   3.295   2.938  1.6203 -1.1754  1.2471
  583DG     H1513401   5.717   3.130   3.170  1.4694 -0.0905 -0.1151
  583DG     H1613402   5.730   2.980   3.253 -0.0700  0.0583  0.2484
  583DG     C1713403   5.360   3.184   3.107 -0.0746 -0.1866  0.2923
  583DG     C1813404   5.534   3.038   3.183 -0.1906 -0.5552  0.5027
  583DG     O1913405   5.489   3.123   3.079 -0.4955 -0.3483  0.1743
  583DG     H2013406   5.291   3.120   3.162 -0.3443 -1.7147 -1.7153
  583DG     H2113407   5.391   3.271   3.165 -1.0455  1.2237 -1.2485
  583DG     H2213408   5.488   2.940   3.172  0.3467 -0.6547 -1.2109
  583DG     H2313409   5.501   3.084   3.276  1.6393  1.7693  0.1156
  584DG      C113410   4.598   3.457   2.740 -0.1319 -0.6274 -0.3255
  584DG      C213411   4.420   2.705   2.368  0.2705 -1.1207  0.6667
  584DG      H313412   4.509   3.499   2.693 -2.3182 -1.3304  2.8541
  584DG      H413413   4.676   3.534   2.739 -0.3187 -0.4260  0.2112
  584DG      H513414   4.577   3.450   2.847  1.4148  2.0801  0.2492
  584DG      H613415   4.491   2.670   2.294 -0.1222  0.6908 -0.6547
  584DG      H713416   4.400   2.624   2.438 -0.6257 -0.9856  0.5735
  584DG      H813417   4.323   2.733   2.327  0.6881  0.1370  0.4767
  584DG      O913418   4.644   3.332   2.689  0.4604  0.2185 -0.1449
  584DG     O1013419   4.457   2.819   2.447 -0.3016 -0.0893 -0.3920
  584DG     C1113420   4.545   3.232   2.708 -0.1314  0.2471  0.3158
  584DG     C1213421   4.569   2.811   2.537 -0.2926 -0.8548 -0.1572
  584DG     H1313422   4.462   3.253   2.641 -1.3091 -1.1415  1.2920
  584DG     H1413423   4.513   3.227   2.812 -0.8672 -0.0732  0.0746
  584DG     H1513424   4.659   2.848   2.487  2.0142 -3.0221  2.1415
  584DG     H1613425   4.606   2.709   2.549  1.2476 -0.4357 -1.0172
  584DG     C1713426   4.594   3.093   2.659  0.7462 -0.2360 -0.0106
  584DG     C1813427   4.540   2.862   2.686  0.0414  0.0040 -0.2732
  584DG     O1913428   4.492   2.999   2.674  0.4045  0.2442  0.0675
  584DG     H2013429   4.671   3.048   2.722 -0.1583 -0.7456  0.7831
  584DG     H2113430   4.635   3.099   2.559  0.0276  0.0333 -0.2938
  584DG     H2213431   4.454   2.808   2.725  0.5769  0.5732  1.8001
  584DG     H2313432   4.623   2.843   2.754 -0.9829 -0.6519  0.8268
  585DG      C113433   2.965   1.045   1.145 -0.3796 -0.4737  0.3079
  585DG      C213434   2.658   1.147   1.799 -0.2230  0.0406  0.1122
  585DG      H313435   2.874   1.014   1.094  0.2114  0.5817 -1.4770
  585DG      H413436   3.004   0.954   1.191  0.9045 -0.8234 -1.3584
  585DG      H513437   3.033   1.080   1.067 -1.1584  0.8071  0.1859
  585DG      H613438   2.600   1.074   1.741  0.5069 -0.7397  0.3385
  585DG      H713439   2.719   1.097   1.875 -0.1038 -0.8339 -0.5319
  585DG      H813440   2.587   1.202   1.860  0.8805 -0.8190  2.2744
  585DG      O913441   2.941   1.135   1.253 -0.3106 -0.1020  0.4828
  585DG     O1013442   2.736   1.242   1.724  0.6551  0.5344 -0.1077
  585DG     C1113443   2.859   1.242   1.209 -0.3348  0.4035  0.0114
  585DG     C1213444   2.655   1.321   1.638 -0.1129 -0.3542 -0.4662
  585DG     H1313445   2.764   1.201   1.174 -0.9935  0.4946  1.6195
  585DG     H1413446   2.896   1.294   1.121  0.5552  0.9036  0.6589
  585DG     H1513447   2.605   1.400   1.695  2.0780  1.3433 -0.7494
  585DG     H1613448   2.579   1.257   1.594  1.6832 -2.2530 -0.9743
  585DG     C1713449   2.853   1.346   1.319  0.6600 -0.5295 -0.2428
  585DG     C1813450   2.746   1.385   1.534 -0.1784 -0.4958  0.7491
  585DG     O1913451   2.782   1.292   1.432  0.7223 -0.4865 -0.0223
  585DG     H2013452   2.791   1.430   1.286 -0.2302 -0.1919  2.0841
  585DG     H2113453   2.954   1.374   1.348  1.2132 -2.6745  0.0829
  585DG     H2213454   2.688   1.471   1.499  1.2891  0.7465  1.2506
  585DG     H2313455   2.835   1.432   1.575 -0.0040  1.6550 -1.8230
  586DG      C113456   2.852   0.055   1.778  0.3400 -0.4096  0.0605
  586DG      C213457   2.781  -0.038   2.527  0.5035 -0.9257  0.7331
  586DG      H313458   2.799   0.067   1.683 -2.0802 -1.2806  1.2135
  586DG      H413459   2.956   0.034   1.754  0.6020 -0.8176  1.4797
  586DG      H513460   2.854   0.158   1.813 -0.5007 -0.4583  0.2914
  586DG      H613461   2.735  -0.085   2.614  0.7201  1.9164  2.5059
  586DG      H713462   2.874  -0.092   2.509  1.1455 -0.7322  3.1704
  586DG      H813463   2.797   0.065   2.558 -0.9995 -0.4743  0.0996
  586DG      O913464   2.790  -0.036   1.868 -0.3796 -0.1735  0.0733
  586DG     O1013465   2.701  -0.041   2.408 -0.0164 -0.5159 -0.1332
  586DG     C1113466   2.658   0.006   1.896 -1.3671 -0.3165  0.1351
  586DG     C1213467   2.691  -0.175   2.345 -0.2565 -0.2993 -0.2825
  586DG     H1313468   2.601   0.012   1.803 -1.2258  2.7725  0.1292
  586DG     H1413469   2.671   0.106   1.938  0.7404 -0.2363 -0.5935
  586DG     H1513470   2.663  -0.259   2.408 -1.5062 -0.0758 -0.5204
  586DG     H1613471   2.794  -0.198   2.315  0.5528 -0.0686  2.1038
  586DG     C1713472   2.583  -0.084   1.998 -0.1198 -0.0781  0.0993
  586DG     C1813473   2.592  -0.165   2.231 -0.7620 -0.3504  0.3834
  586DG     O1913474   2.650  -0.083   2.122  0.2096 -0.2861 -0.3752
  586DG     H2013475   2.588  -0.182   1.951  1.7824  0.0485 -0.0408
  586DG     H2113476   2.477  -0.063   2.013 -0.3821 -1.5056  0.3618
  586DG     H2213477   2.572  -0.270   2.210  0.2761 -0.5204  0.1991
  586DG     H2313478   2.496  -0.118   2.255  0.2853  1.4453  1.2254
  587DG      C113479   4.360   3.985   2.098 -0.0719 -0.3282 -0.1865
  587DG      C213480   4.829   3.949   2.560  0.5186 -0.2882  0.0933
  587DG      H313481   4.264   3.934   2.092  0.1169 -0.4866 -2.8953
  587DG      H413482   4.425   3.947   2.019  1.1335 -1.6320  1.3463
  587DG      H513483   4.348   4.087   2.063  4.0541  1.5799  3.0038
  587DG      H613484   4.857   4.031   2.494 -0.7778  0.8854  0.9602
  587DG      H713485   4.888   3.960   2.651 -1.6447 -0.1541  1.5570
  587DG      H813486   4.856   3.860   2.503  1.3533 -0.2577  0.4142
  587DG      O913487   4.429   3.982   2.224  0.1732  0.1344 -0.1106
  587DG     O1013488   4.693   3.952   2.582  0.2481  0.2235 -0.1077
  587DG     C1113489   4.373   4.053   2.336 -0.7085 -0.1870  0.0641
  587DG     C1213490   4.635   3.826   2.625 -0.3133  0.1555 -0.4383
  587DG     H1313491   4.265   4.036   2.339 -0.3353 -2.8808  0.4419
  587DG     H1413492   4.395   4.158   2.319  0.6199 -0.5062 -0.2308
  587DG     H1513493   4.668   3.807   2.727 -1.9972  0.0109  0.1207
  587DG     H1613494   4.661   3.743   2.560  2.4034 -0.8165  1.6863
  587DG     C1713495   4.434   4.017   2.466  0.2386 -0.4972  0.7001
  587DG     C1813496   4.481   3.846   2.630 -0.2166 -0.3229  0.7175
  587DG     O1913497   4.442   3.878   2.493  0.2038 -0.5266  0.0234
  587DG     H2013498   4.387   4.075   2.545  0.2997  0.6608 -0.0879
  587DG     H2113499   4.536   4.055   2.461  0.0298  0.0016  0.1588
  587DG     H2213500   4.443   3.748   2.658  1.4414 -0.8541  1.1607
  587DG     H2313501   4.452   3.925   2.700 -0.4583  0.5479 -0.3449
  588DG      C113502   4.067   3.609   1.507 -0.1629 -0.7468  0.2696
  588DG      C213503   3.567   4.012   1.793  0.0232  0.0540 -0.1026
  588DG      H313504   4.123   3.688   1.556  0.2030 -0.0446 -1.2340
  588DG      H413505   4.068   3.624   1.399  0.8848 -0.3908  0.3254
  588DG      H513506   4.112   3.517   1.545 -0.9477 -1.0905  0.4090
  588DG      H613507   3.460   4.024   1.776 -0.6233  0.9929  3.7599
  588DG      H713508   3.580   4.035   1.898  2.1591 -3.8819  0.6782
  588DG      H813509   3.622   4.088   1.736  0.1921 -1.9609 -2.8298
  588DG      O913510   3.945   3.624   1.575  0.6150 -0.2605 -0.6252
  588DG     O1013511   3.612   3.876   1.771  0.0107 -0.3339 -0.0078
  588DG     C1113512   3.840   3.551   1.514  0.1169 -0.0194 -0.1078
  588DG     C1213513   3.515   3.775   1.798  0.5971  0.3269  0.0216
  588DG     H1313514   3.889   3.459   1.483  1.2214  0.8498 -1.0453
  588DG     H1413515   3.802   3.595   1.422  1.1720 -2.7002 -1.9379
  588DG     H1513516   3.417   3.764   1.752 -0.1992 -3.0346  2.1359
  588DG     H1613517   3.488   3.770   1.903 -1.1773  2.0269 -0.3013
  588DG     C1713518   3.733   3.521   1.619  0.4506  0.2142  0.0689
  588DG     C1813519   3.577   3.638   1.774 -0.4486  0.1330 -0.4979
  588DG     O1913520   3.672   3.643   1.664 -0.3050 -0.1882 -0.3514
  588DG     H2013521   3.778   3.474   1.706  0.9079 -2.0554 -1.3085
  588DG     H2113522   3.654   3.458   1.577 -1.3867  2.2450  0.3083
  588DG     H2213523   3.610   3.607   1.873  0.1859 -0.3953 -0.8721
  588DG     H2313524   3.494   3.573   1.745 -1.5449  0.7731  1.0361
  589DG      C113525   5.433   4.467   3.348  0.0456  0.5798 -0.4687
  589DG      C213526   4.915   3.994   2.918 -0.3391  0.4028  0.7101
  589DG      H313527   5.540   4.452   3.334  0.4989  1.3065  1.8605
  589DG      H413528   5.404   4.411   3.437  0.0192 -0.2684 -1.0048
  589DG      H513529   5.397   4.569   3.362  1.1420  0.9278 -0.0383
  589DG      H613530   4.878   3.900   2.877 -0.3526  0.9253 -0.5221
  589DG      H713531   4.834   4.067   2.923 -2.1309 -1.3167 -1.1339
  589DG      H813532   4.989   4.028   2.846 -0.8134  1.1308  0.5551
  589DG      O913533   5.371   4.419   3.231 -0.0836  0.0325 -0.5126
  589DG     O1013534   4.963   3.972   3.054 -0.0722  0.0229  0.5740
  589DG     C1113535   5.424   4.294   3.191  0.5677  0.7696 -0.4674
  589DG     C1213536   5.013   4.081   3.126 -0.4039  0.1695 -0.2925
  589DG     H1313537   5.425   4.230   3.279  2.7061 -0.1501 -1.0899
  589DG     H1413538   5.528   4.312   3.163  1.2044  0.9156  1.7529
  589DG     H1513539   5.021   4.060   3.233 -3.8186 -1.2980 -0.1877
  589DG     H1613540   4.939   4.160   3.127 -2.2186 -1.4546  0.2960
  589DG     C1713541   5.338   4.224   3.082 -0.1485  0.3380 -0.4294
  589DG     C1813542   5.132   4.127   3.054  0.4380  0.3452 -0.5052
  589DG     O1913543   5.208   4.203   3.144 -0.2701  0.1603  0.1399
  589DG     H2013544   5.394   4.134   3.056  2.4767  2.2511 -1.8664
  589DG     H2113545   5.345   4.289   2.994 -0.9642  2.2101  0.8317
  589DG     H2213546   5.192   4.043   3.019  1.0107  0.7803 -0.5760
  589DG     H2313547   5.092   4.182   2.969 -1.1368  1.1723  0.7175
  590DG      C113548   0.152   2.868   3.552 -0.1406 -0.0334 -0.3260
  590DG      C213549   0.708   2.725   3.083  0.4861  0.8269 -0.2002
  590DG      H313550   0.068   2.799   3.543  0.5952 -0.8117 -1.5963
  590DG      H413551   0.168   2.910   3.452  1.3294  1.4069  0.4575
  590DG      H513552   0.143   2.952   3.621 -1.1889 -0.7868  0.4954
  590DG      H613553   0.792   2.655   3.090  0.2532  0.4391 -1.0863
  590DG      H713554   0.642   2.682   3.007  2.1218  1.4778 -2.0980
  590DG      H813555   0.749   2.816   3.040 -3.5889  2.5766 -0.8352
  590DG      O913556   0.271   2.797   3.582  0.1509  0.3856  0.6322
  590DG     O1013557   0.648   2.749   3.205  0.3937 -0.4870 -0.1701
  590DG     C1113558   0.378   2.885   3.599  0.1608 -0.0571 -1.2347
  590DG     C1213559   0.615   2.628   3.264 -0.3468  0.3806 -0.6218
  590DG     H1313560   0.380   2.906   3.706  0.5657 -1.5595 -0.9128
  590DG     H1413561   0.366   2.977   3.543  2.1519 -0.2680 -2.1119
  590DG     H1513562   0.700   2.561   3.272 -0.7871 -0.1128  0.0596
  590DG     H1613563   0.543   2.571   3.205  0.2893 -0.3867 -0.6575
  590DG     C1713564   0.501   2.812   3.562 -0.1938 -0.0627  0.3409
  590DG     C1813565   0.575   2.644   3.411  0.5776  0.0851  0.1851
  590DG     O1913566   0.488   2.756   3.428 -0.2394 -0.2185  0.7124
  590DG     H2013567   0.505   2.731   3.635 -1.3512  0.6020  1.1660
  590DG     H2113568   0.585   2.882   3.556 -0.6789  0.8988  3.3068
  590DG     H2213569   0.525   2.553   3.444  1.2242 -0.0508  0.8454
  590DG     H2313570   0.654   2.655   3.486 -0.0199 -0.3442  0.8938
  591DG      C113571   4.084   2.802   4.840 -0.3397 -0.4927  0.4241
  591DG      C213572   3.646   2.869   4.224 -0.0757 -0.2766  0.5475
  591DG      H313573   4.027   2.712   4.862 -1.1353  0.3796  2.1184
  591DG      H413574   4.134   2.825   4.934  1.2585 -0.4977 -0.3873
  591DG      H513575   4.168   2.774   4.777  0.6098 -2.1076  2.3224
  591DG      H613576   3.664   2.932   4.137 -0.1991 -0.0783  0.6641
  591DG      H713577   3.655   2.765   4.193  1.2229 -0.1103  0.3369
  591DG      H813578   3.539   2.879   4.245 -0.3799 -1.7827 -0.1937
  591DG      O913579   3.985   2.891   4.784  0.0525 -0.4445  0.3685
  591DG     O1013580   3.728   2.921   4.331  0.2864 -0.1407  0.5929
  591DG     C1113581   3.882   2.927   4.874 -0.1271  0.1878  0.0217
  591DG     C1213582   3.692   2.882   4.466  0.0021 -0.6148 -0.6749
  591DG     H1313583   3.907   2.982   4.965  1.5210 -1.5427  0.6755
  591DG     H1413584   3.821   2.840   4.899  1.4019 -0.7678  0.5462
  591DG     H1513585   3.713   2.778   4.492 -1.4495 -0.8406 -0.3133
  591DG     H1613586   3.586   2.897   4.488  0.5881  1.0526  1.2650
  591DG     C1713587   3.778   3.009   4.800  0.0681  1.0542  0.3258
  591DG     C1813588   3.764   2.979   4.563 -0.0941 -0.1582 -0.3635
  591DG     O1913589   3.725   2.936   4.691  0.4258  0.1086  0.2585
  591DG     H2013590   3.820   3.106   4.771 -0.5525  1.3134  0.2678
  591DG     H2113591   3.696   3.020   4.871  1.8063 -3.2758  3.4164
  591DG     H2213592   3.872   2.963   4.561 -0.2810 -1.6560  0.0149
  591DG     H2313593   3.736   3.081   4.538 -1.2818 -0.3871 -0.0216
  592DG      C113594   3.596   5.118   4.484 -0.3678 -0.2906  0.0232
  592DG      C213595   3.307   5.688   4.527  0.0094 -0.2379  0.6914
  592DG      H313596   3.632   5.028   4.534  1.8021  0.4207 -0.1649
  592DG      H413597   3.640   5.132   4.385 -0.3875 -0.1562  0.0330
  592DG      H513598   3.490   5.099   4.463 -0.1674 -0.7371 -0.6221
  592DG      H613599   3.225   5.622   4.499  0.5247 -0.3999 -0.4911
  592DG      H713600   3.274   5.750   4.610  0.6985  1.2379 -0.0869
  592DG      H813601   3.323   5.747   4.436  1.7315  0.9317  1.7000
  592DG      O913602   3.616   5.235   4.557  0.2731  0.1724  0.4979
  592DG     O1013603   3.430   5.613   4.567  0.4071  0.0087  0.3833
  592DG     C1113604   3.757   5.261   4.572 -0.4029  0.3420 -0.4514
  592DG     C1213605   3.541   5.692   4.594 -1.0060 -0.1508 -0.1797
  592DG     H1313606   3.806   5.271   4.475  1.3623 -0.5175  0.3057
  592DG     H1413607   3.796   5.178   4.632 -0.6496  0.7463  0.2875
  592DG     H1513608   3.522   5.769   4.668  2.0456 -1.7297  2.4534
  592DG     H1613609   3.578   5.746   4.507  0.7931 -2.2826 -0.8182
  592DG     C1713610   3.773   5.396   4.642  0.3276  0.4340  0.7839
  592DG     C1813611   3.652   5.608   4.662  0.8656  0.1252  1.0492
  592DG     O1913612   3.681   5.488   4.585 -0.2885  0.5463 -0.3228
  592DG     H2013613   3.874   5.434   4.629  0.4588 -0.5822 -1.6321
  592DG     H2113614   3.762   5.386   4.750  2.9650 -0.5150  1.0493
  592DG     H2213615   3.746   5.663   4.667  2.0316 -1.1051 -3.1084
  592DG     H2313616   3.609   5.567   4.754  0.2597  0.3899  0.8830
  593DG      C113617   0.370   4.158   4.079 -0.5009 -1.2364 -0.0373
  593DG      C213618   1.006   3.812   3.948  0.1969  0.5156  0.3352
  593DG      H313619   0.336   4.056   4.094 -0.3667 -1.5260 -1.5471
  593DG      H413620   0.281   4.207   4.039  0.4586  0.1997 -0.5143
  593DG      H513621   0.401   4.200   4.175  4.6421 -1.5698 -1.2796
  593DG      H613622   1.109   3.828   3.917  0.3770 -0.0025  0.6453
  593DG      H713623   1.010   3.795   4.056 -0.1185  1.8757  0.5799
  593DG      H813624   0.965   3.718   3.910  1.3365 -0.6648  1.8756
  593DG      O913625   0.480   4.164   3.989  0.2411  1.1057  0.0006
  593DG     O1013626   0.915   3.923   3.911  0.6648  0.0079  0.0574
  593DG     C1113627   0.444   4.101   3.864  0.7071  0.2969  0.4217
  593DG     C1213628   0.883   3.922   3.770  0.7122  0.2110 -0.2063
  593DG     H1313629   0.364   4.160   3.821 -0.7967 -0.8107  1.5822
  593DG     H1413630   0.401   4.004   3.890  0.8590 -0.2240 -1.1906
  593DG     H1513631   0.848   3.823   3.739  1.4893 -0.4074  0.8169
  593DG     H1613632   0.969   3.931   3.705 -0.9303  0.0744 -2.5200
  593DG     C1713633   0.551   4.097   3.762 -0.1355 -0.1426  0.7818
  593DG     C1813634   0.778   4.019   3.722 -0.6062 -0.2703 -0.1152
  593DG     O1913635   0.652   4.002   3.788  0.0110 -0.0968 -0.0825
  593DG     H2013636   0.588   4.193   3.726  0.7051 -0.4776  0.7298
  593DG     H2113637   0.509   4.063   3.667 -1.2813 -0.3168  1.3305
  593DG     H2213638   0.817   4.115   3.755  3.0097 -1.6357  0.0279
  593DG     H2313639   0.766   4.015   3.614 -1.1207 -0.1590 -0.0652
  594DG      C113640   3.258   5.498   5.046 -0.7846  0.6815  0.2267
  594DG      C213641   2.751   5.896   5.516 -0.1826  0.0666 -0.3561
  594DG      H313642   3.253   5.389   5.045  0.3091  0.5978  1.5338
  594DG      H413643   3.331   5.529   5.121  1.3252 -0.8994 -1.0564
  594DG      H513644   3.305   5.519   4.950 -0.0298  0.9315  0.6474
  594DG      H613645   2.782   5.981   5.577 -1.4332  0.1267  0.2350
  594DG      H713646   2.645   5.917   5.496 -0.3667 -0.5139 -0.0227
  594DG      H813647   2.750   5.803   5.573 -0.1539  0.3735  0.1532
  594DG      O913648   3.131   5.561   5.062  0.2160 -0.3223  0.1116
  594DG     O1013649   2.808   5.894   5.385  0.4355  0.1041  0.1389
  594DG     C1113650   3.135   5.698   5.025 -0.2229  0.7149 -0.0309
  594DG     C1213651   2.952   5.869   5.393  0.4349  0.5722 -0.9964
  594DG     H1313652   3.175   5.706   4.923  0.4662  1.2212  0.2700
  594DG     H1413653   3.202   5.745   5.097  0.0021  2.1472 -1.1221
  594DG     H1513654   2.970   5.773   5.441 -1.0588  0.8424  0.1662
  594DG     H1613655   2.990   5.943   5.464  0.6834  0.3526 -0.8950
  594DG     C1713656   3.013   5.794   5.038  1.2153  0.2063  0.2917
  594DG     C1813657   3.015   5.892   5.252 -1.0457 -0.1936  0.3371
  594DG     O1913658   2.957   5.798   5.162 -0.2407 -0.7545  0.3305
  594DG     H2013659   2.936   5.744   4.979  1.7059 -0.3750  0.1405
  594DG     H2113660   3.017   5.893   4.992  0.9853 -0.6935 -1.7845
  594DG     H2213661   2.993   5.992   5.216  0.9346 -0.2033 -1.0214
  594DG     H2313662   3.122   5.874   5.251 -0.9817  0.1838 -1.3476
  595DG      C113663   4.919   2.319   4.513 -0.4980  0.1264  0.2907
  595DG      C213664   4.809   1.912   5.226  0.5601 -0.0720 -0.3126
  595DG      H313665   4.847   2.315   4.431 -1.2044  3.9265  0.5447
  595DG      H413666   5.012   2.284   4.468  0.7819  0.9469  2.1750
  595DG      H513667   4.929   2.425   4.532  1.4533  0.4491 -2.0456
  595DG      H613668   4.912   1.878   5.216  1.5607  1.5934  2.7999
  595DG      H713669   4.818   1.986   5.307 -2.2257  1.8314 -1.5743
  595DG      H813670   4.739   1.834   5.255  0.0826  1.2459  2.4650
  595DG      O913671   4.887   2.256   4.634  0.1654  0.5404 -0.1600
  595DG     O1013672   4.759   1.985   5.116  0.2114  0.1878  0.1098
  595DG     C1113673   4.820   2.129   4.614  0.4021 -0.1125  0.1394
  595DG     C1213674   4.859   2.072   5.065 -0.3907 -0.6816  0.0869
  595DG     H1313675   4.893   2.049   4.600  1.8223  1.1084  0.2628
  595DG     H1413676   4.765   2.123   4.520  0.8465  1.2978 -0.2312
  595DG     H1513677   4.955   2.024   5.048  0.8727  2.4535 -2.5896
  595DG     H1613678   4.883   2.142   5.144  0.2715 -1.5591  0.6804
  595DG     C1713679   4.726   2.102   4.728  0.4916 -0.6858  0.0266
  595DG     C1813680   4.810   2.153   4.946 -0.2275  0.3332 -0.5387
  595DG     O1913681   4.801   2.061   4.842  0.4116 -0.8416  0.1105
  595DG     H2013682   4.652   2.027   4.701 -1.4196  0.9897  0.3641
  595DG     H2113683   4.661   2.188   4.744  0.9136 -0.1240 -1.1112
  595DG     H2213684   4.705   2.175   4.965 -0.0178  0.3625  0.6907
  595DG     H2313685   4.868   2.241   4.917  1.2315 -0.4632 -0.1606
  596DG      C113686   1.897   0.711   1.206  0.4046  0.7224 -0.2093
  596DG      C213687   1.364   0.636   1.657  0.2348  0.3989  0.2988
  596DG      H313688   1.893   0.767   1.113  2.9744 -0.2857 -1.0287
  596DG      H413689   1.951   0.617   1.191 -2.8389 -1.5332  0.9630
  596DG      H513690   1.942   0.770   1.285 -0.1182 -0.0028  0.6478
  596DG      H613691   1.431   0.574   1.716  1.4537 -0.5707 -1.9579
  596DG      H713692   1.387   0.740   1.681  1.9173  0.1373 -0.0867
  596DG      H813693   1.260   0.608   1.671 -0.1714  1.6313 -0.1080
  596DG      O913694   1.762   0.681   1.237 -0.0328 -0.1247 -0.0846
  596DG     O1013695   1.412   0.612   1.529  1.0759 -0.4477 -0.0030
  596DG     C1113696   1.717   0.589   1.136  0.2767  0.1167  0.1624
  596DG     C1213697   1.403   0.471   1.492 -0.0615  0.0904 -0.2817
  596DG     H1313698   1.786   0.506   1.146  0.7530  0.4489 -0.3468
  596DG     H1413699   1.716   0.628   1.035 -0.2139  1.9657  0.8384
  596DG     H1513700   1.308   0.427   1.522  0.1904  0.2480  0.7845
  596DG     H1613701   1.484   0.418   1.542  0.5871  0.7786 -0.5835
  596DG     C1713702   1.570   0.545   1.169  0.2255  0.3412  0.3509
  596DG     C1813703   1.422   0.447   1.344 -0.3626 -0.4267 -0.1906
  596DG     O1913704   1.544   0.520   1.312 -0.1943  0.2203  0.3972
  596DG     H2013705   1.556   0.444   1.130  0.8682 -0.2589  1.6179
  596DG     H2113706   1.486   0.609   1.140 -1.4093 -1.4039  0.9904
  596DG     H2213707   1.436   0.342   1.320  2.7458 -0.3327  0.7289
  596DG     H2313708   1.340   0.491   1.288  0.3690  1.5563  0.2186
  597DG      C113709   1.368   1.893   5.358  0.7976 -0.0481  0.5299
  597DG      C213710   1.298   2.263   4.903  0.1689  0.2834 -0.0732
  597DG      H313711   1.415   1.970   5.420  2.0282 -0.1483 -0.2662
  597DG      H413712   1.397   1.801   5.408  0.0097 -2.5463 -3.2089
  597DG      H513713   1.261   1.910   5.370  0.6501 -0.4821 -0.1656
  597DG      H613714   1.191   2.250   4.886 -0.3021  1.5540  1.6657
  597DG      H713715   1.322   2.224   5.002  1.0530 -1.1131 -0.8091
  597DG      H813716   1.320   2.369   4.896  2.1178 -0.1380 -1.0442
  597DG      O913717   1.405   1.891   5.216 -0.0322 -0.2083 -0.1527
  597DG     O1013718   1.369   2.189   4.808  0.3668 -0.3745 -0.2073
  597DG     C1113719   1.544   1.903   5.189  0.2470  0.1053 -0.1850
  597DG     C1213720   1.320   2.058   4.800 -0.5209 -0.1088  0.1839
  597DG     H1313721   1.600   1.834   5.252 -2.3133 -0.3440  1.7271
  597DG     H1413722   1.572   2.001   5.227 -0.6042 -0.8414  3.1727
  597DG     H1513723   1.305   2.049   4.692  0.3304  0.8801 -0.0358
  597DG     H1613724   1.220   2.048   4.842 -1.0936 -2.1919 -1.4614
  597DG     C1713725   1.557   1.886   5.039 -0.0239 -0.3820 -0.2032
  597DG     C1813726   1.439   1.964   4.840  0.4090 -0.5090  0.0056
  597DG     O1913727   1.470   1.976   4.974  0.1995  0.2663  0.2294
  597DG     H2013728   1.520   1.786   5.016  0.1326 -1.9749  5.0281
  597DG     H2113729   1.661   1.886   5.007 -0.3758 -2.5230 -1.5868
  597DG     H2213730   1.412   1.862   4.814 -1.7374  0.1822 -0.7536
  597DG     H2313731   1.534   1.990   4.794  0.8172 -1.0650  0.5212
  598DG      C113732   0.807   4.847   5.408 -0.5720 -0.0966 -0.0874
  598DG      C213733   1.311   4.623   5.830 -0.1809 -0.3605  0.0207
  598DG      H313734   0.831   4.951   5.432 -0.1439 -0.7028  2.3294
  598DG      H413735   0.760   4.805   5.497 -0.2502  0.3830  0.3167
  598DG      H513736   0.748   4.849   5.316 -1.6193  0.4675  0.5739
  598DG      H613737   1.384   4.699   5.856 -0.0709 -1.2283  2.5049
  598DG      H713738   1.250   4.615   5.920 -0.7032 -0.0727 -0.3034
  598DG      H813739   1.356   4.528   5.801  1.3412 -0.0903  1.3514
  598DG      O913740   0.927   4.779   5.383 -0.1031 -0.4677 -0.3199
  598DG     O1013741   1.232   4.668   5.719  0.0156  0.1554  0.1301
  598DG     C1113742   0.926   4.634   5.365  0.0183  0.3979 -0.7088
  598DG     C1213743   1.291   4.676   5.592  0.4869  0.3392  0.7860
  598DG     H1313744   0.858   4.611   5.284 -0.1932  1.6669 -0.9093
  598DG     H1413745   0.897   4.590   5.460  3.2363 -0.7680 -0.1170
  598DG     H1513746   1.341   4.582   5.569 -2.9540 -1.3050 -0.6239
  598DG     H1613747   1.363   4.758   5.593 -2.5221  3.2652 -1.0099
  598DG     C1713748   1.056   4.573   5.323 -0.2146 -0.8991  0.2423
  598DG     C1813749   1.183   4.702   5.484 -0.4608 -0.1510 -0.6182
  598DG     O1913750   1.135   4.574   5.442 -0.8015  0.1904 -0.0643
  598DG     H2013751   1.089   4.617   5.229  0.0219 -1.3109  0.1307
  598DG     H2113752   1.026   4.471   5.298  1.1357 -1.3942  0.6147
  598DG     H2213753   1.110   4.763   5.537  1.5206  1.3999  0.4975
  598DG     H2313754   1.238   4.754   5.405 -1.1506  1.0557 -0.3306
  599DG      C113755   0.254   0.181   2.521  0.0086 -0.1185  0.3075
  599DG      C213756   0.868   0.676   2.510 -0.1343 -0.2194  0.4601
  599DG      H313757   0.214   0.118   2.600 -0.7315 -1.3206 -0.9654
  599DG      H413758   0.306   0.118   2.448 -0.3247 -1.6852  1.3685
  599DG      H513759   0.169   0.224   2.468  0.0128 -0.9307 -0.3850
  599DG      H613760   0.968   0.661   2.468 -0.3168  0.4305 -0.2243
  599DG      H713761   0.813   0.720   2.428  0.8028 -1.2879 -0.7872
  599DG      H813762   0.892   0.763   2.572  0.0032  1.8363 -2.2747
  599DG      O913763   0.328   0.281   2.586 -0.3549  0.1205  0.2026
  599DG     O1013764   0.797   0.570   2.571 -0.3779  0.3538  0.4721
  599DG     C1113765   0.436   0.221   2.665 -0.2718 -0.1976  0.5516
  599DG     C1213766   0.718   0.614   2.680  0.2410  0.8679  0.1573
  599DG     H1313767   0.489   0.143   2.610  0.0993  1.5877 -1.7975
  599DG     H1413768   0.388   0.160   2.741  0.6317 -2.8400 -0.8675
  599DG     H1513769   0.634   0.663   2.630 -1.4343  0.2716  2.2693
  599DG     H1613770   0.770   0.677   2.752  1.4808  0.1203 -0.0540
  599DG     C1713771   0.516   0.315   2.753 -0.1776 -0.4618  0.1235
  599DG     C1813772   0.655   0.496   2.753 -0.1169 -0.4909  0.3136
  599DG     O1913773   0.576   0.408   2.668 -0.4792  0.6362 -0.3515
  599DG     H2013774   0.594   0.254   2.798  1.4340  0.8838 -0.7304
  599DG     H2113775   0.455   0.345   2.838 -2.4411 -1.5611 -1.0278
  599DG     H2213776   0.729   0.443   2.813 -1.3574 -1.4955  1.0079
  599DG     H2313777   0.586   0.546   2.821  1.2567  1.8561  0.1002
  600DG      C113778   1.241   5.140   0.355 -0.7043 -0.3687 -0.2974
  600DG      C213779   0.710   5.177   0.751  0.3425  0.6442  0.1698
  600DG      H313780   1.320   5.065   0.355 -1.5721 -1.3196 -0.9983
  600DG      H413781   1.228   5.163   0.460  0.6282 -0.4374 -0.1079
  600DG      H513782   1.270   5.234   0.307  1.6272 -0.6969  0.3540
  600DG      H613783   0.605   5.169   0.723  0.4379  1.3056 -0.4112
  600DG      H713784   0.725   5.124   0.845 -0.9790 -0.6459 -0.2995
  600DG      H813785   0.734   5.281   0.772 -0.6004  1.1076 -0.9529
  600DG      O913786   1.111   5.102   0.303  0.1046 -0.2022 -0.2063
  600DG     O1013787   0.788   5.105   0.658 -0.3134 -0.2348 -0.1519
  600DG     C1113788   1.074   4.962   0.325 -0.5125 -0.2323 -0.6648
  600DG     C1213789   0.750   4.968   0.636 -0.6842  0.3396 -0.6522
  600DG     H1313790   1.100   4.921   0.423  1.5126 -1.0451 -1.4870
  600DG     H1413791   1.139   4.908   0.256  0.0035 -0.5446  0.0555
  600DG     H1513792   0.644   4.985   0.616 -0.9876 -0.6973 -0.0066
  600DG     H1613793   0.746   4.908   0.727 -1.3867 -0.1475 -1.0011
  600DG     C1713794   0.927   4.930   0.301 -0.4936 -0.2174  0.3059
  600DG     C1813795   0.817   4.897   0.515  0.4594 -0.2415 -1.0642
  600DG     O1913796   0.852   4.988   0.412 -0.1727 -0.3183  0.5120
  600DG     H2013797   0.914   4.823   0.288  0.9714 -0.4981  0.9345
  600DG     H2113798   0.902   4.969   0.202  0.6515  3.6518  1.3556
  600DG     H2213799   0.896   4.833   0.555  0.0882  1.2600  2.3295
  600DG     H2313800   0.743   4.826   0.477  0.5448 -1.7855  1.4329
  601DG      C113801   2.587   4.685   0.902  0.1918  0.0475  0.1606
  601DG      C213802   2.358   4.753   1.295 -0.6104 -0.6060 -0.0817
  601DG      H313803   2.617   4.728   0.998  2.8814  0.6172 -0.8517
  601DG      H413804   2.508   4.744   0.854  0.2563  0.1609  0.1933
  601DG      H513805   2.678   4.697   0.843  0.6713 -0.1079  0.8573
  601DG      H613806   2.337   4.767   1.401  1.8365 -0.4558  0.4508
  601DG      H713807   2.445   4.810   1.260 -0.9736  1.9155  2.6822
  601DG      H813808   2.273   4.789   1.237  0.2277 -0.9708 -1.5975
  601DG      O913809   2.555   4.554   0.902 -0.2705  0.4850  0.0201
  601DG     O1013810   2.374   4.615   1.272 -0.2569  0.2905  0.3943
  601DG     C1113811   2.658   4.478   0.954 -0.4868  0.4559 -0.1958
  601DG     C1213812   2.479   4.557   1.348  0.4263  0.4757  0.9231
  601DG     H1313813   2.750   4.509   0.904 -0.6750 -0.5883 -1.2432
  601DG     H1413814   2.647   4.377   0.914  1.5004  0.1146  0.0341
  601DG     H1513815   2.448   4.545   1.452  0.3994 -1.6602  0.7046
  601DG     H1613816   2.567   4.620   1.353  1.1080 -0.3436 -0.2367
  601DG     C1713817   2.662   4.476   1.111 -0.0521  0.0965 -0.4195
  601DG     C1813818   2.523   4.420   1.290  0.1363 -0.5784 -0.1824
  601DG     O1913819   2.534   4.425   1.146 -0.0048 -0.1163  0.0742
  601DG     H2013820   2.680   4.575   1.152 -0.8898  0.5594 -1.1519
  601DG     H2113821   2.741   4.413   1.152  0.6159  1.7271  0.9221
  601DG     H2213822   2.613   4.382   1.340  1.1740  0.8140 -0.9220
  601DG     H2313823   2.444   4.347   1.305  0.5157 -0.9915 -0.1537
  602DG      C113824   2.079   3.609   5.290  0.7018 -0.0170  0.5443
  602DG      C213825   1.487   3.254   5.202  0.4852  0.4933 -0.0305
  602DG      H313826   2.185   3.588   5.306  1.3662 -0.5234 -3.4358
  602DG      H413827   2.055   3.700   5.344 -1.0524 -0.9216  1.3475
  602DG      H513828   2.038   3.623   5.190 -0.3326 -3.3112  0.4080
  602DG      H613829   1.519   3.232   5.101  1.1801 -2.3233  0.6927
  602DG      H713830   1.422   3.173   5.236 -1.1047  2.0734  0.8837
  602DG      H813831   1.424   3.343   5.203  2.4497  1.9519 -1.4393
  602DG      O913832   1.997   3.508   5.339  0.1200  0.7690  0.7777
  602DG     O1013833   1.601   3.277   5.280 -0.4267  0.3706 -0.4418
  602DG     C1113834   2.000   3.500   5.485  0.1544 -0.0397  0.2779
  602DG     C1213835   1.587   3.256   5.420  0.4375  0.2290 -0.0028
  602DG     H1313836   1.964   3.590   5.535 -1.5880 -0.4893 -0.1303
  602DG     H1413837   2.102   3.486   5.521  0.1147 -0.4087  0.2461
  602DG     H1513838   1.529   3.164   5.435 -1.2041  1.0403 -1.0862
  602DG     H1613839   1.511   3.317   5.468 -0.8091 -0.5789 -0.8632
  602DG     C1713840   1.923   3.376   5.534 -0.2186  0.5513 -0.8830
  602DG     C1813841   1.728   3.250   5.485 -0.9924  0.7072 -0.1669
  602DG     O1913842   1.801   3.369   5.468 -0.3453  0.4336 -0.2066
  602DG     H2013843   1.906   3.364   5.641  0.5320 -0.5263 -0.8748
  602DG     H2113844   1.982   3.291   5.501 -0.4552  0.4223 -0.9805
  602DG     H2213845   1.727   3.210   5.587  1.6281 -0.7324 -0.6028
  602DG     H2313846   1.788   3.170   5.441 -1.2800 -0.6050  1.6750
  603DG      C113847   4.460   4.235   1.274  0.1625  0.5944 -0.0169
  603DG      C213848   4.450   3.516   1.567 -0.0165 -0.2065 -0.0475
  603DG      H313849   4.386   4.290   1.216  0.1868 -2.0560 -2.8121
  603DG      H413850   4.556   4.281   1.254  0.3805  1.7856  3.2103
  603DG      H513851   4.456   4.256   1.381  1.1877  0.4767  0.0520
  603DG      H613852   4.373   3.475   1.632  1.7734  0.9066  2.9838
  603DG      H713853   4.512   3.430   1.543  1.6570  0.7348  0.7008
  603DG      H813854   4.520   3.575   1.626 -0.6406 -1.0627  1.6004
  603DG      O913855   4.465   4.096   1.240  0.3454  0.0454 -0.0033
  603DG     O1013856   4.397   3.571   1.450 -0.2638 -0.1678  0.4672
  603DG     C1113857   4.354   4.040   1.314 -0.3070  0.5188  0.4475
  603DG     C1213858   4.487   3.584   1.331 -0.3421 -0.3362 -0.1176
  603DG     H1313859   4.264   4.101   1.323 -1.2584 -0.8428  0.6555
  603DG     H1413860   4.381   4.031   1.419 -0.5791 -2.3860  0.3515
  603DG     H1513861   4.493   3.490   1.277 -1.2998 -0.4942  0.0347
  603DG     H1613862   4.587   3.622   1.355 -0.1580 -0.5084 -0.6040
  603DG     C1713863   4.312   3.895   1.282 -0.6298  0.2896 -0.6435
  603DG     C1813864   4.408   3.679   1.241  0.0027  0.6767 -0.4175
  603DG     O1913865   4.421   3.810   1.284 -0.2653  0.0059  0.3801
  603DG     H2013866   4.252   3.900   1.191 -1.5217  3.4311  0.0205
  603DG     H2113867   4.240   3.858   1.354  1.0348 -1.0832  0.4139
  603DG     H2213868   4.455   3.671   1.143 -0.8355 -0.3917 -0.7512
  603DG     H2313869   4.305   3.658   1.214 -0.5216  3.2647 -0.7189
  604DG      C113870   4.506   2.182   5.237  0.3060 -0.1410  0.3614
  604DG      C213871   4.655   2.794   5.337  0.1540  0.2342  0.2170
  604DG      H313872   4.565   2.091   5.232  2.4513  1.1103  1.4620
  604DG      H413873   4.527   2.229   5.141  4.3701 -0.2439  1.0551
  604DG      H513874   4.408   2.137   5.257 -0.1583  1.0133  0.7659
  604DG      H613875   4.587   2.749   5.265  0.9547 -1.8670  0.7105
  604DG      H713876   4.616   2.896   5.336  2.3302  1.1492  1.2049
  604DG      H813877   4.752   2.795   5.286  1.9123  1.6973  3.3003
  604DG      O913878   4.526   2.273   5.341  0.0104  0.1663 -0.9952
  604DG     O1013879   4.655   2.747   5.472 -0.1335 -0.6203  0.2873
  604DG     C1113880   4.646   2.342   5.330 -0.1186  0.4936 -0.0016
  604DG     C1213881   4.522   2.733   5.518 -0.4337  0.3065 -0.0473
  604DG     H1313882   4.659   2.380   5.229 -1.6757  3.0092  0.6514
  604DG     H1413883   4.735   2.285   5.359 -0.4492  0.2857  0.6080
  604DG     H1513884   4.460   2.814   5.479  1.0718  1.0368 -1.0201
  604DG     H1613885   4.520   2.757   5.625 -1.6555 -0.7269  0.1943
  604DG     C1713886   4.630   2.452   5.433  0.3798  0.5837  0.0642
  604DG     C1813887   4.442   2.610   5.483 -0.5206  0.5238  0.4691
  604DG     O1913888   4.512   2.519   5.391 -0.0318 -0.7422 -0.3377
  604DG     H2013889   4.713   2.519   5.414  1.3900 -0.7259 -0.2715
  604DG     H2113890   4.607   2.428   5.537 -4.0003  1.9446 -0.3598
  604DG     H2213891   4.421   2.548   5.570  2.8937 -1.6644 -0.0756
  604DG     H2313892   4.346   2.645   5.445 -1.6374 -1.4476  1.3454
  605DG      C113893   5.473   1.388   3.332  1.0648 -0.2484 -0.5983
  605DG      C213894   4.871   1.275   3.650  0.3702 -0.4790  0.0833
  605DG      H313895   5.574   1.347   3.329  1.5001  0.7403 -0.1920
  605DG      H413896   5.475   1.462   3.412 -0.0698 -1.5937  0.7370
  605DG      H513897   5.455   1.425   3.231 -1.3723  0.1237 -0.0778
  605DG      H613898   4.828   1.373   3.626  0.8749 -0.3997 -0.5120
  605DG      H713899   4.796   1.197   3.660 -0.0586 -0.2224 -1.0438
  605DG      H813900   4.912   1.283   3.751  2.1396  2.1440 -0.7157
  605DG      O913901   5.375   1.286   3.361 -0.2441  0.1658  0.2039
  605DG     O1013902   4.977   1.228   3.569 -0.1822 -0.1221 -0.3422
  605DG     C1113903   5.360   1.186   3.257 -0.2679 -0.4343  0.5745
  605DG     C1213904   4.920   1.191   3.446 -0.1932 -0.5452 -0.2284
  605DG     H1313905   5.458   1.138   3.254  0.0023  0.0223  1.6041
  605DG     H1413906   5.354   1.232   3.158  1.0909 -0.6591  0.3600
  605DG     H1513907   4.889   1.277   3.387  0.5449 -0.4649 -0.5058
  605DG     H1613908   4.832   1.129   3.462  0.1334 -0.8287  0.5334
  605DG     C1713909   5.235   1.103   3.288  0.0031 -0.6990 -0.0652
  605DG     C1813910   5.017   1.107   3.362  0.2068 -0.4877  0.1502
  605DG     O1913911   5.137   1.181   3.358 -0.6255  0.0814  0.7144
  605DG     H2013912   5.260   1.015   3.346 -0.1594 -1.1222 -0.6317
  605DG     H2113913   5.195   1.060   3.197  1.3345 -1.8105 -0.1472
  605DG     H2213914   5.029   1.012   3.414  1.3917 -0.2555  0.3270
  605DG     H2313915   4.967   1.082   3.268 -1.1257 -1.5322  1.1039
  606DG      C113916   3.766   4.872   3.706  0.6595 -0.1397  0.5241
  606DG      C213917   4.060   5.200   3.276  0.3695 -0.2870  0.6121
  606DG      H313918   3.735   4.964   3.657 -2.4058 -2.4022 -2.2084
  606DG      H413919   3.682   4.804   3.724  0.7169  0.0938  1.7585
  606DG      H513920   3.833   4.811   3.644 -0.5436 -0.8948 -0.0615
  606DG      H613921   4.095   5.151   3.185  1.7463 -1.0413  1.5282
  606DG      H713922   3.975   5.264   3.252  0.6689 -0.6711 -1.7609
  606DG      H813923   4.137   5.269   3.310  0.3720 -0.3926  0.8193
  606DG      O913924   3.838   4.881   3.833  0.1644 -0.1372 -0.4893
  606DG     O1013925   4.021   5.106   3.375  0.0483 -0.0289  0.2349
  606DG     C1113926   3.957   4.969   3.831 -0.7581  0.9057 -0.1783
  606DG     C1213927   4.127   5.011   3.396  0.3691  0.3033 -0.5541
  606DG     H1313928   4.004   4.963   3.929 -1.5889 -0.3769  0.1557
  606DG     H1413929   3.938   5.073   3.804 -1.3693  0.5607 -1.1316
  606DG     H1513930   4.224   5.058   3.409  0.7212 -0.4099 -0.5777
  606DG     H1613931   4.156   4.966   3.302  1.4903  1.5993 -0.8531
  606DG     C1713932   4.064   4.922   3.722 -0.2712 -0.2124  0.7436
  606DG     C1813933   4.089   4.904   3.494 -0.2271  0.4665  0.0779
  606DG     O1913934   4.018   4.965   3.596 -0.0367 -0.2838  0.4977
  606DG     H2013935   4.077   4.814   3.733 -0.8619 -0.2174  1.5212
  606DG     H2113936   4.159   4.973   3.740 -0.8563  1.1343  0.1568
  606DG     H2213937   4.030   4.822   3.452  2.8650 -2.4771  0.9680
  606DG     H2313938   4.179   4.852   3.530  0.3799  0.5363 -1.2694
  607DG      C113939   0.258   2.858   1.523 -0.3518 -0.2098 -0.2318
  607DG      C213940  -0.465   3.061   2.001  0.5771 -0.6030 -0.1385
  607DG      H313941   0.234   2.945   1.463 -2.6081 -1.3753 -1.1444
  607DG      H413942   0.194   2.782   1.479 -0.9571  0.3785 -0.3792
  607DG      H513943   0.361   2.823   1.517  0.6287  2.7021 -2.5210
  607DG      H613944  -0.537   2.978   2.005  1.0243 -1.1034 -1.5951
  607DG      H713945  -0.465   3.108   2.099 -0.0660  0.4363 -0.6218
  607DG      H813946  -0.502   3.135   1.930 -0.3152 -0.8066  0.0959
  607DG      O913947   0.226   2.886   1.664 -0.2370 -0.3144  0.2033
  607DG     O1013948  -0.339   3.011   1.956 -0.4306 -0.0290 -0.3417
  607DG     C1113949   0.108   2.965   1.674 -0.0160 -0.0704  0.1024
  607DG     C1213950  -0.242   3.113   1.967  0.1748 -1.0731  0.7061
  607DG     H1313951   0.024   2.919   1.622  1.4192 -1.2805 -1.2394
  607DG     H1413952   0.129   3.064   1.634 -2.8843  0.5186 -0.1957
  607DG     H1513953  -0.255   3.167   2.061  2.4371 -3.0634  2.3323
  607DG     H1613954  -0.246   3.188   1.889 -0.3008 -0.3589  1.4001
  607DG     C1713955   0.082   2.978   1.826  0.5558 -0.4738 -0.3616
  607DG     C1813956  -0.098   3.063   1.960  0.5177 -0.0705 -0.2499
  607DG     O1913957  -0.058   3.012   1.837 -0.4115 -0.5261 -0.1897
  607DG     H2013958   0.143   3.055   1.873 -1.1552  1.8761 -1.7948
  607DG     H2113959   0.098   2.881   1.873  1.2978 -0.0850  0.1894
  607DG     H2213960  -0.031   3.142   1.993  0.8040 -0.2341 -0.4272
  607DG     H2313961  -0.081   2.978   2.026 -1.2214 -0.3682 -0.1473
  608DG      C113962   4.880   1.527   4.520  0.5540  0.0214  0.1992
  608DG      C213963   4.186   1.731   3.884 -0.5373 -0.5469  0.0205
  608DG      H313964   4.820   1.503   4.607  1.2184 -1.3650  0.3089
  608DG      H413965   4.915   1.630   4.523  0.5509  0.0182  2.9404
  608DG      H513966   4.965   1.458   4.521 -0.1337 -0.8394  1.1726
  608DG      H613967   4.097   1.686   3.838  0.5705 -1.1913 -1.5882
  608DG      H713968   4.154   1.816   3.944 -1.0074  1.4501 -2.8176
  608DG      H813969   4.247   1.766   3.801 -1.9076  1.4800 -0.2185
  608DG      O913970   4.804   1.500   4.397  0.2366 -0.6502  0.1597
  608DG     O1013971   4.246   1.634   3.958  0.2485  0.3554  0.4577
  608DG     C1113972   4.718   1.600   4.354  0.8782 -0.1111 -0.1560
  608DG     C1213973   4.357   1.686   4.025  0.1936  0.2432 -0.0100
  608DG     H1313974   4.767   1.690   4.316 -2.3414  2.1812  0.7579
  608DG     H1413975   4.652   1.629   4.435  0.1970 -1.3937 -0.2210
  608DG     H1513976   4.326   1.753   4.105 -0.5584 -1.9074  1.6022
  608DG     H1613977   4.424   1.744   3.961 -0.6445  0.2215 -0.9282
  608DG     C1713978   4.634   1.540   4.234  0.2654  0.4220 -0.4954
  608DG     C1813979   4.435   1.580   4.103 -0.8772 -0.9023  0.7085
  608DG     O1913980   4.545   1.639   4.179 -0.6664 -0.3295 -0.3119
  608DG     H2013981   4.583   1.451   4.269  0.8414 -0.5519 -2.0215
  608DG     H2113982   4.691   1.513   4.145  1.4534 -0.9630  0.6540
  608DG     H2213983   4.366   1.512   4.155 -0.7116 -1.3556  0.3473
  608DG     H2313984   4.475   1.505   4.035  0.3717  0.6025 -0.2493
  609DG      C113985   2.457   1.598   0.869  0.5091  0.0794  0.0016
  609DG      C213986   2.829   2.084   1.090 -0.2164 -0.1270  0.0851
  609DG      H313987   2.374   1.528   0.858  2.0605 -1.5948 -1.5248
  609DG      H413988   2.546   1.540   0.891  0.6438 -0.4539 -1.8038
  609DG      H513989   2.480   1.644   0.773 -0.3642  0.6376  0.0480
  609DG      H613990   2.894   1.997   1.099 -2.4052 -1.9314 -0.4689
  609DG      H713991   2.824   2.122   0.988 -0.2998  0.5006  0.3157
  609DG      H813992   2.864   2.166   1.153 -0.4602  0.0080  0.0475
  609DG      O913993   2.424   1.699   0.961  0.8596  0.4441 -0.5934
  609DG     O1013994   2.694   2.038   1.126 -0.0663 -0.7638 -0.1967
  609DG     C1113995   2.405   1.662   1.101 -0.5760  0.2726  0.2585
  609DG     C1213996   2.681   2.002   1.264 -0.0914  0.2358 -0.4145
  609DG     H1313997   2.483   1.592   1.131  2.0297  2.6028 -0.6477
  609DG     H1413998   2.309   1.612   1.110 -0.3143 -0.1363  0.8263
  609DG     H1513999   2.688   2.093   1.323  2.8909  0.4773 -1.0080
  609DG     H1614000   2.754   1.927   1.295  1.3833  1.4659 -0.7894
  609DG     C1714001   2.395   1.789   1.185 -0.0968  0.4513 -0.5604
  609DG     C1814002   2.538   1.942   1.286 -0.4089 -0.3366  0.1682
  609DG     O1914003   2.515   1.859   1.174  0.4324 -0.2709 -0.1626
  609DG     H2014004   2.370   1.781   1.290  0.2454  1.7919 -0.3517
  609DG     H2114005   2.326   1.862   1.141 -0.3492  1.5016  1.4586
  609DG     H2214006   2.533   1.891   1.383  0.4998 -0.6377  0.0685
  609DG     H2314007   2.468   2.025   1.289  0.3723  0.3348  0.2546
  610DG      C114008   2.176   4.477   5.432 -0.1689  0.6695  0.0177
  610DG      C214009   1.914   4.097   4.929  1.0353 -0.7455 -0.7215
  610DG      H314010   2.090   4.485   5.499  1.1451  1.2041  1.6982
  610DG      H414011   2.245   4.561   5.437  0.5894  0.0772 -0.2978
  610DG      H514012   2.229   4.385   5.456  1.4073  1.2779 -1.0141
  610DG      H614013   1.964   4.001   4.939  0.9608 -0.5675  2.2961
  610DG      H714014   1.857   4.106   5.021  1.6773  0.5888 -0.4257
  610DG      H814015   1.851   4.087   4.840  2.2783 -3.8145 -1.3946
  610DG      O914016   2.127   4.454   5.303  0.3097 -0.1016  0.6810
  610DG     O1014017   2.003   4.212   4.927 -0.0288  0.4916 -0.3521
  610DG     C1114018   2.080   4.570   5.231  0.1680  0.3614 -0.5212
  610DG     C1214019   1.935   4.331   4.890 -0.2638 -0.5329  1.1974
  610DG     H1314020   2.164   4.633   5.202 -0.0059  1.2634  0.8640
  610DG     H1414021   2.012   4.635   5.286 -1.9184 -0.6638 -1.7182
  610DG     H1514022   1.854   4.355   4.958 -1.3761 -0.9693  0.0699
  610DG     H1614023   1.896   4.319   4.789 -0.5266 -2.2101  1.4684
  610DG     C1714024   2.002   4.537   5.100  0.1175  0.2375 -0.4540
  610DG     C1814025   2.043   4.443   4.888  0.2705  0.1615  0.2455
  610DG     O1914026   2.095   4.467   5.018  0.3114 -0.2893  0.2519
  610DG     H2014027   1.969   4.625   5.046  2.4118  0.7641 -1.0996
  610DG     H2114028   1.922   4.471   5.136  0.5436  0.9617  2.0030
  610DG     H2214029   2.120   4.412   4.818 -1.4074  0.6354 -1.8999
  610DG     H2314030   2.003   4.537   4.851 -0.4736  0.0506  0.7533
  611DG      C114031   4.467   0.834   4.511 -0.4182  0.0427  0.2393
  611DG      C214032   4.677   0.201   4.882 -1.0618 -0.2908 -0.0258
  611DG      H314033   4.522   0.884   4.432  1.6718 -0.1869  1.4498
  611DG      H414034   4.515   0.857   4.607  1.1081  0.3604 -0.5699
  611DG      H514035   4.364   0.869   4.505 -0.6732 -0.6129  0.5738
  611DG      H614036   4.623   0.115   4.921 -0.8735 -0.3299  0.1532
  611DG      H714037   4.769   0.169   4.832 -0.5897 -1.6909  1.6110
  611DG      H814038   4.713   0.269   4.959 -0.2850 -1.2355  0.4877
  611DG      O914039   4.462   0.693   4.492  0.1167  0.1054  0.3267
  611DG     O1014040   4.580   0.262   4.793 -0.3580  0.3250  0.1415
  611DG     C1114041   4.390   0.622   4.588  0.1575 -0.9737  0.3433
  611DG     C1214042   4.601   0.203   4.663  0.3954 -0.3042 -0.1264
  611DG     H1314043   4.288   0.662   4.587  0.1760 -0.9311 -0.3649
  611DG     H1414044   4.447   0.641   4.679  0.5956  2.0379 -0.4626
  611DG     H1514045   4.587   0.095   4.666  1.1116 -0.3844  0.3771
  611DG     H1614046   4.701   0.225   4.625  0.2860 -1.0312 -0.8474
  611DG     C1714047   4.380   0.474   4.561  0.2142  0.0571  0.0876
  611DG     C1814048   4.492   0.265   4.583  0.0662  0.7802  0.7922
  611DG     O1914049   4.508   0.405   4.588 -0.1504  0.4407  0.1963
  611DG     H2014050   4.326   0.443   4.471 -0.0329 -0.2206  0.3286
  611DG     H2114051   4.317   0.424   4.635 -1.0785  2.1220  0.4566
  611DG     H2214052   4.506   0.225   4.483 -3.5989 -0.7007  0.7124
  611DG     H2314053   4.393   0.231   4.614 -0.5501  2.2743  0.5219
  612DG      C114054   5.179   0.047   3.696  0.4693 -0.6025  0.6924
  612DG      C214055   4.769   0.371   4.265  0.2973  0.5426  0.2014
  612DG      H314056   5.270   0.014   3.645  2.0528  1.4541  1.9855
  612DG      H414057   5.191   0.151   3.728 -1.4700  0.8916 -2.8810
  612DG      H514058   5.099   0.051   3.622  1.1850 -0.3802 -0.0860
  612DG      H614059   4.703   0.295   4.309 -0.2663 -0.8651 -2.8349
  612DG      H714060   4.775   0.458   4.331  0.3197 -0.3643  1.4393
  612DG      H814061   4.741   0.395   4.163 -0.1000  0.2708  0.2418
  612DG      O914062   5.138  -0.019   3.813 -0.4271 -0.2918  1.0139
  612DG     O1014063   4.896   0.303   4.260 -0.1074 -0.3195 -0.1792
  612DG     C1114064   5.223  -0.003   3.919  0.4189  0.2324  0.1796
  612DG     C1214065   4.896   0.188   4.176  0.4929  0.1621  0.4042
  612DG     H1314066   5.258   0.099   3.935  0.9602 -0.0139  0.6035
  612DG     H1414067   5.309  -0.069   3.905 -0.8667 -1.0136 -2.7990
  612DG     H1514068   4.852   0.212   4.080  0.4165 -1.2315  0.0783
  612DG     H1614069   4.821   0.118   4.212  2.0807 -0.8089  2.0117
  612DG     C1714070   5.154  -0.059   4.047 -0.2195  0.2458 -0.0877
  612DG     C1814071   5.039   0.132   4.145 -0.0255  0.2892 -0.6760
  612DG     O1914072   5.027   0.003   4.087 -0.5674  0.4141 -0.3310
  612DG     H2014073   5.230  -0.060   4.126  0.3573 -1.3237 -0.6251
  612DG     H2114074   5.138  -0.165   4.029 -0.2246  0.0147  1.1376
  612DG     H2214075   5.103   0.203   4.093 -1.8714  0.7896 -2.3788
  612DG     H2314076   5.084   0.110   4.241 -2.4156  3.4966  1.3828
  613DG      C114077   0.027   0.086   1.762 -0.0689 -0.3537  0.8069
  613DG      C214078  -0.159   0.679   1.359 -0.0156 -0.3385  0.0896
  613DG      H314079   0.035   0.033   1.667  1.3130  0.2317  0.5841
  613DG      H414080  -0.006   0.021   1.844  0.0657  0.1308  1.2535
  613DG      H514081   0.124   0.123   1.795  0.7301 -0.4465 -1.3336
  613DG      H614082  -0.056   0.701   1.389 -0.1336 -0.1553  0.3641
  613DG      H714083  -0.162   0.638   1.258  1.2251 -0.4058  0.0577
  613DG      H814084  -0.217   0.771   1.361  0.4036 -0.0857  1.5959
  613DG      O914085  -0.070   0.184   1.733  0.0455  0.7519 -0.3494
  613DG     O1014086  -0.214   0.588   1.451  0.1184 -0.7260 -0.6374
  613DG     C1114087  -0.107   0.252   1.848 -0.1121  0.2625  0.7518
  613DG     C1214088  -0.204   0.647   1.577 -0.0958 -0.2106 -0.4854
  613DG     H1314089  -0.014   0.301   1.875  1.0285 -1.6958  0.6033
  613DG     H1414090  -0.125   0.193   1.938  1.9328 -1.7737 -0.0587
  613DG     H1514091  -0.258   0.741   1.584 -2.0780 -1.1399 -2.1771
  613DG     H1614092  -0.099   0.667   1.602  0.0652  0.7737 -1.8409
  613DG     C1714093  -0.219   0.355   1.812 -0.4619  0.0107  0.5301
  613DG     C1814094  -0.275   0.550   1.680  0.1496 -0.3539 -0.8244
  613DG     O1914095  -0.180   0.446   1.709  0.1226 -0.8780  0.5379
  613DG     H2014096  -0.251   0.418   1.895 -1.0666  3.5032 -2.1184
  613DG     H2114097  -0.308   0.300   1.780  1.9260 -2.3557 -2.7488
  613DG     H2214098  -0.312   0.595   1.773 -0.9971  1.0465 -1.9055
  613DG     H2314099  -0.368   0.503   1.649  0.3363 -2.2830  1.3147
  614DG      C114100   2.353   5.427   4.243  0.0438 -0.2154  0.2027
  614DG      C214101   2.032   4.866   4.040  0.3220  0.4174 -0.2022
  614DG      H314102   2.395   5.517   4.199 -0.8313 -1.2513 -3.0082
  614DG      H414103   2.416   5.389   4.323 -0.1853 -2.9198 -0.7803
  614DG      H514104   2.252   5.452   4.276  0.5220  0.9079  0.8833
  614DG      H614105   1.939   4.915   4.070 -0.5638 -0.7432 -0.9697
  614DG      H714106   2.011   4.795   3.960 -0.6999 -0.4743  0.8393
  614DG      H814107   2.064   4.807   4.125 -0.3253 -1.1470 -1.0010
  614DG      O914108   2.349   5.322   4.151  0.0327 -0.7633  0.7173
  614DG     O1014109   2.129   4.960   3.986  0.2027  0.0439 -0.3726
  614DG     C1114110   2.478   5.288   4.103 -0.2625 -0.6503  0.0725
  614DG     C1214111   2.243   4.894   3.946 -0.4761  0.6161 -0.2034
  614DG     H1314112   2.519   5.228   4.184 -0.3698  0.0200  0.6328
  614DG     H1414113   2.551   5.367   4.083 -1.0277  0.0328 -0.0921
  614DG     H1514114   2.225   4.816   3.872  1.3715  1.1385 -1.2708
  614DG     H1614115   2.295   4.844   4.028 -2.2632 -1.2075 -0.1140
  614DG     C1714116   2.451   5.209   3.973  0.5793 -0.6199 -0.1936
  614DG     C1814117   2.337   5.012   3.891  0.2878 -0.2167  0.2408
  614DG     O1914118   2.378   5.090   4.008 -0.1906 -0.5925  0.5436
  614DG     H2014119   2.545   5.208   3.917  0.1803  2.3084 -1.0972
  614DG     H2114120   2.383   5.263   3.906 -0.3189 -0.4278  0.8426
  614DG     H2214121   2.429   4.978   3.843  0.8712  0.5049  0.8328
  614DG     H2314122   2.275   5.076   3.828  1.2192  0.8402  0.3663
  615DG      C114123   3.978   1.313   5.218 -0.6525 -0.5931 -0.6801
  615DG      C214124   4.657   0.892   5.666  0.6043  0.1207 -0.1452
  615DG      H314125   4.015   1.281   5.121 -1.0368 -2.3876 -0.2845
  615DG      H414126   4.004   1.417   5.240 -2.7503 -0.4413  1.5227
  615DG      H514127   3.872   1.325   5.196 -0.3696  2.4438 -0.8140
  615DG      H614128   4.719   0.981   5.677 -1.2675  1.2950  1.6974
  615DG      H714129   4.673   0.812   5.739 -0.1624  1.5129  1.6081
  615DG      H814130   4.693   0.855   5.570  1.9769  1.7913 -0.3196
  615DG      O914131   4.009   1.219   5.317  0.4066 -0.1983  0.1543
  615DG     O1014132   4.524   0.933   5.665  0.6033  0.3029 -0.2755
  615DG     C1114133   4.145   1.221   5.342  0.6472 -0.1831  0.1393
  615DG     C1214134   4.483   1.008   5.555 -0.0944  0.4685  0.0640
  615DG     H1314135   4.167   1.315   5.391  1.6552  0.1876 -0.9825
  615DG     H1414136   4.197   1.201   5.248 -0.6405 -2.0617 -0.2365
  615DG     H1514137   4.508   0.947   5.468 -0.8373  0.5376 -0.1993
  615DG     H1614138   4.521   1.109   5.541  0.3502  0.3619  0.4901
  615DG     C1714139   4.159   1.099   5.435 -0.5579 -0.2782  0.2462
  615DG     C1814140   4.332   1.007   5.569 -0.4394 -0.0095 -0.0641
  615DG     O1914141   4.292   1.108   5.482  0.1173 -0.7621  0.0833
  615DG     H2014142   4.141   1.000   5.394 -1.4330 -0.4254  0.9488
  615DG     H2114143   4.104   1.097   5.530  1.1498  0.2673  1.3043
  615DG     H2214144   4.294   0.906   5.554  1.9104 -1.4054  2.4161
  615DG     H2314145   4.317   1.029   5.675  1.5206 -4.5888  1.4187
  616DG      C114146   0.889   1.801   0.785  0.3564  0.5457 -0.1710
  616DG      C214147   0.095   1.882   0.562  0.8085  0.2669 -0.6577
  616DG      H314148   0.933   1.705   0.812 -1.4012 -0.5923 -1.2064
  616DG      H414149   0.854   1.844   0.879 -0.8488  0.4705 -0.5755
  616DG      H514150   0.955   1.870   0.734  1.1512  1.7866  2.3490
  616DG      H614151   0.092   1.970   0.497 -1.4047  0.2123 -0.7079
  616DG      H714152  -0.004   1.836   0.552  0.3061  1.0198  0.7106
  616DG      H814153   0.096   1.909   0.667  1.2796 -2.2162  0.0386
  616DG      O914154   0.765   1.788   0.719  0.4173  0.0573  0.1588
  616DG     O1014155   0.198   1.793   0.516  0.5787 -0.2193 -0.3025
  616DG     C1114156   0.784   1.709   0.598 -0.7551 -0.2190  0.0980
  616DG     C1214157   0.323   1.849   0.528 -0.2773  0.6445  0.7105
  616DG     H1314158   0.838   1.615   0.614  0.9563  0.2627 -2.3368
  616DG     H1414159   0.833   1.775   0.527 -0.2621  0.0539  0.6781
  616DG     H1514160   0.331   1.892   0.629 -0.3391  0.4109  0.8152
  616DG     H1614161   0.338   1.929   0.455 -0.1182 -1.1489 -1.3056
  616DG     C1714162   0.646   1.672   0.541  0.2026  0.1359  0.8785
  616DG     C1814163   0.425   1.739   0.507 -0.0962  0.7197 -0.0729
  616DG     O1914164   0.552   1.781   0.552 -0.2981  0.8717 -0.3424
  616DG     H2014165   0.603   1.585   0.592 -0.6657  0.0174 -0.0341
  616DG     H2114166   0.655   1.635   0.439 -0.0787 -2.1994  1.6382
  616DG     H2214167   0.399   1.653   0.569 -1.7226  0.9915 -0.3248
  616DG     H2314168   0.415   1.710   0.403 -0.5899  2.4289 -0.5421
  617DG      C114169   3.718   1.980   4.036 -0.2165 -0.0220  0.0218
  617DG      C214170   3.073   1.851   4.192 -0.3632  0.0368  0.2054
  617DG      H314171   3.725   1.872   4.028  0.9343  0.1064 -1.0381
  617DG      H414172   3.784   2.017   4.114 -1.6260  1.2932  0.6650
  617DG      H514173   3.773   2.003   3.944  0.7032 -2.4556 -0.0917
  617DG      H614174   3.116   1.751   4.196  0.2391  0.2750 -0.0903
  617DG      H714175   3.059   1.894   4.291 -0.3664  0.4968  0.0090
  617DG      H814176   2.990   1.854   4.122 -0.1736 -0.7354 -0.0587
  617DG      O914177   3.583   2.031   4.035 -0.2386  0.2978 -0.2699
  617DG     O1014178   3.170   1.935   4.130 -0.2594  1.1332  0.5974
  617DG     C1114179   3.564   2.170   4.017  0.1582 -0.5243  0.2034
  617DG     C1214180   3.116   2.061   4.092  0.3275 -0.0003 -0.2729
  617DG     H1314181   3.646   2.205   3.955 -0.5748 -1.7325 -1.5220
  617DG     H1414182   3.561   2.224   4.112 -1.0205  1.2345 -0.7597
  617DG     H1514183   3.096   2.121   4.181  4.1247 -1.3314  1.6937
  617DG     H1614184   3.021   2.045   4.042  0.4715  1.5655 -1.1044
  617DG     C1714185   3.431   2.204   3.952  0.8765  0.2564 -0.0370
  617DG     C1814186   3.213   2.133   3.999  0.4567  0.2795 -0.5608
  617DG     O1914187   3.348   2.143   4.049  0.2873 -0.3778  0.5111
  617DG     H2014188   3.425   2.149   3.858 -0.0648 -1.0537  0.7509
  617DG     H2114189   3.417   2.311   3.938  0.4525  0.1208 -0.7159
  617DG     H2214190   3.227   2.088   3.901 -0.0321  1.4262 -1.1862
  617DG     H2314191   3.172   2.231   3.973 -2.1593 -0.8854 -1.1394
  618DG      C114192   0.999   3.357   3.214  0.3770 -0.2855  0.0658
  618DG      C214193   0.538   3.388   3.320 -0.3987  0.4068 -0.1210
  618DG      H314194   1.030   3.404   3.307 -0.3104  1.9326 -0.7562
  618DG      H414195   0.890   3.353   3.219  0.3959  0.6225  2.3366
  618DG      H514196   1.028   3.428   3.136  1.1223 -1.6631 -0.9412
  618DG      H614197   0.538   3.376   3.428  1.7209  1.1477  0.0029
  618DG      H714198   0.645   3.402   3.306  0.1050 -1.6134  1.2209
  618DG      H814199   0.491   3.480   3.284 -0.9136 -0.1049 -0.7778
  618DG      O914200   1.071   3.239   3.206 -0.8313  0.1063  0.4610
  618DG     O1014201   0.496   3.271   3.248  0.6018 -0.5621  0.0790
  618DG     C1114202   1.027   3.138   3.287 -0.0382  0.1598 -0.6717
  618DG     C1214203   0.537   3.149   3.308 -0.6947  0.4432  0.1797
  618DG     H1314204   1.021   3.185   3.385  2.0307  0.5363 -0.6878
  618DG     H1414205   1.109   3.067   3.293  0.9089  1.1792 -1.3299
  618DG     H1514206   0.459   3.072   3.308  0.3371 -0.6577 -1.4699
  618DG     H1614207   0.562   3.155   3.414 -0.3595  0.0913  0.1250
  618DG     C1714208   0.905   3.052   3.240  0.2633 -0.2086  0.1213
  618DG     C1814209   0.660   3.076   3.243  0.7337  0.3394 -0.0745
  618DG     O1914210   0.790   3.138   3.267  0.2633 -0.0782  0.6053
  618DG     H2014211   0.902   2.965   3.304  0.7878  1.0526  1.9287
  618DG     H2114212   0.915   3.023   3.135  1.1915  0.0728  0.1314
  618DG     H2214213   0.663   2.976   3.284 -2.6157 -0.1016 -0.6242
  618DG     H2314214   0.633   3.079   3.137 -0.5282 -1.5015  0.1522
  619DG      C114215   0.229   2.089   0.146  0.0267 -0.0080 -0.8564
  619DG      C214216  -0.188   1.414   0.327 -1.3656 -0.1725 -0.0382
  619DG      H314217   0.269   2.173   0.089 -0.1496  0.0633 -0.8763
  619DG      H414218   0.257   2.081   0.251 -1.8841 -0.7254 -0.3702
  619DG      H514219   0.122   2.109   0.155 -0.6367 -3.0191 -0.9793
  619DG      H614220  -0.118   1.331   0.316  0.6322  1.1655  1.7912
  619DG      H714221  -0.182   1.448   0.430 -0.8135  0.0377 -0.1351
  619DG      H814222  -0.290   1.379   0.313 -0.9390 -1.5239  0.0640
  619DG      O914223   0.255   1.963   0.090  0.1677 -0.9695 -0.4961
  619DG     O1014224  -0.138   1.522   0.249 -0.1561 -0.4182  0.2338
  619DG     C1114225   0.180   1.850   0.141  0.1769  0.1552 -0.0941
  619DG     C1214226  -0.115   1.487   0.113 -0.1648  0.3940  0.3684
  619DG     H1314227   0.116   1.875   0.225  2.3071  0.4046  1.5280
  619DG     H1414228   0.248   1.773   0.178 -1.7104 -2.6918 -2.0417
  619DG     H1514229  -0.213   1.467   0.070  1.3409  0.6293 -3.5497
  619DG     H1614230  -0.055   1.397   0.102 -0.0201  0.6977 -1.5984
  619DG     C1714231   0.088   1.792   0.037  0.0109  0.9760  0.2396
  619DG     C1814232  -0.071   1.610   0.036 -0.1399 -0.7488  0.6631
  619DG     O1914233   0.023   1.687   0.112 -0.4184  0.4608  0.2520
  619DG     H2014234   0.125   1.738  -0.050 -0.3412  0.6591  0.2857
  619DG     H2114235   0.014   1.864   0.004  1.3050  2.0998 -0.3264
  619DG     H2214236  -0.030   1.574  -0.059  1.3980  1.4612  0.4168
  619DG     H2314237  -0.150   1.684   0.024 -0.8533 -1.3703  1.3777
  620DG      C114238   0.772   1.031   1.898  0.2509 -0.4362  0.0926
  620DG      C214239   0.212   1.154   2.177  0.3418 -0.2040  0.3612
  620DG      H314240   0.856   1.040   1.828  2.2797 -0.2603  2.4197
  620DG      H414241   0.721   0.935   1.904 -1.1812  0.3020  0.1316
  620DG      H514242   0.808   1.055   1.998  1.0703  0.6924 -0.4446
  620DG      H614243   0.154   1.242   2.208 -0.7951 -0.8137  0.0379
  620DG      H714244   0.145   1.072   2.149  0.6401  0.3272 -2.0625
  620DG      H814245   0.268   1.129   2.267 -1.8853 -2.3214  1.2943
  620DG      O914246   0.682   1.147   1.891  0.2496  0.1668  0.3150
  620DG     O1014247   0.287   1.192   2.064 -0.2538  0.2215 -0.0780
  620DG     C1114248   0.643   1.172   1.755  0.3599  0.2559 -0.3001
  620DG     C1214249   0.209   1.200   1.943  0.0127  0.4273 -0.0068
  620DG     H1314250   0.612   1.079   1.708  0.3765 -1.2392  2.4089
  620DG     H1414251   0.719   1.224   1.696 -0.1181 -0.7155 -1.8229
  620DG     H1514252   0.115   1.254   1.957  0.0773  0.1429  1.7673
  620DG     H1614253   0.185   1.097   1.917  1.4007 -0.2465  1.1858
  620DG     C1714254   0.523   1.265   1.761 -0.4080  0.5403 -0.5826
  620DG     C1814255   0.299   1.271   1.845 -0.7537  0.0176  0.1259
  620DG     O1914256   0.431   1.215   1.852  0.0682 -0.3989  0.1537
  620DG     H2014257   0.485   1.292   1.662 -1.0492 -0.0638 -0.5074
  620DG     H2114258   0.543   1.364   1.804  0.8237 -0.2083  0.6323
  620DG     H2214259   0.259   1.271   1.743 -1.2301 -1.4670  0.2886
  620DG     H2314260   0.293   1.377   1.869  0.7449  0.7524 -2.3672
  621DG      C114261   4.763   4.912   1.873  0.3077  0.3042 -1.0393
  621DG      C214262   4.757   4.585   1.183  0.1684 -0.2178  0.6116
  621DG      H314263   4.673   4.875   1.826 -0.3257 -1.1631  1.1693
  621DG      H414264   4.755   5.005   1.930 -1.8869 -0.0147 -0.7448
  621DG      H514265   4.780   4.831   1.943 -0.9815  0.2256 -0.7925
  621DG      H614266   4.682   4.578   1.105  1.0136  0.4843 -0.2965
  621DG      H714267   4.854   4.560   1.139  0.9213  0.1389  1.9931
  621DG      H814268   4.738   4.498   1.245 -0.7053  0.0912  0.7851
  621DG      O914269   4.876   4.902   1.785 -0.0296 -0.3824 -0.2807
  621DG     O1014270   4.758   4.696   1.271  0.0629  0.2081 -0.1598
  621DG     C1114271   4.877   4.998   1.683  0.4807 -0.2193  0.6336
  621DG     C1214272   4.648   4.705   1.359 -0.0207 -0.7496 -0.0634
  621DG     H1314273   4.974   4.995   1.633  0.3148 -0.4057  0.3198
  621DG     H1414274   4.874   5.099   1.723 -1.1429  1.3759 -3.0642
  621DG     H1514275   4.652   4.623   1.431 -0.8565 -0.2004  0.6319
  621DG     H1614276   4.557   4.707   1.300 -0.2537  1.9732  0.2622
  621DG     C1714277   4.758   4.981   1.588  0.4888 -0.1186  0.2957
  621DG     C1814278   4.652   4.836   1.433 -0.3510  0.4029  0.9215
  621DG     O1914279   4.761   4.857   1.521 -0.7501 -0.1002  0.1717
  621DG     H2014280   4.769   5.056   1.510  0.2033  0.1402  0.5009
  621DG     H2114281   4.656   4.999   1.623  0.2472  0.2745 -0.5937
  621DG     H2214282   4.657   4.911   1.355 -0.0581  0.1510  0.6910
  621DG     H2314283   4.560   4.838   1.491 -0.1583 -0.2964  1.2655
  622DG      C114284   3.429   3.488   0.729  1.1970  0.0728 -0.0058
  622DG      C214285   3.223   3.742   1.398  0.9742 -0.0441 -0.1965
  622DG      H314286   3.395   3.486   0.626  1.2439 -0.2226 -0.0150
  622DG      H414287   3.367   3.413   0.776  1.9095 -0.1084  0.6663
  622DG      H514288   3.528   3.442   0.738  1.4608  1.0239  2.7429
  622DG      H614289   3.291   3.657   1.394 -1.0232 -1.7081 -2.6690
  622DG      H714290   3.262   3.814   1.470  1.1185  0.0787 -0.3981
  622DG      H814291   3.138   3.688   1.440  0.3943  1.2893  0.3842
  622DG      O914292   3.405   3.619   0.785 -0.3648 -0.2437  0.0991
  622DG     O1014293   3.197   3.793   1.272  0.4368  0.1920  0.6337
  622DG     C1114294   3.266   3.663   0.783 -0.4951 -0.1022 -0.1386
  622DG     C1214295   3.302   3.882   1.224  0.2255 -0.1645 -0.1849
  622DG     H1314296   3.211   3.591   0.844  2.4959 -2.6070 -0.1536
  622DG     H1414297   3.232   3.658   0.680  1.6791  1.0823 -0.9917
  622DG     H1514298   3.400   3.841   1.247  0.1208  0.9259  2.5274
  622DG     H1614299   3.300   3.984   1.262 -2.0701  0.4852 -1.8238
  622DG     C1714300   3.255   3.799   0.858 -0.6653  0.2638 -0.4276
  622DG     C1814301   3.265   3.898   1.076 -0.1795  0.3545 -0.0546
  622DG     O1914302   3.289   3.781   0.998  0.0393  0.2242  0.0608
  622DG     H2014303   3.152   3.834   0.861 -0.3919  1.2850 -2.0706
  622DG     H2114304   3.308   3.875   0.801 -2.8829  0.4758 -2.3290
  622DG     H2214305   3.158   3.917   1.068 -0.2012 -0.3927 -2.1434
  622DG     H2314306   3.310   3.985   1.028  3.7502 -0.4356  1.8057
  623DG      C114307   1.996   0.352   1.929  0.0162 -0.1037 -0.3158
  623DG      C214308   2.452   0.875   1.976 -0.3451  0.4260  0.5578
  623DG      H314309   1.951   0.391   2.020  2.0035 -0.1699  0.7720
  623DG      H414310   2.051   0.263   1.961 -2.4966 -1.7945 -0.4640
  623DG      H514311   1.914   0.315   1.867  0.3785 -2.3267  0.4437
  623DG      H614312   2.394   0.911   2.061 -2.0042 -0.7197 -0.0146
  623DG      H714313   2.552   0.855   2.014 -0.6701 -0.3766  1.0205
  623DG      H814314   2.460   0.967   1.918  3.7418 -0.5802 -0.7715
  623DG      O914315   2.081   0.441   1.855 -0.1532  0.2182 -0.5956
  623DG     O1014316   2.397   0.764   1.911  0.2245  0.3041  0.1123
  623DG     C1114317   2.153   0.381   1.748  0.7836  0.3029  0.0042
  623DG     C1214318   2.473   0.728   1.799  0.3326  0.0922  0.4167
  623DG     H1314319   2.087   0.315   1.692  0.1414  1.6873 -0.9324
  623DG     H1414320   2.214   0.308   1.801  0.4746  0.3394  0.4104
  623DG     H1514321   2.566   0.674   1.817  0.0133 -0.0788  1.6432
  623DG     H1614322   2.513   0.818   1.751  0.7539  0.6131  1.6813
  623DG     C1714323   2.253   0.466   1.665  0.1387  0.0436 -0.0532
  623DG     C1814324   2.387   0.647   1.697  0.4498  1.0257  0.0490
  623DG     O1914325   2.342   0.528   1.756  0.2573 -0.1332 -0.3587
  623DG     H2014326   2.190   0.545   1.625  1.6785  0.6214 -1.4627
  623DG     H2114327   2.311   0.421   1.584  1.8032  2.5290 -0.3414
  623DG     H2214328   2.310   0.717   1.664 -2.0719 -2.9271 -3.5352
  623DG     H2314329   2.452   0.619   1.614  1.0954  1.3897  0.4278
  624DG      C114330   4.060   4.217   0.548  0.7888 -0.0524 -0.0848
  624DG      C214331   3.677   3.728   0.890  0.4038 -0.0170  0.1762
  624DG      H314332   4.097   4.123   0.507  0.4043  0.0414 -0.6472
  624DG      H414333   4.156   4.261   0.577  2.0005 -1.6714 -1.4136
  624DG      H514334   4.014   4.277   0.470 -0.8471 -0.4566  0.5270
  624DG      H614335   3.757   3.657   0.911  1.0980  1.0210  1.1381
  624DG      H714336   3.607   3.708   0.971  1.3389  1.7402  1.4972
  624DG      H814337   3.626   3.710   0.795 -0.0011 -0.1733  0.4226
  624DG      O914338   3.964   4.191   0.645 -0.0514  0.0063  0.0175
  624DG     O1014339   3.718   3.862   0.915 -0.4970  0.0163  0.3967
  624DG     C1114340   3.909   4.302   0.719  0.4716 -0.3461  0.4730
  624DG     C1214341   3.618   3.964   0.905 -0.3883  0.4994  0.1918
  624DG     H1314342   3.844   4.363   0.655 -0.0441 -1.5892 -0.2152
  624DG     H1414343   3.987   4.375   0.739  0.8742  0.3105 -2.8608
  624DG     H1514344   3.526   3.948   0.960  0.1390 -0.6963  0.7686
  624DG     H1614345   3.600   3.958   0.798  0.9047 -0.2301 -0.0169
  624DG     C1714346   3.825   4.263   0.839  0.2763 -0.3757 -0.9457
  624DG     C1814347   3.673   4.100   0.928 -1.0713 -0.2941  0.1045
  624DG     O1914348   3.747   4.151   0.814 -0.1034 -0.1015 -0.3068
  624DG     H2014349   3.766   4.344   0.881 -2.5407 -0.7865 -3.7358
  624DG     H2114350   3.889   4.234   0.922  0.3544  1.7907 -0.1816
  624DG     H2214351   3.600   4.176   0.957 -1.6539 -1.4018  1.6894
  624DG     H2314352   3.741   4.090   1.013 -1.0091 -0.2291  0.0629
  625DG      C114353   3.424   3.552   3.206  0.2405 -0.0225 -0.9153
  625DG      C214354   3.531   3.119   3.856  0.9175 -0.0616 -0.7995
  625DG      H314355   3.481   3.608   3.132  1.2474  1.0117  0.5730
  625DG      H414356   3.323   3.591   3.192 -0.1933 -1.3936 -1.7787
  625DG      H514357   3.431   3.451   3.166 -0.2796 -0.2372 -0.4758
  625DG      H614358   3.511   3.012   3.857  0.8321 -0.0572  0.7972
  625DG      H714359   3.596   3.124   3.943  0.8038 -2.1159 -0.5507
  625DG      H814360   3.440   3.174   3.884  0.2629 -0.5260 -1.9500
  625DG      O914361   3.474   3.541   3.339  0.4973  0.0287  0.4643
  625DG     O1014362   3.586   3.175   3.743 -0.6281  0.5465 -0.2765
  625DG     C1114363   3.386   3.488   3.426  0.4245  0.5298 -0.6314
  625DG     C1214364   3.626   3.303   3.752 -0.1419  0.4819 -0.3986
  625DG     H1314365   3.336   3.400   3.385  0.4607 -0.7686  1.9325
  625DG     H1414366   3.309   3.559   3.456 -0.4968 -0.9062  0.5716
  625DG     H1514367   3.703   3.308   3.829  0.0920 -0.8353 -0.5321
  625DG     H1614368   3.548   3.371   3.787  0.0425 -0.3085  1.7141
  625DG     C1714369   3.463   3.439   3.545  0.6126  0.1746  0.4485
  625DG     C1814370   3.682   3.352   3.612 -0.0717 -0.2543  0.2265
  625DG     O1914371   3.575   3.350   3.518 -0.0906 -0.4068 -0.2599
  625DG     H2014372   3.389   3.406   3.618  0.3280  2.7221  1.4102
  625DG     H2114373   3.504   3.528   3.592  0.2033 -0.5806  2.2953
  625DG     H2214374   3.725   3.452   3.616 -1.8403  0.5663 -0.1635
  625DG     H2314375   3.761   3.285   3.578  0.3873  0.1505  0.4950
  626DG      C114376   1.517   4.096   4.832  0.3017 -0.2920  0.4894
  626DG      C214377   1.297   3.423   4.790 -0.5545 -0.5239 -0.0420
  626DG      H314378   1.531   4.163   4.917 -1.0680  1.9968 -0.9511
  626DG      H414379   1.411   4.073   4.819  0.1997  0.2541  0.3312
  626DG      H514380   1.544   4.161   4.749  0.0481 -0.4376  0.2902
  626DG      H614381   1.322   3.445   4.686  0.3051 -0.7528  0.1131
  626DG      H714382   1.368   3.344   4.812  0.3197 -0.4732 -2.3343
  626DG      H814383   1.195   3.393   4.813 -0.5192 -0.7470 -0.1757
  626DG      O914384   1.586   3.969   4.836  0.1892 -0.3738 -0.0228
  626DG     O1014385   1.332   3.528   4.881 -0.2125 -0.0435  0.5037
  626DG     C1114386   1.589   3.907   4.712  0.3210  0.1907  0.1835
  626DG     C1214387   1.237   3.635   4.880 -0.2636 -0.2193  0.1437
  626DG     H1314388   1.647   3.817   4.733 -1.0746 -0.6666  0.4920
  626DG     H1414389   1.640   3.970   4.639 -0.7426 -0.1913 -0.9013
  626DG     H1514390   1.251   3.697   4.969 -3.0212  0.3236  0.2683
  626DG     H1614391   1.137   3.595   4.893 -1.4015  2.8820  1.8776
  626DG     C1714392   1.448   3.853   4.667 -0.2789 -0.1868  0.2900
  626DG     C1814393   1.274   3.720   4.754 -0.7797 -0.6202  0.0743
  626DG     O1914394   1.402   3.788   4.782  0.0973  0.4591  0.6488
  626DG     H2014395   1.466   3.786   4.583 -0.5101  0.0548  0.0438
  626DG     H2114396   1.384   3.938   4.640  2.8806  2.4892  0.5601
  626DG     H2214397   1.267   3.664   4.660 -0.8346  2.9023 -2.2065
  626DG     H2314398   1.195   3.794   4.743 -2.0260 -1.1490  3.9819
  627DG      C114399   1.984   1.202   2.644 -0.3086 -0.1140  0.4987
  627DG      C214400   2.257   0.592   2.340  0.1786 -0.6588 -0.3991
  627DG      H314401   2.063   1.250   2.585 -1.8405  0.8003 -0.8869
  627DG      H414402   2.029   1.223   2.740  0.1982 -1.0291  0.4718
  627DG      H514403   1.894   1.260   2.621 -0.1211 -0.1954 -0.4847
  627DG      H614404   2.270   0.532   2.249  0.0389 -3.2167  1.1725
  627DG      H714405   2.222   0.533   2.424  1.4650  2.1702  2.3251
  627DG      H814406   2.180   0.666   2.321  1.2395  0.5635 -0.0672
  627DG      O914407   1.969   1.064   2.606 -0.2909 -0.0141 -0.2063
  627DG     O1014408   2.375   0.658   2.377  0.2809 -0.2708  0.2125
  627DG     C1114409   2.000   1.041   2.469 -0.6191  0.5447  0.0199
  627DG     C1214410   2.382   0.723   2.503 -0.8057  0.4115 -0.5753
  627DG     H1314411   1.986   1.132   2.411  1.1108  1.9764  1.7229
  627DG     H1414412   1.955   0.956   2.417 -0.6617  0.9539 -0.6225
  627DG     H1514413   2.483   0.721   2.544 -1.0786  0.2844  0.1185
  627DG     H1614414   2.324   0.667   2.577 -1.9500  0.9329 -1.0546
  627DG     C1714415   2.154   1.013   2.459  0.7409 -0.0292  0.5637
  627DG     C1814416   2.338   0.866   2.488 -0.3572  0.8995 -0.0761
  627DG     O1914417   2.196   0.886   2.482  0.1990  0.4166 -0.4842
  627DG     H2014418   2.220   1.078   2.517  1.4999 -0.8194  0.6087
  627DG     H2114419   2.174   1.037   2.354 -0.9662  2.2121  0.6703
  627DG     H2214420   2.366   0.925   2.575  1.9528  1.1944 -0.9698
  627DG     H2314421   2.384   0.909   2.399 -1.5117 -1.2885 -1.8705
  628DG      C114422   1.295   1.148   4.519  0.0371  0.6700 -0.2275
  628DG      C214423   1.467   1.791   4.034 -0.2359 -0.3941 -0.0850
  628DG      H314424   1.346   1.059   4.557  1.0863  2.1119  1.9556
  628DG      H414425   1.206   1.104   4.474 -1.1573  0.9489  1.7144
  628DG      H514426   1.258   1.196   4.610 -2.0565 -0.1973 -0.5662
  628DG      H614427   1.557   1.828   3.985 -0.3818  0.7112  0.4490
  628DG      H714428   1.404   1.757   3.952 -0.8330 -0.5620  0.4349
  628DG      H814429   1.417   1.878   4.074 -1.0067 -1.0479  0.4139
  628DG      O914430   1.386   1.224   4.444 -0.2131  0.5521  0.0679
  628DG     O1014431   1.486   1.698   4.138  0.0344  0.3622  0.2154
  628DG     C1114432   1.330   1.341   4.386 -0.1303  0.4170 -0.3814
  628DG     C1214433   1.583   1.602   4.098 -0.0419  0.4190 -0.1319
  628DG     H1314434   1.277   1.393   4.465  0.3655 -0.3737  0.4871
  628DG     H1414435   1.262   1.324   4.302 -0.2746 -2.1395  0.1729
  628DG     H1514436   1.671   1.662   4.075 -0.1945  0.9262  0.5717
  628DG     H1614437   1.541   1.554   4.009 -1.2093  1.0046  0.0866
  628DG     C1714438   1.439   1.440   4.355  0.1300  0.2298  0.1600
  628DG     C1814439   1.617   1.499   4.210 -0.1306 -0.2999  0.0886
  628DG     O1914440   1.511   1.404   4.235 -0.0154 -0.3625  0.1363
  628DG     H2014441   1.512   1.428   4.435  2.0584 -0.4131 -1.6013
  628DG     H2114442   1.400   1.541   4.362  1.1870  0.7673 -1.3099
  628DG     H2214443   1.700   1.441   4.169 -0.4777  0.5001 -1.8203
  628DG     H2314444   1.645   1.559   4.297 -0.3998 -0.7764  0.5161
  629DG      C114445   1.687   0.748   0.006  0.0410  0.9962  0.3504
  629DG      C214446   2.016   1.103   0.728  0.2657  0.6289 -0.3511
  629DG      H314447   1.681   0.641  -0.013 -1.8151  1.2399 -0.6117
  629DG      H414448   1.704   0.797  -0.090  2.6293 -1.6143 -0.6918
  629DG      H514449   1.590   0.779   0.045 -0.1166  0.8538  0.0731
  629DG      H614450   1.922   1.124   0.779  0.4861 -1.3442  0.9462
  629DG      H714451   2.097   1.114   0.800  0.3902  1.1959 -0.5732
  629DG      H814452   2.026   1.189   0.661  0.3708  0.9298  0.0492
  629DG      O914453   1.800   0.766   0.091 -0.1825 -0.0542  0.0407
  629DG     O1014454   2.017   0.976   0.658 -0.2148  0.3840  0.5292
  629DG     C1114455   1.787   0.673   0.201 -0.8422 -0.3226  0.2537
  629DG     C1214456   1.964   0.981   0.529  0.0674 -0.2734 -0.4286
  629DG     H1314457   1.789   0.574   0.157 -0.8106  0.8265 -2.5193
  629DG     H1414458   1.689   0.685   0.248 -0.7184  0.7402  0.2647
  629DG     H1514459   2.013   1.048   0.459 -0.7177  1.4541  0.5904
  629DG     H1614460   1.864   1.023   0.546 -0.3458 -1.8930  1.7086
  629DG     C1714461   1.900   0.697   0.304  0.0590  0.2243  0.4767
  629DG     C1814462   1.960   0.837   0.485 -0.8483  0.4133 -0.0811
  629DG     O1914463   1.912   0.828   0.350 -0.4046 -0.1799 -0.4857
  629DG     H2014464   1.996   0.669   0.260 -0.3763 -1.0288  0.2974
  629DG     H2114465   1.884   0.628   0.387 -0.1260  0.8355  0.9571
  629DG     H2214466   2.064   0.804   0.481 -0.8942 -0.1134  1.9285
  629DG     H2314467   1.899   0.772   0.548 -2.1317 -0.5093 -2.1509
  630DG      C114468   3.599   1.015   5.203 -0.2451 -0.1093 -0.1774
  630DG      C214469   3.665   0.575   4.653  0.6185  0.1921 -0.2941
  630DG      H314470   3.625   1.078   5.118  1.4999 -0.3403  0.1463
  630DG      H414471   3.645   1.078   5.279 -1.0647  1.5108 -0.9686
  630DG      H514472   3.491   1.028   5.211 -0.1870  0.6395 -0.5480
  630DG      H614473   3.563   0.604   4.631  0.7091 -0.8184 -2.2730
  630DG      H714474   3.728   0.601   4.568  1.1089 -1.0482 -0.3305
  630DG      H814475   3.651   0.468   4.663 -1.3760  0.3661 -0.8477
  630DG      O914476   3.647   0.882   5.187  1.0528  0.5265 -0.0492
  630DG     O1014477   3.712   0.642   4.772 -0.0905 -0.0215 -0.7659
  630DG     C1114478   3.791   0.872   5.179  0.1138 -0.6302  0.0075
  630DG     C1214479   3.835   0.590   4.823 -0.0564  0.3214  0.5657
  630DG     H1314480   3.835   0.926   5.263 -3.5806  0.9709  1.1255
  630DG     H1414481   3.832   0.926   5.094 -0.9427  1.1642  0.5864
  630DG     H1514482   3.914   0.590   4.748 -0.9558 -0.9859 -0.4152
  630DG     H1614483   3.833   0.488   4.861  1.4269  0.5881  1.4604
  630DG     C1714484   3.838   0.722   5.172 -0.4729 -0.0922 -0.1275
  630DG     C1814485   3.873   0.673   4.947 -0.0083 -0.0442 -0.1837
  630DG     O1914486   3.787   0.647   5.057 -0.5941 -0.7654  0.7103
  630DG     H2014487   3.800   0.678   5.264 -1.1765  3.5733  1.5069
  630DG     H2114488   3.946   0.709   5.186 -0.1988  1.2557 -0.7793
  630DG     H2214489   3.975   0.642   4.968  0.0824  0.8302  0.7308
  630DG     H2314490   3.875   0.776   4.911 -2.7463  0.0438 -0.3343
  631DG      C114491   3.967   0.883   1.495 -0.5305 -0.1197  0.4573
  631DG      C214492   4.027   1.267   0.802 -0.0757 -1.4168  0.3909
  631DG      H314493   4.023   0.843   1.580 -1.1718 -0.3232  0.7884
  631DG      H414494   3.920   0.805   1.435  0.6724 -0.1084 -0.5448
  631DG      H514495   3.884   0.930   1.547 -2.0262 -0.5048 -1.4798
  631DG      H614496   3.950   1.226   0.866  1.3681 -3.7199  0.7575
  631DG      H714497   4.012   1.373   0.783 -2.0967 -1.8352 -0.6376
  631DG      H814498   4.005   1.218   0.707 -3.7941 -1.3898  1.0882
  631DG      O914499   4.042   0.985   1.431 -0.2749  0.4827 -0.0228
  631DG     O1014500   4.158   1.232   0.846 -0.1778 -0.5651 -0.5120
  631DG     C1114501   4.133   0.937   1.331  0.1538 -0.1551 -0.0787
  631DG     C1214502   4.150   1.145   0.955  0.4625 -0.1006 -0.6706
  631DG     H1314503   4.076   0.879   1.259 -0.7331 -0.2782  0.7123
  631DG     H1414504   4.201   0.864   1.375 -1.3748 -2.5115 -1.4006
  631DG     H1514505   4.251   1.105   0.962 -0.1172 -1.6030 -0.7052
  631DG     H1614506   4.079   1.066   0.931  1.0496 -0.5817 -0.8301
  631DG     C1714507   4.191   1.055   1.249  0.5094 -0.0849 -0.1272
  631DG     C1814508   4.106   1.212   1.088  0.1734 -0.1993 -0.6194
  631DG     O1914509   4.081   1.120   1.190  0.1070 -0.1676 -0.5371
  631DG     H2014510   4.248   1.010   1.167  2.7266  1.0962  0.6863
  631DG     H2114511   4.248   1.126   1.309  2.9502 -0.3805 -1.9170
  631DG     H2214512   4.182   1.282   1.123 -1.7562  0.8202  1.8261
  631DG     H2314513   4.012   1.267   1.085 -1.9054 -3.4401  0.5152
  632DG      C114514   2.904   1.236   0.335  0.4229 -0.1022 -0.7161
  632DG      C214515   3.207   1.230  -0.333 -0.3802 -0.3975  0.2100
  632DG      H314516   2.946   1.150   0.387 -2.1212 -1.0185 -0.0255
  632DG      H414517   2.818   1.264   0.396 -0.3356 -2.7341 -0.4432
  632DG      H514518   2.977   1.316   0.348 -0.5985  0.3614  3.7961
  632DG      H614519   3.269   1.297  -0.392 -0.2485 -0.3550  0.3954
  632DG      H714520   3.282   1.173  -0.278  1.6944  0.7210 -1.3068
  632DG      H814521   3.149   1.167  -0.401 -2.0122  0.0313  1.1614
  632DG      O914522   2.873   1.213   0.200  0.4518  0.0724  0.1833
  632DG     O1014523   3.122   1.297  -0.243  0.1494 -0.4072  0.4604
  632DG     C1114524   2.804   1.318   0.140 -0.0707  0.2697  0.2153
  632DG     C1214525   3.187   1.381  -0.157  0.2870  0.8476  1.0847
  632DG     H1314526   2.740   1.365   0.215 -0.5019 -0.6980  0.4645
  632DG     H1414527   2.744   1.283   0.056  1.0354  1.0351 -0.9341
  632DG     H1514528   3.241   1.459  -0.211  0.1017 -0.4160 -1.0223
  632DG     H1614529   3.258   1.332  -0.091 -0.0201  3.3013  3.4168
  632DG     C1714530   2.906   1.421   0.091 -0.3808 -0.0325 -0.4288
  632DG     C1814531   3.074   1.456  -0.078  0.2917 -0.1176  0.5272
  632DG     O1914532   2.997   1.361  -0.001 -0.3874  0.5774 -0.4551
  632DG     H2014533   2.957   1.464   0.178  2.4965 -1.0248 -1.5187
  632DG     H2114534   2.850   1.502   0.045 -1.3181 -0.2795  0.2477
  632DG     H2214535   3.137   1.518  -0.015  1.4894 -2.0241  1.3026
  632DG     H2314536   3.010   1.522  -0.137  2.1503  2.5949  1.3425
  633DG      C114537   2.753   0.781   2.221 -0.5917 -0.5351  0.1376
  633DG      C214538   3.072   0.266   2.463 -0.4321 -0.3913 -0.2909
  633DG      H314539   2.817   0.821   2.300 -1.7222 -1.1922  1.4367
  633DG      H414540   2.655   0.820   2.248  0.0500  0.0701  1.7558
  633DG      H514541   2.790   0.812   2.124 -0.7195  1.4810  0.6919
  633DG      H614542   3.071   0.336   2.546 -0.0194  1.8190 -2.0692
  633DG      H714543   3.080   0.171   2.516  0.5696 -0.1018  0.1116
  633DG      H814544   3.158   0.280   2.397 -0.0591 -1.0310  0.0482
  633DG      O914545   2.748   0.638   2.226 -0.1656 -0.4794 -0.4745
  633DG     O1014546   2.956   0.294   2.393 -0.1976  0.0045  0.7754
  633DG     C1114547   2.654   0.575   2.141 -0.5049  0.0012 -0.8151
  633DG     C1214548   2.960   0.225   2.263  0.4054  0.7151  0.2766
  633DG     H1314549   2.682   0.586   2.036  0.6809 -3.4979 -0.9986
  633DG     H1414550   2.551   0.606   2.160 -0.0072  0.4129  1.5020
  633DG     H1514551   2.984   0.119   2.275  1.2626  0.7317 -0.9931
  633DG     H1614552   3.027   0.264   2.186  0.0152 -1.6168 -1.3432
  633DG     C1714553   2.667   0.429   2.177  0.1367  0.3373 -0.1008
  633DG     C1814554   2.822   0.244   2.201 -0.1971 -0.1705 -0.1667
  633DG     O1914555   2.804   0.389   2.192  0.2638  0.2866 -0.0417
  633DG     H2014556   2.617   0.370   2.100  2.3022 -0.3863 -1.0268
  633DG     H2114557   2.613   0.409   2.269  0.0354  3.0052  0.5037
  633DG     H2214558   2.808   0.202   2.102 -2.1794 -0.3679  0.1585
  633DG     H2314559   2.745   0.195   2.260 -1.0853  0.2558 -0.9355
  634DG      C114560   5.336   2.367   4.621 -0.0060 -0.0872 -0.6031
  634DG      C214561   5.604   2.072   5.284 -0.1257  0.3408  0.6418
  634DG      H314562   5.436   2.325   4.611  0.4935 -0.8539  4.6060
  634DG      H414563   5.361   2.468   4.652  2.1306 -0.5791 -0.6137
  634DG      H514564   5.280   2.383   4.529  0.2781  0.5544 -0.6692
  634DG      H614565   5.573   2.064   5.388 -1.4481  1.7702  0.3992
  634DG      H714566   5.683   2.001   5.261 -0.3017  0.1540  0.6127
  634DG      H814567   5.645   2.170   5.259 -2.7586  1.6354  1.0287
  634DG      O914568   5.280   2.290   4.730  0.5148 -0.3506 -0.0528
  634DG     O1014569   5.488   2.038   5.212  0.6613  0.0515  0.1569
  634DG     C1114570   5.246   2.159   4.691  0.1154 -0.0486  0.5302
  634DG     C1214571   5.490   2.073   5.068 -0.3234 -0.6003 -0.5068
  634DG     H1314572   5.322   2.121   4.623 -0.4403  0.8588 -0.6207
  634DG     H1414573   5.148   2.164   4.643 -0.1914  0.8407  1.2221
  634DG     H1514574   5.564   2.020   5.008  0.5710  1.2132 -1.0825
  634DG     H1614575   5.522   2.177   5.061  0.1489 -0.5668  1.3855
  634DG     C1714576   5.223   2.083   4.821 -0.1746 -0.5032 -0.0705
  634DG     C1814577   5.349   2.050   5.018  0.1405  0.4973 -0.2511
  634DG     O1914578   5.340   2.112   4.893 -0.6589  0.3277 -0.0595
  634DG     H2014579   5.203   1.978   4.801  1.1908 -0.5483 -1.3353
  634DG     H2114580   5.138   2.124   4.876 -0.3756 -1.4625  0.3536
  634DG     H2214581   5.355   1.942   5.008 -1.5612  0.5120 -2.0664
  634DG     H2314582   5.276   2.081   5.093  0.7720  1.0910  0.1244
  635DG      C114583   1.802   2.549   2.957 -0.7210  0.5808  0.0604
  635DG      C214584   1.889   3.328   2.778 -0.5521 -0.8309  0.6439
  635DG      H314585   1.826   2.491   3.046  1.5828  1.5892  0.1692
  635DG      H414586   1.883   2.543   2.884  0.1416 -2.1262  1.0956
  635DG      H514587   1.721   2.492   2.912 -0.3650 -1.1597  1.5009
  635DG      H614588   1.834   3.306   2.686 -3.6627  0.8124  1.9546
  635DG      H714589   1.874   3.428   2.817  2.8758 -0.5657  1.6291
  635DG      H814590   1.994   3.336   2.751 -0.9003  1.4617 -0.2449
  635DG      O914591   1.758   2.679   2.992 -0.0001  0.7332 -0.0438
  635DG     O1014592   1.868   3.216   2.867 -0.3824 -0.3559 -0.7878
  635DG     C1114593   1.854   2.754   3.054  0.1821 -0.4184 -0.3124
  635DG     C1214594   1.731   3.195   2.888  1.2782  0.3766 -0.1075
  635DG     H1314595   1.941   2.756   2.989  0.2206 -1.0097 -0.2851
  635DG     H1414596   1.894   2.706   3.144 -2.0764  0.2926  1.1729
  635DG     H1514597   1.696   3.156   2.792 -0.2723  2.7113 -0.5677
  635DG     H1614598   1.679   3.289   2.907  0.5425  0.1095 -0.7278
  635DG     C1714599   1.791   2.889   3.094 -0.0994  0.0354  0.4928
  635DG     C1814600   1.700   3.090   3.006  0.3444  0.3352 -0.0659
  635DG     O1914601   1.767   2.972   2.974  0.3441  0.3630 -0.1623
  635DG     H2014602   1.858   2.943   3.161  1.3438  0.3151 -1.1278
  635DG     H2114603   1.700   2.860   3.147  0.1072 -0.1358  0.7581
  635DG     H2214604   1.733   3.122   3.105 -1.9800 -2.2629  1.7104
  635DG     H2314605   1.592   3.078   3.013  0.3304  0.5477  0.0756
  636DG      C114606   3.186   0.365   1.930 -0.2170  0.3759 -0.3637
  636DG      C214607   3.545  -0.364   2.078 -0.4537  0.4514 -0.0118
  636DG      H314608   3.259   0.359   1.850 -0.4704 -1.5838 -0.4876
  636DG      H414609   3.182   0.469   1.964 -0.5868 -0.2559  1.6652
  636DG      H514610   3.087   0.338   1.892 -1.0174 -1.3279  2.5828
  636DG      H614611   3.549  -0.469   2.047  1.5427  0.1931  0.9227
  636DG      H714612   3.632  -0.313   2.036 -0.0008 -0.2352  0.0737
  636DG      H814613   3.547  -0.346   2.185 -0.4764  1.1240 -0.1207
  636DG      O914614   3.233   0.274   2.025  0.6765 -0.0154 -0.2425
  636DG     O1014615   3.435  -0.310   2.015 -0.4506 -0.1853 -0.0141
  636DG     C1114616   3.248   0.141   1.979 -0.6350 -0.1148 -0.6160
  636DG     C1214617   3.309  -0.319   2.089  0.1984 -0.4175 -0.3223
  636DG     H1314618   3.323   0.134   1.901 -0.4150  1.3234 -0.5500
  636DG     H1414619   3.159   0.094   1.936  0.0241 -3.1876  1.0969
  636DG     H1514620   3.321  -0.393   2.169  1.7322 -0.9901 -1.0427
  636DG     H1614621   3.238  -0.360   2.018 -0.9141  0.7364  0.0835
  636DG     C1714622   3.290   0.052   2.100  0.5469 -0.4630  0.4283
  636DG     C1814623   3.283  -0.184   2.157  0.0574  0.4625 -0.4121
  636DG     O1914624   3.288  -0.085   2.054 -0.1689  0.1542  0.3243
  636DG     H2014625   3.228   0.068   2.188  0.8331 -1.0720  0.7513
  636DG     H2114626   3.387   0.078   2.144  1.2077  0.5696 -1.5415
  636DG     H2214627   3.189  -0.189   2.212 -0.8812  0.6557 -1.9514
  636DG     H2314628   3.367  -0.173   2.225  0.9316 -3.6834 -0.5343
  637DG      C114629   3.161   3.531   2.904 -0.1299 -0.4284  0.2752
  637DG      C214630   2.919   3.935   2.509 -0.2090  0.2208 -0.5369
  637DG      H314631   3.221   3.447   2.939  2.3498  0.7942 -0.7596
  637DG      H414632   3.070   3.536   2.963 -0.0672  0.0581  0.3378
  637DG      H514633   3.221   3.616   2.936 -1.6720  1.7600 -2.1897
  637DG      H614634   2.860   3.974   2.426 -0.9807  0.7324  0.2291
  637DG      H714635   2.845   3.913   2.586 -1.8151 -0.4715 -2.2099
  637DG      H814636   2.986   4.018   2.531  0.4598 -0.7424  1.3492
  637DG      O914637   3.156   3.527   2.761  0.4364 -0.1598 -0.6081
  637DG     O1014638   2.989   3.809   2.496 -0.2603  0.4323 -0.1440
  637DG     C1114639   3.268   3.497   2.689 -0.0953 -0.0589  0.3862
  637DG     C1214640   3.055   3.788   2.380 -0.5891 -0.3159  0.7025
  637DG     H1314641   3.306   3.400   2.721 -1.7149 -0.8013  0.1701
  637DG     H1414642   3.345   3.568   2.720 -0.8688  1.0159 -0.0829
  637DG     H1514643   3.143   3.853   2.377  0.2181 -1.2975 -3.6802
  637DG     H1614644   3.001   3.797   2.286  2.1633 -1.8866 -1.2063
  637DG     C1714645   3.219   3.499   2.541  0.6165  0.1719  0.0296
  637DG     C1814646   3.104   3.648   2.384 -0.4838 -0.0282  0.0742
  637DG     O1914647   3.172   3.631   2.512 -0.3851 -0.3869  0.2349
  637DG     H2014648   3.132   3.436   2.523  0.7335 -0.1163  0.4428
  637DG     H2114649   3.296   3.465   2.472 -1.3439 -2.0955 -1.1793
  637DG     H2214650   3.017   3.583   2.373 -0.4020 -0.1049 -0.1283
  637DG     H2314651   3.171   3.632   2.299  0.1949 -3.9269  1.1649
  638DG      C114652   2.296   0.483   4.095  0.1596  0.1584  0.3001
  638DG      C214653   2.850  -0.002   4.136 -0.4469 -0.1403  0.7291
  638DG      H314654   2.269   0.452   3.995 -0.5761 -1.4099  0.9583
  638DG      H414655   2.370   0.564   4.092  0.3067  0.0040 -0.3593
  638DG      H514656   2.206   0.525   4.140 -0.0238 -0.7117  0.7586
  638DG      H614657   2.884   0.059   4.052  0.7091  0.0635  1.3245
  638DG      H714658   2.943  -0.026   4.186 -1.9268 -2.1299  2.7361
  638DG      H814659   2.809  -0.094   4.093 -0.1093 -1.1740  2.5279
  638DG      O914660   2.346   0.378   4.180 -0.1400 -0.1242  0.0838
  638DG     O1014661   2.762   0.060   4.237  0.4304  0.1181  0.2604
  638DG     C1114662   2.387   0.429   4.306 -0.6134 -0.5098  0.1770
  638DG     C1214663   2.789   0.191   4.272  0.3055  0.0132  0.3532
  638DG     H1314664   2.305   0.473   4.362 -1.0731 -0.1180 -0.7728
  638DG     H1414665   2.462   0.507   4.306 -1.8295  0.6891  1.0519
  638DG     H1514666   2.773   0.262   4.191  0.1171  1.6362  1.7560
  638DG     H1614667   2.890   0.203   4.312  1.1626 -0.9297 -1.3964
  638DG     C1714668   2.451   0.311   4.385  0.5995 -0.4417  0.2985
  638DG     C1814669   2.676   0.241   4.367  0.1844  0.5901  0.5323
  638DG     O1914670   2.551   0.251   4.307 -0.0229 -0.0436  0.5323
  638DG     H2014671   2.388   0.230   4.421  1.2868 -1.9554 -1.7288
  638DG     H2114672   2.490   0.350   4.479  2.4930 -1.1334 -0.1654
  638DG     H2214673   2.665   0.182   4.458  1.2534 -0.5180 -0.0257
  638DG     H2314674   2.725   0.331   4.407  1.2581 -0.3356  1.3618
  639DG      C114675   3.189   5.394   2.494  0.7311 -0.1259 -0.4637
  639DG      C214676   3.377   6.068   2.229 -0.8552  0.5548 -0.0110
  639DG      H314677   3.141   5.447   2.577 -1.1140 -1.4983 -0.5999
  639DG      H414678   3.217   5.294   2.529 -2.1927 -0.8038  0.2435
  639DG      H514679   3.124   5.375   2.409 -1.0376  0.0994  0.7832
  639DG      H614680   3.466   6.068   2.166 -1.3008 -1.4505 -0.7038
  639DG      H714681   3.302   6.029   2.160  2.0540 -3.6040 -1.1910
  639DG      H814682   3.364   6.171   2.262 -1.1506  0.7525 -0.7210
  639DG      O914683   3.309   5.450   2.450 -0.0587  0.1144 -0.5779
  639DG     O1014684   3.374   5.983   2.338  0.1604 -0.3262  0.0280
  639DG     C1114685   3.384   5.515   2.548  0.2593  0.0716 -0.7278
  639DG     C1214686   3.406   5.853   2.298 -0.2973  0.3460  0.6478
  639DG     H1314687   3.401   5.454   2.637  1.8353  2.1768  0.4994
  639DG     H1414688   3.326   5.589   2.602 -0.5785 -1.1861  0.1475
  639DG     H1514689   3.485   5.855   2.222 -0.4788 -2.0104  0.3058
  639DG     H1614690   3.326   5.800   2.245  1.8719 -3.6041  0.9630
  639DG     C1714691   3.522   5.565   2.491  0.4261 -0.3348 -0.7286
  639DG     C1814692   3.455   5.777   2.415 -0.0071  0.6174 -0.0468
  639DG     O1914693   3.490   5.646   2.377 -0.0263  0.1574  0.1796
  639DG     H2014694   3.566   5.469   2.464  0.5159 -1.0715  1.8209
  639DG     H2114695   3.587   5.624   2.555 -0.8954  1.3044 -0.8428
  639DG     H2214696   3.548   5.820   2.453 -0.3443  1.6820 -0.4111
  639DG     H2314697   3.380   5.787   2.493 -0.2490 -0.0292 -0.1868
  640DG      C114698   3.279   0.607   4.396  0.4576  0.1029  0.1848
  640DG      C214699   3.171   0.469   3.707 -0.0335  0.0675 -0.0350
  640DG      H314700   3.388   0.618   4.399  0.5127  0.7142 -2.0534
  640DG      H414701   3.287   0.507   4.354  0.6143 -0.9458  2.5368
  640DG      H514702   3.259   0.607   4.503  0.5335  0.1156  0.1991
  640DG      H614703   3.168   0.372   3.657 -2.7319  0.8379 -1.5784
  640DG      H714704   3.115   0.545   3.653  0.8085  0.6248 -0.1440
  640DG      H814705   3.276   0.494   3.691 -0.1369  0.0204 -0.8431
  640DG      O914706   3.214   0.708   4.324  0.2243 -0.0556 -0.4500
  640DG     O1014707   3.120   0.469   3.837  0.6549  0.9999 -0.6355
  640DG     C1114708   3.073   0.683   4.298 -0.8958 -0.2176 -0.4371
  640DG     C1214709   3.181   0.375   3.930  0.1667  0.0667  0.5403
  640DG     H1314710   3.033   0.766   4.241  1.5160  1.7161  0.5122
  640DG     H1414711   3.020   0.685   4.393 -1.1845 -0.8059 -0.5812
  640DG     H1514712   3.288   0.396   3.938  0.4967 -1.6456  0.9951
  640DG     H1614713   3.165   0.277   3.888 -0.8726  0.5944 -0.3222
  640DG     C1714714   3.037   0.547   4.227 -0.3071  0.0770 -0.3920
  640DG     C1814715   3.111   0.393   4.070  0.1404 -0.6150  0.2386
  640DG     O1914716   3.117   0.530   4.110 -0.1529  0.6030  0.0348
  640DG     H2014717   2.931   0.559   4.203  0.3743  2.4034 -2.7592
  640DG     H2114718   3.049   0.462   4.293 -2.0035  1.1954  1.5099
  640DG     H2214719   3.008   0.357   4.070 -0.2950  0.5348 -0.8876
  640DG     H2314720   3.167   0.331   4.140  2.1634 -0.4402 -1.1204
  641DG      C114721   4.100   5.307   4.059 -0.2393 -0.2360  0.1615
  641DG      C214722   4.090   5.202   4.820 -0.1957 -0.4133 -0.0618
  641DG      H314723   4.005   5.254   4.047  0.2905 -0.8252 -1.7989
  641DG      H414724   4.186   5.241   4.047  2.9532  3.6481 -0.0442
  641DG      H514725   4.110   5.380   3.980  4.1715  0.2718  0.9744
  641DG      H614726   3.994   5.171   4.863  0.8145 -0.3712  2.3458
  641DG      H714727   4.138   5.110   4.789  1.1885 -0.8671  3.0759
  641DG      H814728   4.146   5.243   4.904  0.4475  0.5930 -0.9599
  641DG      O914729   4.118   5.355   4.193 -0.1169  0.2175  0.1689
  641DG     O1014730   4.067   5.303   4.723 -0.2834  0.0606 -0.6178
  641DG     C1114731   4.018   5.446   4.230 -0.5438  0.3493 -0.0890
  641DG     C1214732   4.192   5.355   4.668  0.0011  0.4303  0.3722
  641DG     H1314733   3.923   5.394   4.238  0.3387 -1.3309  0.0874
  641DG     H1414734   4.023   5.527   4.157 -0.9635 -0.1896 -0.7247
  641DG     H1514735   4.258   5.274   4.638 -0.1292 -0.0814  1.4114
  641DG     H1614736   4.239   5.410   4.749  0.2150  0.6030  0.1329
  641DG     C1714737   4.057   5.515   4.366 -0.2441 -1.0144 -0.3393
  641DG     C1814738   4.168   5.460   4.566  0.6247 -0.0936  0.2067
  641DG     O1914739   4.083   5.420   4.465  0.0827 -0.0056  0.2973
  641DG     H2014740   3.972   5.577   4.393 -0.6211  0.3932 -4.1249
  641DG     H2114741   4.147   5.573   4.349 -0.7967  0.0220  0.1906
  641DG     H2214742   4.117   5.545   4.611  0.4420  0.7615 -1.5612
  641DG     H2314743   4.265   5.491   4.527  0.7296  0.5336  0.9491
  642DG      C114744   4.491   1.036   3.293 -0.2204  0.4056  0.0835
  642DG      C214745   3.803   0.914   3.494  0.8632  0.3632 -0.1989
  642DG      H314746   4.517   1.098   3.207  2.1346 -1.1883 -0.4619
  642DG      H414747   4.465   0.938   3.254 -1.3397  0.7656 -0.1119
  642DG      H514748   4.571   1.030   3.368 -1.8785 -1.4076  1.8395
  642DG      H614749   3.772   0.977   3.411 -1.0049 -1.2774 -0.8352
  642DG      H714750   3.845   0.824   3.449  0.0422 -1.0419  1.7103
  642DG      H814751   3.719   0.897   3.562  0.3828  0.0712 -0.8511
  642DG      O914752   4.395   1.087   3.372  0.6842 -0.4642 -0.2438
  642DG     O1014753   3.916   0.968   3.563 -0.5199  0.0033 -0.1009
  642DG     C1114754   4.264   1.110   3.313  0.2105 -0.0243 -0.2824
  642DG     C1214755   3.916   1.107   3.579 -0.0946 -0.5623  0.4574
  642DG     H1314756   4.205   1.020   3.297 -2.8367  2.1491 -2.2985
  642DG     H1414757   4.278   1.163   3.219  1.1876 -0.9700 -0.6997
  642DG     H1514758   3.848   1.147   3.654  0.7666  1.3268  0.2855
  642DG     H1614759   3.887   1.162   3.490  1.5386 -1.5415 -0.7183
  642DG     C1714760   4.177   1.175   3.423 -0.2790  0.3169 -0.3987
  642DG     C1814761   4.058   1.149   3.633 -0.6760 -0.7480 -0.0757
  642DG     O1914762   4.162   1.100   3.544 -0.0967  0.1614  0.0597
  642DG     H2014763   4.078   1.176   3.380 -0.3246  1.6840 -0.2940
  642DG     H2114764   4.218   1.273   3.448  2.2588 -0.5460 -0.8075
  642DG     H2214765   4.067   1.256   3.647  0.9267 -1.1223  2.5172
  642DG     H2314766   4.075   1.108   3.733  0.6488 -1.5769 -0.6063
  643DG      C114767   0.823   3.137   2.532 -0.3570 -0.0197 -0.1321
  643DG      C214768   0.526   3.890   2.177  0.2478  0.2187  0.0157
  643DG      H314769   0.887   3.204   2.475 -1.2665 -0.2853 -1.5230
  643DG      H414770   0.805   3.041   2.484 -1.1260 -0.4698  1.0038
  643DG      H514771   0.870   3.118   2.628  0.6430  0.5973 -0.4781
  643DG      H614772   0.555   3.980   2.231 -1.5743  1.7160 -1.4019
  643DG      H714773   0.565   3.887   2.076  1.0960 -0.6888  0.3464
  643DG      H814774   0.418   3.875   2.171  0.3296 -0.5749  0.3725
  643DG      O914775   0.697   3.203   2.560 -0.1022 -0.1233  0.5377
  643DG     O1014776   0.585   3.780   2.255 -0.4280  0.3031  0.2454
  643DG     C1114777   0.642   3.281   2.454  0.1814  0.3498  0.0416
  643DG     C1214778   0.544   3.766   2.386  0.2853  0.6458 -0.2448
  643DG     H1314779   0.534   3.277   2.465  0.2202 -1.4433  0.0742
  643DG     H1414780   0.675   3.244   2.357  0.2845  0.0598  0.1873
  643DG     H1514781   0.437   3.749   2.390  0.2053  1.0415 -0.6392
  643DG     H1614782   0.580   3.858   2.432  1.4926  0.4278 -0.7066
  643DG     C1714783   0.680   3.430   2.472  0.9967 -0.0526 -0.1251
  643DG     C1814784   0.613   3.648   2.458  0.3103 -0.0069  0.3860
  643DG     O1914785   0.595   3.523   2.403 -0.1735  0.5304 -0.2319
  643DG     H2014786   0.782   3.448   2.440  0.9824 -1.1579 -0.8641
  643DG     H2114787   0.680   3.447   2.580 -0.5636 -2.8751  0.4249
  643DG     H2214788   0.716   3.682   2.468 -0.4443  2.6361 -0.0762
  643DG     H2314789   0.574   3.643   2.560 -1.8822  1.2462 -0.3277
  644DG      C114790   5.297   3.979   0.953  0.4066  0.1376  0.3231
  644DG      C214791   5.820   4.173   1.204  0.3264  0.2925 -0.3433
  644DG      H314792   5.317   3.911   1.036  0.5502  0.9747  0.9800
  644DG      H414793   5.214   3.925   0.907  1.4420 -0.7447 -0.5641
  644DG      H514794   5.263   4.072   0.996  1.9928  0.7723  0.2693
  644DG      H614795   5.728   4.208   1.249  1.2933 -0.2771  2.2134
  644DG      H714796   5.869   4.098   1.265 -1.7091 -1.4885 -0.7689
  644DG      H814797   5.892   4.255   1.214  1.3400 -0.7928  1.9509
  644DG      O914798   5.407   3.988   0.862 -0.3710 -0.0285  0.0086
  644DG     O1014799   5.799   4.137   1.068 -0.7011 -0.0113  0.5265
  644DG     C1114800   5.403   4.106   0.787  0.0609  0.6933  0.5620
  644DG     C1214801   5.772   4.263   1.000  0.1159 -0.9195 -0.0688
  644DG     H1314802   5.353   4.191   0.833 -0.3276 -0.4193  2.2766
  644DG     H1414803   5.343   4.086   0.698  0.0988  2.0435  0.2085
  644DG     H1514804   5.866   4.317   0.989  0.3387 -1.3294 -0.1791
  644DG     H1614805   5.693   4.325   1.045 -0.5789 -0.1703 -2.1848
  644DG     C1714806   5.536   4.158   0.747  0.0588 -0.1566 -0.0727
  644DG     C1814807   5.736   4.228   0.859 -0.9385 -0.2017 -0.5337
  644DG     O1914808   5.608   4.174   0.871  0.5516  0.1311  0.1322
  644DG     H2014809   5.523   4.259   0.707 -0.4206  0.4124  1.4271
  644DG     H2114810   5.591   4.092   0.681  0.6475 -0.1191  0.3696
  644DG     H2214811   5.732   4.319   0.799 -0.4033 -0.2753 -0.6866
  644DG     H2314812   5.805   4.164   0.804  1.4473  2.5939 -1.0161
  645DG      C114813   2.682   5.159   0.837 -0.3834  0.0071 -0.4407
  645DG      C214814   3.183   5.666   1.229 -0.1027 -0.3122  0.3775
  645DG      H314815   2.764   5.094   0.806  1.3873  2.0406 -0.2482
  645DG      H414816   2.649   5.204   0.743  0.3771 -1.2544 -1.3573
  645DG      H514817   2.605   5.091   0.872 -0.2753  0.8971  1.6511
  645DG      H614818   3.180   5.726   1.137 -0.3978 -0.5411  0.2364
  645DG      H714819   3.175   5.733   1.314  3.0587  0.4321  0.2128
  645DG      H814820   3.288   5.638   1.241 -0.3626 -0.5550  2.2356
  645DG      O914821   2.710   5.256   0.930  0.3258  0.0165 -0.1853
  645DG     O1014822   3.083   5.563   1.236 -0.4088 -0.1524  0.0093
  645DG     C1114823   2.750   5.205   1.053 -0.2697 -0.2113 -0.5831
  645DG     C1214824   2.954   5.617   1.204 -0.0694 -0.3226  0.3470
  645DG     H1314825   2.846   5.154   1.042  0.1538  0.5612 -0.5368
  645DG     H1414826   2.689   5.119   1.082 -0.4479  0.2160  0.3701
  645DG     H1514827   2.945   5.641   1.098  0.7196 -0.5224  0.2276
  645DG     H1614828   2.932   5.709   1.259 -1.0047  0.1872 -0.8042
  645DG     C1714829   2.770   5.304   1.181  0.5582 -0.1404  0.5283
  645DG     C1814830   2.848   5.514   1.246 -0.1955  0.4472  0.5359
  645DG     O1914831   2.860   5.406   1.156 -0.2223  0.2283  0.5918
  645DG     H2014832   2.811   5.241   1.259 -0.9922  0.5126  1.9249
  645DG     H2114833   2.676   5.346   1.214 -0.2480 -0.5933 -1.0724
  645DG     H2214834   2.876   5.461   1.336  3.4310 -1.1881 -1.3442
  645DG     H2314835   2.747   5.556   1.252 -1.3867 -2.2959  1.1435
  646DG      C114836   0.748   1.432   4.997  0.4818  0.0470  0.2151
  646DG      C214837   1.061   1.210   5.544  0.4874  0.8104 -0.4677
  646DG      H314838   0.777   1.508   4.924 -1.3337  0.6273  0.0621
  646DG      H414839   0.641   1.425   5.014  0.3974 -1.5647 -0.7675
  646DG      H514840   0.779   1.335   4.958 -1.5545 -0.0227 -1.3387
  646DG      H614841   1.055   1.121   5.481 -0.6846  0.1694  0.5130
  646DG      H714842   1.163   1.243   5.563  0.5285  0.7701 -0.6158
  646DG      H814843   1.043   1.179   5.647  0.9781  0.4755 -0.4792
  646DG      O914844   0.803   1.465   5.123 -1.0698  0.2640 -0.1180
  646DG     O1014845   0.980   1.310   5.486  0.0561 -0.5663 -0.1189
  646DG     C1114846   0.794   1.599   5.158  0.5704 -0.0997  0.0390
  646DG     C1214847   0.979   1.434   5.557  0.2759  0.3502 -0.3855
  646DG     H1314848   0.714   1.657   5.112  0.4756  0.4730  0.9112
  646DG     H1414849   0.886   1.652   5.136  0.2166  0.6087  0.2500
  646DG     H1514850   1.067   1.497   5.544  0.5557  0.6018  2.1093
  646DG     H1614851   0.986   1.421   5.665  0.8761 -1.7992 -0.6322
  646DG     C1714852   0.761   1.612   5.308 -0.3534  0.3965 -0.2175
  646DG     C1814853   0.861   1.522   5.511 -0.2514  0.6512 -0.0424
  646DG     O1914854   0.857   1.527   5.369 -0.0380  0.1206 -0.6194
  646DG     H2014855   0.654   1.593   5.320 -0.1690  0.5322  1.9330
  646DG     H2114856   0.783   1.709   5.352 -0.7543  0.4842 -0.2069
  646DG     H2214857   0.762   1.489   5.544 -0.8116  1.0431 -1.2551
  646DG     H2314858   0.879   1.620   5.556  0.7375  0.7958 -0.7242
  647DG      C114859   5.255   1.943   1.062  0.2676  0.8065  0.2553
  647DG      C214860   4.571   2.187   1.081 -0.4732 -0.5208  0.1846
  647DG      H314861   5.357   1.905   1.057  0.3467  1.1689 -1.2181
  647DG      H414862   5.199   1.875   0.999 -1.5893  0.2241  2.3728
  647DG      H514863   5.211   1.931   1.162 -0.5149 -0.4067 -0.2167
  647DG      H614864   4.496   2.254   1.122  1.5910  0.9309  1.7768
  647DG      H714865   4.580   2.206   0.974 -1.8779  1.8967  0.4259
  647DG      H814866   4.529   2.086   1.083  0.0389 -0.7363  2.0487
  647DG      O914867   5.262   2.076   1.019 -0.1346 -0.4301 -0.3045
  647DG     O1014868   4.700   2.202   1.143 -0.0713 -0.2240  0.5405
  647DG     C1114869   5.137   2.138   0.989 -0.0739  0.3264 -0.4625
  647DG     C1214870   4.744   2.335   1.155  0.7123  0.0088  0.4267
  647DG     H1314871   5.061   2.068   0.953 -0.1090  0.5705 -0.8666
  647DG     H1414872   5.151   2.209   0.908  0.4368 -2.3939 -2.9508
  647DG     H1514873   4.705   2.383   1.244  0.3958 -1.5521  1.1681
  647DG     H1614874   4.717   2.389   1.064  1.5276  0.9520  0.7286
  647DG     C1714875   5.090   2.214   1.112 -0.1813 -0.0096 -0.5662
  647DG     C1814876   4.895   2.345   1.179 -0.2699  0.1661  0.6671
  647DG     O1914877   4.962   2.264   1.078  0.4945 -0.2306 -0.4330
  647DG     H2014878   5.167   2.281   1.150 -0.1520 -0.4022  0.0914
  647DG     H2114879   5.075   2.154   1.203  0.9414  0.2701 -0.1850
  647DG     H2214880   4.932   2.445   1.157  2.4399 -0.9303 -0.2178
  647DG     H2314881   4.920   2.320   1.283  0.5924  0.2412  0.4877
  648DG      C114882   4.693   4.331   4.266  0.2063 -0.5201 -0.3889
  648DG      C214883   5.033   3.895   3.662 -0.2410 -0.3005 -0.1681
  648DG      H314884   4.593   4.339   4.224  0.0783 -0.1852 -0.0244
  648DG      H414885   4.752   4.422   4.255  0.2513 -0.4531  0.4122
  648DG      H514886   4.677   4.316   4.372  1.6414  0.4172 -0.0160
  648DG      H614887   5.105   3.813   3.668 -1.6714 -1.9450 -3.0129
  648DG      H714888   4.967   3.871   3.578  0.7715  0.7695 -1.3054
  648DG      H814889   5.089   3.985   3.637 -1.5047  0.3341 -0.8132
  648DG      O914890   4.770   4.224   4.217  0.3438  0.3133 -0.0455
  648DG     O1014891   4.981   3.928   3.796 -0.1308 -0.4823  1.1770
  648DG     C1114892   4.757   4.207   4.074 -0.1677 -0.3586 -0.0186
  648DG     C1214893   5.082   3.964   3.888 -0.1605  0.6367 -0.2773
  648DG     H1314894   4.810   4.283   4.016 -0.9508 -1.1872 -1.9131
  648DG     H1414895   4.656   4.221   4.036 -0.1651  1.1452  0.4416
  648DG     H1514896   5.139   4.054   3.867 -0.0001  1.4437  3.0153
  648DG     H1614897   5.150   3.879   3.899 -0.5907  0.2244 -0.7707
  648DG     C1714898   4.811   4.071   4.047 -0.8694  0.1747 -0.2007
  648DG     C1814899   5.044   3.975   4.034 -0.2538 -0.1869 -0.8719
  648DG     O1914900   4.954   4.084   4.063 -1.0185 -0.4143  0.2197
  648DG     H2014901   4.794   4.031   3.947 -0.6290 -2.0034  0.5662
  648DG     H2114902   4.772   4.000   4.121 -0.0803  0.0127  0.0693
  648DG     H2214903   4.992   3.884   4.063 -1.6196  0.6906 -0.5116
  648DG     H2314904   5.136   3.987   4.092 -0.1337  0.4790 -1.1937
  649DG      C114905   4.394   4.409   2.036  0.4655 -0.4367 -0.2287
  649DG      C214906   3.856   4.709   1.614 -0.0609 -0.0777  0.1723
  649DG      H314907   4.406   4.422   2.144 -1.8896 -0.6196  0.0994
  649DG      H414908   4.471   4.480   2.004  1.9231 -0.8180  2.1493
  649DG      H514909   4.426   4.313   1.997  0.7764  0.3388 -1.9837
  649DG      H614910   3.907   4.685   1.521 -0.2186 -0.1501  0.1037
  649DG      H714911   3.747   4.713   1.608 -0.0274 -0.2937 -0.8329
  649DG      H814912   3.885   4.811   1.639  1.0604  0.0949 -1.6468
  649DG      O914913   4.259   4.427   1.990 -0.1699  0.2721  0.0551
  649DG     O1014914   3.897   4.625   1.724  0.5375  0.4449  0.3821
  649DG     C1114915   4.179   4.313   2.025 -0.7682  0.2332 -0.2796
  649DG     C1214916   3.867   4.479   1.704 -0.1602  0.0133  0.1636
  649DG     H1314917   4.182   4.292   2.132 -0.0525 -1.0024 -0.5295
  649DG     H1414918   4.200   4.220   1.974 -0.0852  1.3876 -2.2175
  649DG     H1514919   3.925   4.445   1.618 -2.1093 -0.4223 -1.0422
  649DG     H1614920   3.760   4.479   1.682 -0.5581 -0.1404  1.9302
  649DG     C1714921   4.036   4.353   1.997  0.2683  0.6890 -0.1743
  649DG     C1814922   3.881   4.403   1.832 -0.6008 -0.1343  0.5417
  649DG     O1914923   4.021   4.379   1.853 -0.9903  0.2225  0.3235
  649DG     H2014924   4.000   4.443   2.047  0.9315  0.5353  0.5848
  649DG     H2114925   3.965   4.271   2.011  0.6870  0.5635  1.2949
  649DG     H2214926   3.830   4.469   1.903 -1.0843 -1.3024  1.3268
  649DG     H2314927   3.831   4.307   1.821 -0.7948  0.0344 -0.0432
  650DG      C114928   4.146   1.209   4.350 -0.3293  0.0226 -0.1622
  650DG      C214929   4.366   1.403   3.688  0.0437 -0.2399 -0.0341
  650DG      H314930   4.165   1.160   4.445  0.8183 -2.2089 -1.4638
  650DG      H414931   4.037   1.206   4.337 -0.1389 -1.1819 -1.8530
  650DG      H514932   4.179   1.312   4.362  0.6009 -0.3612  0.6839
  650DG      H614933   4.368   1.509   3.716  0.0252  0.2891 -1.9140
  650DG      H714934   4.428   1.392   3.599 -0.0681  2.6591 -0.5819
  650DG      H814935   4.263   1.371   3.671  0.0031 -0.8016  1.1891
  650DG      O914936   4.228   1.138   4.257  0.8183  0.0515  0.9168
  650DG     O1014937   4.410   1.342   3.810 -0.1986  0.1564 -0.3455
  650DG     C1114938   4.370   1.131   4.281  0.9366  0.0468  0.0995
  650DG     C1214939   4.412   1.197   3.796  0.2917 -0.6098  0.1746
  650DG     H1314940   4.382   1.058   4.361  0.9278  3.1437  3.1620
  650DG     H1414941   4.393   1.233   4.312 -0.3197  0.8929 -1.5633
  650DG     H1514942   4.458   1.161   3.704 -0.1576  0.4483 -0.4711
  650DG     H1614943   4.313   1.153   3.788 -0.3925  0.7087  1.0215
  650DG     C1714944   4.453   1.098   4.152 -0.7880 -0.0364 -0.0348
  650DG     C1814945   4.487   1.142   3.917  0.0181  0.2654  0.3530
  650DG     O1914946   4.402   1.158   4.032 -0.0934  0.6350 -0.7394
  650DG     H2014947   4.466   0.992   4.130  2.7995  0.4926 -1.2049
  650DG     H2114948   4.550   1.143   4.172 -1.2672 -0.2988  3.5310
  650DG     H2214949   4.490   1.036   3.894 -0.0381  0.2008  0.6377
  650DG     H2314950   4.588   1.182   3.923 -0.5403  1.7311  0.4276
  651PF6-    P114951   0.035   4.864   3.394 -0.0813 -0.3917  0.3253
  651PF6-    F214952  -0.095   4.950   3.412  0.3354  0.0863  0.2311
  651PF6-    F314953   0.164   4.779   3.365  0.4412  0.0187  0.6659
  651PF6-    F414954  -0.020   4.764   3.501  0.0998 -0.5270 -0.6133
  651PF6-    F514955   0.091   4.973   3.286  0.4830 -0.0446  0.1847
  651PF6-    F614956   0.104   4.943   3.511 -0.6796 -0.8577 -0.3342
  651PF6-    F714957  -0.047   4.791   3.275 -0.4603  0.5922 -0.0192
  652PF6-    P114958   2.407   0.471   0.316 -0.0076 -0.0863 -0.4598
  652PF6-    F214959   2.461   0.547   0.183 -0.1918 -0.0923 -0.5575
  652PF6-    F314960   2.361   0.400   0.456  0.1026 -0.1251 -0.0089
  652PF6-    F414961   2.505   0.345   0.277  0.1614 -0.0707  0.2221
  652PF6-    F514962   2.309   0.590   0.353 -0.2292 -0.2087  0.7359
  652PF6-    F614963   2.291   0.406   0.230 -0.5985  0.2336  0.0436
  652PF6-    F714964   2.529   0.540   0.398  0.3547 -0.1421  0.5546
  653PF6-    P114965   4.365   2.618   3.128  0.1324 -0.2177 -0.0491
  653PF6-    F214966   4.404   2.741   3.218 -0.1237  0.0313  0.0856
  653PF6-    F314967   4.317   2.500   3.030 -1.0160  0.0514 -0.8449
  653PF6-    F414968   4.214   2.657   3.151 -0.2589 -0.7798 -0.1926
  653PF6-    F514969   4.520   2.579   3.102 -0.1345 -0.4974  0.0883
  653PF6-    F614970   4.352   2.527   3.261  0.0872  0.2565  0.0511
  653PF6-    F714971   4.374   2.711   3.000 -0.2428 -0.2767  0.4388
  654PF6-    P114972   4.776   0.132   5.366  0.0356  0.2983  0.5929
  654PF6-    F214973   4.824   0.059   5.498 -0.3418 -0.0081 -0.1400
  654PF6-    F314974   4.726   0.208   5.236  0.5068 -0.0278 -0.3959
  654PF6-    F414975   4.924   0.119   5.299  0.1217  0.2230  0.5879
  654PF6-    F514976   4.632   0.158   5.431 -0.1100 -0.1097  0.0791
  654PF6-    F614977   4.822   0.278   5.428  0.3055  0.0139  0.1589
  654PF6-    F714978   4.729  -0.012   5.305 -0.3194  0.1112  0.6789
  655PF6-    P114979   3.570   2.874   2.233 -0.0281  0.1373  0.0071
  655PF6-    F214980   3.469   2.993   2.226  0.3268 -0.5850 -0.4170
  655PF6-    F314981   3.675   2.750   2.238 -0.1240 -0.4214 -0.0880
  655PF6-    F414982   3.576   2.874   2.074  0.3365 -0.4692 -0.4719
  655PF6-    F514983   3.558   2.874   2.396 -0.0510 -0.1092  0.4817
  655PF6-    F614984   3.446   2.769   2.229  0.3512  0.0143 -0.0167
  655PF6-    F714985   3.692   2.982   2.236  0.1893  0.1645  0.4829
  656PF6-    P114986   0.852   2.643   0.536 -0.0115 -0.4896 -0.5956
  656PF6-    F214987   0.788   2.752   0.440 -0.0459  0.0069 -0.2254
  656PF6-    F314988   0.906   2.532   0.638 -0.3688 -0.1912 -0.5285
  656PF6-    F414989   0.861   2.535   0.419  0.2387  0.4387 -0.3231
  656PF6-    F514990   0.845   2.748   0.653 -0.3401  0.2433  0.3123
  656PF6-    F614991   0.706   2.596   0.570 -0.2568  0.0863  0.1957
  656PF6-    F714992   0.998   2.696   0.504  0.0721  0.3971 -0.0207
  657PF6-    P114993   1.679   0.165   3.221 -0.0865 -0.0888  0.2060
  657PF6-    F214994   1.712   0.216   3.366 -0.7255  0.2428 -0.3182
  657PF6-    F314995   1.641   0.132   3.066  0.5979  0.2730 -0.0300
  657PF6-    F414996   1.548   0.252   3.228  0.1629 -0.1847  0.3187
  657PF6-    F514997   1.807   0.071   3.200 -0.1422 -0.4056 -0.3104
  657PF6-    F614998   1.593   0.044   3.276 -0.2386 -0.7123 -0.0315
  657PF6-    F714999   1.767   0.289   3.168 -0.7495 -0.2320  0.0456
  658PF6-    P115000   4.161   0.982   4.871 -0.0341  0.5825 -0.1001
  658PF6-    F215001   4.203   0.825   4.850  0.2234  0.2046  0.6171
  658PF6-    F315002   4.125   1.135   4.897 -0.6349  0.4607 -0.8244
  658PF6-    F415003   4.130   0.946   5.022 -0.1382 -0.4312  0.2912
  658PF6-    F515004   4.189   1.007   4.717  0.2660  0.1615 -0.3335
  658PF6-    F615005   4.006   0.942   4.837 -0.1733 -0.7128  0.4935
  658PF6-    F715006   4.321   1.004   4.899 -0.3347  0.4033 -0.0281
  659PF6-    P115007   5.237   1.884   3.009  0.1695  0.4045  0.3081
  659PF6-    F215008   5.229   1.730   3.060  0.2072 -0.4347 -0.1852
  659PF6-    F315009   5.246   2.040   2.972 -0.0573  0.4612  0.0166
  659PF6-    F415010   5.392   1.871   2.972 -0.5060  0.0857 -0.0508
  659PF6-    F515011   5.083   1.896   3.040 -0.4947 -0.3565  1.1437
  659PF6-    F615012   5.263   1.926   3.159  0.1057  0.0550  0.4308
  659PF6-    F715013   5.198   1.845   2.861  0.2618 -0.2589 -0.3743
  660PF6-    P115014   0.501   5.391   0.441  0.2260  0.2385 -0.0186
  660PF6-    F215015   0.426   5.286   0.539  0.1979 -0.2580 -0.0768
  660PF6-    F315016   0.574   5.496   0.341  0.5586  0.1855 -0.1876
  660PF6-    F415017   0.410   5.508   0.501 -0.4526 -0.3539 -0.1640
  660PF6-    F515018   0.593   5.273   0.371  0.0199 -0.4043 -0.1293
  660PF6-    F615019   0.389   5.359   0.326  0.0070  0.0561 -0.0047
  660PF6-    F715020   0.609   5.419   0.555 -0.4123 -0.0342 -0.0721
  661PF6-    P115021   4.497   4.326   0.828  0.8384 -0.1908  0.0592
  661PF6-    F215022   4.485   4.481   0.777  0.2832 -0.0248 -0.4012
  661PF6-    F315023   4.509   4.179   0.885 -0.4728  0.4438 -0.0727
  661PF6-    F415024   4.393   4.361   0.948  0.2034  0.1693  0.2236
  661PF6-    F515025   4.600   4.284   0.714 -0.3004  0.3061 -0.2603
  661PF6-    F615026   4.619   4.367   0.930  0.1078 -0.0947 -0.2622
  661PF6-    F715027   4.374   4.285   0.734  0.1659 -0.7322  0.3261
  662PF6-    P115028   0.273   3.182   2.195  0.6564  0.1172 -0.1560
  662PF6-    F215029   0.147   3.260   2.251  0.0842  0.1227 -0.1743
  662PF6-    F315030   0.398   3.103   2.134 -0.3241 -0.3235  0.7814
  662PF6-    F415031   0.285   3.102   2.338 -0.3040  0.0368 -0.3534
  662PF6-    F515032   0.257   3.259   2.059  0.5721 -0.6538 -0.0489
  662PF6-    F615033   0.367   3.298   2.248  0.2747  0.0658 -0.3539
  662PF6-    F715034   0.170   3.069   2.138 -0.1407  0.1288  0.3347
  663PF6-    P115035   3.896   3.876   2.024  0.5304 -0.2732 -0.0298
  663PF6-    F215036   3.804   3.776   1.951 -0.5487 -0.0457 -0.0753
  663PF6-    F315037   3.990   3.981   2.104  0.2272  0.2130 -0.2995
  663PF6-    F415038   3.883   3.980   1.905 -0.1640 -0.2381 -0.2408
  663PF6-    F515039   3.902   3.767   2.144  0.3165 -0.2793  0.0095
  663PF6-    F615040   4.026   3.819   1.953 -0.3908  0.0507 -0.2272
  663PF6-    F715041   3.767   3.941   2.094  0.1260 -0.0081  0.4380
  664PF6-    P115042   4.127   1.760   0.611 -0.0049  0.0346  0.2022
  664PF6-    F215043   4.007   1.735   0.707 -0.0008  0.5646 -0.2093
  664PF6-    F315044   4.259   1.786   0.524 -0.1594  0.4022 -0.5280
  664PF6-    F415045   4.101   1.617   0.543  0.1022  0.4355 -0.4514
  664PF6-    F515046   4.161   1.899   0.690 -0.1202 -0.0720  0.9951
  664PF6-    F615047   4.214   1.678   0.716  0.1489 -0.0976 -0.4430
  664PF6-    F715048   4.042   1.838   0.501 -0.0115  0.1032 -0.1809
  665PF6-    P115049   1.243   0.727   5.353 -0.3248  0.2252 -0.1460
  665PF6-    F215050   1.090   0.676   5.328 -0.0211  0.5274  0.5389
  665PF6-    F315051   1.395   0.776   5.376  0.0632 -0.5141 -0.0350
  665PF6-    F415052   1.231   0.838   5.240 -0.0082  0.1736  0.1102
  665PF6-    F515053   1.258   0.614   5.467  0.2685  0.8320  0.0267
  665PF6-    F615054   1.296   0.621   5.242  0.1145  0.2781  0.1160
  665PF6-    F715055   1.201   0.830   5.465  0.2154 -0.9460 -0.3089
  666PF6-    P115056   2.643   2.376   0.831  0.1906 -0.0226  0.0053
  666PF6-    F215057   2.559   2.262   0.910  0.1309 -0.2388 -0.6345
  666PF6-    F315058   2.724   2.480   0.740  0.0497  0.0139 -0.5694
  666PF6-    F415059   2.530   2.481   0.855  0.3100  0.0654 -0.1675
  666PF6-    F515060   2.759   2.270   0.806 -0.2472 -0.0826  0.0599
  666PF6-    F615061   2.565   2.330   0.701  0.5658  0.0307  0.0683
  666PF6-    F715062   2.714   2.417   0.966 -0.2438  0.0015 -0.5339
  667PF6-    P115063   1.669   4.644   5.392 -0.6372  0.1190 -0.1255
  667PF6-    F215064   1.688   4.496   5.339 -0.3057  0.0511 -0.1517
  667PF6-    F315065   1.668   4.794   5.448 -0.3160  0.2569 -0.4733
  667PF6-    F415066   1.619   4.587   5.532 -0.1011  0.4885 -0.1384
  667PF6-    F515067   1.723   4.694   5.249  0.4979  0.2130 -0.2789
  667PF6-    F615068   1.521   4.663   5.336  0.1378  0.1216  0.2087
  667PF6-    F715069   1.825   4.631   5.446  0.8092  0.6738  0.2043
  668PF6-    P115070   5.021   1.518   1.101  0.2205  0.2582 -0.1928
  668PF6-    F215071   5.089   1.495   0.959 -0.0661 -0.2728 -0.1215
  668PF6-    F315072   4.943   1.535   1.240 -0.6237 -0.0905  0.1844
  668PF6-    F415073   5.148   1.572   1.163  0.1507 -0.8588 -0.5359
  668PF6-    F515074   4.886   1.460   1.039 -0.3837 -0.2791 -0.2457
  668PF6-    F615075   5.065   1.369   1.141 -0.2854  0.4284 -0.7178
  668PF6-    F715076   4.989   1.666   1.064  0.1475 -0.3553 -0.2614
  669PF6-    P115077   3.297   0.673   1.630 -0.0168  0.0722  0.0686
  669PF6-    F215078   3.206   0.680   1.493  0.2291 -0.0992  0.3416
  669PF6-    F315079   3.383   0.670   1.761  0.1320  0.7721  0.3845
  669PF6-    F415080   3.388   0.796   1.570  0.1239  0.2735  0.7975
  669PF6-    F515081   3.210   0.547   1.688 -0.2754 -0.2486 -0.1010
  669PF6-    F615082   3.386   0.559   1.565  0.0281 -0.5911 -0.6185
  669PF6-    F715083   3.205   0.788   1.693 -0.0585 -0.2044 -0.1551
  670PF6-    P115084   1.712   3.020   3.516 -0.2844  0.5377  0.0621
  670PF6-    F215085   1.607   2.929   3.599  0.0082  0.2789 -0.3539
  670PF6-    F315086   1.812   3.118   3.436 -0.6607  0.4817 -0.1668
  670PF6-    F415087   1.788   2.890   3.454 -0.4155  0.1845 -0.0104
  670PF6-    F515088   1.644   3.147   3.589 -0.3065 -0.3953  0.3510
  670PF6-    F615089   1.821   3.017   3.638 -0.0297  0.1283 -0.3382
  670PF6-    F715090   1.609   3.024   3.397  0.0886  0.4436  0.4776
  671PF6-    P115091   0.797   1.211   0.657  0.2127 -0.1527  0.3744
  671PF6-    F215092   0.895   1.257   0.780 -0.6009  0.0597  0.3935
  671PF6-    F315093   0.699   1.167   0.528 -0.4751 -0.7111 -0.1618
  671PF6-    F415094   0.839   1.064   0.668  0.4286  0.2363 -0.1005
  671PF6-    F515095   0.753   1.370   0.640  1.0182  0.0452  0.2060
  671PF6-    F615096   0.918   1.239   0.554 -0.3037 -0.1189 -0.3054
  671PF6-    F715097   0.671   1.181   0.758  0.1448 -0.7937 -0.3067
  672PF6-    P115098   1.381   4.832   3.791 -0.1448  0.1787  0.4005
  672PF6-    F215099   1.414   4.977   3.740 -0.0101 -0.3412 -0.0080
  672PF6-    F315100   1.338   4.682   3.835  0.0101  0.6640 -0.1763
  672PF6-    F415101   1.403   4.779   3.640 -0.3190 -0.0342  0.0656
  672PF6-    F515102   1.364   4.882   3.938  0.6198 -0.0091 -0.0696
  672PF6-    F615103   1.231   4.864   3.758  0.7269  0.3074 -0.2083
  672PF6-    F715104   1.531   4.801   3.828 -0.1232 -0.3978 -0.4488
  673PF6-    P115105   2.881   4.828   1.334 -0.2482 -0.3163 -0.1382
  673PF6-    F215106   2.817   4.860   1.474 -0.1355  0.3568  0.0799
  673PF6-    F315107   2.943   4.794   1.192 -0.5456  0.0565  0.0625
  673PF6-    F415108   3.023   4.823   1.399  0.0172  0.3542 -0.0086
  673PF6-    F515109   2.729   4.829   1.263  0.3204 -0.3438 -0.6460
  673PF6-    F615110   2.890   4.985   1.305  0.0544 -0.0682  0.2989
  673PF6-    F715111   2.872   4.668   1.366 -0.6184 -0.0448 -0.5405
  674PF6-    P115112   3.524   4.482   3.398  0.0558 -0.2307 -0.1452
  674PF6-    F215113   3.628   4.398   3.483  0.0665 -0.0991  0.0685
  674PF6-    F315114   3.420   4.568   3.315 -0.2248 -0.3541 -0.5166
  674PF6-    F415115   3.609   4.457   3.263 -0.2109 -0.4619 -0.3472
  674PF6-    F515116   3.444   4.519   3.532 -0.2736  0.3324 -0.0098
  674PF6-    F615117   3.612   4.617   3.425  0.0504  0.2356 -0.3529
  674PF6-    F715118   3.439   4.355   3.371 -0.4392  0.1214  0.0732
  675PF6-    P115119   0.293   4.323   1.670  0.1186 -0.2011  0.5187
  675PF6-    F215120   0.253   4.441   1.565 -0.5177  0.3353 -0.2264
  675PF6-    F315121   0.339   4.207   1.771  0.0561  0.0318  0.0190
  675PF6-    F415122   0.432   4.399   1.711  0.4210  0.5771  0.0830
  675PF6-    F515123   0.149   4.259   1.633 -0.2358  0.3401  0.2930
  675PF6-    F615124   0.362   4.240   1.546  0.0847  0.2315  0.3207
  675PF6-    F715125   0.214   4.400   1.788  0.1222 -0.2570 -0.9741
  676PF6-    P115126   0.819   5.376   1.599 -0.5777  0.2858 -0.2670
  676PF6-    F215127   0.778   5.224   1.587  0.4487 -0.2693  0.0315
  676PF6-    F315128   0.864   5.532   1.613 -0.6465  0.4657  0.9751
  676PF6-    F415129   0.720   5.410   1.472  0.2850 -0.2987 -0.0040
  676PF6-    F515130   0.907   5.342   1.728  0.4679 -0.3354  0.2641
  676PF6-    F615131   0.939   5.344   1.496 -0.0659 -0.6642 -0.0626
  676PF6-    F715132   0.703   5.397   1.704  0.2854 -0.3177  0.5240
  677PF6-    P115133   3.716   4.406   1.236 -0.0512 -0.2529  0.0784
  677PF6-    F215134   3.849   4.342   1.168  0.4745 -0.2194  0.4315
  677PF6-    F315135   3.585   4.476   1.299 -0.5082 -0.2569  0.3342
  677PF6-    F415136   3.650   4.441   1.088 -0.2368 -0.4360  0.0942
  677PF6-    F515137   3.768   4.360   1.383 -0.2858  0.2248 -0.2468
  677PF6-    F615138   3.789   4.548   1.250  0.1861  0.2259 -0.6311
  677PF6-    F715139   3.647   4.263   1.222 -0.0855 -0.4511  0.5348
  678PF6-    P115140   5.418   0.789   5.337  0.1448  0.1416 -0.3047
  678PF6-    F215141   5.517   0.672   5.378 -0.3944  0.0380  0.0673
  678PF6-    F315142   5.312   0.905   5.309 -0.0076  0.8991  0.2791
  678PF6-    F415143   5.330   0.679   5.259 -0.1604 -0.5946 -0.0215
  678PF6-    F515144   5.513   0.896   5.420 -0.5316 -0.0978  0.2223
  678PF6-    F615145   5.501   0.821   5.201 -0.1800  0.0596 -0.2415
  678PF6-    F715146   5.336   0.750   5.476 -0.4636 -0.5106 -0.0201
  679PF6-    P115147   1.203   3.739   3.441  0.0101 -0.0742  0.1774
  679PF6-    F215148   1.210   3.856   3.554  0.2179 -0.0761  0.6708
  679PF6-    F315149   1.196   3.630   3.326 -0.1289  0.1958  0.6240
  679PF6-    F415150   1.077   3.670   3.514 -0.9519 -0.0721  0.2956
  679PF6-    F515151   1.327   3.809   3.362  0.2406 -0.5269 -0.1999
  679PF6-    F615152   1.307   3.654   3.530 -0.1918 -0.4770 -0.0609
  679PF6-    F715153   1.099   3.826   3.355 -0.3439 -0.3978 -0.3921
  680PF6-    P115154   3.378   1.454   4.636 -0.0405 -0.6849  0.0410
  680PF6-    F215155   3.383   1.323   4.541  0.0372 -0.6219 -0.0902
  680PF6-    F315156   3.372   1.583   4.729  0.0531  0.2522  0.0476
  680PF6-    F415157   3.231   1.421   4.684  0.4889 -0.0108 -0.0035
  680PF6-    F515158   3.529   1.500   4.596  0.1058  0.2460  0.2354
  680PF6-    F615159   3.318   1.536   4.516 -0.2418 -0.1776  0.2873
  680PF6-    F715160   3.435   1.367   4.762 -0.2157  0.6594  0.5499
  681PF6-    P115161   0.978   0.484   1.048  0.0096  0.7756 -0.5678
  681PF6-    F215162   0.988   0.456   1.207  0.2356  0.6466 -0.0225
  681PF6-    F315163   0.959   0.506   0.889 -0.3834 -0.1011  0.3391
  681PF6-    F415164   0.827   0.507   1.077  0.3859  0.1904  0.2139
  681PF6-    F515165   1.131   0.455   1.025  0.4751 -0.2929 -0.3486
  681PF6-    F615166   0.949   0.324   1.018  0.4012  0.5561 -1.3016
  681PF6-    F715167   1.012   0.640   1.072  0.1519 -0.0484 -0.3660
  682PF6-    P115168   4.871   3.473   2.339  0.1144 -0.5105 -0.2973
  682PF6-    F215169   4.830   3.327   2.394 -0.2226 -0.4805  0.2299
  682PF6-    F315170   4.919   3.618   2.271 -0.0925  0.1117  0.2824
  682PF6-    F415171   5.022   3.447   2.397  0.4395  0.0202 -0.2216
  682PF6-    F515172   4.720   3.501   2.289  0.7763 -1.0551 -0.0956
  682PF6-    F615173   4.838   3.546   2.477  0.2457  0.0308  0.3185
  682PF6-    F715174   4.908   3.408   2.201  0.1800 -0.0480  0.2875
  683PF6-    P115175   2.728   1.084   2.602  0.7188 -0.0946 -0.4331
  683PF6-    F215176   2.767   0.980   2.721 -0.3014 -0.2351 -0.7096
  683PF6-    F315177   2.701   1.189   2.485  0.0939 -0.1603 -0.3659
  683PF6-    F415178   2.877   1.062   2.542  0.0894 -0.0020 -0.2420
  683PF6-    F515179   2.575   1.097   2.663  0.6075  0.0867  0.6817
  683PF6-    F615180   2.780   1.204   2.698  0.6237  0.0931  0.4246
  683PF6-    F715181   2.674   0.965   2.515 -1.1817  0.6072 -0.1986
  684PF6-    P115182   0.588   2.501   1.371  0.2637  0.1124  0.2926
  684PF6-    F215183   0.554   2.652   1.416  0.4993  0.1734  0.1244
  684PF6-    F315184   0.619   2.345   1.335  0.6447 -1.0463  0.5563
  684PF6-    F415185   0.516   2.449   1.505  0.0385 -0.0192 -0.3573
  684PF6-    F515186   0.661   2.558   1.242  0.7765  0.1679 -0.5285
  684PF6-    F615187   0.727   2.506   1.448 -0.5693 -0.0842 -0.4960
  684PF6-    F715188   0.453   2.489   1.285  0.1786  0.0274 -0.0816
  685PF6-    P115189   2.142   2.177   3.059  0.0872 -0.5536 -0.2605
  685PF6-    F215190   2.086   2.253   3.188  0.0314 -0.2729 -0.6423
  685PF6-    F315191   2.191   2.104   2.925  0.0077 -0.2619  0.3439
  685PF6-    F415192   2.265   2.272   3.051 -0.1835 -0.5030 -0.5739
  685PF6-    F515193   2.014   2.076   3.066 -0.5883  0.7185  0.2483
  685PF6-    F615194   2.049   2.283   2.972 -0.6114  0.0735  0.7647
  685PF6-    F715195   2.226   2.085   3.158  0.4079  0.2805  0.2252
  686PF6-    P115196   1.935   1.457   2.230 -0.1460  0.3356  0.0609
  686PF6-    F215197   1.785   1.519   2.229  0.2025 -0.9515 -0.1201
  686PF6-    F315198   2.081   1.388   2.234  0.8620 -0.4033  0.1271
  686PF6-    F415199   1.876   1.313   2.180  0.3647  0.0936 -0.2573
  686PF6-    F515200   2.001   1.602   2.267 -0.0495 -0.4957  0.2941
  686PF6-    F615201   1.913   1.421   2.383 -0.4379  0.3665  0.3733
  686PF6-    F715202   1.957   1.495   2.073 -0.4896  0.4041  0.2856
  687PF6-    P115203   1.748   3.590   2.080 -0.0437  0.1174 -0.3641
  687PF6-    F215204   1.868   3.495   2.045 -0.2752  0.6576 -0.2328
  687PF6-    F315205   1.627   3.690   2.124 -0.9029  0.2461  0.0955
  687PF6-    F415206   1.821   3.614   2.225 -0.4564 -0.0970 -0.0246
  687PF6-    F515207   1.684   3.563   1.941 -0.2289 -0.3677  0.5798
  687PF6-    F615208   1.669   3.457   2.132  0.0933  0.0065  0.1417
  687PF6-    F715209   1.832   3.712   2.033 -0.4761 -0.1325  0.0124
  688PF6-    P115210   2.248   0.777   4.583  0.0389  0.3248  0.0888
  688PF6-    F215211   2.363   0.877   4.631  0.3378 -0.0566  0.0025
  688PF6-    F315212   2.137   0.674   4.533 -0.0865  0.3125  0.3579
  688PF6-    F415213   2.152   0.891   4.550 -0.3786  0.3654  0.5968
  688PF6-    F515214   2.339   0.648   4.607  0.1080  0.5081 -0.4636
  688PF6-    F615215   2.195   0.771   4.736 -0.3459  0.0100  0.2042
  688PF6-    F715216   2.307   0.786   4.429 -0.3992 -0.6091 -0.0654
  689PF6-    P115217   3.922   0.399   4.372  0.0948 -0.0287 -0.2428
  689PF6-    F215218   3.790   0.353   4.448 -0.0465 -0.0387  0.5680
  689PF6-    F315219   4.056   0.448   4.296  0.2181 -0.4376 -0.5972
  689PF6-    F415220   4.004   0.299   4.470  0.1170 -0.1847  0.1862
  689PF6-    F515221   3.830   0.495   4.278  0.4451 -0.3219  0.3634
  689PF6-    F615222   3.940   0.521   4.474  0.4168  0.4101 -0.0643
  689PF6-    F715223   3.905   0.276   4.270 -0.4061 -0.0879 -0.1912
  690PF6-    P115224   4.592   2.741   1.045  0.1298 -0.9253 -0.0522
  690PF6-    F215225   4.714   2.679   1.127 -0.5558  0.4081 -0.0702
  690PF6-    F315226   4.475   2.817   0.967  0.0360  0.0330 -0.4081
  690PF6-    F415227   4.577   2.608   0.959 -0.4710  0.3332  0.4034
  690PF6-    F515228   4.600   2.874   1.136 -0.2672 -0.0812 -0.2096
  690PF6-    F615229   4.691   2.807   0.938 -0.7530 -0.1815  0.1587
  690PF6-    F715230   4.483   2.681   1.151 -0.2530  0.2827 -0.0594
  691PF6-    P115231   3.717   1.484   3.669  0.1355 -0.2074 -0.1186
  691PF6-    F215232   3.764   1.574   3.796 -0.2984  0.1031  0.7389
  691PF6-    F315233   3.673   1.387   3.543 -0.1751 -0.3576  0.2974
  691PF6-    F415234   3.765   1.359   3.743 -0.3321 -0.0361  0.3514
  691PF6-    F515235   3.670   1.616   3.593  0.4162  0.4056  0.3069
  691PF6-    F615236   3.856   1.504   3.601 -0.3516  0.0430  0.1239
  691PF6-    F715237   3.572   1.466   3.726 -0.2369 -0.2324 -0.4511
  692PF6-    P115238   1.060   0.900   2.216  0.0654 -0.2332 -0.2986
  692PF6-    F215239   1.140   0.761   2.255 -0.4081  0.4820 -0.0184
  692PF6-    F315240   0.976   1.031   2.188 -0.1140 -0.0329  0.3048
  692PF6-    F415241   1.084   0.875   2.059  0.2027  0.3823  0.2058
  692PF6-    F515242   1.037   0.924   2.370  0.1070 -0.0590 -0.1827
  692PF6-    F615243   1.191   0.987   2.229  0.1231 -0.3576 -0.2268
  692PF6-    F715244   0.924   0.812   2.211 -0.2752 -0.0406 -0.2299
  693PF6-    P115245   0.635   0.186   3.136  0.3978 -0.0049 -0.0620
  693PF6-    F215246   0.501   0.167   3.216 -0.7783 -0.0964 -0.0526
  693PF6-    F315247   0.777   0.195   3.067 -0.0034 -0.3731 -0.5029
  693PF6-    F415248   0.560   0.130   3.000 -0.0066  0.5935 -0.1235
  693PF6-    F515249   0.708   0.239   3.270  0.2276 -0.0980 -0.7928
  693PF6-    F615250   0.670   0.037   3.176 -0.0355 -0.4292  0.0033
  693PF6-    F715251   0.599   0.339   3.090 -0.0568 -0.0392  0.0568
  694PF6-    P115252   3.693   2.227   0.237 -0.2454  0.2148 -0.1361
  694PF6-    F215253   3.587   2.336   0.183 -0.1600  0.0841 -0.3170
  694PF6-    F315254   3.801   2.119   0.292 -0.4543  0.7100 -0.5837
  694PF6-    F415255   3.769   2.228   0.094 -0.3146 -0.6180  0.6076
  694PF6-    F515256   3.617   2.227   0.374 -0.5185  0.2145 -0.2449
  694PF6-    F615257   3.593   2.115   0.182 -0.4927  0.1709  0.4886
  694PF6-    F715258   3.794   2.345   0.288  0.2428  0.0570  0.0017
  695PF6-    P115259   4.237   4.457   5.484  0.3758 -0.1811  0.1823
  695PF6-    F215260   4.384   4.520   5.484 -0.0975  0.0572  0.4275
  695PF6-    F315261   4.086   4.386   5.488  0.2659 -0.5745 -0.3531
  695PF6-    F415262   4.180   4.559   5.597  0.1200  0.0430  0.0455
  695PF6-    F515263   4.284   4.351   5.367 -0.1307  0.1815  0.2078
  695PF6-    F615264   4.282   4.357   5.603 -0.0360  0.0626  0.6408
  695PF6-    F715265   4.192   4.558   5.366  0.0410 -0.6057 -0.5415
  696PF6-    P115266   3.385   1.150   2.311  0.0910  0.0716  0.3800
  696PF6-    F215267   3.329   1.292   2.264 -0.0594 -0.9038 -0.1483
  696PF6-    F315268   3.441   1.005   2.357 -0.3375 -1.0777 -0.0751
  696PF6-    F415269   3.247   1.119   2.382  0.3887 -0.3550  0.3232
  696PF6-    F515270   3.524   1.178   2.240  0.1074  0.3830  0.2302
  696PF6-    F615271   3.440   1.219   2.442 -0.0514  0.3833 -0.1633
  696PF6-    F715272   3.325   1.082   2.180 -0.4443 -0.1575  0.4397
  697PF6-    P115273   2.898   0.409   4.666  0.0100  0.6896  0.0388
  697PF6-    F215274   2.945   0.368   4.521 -0.0920  0.0331 -0.6291
  697PF6-    F315275   2.863   0.453   4.817  0.1078  0.0400  0.1299
  697PF6-    F415276   2.987   0.536   4.642 -0.0900  0.1755 -0.0250
  697PF6-    F515277   2.814   0.275   4.681 -0.1662  0.1127 -0.0756
  697PF6-    F615278   3.023   0.326   4.718 -0.1028  0.2375  0.1343
  697PF6-    F715279   2.771   0.482   4.604 -0.6385  0.5235 -0.6740
  698PF6-    P115280   4.394   3.689   3.059  0.5992 -0.1634 -0.1964
  698PF6-    F215281   4.392   3.773   3.196  0.2448  0.6731 -0.1933
  698PF6-    F315282   4.401   3.608   2.921  0.0284 -0.1030 -0.6506
  698PF6-    F415283   4.468   3.815   2.987  0.3724 -0.0278  0.6052
  698PF6-    F515284   4.318   3.566   3.134  0.7044 -0.1641 -0.5123
  698PF6-    F615285   4.259   3.746   3.008 -0.1766  0.4546  0.2983
  698PF6-    F715286   4.539   3.630   3.094 -0.3051 -0.4751  0.4632
  699PF6-    P115287   3.303   4.249   4.580  0.2074 -0.1156 -0.0998
  699PF6-    F215288   3.267   4.400   4.620 -0.2376  0.0889 -0.5066
  699PF6-    F315289   3.333   4.094   4.546  0.0183 -0.4200  0.1988
  699PF6-    F415290   3.414   4.300   4.481  0.2592 -0.7724 -0.2325
  699PF6-    F515291   3.181   4.197   4.680  0.2926  0.2595 -0.2804
  699PF6-    F615292   3.200   4.253   4.454 -0.2845  0.4585 -0.1350
  699PF6-    F715293   3.408   4.249   4.695  0.1375 -0.1951 -0.0787
  700PF6-    P115294   1.093   3.445   0.671  0.0679  0.0059 -0.1034
  700PF6-    F215295   1.223   3.459   0.589  0.0049  0.1108 -0.8354
  700PF6-    F315296   0.957   3.445   0.756 -0.3990  0.3495  0.1882
  700PF6-    F415297   1.056   3.299   0.610  0.6567 -0.8995 -0.7032
  700PF6-    F515298   1.129   3.585   0.734  0.1593  0.7173  0.1694
  700PF6-    F615299   1.019   3.520   0.546 -0.3415  0.6691 -0.0883
  700PF6-    F715300   1.172   3.368   0.790  0.1850 -0.3607  0.0781
  701PF6-    P115301   0.763   4.150   5.157 -0.3139 -0.4176 -0.1085
  701PF6-    F215302   0.891   4.188   5.079  0.0200 -1.0151 -0.2605
  701PF6-    F315303   0.637   4.120   5.243 -0.4928  0.7419  0.7450
  701PF6-    F415304   0.809   3.997   5.174 -0.4141  0.2457 -0.4539
  701PF6-    F515305   0.714   4.304   5.135  0.2999 -0.1792  0.4285
  701PF6-    F615306   0.697   4.108   5.018  0.0634  0.5357 -0.0326
  701PF6-    F715307   0.833   4.202   5.289  0.0983 -0.1114  0.2028
  702PF6-    P115308   3.713   2.683   1.129 -0.1494  0.6488  0.1805
  702PF6-    F215309   3.738   2.824   1.205  0.0412  0.3424  0.0139
  702PF6-    F315310   3.697   2.546   1.052  0.1471  0.2268  0.1163
  702PF6-    F415311   3.871   2.679   1.100 -0.6313  0.0975  0.1562
  702PF6-    F515312   3.558   2.689   1.161 -0.2306  0.1845  0.0615
  702PF6-    F615313   3.687   2.761   0.990  0.2690 -0.0929  0.0326
  702PF6-    F715314   3.740   2.603   1.263  0.7837  0.2226  0.2836
  703PF6-    P115315   3.117   2.214   3.587  0.2745  0.0361 -0.0520
  703PF6-    F215316   3.059   2.075   3.532 -0.2396 -0.1691 -0.3616
  703PF6-    F315317   3.170   2.359   3.635  0.4429  0.2865  0.0186
  703PF6-    F415318   2.988   2.277   3.517 -0.2022 -0.4230 -0.3742
  703PF6-    F515319   3.248   2.143   3.651 -0.2395 -0.1806  0.5804
  703PF6-    F615320   3.192   2.236   3.444  0.2981  0.3340  0.1677
  703PF6-    F715321   3.038   2.190   3.723  0.4132  0.3475 -0.2679
  704PF6-    P115322   0.633   0.947   4.851 -0.0002 -0.3735  0.3100
  704PF6-    F215323   0.673   0.944   4.691 -0.2259  0.2052  0.0966
  704PF6-    F315324   0.588   0.953   5.006 -0.1597 -0.5704  0.1156
  704PF6-    F415325   0.672   1.107   4.854  0.3189  0.2446  0.0042
  704PF6-    F515326   0.599   0.792   4.854 -0.1246 -0.0965  0.5366
  704PF6-    F615327   0.777   0.904   4.896  0.0016 -0.0361 -0.0152
  704PF6-    F715328   0.471   0.980   4.813 -0.4631 -0.4656 -0.2344
  705PF6-    P115329   0.957   3.284   1.574 -0.1920  0.2098  0.3861
  705PF6-    F215330   1.070   3.304   1.686  0.3157  0.2521  0.2831
  705PF6-    F315331   0.850   3.262   1.462  0.1868  0.0531  0.1670
  705PF6-    F415332   0.986   3.435   1.516 -0.6367 -0.1880  0.3004
  705PF6-    F515333   0.929   3.134   1.631 -0.1619 -0.0376  0.6273
  705PF6-    F615334   0.847   3.347   1.675 -0.1727 -0.3371  0.2328
  705PF6-    F715335   1.072   3.223   1.477 -0.6623  0.1165 -0.1613
  706PF6-    P115336   2.426   4.519   3.895 -0.0625 -0.0844  0.0182
  706PF6-    F215337   2.579   4.467   3.860  0.0858 -0.4861 -0.1482
  706PF6-    F315338   2.284   4.573   3.932 -0.3338  0.4476 -0.5016
  706PF6-    F415339   2.481   4.672   3.926 -0.1929  0.3204 -0.2930
  706PF6-    F515340   2.369   4.372   3.868  0.3247  0.3304  0.3559
  706PF6-    F615341   2.448   4.474   4.049 -0.2447 -0.3900  0.0393
  706PF6-    F715342   2.420   4.559   3.740 -0.3905 -0.0531  0.2496
  707PF6-    P115343   0.692   0.217   3.960  0.4354 -0.3077 -0.0736
  707PF6-    F215344   0.559   0.304   3.966  0.3532  0.3361  0.1257
  707PF6-    F315345   0.828   0.138   3.958 -0.1729  0.2954  0.5075
  707PF6-    F415346   0.623   0.118   3.852  0.4190 -0.2065  0.8530
  707PF6-    F515347   0.757   0.326   4.063  0.3908 -0.0430 -0.3028
  707PF6-    F615348   0.650   0.130   4.087  0.0427  0.3792 -0.3861
  707PF6-    F715349   0.744   0.307   3.835 -0.1505  0.4749  0.3361
  708PF6-    P115350   1.155   3.602   4.325 -0.0164  0.1106  0.0710
  708PF6-    F215351   1.114   3.584   4.479 -0.0372  1.1321 -0.6736
  708PF6-    F315352   1.197   3.616   4.170  0.3125 -0.3220 -0.4717
  708PF6-    F415353   1.219   3.746   4.360  0.5984 -0.2715 -0.1679
  708PF6-    F515354   1.095   3.460   4.300 -0.6442 -0.5434  0.1601
  708PF6-    F615355   1.015   3.671   4.290 -0.0898 -0.1451 -0.3751
  708PF6-    F715356   1.294   3.527   4.361 -0.4940 -0.3056  0.1711
  709PF6-    P115357   4.249   3.244   0.002 -0.2247 -0.0298  0.4243
  709PF6-    F215358   4.336   3.358   0.072 -0.3204  0.3173 -0.2916
  709PF6-    F315359   4.157   3.131  -0.071 -0.3607 -0.8125  0.3555
  709PF6-    F415360   4.360   3.136   0.045  0.5001  0.0330 -0.0948
  709PF6-    F515361   4.139   3.353  -0.034  0.2724  0.1204  0.3360
  709PF6-    F615362   4.334   3.265  -0.130 -0.3339  0.5529  0.1829
  709PF6-    F715363   4.182   3.213   0.140  0.2956 -0.1500 -0.5308
  710PF6-    P115364   0.580   1.071   2.756 -0.1113 -0.0101  0.0995
  710PF6-    F215365   0.544   1.003   2.893 -0.5906 -0.1414 -0.0133
  710PF6-    F315366   0.623   1.150   2.622  0.4027  0.1035 -0.1604
  710PF6-    F415367   0.718   1.126   2.826 -0.3172 -0.0566 -0.1309
  710PF6-    F515368   0.440   1.011   2.695 -0.4116  0.0132  0.2739
  710PF6-    F615369   0.501   1.203   2.798  0.4828  0.5696  0.2389
  710PF6-    F715370   0.662   0.939   2.709 -0.0740  0.1195 -0.6660
  711PF6-    P115371   5.278   2.943   0.590 -0.2439 -0.2720  0.2491
  711PF6-    F215372   5.414   2.927   0.674 -0.1652 -0.1653  0.3166
  711PF6-    F315373   5.145   2.959   0.506  0.5011  0.0352  0.0907
  711PF6-    F415374   5.276   2.791   0.561  0.5396  0.6066 -0.1534
  711PF6-    F515375   5.277   3.102   0.609  0.2056 -0.0186  1.1140
  711PF6-    F615376   5.364   2.959   0.451  0.1046  0.2227  0.0387
  711PF6-    F715377   5.193   2.918   0.724  0.4245 -0.2257 -0.5053
  712PF6-    P115378   1.349   4.309   2.715 -0.1091 -0.4625  0.1973
  712PF6-    F215379   1.412   4.371   2.578 -0.4989  0.0765 -0.2817
  712PF6-    F315380   1.297   4.259   2.851  0.0919  0.1242 -0.3175
  712PF6-    F415381   1.338   4.460   2.771 -0.4036  0.1609  0.1302
  712PF6-    F515382   1.352   4.161   2.651  0.5085  0.1186  0.0427
  712PF6-    F615383   1.498   4.298   2.773 -0.4198  0.0843  0.0285
  712PF6-    F715384   1.203   4.320   2.652  0.1587 -0.4634  0.0070
  713PF6-    P115385   2.188   5.355   1.748  0.0803 -0.5963  0.1379
  713PF6-    F215386   2.087   5.391   1.632 -0.1585  0.3979 -0.2630
  713PF6-    F315387   2.292   5.318   1.867 -0.0392  0.0224  0.5727
  713PF6-    F415388   2.079   5.375   1.858  0.3934  0.0988  0.2428
  713PF6-    F515389   2.297   5.333   1.634 -0.1275 -0.8104 -0.0752
  713PF6-    F615390   2.235   5.505   1.762 -0.1484 -0.1346 -0.0142
  713PF6-    F715391   2.137   5.199   1.736  0.2554 -0.3568  0.1996
  714PF6-    P115392   4.817   2.629   1.941  0.0408  0.4984  0.1469
  714PF6-    F215393   4.670   2.629   1.999  0.2387  0.5746 -0.4234
  714PF6-    F315394   4.964   2.623   1.891  0.3817  0.2693  0.1998
  714PF6-    F415395   4.770   2.526   1.822  0.3621 -0.2853 -0.1710
  714PF6-    F515396   4.853   2.724   2.065 -0.4923 -0.1577 -0.3150
  714PF6-    F615397   4.851   2.498   2.035 -0.5616 -0.0659  0.1006
  714PF6-    F715398   4.792   2.760   1.853  0.2156 -0.7029 -0.0302
  715PF6-    P115399   3.354   2.565   4.370  0.0093 -0.2964  0.2979
  715PF6-    F215400   3.361   2.446   4.259 -0.4400  0.5315 -0.2389
  715PF6-    F315401   3.334   2.681   4.477 -0.1225 -0.0468 -0.3692
  715PF6-    F415402   3.451   2.648   4.278  0.0154 -0.2879  0.4946
  715PF6-    F515403   3.254   2.478   4.454 -0.5061 -0.0388 -0.8804
  715PF6-    F615404   3.480   2.506   4.459  0.1882 -0.1032  0.3556
  715PF6-    F715405   3.235   2.630   4.291  0.1349  0.0411  0.2846
  716PF6-    P115406   1.092   1.854   1.131  0.1280  0.0430 -0.3970
  716PF6-    F215407   1.183   1.972   1.187 -0.3819  0.0124  0.4670
  716PF6-    F315408   0.998   1.733   1.079  0.0869  0.1033 -0.1520
  716PF6-    F415409   0.963   1.916   1.208  0.2044  0.4408  0.3410
  716PF6-    F515410   1.216   1.783   1.058 -0.0376  0.1900  0.7229
  716PF6-    F615411   1.126   1.767   1.266 -0.0947 -0.1618 -0.3327
  716PF6-    F715412   1.047   1.941   1.000  0.0513 -0.3089  0.1110
  717PF6-    P115413   3.439   5.166   5.412  0.2481  0.5012 -0.7149
  717PF6-    F215414   3.302   5.230   5.464 -0.0105 -0.1211  0.1405
  717PF6-    F315415   3.573   5.104   5.359 -0.2532 -0.0604 -0.8412
  717PF6-    F415416   3.369   5.023   5.397 -0.1243  0.3391 -0.0805
  717PF6-    F515417   3.516   5.306   5.418  0.0315 -0.4377  0.3521
  717PF6-    F615418   3.485   5.140   5.569  0.0823 -0.1934  0.1230
  717PF6-    F715419   3.390   5.195   5.259 -0.2788  0.4440  0.1843
  718PF6-    P115420   0.422   5.289   2.401 -0.1832  0.2255 -0.1348
  718PF6-    F215421   0.498   5.429   2.366  0.1717 -0.3806 -0.3898
  718PF6-    F315422   0.349   5.152   2.431  0.0003  0.0466  0.2710
  718PF6-    F415423   0.563   5.220   2.406 -0.3813 -0.0632  0.1929
  718PF6-    F515424   0.284   5.359   2.396  0.3196  0.3623  0.4272
  718PF6-    F615425   0.414   5.258   2.243  0.2395  0.1811 -0.0852
  718PF6-    F715426   0.433   5.322   2.562  0.2157 -0.1924 -0.3720
  719PF6-    P115427   0.627   2.211   2.477  0.0712 -0.4166 -0.5727
  719PF6-    F215428   0.700   2.067   2.489  0.5860  0.1903 -0.2018
  719PF6-    F315429   0.560   2.355   2.461  0.3026  0.4981  0.1123
  719PF6-    F415430   0.495   2.159   2.551  0.6112  0.1123 -0.2354
  719PF6-    F515431   0.754   2.263   2.390 -0.1454 -0.5263  0.3048
  719PF6-    F615432   0.562   2.168   2.338  0.3054  1.0818 -0.0828
  719PF6-    F715433   0.697   2.257   2.615  0.1806 -0.2305  0.3533
  720PF6-    P115434   1.919   1.914   5.440 -0.2711 -0.0077  0.0531
  720PF6-    F215435   1.819   1.953   5.549  0.2092 -0.0041  0.0969
  720PF6-    F315436   2.030   1.877   5.327  0.0083 -0.1010 -0.5472
  720PF6-    F415437   1.807   1.876   5.328  0.0466  0.1777 -0.0801
  720PF6-    F515438   2.036   1.955   5.542 -0.1985 -0.1948  0.3428
  720PF6-    F615439   1.917   1.766   5.501 -0.0019  0.0096 -0.2194
  720PF6-    F715440   1.920   2.061   5.384 -0.1857 -0.4552  0.6222
  721PF6-    P115441   5.450   4.392   4.864  0.4277  0.2118  0.7111
  721PF6-    F215442   5.540   4.346   4.741 -0.2136 -0.4670  0.4782
  721PF6-    F315443   5.351   4.442   4.983 -0.2678 -0.1540 -0.1244
  721PF6-    F415444   5.474   4.255   4.937  0.0061 -0.0237  0.2958
  721PF6-    F515445   5.432   4.537   4.788  0.0329 -0.3713  0.2257
  721PF6-    F615446   5.321   4.329   4.791 -0.6664 -0.1542  0.0870
  721PF6-    F715447   5.575   4.453   4.930 -0.2532  0.5016 -0.1987
  722PF6-    P115448   0.223   4.120   3.458  0.5557  0.0992 -0.5476
  722PF6-    F215449   0.078   4.072   3.418 -0.2197 -0.0688 -0.3718
  722PF6-    F315450   0.374   4.168   3.492  0.2692  0.1634  0.2934
  722PF6-    F415451   0.227   3.999   3.567 -0.1521  0.5896 -0.4133
  722PF6-    F515452   0.220   4.241   3.350  0.2691  0.2783 -0.2536
  722PF6-    F615453   0.165   4.219   3.571 -0.1635 -0.1472 -0.3009
  722PF6-    F715454   0.286   4.023   3.353  0.0103 -0.2264 -0.5311
  723PF6-    P115455   0.975   2.458   3.581  0.4829  0.1151 -0.2542
  723PF6-    F215456   0.994   2.344   3.689 -0.0232 -0.3083  0.2108
  723PF6-    F315457   0.964   2.577   3.475 -0.2906  0.2458  0.3085
  723PF6-    F415458   1.118   2.415   3.518 -0.0128  0.0827  0.2962
  723PF6-    F515459   0.838   2.505   3.647 -0.3481  0.4505  0.0360
  723PF6-    F615460   1.064   2.558   3.674  0.2972 -0.3562  0.5514
  723PF6-    F715461   0.894   2.365   3.478  0.1647  0.4497  0.4716
  724PF6-    P115462   2.869   4.996   2.567 -0.4935 -0.1927  0.3587
  724PF6-    F215463   2.747   4.993   2.457  0.1541 -0.5371  0.3744
  724PF6-    F315464   2.989   4.999   2.676 -0.4364 -0.2578  0.4841
  724PF6-    F415465   2.890   4.842   2.547  0.0051  0.6667 -0.1603
  724PF6-    F515466   2.855   5.157   2.584 -0.1037 -0.5215 -0.1352
  724PF6-    F615467   2.765   4.968   2.682  0.0725  0.1040  0.4245
  724PF6-    F715468   2.979   5.013   2.449  0.3049  0.0733 -0.1618
  725PF6-    P115469   1.819   2.895   1.123 -0.8729 -0.2327 -0.1111
  725PF6-    F215470   1.972   2.952   1.112  0.1711  0.1168  0.1276
  725PF6-    F315471   1.670   2.843   1.137  0.1076  0.4383  0.0930
  725PF6-    F415472   1.833   2.899   1.284 -0.2054  0.9870 -0.3157
  725PF6-    F515473   1.804   2.895   0.966 -0.3441  0.0306  0.5960
  725PF6-    F615474   1.877   2.741   1.111 -0.2275  0.0491 -0.2792
  725PF6-    F715475   1.768   3.045   1.128  0.0867  0.3901  0.2253
  726PF6-    P115476   2.493   5.238   3.540  0.0724  0.2408 -0.2861
  726PF6-    F215477   2.432   5.182   3.399 -0.1086  0.8136 -0.2113
  726PF6-    F315478   2.558   5.289   3.679  0.1603 -0.5141 -0.3672
  726PF6-    F415479   2.479   5.088   3.599 -0.2779  0.0361  0.4095
  726PF6-    F515480   2.513   5.386   3.487 -0.0104 -0.2606 -0.0823
  726PF6-    F615481   2.348   5.281   3.587  0.2378  0.2949  0.5240
  726PF6-    F715482   2.641   5.209   3.487 -0.1383  0.0455 -0.0765
  727PF6-    P115483   3.298   1.538   0.857 -0.1887 -0.3828  0.2215
  727PF6-    F215484   3.341   1.677   0.799  0.0544 -0.2793  0.2953
  727PF6-    F315485   3.260   1.391   0.908 -0.2223  0.6383 -0.4304
  727PF6-    F415486   3.148   1.592   0.898  1.0509 -0.4685 -0.4053
  727PF6-    F515487   3.444   1.486   0.822 -0.0697  0.5304 -0.5175
  727PF6-    F615488   3.360   1.573   1.008  0.1805  0.0821 -0.3031
  727PF6-    F715489   3.252   1.501   0.702 -0.2853 -0.0191  0.6783
  728PF6-    P115490   3.841   5.241   2.395 -0.2562  0.5588 -0.2541
  728PF6-    F215491   3.785   5.239   2.245 -0.5639 -0.2054 -0.3774
  728PF6-    F315492   3.899   5.243   2.546 -0.4821 -0.0933 -0.2951
  728PF6-    F415493   3.824   5.081   2.401  0.3497  0.0149  0.2903
  728PF6-    F515494   3.873   5.396   2.379  0.8181  0.4810 -0.2324
  728PF6-    F615495   3.696   5.267   2.454 -0.4987  0.2904  0.9563
  728PF6-    F715496   3.989   5.209   2.331 -0.0423  0.4926 -0.0111
  729PF6-    P115497   4.190   0.606   1.797 -0.1459  0.2682  0.1112
  729PF6-    F215498   4.059   0.582   1.709 -0.1195  0.1597 -0.4344
  729PF6-    F315499   4.325   0.614   1.882 -0.5680 -0.1897  0.5869
  729PF6-    F415500   4.151   0.759   1.815  0.3124  0.1408 -0.7037
  729PF6-    F515501   4.225   0.452   1.774 -0.3801  0.7618  0.2916
  729PF6-    F615502   4.270   0.634   1.661  0.0960 -0.0913 -0.2103
  729PF6-    F715503   4.105   0.559   1.927 -0.2882 -0.0115  0.2065
  730PF6-    P115504   1.030   1.896   0.228 -0.2127 -0.2270  0.2877
  730PF6-    F215505   0.900   1.881   0.134 -0.1449  0.5126  0.0078
  730PF6-    F315506   1.155   1.914   0.333 -0.4253  0.1725  0.0556
  730PF6-    F415507   0.990   1.751   0.285  0.0861 -0.1946 -0.5411
  730PF6-    F515508   1.063   2.041   0.167  0.0554 -0.1171 -0.7336
  730PF6-    F615509   0.941   1.963   0.343  0.0189 -0.4296  0.2744
  730PF6-    F715510   1.115   1.828   0.115  0.1131  0.5513 -0.1994
  731PF6-    P115511   2.596   3.279   4.371 -0.0767  0.1808  0.3070
  731PF6-    F215512   2.446   3.243   4.412  0.0706  0.0594 -0.1424
  731PF6-    F315513   2.750   3.311   4.332 -0.5974  0.2129 -0.2329
  731PF6-    F415514   2.634   3.282   4.525 -0.1174 -0.1767  0.3919
  731PF6-    F515515   2.553   3.265   4.214  0.3301 -0.1077  0.2940
  731PF6-    F615516   2.566   3.434   4.375  0.1677 -0.7016  0.0615
  731PF6-    F715517   2.634   3.119   4.366  0.4173 -0.5437  0.4912
  732PF6-    P115518   1.857   2.932   0.308  0.2278 -0.2494  0.1445
  732PF6-    F215519   1.952   2.918   0.182  0.2918  0.1081  0.0599
  732PF6-    F315520   1.757   2.951   0.429 -0.2462 -0.3691 -0.1574
  732PF6-    F415521   1.751   3.013   0.217  0.2294 -0.0670  0.2685
  732PF6-    F515522   1.967   2.861   0.397 -0.0492 -0.5451 -0.1628
  732PF6-    F615523   1.921   3.077   0.345 -0.7491  0.5694  0.0834
  732PF6-    F715524   1.783   2.801   0.284 -0.4031 -0.3594  1.0526
  733PF6-    P115525   3.058   4.199   0.814  0.3010  0.1501  0.2629
  733PF6-    F215526   3.124   4.177   0.962 -0.1214 -0.0198  0.5779
  733PF6-    F315527   3.000   4.234   0.669 -0.0854 -0.3957  0.1501
  733PF6-    F415528   2.981   4.056   0.820 -0.2404  0.3749  0.5555
  733PF6-    F515529   3.147   4.338   0.810 -0.4368  0.1035  0.0935
  733PF6-    F615530   3.185   4.116   0.743  0.1407  0.0601 -0.2591
  733PF6-    F715531   2.930   4.272   0.883 -0.1726 -0.4436  0.2425
  734PF6-    P115532   2.583   2.538   4.837  0.0619 -0.0866  0.5460
  734PF6-    F215533   2.710   2.571   4.931  0.0820  0.1418  0.0998
  734PF6-    F315534   2.467   2.494   4.737 -0.0063 -0.2109 -0.1824
  734PF6-    F415535   2.487   2.607   4.945 -1.0657  0.4018  0.3798
  734PF6-    F515536   2.694   2.476   4.733  0.1377 -0.0831  0.5871
  734PF6-    F615537   2.579   2.396   4.914 -0.1005  0.3147 -0.0449
  734PF6-    F715538   2.594   2.680   4.767  0.1504 -0.2079  0.0023
  735PF6-    P115539   4.581   5.269   4.840  0.0536 -0.5040 -0.5579
  735PF6-    F215540   4.642   5.136   4.891 -0.5254  0.2665 -0.1966
  735PF6-    F315541   4.508   5.406   4.781  0.3985 -0.0208  0.1502
  735PF6-    F415542   4.434   5.211   4.884  0.2343 -0.3340  0.0533
  735PF6-    F515543   4.726   5.320   4.796 -0.7394  0.9683 -0.2629
  735PF6-    F615544   4.563   5.207   4.694 -0.0827  0.2816 -0.1323
  735PF6-    F715545   4.603   5.332   4.985 -0.8080 -0.0436 -0.1909
  736PF6-    P115546   1.977   3.863   0.305 -0.0810 -0.2824 -0.4337
  736PF6-    F215547   2.090   3.821   0.208 -0.0631  0.2675 -0.1564
  736PF6-    F315548   1.850   3.912   0.395 -0.0723  0.2440 -0.3151
  736PF6-    F415549   1.972   4.008   0.237 -0.4392 -0.3024  0.3211
  736PF6-    F515550   1.971   3.720   0.369 -0.0952  0.2885  0.4007
  736PF6-    F615551   2.084   3.910   0.418  0.5642  0.2728  0.2872
  736PF6-    F715552   1.877   3.806   0.193 -0.4577  0.8998 -0.1735
  737PF6-    P115553   4.689   4.943   2.725 -0.5563 -0.0721 -0.3541
  737PF6-    F215554   4.547   4.881   2.758 -1.0889 -0.4563 -0.0323
  737PF6-    F315555   4.833   5.009   2.692  0.4176 -0.0850 -0.2104
  737PF6-    F415556   4.623   5.084   2.720  0.6329 -0.4735  0.0258
  737PF6-    F515557   4.755   4.789   2.739 -0.3592 -0.2245 -0.1910
  737PF6-    F615558   4.654   4.928   2.567 -0.2861 -0.2537  0.2040
  737PF6-    F715559   4.718   4.962   2.876 -0.4235  0.1423  0.3799
  738PF6-    P115560   2.243   3.818   4.982 -0.2528  0.1252 -0.3308
  738PF6-    F215561   2.187   3.854   4.843  0.2893 -0.5243 -0.2378
  738PF6-    F315562   2.297   3.783   5.125 -0.0146  0.0277  0.0636
  738PF6-    F415563   2.389   3.815   4.931 -0.1254 -0.3544  0.7964
  738PF6-    F515564   2.090   3.817   5.044  0.3719 -0.4856  0.3934
  738PF6-    F615565   2.228   3.663   4.954  0.4315 -0.2057 -0.0257
  738PF6-    F715566   2.255   3.974   5.013  0.1062 -0.7091 -0.1775
  739PF6-    P115567   0.106   1.711   1.711  0.1677 -0.1169 -0.2517
  739PF6-    F215568   0.261   1.688   1.669 -0.1977  0.5958 -0.1654
  739PF6-    F315569  -0.043   1.736   1.744 -0.5842 -0.4771  0.3391
  739PF6-    F415570   0.061   1.677   1.562  0.1192  0.2782 -0.3714
  739PF6-    F515571   0.153   1.745   1.862 -0.2640 -0.2056  0.2818
  739PF6-    F615572   0.115   1.869   1.673 -0.2231  0.2780 -0.1539
  739PF6-    F715573   0.087   1.558   1.750 -0.4670  0.2942  0.2507
  740PF6-    P115574   3.760   3.750   4.064  0.0739 -0.0912  0.2133
  740PF6-    F215575   3.664   3.776   4.192  0.0635 -0.3360 -0.2608
  740PF6-    F315576   3.851   3.731   3.931  0.2103 -0.0595  0.1984
  740PF6-    F415577   3.709   3.595   4.050  1.0833  0.7285 -0.1129
  740PF6-    F515578   3.815   3.900   4.081  0.4131  0.4010 -0.2667
  740PF6-    F615579   3.883   3.697   4.153 -0.2792 -0.0050  0.8594
  740PF6-    F715580   3.639   3.809   3.968  0.8101 -0.1601 -0.4407
  741PF6-    P115581   4.906   0.669   2.632 -0.3582  0.3355  0.0738
  741PF6-    F215582   5.065   0.639   2.603 -0.2368 -0.0771 -0.0402
  741PF6-    F315583   4.751   0.694   2.661  0.4497 -0.2569 -0.2734
  741PF6-    F415584   4.864   0.588   2.506  0.1764  0.1547  0.3689
  741PF6-    F515585   4.944   0.760   2.765  0.1584  0.0331 -0.1452
  741PF6-    F615586   4.918   0.798   2.534  0.1372 -0.3884  0.0590
  741PF6-    F715587   4.898   0.541   2.722 -0.3562 -0.5590 -0.0185
  742PF6-    P115588   3.349   0.654   5.331 -0.0804 -0.1063 -0.4038
  742PF6-    F215589   3.318   0.804   5.292  0.1058 -0.0141 -0.5313
  742PF6-    F315590   3.387   0.506   5.367  0.3153  0.5715 -0.3190
  742PF6-    F415591   3.436   0.708   5.454  0.3631  0.7693 -0.0467
  742PF6-    F515592   3.259   0.605   5.214  0.2532  0.1961 -0.2777
  742PF6-    F615593   3.478   0.663   5.238 -0.0878  0.2310 -0.6264
  742PF6-    F715594   3.224   0.646   5.428 -0.0241  0.3216  0.0589
  743PF6-    P115595   2.980   3.464   3.275  0.5475  0.5358 -0.3388
  743PF6-    F215596   3.024   3.523   3.417 -1.1327  0.4280 -0.2053
  743PF6-    F315597   2.934   3.402   3.135 -0.4487 -0.0633 -0.0040
  743PF6-    F415598   2.885   3.349   3.349 -0.0130 -0.5214 -0.9777
  743PF6-    F515599   3.068   3.579   3.202  0.0462 -0.1832  0.0263
  743PF6-    F615600   3.105   3.364   3.271 -0.0443  0.4530  0.2514
  743PF6-    F715601   2.852   3.565   3.267  0.0770 -0.1482  0.1120
  744PF6-    P115602   1.519   2.938   4.760  0.3898 -0.0779  0.3464
  744PF6-    F215603   1.374   2.896   4.826 -0.0031  0.6267 -0.0646
  744PF6-    F315604   1.658   2.981   4.700  0.6872  0.3567  0.6520
  744PF6-    F415605   1.458   2.931   4.615  0.3506  0.0342  0.2252
  744PF6-    F515606   1.588   2.941   4.907 -0.6831 -0.3170 -0.7241
  744PF6-    F615607   1.555   2.788   4.755  0.0252 -0.3647 -0.7065
  744PF6-    F715608   1.483   3.092   4.778  0.2052 -0.2043  0.0847
  745PF6-    P115609   4.834   1.492   2.390 -0.0071 -0.2215  0.1856
  745PF6-    F215610   4.909   1.463   2.530 -0.0634 -0.1030 -0.1185
  745PF6-    F315611   4.760   1.518   2.248 -0.0861 -0.1728  0.1758
  745PF6-    F415612   4.700   1.501   2.478 -0.2411 -0.2077  0.4199
  745PF6-    F515613   4.977   1.489   2.316 -0.1619  0.3879 -0.0556
  745PF6-    F615614   4.811   1.333   2.364  0.4863  0.1719  0.1025
  745PF6-    F715615   4.844   1.652   2.413  0.1572 -0.1807  0.2876
  746PF6-    P115616   1.455   2.470   2.275 -0.3614  0.3201  0.1899
  746PF6-    F215617   1.428   2.416   2.122 -0.0139  0.1046 -0.7442
  746PF6-    F315618   1.482   2.529   2.423 -0.1498 -0.4262 -0.1103
  746PF6-    F415619   1.389   2.620   2.233 -0.4590 -0.2123  0.0806
  746PF6-    F515620   1.510   2.329   2.324  0.0648  0.0070  0.6677
  746PF6-    F615621   1.604   2.513   2.234 -0.6122  0.4796  0.0724
  746PF6-    F715622   1.310   2.421   2.321 -0.2601  0.4903  0.3426
  747PF6-    P115623   1.627   5.291   4.641  0.6136  0.1869 -0.2855
  747PF6-    F215624   1.534   5.176   4.585 -0.2881 -0.2642  0.5116
  747PF6-    F315625   1.723   5.402   4.703 -0.1482 -0.2011  0.6023
  747PF6-    F415626   1.600   5.385   4.519 -0.1929  0.2537  0.4625
  747PF6-    F515627   1.664   5.195   4.770 -0.1977  0.2366  0.1993
  747PF6-    F615628   1.753   5.224   4.565  0.0530  0.1334 -0.3466
  747PF6-    F715629   1.496   5.361   4.718 -0.1897 -0.5135  0.2280
  748PF6-    P115630   1.912   1.504   0.989  0.1056  0.1660 -0.6392
  748PF6-    F215631   1.935   1.633   0.897  0.2899 -0.4051 -0.0074
  748PF6-    F315632   1.897   1.374   1.087 -0.7923  0.0244  0.1032
  748PF6-    F415633   1.948   1.404   0.865 -0.0427  0.3854 -0.3605
  748PF6-    F515634   1.880   1.596   1.115 -0.2506  0.3131  0.2841
  748PF6-    F615635   1.757   1.503   0.949  0.6278 -0.2223 -0.2267
  748PF6-    F715636   2.072   1.517   1.021  0.2830  0.0036 -0.0451
  749PF6-    P115637   0.684   5.107   5.049 -0.5664 -0.3898  0.0150
  749PF6-    F215638   0.579   4.991   5.078  0.1687  0.9578  0.3189
  749PF6-    F315639   0.793   5.224   5.034  0.5848 -0.1793  0.0918
  749PF6-    F415640   0.726   5.048   4.906 -0.4099 -0.6307  0.6265
  749PF6-    F515641   0.638   5.169   5.191 -0.7085 -0.0191  0.2511
  749PF6-    F615642   0.799   5.013   5.119  0.0248 -0.0883 -0.5377
  749PF6-    F715643   0.573   5.192   4.981  0.1304  0.0043 -0.0566
  750PF6-    P115644   4.842   0.752   3.325 -0.1890  0.0883 -0.4372
  750PF6-    F215645   4.934   0.740   3.448 -1.0333 -0.1031 -0.3213
  750PF6-    F315646   4.752   0.763   3.207  0.0301 -0.0779  0.2088
  750PF6-    F415647   4.955   0.828   3.244  0.1437 -0.1361  0.5789
  750PF6-    F515648   4.728   0.679   3.403 -0.5586 -0.0424 -0.4922
  750PF6-    F615649   4.784   0.896   3.384  0.3687  0.7426  0.5483
  750PF6-    F715650   4.906   0.620   3.272  0.0049  0.4328 -0.2096
  751Na+     N115651   0.593   4.022   4.673  0.1705  0.3954 -0.0257
  752Na+     N115652   0.602   1.974   0.696 -0.2794  0.1522  0.3126
  753Na+     N115653   0.718   0.414   4.777  0.1571 -0.5460  0.0834
  754Na+     N115654   2.095   2.282   3.455 -0.1657 -0.6082  0.0729
  755Na+     N115655   5.331   4.922   1.421 -0.1555 -0.0441  0.1005
  756Na+     N115656   4.277   4.860   4.363 -0.5975  0.4555 -0.1567
  757Na+     N115657   3.064   2.881   0.913 -0.2251  0.1244 -0.1944
  758Na+     N115658   3.419   1.340   1.588  0.0302  0.2048  0.2946
  759Na+     N115659   2.972   1.551   2.378  0.3645 -0.0390 -0.3104
  760Na+     N115660   3.548   0.713   5.016 -0.2215  0.1484 -0.7030
  761Na+     N115661   2.825   2.496   2.920 -0.0578 -0.3977  0.1103
  762Na+     N115662   0.764   2.706   2.015  0.0604  0.0519 -0.2513
  763Na+     N115663   2.660   0.889   5.160 -0.0107 -0.2135  0.5112
  764Na+     N115664   4.694   2.327   0.466 -0.4769  0.2161 -0.1002
  765Na+     N115665   3.021   0.591   0.497 -0.1240 -0.0579  0.4837
  766Na+     N115666   2.873   3.224   4.958 -0.4277 -0.3013  0.2014
  767Na+     N115667   4.136   2.824   1.698  0.0519 -0.5264 -0.6025
  768Na+     N115668   1.031   5.305   1.972 -0.0998  0.2877  0.0542
  769Na+     N115669   2.670   4.035   4.449 -0.1545  0.3587  0.4462
  770Na+     N115670   0.750   3.308   0.842 -0.0036 -0.1106  0.2740
  771Na+     N115671   0.463   0.434   1.581 -0.2770  0.2919 -0.3935
  772Na+     N115672   1.807   3.422   5.229  0.2497  0.1871 -0.2565
  773Na+     N115673   1.262   3.914   0.004  0.2452  0.2698 -0.0635
  774Na+     N115674   5.436   1.223   2.673 -0.0336 -0.4041  0.0590
  775Na+     N115675   2.124   4.248   5.144 -0.2769 -0.2430  0.0748
  776Na+     N115676   5.338   2.829   0.924 -0.0313 -0.2926 -0.2138
  777Na+     N115677   3.622   4.602   0.438  0.3177  0.1476 -0.1543
  778Na+     N115678   2.165   4.817   2.291 -0.3339  0.3392 -0.1442
  779Na+     N115679   2.192   5.464   2.910 -0.1728 -0.1569  0.5717
  780Na+     N115680   3.922   3.089   2.910  0.0407  0.3702  0.0082
  781Na+     N115681   3.888   1.607   0.337  0.3579  0.0974 -0.4837
  782Na+     N115682   2.548   1.916   0.942  0.7765  0.1012  0.6792
  783Na+     N115683   5.486   3.747   2.006 -0.1578  0.5708  0.0907
  784Na+     N115684   1.089   3.093   3.887  0.1841 -0.1500 -0.8258
  785Na+     N115685   0.058   2.441   1.973 -0.4608 -0.4404 -0.0687
  786Na+     N115686   3.133   4.017   3.861  0.2797 -0.4933  0.6015
  787Na+     N115687   3.123   1.059   3.760  0.0619  0.1397  0.0766
  788Na+     N115688   3.870   3.840   1.670  0.0549 -0.0922  0.1295
  789Na+     N115689   2.799   4.893   1.739 -0.7303  0.0351 -0.3189
  790Na+     N115690   2.284   4.006   0.472  0.0562 -0.1033 -0.1697
  791Na+     N115691   4.289   0.421   5.284 -0.1658 -0.1169  0.0151
  792Na+     N115692   4.959   3.171   0.445 -0.6482 -0.0209  0.5604
  793Na+     N115693   4.670   1.571   1.228 -0.3206 -0.2152  0.2117
  794Na+     N115694   4.616   3.764   2.295  0.0720  0.0433 -0.0531
  795Na+     N115695   3.996   3.937   3.485  0.1632 -0.0028 -0.4495
  796Na+     N115696   4.151   5.060   2.172  0.0985  0.2257 -0.1687
  797Na+     N115697   2.924   0.541   2.346 -0.1635 -0.0374 -0.1469
  798Na+     N115698   1.245   1.124   2.451 -0.8408 -0.0683  0.2863
  799Na+     N115699   3.922   0.693   2.003 -0.4512  0.3779 -0.5431
  800Na+     N115700   1.687   2.936   1.932  0.4193  0.3048  0.6543
  801Na+     N115701   5.004   0.721   4.909  0.1593 -0.7292  0.0057
  802Na+     N115702   3.911   1.036   4.184 -0.1277  0.0569 -0.2550
  803Na+     N115703   1.223   5.273   3.200  0.8397 -0.0032 -0.3024
  804Na+     N115704   3.096   2.128   5.016 -0.4387  0.3374  0.6651
  805Na+     N115705   3.903   3.990   0.783  0.4885  0.3647 -0.4015
  806Na+     N115706   2.186   5.111   4.151  0.0472  0.2930  0.0756
  807Na+     N115707   3.872   2.465   0.865 -0.1144  0.6000 -0.1185
  808Na+     N115708   1.706   3.486   0.678  0.5014 -0.0495 -0.1395
  809Na+     N115709   3.406   1.949   4.185  0.4083  0.5705  0.0374
  810Na+     N115710   5.349   5.124   2.733 -0.2016  0.4558 -0.0240
  811Na+     N115711   1.926   2.314   4.983 -0.1477 -0.3423 -0.3942
  812Na+     N115712   1.511   1.959   1.756  0.1106 -0.4518 -0.4857
  813Na+     N115713   3.005   2.685   4.168  0.1629  0.0913  0.1162
  814Na+     N115714   4.455   0.337   3.169  0.3209 -0.0086  0.5146
  815Na+     N115715   5.230   1.278   3.554 -0.0737  0.5257  0.1969
  816Na+     N115716   2.138   0.134   4.896  0.4258  0.3678  0.2117
  817Na+     N115717   1.151   2.105   2.795  0.0403  0.3980 -0.5218
  818Na+     N115718   1.927   2.317   0.556 -0.1029  0.3699 -0.1157
  819Na+     N115719   4.935   1.853   2.300  0.1865 -0.3790 -0.0097
  820Na+     N115720   5.251   2.984   2.596 -0.2316  0.1266 -0.6695
  821Na+     N115721   1.861   3.456   4.401  0.1976 -0.3971 -0.2870
  822Na+     N115722   0.983   1.356   5.250  0.4399 -0.2198 -0.2606
  823Na+     N115723   0.701   4.369   3.106  0.4153  0.1390 -0.1915
  824Na+     N115724   0.227   4.572   5.111  0.5860  0.0777 -0.1738
  825Na+     N115725   3.133   3.771   2.700  0.0737 -0.3291  0.2547
  826Na+     N115726   4.701   1.316   2.877 -0.3460 -0.0102 -0.1061
  827Na+     N115727   3.968   3.640   5.004 -0.2371 -0.2052  0.1288
  828Na+     N115728   0.856   5.227   0.420  0.0812  0.1471  0.1333
  829Na+     N115729   1.990   4.432   3.416  0.3737  0.7517 -0.1699
  830Na+     N115730   3.197   4.836   1.182  0.1401  0.4047  0.6848
  831Na+     N115731   3.492   5.431   4.416 -0.2156 -0.1347 -0.1000
  832Na+     N115732   1.305   5.219   5.034  0.1229  0.1114 -0.3674
  833Na+     N115733   1.458   3.649   3.193  0.0706 -0.1562 -0.8840
  834Na+     N115734   5.113   5.459   5.304 -0.0814 -0.6811  0.2412
  835Na+     N115735   1.352   0.611   4.132 -0.0617 -0.6272 -0.0391
  836Na+     N115736   1.084   0.680   3.241  0.4700 -0.0294  0.2691
  837Na+     N115737   1.070   2.633   1.267 -0.0122  0.1603 -0.0026
  838Na+     N115738   0.166   1.434   1.060 -1.1579  0.6991 -0.1060
  839Na+     N115739   3.900   2.266   3.527  0.0127  0.4111  0.1849
  840Na+     N115740   1.156   4.102   1.990 -0.2735 -0.0275  0.4392
  841Na+     N115741   3.489   4.785   2.732 -0.2849  0.1188 -0.1887
  842Na+     N115742   0.237   5.188   3.515 -0.2224  0.3133  0.1215
  843Na+     N115743   1.490   1.601   0.585  0.2022 -0.1639 -0.2388
  844Na+     N115744   4.277   5.125   0.049 -0.1475  0.4071 -0.0019
  845Na+     N115745   4.549   2.790   3.784 -0.1903  0.4794  0.0513
  846Na+     N115746   1.209   2.598   5.332 -0.0924 -0.3660  0.3051
  847Na+     N115747   1.239   4.782   4.229  0.4811  0.3734  0.0942
  848Na+     N115748   0.570   0.690   0.263 -0.0994 -0.1093 -0.9214
  849Na+     N115749   1.577   0.745   1.399  0.0157  0.1940  0.3250
  850Na+     N115750   0.509   1.079   2.047  0.0730 -0.2449  0.3805
   5.50274   5.50274   5.50274
