[ atomtypes ]
;  name        mass      charge  ptype       V(sigma)     W(epsinal)
     C3    12.01100       0.004      A   3.500000e-01   2.761440e-01
     H3     1.00800       0.055      A   2.500000e-01   1.255200e-01
     O2    15.99900      -0.314      A   2.900000e-01   5.857600e-01
     C4    12.01100      -0.030      A   3.500000e-01   2.761440e-01
     H4     1.00800       0.070      A   2.500000e-01   1.255200e-01
     C5    12.01100       0.173      A   3.500000e-01   2.761440e-01
     O3    15.99900      -0.388      A   2.900000e-01   5.857600e-01
     H5     1.00800       0.028      A   2.500000e-01   1.255200e-01
      P    30.97376       1.537      A   3.740000e-01   8.368000e-01
     F1    18.99840      -0.386      A   3.118000e-01   2.552240e-01
     F2    18.99840      -0.386      A   3.118000e-01   2.552240e-01
     F3    18.99840      -0.386      A   3.118000e-01   2.552240e-01
     Na    22.98977       0.779      A   2.584000e-01   4.184000e-01

[ nonbond_params ]
;    i     j  func       V(sigma)     W(epsinal)
    C3    C3     1   3.500000e-01   2.761440e-01
    C3    H3     1   3.000000e-01   1.861754e-01
    C3    O2     1   3.200000e-01   4.021870e-01
    C3    C4     1   3.500000e-01   2.761440e-01
    C3    H4     1   3.000000e-01   1.861754e-01
    C3    C5     1   3.500000e-01   2.761440e-01
    C3    O3     1   3.200000e-01   4.021870e-01
    C3    H5     1   3.000000e-01   1.861754e-01
    C3     P     1   3.620000e-01   4.806998e-01
    C3    F1     1   3.309000e-01   2.654790e-01
    C3    F2     1   3.309000e-01   2.654790e-01
    C3    F3     1   3.309000e-01   2.654790e-01
    C3    Na     1   3.042000e-01   3.399082e-01
    H3    H3     1   2.500000e-01   1.255200e-01
    H3    O2     1   2.700000e-01   2.711525e-01
    H3    C4     1   3.000000e-01   1.861754e-01
    H3    H4     1   2.500000e-01   1.255200e-01
    H3    C5     1   3.000000e-01   1.861754e-01
    H3    O3     1   2.700000e-01   2.711525e-01
    H3    H5     1   2.500000e-01   1.255200e-01
    H3     P     1   3.120000e-01   3.240926e-01
    H3    F1     1   2.809000e-01   1.789832e-01
    H3    F2     1   2.809000e-01   1.789832e-01
    H3    F3     1   2.809000e-01   1.789832e-01
    H3    Na     1   2.542000e-01   2.291660e-01
    O2    O2     1   2.900000e-01   5.857600e-01
    O2    C4     1   3.200000e-01   4.021870e-01
    O2    H4     1   2.700000e-01   2.711525e-01
    O2    C5     1   3.200000e-01   4.021870e-01
    O2    O3     1   2.900000e-01   5.857600e-01
    O2    H5     1   2.700000e-01   2.711525e-01
    O2     P     1   3.320000e-01   7.001087e-01
    O2    F1     1   3.009000e-01   3.866518e-01
    O2    F2     1   3.009000e-01   3.866518e-01
    O2    F3     1   3.009000e-01   3.866518e-01
    O2    Na     1   2.742000e-01   4.950509e-01
    C4    C4     1   3.500000e-01   2.761440e-01
    C4    H4     1   3.000000e-01   1.861754e-01
    C4    C5     1   3.500000e-01   2.761440e-01
    C4    O3     1   3.200000e-01   4.021870e-01
    C4    H5     1   3.000000e-01   1.861754e-01
    C4     P     1   3.620000e-01   4.806998e-01
    C4    F1     1   3.309000e-01   2.654790e-01
    C4    F2     1   3.309000e-01   2.654790e-01
    C4    F3     1   3.309000e-01   2.654790e-01
    C4    Na     1   3.042000e-01   3.399082e-01
    H4    H4     1   2.500000e-01   1.255200e-01
    H4    C5     1   3.000000e-01   1.861754e-01
    H4    O3     1   2.700000e-01   2.711525e-01
    H4    H5     1   2.500000e-01   1.255200e-01
    H4     P     1   3.120000e-01   3.240926e-01
    H4    F1     1   2.809000e-01   1.789832e-01
    H4    F2     1   2.809000e-01   1.789832e-01
    H4    F3     1   2.809000e-01   1.789832e-01
    H4    Na     1   2.542000e-01   2.291660e-01
    C5    C5     1   3.500000e-01   2.761440e-01
    C5    O3     1   3.200000e-01   4.021870e-01
    C5    H5     1   3.000000e-01   1.861754e-01
    C5     P     1   3.620000e-01   4.806998e-01
    C5    F1     1   3.309000e-01   2.654790e-01
    C5    F2     1   3.309000e-01   2.654790e-01
    C5    F3     1   3.309000e-01   2.654790e-01
    C5    Na     1   3.042000e-01   3.399082e-01
    O3    O3     1   2.900000e-01   5.857600e-01
    O3    H5     1   2.700000e-01   2.711525e-01
    O3     P     1   3.320000e-01   7.001087e-01
    O3    F1     1   3.009000e-01   3.866518e-01
    O3    F2     1   3.009000e-01   3.866518e-01
    O3    F3     1   3.009000e-01   3.866518e-01
    O3    Na     1   2.742000e-01   4.950509e-01
    H5    H5     1   2.500000e-01   1.255200e-01
    H5     P     1   3.120000e-01   3.240926e-01
    H5    F1     1   2.809000e-01   1.789832e-01
    H5    F2     1   2.809000e-01   1.789832e-01
    H5    F3     1   2.809000e-01   1.789832e-01
    H5    Na     1   2.542000e-01   2.291660e-01
     P     P     1   3.740000e-01   8.368000e-01
     P    F1     1   3.429000e-01   4.621228e-01
     P    F2     1   3.429000e-01   4.621228e-01
     P    F3     1   3.429000e-01   4.621228e-01
     P    Na     1   3.162000e-01   5.917013e-01
    F1    F1     1   3.118000e-01   2.552240e-01
    F1    F2     1   3.118000e-01   2.552240e-01
    F1    F3     1   3.118000e-01   2.552240e-01
    F1    Na     1   2.851000e-01   3.267788e-01
    F2    F2     1   3.118000e-01   2.552240e-01
    F2    F3     1   3.118000e-01   2.552240e-01
    F2    Na     1   2.851000e-01   3.267788e-01
    F3    F3     1   3.118000e-01   2.552240e-01
    F3    Na     1   2.851000e-01   3.267788e-01
    Na    Na     1   2.584000e-01   4.184000e-01