;;;;;;;;;;;;;;;;;;;;;;;;;;;;;;;;;;;;;;;;;;;;;;;;;;;;;;;;;;;;;;;;;;;;;;;;;;;
;                                                                         ;
; TOP File Created by Progamme DL2GRMX from DL_POLY input files           ;
; Produced by Polaris at Colledge of Chemistry, Nankai University, P.R.C. ;
; Model Name: DG-PF6-Na           Amber RESP  Created Time: 2025-05-25 17:08:28     ;
;                                                                         ;
;;;;;;;;;;;;;;;;;;;;;;;;;;;;;;;;;;;;;;;;;;;;;;;;;;;;;;;;;;;;;;;;;;;;;;;;;;;


[ defaults ]
; nbfunc         comb-rule      gen-pairs      fudgeLJ        fudgeQQ        
  1              3              yes            0.5            0.5            

#include "nonbond.itp"
#include "DG.itp"
#include "PF6-.itp"
#include "Na+.itp"

[ system ]
DG-PF6-Na           Amber RESP

[ molecules ]
; molecule name     mol  
DG                  650  
PF6-                100  
Na+                 100  

;;;;;;;;;;;;;;;;;;;;;;;;;;;;;;;;;;;;;;;;;;;;;;;;;;;;;;;;;;;;;;;;;;;;;;;;;;;
;;                                                                       ;;
;;                   This is the bottom of the TOP file.                 ;;
;;                                                                       ;;
;;;;;;;;;;;;;;;;;;;;;;;;;;;;;;;;;;;;;;;;;;;;;;;;;;;;;;;;;;;;;;;;;;;;;;;;;;;
