DG-THF-PF6-Na    Amber RESP
15609
    1DG      C1    1   0.039   0.574   1.482  0.4570  0.0024 -0.1219
    1DG      C2    2   0.646   0.127   1.653 -0.4253  0.3911 -0.4222
    1DG      H3    3  -0.010   0.492   1.534 -2.1792  2.2516 -0.3346
    1DG      H4    4   0.074   0.540   1.382  2.1669  0.5571 -2.2606
    1DG      H5    5  -0.024   0.656   1.468  1.0921 -3.4474 -2.9128
    1DG      H6    6   0.755   0.135   1.658 -2.6378 -0.6967  2.1333
    1DG      H7    7   0.607   0.028   1.694  0.3587 -6.5105  0.9325
    1DG      H8    8   0.620   0.142   1.548 -1.6370 -1.0457 -2.9412
    1DG      O9    9   0.159   0.603   1.548 -0.3229 -0.2839  0.8140
    1DG     O10   10   0.575   0.223   1.725 -0.0543  0.1193  0.7367
    1DG     C11   11   0.168   0.555   1.680 -0.1097 -0.0244 -0.0241
    1DG     C12   12   0.624   0.350   1.726  0.2070 -0.4996 -0.6050
    1DG     H13   13   0.138   0.451   1.695 -1.7864  1.3045 -0.2530
    1DG     H14   14   0.109   0.621   1.742  0.2309  0.8698 -1.0111
    1DG     H15   15   0.668   0.388   1.641  3.1035  1.0687  1.4799
    1DG     H16   16   0.702   0.358   1.810  0.2899  0.3090  1.3237
    1DG     C17   17   0.304   0.556   1.749 -0.3643 -0.1845  0.2704
    1DG     C18   18   0.509   0.447   1.777  0.2468 -0.5295 -0.3679
    1DG     O19   19   0.402   0.479   1.685 -0.2940  0.2443 -0.0437
    1DG     H20   20   0.279   0.513   1.848 -0.1612 -0.2447  1.0850
    1DG     H21   21   0.329   0.664   1.756 -1.7805 -1.1852 -2.0159
    1DG     H22   22   0.470   0.418   1.872 -1.2770  1.6487 -0.8198
    1DG     H23   23   0.553   0.540   1.810  1.9154  0.4546 -1.0203
    2DG      C1   24   0.684   4.943   3.925  0.8233 -0.0283 -0.3479
    2DG      C2   25   1.363   5.299   3.820  0.5713  0.0597  0.9346
    2DG      H3   26   0.587   4.910   3.900 -1.7815  0.8966  2.6971
    2DG      H4   27   0.686   4.987   4.029  0.8001  1.3850 -0.8029
    2DG      H5   28   0.749   4.853   3.934 -0.7031 -0.3778 -1.5565
    2DG      H6   29   1.370   5.346   3.722  0.1988 -0.7928 -2.2393
    2DG      H7   30   1.434   5.344   3.893 -0.0147 -0.8126  1.6393
    2DG      H8   31   1.391   5.194   3.805 -0.2782 -0.4741 -0.5937
    2DG      O9   32   0.760   5.019   3.837  0.4187  0.1236 -0.3331
    2DG     O10   33   1.223   5.308   3.853  0.8138  0.0227  0.3423
    2DG     C11   34   0.730   5.160   3.855  0.6145 -0.7065  0.2246
    2DG     C12   35   1.191   5.287   3.992  0.0757  0.4046 -0.1765
    2DG     H13   36   0.625   5.192   3.876  0.6575  2.9578  1.9909
    2DG     H14   37   0.748   5.220   3.765  0.1922 -0.5218 -0.3268
    2DG     H15   38   1.240   5.373   4.040 -1.4917 -0.3608  0.4115
    2DG     H16   39   1.231   5.191   4.030  1.0249  0.8581  1.0124
    2DG     C17   40   0.812   5.231   3.972 -0.3120 -0.9834 -0.7355
    2DG     C18   41   1.045   5.304   4.015  0.3800  0.3422  0.4273
    2DG     O19   42   0.953   5.239   3.933  0.0946  0.7496  0.0804
    2DG     H20   43   0.790   5.183   4.069 -2.7055 -0.5153  2.5576
    2DG     H21   44   0.776   5.334   3.986 -0.4444 -0.4987 -1.8432
    2DG     H22   45   1.029   5.257   4.111 -0.2186 -1.0626  3.3517
    2DG     H23   46   1.021   5.408   4.040  0.2586 -0.7729 -0.1669
    3DG      C1   47   3.993   2.915   2.731  0.5437 -0.5542  0.4247
    3DG      C2   48   4.458   2.424   2.872 -0.1666  0.4847  0.1494
    3DG      H3   49   3.993   3.027   2.729  2.4462  3.3032 -0.9089
    3DG      H4   50   3.894   2.883   2.758 -0.4022  0.4474  0.9955
    3DG      H5   51   4.002   2.877   2.627  0.3287  0.0505  1.1023
    3DG      H6   52   4.522   2.438   2.785  3.3408  0.3146  0.1129
    3DG      H7   53   4.487   2.349   2.950 -3.2056 -3.1013  0.7550
    3DG      H8   54   4.368   2.389   2.820  0.0394  1.2964 -4.3365
    3DG      O9   55   4.092   2.853   2.820  0.0118  0.6616  0.1209
    3DG     O10   56   4.437   2.545   2.944  0.3218  0.6268  0.0251
    3DG     C11   57   4.070   2.883   2.961  0.2826  0.2558 -0.1446
    3DG     C12   58   4.369   2.524   3.064  0.2828 -0.0628 -0.9366
    3DG     H13   59   3.977   2.833   2.985  1.3929 -5.1712  1.3444
    3DG     H14   60   4.046   2.995   2.968  2.6743  1.8998 -0.1481
    3DG     H15   61   4.423   2.465   3.137 -0.9945 -1.2262  0.7922
    3DG     H16   62   4.285   2.464   3.039  2.0838  0.7141 -2.2800
    3DG     C17   63   4.179   2.827   3.053  0.0044 -0.0914  0.5240
    3DG     C18   64   4.312   2.659   3.120  0.4925  0.4213  0.1123
    3DG     O19   65   4.215   2.695   3.022 -0.3355 -0.1014 -0.3907
    3DG     H20   66   4.160   2.851   3.156 -1.8311  0.0274  1.3303
    3DG     H21   67   4.259   2.894   3.036  1.1774  0.9147 -0.3679
    3DG     H22   68   4.247   2.646   3.208  0.8577 -0.7069  1.1829
    3DG     H23   69   4.392   2.730   3.118  2.5749 -0.2590 -0.4910
    4DG      C1   70   2.814   2.845   0.748 -0.4260  0.1668 -0.1646
    4DG      C2   71   2.638   3.517   1.080 -0.4524 -0.1215  0.2405
    4DG      H3   72   2.799   2.842   0.639 -0.2377 -0.5517 -0.1716
    4DG      H4   73   2.826   2.738   0.778 -2.0696  2.2790 -1.2541
    4DG      H5   74   2.910   2.889   0.771  0.7879 -0.9609  1.0327
    4DG      H6   75   2.547   3.579   1.103 -2.1843 -2.3542  0.6308
    4DG      H7   76   2.710   3.547   1.159  1.0144  0.5579 -1.0256
    4DG      H8   77   2.662   3.556   0.980  1.1745 -0.0757 -3.5784
    4DG      O9   78   2.716   2.916   0.807  0.2262  0.3744 -0.3567
    4DG     O10   79   2.599   3.381   1.085  0.2766  0.2916 -0.4553
    4DG     C11   80   2.719   2.907   0.950 -0.2014  0.6783 -0.3974
    4DG     C12   81   2.517   3.346   0.977  0.9733  0.6536  0.8054
    4DG     H13   82   2.809   2.954   0.989  0.4271  2.5581 -1.5881
    4DG     H14   83   2.728   2.804   0.977 -1.4728 -4.3060  1.0060
    4DG     H15   84   2.561   3.357   0.884  1.1697  0.4785  1.8562
    4DG     H16   85   2.419   3.393   0.971 -1.4892 -5.8243 -0.2119
    4DG     C17   86   2.595   2.992   1.001  0.0290 -0.2830  0.5021
    4DG     C18   87   2.480   3.203   0.984 -0.6314 -0.6119  0.4510
    4DG     O19   88   2.604   3.135   0.961 -0.0736  0.3970  0.1865
    4DG     H20   89   2.584   2.981   1.108 -0.9379  0.3180 -0.8703
    4DG     H21   90   2.512   2.944   0.953  1.9174 -0.8629 -0.3283
    4DG     H22   91   2.436   3.158   1.078 -3.8069  0.1769 -0.0093
    4DG     H23   92   2.415   3.176   0.903 -0.6078 -3.3316 -0.0700
    5DG      C1   93   1.055   1.364   1.174  0.3791  0.7731 -0.5761
    5DG      C2   94   1.285   1.885   1.491 -0.4388  0.0975  0.4277
    5DG      H3   95   1.131   1.323   1.099  2.3249  0.3006 -2.8045
    5DG      H4   96   1.011   1.452   1.138  2.5654 -1.5271 -0.3687
    5DG      H5   97   0.978   1.288   1.206  0.7222 -0.2050  1.9795
    5DG      H6   98   1.254   1.946   1.572 -1.4418 -0.0771 -3.0344
    5DG      H7   99   1.394   1.887   1.471  1.2871  0.2094 -0.6938
    5DG      H8  100   1.239   1.908   1.389  0.6573  1.4029 -0.5389
    5DG      O9  101   1.128   1.427   1.281  0.4768  0.7736 -0.2693
    5DG     O10  102   1.251   1.750   1.513  0.1917  0.1537 -0.4312
    5DG     C11  103   1.183   1.327   1.372  0.1759 -0.2853  0.4345
    5DG     C12  104   1.335   1.677   1.605  0.6227 -0.7106  0.9504
    5DG     H13  105   1.244   1.259   1.306  0.0045  0.4655  2.4429
    5DG     H14  106   1.095   1.268   1.401  2.0655 -0.6198  0.8634
    5DG     H15  107   1.373   1.751   1.679  0.8288  1.0615 -0.8671
    5DG     H16  108   1.416   1.637   1.542 -1.4407 -0.1999 -2.2895
    5DG     C17  109   1.266   1.392   1.478 -0.4656 -0.1266 -1.0889
    5DG     C18  110   1.259   1.556   1.654  0.3710  0.4551 -0.6098
    5DG     O19  111   1.190   1.485   1.551  0.2697 -0.6355 -0.3308
    5DG     H20  112   1.353   1.443   1.441  0.6203 -1.3676 -0.2511
    5DG     H21  113   1.294   1.315   1.549 -0.4460  1.4475  1.2765
    5DG     H22  114   1.323   1.493   1.714  1.3621  0.3220  2.3190
    5DG     H23  115   1.178   1.591   1.718 -0.3900 -2.3293  2.8633
    6DG      C1  116   1.057   4.519   3.804  0.2790  1.0643  0.5338
    6DG      C2  117   1.412   4.086   4.157 -0.4350  0.6956  0.3070
    6DG      H3  118   1.066   4.562   3.904 -0.1427 -1.6928 -0.0366
    6DG      H4  119   0.953   4.547   3.781 -3.6106  0.6329  1.7847
    6DG      H5  120   1.115   4.570   3.723 -0.6417  0.5339 -1.6596
    6DG      H6  121   1.506   4.038   4.123 -1.8335  0.1184 -0.4406
    6DG      H7  122   1.395   4.177   4.094 -0.1676  1.9461 -0.6369
    6DG      H8  123   1.411   4.120   4.258 -0.9853  1.5884  0.0516
    6DG      O9  124   1.077   4.378   3.785 -0.3902  0.1138 -0.3106
    6DG     O10  125   1.301   3.991   4.135  0.1194  0.0802 -0.0730
    6DG     C11  126   1.000   4.303   3.879  0.4318  0.5046 -0.3325
    6DG     C12  127   1.280   3.936   4.004 -0.6230  0.6733  0.0025
    6DG     H13  128   0.896   4.325   3.860 -0.8567  0.6942 -1.3122
    6DG     H14  129   1.028   4.325   3.978 -2.6464 -0.5187 -0.2815
    6DG     H15  130   1.290   3.834   4.009 -3.4716  2.8339 -2.1024
    6DG     H16  131   1.360   3.972   3.938  2.8501  1.3709  2.5417
    6DG     C17  132   1.015   4.151   3.865 -0.2156  0.4946 -0.2237
    6DG     C18  133   1.138   3.966   3.967  0.4927 -0.0446  0.7059
    6DG     O19  134   1.124   4.108   3.942 -0.8269 -0.3585 -0.1690
    6DG     H20  135   1.019   4.114   3.766  2.1726 -1.7357  0.0989
    6DG     H21  136   0.922   4.106   3.908  0.6332  0.7703 -2.8601
    6DG     H22  137   1.125   3.924   3.873 -0.1483  4.0369  1.0202
    6DG     H23  138   1.064   3.923   4.040 -2.0329 -0.8309 -0.7234
    7DG      C1  139   0.858   3.607   3.332  0.1502  0.0433 -0.4467
    7DG      C2  140   0.853   3.346   2.939 -0.1279 -0.8017 -0.1999
    7DG      H3  141   0.940   3.621   3.256  2.7861 -0.2300 -1.4127
    7DG      H4  142   0.782   3.534   3.295  1.6865 -1.3005  1.1665
    7DG      H5  143   0.910   3.568   3.428 -0.3371 -0.7176  2.7897
    7DG      H6  144   0.798   3.317   2.859  1.1822  0.6365  1.0569
    7DG      H7  145   0.958   3.338   2.942  1.3393  2.1535  0.1819
    7DG      H8  146   0.820   3.287   3.027 -0.2788  0.4180  1.2183
    7DG      O9  147   0.805   3.737   3.375 -0.2219  0.2043  0.2367
    7DG     O10  148   0.797   3.470   2.978  0.5454  0.4752  0.6212
    7DG     C11  149   0.854   3.847   3.294 -0.6217  0.3087 -0.5274
    7DG     C12  150   0.805   3.584   2.897 -0.0598 -0.0350 -0.6561
    7DG     H13  151   0.958   3.835   3.292  0.9591 -0.2592 -0.7437
    7DG     H14  152   0.843   3.946   3.339  0.7005 -2.2595  1.4308
    7DG     H15  153   0.751   3.575   2.801  0.5835  1.4035 -0.6096
    7DG     H16  154   0.912   3.593   2.873  2.1753  0.4276  0.2255
    7DG     C17  155   0.776   3.836   3.153  0.1327 -0.0345  0.3599
    7DG     C18  156   0.743   3.694   2.968  0.6105 -0.9027  0.1742
    7DG     O19  157   0.830   3.731   3.075  0.5363  0.1442 -0.0209
    7DG     H20  158   0.781   3.928   3.099 -1.2312 -2.2202  1.3035
    7DG     H21  159   0.668   3.826   3.162 -2.5524  0.5002  1.1582
    7DG     H22  160   0.741   3.777   2.898  3.1802  0.2838  1.2021
    7DG     H23  161   0.651   3.654   3.009 -0.2426 -1.1789  1.5208
    8DG      C1  162   5.197   2.287   0.710 -0.3863 -0.3412  0.0116
    8DG      C2  163   4.962   1.668   1.062 -0.5396 -0.3463  0.4868
    8DG      H3  164   5.087   2.289   0.691  0.1946  2.2698 -0.4955
    8DG      H4  165   5.225   2.331   0.621  0.1674 -1.0909  3.2732
    8DG      H5  166   5.223   2.341   0.798  0.0185 -1.9366 -1.1904
    8DG      H6  167   4.868   1.664   1.117  2.2408 -0.3176  3.0565
    8DG      H7  168   4.971   1.568   1.032  3.6610  1.1446 -1.4931
    8DG      H8  169   5.055   1.679   1.118 -1.5886 -0.2884 -1.2363
    8DG      O9  170   5.251   2.159   0.716 -0.1852  0.1326  0.0991
    8DG     O10  171   4.944   1.757   0.948 -0.0759  0.7548  0.8091
    8DG     C11  172   5.203   2.089   0.827  0.0178  0.7196 -0.8730
    8DG     C12  173   5.008   1.720   0.826  0.0701 -0.2613  0.6862
    8DG     H13  174   5.200   2.155   0.911  0.2718 -0.4243 -3.4210
    8DG     H14  175   5.271   2.010   0.856 -2.0390  0.2324  2.7145
    8DG     H15  176   4.961   1.626   0.796  0.5659  0.0253  0.9675
    8DG     H16  177   5.115   1.700   0.823 -0.7298  2.3655  0.8059
    8DG     C17  178   5.064   2.024   0.814 -0.0888 -0.8204  0.2960
    8DG     C18  179   4.974   1.826   0.710  0.7161 -0.0420  0.5719
    8DG     O19  180   5.070   1.936   0.701  0.1938  0.5661 -0.2984
    8DG     H20  181   4.989   2.100   0.796 -1.3890 -2.3926  2.0193
    8DG     H21  182   5.039   1.985   0.913  2.5479  0.1752  0.8805
    8DG     H22  183   4.994   1.782   0.611 -1.6754 -1.8574  1.1697
    8DG     H23  184   4.868   1.858   0.704  0.3744  0.5943 -0.3787
    9DG      C1  185   0.877   5.115   2.662  0.6314  0.6758  0.6322
    9DG      C2  186   0.517   4.461   2.599  0.0024  0.2491 -0.1586
    9DG      H3  187   0.876   5.129   2.768 -1.2018  0.3946  1.7369
    9DG      H4  188   0.787   5.150   2.624  0.8044 -0.5906 -1.2179
    9DG      H5  189   0.948   5.184   2.622 -2.2646 -0.9205  1.8651
    9DG      H6  190   0.431   4.450   2.532  1.3809 -0.9797  1.6431
    9DG      H7  191   0.536   4.363   2.638 -1.5378 -0.8322 -0.3464
    9DG      H8  192   0.489   4.514   2.692 -1.0836  2.2810  1.8886
    9DG      O9  193   0.897   4.975   2.633  0.3018  0.2120  0.0164
    9DG     O10  194   0.623   4.525   2.523  0.8154  0.3396 -0.3689
    9DG     C11  195   0.900   4.954   2.490 -0.1409 -0.6496  1.1968
    9DG     C12  196   0.755   4.500   2.572 -0.1404  0.9598  0.9274
    9DG     H13  197   0.986   5.007   2.453  0.8076 -2.5375 -0.4837
    9DG     H14  198   0.804   4.973   2.443  0.9333 -0.2267  1.7395
    9DG     H15  199   0.776   4.393   2.559 -0.5418 -1.7459 -0.7064
    9DG     H16  200   0.755   4.520   2.685  0.5674  1.2687  2.9633
    9DG     C17  201   0.940   4.808   2.465  0.7209  0.1311  0.5988
    9DG     C18  202   0.856   4.593   2.502 -0.4495 -1.1000  0.3182
    9DG     O19  203   0.831   4.730   2.507  0.4597 -0.4594 -0.1341
    9DG     H20  204   1.038   4.789   2.515 -1.9116 -1.4514  1.5362
    9DG     H21  205   0.951   4.790   2.355 -0.1580  0.9595  1.2782
    9DG     H22  206   0.956   4.562   2.535 -3.5406  1.6221 -0.7471
    9DG     H23  207   0.864   4.569   2.391  0.0128 -0.3638 -2.2961
   10DG      C1  208   4.569   0.579   4.934  0.5649  0.0294 -0.5109
   10DG      C2  209   5.107   0.440   4.313 -0.4474 -0.1331  0.0326
   10DG      H3  210   4.509   0.545   5.024  1.0852  1.3387  1.9841
   10DG      H4  211   4.508   0.656   4.887  0.9183  2.2002  2.2400
   10DG      H5  212   4.656   0.634   4.965 -1.8545 -1.1532  1.5036
   10DG      H6  213   5.169   0.527   4.334  0.9977 -1.5781  3.0153
   10DG      H7  214   5.181   0.362   4.284 -0.2959  1.0120 -2.5520
   10DG      H8  215   5.057   0.462   4.222 -0.5666 -1.0548  0.1809
   10DG      O9  216   4.598   0.460   4.862 -0.2073  0.3130  0.7528
   10DG     O10  217   5.020   0.383   4.411 -0.6826  0.6734 -0.1337
   10DG     C11  218   4.631   0.494   4.726 -0.6452 -0.0422  0.1296
   10DG     C12  219   4.911   0.312   4.356 -0.0527 -0.1792  0.8038
   10DG     H13  220   4.698   0.579   4.699 -1.2263  0.5764 -0.8837
   10DG     H14  221   4.540   0.532   4.681 -0.0777  0.5242  0.7627
   10DG     H15  222   4.939   0.225   4.298  1.0510 -1.4326  0.9571
   10DG     H16  223   4.842   0.367   4.290  2.2531 -0.3280  0.7019
   10DG     C17  224   4.694   0.365   4.663  0.3859  1.0175  0.4318
   10DG     C18  225   4.818   0.275   4.474  0.5989 -0.0438 -0.7971
   10DG     O19  226   4.758   0.386   4.542 -0.3860 -0.1684 -0.1994
   10DG     H20  227   4.614   0.293   4.656  0.7875  0.8412 -2.8453
   10DG     H21  228   4.761   0.312   4.733 -2.2722  0.4312  0.8723
   10DG     H22  229   4.744   0.202   4.452 -0.7442 -1.5198 -0.4408
   10DG     H23  230   4.889   0.226   4.545  0.8549 -1.0189 -0.7438
   11DG      C1  231   2.230   3.674   5.204 -0.1285 -0.4476 -0.4653
   11DG      C2  232   2.903   3.322   4.853 -0.7400 -0.1710  0.4176
   11DG      H3  233   2.206   3.651   5.309 -0.5355  0.0392 -0.1817
   11DG      H4  234   2.133   3.691   5.168 -2.7631  2.1634 -0.1032
   11DG      H5  235   2.290   3.764   5.199 -1.4204  1.1032 -0.4924
   11DG      H6  236   2.949   3.413   4.896 -0.7483 -1.9410  1.3577
   11DG      H7  237   2.958   3.245   4.908  2.8901  0.6744  1.5779
   11DG      H8  238   2.919   3.309   4.753 -0.1230  0.0319  2.0101
   11DG      O9  239   2.295   3.562   5.140 -0.5558 -0.4071  0.2625
   11DG     O10  240   2.763   3.319   4.885  0.2901  0.0954  0.5325
   11DG     C11  241   2.312   3.590   5.000 -0.1368 -0.3219  0.2463
   11DG     C12  242   2.716   3.343   5.020  0.6434 -0.3502  1.0025
   11DG     H13  243   2.377   3.676   5.003  2.9363 -4.9117  2.4551
   11DG     H14  244   2.216   3.617   4.945  0.2015  1.5829 -1.4078
   11DG     H15  245   2.767   3.438   5.048  1.9287 -4.1031 -2.3769
   11DG     H16  246   2.760   3.268   5.084  0.4479  0.2817  1.7550
   11DG     C17  247   2.374   3.471   4.927 -0.6153 -0.1561 -0.0556
   11DG     C18  248   2.561   3.345   5.031  0.2281  0.1884  0.3220
   11DG     O19  249   2.517   3.448   4.949  0.6918 -0.4529 -0.1827
   11DG     H20  250   2.361   3.497   4.821 -1.2288  0.6438  1.8842
   11DG     H21  251   2.304   3.385   4.951 -1.1189 -1.1905 -2.3291
   11DG     H22  252   2.516   3.245   5.004  2.0187 -1.2728  0.8574
   11DG     H23  253   2.532   3.365   5.137 -0.6397 -1.7631 -0.2067
   12DG      C1  254   3.134   1.129   2.460  0.3152 -0.1312 -0.4660
   12DG      C2  255   2.768   0.472   2.349  0.3397 -0.3369 -0.3717
   12DG      H3  256   3.073   1.183   2.529  2.7596 -2.8766  0.3257
   12DG      H4  257   3.203   1.196   2.408  1.0717  0.5440 -2.4720
   12DG      H5  258   3.206   1.069   2.509 -1.3158 -0.3761 -1.9286
   12DG      H6  259   2.745   0.452   2.454  0.2588 -0.7007 -0.0177
   12DG      H7  260   2.685   0.456   2.282  0.8922 -0.1456  0.9520
   12DG      H8  261   2.845   0.398   2.338 -0.8405 -0.6179  5.3291
   12DG      O9  262   3.045   1.046   2.388 -0.3478 -0.7118  0.1148
   12DG     O10  263   2.797   0.613   2.343 -0.1198 -0.0260  0.5082
   12DG     C11  264   2.915   1.098   2.371 -0.4734 -0.1806 -0.7042
   12DG     C12  265   2.859   0.652   2.224 -0.0068  0.2427 -0.1983
   12DG     H13  266   2.927   1.201   2.337 -1.6187  0.9485 -0.0718
   12DG     H14  267   2.857   1.091   2.464 -0.6390 -3.0266 -0.4382
   12DG     H15  268   2.817   0.590   2.149  0.0798  1.1876  0.0543
   12DG     H16  269   2.966   0.642   2.233  1.9070  1.4864 -0.1572
   12DG     C17  270   2.840   1.019   2.264 -0.1473  0.0226 -0.6971
   12DG     C18  271   2.826   0.796   2.195 -0.0536  0.6207  0.4697
   12DG     O19  272   2.844   0.880   2.302  0.1742 -0.0153  0.1200
   12DG     H20  273   2.885   1.034   2.164  0.6734  0.0390 -2.0974
   12DG     H21  274   2.741   1.052   2.250 -0.3813  0.5382  1.3965
   12DG     H22  275   2.877   0.828   2.098  0.8783  0.1719 -2.9068
   12DG     H23  276   2.720   0.784   2.174  0.0808 -1.8615 -0.9751
   13DG      C1  277   0.524   4.081   0.833  0.2341 -0.3360  0.2947
   13DG      C2  278   0.704   4.404   0.233 -0.3478  0.0014 -0.0234
   13DG      H3  279   0.419   4.106   0.817 -0.6804 -1.7887 -2.1253
   13DG      H4  280   0.538   4.058   0.933  1.0769 -0.3882 -1.1261
   13DG      H5  281   0.540   3.992   0.780  1.4829  0.2923 -0.7329
   13DG      H6  282   0.744   4.311   0.192 -0.1751  0.8368  1.4883
   13DG      H7  283   0.599   4.404   0.212 -1.9716  1.2930  0.9545
   13DG      H8  284   0.743   4.490   0.175  2.7596  0.8597  0.3122
   13DG      O9  285   0.605   4.190   0.799 -0.5458 -0.0376  0.3384
   13DG     O10  286   0.717   4.407   0.372  0.7131 -0.6465 -0.1638
   13DG     C11  287   0.749   4.169   0.808 -1.0683 -0.0956  0.0662
   13DG     C12  288   0.852   4.407   0.414 -0.7161 -0.1496 -0.1786
   13DG     H13  289   0.776   4.080   0.748 -1.7543  0.3119 -0.5948
   13DG     H14  290   0.776   4.148   0.909  1.2320  1.5576  0.7093
   13DG     H15  291   0.900   4.494   0.367  0.9915  1.3291 -2.2781
   13DG     H16  292   0.905   4.317   0.374 -1.5213 -2.3181  0.4846
   13DG     C17  293   0.817   4.293   0.766 -0.6321  0.1620 -1.1533
   13DG     C18  294   0.853   4.419   0.565  0.3523 -0.1325  0.1962
   13DG     O19  295   0.810   4.300   0.628 -0.2286 -0.3983  0.1360
   13DG     H20  296   0.919   4.302   0.808 -0.4385 -2.1700  0.5195
   13DG     H21  297   0.763   4.387   0.805 -0.3213  1.2784  0.6724
   13DG     H22  298   0.954   4.448   0.596 -3.4645  1.2305 -1.0997
   13DG     H23  299   0.780   4.497   0.590  1.3886  2.6753 -1.6338
   14DG      C1  300   3.189   1.595   4.287 -0.3335 -0.5157 -0.2328
   14DG      C2  301   3.661   1.446   3.678 -0.4086  0.4978 -0.3343
   14DG      H3  302   3.132   1.623   4.384  0.3492 -0.3902  0.1570
   14DG      H4  303   3.154   1.496   4.248  0.4796 -1.8289 -1.1420
   14DG      H5  304   3.152   1.668   4.213 -0.4936 -1.6030  0.9169
   14DG      H6  305   3.621   1.541   3.636 -0.9856  1.1102  0.6303
   14DG      H7  306   3.761   1.423   3.644  0.7685 -0.9669  3.3603
   14DG      H8  307   3.595   1.361   3.663  1.1686 -3.1739 -2.8246
   14DG      O9  308   3.331   1.609   4.288  0.7113  0.1228 -0.3611
   14DG     O10  309   3.666   1.447   3.824  0.0235 -0.1744 -0.2632
   14DG     C11  310   3.392   1.601   4.168  0.2867 -0.2333 -0.0176
   14DG     C12  311   3.747   1.557   3.873 -0.0523 -0.2798 -0.5686
   14DG     H13  312   3.356   1.687   4.101 -1.1574  0.1019  0.9551
   14DG     H14  313   3.367   1.508   4.108  2.6417 -1.9069 -1.3183
   14DG     H15  314   3.723   1.656   3.836 -2.6066  0.4177 -0.4226
   14DG     H16  315   3.852   1.540   3.850  1.4133 -0.5472  2.0507
   14DG     C17  316   3.542   1.600   4.177 -0.5395 -0.4980 -0.5622
   14DG     C18  317   3.723   1.570   4.021  0.0075 -0.1940  0.0073
   14DG     O19  318   3.592   1.613   4.041 -0.6684 -0.1107 -0.0210
   14DG     H20  319   3.568   1.501   4.213 -3.9240 -0.8829  0.0547
   14DG     H21  320   3.574   1.677   4.246 -1.0199 -1.2585  3.1365
   14DG     H22  321   3.739   1.475   4.075 -1.1535  2.5902  0.0137
   14DG     H23  322   3.791   1.633   4.075 -0.9756  0.0747  1.3528
   15DG      C1  323   3.645   5.413   1.005  0.1296  0.0497  0.1421
   15DG      C2  324   3.920   4.900   0.667  0.2750  0.0173  0.1003
   15DG      H3  325   3.604   5.344   1.080 -0.7174 -1.6189 -2.6308
   15DG      H4  326   3.551   5.462   0.958 -1.6314  0.7226 -2.4385
   15DG      H5  327   3.702   5.486   1.063 -2.0643 -1.6652 -3.1378
   15DG      H6  328   3.854   4.871   0.583  1.6049  0.4322  0.4453
   15DG      H7  329   4.011   4.840   0.654 -1.9805  2.0130 -0.3622
   15DG      H8  330   3.863   4.866   0.753 -0.8665 -0.1585  1.3553
   15DG      O9  331   3.724   5.334   0.915 -0.0891  0.1884  0.1848
   15DG     O10  332   3.950   5.035   0.670 -0.0625 -0.6216  0.3007
   15DG     C11  333   3.798   5.413   0.821  0.4274 -0.0498  0.0604
   15DG     C12  334   4.061   5.067   0.758 -0.4889  0.1283 -0.5979
   15DG     H13  335   3.828   5.503   0.860  1.8759 -4.3662  0.8960
   15DG     H14  336   3.724   5.444   0.747  0.0247 -0.1950  1.5168
   15DG     H15  337   4.145   5.006   0.736 -1.0523  1.9681  0.1761
   15DG     H16  338   4.036   5.039   0.859 -0.1353 -0.6802  0.3691
   15DG     C17  339   3.905   5.338   0.738  0.7936 -0.2594 -0.8345
   15DG     C18  340   4.105   5.213   0.755 -0.0525 -0.3617 -0.2705
   15DG     O19  341   4.011   5.300   0.820 -0.6433  0.0709 -0.3008
   15DG     H20  342   3.926   5.393   0.645 -0.0654 -1.5850 -0.7347
   15DG     H21  343   3.851   5.251   0.695 -1.6563  1.1047  1.3171
   15DG     H22  344   4.194   5.214   0.823 -0.5762  3.4272  1.6598
   15DG     H23  345   4.120   5.254   0.650  0.1604  2.3328 -1.4176
   16DG      C1  346   4.715   1.946   0.027 -0.4325  0.6734  0.6833
   16DG      C2  347   4.834   2.824   0.064  0.0342 -0.2139 -0.3643
   16DG      H3  348   4.735   1.855  -0.022  2.3749 -0.6336  0.1531
   16DG      H4  349   4.614   1.972   0.026  2.8311 -1.6902 -1.8711
   16DG      H5  350   4.726   1.926   0.126 -1.9668 -0.9871  0.8555
   16DG      H6  351   4.896   2.825   0.152  0.0907 -0.1867 -3.3684
   16DG      H7  352   4.892   2.878  -0.004 -1.7749 -1.2122  1.7291
   16DG      H8  353   4.736   2.865   0.091 -1.7156 -0.6194  1.0256
   16DG      O9  354   4.806   2.041  -0.028  0.4955 -0.1899 -0.2144
   16DG     O10  355   4.820   2.693   0.020  0.2327 -0.0489 -0.4570
   16DG     C11  356   4.779   2.167   0.027 -0.4793  0.1791 -0.0345
   16DG     C12  357   4.947   2.625   0.005 -0.8604  0.2744 -0.1847
   16DG     H13  358   4.780   2.164   0.137  0.9286  1.1339  1.3749
   16DG     H14  359   4.681   2.201   0.000  0.1389 -1.4398  1.8425
   16DG     H15  360   4.991   2.618   0.107  0.7375 -1.4175 -0.6153
   16DG     H16  361   5.018   2.685  -0.053  0.3058  2.0978 -2.3002
   16DG     C17  362   4.887   2.263  -0.027 -0.1633 -0.1511  0.0251
   16DG     C18  363   4.940   2.487  -0.055 -0.1359  0.4523  0.4689
   16DG     O19  364   4.850   2.400   0.000  0.2690 -0.2331 -0.3107
   16DG     H20  365   4.904   2.245  -0.140 -0.3310  3.9389 -0.9862
   16DG     H21  366   4.975   2.233   0.021 -2.0135  2.9274 -1.8241
   16DG     H22  367   4.911   2.489  -0.160 -1.4592 -2.6919 -1.7800
   16DG     H23  368   5.040   2.448  -0.051  0.6001  1.3458 -0.8483
   17DG      C1  369   4.690   1.601   0.166 -0.4736 -0.1656  0.6057
   17DG      C2  370   4.898   2.350   0.323 -0.2132 -0.2322  0.2800
   17DG      H3  371   4.729   1.610   0.064 -1.6988 -0.8453  2.4259
   17DG      H4  372   4.581   1.611   0.162 -0.9448 -1.6035 -1.7991
   17DG      H5  373   4.713   1.506   0.207  3.1837  1.1511  4.1665
   17DG      H6  374   4.790   2.353   0.312  0.4828  1.1802  0.1512
   17DG      H7  375   4.936   2.448   0.319 -3.4030  1.7313 -1.6253
   17DG      H8  376   4.942   2.299   0.239  1.2655 -1.0355  1.9152
   17DG      O9  377   4.745   1.710   0.242  0.7060  0.4947 -0.3419
   17DG     O10  378   4.928   2.279   0.442  0.0801  0.2356 -0.3936
   17DG     C11  379   4.888   1.694   0.280 -0.4064  0.2631  0.5440
   17DG     C12  380   4.893   2.139   0.450  0.0267 -0.4080 -0.3395
   17DG     H13  381   4.927   1.620   0.209  0.8286  0.1198 -0.6949
   17DG     H14  382   4.905   1.648   0.377  1.1956 -1.1867 -1.3723
   17DG     H15  383   4.788   2.132   0.416  2.7847  1.5422 -1.1482
   17DG     H16  384   4.876   2.114   0.558 -0.7251 -1.6907 -0.0177
   17DG     C17  385   4.959   1.831   0.271  0.4200  0.6602 -0.7028
   17DG     C18  386   4.974   2.040   0.368 -0.3401 -0.4661 -0.4359
   17DG     O19  387   4.899   1.922   0.362 -0.4420 -0.3638 -0.2723
   17DG     H20  388   4.960   1.865   0.170  1.4823  0.5458 -1.0341
   17DG     H21  389   5.066   1.822   0.300 -0.2244  1.1770 -0.7526
   17DG     H22  390   5.020   2.074   0.272 -2.1671  2.0776  0.0376
   17DG     H23  391   5.055   2.012   0.435  2.2336  0.2286  0.7862
   18DG      C1  392   3.271   2.373   2.530 -0.0790 -0.1754 -0.1771
   18DG      C2  393   2.646   2.123   2.144 -0.2264 -0.5706 -0.0956
   18DG      H3  394   3.247   2.345   2.639 -0.5449 -0.1184  0.6664
   18DG      H4  395   3.329   2.471   2.514  2.1353  2.4560  2.1446
   18DG      H5  396   3.330   2.298   2.477 -2.3838 -0.3433  0.7972
   18DG      H6  397   2.535   2.112   2.151 -4.0985  0.5505 -2.4248
   18DG      H7  398   2.670   2.206   2.071  0.3369  2.4252  0.5376
   18DG      H8  399   2.676   2.024   2.108 -0.6034  0.3115  3.3290
   18DG      O9  400   3.142   2.392   2.469 -0.0413 -0.1968  0.0630
   18DG     O10  401   2.708   2.155   2.267 -0.1920  0.3271  0.3148
   18DG     C11  402   3.147   2.398   2.328 -0.2927  0.1917  0.8366
   18DG     C12  403   2.685   2.289   2.301  0.6399 -0.1215  0.7386
   18DG     H13  404   3.188   2.301   2.290  3.0183  0.0847 -0.1595
   18DG     H14  405   3.226   2.474   2.313  0.0042 -0.1199  1.2338
   18DG     H15  406   2.682   2.290   2.409  0.0116 -0.7094  2.7572
   18DG     H16  407   2.590   2.328   2.269  4.1354  3.1965 -1.6224
   18DG     C17  408   3.018   2.426   2.259 -1.1934 -0.2033  0.0970
   18DG     C18  409   2.791   2.386   2.249 -0.1883  0.5944  0.1444
   18DG     O19  410   2.919   2.331   2.283  0.2230 -0.6391  0.0747
   18DG     H20  411   3.026   2.424   2.154 -0.9014 -0.6789 -2.3185
   18DG     H21  412   2.980   2.524   2.291  0.0986 -0.5986 -0.7458
   18DG     H22  413   2.784   2.386   2.140 -0.0267  0.1290  0.9390
   18DG     H23  414   2.774   2.493   2.274 -2.3607  0.8748  0.0290
   19DG      C1  415   0.582   4.713   5.081  0.3775 -0.3900 -0.1907
   19DG      C2  416   0.318   3.897   4.903  0.1609 -0.2081  0.4018
   19DG      H3  417   0.532   4.777   5.002  1.1603 -1.7022  1.1474
   19DG      H4  418   0.690   4.720   5.062  0.0399 -2.1338 -0.3328
   19DG      H5  419   0.565   4.764   5.172 -0.4922  1.0075  1.8335
   19DG      H6  420   0.419   3.889   4.871 -2.1211  0.1099  1.0017
   19DG      H7  421   0.287   3.803   4.951  0.4377 -0.6829  1.6537
   19DG      H8  422   0.246   3.921   4.821 -0.3600  4.9464  0.4380
   19DG      O9  423   0.533   4.586   5.077 -0.1804 -0.2959 -0.2352
   19DG     O10  424   0.297   4.002   4.998 -0.5203  0.6406 -0.5024
   19DG     C11  425   0.393   4.582   5.103 -1.0097 -0.6639 -0.2448
   19DG     C12  426   0.370   4.129   4.970 -0.0250 -0.0562  0.1625
   19DG     H13  427   0.334   4.587   5.010  2.2100 -2.0490  0.7792
   19DG     H14  428   0.362   4.651   5.182  3.7046  0.0600  0.9867
   19DG     H15  429   0.328   4.172   4.877 -3.0794  0.0922 -0.9883
   19DG     H16  430   0.478   4.104   4.957  1.3511  0.0911 -1.2393
   19DG     C17  431   0.369   4.443   5.165  0.4476 -0.0227 -0.5326
   19DG     C18  432   0.332   4.224   5.086 -0.1307  0.1777  0.7531
   19DG     O19  433   0.404   4.342   5.069  0.6173 -0.3130 -0.4318
   19DG     H20  434   0.262   4.442   5.192  0.4517  3.3634  1.3431
   19DG     H21  435   0.422   4.429   5.262 -0.7946  4.3012  2.1863
   19DG     H22  436   0.230   4.252   5.100  0.8981  0.4976  1.5556
   19DG     H23  437   0.364   4.175   5.175  0.0261  1.3578 -0.5940
   20DG      C1  438   0.433   3.562   4.736  0.7844  0.9415  0.5155
   20DG      C2  439   0.304   2.910   4.842  0.6109  0.0670  0.1029
   20DG      H3  440   0.538   3.542   4.761  0.1347  0.0632 -2.9624
   20DG      H4  441   0.416   3.668   4.769  1.7217 -0.0569 -0.5532
   20DG      H5  442   0.417   3.546   4.632  1.7072  0.1047 -0.9180
   20DG      H6  443   0.231   2.833   4.867 -2.0429  0.6368  1.9521
   20DG      H7  444   0.296   2.909   4.736  1.7433 -1.2817  1.4120
   20DG      H8  445   0.396   2.877   4.879  0.1592  0.2280  1.3677
   20DG      O9  446   0.352   3.485   4.820 -0.5549 -0.1952  0.2379
   20DG     O10  447   0.257   3.032   4.884 -0.0029  0.0792 -0.6493
   20DG     C11  448   0.383   3.488   4.959 -0.3207  0.2897 -0.1604
   20DG     C12  449   0.259   3.041   5.025  0.1136 -0.1643 -0.6674
   20DG     H13  450   0.395   3.583   5.005  0.8361 -1.4609 -0.9062
   20DG     H14  451   0.482   3.448   4.972 -2.2587  1.5635  0.0663
   20DG     H15  452   0.362   3.024   5.054 -0.7496 -0.6602 -2.4822
   20DG     H16  453   0.207   2.957   5.076  0.2860  0.3808  0.5400
   20DG     C17  454   0.281   3.410   5.033  0.1477 -0.2136  0.0967
   20DG     C18  455   0.217   3.189   5.066  0.0901  0.4431 -0.8526
   20DG     O19  456   0.287   3.277   4.984 -0.7299 -0.2398  0.1211
   20DG     H20  457   0.188   3.457   5.031  2.7037 -2.1698 -1.8046
   20DG     H21  458   0.312   3.415   5.142 -0.0870  1.5782  2.4614
   20DG     H22  459   0.106   3.198   5.061 -1.1109  0.5613  1.3186
   20DG     H23  460   0.254   3.201   5.166  0.5186 -0.0046 -1.6378
   21DG      C1  461   1.365   1.715   0.121 -0.4900 -0.9102 -0.1639
   21DG      C2  462   0.808   1.088   0.059  0.1215 -0.3533 -0.0357
   21DG      H3  463   1.308   1.696   0.211 -0.6749 -1.0499 -3.4985
   21DG      H4  464   1.374   1.822   0.093 -1.5403  0.6848  1.6677
   21DG      H5  465   1.460   1.666   0.135 -1.1356  0.6854 -1.2106
   21DG      H6  466   0.906   1.039   0.065 -0.1364 -1.2804  3.4125
   21DG      H7  467   0.769   1.111   0.159 -1.6545 -1.3622  0.6632
   21DG      H8  468   0.749   1.018   0.001 -0.5048  2.1435 -2.1971
   21DG      O9  469   1.296   1.642   0.018  0.6699  0.1270  0.2777
   21DG     O10  470   0.809   1.201  -0.024  0.3659 -0.2795 -0.3714
   21DG     C11  471   1.175   1.699  -0.024  0.0046  0.3061  0.1506
   21DG     C12  472   0.913   1.297   0.005 -0.1241 -0.1520 -0.4019
   21DG     H13  473   1.197   1.781  -0.097 -1.1811 -0.4948  0.6283
   21DG     H14  474   1.113   1.745   0.045  1.0652  0.3835 -1.7414
   21DG     H15  475   1.009   1.248  -0.009  0.9264  0.6093 -0.9519
   21DG     H16  476   0.889   1.319   0.111 -0.7202 -2.2705 -2.5660
   21DG     C17  477   1.095   1.596  -0.106 -0.0389 -0.4226  0.3343
   21DG     C18  478   0.935   1.425  -0.077 -0.0365 -0.2564 -0.3351
   21DG     O19  479   1.043   1.493  -0.024  0.4561 -0.3939  0.2366
   21DG     H20  480   1.155   1.549  -0.177 -1.2630 -1.8918  4.9742
   21DG     H21  481   1.011   1.647  -0.151 -2.5390 -1.5224 -1.0434
   21DG     H22  482   0.942   1.406  -0.183 -0.0747 -1.0607  1.1534
   21DG     H23  483   0.854   1.488  -0.072  2.0469 -1.3770 -0.4277
   22DG      C1  484   3.306   4.323   1.577  0.3807  0.2203 -0.6040
   22DG      C2  485   2.937   4.629   2.059  0.2763  0.4904  0.3466
   22DG      H3  486   3.363   4.377   1.653  1.2149 -0.2726  0.0134
   22DG      H4  487   3.325   4.356   1.475 -4.0134  3.1846 -0.3796
   22DG      H5  488   3.315   4.210   1.571  1.2451 -2.7749 -0.9641
   22DG      H6  489   2.929   4.740   2.050  1.0025  2.0632  0.3117
   22DG      H7  490   2.850   4.596   2.120 -2.5637 -0.0923 -0.3144
   22DG      H8  491   3.032   4.601   2.107  1.0086  2.8300  0.0792
   22DG      O9  492   3.173   4.367   1.621 -0.6060 -0.3547 -0.6508
   22DG     O10  493   2.940   4.579   1.928 -0.3001  0.4544 -0.0150
   22DG     C11  494   3.063   4.346   1.528  0.1695  0.5794  0.2530
   22DG     C12  495   2.824   4.601   1.856  0.0410 -0.3375  0.1946
   22DG     H13  496   3.016   4.252   1.554  0.0301  3.1780 -1.1513
   22DG     H14  497   3.097   4.322   1.426  1.0059  0.5733 -0.5110
   22DG     H15  498   2.793   4.702   1.879  1.3200  1.3240 -1.1924
   22DG     H16  499   2.752   4.529   1.899  0.7253  0.2017 -0.5428
   22DG     C17  500   2.950   4.452   1.537 -0.0796 -0.5842 -0.2580
   22DG     C18  501   2.834   4.585   1.710 -0.5756  0.0706 -0.4747
   22DG     O19  502   2.930   4.481   1.677 -0.0943  0.0387  0.0283
   22DG     H20  503   2.853   4.407   1.494 -0.9213  0.5790 -0.2579
   22DG     H21  504   2.974   4.542   1.481 -0.6882  0.0950  0.9261
   22DG     H22  505   2.739   4.566   1.679 -1.2511 -0.6791 -0.0269
   22DG     H23  506   2.874   4.672   1.665 -2.4354  0.7273  2.1006
   23DG      C1  507   1.460   3.615   3.800  0.2209 -0.3983  0.0723
   23DG      C2  508   1.486   3.831   4.547 -0.0929  0.2219  0.2227
   23DG      H3  509   1.358   3.611   3.837  2.8405 -0.3044  0.6895
   23DG      H4  510   1.472   3.530   3.741 -0.7019 -3.0722 -1.8923
   23DG      H5  511   1.459   3.716   3.752  3.3342  1.6278 -1.7921
   23DG      H6  512   1.458   3.910   4.482  0.2292  1.2002  0.6279
   23DG      H7  513   1.398   3.797   4.604 -3.8361 -1.6822 -0.1923
   23DG      H8  514   1.560   3.865   4.618  2.0971  1.4646 -3.0606
   23DG      O9  515   1.542   3.620   3.919 -0.4226 -0.1406 -0.2819
   23DG     O10  516   1.544   3.718   4.480 -0.5479  0.2408 -0.7258
   23DG     C11  517   1.507   3.517   4.019 -0.1289  0.2950  0.3641
   23DG     C12  518   1.662   3.752   4.402  0.0163  0.2782 -0.8337
   23DG     H13  519   1.509   3.417   3.975 -0.3114 -0.4215 -0.6856
   23DG     H14  520   1.414   3.526   4.067  0.6513  1.1134  0.0201
   23DG     H15  521   1.747   3.776   4.471  3.6449 -0.3022  2.5828
   23DG     H16  522   1.645   3.838   4.332  0.0239 -0.7795 -0.4146
   23DG     C17  523   1.623   3.518   4.124 -0.9812  0.4018  0.5664
   23DG     C18  524   1.704   3.636   4.311 -1.0036  0.1882 -0.0720
   23DG     O19  525   1.603   3.625   4.215  0.5578 -0.4084  0.3783
   23DG     H20  526   1.717   3.532   4.067  0.6509 -0.2100 -0.2458
   23DG     H21  527   1.625   3.419   4.178  2.9445 -0.7743 -0.5412
   23DG     H22  528   1.791   3.662   4.256 -2.1279  2.1497 -1.1051
   23DG     H23  529   1.721   3.548   4.371 -0.2262 -0.0936  2.5884
   24DG      C1  530   2.192   2.684   0.219  0.0933  0.1516 -0.2911
   24DG      C2  531   1.578   2.941  -0.146 -0.7551  0.5609  0.3397
   24DG      H3  532   2.257   2.729   0.146 -0.9506 -0.1098  2.4073
   24DG      H4  533   2.222   2.580   0.255  1.0841  1.1335  1.8087
   24DG      H5  534   2.202   2.748   0.304 -0.4910  0.4650  2.3124
   24DG      H6  535   1.577   3.031  -0.206 -0.4578 -0.5006  0.1783
   24DG      H7  536   1.502   2.873  -0.174  1.2205  2.4614  1.2015
   24DG      H8  537   1.554   2.961  -0.044  1.0286  2.3417  0.0518
   24DG      O9  538   2.056   2.675   0.178 -0.1000 -0.0224  0.5368
   24DG     O10  539   1.701   2.875  -0.149  0.8399  0.0380 -0.2688
   24DG     C11  540   2.042   2.608   0.047 -0.7883  0.2389  0.0258
   24DG     C12  541   1.807   2.969  -0.141 -0.0200  0.4744 -0.0078
   24DG     H13  542   1.944   2.557   0.044 -1.2238 -0.2153 -1.1374
   24DG     H14  543   2.117   2.529   0.040 -0.2895  3.1494  0.5372
   24DG     H15  544   1.808   3.016  -0.043 -2.8857  1.4805  0.5517
   24DG     H16  545   1.797   3.050  -0.219  2.4552  1.0572  0.1440
   24DG     C17  546   2.037   2.692  -0.084  0.1875 -0.2394 -0.2030
   24DG     C18  547   1.940   2.890  -0.152  0.0879  0.4944  0.7137
   24DG     O19  548   1.947   2.792  -0.057 -0.0927  0.3824 -0.3330
   24DG     H20  549   2.008   2.629  -0.166 -1.2199  0.8316  0.9002
   24DG     H21  550   2.134   2.733  -0.107 -1.4360 -2.7461  1.0132
   24DG     H22  551   1.941   2.852  -0.252  4.1887  0.5377 -1.1753
   24DG     H23  552   2.032   2.945  -0.145  0.1782 -0.9602  1.5512
   25DG      C1  553   1.299   1.692   4.021 -0.4356 -0.2375 -0.9976
   25DG      C2  554   1.653   1.206   3.686  0.4058  0.7613  0.1412
   25DG      H3  555   1.278   1.799   4.034  0.1126 -0.0420 -2.2952
   25DG      H4  556   1.362   1.682   4.109 -0.9714 -1.2438 -2.5612
   25DG      H5  557   1.215   1.621   4.026 -1.1735  1.8700 -2.1529
   25DG      H6  558   1.616   1.129   3.614  0.7172  1.7580 -1.7489
   25DG      H7  559   1.754   1.240   3.654 -0.8761 -0.6389  2.5133
   25DG      H8  560   1.672   1.156   3.783 -1.3506  1.3168  1.2216
   25DG      O9  561   1.375   1.677   3.896  0.3724 -0.0516 -0.6181
   25DG     O10  562   1.564   1.307   3.706 -0.0421  0.8991 -0.1637
   25DG     C11  563   1.292   1.698   3.782  0.3032  0.0064  0.3150
   25DG     C12  564   1.470   1.334   3.605 -0.0357 -0.3754  0.3930
   25DG     H13  565   1.224   1.785   3.783 -0.9174  1.8772  0.2273
   25DG     H14  566   1.215   1.622   3.776  3.4891  2.6870 -1.0321
   25DG     H15  567   1.409   1.244   3.595  1.6606 -2.7398 -2.3458
   25DG     H16  568   1.520   1.356   3.516 -2.0569 -0.6535  0.9325
   25DG     C17  569   1.382   1.691   3.654 -0.5092  0.2056 -0.3446
   25DG     C18  570   1.381   1.451   3.639 -0.0677  0.0666  0.1486
   25DG     O19  571   1.457   1.573   3.654 -0.0591 -0.6049 -0.1336
   25DG     H20  572   1.448   1.769   3.662  1.1163  0.3401 -1.7244
   25DG     H21  573   1.332   1.705   3.560 -3.2936 -0.6476 -4.3726
   25DG     H22  574   1.320   1.464   3.545  0.0100 -1.9106 -2.7194
   25DG     H23  575   1.322   1.428   3.727  0.8399  0.8232 -0.0227
   26DG      C1  576   3.790   3.257   4.523  0.5067  0.0703 -0.1132
   26DG      C2  577   4.383   3.172   4.782  0.3416 -0.1781  0.6870
   26DG      H3  578   3.724   3.299   4.446  1.1366 -0.8638 -0.7619
   26DG      H4  579   3.744   3.262   4.624  0.0865 -2.3194  0.3619
   26DG      H5  580   3.793   3.148   4.499  0.3791  1.0390  0.1703
   26DG      H6  581   4.377   3.180   4.885  0.9852 -0.3921 -1.1720
   26DG      H7  582   4.379   3.069   4.753  1.5058  0.4457  0.3755
   26DG      H8  583   4.489   3.188   4.772  1.2204  0.0677  3.3477
   26DG      O9  584   3.909   3.330   4.529 -0.3983 -0.5597 -0.3004
   26DG     O10  585   4.304   3.265   4.707 -0.6026  0.6194  0.0485
   26DG     C11  586   3.896   3.472   4.544 -0.0553  0.1260  0.1991
   26DG     C12  587   4.300   3.388   4.777  0.2824 -0.4167  0.1371
   26DG     H13  588   3.837   3.486   4.633  0.5519 -0.5376 -0.4299
   26DG     H14  589   3.834   3.523   4.469  0.6327 -0.4913  0.0404
   26DG     H15  590   4.395   3.422   4.817 -2.1675  0.9700 -0.1467
   26DG     H16  591   4.239   3.387   4.868  0.7898  0.6063 -0.2753
   26DG     C17  592   4.038   3.533   4.561  0.2720  0.4280 -0.1190
   26DG     C18  593   4.230   3.492   4.697 -0.0773  0.8680 -0.6320
   26DG     O19  594   4.107   3.442   4.643 -0.6844 -0.1284  0.1241
   26DG     H20  595   4.049   3.634   4.592  1.4300 -0.0588 -1.1772
   26DG     H21  596   4.081   3.532   4.463 -0.1843 -0.5691  1.1122
   26DG     H22  597   4.213   3.591   4.740 -0.6136 -3.3163 -1.2873
   26DG     H23  598   4.287   3.510   4.609 -0.1063 -1.2617 -1.1778
   27DG      C1  599   3.852   5.270   1.254 -0.5866 -0.0667  0.3642
   27DG      C2  600   3.108   5.603   1.595 -0.0291  0.2333 -0.8344
   27DG      H3  601   3.805   5.204   1.176 -2.1795 -2.8722 -0.3775
   27DG      H4  602   3.932   5.223   1.306 -0.8259  0.8396  2.0859
   27DG      H5  603   3.893   5.355   1.197 -2.1721 -0.9034  2.0858
   27DG      H6  604   3.133   5.704   1.558 -0.0667 -0.0915  0.6947
   27DG      H7  605   3.043   5.552   1.527 -0.0733 -2.4908  2.6735
   27DG      H8  606   3.045   5.626   1.684 -0.3316  2.6670  0.1533
   27DG      O9  607   3.756   5.320   1.348  0.2263  0.2972 -0.5174
   27DG     O10  608   3.228   5.535   1.634  0.4559  0.5127  0.1038
   27DG     C11  609   3.679   5.211   1.407 -0.5241 -0.7275  0.0535
   27DG     C12  610   3.308   5.494   1.526  0.3959  0.6603  0.2139
   27DG     H13  611   3.748   5.140   1.446 -0.2656 -0.4836 -1.7190
   27DG     H14  612   3.622   5.163   1.327 -1.9534 -2.9884 -1.2469
   27DG     H15  613   3.349   5.595   1.487 -1.8615  1.6069  1.5317
   27DG     H16  614   3.256   5.446   1.448  1.7305  1.8017  1.8419
   27DG     C17  615   3.598   5.267   1.519 -0.3110  0.2728 -0.2559
   27DG     C18  616   3.427   5.409   1.586  0.7380  0.3367 -0.5914
   27DG     O19  617   3.502   5.356   1.477  0.1774 -0.0915 -0.0384
   27DG     H20  618   3.674   5.300   1.588  0.2478 -0.4296 -1.0242
   27DG     H21  619   3.542   5.188   1.570  1.2994  0.7083  0.6231
   27DG     H22  620   3.498   5.476   1.636 -0.3679  1.1022 -0.5478
   27DG     H23  621   3.382   5.336   1.647  0.2683 -0.5774  0.4525
   28DG      C1  622   2.547   3.354   2.369 -0.4375 -1.0000  0.9226
   28DG      C2  623   3.257   3.466   2.720 -0.0063 -0.3867  0.6645
   28DG      H3  624   2.509   3.386   2.276  1.7855  0.6490  2.5829
   28DG      H4  625   2.527   3.432   2.444 -0.0584  0.7229 -0.6707
   28DG      H5  626   2.499   3.260   2.400  2.3715  0.9062 -0.7150
   28DG      H6  627   3.262   3.381   2.790 -0.8744  1.2303 -2.5489
   28DG      H7  628   3.355   3.488   2.683 -0.7185  1.6297 -0.7401
   28DG      H8  629   3.218   3.556   2.769  3.4112 -1.6497  5.6759
   28DG      O9  630   2.687   3.327   2.375  0.4180 -0.0355 -0.6344
   28DG     O10  631   3.173   3.429   2.614 -0.1245  0.6200  0.0118
   28DG     C11  632   2.755   3.423   2.302  0.0905 -0.0600  0.0259
   28DG     C12  633   3.040   3.400   2.656 -0.1910  0.1582 -0.1632
   28DG     H13  634   2.717   3.525   2.320  0.0172 -4.1869 -1.3445
   28DG     H14  635   2.730   3.411   2.194  1.9153 -1.0940  0.4507
   28DG     H15  636   2.980   3.487   2.682 -1.2127  0.4651 -3.9551
   28DG     H16  637   3.041   3.324   2.739 -0.3991 -1.1860 -0.5815
   28DG     C17  638   2.900   3.407   2.330 -0.0479  0.3449 -0.1646
   28DG     C18  639   2.967   3.333   2.542  0.6259  1.0831  0.0278
   28DG     O19  640   2.931   3.442   2.463  0.4439  0.0601 -0.3305
   28DG     H20  641   2.961   3.464   2.258  1.0791  0.3837 -0.2995
   28DG     H21  642   2.920   3.303   2.303 -1.4380  0.2946 -0.3883
   28DG     H22  643   3.026   3.260   2.479  0.3428  0.4309 -1.3267
   28DG     H23  644   2.881   3.284   2.583  2.1811 -0.9904  1.8080
   29DG      C1  645   0.320   0.611   4.290  0.0891  0.2563 -0.1629
   29DG      C2  646   0.650   1.105   4.553 -0.3705  0.0852 -0.2684
   29DG      H3  647   0.263   0.594   4.201 -1.3720  0.4243 -1.6939
   29DG      H4  648   0.243   0.665   4.337  1.6738  1.3107  0.4303
   29DG      H5  649   0.351   0.527   4.340 -2.0295  1.8014 -2.9340
   29DG      H6  650   0.633   1.049   4.651 -2.0434 -0.2845  0.0056
   29DG      H7  651   0.736   1.175   4.565 -0.3038 -2.8728 -0.6053
   29DG      H8  652   0.563   1.163   4.538  1.0139 -0.1922  1.1212
   29DG      O9  653   0.429   0.704   4.264  0.4001  0.3626  0.2891
   29DG     O10  654   0.669   1.035   4.430 -0.2606  0.0514 -0.5469
   29DG     C11  655   0.394   0.783   4.151  0.4837  0.1178  0.4879
   29DG     C12  656   0.718   1.099   4.315 -0.1331  0.0844 -0.4823
   29DG     H13  657   0.298   0.834   4.164 -1.5604  0.2613  0.7377
   29DG     H14  658   0.370   0.724   4.054 -2.9910  1.4244  2.4342
   29DG     H15  659   0.822   1.117   4.321  0.4066 -1.1366 -0.3236
   29DG     H16  660   0.671   1.197   4.286 -1.8109  1.1576  0.3635
   29DG     C17  661   0.517   0.870   4.117 -0.2183  0.0122  0.0277
   29DG     C18  662   0.690   0.993   4.208  0.4470 -0.1786 -0.7377
   29DG     O19  663   0.550   0.958   4.224 -0.1603  0.0251 -0.5203
   29DG     H20  664   0.507   0.922   4.028  2.1727 -3.2346  2.9655
   29DG     H21  665   0.602   0.794   4.100  3.2243 -2.7454  0.0387
   29DG     H22  666   0.720   1.033   4.113 -1.4377 -2.8332 -0.0367
   29DG     H23  667   0.745   0.894   4.224  0.7641  0.1685  1.5874
   30DG      C1  668   3.622   3.013   4.972  0.1206 -0.5934 -0.6036
   30DG      C2  669   3.560   3.098   4.286  0.8218 -0.3282 -0.4390
   30DG      H3  670   3.711   2.944   4.971  3.6775 -2.8156 -1.3832
   30DG      H4  671   3.566   2.971   5.052  1.8433 -0.5858  0.7242
   30DG      H5  672   3.642   3.117   4.989 -1.6558 -1.0484 -1.7449
   30DG      H6  673   3.661   3.054   4.286  1.3903 -1.0831  0.1734
   30DG      H7  674   3.525   3.089   4.190  2.3860  0.8195 -0.4541
   30DG      H8  675   3.567   3.203   4.314 -0.4673 -2.3645  1.5612
   30DG      O9  676   3.572   3.004   4.839  0.2302 -0.1700 -0.1569
   30DG     O10  677   3.462   3.012   4.351 -0.3478 -0.5940  0.2437
   30DG     C11  678   3.526   2.880   4.794  0.5540 -0.2456  0.1772
   30DG     C12  679   3.348   3.073   4.410 -0.1746 -0.3178  0.2096
   30DG     H13  680   3.445   2.843   4.854 -1.6858 -3.2544  0.5255
   30DG     H14  681   3.604   2.805   4.800  0.8539  1.4815  1.2279
   30DG     H15  682   3.272   3.105   4.335  0.4270  2.7062  1.8364
   30DG     H16  683   3.377   3.166   4.461  1.0905 -0.1337  2.8819
   30DG     C17  684   3.475   2.898   4.648 -0.4839  0.2816 -0.7762
   30DG     C18  685   3.290   2.991   4.529 -0.0916 -0.0283  1.1666
   30DG     O19  686   3.365   2.989   4.645 -0.5907  0.4089  0.2852
   30DG     H20  687   3.450   2.805   4.620  1.6132 -2.3964 -1.2297
   30DG     H21  688   3.555   2.917   4.579  3.4763 -0.5076 -0.8638
   30DG     H22  689   3.192   3.033   4.560 -1.9536  1.5867 -1.2743
   30DG     H23  690   3.257   2.893   4.495 -1.9575  0.8139 -1.7104
   31DG      C1  691   4.153   1.779   3.251  0.7798  0.0179 -0.0640
   31DG      C2  692   3.714   1.161   3.412 -0.0024 -0.2355 -0.9028
   31DG      H3  693   4.125   1.784   3.147  0.7811  2.5853 -3.5094
   31DG      H4  694   4.250   1.727   3.247  1.4443 -0.0070 -1.4683
   31DG      H5  695   4.149   1.874   3.292  1.1020 -3.9603 -1.6314
   31DG      H6  696   3.679   1.128   3.512  0.2247 -0.3049  0.5057
   31DG      H7  697   3.645   1.128   3.329 -1.1955 -0.1122  1.6979
   31DG      H8  698   3.812   1.112   3.412 -0.1164  1.5904  2.3825
   31DG      O9  699   4.057   1.702   3.318 -0.3782 -0.1693  0.4426
   31DG     O10  700   3.726   1.298   3.409  0.2271 -0.3581  0.2468
   31DG     C11  701   3.926   1.749   3.300  0.1366 -0.1087  0.1033
   31DG     C12  702   3.764   1.348   3.283 -0.7221  0.0536 -0.0998
   31DG     H13  703   3.903   1.733   3.195 -2.9716  1.1784  1.1255
   31DG     H14  704   3.935   1.857   3.318 -0.0156  0.2240  0.1945
   31DG     H15  705   3.721   1.297   3.201  1.5300  2.5377 -1.0558
   31DG     H16  706   3.875   1.339   3.278  1.7623  0.4956 -1.6650
   31DG     C17  707   3.815   1.692   3.385 -0.7523  0.4659  0.4313
   31DG     C18  708   3.727   1.503   3.289 -0.0206  0.6632 -0.3319
   31DG     O19  709   3.818   1.556   3.382  0.5622 -0.1216  0.0095
   31DG     H20  710   3.717   1.738   3.363  1.8284  1.1543 -0.2231
   31DG     H21  711   3.834   1.726   3.486  0.6196 -1.1515 -0.9903
   31DG     H22  712   3.732   1.556   3.192 -1.7667 -2.0150  0.9685
   31DG     H23  713   3.624   1.512   3.337 -2.2311 -2.6107 -0.8245
   32DG      C1  714   2.248   5.163   0.531 -0.2957 -1.0321 -0.2854
   32DG      C2  715   2.365   4.749   1.003 -0.3059 -0.0925 -0.3249
   32DG      H3  716   2.360   5.178   0.535 -0.3156  2.2674 -0.5655
   32DG      H4  717   2.200   5.198   0.620 -1.0726  0.8732  1.6961
   32DG      H5  718   2.216   5.239   0.466  1.1249  2.3402  0.1487
   32DG      H6  719   2.459   4.804   1.004 -0.6098 -0.9956 -1.3284
   32DG      H7  720   2.310   4.799   1.084  1.6707  0.9691  0.6412
   32DG      H8  721   2.403   4.650   1.041  2.6802  0.3833 -2.3368
   32DG      O9  722   2.207   5.030   0.525  0.2018 -0.1869  0.1037
   32DG     O10  723   2.301   4.753   0.873 -0.1832 -0.3726 -0.0466
   32DG     C11  724   2.070   4.999   0.556  0.3460  0.3880  0.2480
   32DG     C12  725   2.168   4.696   0.891 -0.2594 -0.5107  0.0342
   32DG     H13  726   2.002   5.035   0.480 -2.0825  0.4609 -0.8349
   32DG     H14  727   2.040   5.056   0.647 -1.1778  1.7410 -0.1198
   32DG     H15  728   2.108   4.759   0.960  0.1744  1.8456  0.1343
   32DG     H16  729   2.160   4.596   0.923  0.6019  0.7402 -0.1711
   32DG     C17  730   2.057   4.849   0.575  0.4930  0.1368  0.2398
   32DG     C18  731   2.114   4.686   0.742  0.3355  0.1114 -0.1117
   32DG     O19  732   2.134   4.824   0.690  0.1099 -0.3655 -0.1183
   32DG     H20  733   2.098   4.788   0.493  1.9870 -1.1021  0.3670
   32DG     H21  734   1.953   4.812   0.598 -1.0529 -0.2093 -2.9176
   32DG     H22  735   2.170   4.610   0.682 -0.4119 -2.3927  1.4289
   32DG     H23  736   2.005   4.658   0.746  1.3460  0.1734  2.2826
   33DG      C1  737   3.645   4.509   4.184  0.7958  0.4496 -0.1279
   33DG      C2  738   3.987   3.873   4.104 -0.4294  0.3378  0.0848
   33DG      H3  739   3.567   4.587   4.166  1.9823  0.3059 -2.0965
   33DG      H4  740   3.719   4.549   4.237 -0.6591 -4.0755 -2.6318
   33DG      H5  741   3.608   4.436   4.251 -0.4594  0.5535  1.1739
   33DG      H6  742   4.062   3.917   4.172  0.9160 -0.8221  0.7466
   33DG      H7  743   3.928   3.822   4.176 -1.7966  0.1169 -2.3962
   33DG      H8  744   4.041   3.797   4.051 -2.8432  1.0320  0.6954
   33DG      O9  745   3.701   4.440   4.076 -0.2540 -0.1186  0.0178
   33DG     O10  746   3.899   3.946   4.023  0.3961  0.4215 -0.4461
   33DG     C11  747   3.604   4.356   4.012 -0.9246  0.4522  0.2465
   33DG     C12  748   3.968   4.051   3.952  0.1430  0.3567  0.0875
   33DG     H13  749   3.537   4.422   3.959 -1.2907  0.9248  2.0660
   33DG     H14  750   3.550   4.298   4.076 -0.5664  0.4622 -2.6594
   33DG     H15  751   4.048   3.998   3.897 -1.7415  1.0948  1.4536
   33DG     H16  752   4.021   4.118   4.016  1.7991 -0.0791  0.2656
   33DG     C17  753   3.678   4.273   3.902 -0.3784 -0.3829 -0.1144
   33DG     C18  754   3.864   4.127   3.870  0.1097  0.1140 -0.3499
   33DG     O19  755   3.773   4.183   3.963  0.6637 -0.2822 -0.1950
   33DG     H20  756   3.726   4.340   3.827  0.6369  1.1961  1.4468
   33DG     H21  757   3.605   4.209   3.855 -0.1275  0.4224  0.3351
   33DG     H22  758   3.905   4.212   3.820 -1.8472  0.5288  0.6945
   33DG     H23  759   3.810   4.052   3.814 -0.4878  1.6929  1.9853
   34DG      C1  760   2.615   1.376   3.230  0.6627  0.0306  0.0490
   34DG      C2  761   2.767   1.441   2.373 -0.8411  0.9470 -0.0835
   34DG      H3  762   2.588   1.472   3.198 -1.6412  0.9414  0.5604
   34DG      H4  763   2.721   1.372   3.251  1.0026 -1.0184  3.5896
   34DG      H5  764   2.561   1.354   3.318  0.4430 -0.6647  0.2586
   34DG      H6  765   2.737   1.538   2.403  0.5648  2.7420  0.8124
   34DG      H7  766   2.869   1.439   2.344  0.3390  0.5393  1.1491
   34DG      H8  767   2.721   1.412   2.284 -2.3643  0.0094 -0.3822
   34DG      O9  768   2.576   1.276   3.132  0.4808 -0.5211 -0.2595
   34DG     O10  769   2.742   1.350   2.478  0.1633  0.1026 -0.4000
   34DG     C11  770   2.659   1.295   3.022 -0.6784 -1.0326 -0.5536
   34DG     C12  771   2.611   1.351   2.529  0.1074 -0.2191  0.3710
   34DG     H13  772   2.759   1.248   3.041 -2.5008 -0.8915  0.4461
   34DG     H14  773   2.687   1.400   3.014  1.4227 -1.2103  0.7451
   34DG     H15  774   2.535   1.312   2.460 -1.3363 -0.0816  0.0820
   34DG     H16  775   2.574   1.449   2.560 -2.3740  1.0495 -1.6129
   34DG     C17  776   2.597   1.234   2.888  0.7722 -0.9438  0.2167
   34DG     C18  777   2.590   1.255   2.643 -0.2891 -0.1798 -0.0898
   34DG     O19  778   2.648   1.299   2.771 -0.3454 -1.0568  0.5537
   34DG     H20  779   2.487   1.244   2.904 -1.3236 -1.4266 -0.9564
   34DG     H21  780   2.616   1.125   2.890 -3.6254  1.1794  2.2068
   34DG     H22  781   2.482   1.246   2.662 -2.7079  0.6702  0.7366
   34DG     H23  782   2.636   1.161   2.613  1.8009 -0.8697  1.2550
   35DG      C1  783   3.614   5.073   0.942 -0.3246  0.6704 -0.4379
   35DG      C2  784   3.114   4.407   0.985 -0.8069  0.0383  0.1347
   35DG      H3  785   3.719   5.091   0.947 -1.0622  0.4033 -0.4575
   35DG      H4  786   3.583   5.093   1.045  1.4816 -0.8424  0.2591
   35DG      H5  787   3.573   5.150   0.875 -1.5139  1.5741  1.6008
   35DG      H6  788   3.131   4.300   0.966 -1.2897  0.1147  2.5144
   35DG      H7  789   3.113   4.432   1.091  1.5887  0.9204  0.1343
   35DG      H8  790   3.018   4.412   0.943  1.5708 -1.6949 -1.7575
   35DG      O9  791   3.578   4.942   0.907 -0.2605 -0.3196  0.2957
   35DG     O10  792   3.196   4.494   0.910 -0.5639  0.0288 -0.6040
   35DG     C11  793   3.431   4.934   0.899 -0.4368  0.5468  0.6265
   35DG     C12  794   3.336   4.471   0.942  0.4654  0.1686 -0.6732
   35DG     H13  795   3.392   5.012   0.839  1.1273 -1.0017 -0.7603
   35DG     H14  796   3.386   4.957   1.000  0.0735  0.2151 -1.1304
   35DG     H15  797   3.366   4.364   0.909  2.0724 -1.2274 -0.4926
   35DG     H16  798   3.350   4.479   1.046 -3.0580 -2.6262  0.3410
   35DG     C17  799   3.380   4.797   0.853  0.0776  0.3456 -0.8075
   35DG     C18  800   3.432   4.563   0.877 -0.3325  0.8223  0.3530
   35DG     O19  801   3.433   4.694   0.931 -0.0636 -0.6098 -0.2248
   35DG     H20  802   3.390   4.771   0.746 -0.3588 -0.0436 -0.3479
   35DG     H21  803   3.272   4.801   0.867 -2.8880  1.8555 -0.2022
   35DG     H22  804   3.528   4.516   0.887 -0.3692  0.5749  0.5489
   35DG     H23  805   3.410   4.574   0.766 -1.0788 -0.0967 -0.3143
   36DG      C1  806   4.955   1.297   4.736  0.1408  0.2717  0.6243
   36DG      C2  807   5.436   1.808   4.544  0.0647  0.7683  0.0628
   36DG      H3  808   5.041   1.246   4.791  1.0917 -3.1117 -0.1008
   36DG      H4  809   4.880   1.228   4.701  1.1795 -1.7074  1.7116
   36DG      H5  810   4.912   1.370   4.798 -0.3724  0.2093 -0.3955
   36DG      H6  811   5.441   1.749   4.643 -2.5735 -2.0668  0.3462
   36DG      H7  812   5.536   1.812   4.509 -1.7118  0.5318 -0.5408
   36DG      H8  813   5.398   1.911   4.559  0.5971 -1.3396 -0.9934
   36DG      O9  814   5.004   1.368   4.631 -0.5059 -0.2649 -0.2725
   36DG     O10  815   5.353   1.738   4.450  0.6460 -0.0598 -0.0139
   36DG     C11  816   5.073   1.292   4.532  0.3720 -1.1137 -0.0464
   36DG     C12  817   5.413   1.615   4.410  0.0256 -0.0382  0.3428
   36DG     H13  818   5.002   1.228   4.476  1.6815  2.2036 -0.7946
   36DG     H14  819   5.139   1.226   4.584 -1.2170 -0.6023 -3.0900
   36DG     H15  820   5.465   1.562   4.497  2.0677  3.5041  2.4286
   36DG     H16  821   5.485   1.634   4.326 -0.9154  1.2681  0.1502
   36DG     C17  822   5.139   1.370   4.412 -0.0820  0.1699 -0.3183
   36DG     C18  823   5.306   1.517   4.361 -0.7535  0.0738  0.5877
   36DG     O19  824   5.248   1.445   4.468 -0.3785 -0.3610 -0.2598
   36DG     H20  825   5.060   1.429   4.365 -3.6225 -0.0528 -1.6305
   36DG     H21  826   5.176   1.303   4.332  1.3267 -0.4367 -2.4419
   36DG     H22  827   5.233   1.572   4.307  0.7983  1.6618 -0.3332
   36DG     H23  828   5.356   1.451   4.286 -3.6709  0.9829 -0.4920
   37DG      C1  829   0.131   0.573   0.099 -0.3809  0.1119 -0.3052
   37DG      C2  830   0.853   0.727   0.136  0.3982 -0.5330  0.3973
   37DG      H3  831   0.155   0.488   0.167  1.3182  1.0444 -0.1818
   37DG      H4  832   0.048   0.551   0.033 -0.3698 -0.7427  1.2120
   37DG      H5  833   0.118   0.668   0.161 -2.4252 -0.5580  0.1507
   37DG      H6  834   0.936   0.779   0.084 -0.8837 -2.7717 -0.9614
   37DG      H7  835   0.790   0.797   0.183  1.3544 -1.1902  1.9346
   37DG      H8  836   0.899   0.663   0.215  2.4607 -2.6475 -0.0631
   37DG      O9  837   0.242   0.600   0.009  0.2685  0.3783  0.3215
   37DG     O10  838   0.779   0.656   0.041 -0.1566 -0.0176  0.1474
   37DG     C11  839   0.290   0.485  -0.061 -0.1212 -0.2726 -0.1414
   37DG     C12  840   0.706   0.715  -0.060 -0.3536  0.2142 -0.0631
   37DG     H13  841   0.221   0.464  -0.142  1.2485 -0.9525  0.1171
   37DG     H14  842   0.295   0.399   0.004 -1.3825  2.1799 -0.3571
   37DG     H15  843   0.766   0.770  -0.141  2.5382  2.6546  0.3019
   37DG     H16  844   0.642   0.787  -0.005 -0.4852  0.4728  2.1092
   37DG     C17  845   0.423   0.503  -0.129 -0.3395 -0.5513 -0.0557
   37DG     C18  846   0.617   0.625  -0.127  0.3768  0.6205 -0.0604
   37DG     O19  847   0.503   0.589  -0.052  0.3199  0.0455 -0.1663
   37DG     H20  848   0.406   0.559  -0.219  0.2868  2.4385 -1.1459
   37DG     H21  849   0.473   0.409  -0.152 -1.8554 -1.5101  2.8938
   37DG     H22  850   0.592   0.682  -0.218  0.5884  0.3431 -0.2286
   37DG     H23  851   0.674   0.543  -0.163 -1.7217 -2.9872 -1.8437
   38DG      C1  852   2.323   1.993   0.881 -0.1629 -0.4779  0.0509
   38DG      C2  853   2.589   1.610   1.137 -0.1667 -0.1515 -0.0970
   38DG      H3  854   2.318   2.056   0.797  1.9306  1.7221 -1.4745
   38DG      H4  855   2.425   1.982   0.914  0.4543 -1.6232  1.3915
   38DG      H5  856   2.271   2.039   0.970  1.8424  0.4819 -1.2064
   38DG      H6  857   2.598   1.714   1.187  2.2775  0.7681 -1.9794
   38DG      H7  858   2.674   1.554   1.170 -0.6006 -3.1336  0.6539
   38DG      H8  859   2.592   1.634   1.034  2.4775  1.5606  0.0618
   38DG      O9  860   2.249   1.877   0.865 -1.1851 -0.1343 -0.3707
   38DG     O10  861   2.481   1.534   1.181  0.4525  0.1295  0.0584
   38DG     C11  862   2.280   1.781   0.969 -0.5089  0.1878  0.5033
   38DG     C12  863   2.449   1.421   1.100  0.0178 -0.8970  0.1774
   38DG     H13  864   2.247   1.806   1.069  0.6235 -1.9772  0.5979
   38DG     H14  865   2.395   1.774   0.963  2.1325 -0.1496  0.9453
   38DG     H15  866   2.384   1.352   1.160 -0.6069 -1.1296  0.1894
   38DG     H16  867   2.534   1.358   1.067 -0.0558  0.7278 -1.3702
   38DG     C17  868   2.214   1.645   0.929 -0.0379  0.9065 -0.0373
   38DG     C18  869   2.367   1.473   0.973 -0.0839 -0.0689 -0.3987
   38DG     O19  870   2.250   1.532   1.012  0.2494 -0.1250 -0.7080
   38DG     H20  871   2.245   1.630   0.825  0.7155 -0.2805 -0.6693
   38DG     H21  872   2.109   1.666   0.915 -2.0323 -0.3102 -1.1230
   38DG     H22  873   2.430   1.528   0.911  1.4999 -3.4990 -3.4199
   38DG     H23  874   2.344   1.384   0.926 -0.0313 -2.5334  1.3838
   39DG      C1  875   0.634   4.825   2.858 -0.2503  0.2352 -0.3826
   39DG      C2  876   0.705   5.361   2.453  0.2891 -0.1072  0.4220
   39DG      H3  877   0.713   4.834   2.929 -0.0030 -1.3038  0.5141
   39DG      H4  878   0.657   4.747   2.777 -3.2772 -0.6411  0.7948
   39DG      H5  879   0.548   4.782   2.908  2.5198  3.2591  0.9051
   39DG      H6  880   0.749   5.372   2.357 -3.3691 -3.0012  0.5335
   39DG      H7  881   0.780   5.379   2.530  0.7814  0.6509  2.0948
   39DG      H8  882   0.674   5.262   2.455 -0.7540  0.8141 -1.1828
   39DG      O9  883   0.583   4.948   2.820  0.0386 -0.3003  0.0157
   39DG     O10  884   0.589   5.443   2.478  0.1144  0.3391  0.1118
   39DG     C11  885   0.510   4.941   2.697 -0.2620 -0.4349 -0.1289
   39DG     C12  886   0.527   5.427   2.606 -0.6364 -0.4582 -0.0251
   39DG     H13  887   0.434   4.857   2.690 -1.2482 -2.4750  0.9951
   39DG     H14  888   0.587   4.941   2.623 -1.0423 -0.5835 -3.7290
   39DG     H15  889   0.475   5.525   2.616 -0.8895  0.0789 -1.2308
   39DG     H16  890   0.609   5.423   2.685  1.4599 -3.5174 -1.9779
   39DG     C17  891   0.437   5.079   2.681 -0.0203  0.1530 -0.1489
   39DG     C18  892   0.431   5.314   2.611  0.6257 -0.0619 -0.2699
   39DG     O19  893   0.514   5.200   2.645  0.5314  0.0890  0.3884
   39DG     H20  894   0.367   5.091   2.767 -1.0159 -0.4639 -0.2296
   39DG     H21  895   0.363   5.066   2.601 -2.1290 -1.1932  2.8005
   39DG     H22  896   0.376   5.335   2.700  0.5007 -2.0279 -2.0507
   39DG     H23  897   0.357   5.300   2.525 -2.5339 -3.1097 -3.3575
   40DG      C1  898   3.149   2.051   2.008 -0.3307  1.2346 -0.8388
   40DG      C2  899   3.148   1.589   2.460  0.1977  0.1891 -0.1984
   40DG      H3  900   3.046   2.017   2.018 -0.5821  0.7451 -0.7911
   40DG      H4  901   3.157   2.080   1.908 -0.2269 -1.5252 -0.7167
   40DG      H5  902   3.182   2.142   2.064  2.2037  0.1585 -0.1897
   40DG      H6  903   3.050   1.602   2.417  0.5041  0.8260  2.2933
   40DG      H7  904   3.157   1.498   2.518 -2.7931 -0.1016  0.5435
   40DG      H8  905   3.147   1.673   2.530  1.7555  0.2730 -0.9769
   40DG      O9  906   3.242   1.952   2.052  0.4049 -0.6097  0.1755
   40DG     O10  907   3.252   1.604   2.365  0.1370 -0.9490  0.6215
   40DG     C11  908   3.248   1.850   1.957  0.7437 -0.3388 -0.2448
   40DG     C12  909   3.253   1.498   2.268  0.2956  0.2606  0.1986
   40DG     H13  910   3.265   1.896   1.856  2.1120  1.0020  0.1182
   40DG     H14  911   3.147   1.799   1.944 -1.1768 -1.2534  0.6526
   40DG     H15  912   3.153   1.476   2.250  1.1230  0.7056  0.9302
   40DG     H16  913   3.299   1.415   2.321  1.0157  0.0201 -0.7217
   40DG     C17  914   3.332   1.726   1.992 -0.3295  0.0867 -0.2082
   40DG     C18  915   3.324   1.547   2.146 -0.4734 -0.0110 -0.0506
   40DG     O19  916   3.263   1.671   2.104  0.1785 -0.1560  0.3287
   40DG     H20  917   3.434   1.756   2.008 -1.4623  1.8359  1.6911
   40DG     H21  918   3.328   1.655   1.915  0.5177  3.1983 -1.7192
   40DG     H22  919   3.428   1.557   2.164 -0.3964 -1.3398  0.5599
   40DG     H23  920   3.326   1.475   2.063 -3.3263  0.6767  2.1605
   41DG      C1  921   1.044   3.559   1.721  0.3983 -0.3927  0.0148
   41DG      C2  922   1.303   4.282   1.940 -0.2107  0.2260 -0.2548
   41DG      H3  923   0.982   3.638   1.683  1.9041 -0.2950  1.4772
   41DG      H4  924   0.972   3.481   1.757  0.9404 -1.2441 -2.1630
   41DG      H5  925   1.097   3.508   1.638  2.4254 -0.7379 -2.8044
   41DG      H6  926   1.258   4.343   1.856  0.9627 -1.8962 -1.0114
   41DG      H7  927   1.290   4.337   2.036 -1.1960 -2.1517  0.6601
   41DG      H8  928   1.410   4.254   1.924  0.5568 -0.7174 -3.5920
   41DG      O9  929   1.127   3.605   1.827 -0.3027  0.3793 -0.7425
   41DG     O10  930   1.221   4.171   1.945  0.3193  0.4562  0.3371
   41DG     C11  931   1.238   3.673   1.789 -0.3563 -0.1866  0.2321
   41DG     C12  932   1.256   4.068   2.034 -0.4006  0.6710 -0.3146
   41DG     H13  933   1.227   3.730   1.693  0.1089  0.3177  1.4288
   41DG     H14  934   1.317   3.597   1.765 -1.7459 -0.3800  0.7463
   41DG     H15  935   1.243   4.108   2.137  0.4470 -0.4953 -0.0911
   41DG     H16  936   1.353   4.025   2.019  1.3164 -1.2718 -2.7988
   41DG     C17  937   1.280   3.771   1.898 -0.5638  0.0113  0.3225
   41DG     C18  938   1.155   3.956   2.002 -0.3599  0.8367  0.0471
   41DG     O19  939   1.186   3.878   1.892 -0.2407  0.3815 -0.2372
   41DG     H20  940   1.380   3.802   1.889 -1.5597  1.8191  0.6441
   41DG     H21  941   1.278   3.725   1.994  0.3194 -1.5671 -0.7666
   41DG     H22  942   1.151   3.890   2.092  0.1124 -0.9322  0.9092
   41DG     H23  943   1.049   3.993   1.993 -0.7031  2.6877 -0.1500
   42DG      C1  944   3.987   3.842   3.094  0.1801 -0.0044  0.3659
   42DG      C2  945   3.646   3.216   2.929 -0.9419 -0.7427  0.4731
   42DG      H3  946   3.898   3.891   3.116 -0.6659  1.5886  0.3893
   42DG      H4  947   4.011   3.862   2.985 -3.9991 -0.4995  0.2013
   42DG      H5  948   4.060   3.878   3.166  0.7478 -3.4161  0.8107
   42DG      H6  949   3.641   3.203   2.822 -1.0567 -2.4144 -0.8687
   42DG      H7  950   3.641   3.120   2.982 -0.3672  2.7562 -0.4936
   42DG      H8  951   3.559   3.277   2.949  1.3498 -0.4800 -1.8092
   42DG      O9  952   3.979   3.704   3.132 -0.7098  0.0467  0.3131
   42DG     O10  953   3.754   3.280   2.990 -0.7230 -0.1181 -0.3241
   42DG     C11  954   4.099   3.638   3.104  0.2898  0.5745  0.3244
   42DG     C12  955   3.874   3.208   2.990 -0.1910  0.0650  0.3679
   42DG     H13  956   4.179   3.676   3.173  0.2847  0.2414 -0.0043
   42DG     H14  957   4.115   3.657   3.001  2.0855 -2.3901  1.7682
   42DG     H15  958   3.927   3.185   2.893  3.7034  0.4626 -2.1825
   42DG     H16  959   3.857   3.109   3.040 -2.6109 -0.4325  0.0346
   42DG     C17  960   4.098   3.481   3.119  0.4330 -0.9240 -0.2556
   42DG     C18  961   3.978   3.282   3.080  0.1441  0.0321  0.2261
   42DG     O19  962   3.995   3.422   3.045  0.2399  0.1323 -0.3051
   42DG     H20  963   4.082   3.452   3.222  0.9525 -2.1457 -0.9098
   42DG     H21  964   4.190   3.438   3.082 -0.4154 -1.3472  2.4201
   42DG     H22  965   3.938   3.276   3.177  0.2995 -0.8527 -1.3087
   42DG     H23  966   4.072   3.230   3.074  0.7537  0.6257  0.5336
   43DG      C1  967   1.068   2.882   3.249 -0.2880  0.7687  0.1115
   43DG      C2  968   0.357   2.892   3.127  0.2250  0.4511  0.1285
   43DG      H3  969   1.082   2.981   3.283 -0.7530  0.3330 -1.0753
   43DG      H4  970   1.168   2.854   3.216  0.2189  2.2001  3.2881
   43DG      H5  971   1.047   2.825   3.334  0.1681  2.5831 -1.4902
   43DG      H6  972   0.353   2.822   3.210  2.4827  1.0772  1.2672
   43DG      H7  973   0.300   2.978   3.158 -0.5522  1.7487  2.3452
   43DG      H8  974   0.296   2.845   3.049 -2.6895  1.9157  1.7414
   43DG      O9  975   0.978   2.875   3.147  0.0828  0.0512  0.4470
   43DG     O10  976   0.493   2.910   3.095 -0.1348  0.1947  0.3736
   43DG     C11  977   1.006   2.949   3.032  0.2364 -0.0110 -0.2013
   43DG     C12  978   0.522   3.008   2.989 -0.2122 -0.4697 -0.0280
   43DG     H13  979   1.092   2.896   2.990 -2.0035  2.5906 -0.6475
   43DG     H14  980   1.020   3.052   3.052 -0.2318  1.2121  1.9785
   43DG     H15  981   0.508   3.109   3.040  0.3761  2.1316  2.3386
   43DG     H16  982   0.437   2.996   2.919 -0.9751  0.6775  0.2216
   43DG     C17  983   0.898   2.978   2.924 -0.7605  0.5502  0.1112
   43DG     C18  984   0.651   2.985   2.909  0.0808 -0.1118  0.8464
   43DG     O19  985   0.771   2.985   2.997  0.5918  0.0640  0.1018
   43DG     H20  986   0.900   2.899   2.851 -0.1126  0.9446  1.1567
   43DG     H21  987   0.917   3.069   2.863 -0.3016 -2.2248 -0.1425
   43DG     H22  988   0.645   2.906   2.840  1.6700 -0.6030 -1.2363
   43DG     H23  989   0.656   3.072   2.838  0.7619  1.1564 -0.3556
   44DG      C1  990   5.316   4.401   3.880 -0.0593 -0.0854  0.3211
   44DG      C2  991   5.499   4.575   3.242  0.1708  0.3999  0.2172
   44DG      H3  992   5.245   4.461   3.934 -3.1813 -1.8816  0.1557
   44DG      H4  993   5.414   4.427   3.911 -0.9159 -0.8368 -1.6288
   44DG      H5  994   5.297   4.300   3.905 -0.5598  2.6097 -0.7471
   44DG      H6  995   5.585   4.622   3.285 -1.7310  1.5721  1.4654
   44DG      H7  996   5.514   4.559   3.130 -2.6865  0.8735 -1.0928
   44DG      H8  997   5.422   4.647   3.255 -0.0049 -1.2796 -0.6369
   44DG      O9  998   5.302   4.425   3.739  0.7179  0.1972 -0.2991
   44DG     O10  999   5.449   4.454   3.301  0.7339  0.1365 -0.3088
   44DG     C11 1000   5.171   4.394   3.690  0.2700  0.2598  0.1043
   44DG     C12 1001   5.314   4.422   3.263 -0.1095  0.5029  0.0217
   44DG     H13 1002   5.121   4.489   3.709  3.8218 -0.0956 -1.9168
   44DG     H14 1003   5.128   4.305   3.722  0.7273 -1.2732 -0.4569
   44DG     H15 1004   5.309   4.313   3.281  0.5108 -0.9442 -0.2634
   44DG     H16 1005   5.297   4.430   3.157 -3.0141 -1.6504  0.7072
   44DG     C17 1006   5.187   4.378   3.536  0.0948 -0.4307 -0.1883
   44DG     C18 1007   5.209   4.501   3.339  0.3593  0.2155 -0.0873
   44DG     O19 1008   5.224   4.499   3.480  0.0346  0.1386 -0.1769
   44DG     H20 1009   5.107   4.323   3.489 -0.8927 -0.6799  0.9967
   44DG     H21 1010   5.276   4.316   3.528  2.4283  0.4276  1.9720
   44DG     H22 1011   5.213   4.608   3.325  2.8431 -1.3819 -0.6969
   44DG     H23 1012   5.105   4.472   3.315 -1.0672 -0.9946 -1.8214
   45DG      C1 1013   0.141   3.335   3.479 -0.6475 -0.2856 -0.3612
   45DG      C2 1014  -0.168   3.850   3.993 -1.0825  0.1494 -0.1110
   45DG      H3 1015   0.156   3.342   3.369  0.3836 -2.7102 -0.2128
   45DG      H4 1016   0.089   3.251   3.510  1.1776  1.2015  0.9880
   45DG      H5 1017   0.245   3.338   3.527  0.9303 -1.6889  0.7420
   45DG      H6 1018  -0.275   3.841   4.013 -2.4877 -1.6469  1.1136
   45DG      H7 1019  -0.113   3.775   4.048  0.8502 -1.3829  4.4176
   45DG      H8 1020  -0.134   3.947   4.029 -3.3944 -1.1423 -1.1091
   45DG      O9 1021   0.064   3.450   3.512 -0.3608 -0.6541 -0.0881
   45DG     O10 1022  -0.155   3.835   3.850  0.0901  0.4462  0.1563
   45DG     C11 1023  -0.063   3.460   3.460  0.1013  0.3286 -0.1128
   45DG     C12 1024  -0.229   3.727   3.796 -0.0842 -0.5947 -0.2573
   45DG     H13 1025  -0.124   3.389   3.518 -1.4473  1.1485  0.0725
   45DG     H14 1026  -0.060   3.437   3.356  0.4691 -0.9271 -0.0506
   45DG     H15 1027  -0.325   3.736   3.833 -1.1030  1.1382  0.0935
   45DG     H16 1028  -0.202   3.635   3.843 -1.2927  0.2722 -0.8073
   45DG     C17 1029  -0.114   3.605   3.476  0.1287 -0.7728 -1.0587
   45DG     C18 1030  -0.234   3.721   3.643  0.0462  0.4455 -0.1582
   45DG     O19 1031  -0.126   3.636   3.610  0.0575 -0.6452 -0.4072
   45DG     H20 1032  -0.208   3.621   3.414  2.0936 -0.0570 -0.9380
   45DG     H21 1033  -0.032   3.673   3.432 -1.2851 -2.1116 -0.3293
   45DG     H22 1034  -0.320   3.678   3.597  0.6387  1.2538 -0.2752
   45DG     H23 1035  -0.228   3.822   3.595 -1.2625  1.2578  1.7081
   46DG      C1 1036   3.753   4.716   2.803 -0.3851 -0.0204 -0.8812
   46DG      C2 1037   3.106   4.549   2.987  0.4602 -0.4037 -1.1534
   46DG      H3 1038   3.814   4.710   2.707 -1.4232 -0.4984  0.7531
   46DG      H4 1039   3.767   4.624   2.852 -1.0238 -2.7297  0.5297
   46DG      H5 1040   3.819   4.791   2.857  1.6261  2.9361 -1.2553
   46DG      H6 1041   3.142   4.477   3.062  1.0139 -1.1088  0.3226
   46DG      H7 1042   3.070   4.633   3.054  1.7029 -0.0578  4.1977
   46DG      H8 1043   3.012   4.500   2.951  0.5672  1.7083 -1.3671
   46DG      O9 1044   3.618   4.744   2.803 -0.1403 -0.7963  0.1792
   46DG     O10 1045   3.199   4.590   2.897 -0.0472  0.4253  0.5487
   46DG     C11 1046   3.588   4.848   2.706 -0.7044  0.7972 -0.1428
   46DG     C12 1047   3.154   4.691   2.817  0.3486 -0.0565  0.4645
   46DG     H13 1048   3.664   4.853   2.635  2.2241  2.5994  2.5575
   46DG     H14 1049   3.593   4.944   2.756  1.6160 -2.5817 -0.7241
   46DG     H15 1050   3.139   4.781   2.882  1.5260  0.8260  0.4318
   46DG     H16 1051   3.059   4.663   2.779  2.4098 -0.6018  1.6057
   46DG     C17 1052   3.452   4.827   2.642  0.3004 -0.6279 -0.0653
   46DG     C18 1053   3.248   4.727   2.701 -0.0410  0.7316  0.0231
   46DG     O19 1054   3.367   4.788   2.746 -0.4065  0.0067  0.0010
   46DG     H20 1055   3.454   4.749   2.567 -0.2766 -0.1173  1.0793
   46DG     H21 1056   3.427   4.920   2.582  0.5667 -2.0276 -1.4577
   46DG     H22 1057   3.276   4.634   2.657 -0.8704  2.1775 -1.8173
   46DG     H23 1058   3.188   4.785   2.635  2.4361  0.1077  0.6826
   47DG      C1 1059   2.345   1.645   5.174 -0.2916  0.3808 -0.6909
   47DG      C2 1060   2.721   2.055   5.532  0.7227 -0.1591 -0.3963
   47DG      H3 1061   2.388   1.668   5.086 -1.2614  1.3968  2.8021
   47DG      H4 1062   2.267   1.718   5.188  1.4223 -2.0704  2.6983
   47DG      H5 1063   2.309   1.544   5.160  1.3173  1.6984  2.7961
   47DG      H6 1064   2.672   2.139   5.575 -0.9557  1.6625  0.6754
   47DG      H7 1065   2.817   2.041   5.585 -0.5345  1.3198 -1.7955
   47DG      H8 1066   2.749   2.085   5.437 -0.7909  0.4785  2.3249
   47DG      O9 1067   2.431   1.644   5.287 -0.1338 -0.0679 -0.3013
   47DG     O10 1068   2.643   1.933   5.535 -0.0994 -0.2054  0.2011
   47DG     C11 1069   2.383   1.568   5.397 -0.1355  0.3385  0.5901
   47DG     C12 1070   2.556   1.930   5.644  0.2026 -0.5451  0.0900
   47DG     H13 1071   2.401   1.462   5.372 -0.1454 -3.9304 -1.7416
   47DG     H14 1072   2.274   1.579   5.415  1.1061  0.2502 -1.6880
   47DG     H15 1073   2.456   1.978   5.621 -1.1974 -3.6693 -4.0301
   47DG     H16 1074   2.599   1.973   5.738  0.3821  0.7112 -0.2065
   47DG     C17 1075   2.471   1.596   5.527 -0.1870 -0.9200 -1.1677
   47DG     C18 1076   2.520   1.786   5.658 -0.2928  0.5674 -0.8223
   47DG     O19 1077   2.473   1.738   5.533  0.0604  0.7753  0.0745
   47DG     H20 1078   2.575   1.564   5.510 -1.1584  0.6009  1.0186
   47DG     H21 1079   2.421   1.548   5.618 -0.9383  0.3032  1.9282
   47DG     H22 1080   2.608   1.725   5.673 -0.3003  0.4727  0.3205
   47DG     H23 1081   2.451   1.759   5.739 -0.6458 -0.9905  0.6706
   48DG      C1 1082   0.541   1.263   5.251  0.2143 -0.3417 -0.0245
   48DG      C2 1083  -0.127   1.171   5.370 -0.3444 -0.0274  0.0631
   48DG      H3 1084   0.653   1.254   5.251 -0.3578 -0.9815  1.1507
   48DG      H4 1085   0.490   1.324   5.332 -1.0073 -1.7594  0.2148
   48DG      H5 1086   0.514   1.300   5.149  1.2959 -1.5867 -1.3447
   48DG      H6 1087  -0.133   1.166   5.261  0.2010  1.3265 -1.6570
   48DG      H7 1088  -0.210   1.113   5.408  1.5723  0.0197  1.8858
   48DG      H8 1089  -0.147   1.272   5.393 -1.1902 -1.2057 -0.8232
   48DG      O9 1090   0.467   1.145   5.264 -0.2871 -0.1817  0.2167
   48DG     O10 1091   0.002   1.115   5.410  0.3164  0.5817 -0.6986
   48DG     C11 1092   0.478   1.090   5.390 -0.1225 -0.0551  0.1349
   48DG     C12 1093   0.018   0.975   5.394  0.5046 -0.2594 -0.1948
   48DG     H13 1094   0.461   1.168   5.464  0.5744  0.7455 -0.2678
   48DG     H14 1095   0.576   1.050   5.402 -0.0301 -1.2849  1.5954
   48DG     H15 1096   0.005   0.935   5.295 -1.9132 -2.3074  1.3284
   48DG     H16 1097  -0.049   0.920   5.457  0.4408  2.1931 -0.3577
   48DG     C17 1098   0.389   0.973   5.413 -0.1580  0.3665  0.5544
   48DG     C18 1099   0.157   0.942   5.443 -0.7589 -0.6167  0.6910
   48DG     O19 1100   0.260   1.035   5.399 -0.2463 -0.3134  0.6120
   48DG     H20 1101   0.396   0.911   5.507 -0.1320 -1.6380  0.4693
   48DG     H21 1102   0.397   0.904   5.328 -1.3900 -0.4134  0.6574
   48DG     H22 1103   0.150   0.944   5.554  0.8588 -0.6410 -1.9965
   48DG     H23 1104   0.179   0.844   5.401 -0.0087  0.9907 -0.0120
   49DG      C1 1105   4.234   1.459   4.612  0.4083 -0.9421  0.1272
   49DG      C2 1106   3.699   0.768   4.377 -0.1589 -0.2254  0.4672
   49DG      H3 1107   4.321   1.478   4.666 -1.3513 -3.1021  0.3120
   49DG      H4 1108   4.151   1.471   4.681 -1.3624 -1.1927 -1.0069
   49DG      H5 1109   4.220   1.510   4.523  1.9672  1.2831 -2.5035
   49DG      H6 1110   3.632   0.720   4.458 -0.4804 -0.7655 -0.4214
   49DG      H7 1111   3.640   0.833   4.310  1.0862  1.8226 -1.3625
   49DG      H8 1112   3.732   0.683   4.325 -0.0295 -0.2565  4.7308
   49DG      O9 1113   4.239   1.323   4.584  0.1413 -0.3374  0.7088
   49DG     O10 1114   3.806   0.847   4.432 -0.1497  0.1632  0.5788
   49DG     C11 1115   4.111   1.264   4.541  0.4269  1.1518 -0.6514
   49DG     C12 1116   3.912   0.866   4.339  0.5354 -0.3670 -0.0164
   49DG     H13 1117   4.079   1.322   4.456  0.5216 -1.2422  2.3871
   49DG     H14 1118   4.028   1.274   4.618  1.0560  0.3981  1.8009
   49DG     H15 1119   3.880   0.940   4.272 -1.6091 -1.2438 -0.0833
   49DG     H16 1120   3.931   0.778   4.279  0.2706 -0.8990 -0.7176
   49DG     C17 1121   4.131   1.114   4.512 -0.4532 -1.0442  0.1862
   49DG     C18 1122   4.040   0.923   4.406  0.1096 -0.1524 -0.1930
   49DG     O19 1123   4.015   1.048   4.457 -0.0980 -0.1162  0.1032
   49DG     H20 1124   4.151   1.065   4.606 -1.3642 -0.9405 -0.7379
   49DG     H21 1125   4.221   1.104   4.452  0.0164  0.4548 -3.2783
   49DG     H22 1126   4.092   0.861   4.486 -1.0981  0.0143  0.6060
   49DG     H23 1127   4.103   0.941   4.329 -2.1858 -1.9466 -2.0705
   50DG      C1 1128   3.624   0.316   3.061 -0.4775 -0.3248 -0.5243
   50DG      C2 1129   3.689  -0.384   3.134  0.5884  0.6136 -0.5502
   50DG      H3 1130   3.567   0.373   2.991  2.3726  2.3183  1.1185
   50DG      H4 1131   3.715   0.374   3.075  3.2555 -1.8526 -1.2898
   50DG      H5 1132   3.569   0.309   3.155 -3.2450 -0.6994 -0.1120
   50DG      H6 1133   3.775  -0.372   3.197 -1.2234  1.5699  1.5680
   50DG      H7 1134   3.610  -0.364   3.196  4.9122 -0.8527  0.2322
   50DG      H8 1135   3.694  -0.485   3.091 -1.0621  0.9598 -0.4234
   50DG      O9 1136   3.653   0.184   3.014 -0.2235  0.1312  0.0000
   50DG     O10 1137   3.686  -0.279   3.035  0.0887 -0.4018  0.4399
   50DG     C11 1138   3.748   0.173   2.906  0.2990 -0.2512  0.2115
   50DG     C12 1139   3.794  -0.299   2.940 -0.1880  0.3023  0.3584
   50DG     H13 1140   3.848   0.184   2.946 -0.5671 -3.5785  0.2524
   50DG     H14 1141   3.734   0.257   2.843 -2.6292 -2.4438  4.2776
   50DG     H15 1142   3.804  -0.400   2.895  2.3914 -1.5219 -2.4425
   50DG     H16 1143   3.893  -0.288   2.989 -2.2830 -0.0304  0.8467
   50DG     C17 1144   3.733   0.044   2.826  0.9463  0.7949  0.5182
   50DG     C18 1145   3.779  -0.194   2.829 -0.0911 -0.2485 -0.3368
   50DG     O19 1146   3.777  -0.069   2.899 -0.0336 -0.1811 -0.4612
   50DG     H20 1147   3.792   0.063   2.737  0.2336  2.5677  1.0239
   50DG     H21 1148   3.628   0.021   2.800  0.4000 -0.4460  1.2467
   50DG     H22 1149   3.862  -0.213   2.756  1.6839 -0.2233  2.5660
   50DG     H23 1150   3.685  -0.205   2.780 -1.7187 -1.4053 -1.2601
   51DG      C1 1151   0.213   1.087   5.083 -0.0092 -0.6727  0.1614
   51DG      C2 1152   0.271   0.498   4.769  0.1942  0.7477 -0.0891
   51DG      H3 1153   0.190   1.196   5.082  1.3553  0.0452 -2.9689
   51DG      H4 1154   0.302   1.059   5.143 -0.1585  0.6736 -0.3715
   51DG      H5 1155   0.124   1.036   5.125  0.0226 -4.5766 -1.3224
   51DG      H6 1156   0.197   0.486   4.848 -0.8634 -1.8693  0.5350
   51DG      H7 1157   0.238   0.445   4.677  0.6632  2.1585 -2.5288
   51DG      H8 1158   0.371   0.450   4.795  2.1799  2.0093 -0.6396
   51DG      O9 1159   0.217   1.032   4.959 -0.0594  0.7037 -0.5601
   51DG     O10 1160   0.280   0.641   4.741  0.1770  0.2517 -0.2836
   51DG     C11 1161   0.308   1.102   4.881 -0.0393  0.0944  0.0934
   51DG     C12 1162   0.389   0.680   4.657 -0.4832  0.6160  0.2566
   51DG     H13 1163   0.405   1.107   4.923  0.1995  0.9677 -0.6439
   51DG     H14 1164   0.270   1.197   4.856  4.9188 -0.0710  0.6264
   51DG     H15 1165   0.393   0.641   4.552 -2.5707 -0.0397 -0.1171
   51DG     H16 1166   0.484   0.674   4.701 -1.5441  1.1584  1.1308
   51DG     C17 1167   0.325   1.032   4.745  0.8482 -0.1773  0.0489
   51DG     C18 1168   0.367   0.832   4.634 -0.0541  0.6745  0.3036
   51DG     O19 1169   0.354   0.894   4.756  0.0733  0.4813  0.5578
   51DG     H20 1170   0.402   1.084   4.698  1.6857 -0.5172 -0.6005
   51DG     H21 1171   0.230   1.043   4.696  3.1477 -1.4599 -0.8651
   51DG     H22 1172   0.448   0.880   4.584 -3.8135  0.5534  0.2933
   51DG     H23 1173   0.272   0.853   4.568  2.9791  3.6349 -0.3187
   52DG      C1 1174   1.564   4.641   3.552 -0.1947 -0.4569  0.5310
   52DG      C2 1175   1.699   3.845   3.528  0.0041  0.3960 -0.2700
   52DG      H3 1176   1.484   4.720   3.549 -1.9661 -2.0726  0.1672
   52DG      H4 1177   1.634   4.655   3.469  0.5771 -1.5909  0.3682
   52DG      H5 1178   1.634   4.645   3.634  2.5357  3.2951 -1.9109
   52DG      H6 1179   1.802   3.859   3.566 -0.2161 -2.8400 -1.0893
   52DG      H7 1180   1.656   3.772   3.598 -0.9720 -0.8392  2.0926
   52DG      H8 1181   1.721   3.795   3.435  2.1849 -1.2033  1.6052
   52DG      O9 1182   1.508   4.513   3.540 -0.5775  0.2801 -0.4079
   52DG     O10 1183   1.620   3.962   3.527 -0.3252 -0.1035  0.4728
   52DG     C11 1184   1.447   4.466   3.656  0.1630  0.2929 -0.0828
   52DG     C12 1185   1.560   4.001   3.648  0.1822 -0.2273  0.2679
   52DG     H13 1186   1.366   4.539   3.678 -1.6101 -0.0064  0.2279
   52DG     H14 1187   1.524   4.466   3.738 -0.6551 -2.0050  1.0154
   52DG     H15 1188   1.636   4.045   3.714 -0.1037 -0.8853 -1.6197
   52DG     H16 1189   1.520   3.915   3.711  0.0171 -2.4637 -0.9820
   52DG     C17 1190   1.376   4.331   3.643  0.1872  0.2788 -0.2647
   52DG     C18 1191   1.443   4.094   3.639 -0.7553  0.1842  0.2862
   52DG     O19 1192   1.479   4.232   3.630 -0.2509  0.9089  0.7521
   52DG     H20 1193   1.301   4.328   3.557 -2.9799  0.9841  1.8601
   52DG     H21 1194   1.317   4.298   3.725  1.2694  1.8940  0.2065
   52DG     H22 1195   1.391   4.069   3.553 -0.0058 -1.7994 -2.4451
   52DG     H23 1196   1.386   4.089   3.733 -0.4602 -1.1256 -0.6013
   53DG      C1 1197   2.077   3.111   4.898  0.6370  0.9619  0.4847
   53DG      C2 1198   2.324   2.993   4.286 -0.7249 -0.1230  0.5228
   53DG      H3 1199   1.974   3.083   4.883 -0.0340  0.7529  0.4246
   53DG      H4 1200   2.103   3.188   4.826  0.2643 -0.1685 -1.8038
   53DG      H5 1201   2.088   3.161   4.991 -1.0271 -0.8260 -0.3825
   53DG      H6 1202   2.361   2.931   4.206 -0.6761  2.2312 -1.2254
   53DG      H7 1203   2.212   2.972   4.296 -0.9468  0.3950  0.8990
   53DG      H8 1204   2.335   3.096   4.247  0.3541 -1.0007  0.5614
   53DG      O9 1205   2.160   3.003   4.866 -0.4235  0.0182 -0.1424
   53DG     O10 1206   2.388   2.976   4.411 -0.5426  0.1308 -0.2124
   53DG     C11 1207   2.292   3.019   4.910 -0.4411 -0.2148 -0.2699
   53DG     C12 1208   2.380   2.845   4.467  0.8758  0.0814 -0.1080
   53DG     H13 1209   2.305   2.993   5.019  1.4322  0.3837  3.2218
   53DG     H14 1210   2.326   3.123   4.915 -1.1299 -2.2491  0.7483
   53DG     H15 1211   2.428   2.781   4.392  0.7318 -1.0886 -2.5222
   53DG     H16 1212   2.276   2.814   4.486 -0.9861  2.0965 -2.1657
   53DG     C17 1213   2.389   2.932   4.820 -0.1088  0.5240  0.4180
   53DG     C18 1214   2.443   2.853   4.602 -0.0012 -0.3454  0.1472
   53DG     O19 1215   2.352   2.922   4.686  0.1453 -0.5243  0.4355
   53DG     H20 1216   2.403   2.825   4.850  1.5681 -1.1329 -1.4638
   53DG     H21 1217   2.485   2.977   4.816 -2.6520 -0.4374  1.9870
   53DG     H22 1218   2.443   2.749   4.650 -0.9523 -0.7805  0.7424
   53DG     H23 1219   2.541   2.908   4.603 -0.6775  0.0601 -0.3897
   54DG      C1 1220   1.950   1.721   1.866  0.2549  0.2939 -0.3361
   54DG      C2 1221   2.072   1.899   1.288 -0.4192 -0.2907 -0.3997
   54DG      H3 1222   1.958   1.743   1.978 -0.6439 -0.7857  1.3299
   54DG      H4 1223   1.913   1.620   1.850  2.6697 -1.3574 -1.5358
   54DG      H5 1224   1.872   1.790   1.831  1.7362  0.0216 -0.9923
   54DG      H6 1225   2.109   1.959   1.210 -0.6601  0.3089  2.2558
   54DG      H7 1226   2.058   1.795   1.249 -1.5611 -0.0824  2.5761
   54DG      H8 1227   1.968   1.931   1.315  1.9922  1.9694 -0.5751
   54DG      O9 1228   2.064   1.748   1.781 -0.3934  0.3075  0.2023
   54DG     O10 1229   2.153   1.904   1.406 -0.7489  0.3292  0.5314
   54DG     C11 1230   2.164   1.651   1.787 -0.3003  0.4448 -0.2858
   54DG     C12 1231   2.284   1.853   1.383  0.7922 -0.3766 -0.4405
   54DG     H13 1232   2.129   1.562   1.730  0.6022  0.0049 -0.3714
   54DG     H14 1233   2.179   1.609   1.892  0.2156 -0.5426  1.9403
   54DG     H15 1234   2.338   1.931   1.334  0.7859  0.2105  3.1215
   54DG     H16 1235   2.287   1.771   1.309 -0.4089  2.3802  2.0189
   54DG     C17 1236   2.294   1.701   1.725 -0.3081  0.1445 -0.0811
   54DG     C18 1237   2.344   1.820   1.525  0.0128  0.2085 -0.3918
   54DG     O19 1238   2.251   1.738   1.592 -0.6298  0.5067 -0.4534
   54DG     H20 1239   2.372   1.625   1.728 -2.7834  1.6637 -0.8712
   54DG     H21 1240   2.330   1.790   1.783  1.7336  0.9780  0.2752
   54DG     H22 1241   2.449   1.784   1.513  0.9134  0.6671 -1.8758
   54DG     H23 1242   2.346   1.909   1.588  0.2839  0.7510 -2.0160
   55DG      C1 1243   0.375   5.062   2.169 -0.0128 -0.1374 -0.5668
   55DG      C2 1244   0.501   4.455   1.894  0.5216 -0.1681  0.4060
   55DG      H3 1245   0.469   5.110   2.186 -1.6662 -2.2178  1.7216
   55DG      H4 1246   0.365   5.000   2.258 -1.3599 -0.7919 -0.6748
   55DG      H5 1247   0.293   5.134   2.181 -1.5464  0.0150  0.1203
   55DG      H6 1248   0.453   4.396   1.971 -0.4949 -0.7415  2.4769
   55DG      H7 1249   0.525   4.388   1.817  1.9279  1.5806  1.3470
   55DG      H8 1250   0.603   4.477   1.938  0.9910  1.4964  0.4190
   55DG      O9 1251   0.350   4.988   2.056  0.5354  0.3916  0.2190
   55DG     O10 1252   0.412   4.565   1.871  0.3266 -0.2361  0.3752
   55DG     C11 1253   0.388   5.052   1.939 -0.1267  0.2057 -0.0339
   55DG     C12 1254   0.437   4.617   1.743  0.3493 -0.0657  0.2274
   55DG     H13 1255   0.490   5.068   1.937 -1.7540 -2.6578  1.9034
   55DG     H14 1256   0.343   5.150   1.939 -0.8393 -1.3861  3.4593
   55DG     H15 1257   0.393   4.548   1.678  0.8459 -1.2123 -3.1201
   55DG     H16 1258   0.540   4.631   1.718 -0.9681 -1.9326 -0.5725
   55DG     C17 1259   0.344   4.961   1.822 -0.2271  0.5874  0.1161
   55DG     C18 1260   0.360   4.742   1.734  0.4156 -0.2473  0.4611
   55DG     O19 1261   0.395   4.831   1.845  0.4501  0.4916 -0.3916
   55DG     H20 1262   0.383   5.017   1.735 -0.7978  2.3594  1.2868
   55DG     H21 1263   0.232   4.963   1.815 -4.3716 -0.3688 -0.4729
   55DG     H22 1264   0.380   4.789   1.638  0.6840  0.1317  0.6692
   55DG     H23 1265   0.249   4.722   1.735  1.5723  0.0795 -1.8935
   56DG      C1 1266   0.885   1.036   5.218 -0.5851  0.0015 -0.1321
   56DG      C2 1267   1.085   0.295   5.517  0.2841 -0.5924 -0.7989
   56DG      H3 1268   0.881   1.071   5.118  0.2936 -1.2229 -0.1850
   56DG      H4 1269   0.910   1.121   5.281 -1.5879 -0.9427 -0.3417
   56DG      H5 1270   0.786   1.004   5.250  1.3400 -2.2710 -0.6924
   56DG      H6 1271   1.077   0.293   5.617  1.0423  0.0806  1.0061
   56DG      H7 1272   0.981   0.309   5.479  0.1329  0.3653  0.7158
   56DG      H8 1273   1.120   0.186   5.488 -0.8465 -1.1469  2.3092
   56DG      O9 1274   0.962   0.917   5.244  0.2730  0.4526 -0.1049
   56DG     O10 1275   1.180   0.384   5.462 -0.3931 -0.1815  0.2176
   56DG     C11 1276   1.105   0.929   5.230  0.1946 -0.3894  0.0733
   56DG     C12 1277   1.129   0.517   5.473  0.2947  0.0103 -0.0355
   56DG     H13 1278   1.144   0.988   5.308 -1.2139 -0.4797  1.5081
   56DG     H14 1279   1.139   0.976   5.131 -1.0169 -0.5369 -0.1019
   56DG     H15 1280   1.147   0.557   5.572 -0.8115 -1.0332  1.4326
   56DG     H16 1281   1.021   0.509   5.459  0.9666 -0.8996 -4.4320
   56DG     C17 1282   1.172   0.791   5.230  0.2603  0.1075  0.0301
   56DG     C18 1283   1.177   0.601   5.355 -0.5682  0.2545 -0.3649
   56DG     O19 1284   1.119   0.725   5.340 -0.2832  0.4430 -0.5195
   56DG     H20 1285   1.278   0.794   5.245  0.0487 -0.3388  1.2079
   56DG     H21 1286   1.157   0.732   5.132  0.0692 -0.5608  0.8271
   56DG     H22 1287   1.289   0.611   5.350 -1.2258  0.9884 -0.8601
   56DG     H23 1288   1.157   0.538   5.265 -3.8512  0.2944  3.3816
   57DG      C1 1289   0.769   2.096   2.732 -0.4923  0.4825  0.2838
   57DG      C2 1290   1.096   1.637   3.211  0.7261 -0.1349  0.0769
   57DG      H3 1291   0.859   2.156   2.736  0.9815 -0.0845  3.5765
   57DG      H4 1292   0.700   2.134   2.815 -1.8790  1.0876 -1.1432
   57DG      H5 1293   0.710   2.107   2.640  0.3949 -1.2740 -0.0540
   57DG      H6 1294   1.086   1.535   3.247 -1.6474  0.1171  1.3117
   57DG      H7 1295   1.206   1.663   3.203  0.8871 -0.2458  0.8944
   57DG      H8 1296   1.061   1.708   3.287 -0.3870  1.0688 -1.1325
   57DG      O9 1297   0.820   1.961   2.734  0.5412  0.0146  0.1895
   57DG     O10 1298   1.018   1.662   3.091  0.6839 -0.0649 -0.3552
   57DG     C11 1299   0.719   1.863   2.775  1.0093  0.1474 -0.0818
   57DG     C12 1300   1.041   1.571   2.987  1.0785  0.0143 -0.2392
   57DG     H13 1301   0.642   1.862   2.693 -1.6168 -0.7204  1.6169
   57DG     H14 1302   0.662   1.886   2.865 -1.7807 -1.1575 -1.5362
   57DG     H15 1303   1.065   1.474   3.025 -1.0354 -1.1392  1.7905
   57DG     H16 1304   1.128   1.588   2.931 -1.5449  1.2324  2.1417
   57DG     C17 1305   0.780   1.716   2.774 -0.1547  0.4206 -0.2638
   57DG     C18 1306   0.917   1.564   2.901  0.1122  0.9848 -0.1025
   57DG     O19 1307   0.875   1.698   2.876  0.2913 -0.2038 -0.7658
   57DG     H20 1308   0.829   1.692   2.683  1.5949  1.0465 -0.0875
   57DG     H21 1309   0.709   1.635   2.786 -1.8076  2.6432  0.5171
   57DG     H22 1310   0.940   1.504   2.815  1.9073  2.1329 -0.1267
   57DG     H23 1311   0.843   1.506   2.957 -0.4857  1.2388 -1.2118
   58DG      C1 1312   3.404   3.146   0.516  0.4464  0.4319 -0.0376
   58DG      C2 1313   2.941   3.463   0.095  0.0907 -0.3928 -0.1336
   58DG      H3 1314   3.461   3.189   0.438 -0.1458  1.9301 -0.6612
   58DG      H4 1315   3.407   3.040   0.489 -0.5037 -1.6233 -2.6693
   58DG      H5 1316   3.466   3.150   0.602 -0.5761  3.5144 -2.1214
   58DG      H6 1317   3.043   3.482   0.055  2.4674  1.7725 -1.3420
   58DG      H7 1318   2.896   3.390   0.030 -1.5117 -2.0600  0.6866
   58DG      H8 1319   2.893   3.562   0.084 -0.1765  0.6177 -0.0529
   58DG      O9 1320   3.280   3.215   0.528  0.2843  0.0478  0.3216
   58DG     O10 1321   2.962   3.424   0.232 -0.1384 -0.5488 -0.1135
   58DG     C11 1322   3.167   3.137   0.568 -0.6708 -0.3210 -0.7754
   58DG     C12 1323   2.858   3.396   0.312 -0.2006 -0.1364 -0.7861
   58DG     H13 1324   3.196   3.096   0.665 -0.5554  1.9989  0.0620
   58DG     H14 1325   3.154   3.055   0.502 -0.6998  3.9547 -1.6204
   58DG     H15 1326   2.813   3.309   0.266 -0.7028 -0.4938  1.3919
   58DG     H16 1327   2.782   3.479   0.314  1.9613  0.9893  2.5877
   58DG     C17 1328   3.049   3.228   0.575  0.0579  0.2693  0.2739
   58DG     C18 1329   2.903   3.373   0.453 -0.0007 -0.1194  0.6773
   58DG     O19 1330   3.020   3.286   0.444 -0.1003  0.3446 -0.2915
   58DG     H20 1331   3.056   3.309   0.643  2.3360 -1.2059 -0.5940
   58DG     H21 1332   2.963   3.177   0.618  1.7184  1.8569  0.3462
   58DG     H22 1333   2.931   3.472   0.497 -1.6358  0.8496 -0.1137
   58DG     H23 1334   2.827   3.336   0.514 -1.2162 -3.0814 -2.1561
   59DG      C1 1335   0.162   1.196   0.741 -0.1980 -0.0957  0.3938
   59DG      C2 1336  -0.404   1.203   0.309  0.0845  0.2545  0.5402
   59DG      H3 1337   0.150   1.297   0.785 -1.1881  1.0223  0.3836
   59DG      H4 1338   0.227   1.210   0.652  0.1429  1.6493 -0.8632
   59DG      H5 1339   0.207   1.125   0.809 -1.3227  1.8938 -0.6435
   59DG      H6 1340  -0.463   1.130   0.242 -0.9654  0.0812 -2.5200
   59DG      H7 1341  -0.473   1.284   0.344  0.4978  2.3441  0.7630
   59DG      H8 1342  -0.325   1.248   0.254 -0.1576  0.2043  0.0732
   59DG      O9 1343   0.031   1.147   0.705 -0.0735  0.0720 -0.3325
   59DG     O10 1344  -0.350   1.126   0.415 -0.5282 -0.1394 -1.1956
   59DG     C11 1345  -0.074   1.193   0.793  0.1827  0.0479 -0.9241
   59DG     C12 1346  -0.444   1.094   0.523 -0.1113  0.9627  0.2851
   59DG     H13 1347  -0.081   1.302   0.782 -0.8050 -0.6932  4.3560
   59DG     H14 1348  -0.034   1.159   0.886  2.4668 -2.9251 -0.0720
   59DG     H15 1349  -0.505   1.018   0.487  1.5689 -0.4472  0.7215
   59DG     H16 1350  -0.505   1.180   0.544 -2.5614  0.9888 -0.6171
   59DG     C17 1351  -0.200   1.112   0.769 -0.5790 -0.3808  0.3896
   59DG     C18 1352  -0.365   1.043   0.640 -0.1298 -0.0292  0.5336
   59DG     O19 1353  -0.271   1.146   0.657 -0.0406 -0.3874 -0.0404
   59DG     H20 1354  -0.261   1.132   0.857  1.1532 -0.4367  0.0634
   59DG     H21 1355  -0.166   1.005   0.776  1.7032  0.8739 -1.7111
   59DG     H22 1356  -0.427   1.037   0.727  0.3810 -0.6049 -0.3514
   59DG     H23 1357  -0.324   0.939   0.615 -2.9627  1.4099 -2.9845
   60DG      C1 1358   4.352   1.721   1.769  0.0787 -0.6545 -1.1125
   60DG      C2 1359   4.237   1.625   2.505 -0.9646  0.1794  0.3346
   60DG      H3 1360   4.299   1.809   1.774  0.7463  1.9168  0.3224
   60DG      H4 1361   4.348   1.691   1.666  2.1596  1.2142  1.6252
   60DG      H5 1362   4.459   1.746   1.798 -0.0436 -2.6427 -1.9389
   60DG      H6 1363   4.346   1.626   2.523  0.4655  0.8842 -2.1458
   60DG      H7 1364   4.188   1.725   2.517 -0.7234 -0.4519  1.7609
   60DG      H8 1365   4.189   1.557   2.574 -2.3272 -0.3696 -0.7220
   60DG      O9 1366   4.313   1.635   1.873 -0.0369  0.2392 -0.3118
   60DG     O10 1367   4.201   1.601   2.367  0.4338  0.5889  0.3314
   60DG     C11 1368   4.189   1.577   1.860 -0.2100 -0.0725  0.0464
   60DG     C12 1369   4.234   1.466   2.329 -0.6417 -0.6831 -0.1597
   60DG     H13 1370   4.186   1.532   1.755  0.9283 -0.2725 -1.1894
   60DG     H14 1371   4.111   1.659   1.867  2.6882  1.2152 -0.7970
   60DG     H15 1372   4.228   1.394   2.408  1.8563 -1.3083  0.4770
   60DG     H16 1373   4.341   1.452   2.302 -1.0009  1.1404 -0.3196
   60DG     C17 1374   4.165   1.475   1.967 -0.3812 -0.0599  0.2287
   60DG     C18 1375   4.150   1.442   2.204 -0.2863  0.2038 -0.2392
   60DG     O19 1376   4.178   1.535   2.098  0.0247 -0.2842  0.4492
   60DG     H20 1377   4.230   1.394   1.948 -0.9325  0.8814  0.4180
   60DG     H21 1378   4.067   1.432   1.951 -2.2363 -0.4167  1.4712
   60DG     H22 1379   4.173   1.346   2.165  0.3105  0.3077 -1.5071
   60DG     H23 1380   4.044   1.457   2.233 -0.0806  1.4546 -0.3290
   61DG      C1 1381   2.648   3.692   3.783 -0.5896  0.6651 -0.2009
   61DG      C2 1382   3.049   3.473   4.259 -0.5990 -1.2392 -0.1782
   61DG      H3 1383   2.552   3.721   3.735 -1.3966  0.5636  1.1480
   61DG      H4 1384   2.706   3.616   3.720  0.9350 -1.5921 -2.5357
   61DG      H5 1385   2.707   3.787   3.766  3.4061  1.1209  0.9491
   61DG      H6 1386   3.067   3.413   4.347 -0.6841 -1.0727 -0.5232
   61DG      H7 1387   3.122   3.430   4.187  0.7346 -1.4959  0.4804
   61DG      H8 1388   3.091   3.574   4.269  1.1414 -2.1338  1.4192
   61DG      O9 1389   2.633   3.656   3.921 -0.2569 -0.0003  1.0025
   61DG     O10 1390   2.917   3.473   4.227  0.2613  0.5523  1.1855
   61DG     C11 1391   2.582   3.752   4.015  1.0152  0.4530  0.0060
   61DG     C12 1392   2.831   3.507   4.334 -0.3182  0.0871  0.2609
   61DG     H13 1393   2.482   3.781   3.981 -0.4030 -1.7203 -0.3440
   61DG     H14 1394   2.644   3.834   4.030 -3.2698  0.0832  0.4361
   61DG     H15 1395   2.867   3.600   4.376  3.5021  1.3114  2.1703
   61DG     H16 1396   2.824   3.443   4.420  1.6107  3.6307 -0.1539
   61DG     C17 1397   2.574   3.683   4.153  0.8442  0.4088 -0.2031
   61DG     C18 1398   2.691   3.534   4.293 -0.5551 -0.1603 -0.0107
   61DG     O19 1399   2.698   3.624   4.188 -0.1074 -0.0297  0.5997
   61DG     H20 1400   2.494   3.603   4.156  0.2470 -1.0664  1.5041
   61DG     H21 1401   2.530   3.742   4.226  1.3720 -1.1201  0.5344
   61DG     H22 1402   2.651   3.435   4.253  0.7768 -0.5769 -1.6647
   61DG     H23 1403   2.618   3.569   4.370  0.4959 -1.2859 -1.2076
   62DG      C1 1404   0.240   0.612   2.719  0.6002  0.4623 -0.5433
   62DG      C2 1405   0.111   1.061   2.213  0.3602 -0.0831 -0.3347
   62DG      H3 1406   0.331   0.638   2.775  1.5535 -0.9201 -1.1389
   62DG      H4 1407   0.250   0.499   2.723  1.9175 -2.8383 -0.4958
   62DG      H5 1408   0.155   0.653   2.779 -0.4078 -2.7387 -1.5576
   62DG      H6 1409   0.069   1.130   2.286  2.5933  2.4479  0.8413
   62DG      H7 1410   0.210   1.091   2.177  1.2062 -1.3799 -0.0992
   62DG      H8 1411   0.045   1.082   2.126 -1.8475 -3.1061 -2.0381
   62DG      O9 1412   0.258   0.676   2.588  0.0091  0.1847 -0.2431
   62DG     O10 1413   0.100   0.929   2.252  0.3967 -0.0681  0.1540
   62DG     C11 1414   0.359   0.618   2.513 -0.1820  0.8058  0.4127
   62DG     C12 1415   0.165   0.834   2.165  0.5947  0.7426 -0.0193
   62DG     H13 1416   0.336   0.515   2.514  0.3344 -1.6689  1.1427
   62DG     H14 1417   0.451   0.640   2.560  1.3228  0.2593 -1.8090
   62DG     H15 1418   0.148   0.855   2.061 -0.5409 -1.4360  1.7114
   62DG     H16 1419   0.116   0.746   2.178  1.8309 -0.3342 -0.8705
   62DG     C17 1420   0.360   0.660   2.369  0.3267  0.1003 -0.2246
   62DG     C18 1421   0.316   0.836   2.213 -0.1494  0.2714  0.4302
   62DG     O19 1422   0.335   0.798   2.351  0.4390  0.3303  0.1316
   62DG     H20 1423   0.280   0.605   2.316 -3.1305  2.5683  0.2294
   62DG     H21 1424   0.457   0.632   2.338  1.2511 -0.6047  0.8111
   62DG     H22 1425   0.363   0.766   2.150 -0.7732  1.7900 -0.3055
   62DG     H23 1426   0.357   0.925   2.184 -0.3464 -1.9777 -0.5524
   63DG      C1 1427   1.030   4.240   3.331  0.1013  0.4588  0.7974
   63DG      C2 1428   1.018   4.740   2.869  0.0854  0.3516 -0.3295
   63DG      H3 1429   1.121   4.205   3.381 -0.7101 -0.4327  1.0424
   63DG      H4 1430   1.030   4.225   3.223  0.7485 -1.9700  1.1259
   63DG      H5 1431   0.942   4.193   3.381 -1.3384  1.2925  2.4828
   63DG      H6 1432   1.122   4.734   2.816 -1.6689 -2.3170 -2.4997
   63DG      H7 1433   0.961   4.654   2.836  1.0024  1.0607 -1.1769
   63DG      H8 1434   0.967   4.828   2.831 -1.9874 -2.3326 -0.8701
   63DG      O9 1435   1.010   4.384   3.329  0.3264  0.5270  0.2866
   63DG     O10 1436   1.033   4.714   3.013 -0.1939  0.0950 -0.3762
   63DG     C11 1437   1.079   4.461   3.426  0.6454 -0.1406 -0.2059
   63DG     C12 1438   0.959   4.792   3.105  0.7801  0.3193  0.1368
   63DG     H13 1439   1.185   4.440   3.413 -2.5480  1.2746 -0.7424
   63DG     H14 1440   1.059   4.424   3.529 -1.9096  2.2703 -0.7617
   63DG     H15 1441   0.853   4.767   3.098  0.5808 -0.1169  0.6948
   63DG     H16 1442   0.963   4.898   3.067 -1.3297  2.3261 -1.7093
   63DG     C17 1443   1.023   4.602   3.413 -0.3700  0.3805  0.4234
   63DG     C18 1444   1.015   4.781   3.248 -0.3732 -0.1527 -0.1459
   63DG     O19 1445   1.063   4.651   3.280 -0.0768 -0.8614 -0.3700
   63DG     H20 1446   1.043   4.668   3.500 -0.5765  0.4039  1.3506
   63DG     H21 1447   0.918   4.592   3.416 -2.6347  1.4446  1.5998
   63DG     H22 1448   1.097   4.850   3.267 -3.2299  2.1607  3.6006
   63DG     H23 1449   0.937   4.802   3.319  2.1418 -0.1745 -0.4733
   64DG      C1 1450   4.983   4.776   2.424 -0.2871  0.7497  0.0748
   64DG      C2 1451   5.397   5.213   2.081  0.2276  0.5662 -0.1180
   64DG      H3 1452   4.903   4.759   2.499 -0.1101 -0.9741  0.4798
   64DG      H4 1453   5.010   4.684   2.367  1.3493 -1.4870 -2.2546
   64DG      H5 1454   4.943   4.841   2.342  0.4624  0.9038 -1.3643
   64DG      H6 1455   5.469   5.135   2.040  0.8799 -0.3801 -0.3115
   64DG      H7 1456   5.371   5.274   1.991 -0.3764  0.8344 -1.8869
   64DG      H8 1457   5.441   5.275   2.158  2.3440  1.2664 -0.6482
   64DG      O9 1458   5.086   4.847   2.496  0.0976 -0.0497  0.6876
   64DG     O10 1459   5.276   5.146   2.121  0.2123  0.4651 -0.1028
   64DG     C11 1460   5.204   4.869   2.429 -0.3399 -0.5044  0.2724
   64DG     C12 1461   5.222   5.055   2.024  0.3581  0.3475 -0.7268
   64DG     H13 1462   5.254   4.784   2.386 -1.4596 -1.5706 -1.5134
   64DG     H14 1463   5.259   4.927   2.509  1.0019  1.7500 -0.4301
   64DG     H15 1464   5.283   4.971   1.989 -2.6882  0.6023  0.1498
   64DG     H16 1465   5.190   5.106   1.928  0.3265  0.1475 -0.7652
   64DG     C17 1466   5.192   4.962   2.316 -0.2343 -1.0503 -0.1288
   64DG     C18 1467   5.108   4.987   2.097  0.2674 -0.4839  0.3622
   64DG     O19 1468   5.148   4.900   2.201 -0.3957 -0.2918 -0.1793
   64DG     H20 1469   5.297   4.989   2.291  0.8819 -0.1360 -2.6295
   64DG     H21 1470   5.129   5.053   2.347 -0.2544  1.3049 -2.2498
   64DG     H22 1471   5.043   5.063   2.126  0.9187  0.2770 -4.0730
   64DG     H23 1472   5.047   4.930   2.026 -1.0313  0.5475  2.1296
   65DG      C1 1473   0.667   0.741   1.645  0.3534  0.1413  0.2521
   65DG      C2 1474   0.867   0.202   2.011 -0.2593 -0.1539  0.1908
   65DG      H3 1475   0.586   0.744   1.716  1.3910 -0.3344  0.6531
   65DG      H4 1476   0.654   0.665   1.566  0.4523 -1.4756 -0.7342
   65DG      H5 1477   0.668   0.836   1.596  0.5819  0.7680  0.0907
   65DG      H6 1478   0.946   0.152   2.060 -1.9009  2.8361 -1.6920
   65DG      H7 1479   0.779   0.182   2.069  0.1506  1.2592 -0.7970
   65DG      H8 1480   0.847   0.175   1.914  0.4368 -1.6876  3.4193
   65DG      O9 1481   0.796   0.714   1.701  0.3133  0.1343  0.1438
   65DG     O10 1482   0.903   0.344   2.017  0.2472 -0.1405 -0.1066
   65DG     C11 1483   0.856   0.803   1.795 -0.8508 -0.1996  0.1138
   65DG     C12 1484   1.001   0.374   1.920  0.0471  0.1749 -0.0625
   65DG     H13 1485   0.782   0.822   1.872 -0.1270  0.8543  0.6540
   65DG     H14 1486   0.883   0.896   1.759 -2.2524  1.2514  0.7627
   65DG     H15 1487   0.967   0.355   1.821  1.5627 -0.9649 -0.6079
   65DG     H16 1488   1.081   0.300   1.948 -0.1220 -1.0263  0.8524
   65DG     C17 1489   0.973   0.735   1.858  0.1443  1.3294 -0.0128
   65DG     C18 1490   1.041   0.519   1.921 -0.3368  0.1866  0.1278
   65DG     O19 1491   0.935   0.597   1.859 -0.6641  0.2158  0.3722
   65DG     H20 1492   1.006   0.780   1.952  1.4000  0.3852 -2.7436
   65DG     H21 1493   1.069   0.731   1.797 -1.1055 -2.6690  0.0114
   65DG     H22 1494   1.062   0.531   2.031 -0.4749  0.4914  2.6204
   65DG     H23 1495   1.140   0.512   1.868  0.0176  1.4722 -0.9173
   66DG      C1 1496   2.675   1.936   0.823 -0.2514  0.1489  0.1534
   66DG      C2 1497   2.854   1.380   0.456  0.0677  0.4066  0.5897
   66DG      H3 1498   2.690   1.933   0.930  2.5949 -2.3554  2.8115
   66DG      H4 1499   2.617   2.020   0.780  1.4886 -2.7536  0.3350
   66DG      H5 1500   2.770   1.943   0.778 -0.3536  1.1343 -0.7327
   66DG      H6 1501   2.962   1.377   0.432 -0.6732  0.6867 -0.7028
   66DG      H7 1502   2.829   1.279   0.417  1.0064 -0.6886  1.3565
   66DG      H8 1503   2.815   1.457   0.397 -1.5928 -0.9633 -0.0034
   66DG      O9 1504   2.616   1.815   0.777  0.7557 -0.2863 -0.2484
   66DG     O10 1505   2.831   1.394   0.590 -0.4630 -0.2558 -0.5002
   66DG     C11 1506   2.570   1.822   0.637 -0.0041  0.2956  0.4343
   66DG     C12 1507   2.704   1.368   0.632 -0.2743 -0.0678  0.0556
   66DG     H13 1508   2.650   1.845   0.572 -0.4599  1.6762  2.0030
   66DG     H14 1509   2.487   1.889   0.627  2.2529 -0.9886  0.4596
   66DG     H15 1510   2.704   1.370   0.743  1.4685 -0.8373  0.8151
   66DG     H16 1511   2.663   1.264   0.612 -0.1532  0.7121  0.8368
   66DG     C17 1512   2.515   1.682   0.625  0.0334 -0.3927  0.1016
   66DG     C18 1513   2.601   1.466   0.582  1.1522  0.2633  0.1873
   66DG     O19 1514   2.620   1.597   0.640 -0.0174  0.5789  0.5828
   66DG     H20 1515   2.475   1.665   0.525 -0.5221 -1.1154  0.9998
   66DG     H21 1516   2.437   1.659   0.699  0.1805  0.0526  0.8425
   66DG     H22 1517   2.608   1.473   0.478 -0.7353 -3.5002  0.1263
   66DG     H23 1518   2.506   1.413   0.604 -2.8293 -2.3449  0.6118
   67DG      C1 1519   5.462   0.275   5.180  0.2606  0.5139  0.6148
   67DG      C2 1520   4.758   0.727   5.252  0.6483 -0.4276  0.1172
   67DG      H3 1521   5.560   0.250   5.222  0.5543 -2.1362  3.2496
   67DG      H4 1522   5.485   0.353   5.101  0.6555  0.4872  3.4327
   67DG      H5 1523   5.416   0.191   5.126 -2.3385  0.2453 -0.8474
   67DG      H6 1524   4.731   0.715   5.145 -2.7615 -0.3209  2.2063
   67DG      H7 1525   4.662   0.725   5.306 -2.3047 -2.1371  0.0113
   67DG      H8 1526   4.770   0.836   5.262 -2.5175  0.7014 -1.2772
   67DG      O9 1527   5.382   0.324   5.281  0.3545  0.2459 -0.0669
   67DG     O10 1528   4.847   0.636   5.319  0.5290 -0.5918  0.2904
   67DG     C11 1529   5.267   0.379   5.222  0.5415 -0.2991  0.1427
   67DG     C12 1530   4.811   0.497   5.303  0.6977 -0.0138 -0.3672
   67DG     H13 1531   5.240   0.341   5.124 -1.2586 -0.8762  0.1328
   67DG     H14 1532   5.272   0.491   5.217  0.4388  1.2512  1.8767
   67DG     H15 1533   4.785   0.468   5.201 -0.9359  0.1969  1.6115
   67DG     H16 1534   4.727   0.471   5.369 -3.5210 -0.4728 -1.3865
   67DG     C17 1535   5.151   0.348   5.327 -0.0872  0.4953  0.4338
   67DG     C18 1536   4.922   0.412   5.358  0.2712 -0.6303 -0.4065
   67DG     O19 1537   5.047   0.430   5.290  0.0025 -0.4193 -0.3533
   67DG     H20 1538   5.189   0.379   5.427  0.0935  0.5993  0.7990
   67DG     H21 1539   5.121   0.243   5.331 -0.4113  1.9535 -0.6786
   67DG     H22 1540   4.935   0.434   5.465  1.1915  0.7948 -0.4252
   67DG     H23 1541   4.886   0.308   5.352  2.5397  2.2541 -0.5164
   68DG      C1 1542   5.443   1.354   1.549 -0.5901 -0.6805 -0.1053
   68DG      C2 1543   5.801   0.842   1.466 -0.4392  0.2129  0.5930
   68DG      H3 1544   5.382   1.273   1.589 -0.5199 -1.4170  1.9780
   68DG      H4 1545   5.396   1.391   1.460 -2.8122  0.3456  3.5224
   68DG      H5 1546   5.428   1.435   1.622 -0.9665  2.4284  0.0571
   68DG      H6 1547   5.693   0.828   1.462  1.1464  0.1933  0.0979
   68DG      H7 1548   5.851   0.800   1.384 -0.2658  0.7942 -1.9041
   68DG      H8 1549   5.841   0.806   1.559 -0.5653  2.4916 -2.0990
   68DG      O9 1550   5.582   1.321   1.538 -0.4923  0.3089 -0.0219
   68DG     O10 1551   5.825   0.978   1.481  0.1968  0.4349 -1.1477
   68DG     C11 1552   5.659   1.404   1.449  0.3172  0.4123 -0.5159
   68DG     C12 1553   5.935   1.023   1.400 -0.2935 -0.3482 -0.2685
   68DG     H13 1554   5.642   1.511   1.455 -2.3631 -1.8014 -1.1818
   68DG     H14 1555   5.628   1.392   1.344  0.2610 -0.1803  0.2350
   68DG     H15 1556   5.928   1.007   1.286 -2.8770 -1.3069  1.0100
   68DG     H16 1557   6.025   0.974   1.436  2.7353 -2.0658 -1.9713
   68DG     C17 1558   5.804   1.367   1.444  0.2051  0.4342  0.2279
   68DG     C18 1559   5.944   1.175   1.436  0.3163  0.0469 -0.7049
   68DG     O19 1560   5.819   1.229   1.412 -0.0202  0.8143  0.3207
   68DG     H20 1561   5.844   1.383   1.542  0.3268 -0.9616 -1.9610
   68DG     H21 1562   5.863   1.424   1.368  1.3747 -0.5062 -1.0208
   68DG     H22 1563   5.971   1.188   1.541 -4.9630  1.9279 -2.7646
   68DG     H23 1564   6.026   1.216   1.372  1.5608  2.1718  0.5482
   69DG      C1 1565   2.682   0.242   1.430 -0.6167 -0.3402 -0.3485
   69DG      C2 1566   2.357  -0.322   1.305 -0.4000  0.1434  1.2993
   69DG      H3 1567   2.707   0.204   1.529  2.0261  1.1628 -0.8290
   69DG      H4 1568   2.687   0.349   1.439 -0.8912 -0.9771 -2.6770
   69DG      H5 1569   2.764   0.207   1.357 -0.0778  1.9218 -1.5249
   69DG      H6 1570   2.328  -0.380   1.387  1.0451  1.9337  0.8990
   69DG      H7 1571   2.296  -0.358   1.224 -1.3800  0.5974  2.1870
   69DG      H8 1572   2.461  -0.342   1.297 -0.3767  1.0348 -2.0745
   69DG      O9 1573   2.555   0.184   1.384 -0.8279  0.5786 -0.8098
   69DG     O10 1574   2.344  -0.180   1.319 -0.5208 -0.0331 -0.0702
   69DG     C11 1575   2.449   0.213   1.476  0.2375  0.3157  0.1859
   69DG     C12 1576   2.211  -0.154   1.373  0.7831 -0.6794 -0.3408
   69DG     H13 1577   2.462   0.316   1.502  0.2558  0.3723 -1.3368
   69DG     H14 1578   2.450   0.153   1.565 -2.5891 -0.8389  1.3687
   69DG     H15 1579   2.216  -0.196   1.477 -0.2865 -0.8015 -0.7198
   69DG     H16 1580   2.126  -0.201   1.323  0.0321  3.7903 -0.5752
   69DG     C17 1581   2.314   0.193   1.419  0.2345 -0.6897  0.5206
   69DG     C18 1582   2.194  -0.001   1.384  0.6902  0.2145  0.0092
   69DG     O19 1583   2.319   0.050   1.399 -0.1195 -0.0153 -0.0268
   69DG     H20 1584   2.312   0.245   1.323 -1.0531  0.7327 -2.5670
   69DG     H21 1585   2.239   0.239   1.480  0.6113  1.8835  0.3446
   69DG     H22 1586   2.141   0.033   1.291  0.8000  0.1980  0.5865
   69DG     H23 1587   2.123   0.023   1.463 -1.8631 -2.2459 -1.2295
   70DG      C1 1588   1.219   3.368   5.362  0.0641 -0.0905  0.2615
   70DG      C2 1589   1.140   3.560   6.216 -0.4184  0.6112 -0.2191
   70DG      H3 1590   1.126   3.304   5.351 -3.0057  0.9983 -0.5386
   70DG      H4 1591   1.310   3.306   5.391 -2.0801  0.1815  1.3489
   70DG      H5 1592   1.250   3.408   5.262  0.0622 -0.7438 -2.0944
   70DG      H6 1593   1.098   3.475   6.269  1.7700  3.0730 -0.5924
   70DG      H7 1594   1.241   3.586   6.264 -1.3766 -2.6154  0.7599
   70DG      H8 1595   1.068   3.640   6.225 -1.4698 -1.7471 -1.1017
   70DG      O9 1596   1.201   3.490   5.439  0.0222 -0.4390  0.1238
   70DG     O10 1597   1.163   3.538   6.077 -0.5907  0.5512 -0.2007
   70DG     C11 1598   1.188   3.474   5.578 -0.6959 -0.3018 -0.5582
   70DG     C12 1599   1.235   3.637   6.019  0.0003  0.4239 -0.2251
   70DG     H13 1600   1.287   3.443   5.617  0.6187  1.4195  2.0628
   70DG     H14 1601   1.108   3.408   5.599 -0.2276 -1.5284 -0.3703
   70DG     H15 1602   1.322   3.660   6.063  1.3882  0.9833 -1.7544
   70DG     H16 1603   1.174   3.724   6.019  3.8512 -0.4221  6.6213
   70DG     C17 1604   1.164   3.607   5.647  0.8440  1.4031  0.0163
   70DG     C18 1605   1.256   3.595   5.876 -0.8810 -0.2392  1.2982
   70DG     O19 1606   1.145   3.616   5.787  0.2964  0.3828 -0.5588
   70DG     H20 1607   1.077   3.644   5.599  2.7991  1.3666  1.5329
   70DG     H21 1608   1.237   3.676   5.610 -0.1230 -0.6015  1.6110
   70DG     H22 1609   1.334   3.651   5.830  0.9713  1.5275  0.5626
   70DG     H23 1610   1.299   3.496   5.879  1.3046 -1.8508 -1.1861
   71DG      C1 1611   2.403   2.540   3.075  0.6480  0.3113  0.2696
   71DG      C2 1612   2.750   2.468   3.655  0.7243  0.4675 -0.1600
   71DG      H3 1613   2.303   2.529   3.122  0.4177 -1.3700  2.7183
   71DG      H4 1614   2.396   2.547   2.964  1.0435  0.9904  1.0896
   71DG      H5 1615   2.431   2.634   3.104 -0.7158 -2.0914  0.0548
   71DG      H6 1616   2.661   2.530   3.685 -0.2677 -0.0238 -1.9030
   71DG      H7 1617   2.805   2.432   3.745  0.6913  0.9910 -0.3004
   71DG      H8 1618   2.810   2.547   3.600  1.6646 -2.8953 -0.1389
   71DG      O9 1619   2.486   2.439   3.127 -0.0426 -0.0540  0.2268
   71DG     O10 1620   2.709   2.369   3.559  0.3543 -0.3677  0.6114
   71DG     C11 1621   2.618   2.439   3.081 -0.5790  0.0903 -0.4851
   71DG     C12 1622   2.821   2.297   3.506  0.2862  0.0830 -0.4185
   71DG     H13 1623   2.660   2.537   3.106 -1.0631  0.3591 -1.6650
   71DG     H14 1624   2.629   2.411   2.980  0.8258 -1.1170  0.6887
   71DG     H15 1625   2.835   2.206   3.558 -0.7346  0.9835 -1.6584
   71DG     H16 1626   2.914   2.357   3.512  0.0743 -2.2264  1.0815
   71DG     C17 1627   2.712   2.344   3.149 -0.4615  0.4451  0.2022
   71DG     C18 1628   2.786   2.256   3.362 -0.6762  0.5520  0.5107
   71DG     O19 1629   2.735   2.369   3.283  0.0955 -0.8044  0.4655
   71DG     H20 1630   2.801   2.327   3.089 -1.6712  3.3258 -3.8127
   71DG     H21 1631   2.664   2.244   3.139  0.8589 -3.6865  2.2660
   71DG     H22 1632   2.869   2.199   3.310  2.2737  0.5583  1.4206
   71DG     H23 1633   2.708   2.182   3.366  2.4393  0.4443  1.4035
   72DG      C1 1634   2.430   0.502   4.822 -0.5939  0.2959 -0.0445
   72DG      C2 1635   3.009  -0.003   4.319  1.2424 -0.7547 -0.1177
   72DG      H3 1636   2.503   0.585   4.819 -0.0017  1.8260  0.4032
   72DG      H4 1637   2.450   0.438   4.907  0.0512  0.7203  0.2354
   72DG      H5 1638   2.330   0.531   4.840 -1.8987 -3.0662  1.5011
   72DG      H6 1639   3.081   0.077   4.312 -4.3280 -1.5982 -0.3568
   72DG      H7 1640   3.018  -0.048   4.417 -2.9256  0.6087  0.2501
   72DG      H8 1641   3.037  -0.073   4.239  0.5354  0.6269  0.3222
   72DG      O9 1642   2.426   0.413   4.713  0.4721 -0.1012 -0.3267
   72DG     O10 1643   2.876   0.045   4.294  0.2656  0.1743 -0.4906
   72DG     C11 1644   2.556   0.372   4.675  0.1526  0.4074  0.3819
   72DG     C12 1645   2.841   0.168   4.360  0.1281 -0.3492 -0.6493
   72DG     H13 1646   2.606   0.310   4.750  3.2681 -1.5368  2.5592
   72DG     H14 1647   2.608   0.461   4.649  2.0073 -0.9317 -0.0644
   72DG     H15 1648   2.883   0.251   4.306 -1.9339  0.6715  0.5671
   72DG     H16 1649   2.899   0.169   4.445 -2.8368 -0.5024 -0.9287
   72DG     C17 1650   2.541   0.277   4.555 -0.3816  0.6391  0.2599
   72DG     C18 1651   2.682   0.176   4.397 -0.5844  0.9990  0.0211
   72DG     O19 1652   2.669   0.274   4.498  0.1928 -0.2784 -0.6100
   72DG     H20 1653   2.468   0.298   4.471  2.1205  1.0030  0.6069
   72DG     H21 1654   2.499   0.180   4.587 -3.0525  0.3394  1.6260
   72DG     H22 1655   2.632   0.212   4.314 -1.7217  0.0822  0.1924
   72DG     H23 1656   2.654   0.077   4.431  0.1218 -2.0940 -0.1116
   73DG      C1 1657   4.430   1.753   4.695 -0.3823 -0.2719  0.5001
   73DG      C2 1658   5.021   1.735   4.499  0.5069  0.0983 -0.6356
   73DG      H3 1659   4.414   1.710   4.591 -1.5144  1.3386 -0.0264
   73DG      H4 1660   4.452   1.863   4.677  0.0862  1.9698  1.7602
   73DG      H5 1661   4.341   1.742   4.755 -2.0950 -0.9205  0.4088
   73DG      H6 1662   4.984   1.712   4.397 -2.2447 -1.1147  1.5547
   73DG      H7 1663   5.058   1.841   4.486 -2.0424 -0.9330 -1.2596
   73DG      H8 1664   5.099   1.664   4.537  0.7318 -1.0308  1.2683
   73DG      O9 1665   4.541   1.700   4.765 -0.0920  0.3189 -0.1127
   73DG     O10 1666   4.923   1.743   4.597 -0.5579  0.1398 -0.1294
   73DG     C11 1667   4.573   1.762   4.897  0.0666 -0.7641 -0.3920
   73DG     C12 1668   4.982   1.777   4.717  0.5495 -0.0167 -0.6695
   73DG     H13 1669   4.483   1.764   4.969  0.9711  0.6407  2.3830
   73DG     H14 1670   4.602   1.866   4.874  1.1838 -0.4436 -1.1292
   73DG     H15 1671   5.025   1.876   4.712  0.3291 -1.9240  2.7061
   73DG     H16 1672   5.052   1.704   4.748 -0.3726  1.4191 -0.7245
   73DG     C17 1673   4.704   1.683   4.954  0.2087  0.5338  0.5395
   73DG     C18 1674   4.877   1.794   4.821 -0.0694  1.1470  0.2067
   73DG     O19 1675   4.801   1.673   4.839 -0.2786 -0.5628 -0.4524
   73DG     H20 1676   4.688   1.577   4.971  1.9949  2.3354  0.8712
   73DG     H21 1677   4.750   1.732   5.036  2.7689  1.1548  0.7933
   73DG     H22 1678   4.915   1.835   4.912  1.1893  0.3642  0.0420
   73DG     H23 1679   4.808   1.867   4.786  2.9131  1.5878  1.1219
   74DG      C1 1680   0.892   0.077   4.788 -0.0476  0.1373  0.1191
   74DG      C2 1681   1.024  -0.514   5.111 -0.4369  0.3397 -1.0846
   74DG      H3 1682   0.813   0.145   4.802  1.2569 -0.7565  0.0418
   74DG      H4 1683   0.856   0.009   4.710 -2.8874  0.6538  0.4321
   74DG      H5 1684   0.979   0.133   4.754  1.8292 -1.6193  1.0735
   74DG      H6 1685   1.011  -0.558   5.013 -0.7415  0.4424  0.3213
   74DG      H7 1686   1.125  -0.535   5.137 -0.5750  2.1930  0.4438
   74DG      H8 1687   0.952  -0.565   5.175  0.9595  0.1264  3.6917
   74DG      O9 1688   0.910   0.012   4.915  0.0288 -0.0526  0.0225
   74DG     O10 1689   1.002  -0.376   5.116  0.3675 -0.3184 -0.2665
   74DG     C11 1690   0.945   0.100   5.023 -0.0526 -0.0519 -0.3975
   74DG     C12 1691   1.053  -0.307   5.235 -0.8503  0.0502 -0.3567
   74DG     H13 1692   0.893   0.191   5.014 -1.8528 -1.2283 -0.1522
   74DG     H14 1693   1.049   0.122   5.022 -1.4150  1.4288  2.6154
   74DG     H15 1694   1.158  -0.293   5.230 -0.1223 -4.1457  1.8778
   74DG     H16 1695   1.044  -0.377   5.320 -3.3766  2.3144  0.5825
   74DG     C17 1696   0.924   0.030   5.156  0.4823 -0.5459  0.1668
   74DG     C18 1697   0.988  -0.175   5.261  0.3704  0.2078 -0.1271
   74DG     O19 1698   1.002  -0.089   5.148  0.8547  0.3224  0.2530
   74DG     H20 1699   0.819   0.019   5.174 -0.2461  0.2253 -1.3889
   74DG     H21 1700   0.962   0.093   5.235  0.9902 -0.6222  0.2531
   74DG     H22 1701   0.885  -0.195   5.293  1.2780  3.7554  0.1024
   74DG     H23 1702   1.030  -0.126   5.342  3.2787  1.6890 -0.9603
   75DG      C1 1703   4.300   2.143   2.593 -0.4897  0.2047 -0.0393
   75DG      C2 1704   3.992   2.087   1.947 -0.4369 -0.0698  0.9034
   75DG      H3 1705   4.236   2.212   2.646 -5.0441 -0.3153 -1.0118
   75DG      H4 1706   4.381   2.120   2.655 -1.9018 -0.7382 -0.2195
   75DG      H5 1707   4.242   2.050   2.591 -0.3516  1.6281  0.8486
   75DG      H6 1708   3.927   2.000   1.918 -1.4224 -0.5369 -2.3498
   75DG      H7 1709   3.922   2.140   2.010 -0.9465 -0.4494 -1.1612
   75DG      H8 1710   4.018   2.143   1.848  1.6893 -2.0933 -0.8578
   75DG      O9 1711   4.329   2.206   2.467  0.1729  0.7154 -0.4948
   75DG     O10 1712   4.109   2.058   2.018  0.5055 -0.0627 -0.6831
   75DG     C11 1713   4.439   2.138   2.394  0.5286 -0.1851  0.0624
   75DG     C12 1714   4.082   1.974   2.123 -0.2597  0.0051  0.0307
   75DG     H13 1715   4.532   2.121   2.449 -0.5348 -1.3474  1.3787
   75DG     H14 1716   4.471   2.210   2.321  1.5090 -2.0815  0.6275
   75DG     H15 1717   4.039   1.873   2.097  1.2097  0.9784 -1.8099
   75DG     H16 1718   4.027   2.029   2.193 -0.2645 -1.3888  1.4861
   75DG     C17 1719   4.389   2.003   2.322 -0.8736  0.0242  0.0190
   75DG     C18 1720   4.212   1.931   2.185 -0.0496 -0.4201  0.4787
   75DG     O19 1721   4.280   2.044   2.241 -0.2402  0.4124  0.0030
   75DG     H20 1722   4.362   1.919   2.390  1.3868  1.4728 -0.0140
   75DG     H21 1723   4.462   1.979   2.251 -1.3278 -0.9509  2.3145
   75DG     H22 1724   4.190   1.855   2.258  1.7320 -1.7155 -0.4809
   75DG     H23 1725   4.280   1.882   2.125 -0.8249  0.8917  1.4249
   76DG      C1 1726   2.415   3.481   0.628 -0.1341  0.4698  0.6368
   76DG      C2 1727   2.219   3.521   1.285 -0.3966 -0.5086  0.5862
   76DG      H3 1728   2.439   3.568   0.681 -1.7745 -0.3483 -0.3733
   76DG      H4 1729   2.404   3.509   0.520  0.8471  0.0266 -0.8143
   76DG      H5 1730   2.499   3.425   0.649 -2.3506 -0.1119  0.9376
   76DG      H6 1731   2.237   3.622   1.253  3.6502 -0.7923  0.7243
   76DG      H7 1732   2.178   3.510   1.382  0.3202  0.3500 -0.6677
   76DG      H8 1733   2.311   3.471   1.270 -0.5039 -1.8123 -0.0501
   76DG      O9 1734   2.298   3.416   0.684 -0.1114 -0.5107  0.2398
   76DG     O10 1735   2.152   3.452   1.187 -0.2177 -0.5242 -0.0966
   76DG     C11 1736   2.180   3.492   0.665  0.1712  0.2628 -0.1931
   76DG     C12 1737   2.044   3.525   1.130  0.6044  0.0999  0.1856
   76DG     H13 1738   2.136   3.463   0.566 -4.2438  2.7541  3.3439
   76DG     H14 1739   2.200   3.600   0.667 -1.1972  0.5328  1.5848
   76DG     H15 1740   2.057   3.632   1.126 -0.7540 -0.5998  0.0751
   76DG     H16 1741   1.964   3.514   1.213 -3.3529 -3.1240  2.3723
   76DG     C17 1742   2.074   3.460   0.768  0.2533 -0.4980  0.3378
   76DG     C18 1743   2.008   3.470   0.986 -0.0920  0.4594 -0.8174
   76DG     O19 1744   2.113   3.495   0.899 -0.6569  0.0918 -0.3718
   76DG     H20 1745   2.068   3.355   0.767  1.3574  0.7041 -0.3982
   76DG     H21 1746   1.982   3.504   0.736 -1.6496 -1.4829 -1.5309
   76DG     H22 1747   1.996   3.363   0.992  0.4602  0.7580 -0.9591
   76DG     H23 1748   1.908   3.503   0.951  0.4964 -0.6936  3.8632
   77DG      C1 1749   3.753   5.087   5.149 -0.3983  0.2420 -0.3470
   77DG      C2 1750   4.164   5.400   5.801  0.1926 -0.2904 -0.2233
   77DG      H3 1751   3.657   5.127   5.154  0.2688 -0.8881 -1.7414
   77DG      H4 1752   3.758   5.004   5.219 -0.2802 -1.7214  2.1316
   77DG      H5 1753   3.753   5.037   5.046  0.4775 -1.4487 -0.7846
   77DG      H6 1754   4.130   5.463   5.882  1.5748 -2.3275  0.0234
   77DG      H7 1755   4.168   5.296   5.841 -1.2214  0.5350 -1.6165
   77DG      H8 1756   4.262   5.428   5.759  1.2310  0.0015 -1.3880
   77DG      O9 1757   3.859   5.180   5.173  0.0581  0.5577  0.1834
   77DG     O10 1758   4.075   5.392   5.692  0.8246 -0.0798  0.1540
   77DG     C11 1759   3.858   5.251   5.302 -0.3147 -0.0640  0.0997
   77DG     C12 1760   4.072   5.521   5.633  0.3450 -0.1943 -0.7283
   77DG     H13 1761   3.883   5.178   5.382  0.4994 -0.9571 -1.5419
   77DG     H14 1762   3.761   5.291   5.329  0.0593 -0.2893 -1.7512
   77DG     H15 1763   4.160   5.582   5.659  0.9552 -0.2871  1.3102
   77DG     H16 1764   3.986   5.571   5.684 -1.0913 -0.7720  0.7275
   77DG     C17 1765   3.959   5.364   5.312  0.3498 -0.0372  0.0076
   77DG     C18 1766   4.048   5.516   5.478 -0.0237  0.3421 -0.0543
   77DG     O19 1767   3.957   5.404   5.451  0.2083 -0.1130 -0.0100
   77DG     H20 1768   3.932   5.443   5.235  2.3069 -1.1414 -0.1648
   77DG     H21 1769   4.057   5.315   5.298  3.1427 -0.9794 -0.4092
   77DG     H22 1770   4.030   5.614   5.440  0.8388  1.2938  0.8660
   77DG     H23 1771   4.138   5.492   5.426  0.7176  0.0831 -0.6844
   78DG      C1 1772   2.023   3.657   3.888 -0.1004  0.7923  0.6243
   78DG      C2 1773   2.224   3.234   3.431  0.2311  0.3232 -0.4862
   78DG      H3 1774   2.117   3.709   3.893 -0.6962  2.6386  1.6046
   78DG      H4 1775   1.969   3.707   3.973  0.3760 -2.3078  0.8721
   78DG      H5 1776   1.975   3.669   3.796  0.3576 -1.8935  0.8255
   78DG      H6 1777   2.123   3.211   3.405  2.5522  2.0257 -1.3800
   78DG      H7 1778   2.270   3.294   3.352  3.0463 -1.2312  2.5561
   78DG      H8 1779   2.280   3.144   3.436 -0.6808 -0.9345 -2.5500
   78DG      O9 1780   2.036   3.511   3.900  0.1704 -0.1145 -0.0521
   78DG     O10 1781   2.235   3.299   3.563 -0.5387  0.1567 -0.5748
   78DG     C11 1782   2.136   3.470   4.001 -0.1694 -0.5706  0.0418
   78DG     C12 1783   2.369   3.312   3.614  0.2882  0.0262 -0.1257
   78DG     H13 1784   2.109   3.369   4.037 -1.0479  0.3429 -0.4030
   78DG     H14 1785   2.127   3.538   4.091  0.2790  2.0916  1.3037
   78DG     H15 1786   2.422   3.342   3.530 -2.1246 -0.3047  1.0388
   78DG     H16 1787   2.411   3.214   3.651 -1.6482  1.3819  0.1132
   78DG     C17 1788   2.279   3.475   3.931 -0.2947 -0.3403 -0.5829
   78DG     C18 1789   2.377   3.419   3.726 -0.2667 -0.1530 -0.4457
   78DG     O19 1790   2.280   3.385   3.823 -0.5027  0.0111 -0.2884
   78DG     H20 1791   2.353   3.446   4.007  0.8550  1.1876  0.3028
   78DG     H21 1792   2.300   3.577   3.903 -0.6912  0.3410 -1.3114
   78DG     H22 1793   2.480   3.414   3.765 -1.1566 -0.2075 -0.1248
   78DG     H23 1794   2.348   3.511   3.679 -0.0473 -2.2628 -2.6483
   79DG      C1 1795   5.092   1.231   1.747 -0.7068  0.5431 -0.0564
   79DG      C2 1796   4.433   0.975   1.588 -0.0643 -0.2251  0.5035
   79DG      H3 1797   5.088   1.264   1.849  1.7084  0.2052 -0.5990
   79DG      H4 1798   5.122   1.314   1.678  0.4339 -0.0996  0.2404
   79DG      H5 1799   5.183   1.168   1.743  2.6703 -0.9481 -1.3931
   79DG      H6 1800   4.371   0.904   1.537 -1.6579 -1.9246  0.4126
   79DG      H7 1801   4.376   0.997   1.680  0.1653 -1.0940  1.3729
   79DG      H8 1802   4.432   1.069   1.524 -1.8544 -0.4417 -0.5811
   79DG      O9 1803   4.973   1.171   1.692 -0.4563  0.2022  0.2533
   79DG     O10 1804   4.556   0.912   1.611 -0.3844 -0.3508 -0.0289
   79DG     C11 1805   4.930   1.059   1.765 -0.7822 -0.5746  0.1185
   79DG     C12 1806   4.623   0.876   1.494 -0.7797 -0.1035 -0.0908
   79DG     H13 1807   4.910   1.080   1.867  2.4697  1.7214 -1.2410
   79DG     H14 1808   5.012   0.991   1.773 -0.9338 -1.5536  2.2158
   79DG     H15 1809   4.633   0.972   1.439 -2.6438  4.1655  1.3525
   79DG     H16 1810   4.557   0.813   1.437 -0.5761  0.0818  2.1356
   79DG     C17 1811   4.818   0.983   1.697  0.1051 -0.0203  0.2266
   79DG     C18 1812   4.762   0.812   1.527  0.0953  0.4333 -0.4687
   79DG     O19 1813   4.862   0.912   1.575 -0.6240  0.0365  0.9914
   79DG     H20 1814   4.748   1.058   1.683  1.5819  0.8256  0.5380
   79DG     H21 1815   4.774   0.907   1.765  0.1906  1.8203 -0.8050
   79DG     H22 1816   4.735   0.728   1.594  1.4781 -0.3306  1.1123
   79DG     H23 1817   4.800   0.770   1.441 -0.5348  0.6765  1.4782
   80DG      C1 1818   3.385   4.392   0.432 -0.0152  0.0352 -0.3181
   80DG      C2 1819   3.697   3.964   1.088 -0.5267  0.3142  0.8954
   80DG      H3 1820   3.315   4.405   0.349 -2.1435 -0.6527 -2.8015
   80DG      H4 1821   3.483   4.372   0.382  0.2188 -0.5097  1.3900
   80DG      H5 1822   3.389   4.484   0.488  0.5687 -0.7681  0.4212
   80DG      H6 1823   3.710   4.029   1.173 -1.2886 -1.4040  0.2214
   80DG      H7 1824   3.673   3.870   1.137  0.8606  0.1196 -0.3732
   80DG      H8 1825   3.788   3.967   1.030 -1.8186  1.0482  0.0124
   80DG      O9 1826   3.328   4.284   0.510 -0.2427  0.4878 -0.9543
   80DG     O10 1827   3.584   4.005   1.010  0.1382 -0.4444  0.3504
   80DG     C11 1828   3.428   4.232   0.596  0.1772 -0.1978  0.1502
   80DG     C12 1829   3.560   3.906   0.908 -0.0325  0.6200 -0.1040
   80DG     H13 1830   3.460   4.309   0.669 -1.7670 -0.4270  0.7462
   80DG     H14 1831   3.516   4.217   0.532 -1.1855 -0.4276 -2.0687
   80DG     H15 1832   3.535   3.810   0.955 -2.1580 -1.6541 -2.9084
   80DG     H16 1833   3.644   3.892   0.840 -1.1101  3.1061  1.2614
   80DG     C17 1834   3.385   4.107   0.672  0.3589 -0.0795 -0.1641
   80DG     C18 1835   3.432   3.948   0.834 -0.0694 -0.5702  0.4358
   80DG     O19 1836   3.470   4.069   0.777 -0.1202 -0.2531  0.0869
   80DG     H20 1837   3.373   4.033   0.595  0.3736  1.5328 -0.5638
   80DG     H21 1838   3.293   4.133   0.715  0.5838  0.2536 -0.6695
   80DG     H22 1839   3.407   3.876   0.750 -2.5731  1.5296 -0.4706
   80DG     H23 1840   3.339   3.955   0.891 -0.7265  0.9103  3.2546
   81DG      C1 1841   1.950   2.318   5.250  0.2948 -0.0768  0.0233
   81DG      C2 1842   1.553   1.736   5.331  0.9321  0.1387 -0.5127
   81DG      H3 1843   1.948   2.425   5.233  0.6402  1.2011  2.4484
   81DG      H4 1844   1.975   2.253   5.167 -1.5347  0.1676 -1.7557
   81DG      H5 1845   2.027   2.285   5.318 -0.8846  1.7343  0.4169
   81DG      H6 1846   1.631   1.687   5.385 -1.5265 -0.2782 -0.0709
   81DG      H7 1847   1.471   1.658   5.348  2.2901  1.7456  2.2914
   81DG      H8 1848   1.580   1.748   5.229  2.5709 -1.0778 -0.6644
   81DG      O9 1849   1.832   2.268   5.300 -0.0184  0.1876  0.1163
   81DG     O10 1850   1.534   1.871   5.375  0.6032  0.0323 -0.0915
   81DG     C11 1851   1.720   2.334   5.241 -0.2264 -0.4860 -0.6151
   81DG     C12 1852   1.440   1.941   5.299  0.6903 -0.1287 -0.2896
   81DG     H13 1853   1.727   2.313   5.136 -0.3676 -2.6240 -0.8810
   81DG     H14 1854   1.724   2.441   5.253 -3.0030  0.2433  2.0712
   81DG     H15 1855   1.335   1.929   5.333 -1.3271  2.1290 -1.2698
   81DG     H16 1856   1.454   1.919   5.193  2.6710  2.1741 -0.4963
   81DG     C17 1857   1.594   2.275   5.308  0.1519 -0.1437  0.1776
   81DG     C18 1858   1.456   2.087   5.331  0.0313 -0.4167  0.5977
   81DG     O19 1859   1.581   2.140   5.284  0.0359  0.5296  0.1634
   81DG     H20 1860   1.510   2.331   5.268 -1.2506  0.0323  3.2359
   81DG     H21 1861   1.603   2.295   5.417  1.1440 -2.3963  0.9230
   81DG     H22 1862   1.380   2.142   5.289  2.0920  1.3965 -0.6528
   81DG     H23 1863   1.449   2.102   5.434  1.3847  0.1158 -1.7894
   82DG      C1 1864   3.200   1.032   2.138  0.0634  0.1339  0.5887
   82DG      C2 1865   3.031   0.497   2.621 -0.0418  0.2062  0.0631
   82DG      H3 1866   3.103   1.075   2.118  2.0519  0.8067 -0.6703
   82DG      H4 1867   3.247   1.061   2.045  0.8882 -1.5264 -0.1240
   82DG      H5 1868   3.254   1.099   2.201 -0.5211 -1.7002 -1.1963
   82DG      H6 1869   2.970   0.574   2.664 -0.5622 -1.2176 -1.0687
   82DG      H7 1870   3.009   0.387   2.631 -2.1241 -1.4160  0.8747
   82DG      H8 1871   3.132   0.495   2.670  0.6927  1.0386 -0.6200
   82DG      O9 1872   3.199   0.898   2.173  0.3451  0.4694  0.5368
   82DG     O10 1873   3.077   0.518   2.490  0.0440  0.0920  0.2967
   82DG     C11 1874   3.318   0.827   2.168 -0.4319  0.3296 -0.6163
   82DG     C12 1875   3.186   0.439   2.442 -0.1583 -0.2649 -0.0557
   82DG     H13 1876   3.387   0.846   2.247 -0.8089 -1.3947 -0.0110
   82DG     H14 1877   3.369   0.846   2.073  0.9447 -0.3696  1.2691
   82DG     H15 1878   3.152   0.340   2.449  0.1697 -0.7820 -0.6138
   82DG     H16 1879   3.270   0.447   2.508 -0.4680  0.4564 -0.0155
   82DG     C17 1880   3.295   0.677   2.173 -0.7636 -0.8581 -0.0485
   82DG     C18 1881   3.238   0.489   2.300 -0.0947  0.7540 -0.2113
   82DG     O19 1882   3.253   0.633   2.300  0.2771 -0.2394 -0.0114
   82DG     H20 1883   3.391   0.627   2.155  1.4730 -0.3354  2.0244
   82DG     H21 1884   3.226   0.652   2.100  3.2877 -0.8349  1.5650
   82DG     H22 1885   3.333   0.437   2.279 -2.0568 -2.6909  1.0130
   82DG     H23 1886   3.162   0.463   2.226  0.5904 -2.6218 -1.7298
   83DG      C1 1887   4.748   2.054   5.083 -0.5601  0.0507  1.0486
   83DG      C2 1888   4.371   2.190   4.753  0.1307 -0.4472  0.2307
   83DG      H3 1889   4.756   2.106   5.178 -0.0590 -1.1837  4.5238
   83DG      H4 1890   4.706   1.961   5.105  0.5929  0.3316 -1.9060
   83DG      H5 1891   4.683   2.108   5.017  2.1157  1.9320  0.7502
   83DG      H6 1892   4.367   2.084   4.761 -2.5827  2.8827  1.5001
   83DG      H7 1893   4.319   2.222   4.845 -0.1309 -0.7566  0.2920
   83DG      H8 1894   4.300   2.225   4.673  1.0994  1.6543  2.4884
   83DG      O9 1895   4.876   2.037   5.021  0.6735  0.0968 -0.4174
   83DG     O10 1896   4.497   2.249   4.735  0.1780  0.1376 -0.3780
   83DG     C11 1897   4.936   2.162   4.983  0.2112 -0.0242 -0.8317
   83DG     C12 1898   4.587   2.153   4.663 -1.1407 -0.2464 -0.5003
   83DG     H13 1899   5.047   2.159   4.992  2.9823  2.4708 -1.2748
   83DG     H14 1900   4.896   2.251   5.036 -0.2542  1.5383 -1.1292
   83DG     H15 1901   4.562   2.143   4.555  0.6884  0.3265 -0.1966
   83DG     H16 1902   4.585   2.044   4.701 -2.3348  0.5862 -2.2930
   83DG     C17 1903   4.914   2.180   4.834  0.4397 -0.2524 -0.2101
   83DG     C18 1904   4.737   2.191   4.678 -0.5962  0.5476 -0.3125
   83DG     O19 1905   4.775   2.158   4.813  0.3313 -0.1437  0.1608
   83DG     H20 1906   4.968   2.109   4.774  0.2028  0.5450 -1.0190
   83DG     H21 1907   4.927   2.285   4.818  2.2421 -1.1894  2.4211
   83DG     H22 1908   4.801   2.136   4.608  0.3441  2.2409  0.2551
   83DG     H23 1909   4.743   2.294   4.648 -3.3375  3.1529  0.0671
   84DG      C1 1910   4.705   1.871   4.370 -0.3404 -0.5645  0.1680
   84DG      C2 1911   4.556   1.332   4.806  0.3389  0.2349  0.3926
   84DG      H3 1912   4.601   1.881   4.364  2.7067  2.2917  0.0569
   84DG      H4 1913   4.756   1.895   4.278  0.8210  0.1592 -1.4915
   84DG      H5 1914   4.747   1.931   4.451  0.8801  0.7158  2.0735
   84DG      H6 1915   4.465   1.280   4.778  1.9000 -0.5419  1.9498
   84DG      H7 1916   4.614   1.260   4.859  0.0782 -0.8884 -0.6251
   84DG      H8 1917   4.529   1.411   4.879 -0.3013  0.1679 -1.4644
   84DG      O9 1918   4.733   1.734   4.379  0.1142 -0.0908 -0.4361
   84DG     O10 1919   4.625   1.364   4.689  0.0980 -0.1970 -0.0413
   84DG     C11 1920   4.673   1.648   4.278  0.2031  0.5288 -0.7330
   84DG     C12 1921   4.598   1.282   4.581 -0.1811  0.1314 -1.1376
   84DG     H13 1922   4.709   1.688   4.180  1.2012  1.8118  1.1345
   84DG     H14 1923   4.564   1.653   4.275  1.3128 -0.3852  1.0703
   84DG     H15 1924   4.492   1.283   4.574 -0.1797 -1.7625 -0.2491
   84DG     H16 1925   4.628   1.177   4.609 -0.6206 -0.5142 -2.0637
   84DG     C17 1926   4.705   1.506   4.308  0.6621 -1.0089 -0.7293
   84DG     C18 1927   4.677   1.330   4.459  0.3745  0.2699  0.0145
   84DG     O19 1928   4.648   1.466   4.431 -0.2771 -0.8092  0.0223
   84DG     H20 1929   4.811   1.486   4.330  0.9577  2.7268  2.1633
   84DG     H21 1930   4.664   1.436   4.232  1.5950 -0.0095  0.6574
   84DG     H22 1931   4.785   1.303   4.478  0.6932 -0.7459 -1.8474
   84DG     H23 1932   4.638   1.274   4.379  1.5844 -2.1908 -0.9846
   85DG      C1 1933   1.394   1.876   2.657 -0.2287 -0.8521 -0.1573
   85DG      C2 1934   0.811   2.115   2.333 -0.0081  0.2571  0.3466
   85DG      H3 1935   1.417   1.959   2.724  1.0280 -0.7879  0.1286
   85DG      H4 1936   1.363   1.929   2.563 -1.2024  1.6188 -2.4496
   85DG      H5 1937   1.477   1.809   2.637  0.8989  0.4095  0.8705
   85DG      H6 1938   0.755   2.039   2.278  0.7655  2.3083 -0.3374
   85DG      H7 1939   0.734   2.142   2.408 -0.3809 -1.3080  0.0241
   85DG      H8 1940   0.835   2.189   2.262 -1.5421  1.0023  1.9535
   85DG      O9 1941   1.279   1.802   2.708 -0.5405 -0.7324  0.3385
   85DG     O10 1942   0.918   2.034   2.385 -0.4200  0.5663  0.2396
   85DG     C11 1943   1.157   1.878   2.705 -0.4570 -0.1341  0.6791
   85DG     C12 1944   1.008   1.988   2.290 -0.2854 -0.0518  0.1185
   85DG     H13 1945   1.171   1.979   2.745  1.6014 -0.2426  0.4751
   85DG     H14 1946   1.096   1.843   2.791 -3.1594 -0.1753 -0.3541
   85DG     H15 1947   1.080   2.069   2.277  0.7462  1.2169 -1.1032
   85DG     H16 1948   0.961   1.965   2.198 -1.4651 -2.7196 -1.4649
   85DG     C17 1949   1.087   1.856   2.569  0.5603  0.0976  0.0435
   85DG     C18 1950   1.091   1.858   2.328  0.1934  0.2263  0.6184
   85DG     O19 1951   1.160   1.890   2.452  0.4311 -0.3742  0.2900
   85DG     H20 1952   0.997   1.920   2.567 -0.4171 -1.2740 -2.4131
   85DG     H21 1953   1.043   1.758   2.551  1.8655 -0.1381  0.3513
   85DG     H22 1954   1.034   1.768   2.329  2.0263  1.0049  1.5056
   85DG     H23 1955   1.162   1.839   2.240 -1.4104 -0.6783  1.0394
   86DG      C1 1956   1.232   0.469   5.016 -0.2218 -0.8924 -0.3590
   86DG      C2 1957   1.241   0.140   4.358 -0.3712 -0.2330  0.1261
   86DG      H3 1958   1.276   0.556   5.073  0.7459  4.5125 -1.4972
   86DG      H4 1959   1.301   0.388   5.005 -0.1264 -0.5647  2.7956
   86DG      H5 1960   1.146   0.425   5.069  0.9687  1.5567 -0.8051
   86DG      H6 1961   1.251   0.148   4.249  1.9821  1.0799 -0.8229
   86DG      H7 1962   1.299   0.222   4.401  0.2208  0.3982 -0.0038
   86DG      H8 1963   1.276   0.042   4.379  0.6977  0.1256  0.2704
   86DG      O9 1964   1.198   0.510   4.889  0.2867  0.4315 -0.3783
   86DG     O10 1965   1.102   0.159   4.375 -0.8014  0.0497 -0.5966
   86DG     C11 1966   1.149   0.406   4.799  0.1680  0.1541  0.7912
   86DG     C12 1967   1.052   0.284   4.332  0.4232  0.2034  0.5809
   86DG     H13 1968   1.065   0.357   4.844  2.9898  0.7565 -0.4705
   86DG     H14 1969   1.228   0.334   4.779  0.7838  0.0631  1.9075
   86DG     H15 1970   0.944   0.273   4.341  2.9377  0.3041 -1.8539
   86DG     H16 1971   1.081   0.311   4.233 -1.9410 -0.3269  0.1421
   86DG     C17 1972   1.114   0.462   4.659  0.2359  0.5455  0.1211
   86DG     C18 1973   1.084   0.399   4.429 -0.0813 -0.4737  0.1171
   86DG     O19 1974   1.062   0.362   4.565  0.3113 -0.7526 -0.0666
   86DG     H20 1975   1.195   0.516   4.623  0.2177 -2.0199  1.4708
   86DG     H21 1976   1.035   0.535   4.661  1.2758  0.4599  0.6832
   86DG     H22 1977   1.188   0.418   4.417 -0.4901 -2.7701  1.0287
   86DG     H23 1978   1.031   0.487   4.397  2.6849  1.6662 -2.5338
   87DG      C1 1979   5.120   3.781   1.267  0.2089  0.1238 -0.7940
   87DG      C2 1980   4.986   3.051   1.261  0.3037 -0.6515  0.0182
   87DG      H3 1981   5.043   3.858   1.262 -1.1445  1.3976 -3.2142
   87DG      H4 1982   5.213   3.825   1.240  0.9867 -1.8216  1.4684
   87DG      H5 1983   5.134   3.730   1.367 -0.9929  1.2521 -0.5470
   87DG      H6 1984   5.063   3.004   1.324 -0.5492 -2.4470 -2.5993
   87DG      H7 1985   4.917   3.105   1.327 -0.8513  2.2892 -1.7926
   87DG      H8 1986   4.931   2.973   1.216 -2.3108 -1.0226  1.1274
   87DG      O9 1987   5.061   3.686   1.180 -0.0280  0.1650 -0.0571
   87DG     O10 1988   5.049   3.137   1.166 -0.1676 -0.2569  0.5476
   87DG     C11 1989   5.152   3.610   1.112 -0.5794  0.3233  0.9233
   87DG     C12 1990   4.943   3.189   1.082  0.9600  0.0799 -0.8997
   87DG     H13 1991   5.213   3.567   1.194  1.2301 -0.2122  1.0740
   87DG     H14 1992   5.217   3.684   1.053  0.0472  0.7943 -2.4121
   87DG     H15 1993   4.854   3.222   1.139 -3.2320  0.1484  1.9030
   87DG     H16 1994   4.907   3.111   1.009  0.1903 -4.5099  0.4816
   87DG     C17 1995   5.094   3.507   1.017 -0.3790 -0.8915  0.0720
   87DG     C18 1996   4.976   3.311   1.000  0.3657 -0.0906 -0.1451
   87DG     O19 1997   5.025   3.400   1.086 -0.8750 -0.0881 -0.0233
   87DG     H20 1998   5.180   3.465   0.962  1.2472  0.7203 -2.0509
   87DG     H21 1999   5.020   3.559   0.959 -0.0274  0.3811  2.7401
   87DG     H22 2000   5.058   3.283   0.929  0.3077  5.4124  0.3214
   87DG     H23 2001   4.901   3.355   0.931  1.9281 -2.7399 -2.1295
   88DG      C1 2002   5.057   3.543   0.673  0.0997  0.0863  0.1800
   88DG      C2 2003   5.428   3.966   0.255 -0.2713 -0.1648  0.4402
   88DG      H3 2004   5.149   3.487   0.693  0.0216 -2.4373 -0.5005
   88DG      H4 2005   4.956   3.506   0.696  1.4012  1.5677 -2.4294
   88DG      H5 2006   5.065   3.629   0.744 -0.2155  1.2442 -1.6737
   88DG      H6 2007   5.398   3.998   0.153 -1.7929 -0.8247  2.2871
   88DG      H7 2008   5.418   4.049   0.328 -1.3544 -1.8998 -0.2236
   88DG      H8 2009   5.536   3.952   0.262 -1.8533  1.8675  1.3952
   88DG      O9 2010   5.063   3.591   0.538  0.2515 -0.6512 -0.7107
   88DG     O10 2011   5.365   3.850   0.307 -0.0552 -0.2956 -0.2265
   88DG     C11 2012   5.082   3.485   0.441 -0.2325 -0.0880  0.1547
   88DG     C12 2013   5.375   3.744   0.210  0.0369  0.0350 -0.7168
   88DG     H13 2014   5.002   3.418   0.458 -1.7176  3.6805 -1.0295
   88DG     H14 2015   5.182   3.432   0.451  0.0652 -0.7176 -1.2897
   88DG     H15 2016   5.475   3.703   0.210  0.3242  3.1866 -1.0449
   88DG     H16 2017   5.338   3.783   0.117  0.8274 -1.1118 -2.8776
   88DG     C17 2018   5.068   3.550   0.297 -0.1436 -0.2101  0.2203
   88DG     C18 2019   5.292   3.621   0.248  0.1441 -0.3751  0.1413
   88DG     O19 2020   5.161   3.652   0.286 -0.1938  0.3932 -0.4051
   88DG     H20 2021   4.970   3.585   0.262 -3.2962 -0.8091 -0.9366
   88DG     H21 2022   5.080   3.466   0.227  2.9838  2.9246  1.1030
   88DG     H22 2023   5.290   3.566   0.159  0.6413  2.1791 -0.1509
   88DG     H23 2024   5.332   3.548   0.318 -1.1680  0.5983 -1.0842
   89DG      C1 2025   5.199   2.466   5.153 -0.0363 -0.1228  0.0763
   89DG      C2 2026   5.125   3.039   4.514 -0.2603 -0.3062  1.1427
   89DG      H3 2027   5.123   2.402   5.197 -0.0838 -1.9364 -2.7145
   89DG      H4 2028   5.210   2.548   5.230  2.8028  1.0092  1.1891
   89DG      H5 2029   5.290   2.405   5.139  1.7141 -0.4875  2.2780
   89DG      H6 2030   5.091   3.132   4.555  1.5297 -0.6374 -0.6369
   89DG      H7 2031   5.232   3.036   4.538 -0.9760 -0.0118 -1.4256
   89DG      H8 2032   5.110   3.042   4.405 -3.4583 -4.3898 -0.3005
   89DG      O9 2033   5.132   2.502   5.034  0.0267 -0.4077  0.2303
   89DG     O10 2034   5.049   2.932   4.572  0.1392 -0.3559  0.5885
   89DG     C11 2035   5.010   2.578   5.051  0.2179 -0.2365 -0.1953
   89DG     C12 2036   5.102   2.891   4.700  0.5915  0.3855  0.2558
   89DG     H13 2037   5.017   2.651   5.131  0.5835  0.4143  2.7200
   89DG     H14 2038   4.939   2.501   5.086 -1.8475  1.0154  0.6524
   89DG     H15 2039   5.110   2.972   4.770  0.3722 -1.9464 -3.6150
   89DG     H16 2040   5.198   2.841   4.691 -2.6709 -0.5422 -0.7320
   89DG     C17 2041   4.958   2.638   4.924  0.6089 -0.4782 -0.8758
   89DG     C18 2042   4.991   2.791   4.740  0.4216  0.5133  0.2889
   89DG     O19 2043   5.043   2.732   4.865 -0.0008  0.3170  0.4700
   89DG     H20 2044   4.860   2.687   4.955 -1.5430  0.4640 -1.1914
   89DG     H21 2045   4.935   2.567   4.853 -0.0950  0.0638 -0.5225
   89DG     H22 2046   4.896   2.843   4.760 -1.0249 -0.6954 -0.9943
   89DG     H23 2047   4.981   2.709   4.673 -1.9683 -1.1624  2.4503
   90DG      C1 2048   3.439   3.496   0.583 -0.1080  0.1145 -0.0577
   90DG      C2 2049   3.112   3.113   0.186 -0.4377 -0.3057  0.2573
   90DG      H3 2050   3.542   3.493   0.622  0.0489 -0.9266 -1.8718
   90DG      H4 2051   3.390   3.431   0.648 -0.9274  1.1916 -0.7519
   90DG      H5 2052   3.396   3.594   0.583 -0.2924 -2.0374 -0.9241
   90DG      H6 2053   3.120   3.051   0.097 -2.1864 -0.2427 -0.0088
   90DG      H7 2054   3.169   3.074   0.271  0.3582 -0.2361  4.2902
   90DG      H8 2055   3.010   3.126   0.207  1.1774 -0.2594  3.4023
   90DG      O9 2056   3.453   3.441   0.454  0.7688 -0.4753 -0.0702
   90DG     O10 2057   3.173   3.233   0.160  0.0053 -0.5190  0.0219
   90DG     C11 2058   3.531   3.507   0.362  0.3203 -0.8476 -0.1316
   90DG     C12 2059   3.296   3.220   0.089 -0.3141  0.3575 -0.1538
   90DG     H13 2060   3.632   3.515   0.399  0.1919 -0.6457 -0.4792
   90DG     H14 2061   3.489   3.610   0.358  0.7699  1.4439 -0.5024
   90DG     H15 2062   3.269   3.165  -0.001 -0.1589 -2.5149 -0.0893
   90DG     H16 2063   3.359   3.153   0.149 -1.8762  0.7476  0.0557
   90DG     C17 2064   3.533   3.443   0.226 -0.6342 -0.0609 -0.0355
   90DG     C18 2065   3.371   3.354   0.058 -0.7145 -0.6942 -0.2302
   90DG     O19 2066   3.397   3.421   0.185  0.2473  0.3075 -0.0832
   90DG     H20 2067   3.593   3.351   0.231  0.8995  5.2542  2.2539
   90DG     H21 2068   3.580   3.514   0.165  0.0900 -0.8081  0.1127
   90DG     H22 2069   3.464   3.331   0.008 -0.1805  1.5247  0.8833
   90DG     H23 2070   3.309   3.421   0.006  3.2570  0.8598  1.4102
   91DG      C1 2071   2.325   4.433   1.692  0.1589 -0.2930 -0.0308
   91DG      C2 2072   1.610   4.818   1.454 -0.2151  0.4675 -0.3102
   91DG      H3 2073   2.414   4.490   1.663 -1.1450  1.0151  0.5083
   91DG      H4 2074   2.357   4.337   1.739  1.2670  0.4692 -2.7729
   91DG      H5 2075   2.292   4.507   1.766 -2.0960 -0.1772  2.2190
   91DG      H6 2076   1.598   4.832   1.562  2.4214 -0.4340  2.3194
   91DG      H7 2077   1.685   4.884   1.407 -1.1367 -0.9166  0.5822
   91DG      H8 2078   1.514   4.848   1.402 -1.4024  1.1787 -1.0523
   91DG      O9 2079   2.229   4.403   1.583  0.1871 -0.1282 -0.3292
   91DG     O10 2080   1.653   4.674   1.437  0.3028  0.2813  0.0267
   91DG     C11 2081   2.110   4.331   1.625  0.4486 -0.1364  0.2591
   91DG     C12 2082   1.758   4.624   1.525  0.3834  0.4349  0.0729
   91DG     H13 2083   2.069   4.357   1.727 -0.9717 -3.1656  2.7909
   91DG     H14 2084   2.121   4.223   1.625  0.3637  0.2697 -2.5683
   91DG     H15 2085   1.728   4.602   1.622 -0.1791 -0.6858 -3.5573
   91DG     H16 2086   1.831   4.698   1.527  0.7292  1.5178 -1.7406
   91DG     C17 2087   2.001   4.352   1.517 -0.2436 -0.7266  0.2436
   91DG     C18 2088   1.822   4.505   1.453 -0.3544 -0.4303  0.1474
   91DG     O19 2089   1.944   4.482   1.525 -0.2318  0.0298 -0.4465
   91DG     H20 2090   1.928   4.273   1.526  0.5148  0.8839  0.1780
   91DG     H21 2091   2.036   4.344   1.420 -2.2852  0.4491  1.1569
   91DG     H22 2092   1.749   4.427   1.440  2.0250 -0.0422 -4.8219
   91DG     H23 2093   1.848   4.532   1.349 -0.6983  1.2948 -0.9638
   92DG      C1 2094   3.813   0.021   1.763  0.1945  0.3079 -0.2333
   92DG      C2 2095   4.013   0.808   1.446 -0.6903 -0.3496 -0.2240
   92DG      H3 2096   3.786  -0.007   1.662 -2.2446 -1.8175  1.5105
   92DG      H4 2097   3.721   0.044   1.808 -0.9145 -0.3333 -0.0194
   92DG      H5 2098   3.866  -0.053   1.819 -2.1469  0.2656  2.2563
   92DG      H6 2099   4.034   0.796   1.340  0.4083 -1.4541 -0.9027
   92DG      H7 2100   3.904   0.831   1.467  0.2926  1.2186 -0.1463
   92DG      H8 2101   4.088   0.879   1.488  2.1688  3.1282  0.3405
   92DG      O9 2102   3.907   0.124   1.770 -0.3942 -0.7485 -0.0100
   92DG     O10 2103   4.039   0.677   1.509 -0.0222  0.2151  0.0547
   92DG     C11 2104   3.864   0.255   1.724  0.8778 -0.2501 -0.0589
   92DG     C12 2105   4.050   0.692   1.650  0.1005 -0.4989  0.5067
   92DG     H13 2106   3.775   0.303   1.771 -0.9350  0.9995  3.0881
   92DG     H14 2107   3.837   0.240   1.620 -2.7100 -1.3116  0.5668
   92DG     H15 2108   3.957   0.732   1.693 -0.7520 -0.0902  2.2543
   92DG     H16 2109   4.125   0.765   1.673  1.1246 -0.6809  1.5737
   92DG     C17 2110   3.985   0.344   1.737  0.2182  0.2172 -0.7398
   92DG     C18 2111   4.069   0.562   1.728 -0.1722  0.4886 -0.3071
   92DG     O19 2112   3.972   0.472   1.684 -0.0749  0.0771  0.0692
   92DG     H20 2113   4.063   0.292   1.678  1.9065 -2.1966  1.8894
   92DG     H21 2114   4.030   0.351   1.834  2.1004 -0.2909 -1.9780
   92DG     H22 2115   4.165   0.515   1.713  1.7272 -0.9792 -1.1399
   92DG     H23 2116   4.055   0.595   1.833 -1.9377 -0.0782  2.5505
   93DG      C1 2117   0.681   2.859   5.035  1.0412 -0.2035  0.0555
   93DG      C2 2118   0.768   1.971   5.417  0.4362 -0.2609  0.0562
   93DG      H3 2119   0.602   2.934   5.038  0.0358  0.7463  2.3988
   93DG      H4 2120   0.725   2.835   4.934  3.5711  0.9199 -1.1117
   93DG      H5 2121   0.753   2.889   5.110 -2.5804 -1.8126 -0.1036
   93DG      H6 2122   0.721   1.919   5.497  0.4149 -1.9382  0.3385
   93DG      H7 2123   0.779   1.895   5.333  1.4463 -0.5036  1.7477
   93DG      H8 2124   0.869   1.986   5.453  0.4271 -0.7653  0.9364
   93DG      O9 2125   0.631   2.736   5.052  0.4387 -0.0489  0.5024
   93DG     O10 2126   0.695   2.094   5.384  0.0984  0.3940  0.3458
   93DG     C11 2127   0.734   2.630   5.073  0.0042 -0.3078  0.3227
   93DG     C12 2128   0.773   2.182   5.298  0.5053 -0.3873 -0.7159
   93DG     H13 2129   0.819   2.684   5.122 -1.2790 -2.8919  0.8979
   93DG     H14 2130   0.768   2.581   4.983 -0.7131 -1.5371  1.3757
   93DG     H15 2131   0.792   2.127   5.205  1.8040  1.0874  0.1587
   93DG     H16 2132   0.870   2.222   5.333 -2.5573  3.8611  0.5729
   93DG     C17 2133   0.672   2.525   5.168 -0.5459 -0.4569 -0.5026
   93DG     C18 2134   0.689   2.310   5.276 -0.3418 -0.9676  0.4612
   93DG     O19 2135   0.753   2.409   5.193 -0.5199  0.3534 -0.4826
   93DG     H20 2136   0.569   2.498   5.131 -0.1152  0.6150  0.0843
   93DG     H21 2137   0.657   2.577   5.263  2.1950  2.6470 -2.7749
   93DG     H22 2138   0.603   2.280   5.220 -2.6796  2.3499  1.2136
   93DG     H23 2139   0.661   2.353   5.371 -0.9531 -0.8747  1.7417
   94DG      C1 2140   0.982   3.236   4.600 -0.2969 -0.6238 -0.2953
   94DG      C2 2141   0.702   2.997   3.986 -0.3017 -0.2162 -0.0837
   94DG      H3 2142   1.077   3.269   4.546 -1.3031 -1.6294 -1.0343
   94DG      H4 2143   1.004   3.144   4.649  2.0853  2.4091 -2.2038
   94DG      H5 2144   0.965   3.300   4.686 -4.1073 -1.5909 -0.5050
   94DG      H6 2145   0.618   2.969   3.925  2.2171  0.2867  1.9298
   94DG      H7 2146   0.799   2.987   3.930  0.0427  0.5434 -0.6939
   94DG      H8 2147   0.710   2.922   4.065  0.1712  1.6011 -3.7154
   94DG      O9 2148   0.866   3.237   4.516 -0.1329 -0.3309  0.3194
   94DG     O10 2149   0.676   3.121   4.054 -0.4693  0.1237  0.0944
   94DG     C11 2150   0.820   3.366   4.474  0.2033 -0.6461  0.1773
   94DG     C12 2151   0.566   3.130   4.143 -0.0871 -0.5964  0.0368
   94DG     H13 2152   0.911   3.406   4.429 -0.2815 -0.2789  1.4142
   94DG     H14 2153   0.791   3.423   4.564 -1.7246  0.6051  0.2450
   94DG     H15 2154   0.572   3.035   4.196  1.2687 -1.0566 -1.4859
   94DG     H16 2155   0.463   3.127   4.096 -2.2967 -0.0362  1.5579
   94DG     C17 2156   0.701   3.370   4.378  0.4413  0.7278 -0.6416
   94DG     C18 2157   0.571   3.259   4.216  0.4546 -0.5967  1.2345
   94DG     O19 2158   0.692   3.249   4.298  0.4604 -0.8246 -0.5626
   94DG     H20 2159   0.707   3.454   4.316 -2.5004  1.9084  2.4484
   94DG     H21 2160   0.610   3.384   4.432  2.5457 -0.8801  0.4488
   94DG     H22 2161   0.568   3.340   4.140  0.1509 -1.5358 -0.1972
   94DG     H23 2162   0.478   3.264   4.275  0.9533 -1.5232  2.2086
   95DG      C1 2163   3.593   0.841   1.629 -1.0002  0.4789  0.1810
   95DG      C2 2164   3.446   0.231   1.853 -0.3210  0.0107  0.0827
   95DG      H3 2165   3.562   0.940   1.648 -2.0750 -0.1376 -0.7090
   95DG      H4 2166   3.525   0.794   1.554  0.1377  2.9920 -0.8186
   95DG      H5 2167   3.687   0.840   1.576 -0.3352  0.1933 -2.9855
   95DG      H6 2168   3.338   0.261   1.852 -0.9062 -1.5841  0.9777
   95DG      H7 2169   3.461   0.180   1.751 -0.7970 -1.2204 -2.3714
   95DG      H8 2170   3.453   0.149   1.925 -1.0221  0.1106 -4.0191
   95DG      O9 2171   3.591   0.761   1.748  0.2985  0.2682 -0.2434
   95DG     O10 2172   3.523   0.341   1.886 -0.3227 -0.5603  0.1072
   95DG     C11 2173   3.654   0.815   1.867 -0.5799 -0.2538  0.3819
   95DG     C12 2174   3.533   0.373   2.033 -0.1610  0.2422  0.5658
   95DG     H13 2175   3.593   0.895   1.922  0.6970  1.5344  0.3597
   95DG     H14 2176   3.747   0.872   1.833  0.8805 -1.1215 -0.3363
   95DG     H15 2177   3.550   0.280   2.086 -0.7848  0.7354  0.1961
   95DG     H16 2178   3.434   0.401   2.060  2.7061  0.5928  0.0884
   95DG     C17 2179   3.700   0.687   1.951  0.5227  0.4580  0.1851
   95DG     C18 2180   3.628   0.487   2.057  0.2504  0.7370  0.1146
   95DG     O19 2181   3.605   0.587   1.956  0.1178 -0.0003  0.3109
   95DG     H20 2182   3.725   0.718   2.056 -2.1893 -0.1451  1.0165
   95DG     H21 2183   3.785   0.643   1.895  0.8717  0.1356  0.4453
   95DG     H22 2184   3.638   0.519   2.153 -1.5048  3.3228 -1.7463
   95DG     H23 2185   3.728   0.451   2.030  1.0358  0.4978  2.7487
   96DG      C1 2186   1.133   0.217   0.965 -0.9489  0.1106  0.5764
   96DG      C2 2187   1.288  -0.419   0.488  0.5022 -0.4575  0.9407
   96DG      H3 2188   1.054   0.159   1.013 -0.0554  0.9076 -0.4155
   96DG      H4 2189   1.082   0.265   0.881 -1.6551  0.2163  1.0475
   96DG      H5 2190   1.171   0.285   1.035  0.3561 -4.3188 -1.1730
   96DG      H6 2191   1.269  -0.517   0.525 -1.7900  2.6749  1.4410
   96DG      H7 2192   1.189  -0.394   0.452  1.8029 -0.6419 -0.6023
   96DG      H8 2193   1.351  -0.424   0.399 -2.0382 -0.4741 -0.2380
   96DG      O9 2194   1.218   0.110   0.916  0.3711  0.1999 -0.2926
   96DG     O10 2195   1.338  -0.345   0.603  0.5149 -0.0086 -0.0780
   96DG     C11 2196   1.318   0.154   0.827 -1.1179  0.3736 -0.5362
   96DG     C12 2197   1.403  -0.230   0.554  0.5153  0.9725  0.5448
   96DG     H13 2198   1.353   0.243   0.876 -2.1899 -0.5628 -0.3511
   96DG     H14 2199   1.266   0.190   0.741 -1.4032 -1.0522  0.2580
   96DG     H15 2200   1.345  -0.185   0.478  2.0896 -2.6687 -0.2174
   96DG     H16 2201   1.487  -0.255   0.494 -4.3949 -2.3071  0.0416
   96DG     C17 2202   1.428   0.048   0.783 -0.3518 -0.9759 -0.0997
   96DG     C18 2203   1.460  -0.151   0.660 -0.1895 -0.2737 -0.7455
   96DG     O19 2204   1.369  -0.048   0.699  0.0573  0.3387 -0.2268
   96DG     H20 2205   1.475   0.009   0.875  1.6499  1.2813  0.8584
   96DG     H21 2206   1.511   0.098   0.736 -1.9015 -0.9478  0.1306
   96DG     H22 2207   1.483  -0.219   0.739  0.1464 -3.2763  1.2452
   96DG     H23 2208   1.552  -0.105   0.637 -0.5057 -3.7524  1.7751
   97DG      C1 2209   0.389   4.495   3.029 -0.3223  0.4756 -1.2716
   97DG      C2 2210   0.739   4.843   3.598 -0.1122  0.5393  0.0118
   97DG      H3 2211   0.286   4.468   3.059 -2.8485 -1.9356 -0.7170
   97DG      H4 2212   0.450   4.409   3.060 -0.3467 -2.0041  0.4003
   97DG      H5 2213   0.398   4.504   2.921  0.1012 -0.0896  0.0348
   97DG      H6 2214   0.848   4.862   3.606  0.9825  0.2582  0.4302
   97DG      H7 2215   0.681   4.918   3.653  0.1378  0.4472  3.3709
   97DG      H8 2216   0.720   4.755   3.652 -0.2567  0.5465  0.5118
   97DG      O9 2217   0.425   4.621   3.095  0.0555 -0.0505 -0.0781
   97DG     O10 2218   0.708   4.835   3.458  0.0636 -0.2495  0.3935
   97DG     C11 2219   0.317   4.726   3.075  0.2969 -0.1104 -0.5668
   97DG     C12 2220   0.575   4.814   3.434  0.6858  0.3193  0.0026
   97DG     H13 2221   0.232   4.689   3.129  0.6043 -1.4533  2.4621
   97DG     H14 2222   0.281   4.745   2.972 -2.7234 -2.0857 -0.0710
   97DG     H15 2223   0.525   4.896   3.489  3.7371  1.0363 -1.7551
   97DG     H16 2224   0.546   4.716   3.483 -0.4230 -0.7901  1.5470
   97DG     C17 2225   0.361   4.857   3.135  0.7185  0.0034 -0.0044
   97DG     C18 2226   0.545   4.823   3.284 -0.5302 -0.6857  0.0358
   97DG     O19 2227   0.408   4.850   3.271 -0.0804  0.7717 -0.1728
   97DG     H20 2228   0.273   4.915   3.146  0.8731 -0.2427  0.4639
   97DG     H21 2229   0.422   4.907   3.059 -0.3291 -0.3124  0.3610
   97DG     H22 2230   0.602   4.904   3.246 -1.4289 -0.8409  2.4405
   97DG     H23 2231   0.570   4.727   3.244 -1.7006  0.7503 -1.5780
   98DG      C1 2232   0.552   5.099   5.415 -0.2573  0.3628  0.1085
   98DG      C2 2233   0.923   4.995   4.735 -0.6207 -0.4757  0.4211
   98DG      H3 2234   0.477   5.032   5.449 -0.5230 -2.1881 -0.6155
   98DG      H4 2235   0.553   5.185   5.475 -1.1451  0.6552 -0.9173
   98DG      H5 2236   0.652   5.052   5.419  3.7037  0.4114  1.0972
   98DG      H6 2237   0.943   4.891   4.754  1.5206  0.5375 -1.5927
   98DG      H7 2238   0.882   5.003   4.632  1.6838  0.2403 -0.7317
   98DG      H8 2239   1.016   5.035   4.732 -0.7796 -2.9994  0.7661
   98DG      O9 2240   0.529   5.140   5.278  0.0569 -0.4219 -0.1570
   98DG     O10 2241   0.844   5.068   4.818  0.1310  0.2630 -0.1917
   98DG     C11 2242   0.631   5.235   5.241 -0.4662 -0.0707  0.0900
   98DG     C12 2243   0.707   5.022   4.830  0.1320 -0.7611 -0.6621
   98DG     H13 2244   0.727   5.178   5.254  4.0468 -2.3885 -1.3783
   98DG     H14 2245   0.630   5.336   5.290 -3.0283  0.5402  0.5916
   98DG     H15 2246   0.703   4.932   4.902 -1.6667 -1.1642  1.5790
   98DG     H16 2247   0.659   4.986   4.745  1.5288 -2.4345  1.9172
   98DG     C17 2248   0.611   5.260   5.091  0.1368 -0.4976 -0.0337
   98DG     C18 2249   0.623   5.126   4.898 -0.0385 -0.1976  0.3196
   98DG     O19 2250   0.683   5.160   5.022  0.6029 -0.5411 -0.4176
   98DG     H20 2251   0.646   5.365   5.068 -0.5116 -0.4302 -3.3335
   98DG     H21 2252   0.504   5.262   5.081  0.4755  1.1790 -3.2622
   98DG     H22 2253   0.604   5.212   4.835  0.7306  0.5006  1.9832
   98DG     H23 2254   0.522   5.081   4.903  0.2911 -2.2899  1.6612
   99DG      C1 2255   4.923   4.649   4.019 -0.1791  0.3034 -0.1505
   99DG      C2 2256   5.114   4.961   3.274  0.7988 -0.8475 -0.1803
   99DG      H3 2257   4.862   4.582   4.073  1.3915 -0.6885 -0.8930
   99DG      H4 2258   5.001   4.699   4.087  1.1701  0.1542 -0.0522
   99DG      H5 2259   4.986   4.584   3.953  1.6657 -2.6346 -0.9339
   99DG      H6 2260   5.181   5.022   3.336  0.3608  1.7207  0.8473
   99DG      H7 2261   5.168   4.950   3.182  0.3411  2.1159 -2.5890
   99DG      H8 2262   5.025   5.020   3.248 -0.5164 -1.0355 -0.0417
   99DG      O9 2263   4.859   4.742   3.936  0.5506 -0.0949  0.1533
   99DG     O10 2264   5.071   4.843   3.335  0.7412 -0.3826 -0.1403
   99DG     C11 2265   4.769   4.694   3.838 -0.6050  0.5231 -0.7109
   99DG     C12 2266   5.019   4.857   3.466 -0.2521  0.0990 -0.3870
   99DG     H13 2267   4.706   4.778   3.809 -0.4059  1.1648  0.9241
   99DG     H14 2268   4.705   4.614   3.874  0.8209  0.9325  2.3238
   99DG     H15 2269   4.947   4.939   3.456 -1.5769 -1.2591  1.9058
   99DG     H16 2270   5.095   4.878   3.538  0.1448  1.4997  0.9665
   99DG     C17 2271   4.834   4.649   3.709 -0.2178  0.1854  0.4782
   99DG     C18 2272   4.948   4.728   3.525 -0.2065  0.7270 -0.0992
   99DG     O19 2273   4.882   4.768   3.641 -0.2691  0.5424  0.1970
   99DG     H20 2274   4.756   4.592   3.651 -0.6277 -0.7240  1.6531
   99DG     H21 2275   4.921   4.579   3.729  0.7440 -1.0646 -0.4928
   99DG     H22 2276   4.871   4.697   3.448 -0.5184  0.3539  1.3542
   99DG     H23 2277   5.017   4.643   3.531  0.6033  0.3300 -0.7127
  100DG      C1 2278   2.329   0.157   0.950  0.5139  0.0494  0.0570
  100DG      C2 2279   2.813  -0.127   1.428 -0.1155 -0.4888  0.1092
  100DG      H3 2280   2.351   0.253   0.905  1.0033  2.1778  0.1145
  100DG      H4 2281   2.255   0.173   1.031 -1.3366 -2.1843  1.4380
  100DG      H5 2282   2.306   0.089   0.867 -0.8346 -1.8927 -1.3366
  100DG      H6 2283   2.916  -0.120   1.386 -1.6950  0.4891 -0.8728
  100DG      H7 2284   2.809  -0.037   1.482  2.2570 -0.0302 -1.6919
  100DG      H8 2285   2.796  -0.208   1.489  2.3625 -0.5529  0.5937
  100DG      O9 2286   2.442   0.097   1.015 -0.5560  0.7900 -0.3778
  100DG     O10 2287   2.722  -0.121   1.315 -0.2092 -0.2674 -0.2922
  100DG     C11 2288   2.544   0.080   0.922 -0.0379 -0.0773  0.3171
  100DG     C12 2289   2.760  -0.214   1.213 -0.6976  0.0419  0.2148
  100DG     H13 2290   2.570   0.175   0.870  0.4937  2.1317 -3.8774
  100DG     H14 2291   2.516   0.004   0.850  0.0998  0.7927 -2.0792
  100DG     H15 2292   2.683  -0.294   1.203 -3.2092  1.6529 -0.7910
  100DG     H16 2293   2.851  -0.268   1.249  1.6789 -1.6970  0.7802
  100DG     C17 2294   2.673   0.053   0.989 -0.1097  0.0443 -0.6776
  100DG     C18 2295   2.782  -0.134   1.086 -0.4963  0.0863 -0.2191
  100DG     O19 2296   2.659  -0.068   1.060  0.6659 -0.0408  0.5011
  100DG     H20 2297   2.701   0.137   1.058  1.2151  0.6855  0.4882
  100DG     H21 2298   2.754   0.037   0.916  0.8540 -1.7524  0.0848
  100DG     H22 2299   2.857  -0.057   1.099 -3.5987  0.2743 -0.7017
  100DG     H23 2300   2.801  -0.202   1.003  1.1690  0.2478  2.6825
  101DG      C1 2301   1.954   4.577   4.179  0.5208  0.6490 -0.5654
  101DG      C2 2302   1.502   5.141   4.349 -0.6937 -0.1500 -0.0129
  101DG      H3 2303   1.995   4.583   4.279 -0.9721 -1.2809 -1.6554
  101DG      H4 2304   1.999   4.651   4.112  0.3954  2.1613  1.5190
  101DG      H5 2305   1.961   4.480   4.127 -0.4419  1.7222 -0.5742
  101DG      H6 2306   1.565   5.194   4.282 -0.7942 -0.5744 -0.3191
  101DG      H7 2307   1.412   5.201   4.339  1.5481 -0.3711 -0.8294
  101DG      H8 2308   1.540   5.156   4.454  1.5317 -0.9812  1.5899
  101DG      O9 2309   1.815   4.612   4.191  0.2632 -0.0829 -0.4471
  101DG     O10 2310   1.505   5.007   4.311  0.0362 -0.0441  0.2283
  101DG     C11 2311   1.722   4.573   4.092  0.0337 -0.0758  0.0518
  101DG     C12 2312   1.416   4.963   4.212  0.0098 -0.9904 -0.4489
  101DG     H13 2313   1.732   4.466   4.084  4.0930  2.6701  1.6619
  101DG     H14 2314   1.741   4.612   3.992 -1.0110 -1.9128  1.7650
  101DG     H15 2315   1.444   5.013   4.112  1.0905  1.4427  1.4385
  101DG     H16 2316   1.316   4.993   4.241  0.4395  1.6924  0.7448
  101DG     C17 2317   1.579   4.627   4.134 -0.5021  0.2957  0.1839
  101DG     C18 2318   1.435   4.808   4.209 -0.1194 -0.3540 -0.4337
  101DG     O19 2319   1.568   4.769   4.174  0.0838  0.5268 -0.1782
  101DG     H20 2320   1.547   4.566   4.216 -1.2531 -4.4214  2.9444
  101DG     H21 2321   1.511   4.620   4.053  1.0724 -2.0089 -1.2771
  101DG     H22 2322   1.419   4.766   4.313  0.5960 -0.7093  2.7479
  101DG     H23 2323   1.361   4.766   4.140  2.5088 -0.4986 -0.5985
  102DG      C1 2324   1.744   5.394   4.905  0.2875 -0.5247 -0.4186
  102DG      C2 2325   2.362   5.474   4.763  0.2610  0.2810  0.4565
  102DG      H3 2326   1.805   5.308   4.928 -1.2057  0.4151 -0.3616
  102DG      H4 2327   1.702   5.383   4.811  1.6615 -4.3836  0.4572
  102DG      H5 2328   1.656   5.393   4.980  0.9011  2.1253  0.7297
  102DG      H6 2329   2.355   5.487   4.655  0.7775 -1.0363 -0.5800
  102DG      H7 2330   2.460   5.516   4.785  1.5616 -1.6531  1.8167
  102DG      H8 2331   2.372   5.366   4.782  1.0278 -0.3580  0.3127
  102DG      O9 2332   1.821   5.517   4.922  0.1785  0.1038  0.0054
  102DG     O10 2333   2.253   5.511   4.848 -0.3335 -0.4916 -0.1591
  102DG     C11 2334   1.848   5.553   5.059  0.1357  0.4230  0.3343
  102DG     C12 2335   2.295   5.538   4.985  0.3631  1.0576 -0.7060
  102DG     H13 2336   1.868   5.466   5.118  3.5988  2.2539  0.8764
  102DG     H14 2337   1.763   5.595   5.110  0.6745 -1.3403  4.3853
  102DG     H15 2338   2.395   5.594   4.995 -0.1860  2.5498  0.2991
  102DG     H16 2339   2.307   5.451   5.042  0.5539  0.2092  2.4030
  102DG     C17 2340   1.965   5.642   5.075  0.4594 -0.8421 -0.5394
  102DG     C18 2341   2.191   5.622   5.060 -0.2128  0.3693 -0.2136
  102DG     O19 2342   2.064   5.577   5.005  0.2095 -0.2635  0.3412
  102DG     H20 2343   1.987   5.661   5.182  0.4992 -2.7193  1.4275
  102DG     H21 2344   1.951   5.734   5.018 -3.3637  1.5082 -0.2062
  102DG     H22 2345   2.209   5.622   5.165  0.3107 -4.1032  0.2913
  102DG     H23 2346   2.196   5.721   5.027 -0.1526 -1.8458 -2.0762
  103DG      C1 2347   2.773   3.711   5.313  0.2097  0.0183 -0.0272
  103DG      C2 2348   3.187   3.099   5.165 -0.0472  0.4851 -0.2868
  103DG      H3 2349   2.737   3.787   5.249 -1.3719  0.2758  0.1657
  103DG      H4 2350   2.804   3.757   5.410  0.8891 -3.1407  0.1567
  103DG      H5 2351   2.687   3.651   5.347  0.2064 -0.3225  3.3315
  103DG      H6 2352   3.276   3.066   5.112  0.4543  2.6785  1.8436
  103DG      H7 2353   3.196   3.077   5.273  2.1479 -0.6985  0.0571
  103DG      H8 2354   3.093   3.044   5.137 -2.3650 -0.1457  1.0796
  103DG      O9 2355   2.868   3.627   5.254  0.0485  0.3845 -0.5222
  103DG     O10 2356   3.158   3.233   5.138 -0.2654  0.0229  0.8208
  103DG     C11 2357   2.980   3.702   5.209  0.3964 -0.0995 -0.2394
  103DG     C12 2358   3.263   3.319   5.172  0.1623  0.1634  0.2398
  103DG     H13 2359   3.033   3.735   5.297 -0.7712 -0.7263 -2.0995
  103DG     H14 2360   2.944   3.800   5.168  0.0620 -1.0928 -0.4612
  103DG     H15 2361   3.357   3.293   5.124  2.4084  0.8757  1.1653
  103DG     H16 2362   3.286   3.325   5.278  2.5576  0.8559  0.1653
  103DG     C17 2363   3.068   3.624   5.113 -0.3951 -0.4891  0.2679
  103DG     C18 2364   3.239   3.457   5.120 -0.0201 -0.2308 -0.2260
  103DG     O19 2365   3.126   3.517   5.178  0.3367  0.8204 -0.0934
  103DG     H20 2366   3.147   3.678   5.066  1.2314  0.0337  0.1683
  103DG     H21 2367   3.016   3.580   5.025 -2.5475  0.3155 -2.4437
  103DG     H22 2368   3.316   3.534   5.145 -0.9659  0.1555 -3.8356
  103DG     H23 2369   3.232   3.450   5.009  0.1953 -1.1978  2.6569
  104DG      C1 2370   5.293   0.355   1.174 -0.2344  0.0690  0.1182
  104DG      C2 2371   4.758   0.017   0.942  0.1861 -0.0905 -0.2581
  104DG      H3 2372   5.366   0.367   1.247 -2.2070  1.8637 -1.6470
  104DG      H4 2373   5.246   0.449   1.140 -2.1143 -1.8544  0.8266
  104DG      H5 2374   5.342   0.309   1.085  2.7038 -0.3712 -0.7179
  104DG      H6 2375   4.665  -0.032   0.977  0.0236 -1.7001 -2.4716
  104DG      H7 2376   4.736   0.119   0.895 -2.9675  0.4090  1.8423
  104DG      H8 2377   4.794  -0.046   0.863  0.2602 -1.5635 -0.1616
  104DG      O9 2378   5.181   0.270   1.216  0.0631 -0.4378  0.6299
  104DG     O10 2379   4.853   0.013   1.047 -0.2500  0.1835  0.4498
  104DG     C11 2380   5.231   0.157   1.294 -0.2453 -0.2317 -0.6130
  104DG     C12 2381   4.890  -0.115   1.095 -1.0568  0.4831  0.1672
  104DG     H13 2382   5.277   0.202   1.375  1.8490  1.6607  1.9020
  104DG     H14 2383   5.310   0.113   1.236  0.9037  2.7372  1.1801
  104DG     H15 2384   4.943  -0.166   1.019  0.1364  1.4613  0.5268
  104DG     H16 2385   4.807  -0.175   1.121 -2.2268 -0.2037 -2.8650
  104DG     C17 2386   5.129   0.045   1.326  0.0767  0.4354  0.2370
  104DG     C18 2387   4.965  -0.091   1.221 -0.4602  0.3938  0.7771
  104DG     O19 2388   5.060   0.020   1.206 -0.0182  0.5321  0.5395
  104DG     H20 2389   5.064   0.088   1.404 -2.2884 -2.4760  0.5412
  104DG     H21 2390   5.166  -0.043   1.376 -0.9436  2.4228 -1.5612
  104DG     H22 2391   4.899  -0.080   1.301  0.4905 -0.1465 -0.2183
  104DG     H23 2392   5.025  -0.186   1.237 -1.2869 -0.2956 -2.1439
  105DG      C1 2393   2.897   0.904   5.278 -0.1880 -0.0750  0.1678
  105DG      C2 2394   2.433   1.005   4.760 -0.4387  0.0166 -0.1607
  105DG      H3 2395   2.978   0.884   5.338  1.0162  2.0397  0.1786
  105DG      H4 2396   2.826   0.821   5.281  0.0816  1.0266 -3.7308
  105DG      H5 2397   2.858   0.999   5.319 -0.0387  0.9619  0.6806
  105DG      H6 2398   2.438   0.944   4.670  1.9334  1.1901 -0.9820
  105DG      H7 2399   2.380   0.947   4.837  1.2942 -1.4798 -2.3889
  105DG      H8 2400   2.376   1.096   4.747  1.8207  0.5056 -2.3957
  105DG      O9 2401   2.941   0.934   5.148  0.0743 -0.8775 -0.0709
  105DG     O10 2402   2.561   1.026   4.826  0.2130  0.8946  0.5415
  105DG     C11 2403   2.976   1.068   5.114 -0.9054  0.5884  1.1413
  105DG     C12 2404   2.632   1.140   4.775  1.0542 -0.0802 -0.0902
  105DG     H13 2405   3.080   1.076   5.124 -2.3792  3.3311 -1.8834
  105DG     H14 2406   2.938   1.163   5.161 -0.3812  1.0287  1.1964
  105DG     H15 2407   2.574   1.219   4.825 -0.6001 -1.3803 -1.0144
  105DG     H16 2408   2.603   1.147   4.665 -4.2180  2.2741 -1.6445
  105DG     C17 2409   2.950   1.082   4.966  0.1950 -0.8520 -0.1168
  105DG     C18 2410   2.778   1.127   4.808 -0.1818 -0.2469 -0.0971
  105DG     O19 2411   2.809   1.094   4.944 -0.0836 -0.0777 -0.6377
  105DG     H20 2412   2.998   1.002   4.909  1.0447 -1.1571 -1.9997
  105DG     H21 2413   3.001   1.171   4.928  2.1716 -0.3449  1.1817
  105DG     H22 2414   2.808   1.044   4.747  0.1127  3.3228 -1.3641
  105DG     H23 2415   2.837   1.206   4.764 -1.7869 -1.4655  0.9446
  106DG      C1 2416   2.871   2.093   0.426 -0.4427 -0.7992  0.8136
  106DG      C2 2417   2.453   2.641   0.644 -0.0597  0.5668  0.5664
  106DG      H3 2418   2.886   2.138   0.524 -2.2257  1.7246  3.0759
  106DG      H4 2419   2.963   2.073   0.364 -2.0370 -0.4869 -0.3801
  106DG      H5 2420   2.829   1.997   0.453 -2.5912 -0.2290  0.5636
  106DG      H6 2421   2.348   2.681   0.661 -1.9779  1.2079  2.6341
  106DG      H7 2422   2.466   2.585   0.736  0.0244 -0.3410  1.3729
  106DG      H8 2423   2.539   2.704   0.631 -0.2837  1.6082  2.3448
  106DG      O9 2424   2.773   2.156   0.351  0.1890 -0.7605  0.1148
  106DG     O10 2425   2.449   2.548   0.537  0.2784 -0.0717  0.3810
  106DG     C11 2426   2.815   2.286   0.308 -0.1649  0.9762 -0.8399
  106DG     C12 2427   2.459   2.611   0.410  0.0465 -0.3147  0.4256
  106DG     H13 2428   2.888   2.272   0.232 -1.5085 -0.4096  1.0941
  106DG     H14 2429   2.874   2.343   0.381 -0.7156 -1.2048 -1.7442
  106DG     H15 2430   2.524   2.701   0.413  0.2896 -1.0796 -2.9698
  106DG     H16 2431   2.371   2.651   0.386  0.7487  1.0952  2.4554
  106DG     C17 2432   2.700   2.371   0.248  0.3395 -0.3596 -0.7123
  106DG     C18 2433   2.525   2.515   0.303  0.1952 -0.1899 -0.2724
  106DG     O19 2434   2.620   2.435   0.360 -0.3150  0.3852 -0.2899
  106DG     H20 2435   2.621   2.312   0.196 -2.1626  1.5171  0.4483
  106DG     H21 2436   2.751   2.446   0.179 -1.9390  0.1198 -2.3968
  106DG     H22 2437   2.446   2.450   0.266 -0.8277 -0.0693 -0.5081
  106DG     H23 2438   2.564   2.575   0.219  5.5323 -1.0638  0.5178
  107DG      C1 2439   2.028   2.407   0.490 -0.8770 -0.1329  0.3049
  107DG      C2 2440   1.794   1.806   0.371  0.1178  0.3127 -0.0205
  107DG      H3 2441   2.080   2.494   0.454  1.3738 -1.8286 -1.8367
  107DG      H4 2442   2.099   2.344   0.542  1.9531 -0.8299  0.0714
  107DG      H5 2443   1.947   2.439   0.555 -1.6079  0.0104  1.2986
  107DG      H6 2444   1.745   1.716   0.332 -0.2084 -0.4929  0.1073
  107DG      H7 2445   1.892   1.771   0.399 -0.6978 -0.0819  3.1624
  107DG      H8 2446   1.754   1.826   0.468  2.3621  1.5592  1.4316
  107DG      O9 2447   1.982   2.324   0.383  0.6265 -0.3405  0.6767
  107DG     O10 2448   1.807   1.926   0.297 -0.2705  0.0069  0.5183
  107DG     C11 2449   1.888   2.395   0.305 -0.7172  0.4567 -0.2348
  107DG     C12 2450   1.692   1.969   0.224 -0.2605  0.2123 -0.1802
  107DG     H13 2451   1.939   2.484   0.270 -0.5297  0.8840  2.6417
  107DG     H14 2452   1.813   2.425   0.376 -3.4558  0.5210  2.3089
  107DG     H15 2453   1.612   1.974   0.290  0.8347  2.1255 -0.4652
  107DG     H16 2454   1.673   1.895   0.149  2.9356 -3.7103 -0.6353
  107DG     C17 2455   1.831   2.310   0.189 -0.5039 -0.4029  1.0482
  107DG     C18 2456   1.715   2.107   0.159 -0.5427  0.4826  0.6061
  107DG     O19 2457   1.767   2.203   0.249  0.4314 -0.2898  0.2933
  107DG     H20 2458   1.911   2.283   0.121  0.1916  0.2587  0.6065
  107DG     H21 2459   1.747   2.362   0.134 -0.4834 -1.3157  2.4290
  107DG     H22 2460   1.779   2.085   0.073  1.8719  1.8565 -1.4931
  107DG     H23 2461   1.622   2.155   0.111 -1.3338  0.1350  2.8860
  108DG      C1 2462   4.245   2.155   1.274  0.5633  0.4055  0.1932
  108DG      C2 2463   4.054   1.951   1.571  0.8016 -0.2782  0.0485
  108DG      H3 2464   4.288   2.214   1.348 -1.0455 -0.5426  1.3627
  108DG      H4 2465   4.139   2.173   1.280  0.5902 -0.6902  1.0868
  108DG      H5 2466   4.272   2.181   1.170 -1.1845  1.3330 -0.0683
  108DG      H6 2467   3.945   1.974   1.577  1.6534  1.0840  3.7466
  108DG      H7 2468   4.105   2.012   1.647 -2.6205 -0.1588  0.5660
  108DG      H8 2469   4.091   1.990   1.473  0.6326 -1.3157 -0.9276
  108DG      O9 2470   4.276   2.018   1.298 -0.3122 -0.3057  0.0791
  108DG     O10 2471   4.079   1.813   1.601 -0.4917 -0.3719  0.5913
  108DG     C11 2472   4.240   1.941   1.183 -0.2584  0.6783  0.2388
  108DG     C12 2473   4.013   1.717   1.521 -0.2451 -0.6116 -0.4643
  108DG     H13 2474   4.319   1.944   1.105 -0.9913  2.1635  0.6843
  108DG     H14 2475   4.144   1.973   1.142  0.1334 -1.4690  0.3690
  108DG     H15 2476   3.909   1.745   1.504  0.6007 -0.5777  1.4884
  108DG     H16 2477   4.005   1.624   1.576  1.8019 -1.1796  1.8363
  108DG     C17 2478   4.200   1.798   1.222  1.1989 -0.4856 -0.6323
  108DG     C18 2479   4.076   1.681   1.386  0.6831 -0.1719 -0.0040
  108DG     O19 2480   4.089   1.800   1.307  0.5313  0.0174  0.2244
  108DG     H20 2481   4.288   1.751   1.260 -0.9213  1.0488  0.4825
  108DG     H21 2482   4.186   1.723   1.147 -1.1792  1.5655  0.5852
  108DG     H22 2483   4.170   1.632   1.410 -0.6232 -0.6651  1.2004
  108DG     H23 2484   4.021   1.619   1.323  0.5126  0.3995 -0.8189
  109DG      C1 2485   0.859   4.005   0.374  1.0313 -0.4468  0.0541
  109DG      C2 2486   0.375   3.524   0.185  0.2989 -0.1726  0.1067
  109DG      H3 2487   0.910   3.917   0.400 -0.3402  2.7903 -0.0665
  109DG      H4 2488   0.894   4.083   0.434 -2.0261  0.8077 -2.0620
  109DG      H5 2489   0.864   4.022   0.266  0.5628  0.5001  0.0903
  109DG      H6 2490   0.313   3.458   0.245  0.0276 -1.8922  1.3597
  109DG      H7 2491   0.325   3.562   0.101 -0.5524 -1.0568  1.1739
  109DG      H8 2492   0.465   3.466   0.147 -0.4172 -1.9456  1.3533
  109DG      O9 2493   0.720   3.960   0.400 -0.4055 -0.3839  0.1006
  109DG     O10 2494   0.408   3.635   0.263  0.1756 -0.0499 -0.0443
  109DG     C11 2495   0.628   4.066   0.392  0.0297  0.3101 -0.5723
  109DG     C12 2496   0.295   3.721   0.282 -0.2383 -0.2478  0.6212
  109DG     H13 2497   0.634   4.114   0.296  0.5808  0.2000  1.4875
  109DG     H14 2498   0.654   4.148   0.461 -0.3484  0.4177 -1.8631
  109DG     H15 2499   0.216   3.664   0.329  0.8466  1.9747 -0.3073
  109DG     H16 2500   0.257   3.754   0.185 -0.0757 -1.4462  0.6277
  109DG     C17 2501   0.489   4.010   0.413 -0.0874 -0.1853  0.5831
  109DG     C18 2502   0.335   3.840   0.370 -0.0158  0.4164  0.5204
  109DG     O19 2503   0.461   3.894   0.336  0.0146 -0.0487  0.7634
  109DG     H20 2504   0.413   4.081   0.380 -2.2991  2.7182 -1.7424
  109DG     H21 2505   0.470   4.002   0.521 -2.0593 -2.7516 -2.5450
  109DG     H22 2506   0.255   3.909   0.350 -0.3036 -1.2703  0.1777
  109DG     H23 2507   0.327   3.810   0.469  3.0201 -1.5573  0.2681
  110DG      C1 2508   4.613   4.062   3.230 -0.3818 -0.6033 -0.6247
  110DG      C2 2509   4.069   4.381   3.343 -0.2947 -0.3802  0.2331
  110DG      H3 2510   4.689   4.083   3.156  0.9146 -1.5745  2.3141
  110DG      H4 2511   4.639   3.963   3.270 -0.9557  1.3730  1.0419
  110DG      H5 2512   4.628   4.130   3.320 -0.1487  1.1564 -2.5975
  110DG      H6 2513   4.119   4.325   3.423  1.7345  1.0584  1.5323
  110DG      H7 2514   4.111   4.481   3.368 -1.3048  1.1948 -0.1310
  110DG      H8 2515   3.960   4.371   3.355  1.6403 -2.0616 -0.3833
  110DG      O9 2516   4.481   4.095   3.193 -0.0674 -0.5170  0.1076
  110DG     O10 2517   4.118   4.363   3.211  0.5402  0.5859 -0.6531
  110DG     C11 2518   4.406   4.015   3.107 -0.6784 -0.1846  0.0908
  110DG     C12 2519   4.052   4.255   3.134 -0.2443 -0.6193  0.2333
  110DG     H13 2520   4.411   3.915   3.132 -0.2862  1.7782  3.4832
  110DG     H14 2521   4.455   4.030   3.013 -1.2086  0.7082 -1.0159
  110DG     H15 2522   3.955   4.296   3.098  0.7658  1.7207 -0.5449
  110DG     H16 2523   4.025   4.167   3.195 -0.2446 -0.2048 -2.5743
  110DG     C17 2524   4.262   4.060   3.093 -0.8028  0.1522 -0.3308
  110DG     C18 2525   4.127   4.224   3.006 -0.7831  0.0525  0.3138
  110DG     O19 2526   4.262   4.193   3.031 -0.3339  0.8059 -0.2450
  110DG     H20 2527   4.234   4.068   3.196 -1.1063 -0.8768 -0.5919
  110DG     H21 2528   4.194   3.999   3.033  0.2761 -0.8517 -0.2263
  110DG     H22 2529   4.071   4.155   2.952  0.9473  2.3036 -2.3600
  110DG     H23 2530   4.134   4.311   2.939  2.5780  1.6377 -0.1342
  111DG      C1 2531   2.641   1.996   2.990 -0.0187  0.1448 -0.5885
  111DG      C2 2532   2.199   1.807   2.455 -0.3760 -0.2116  0.2680
  111DG      H3 2533   2.742   2.027   3.000 -0.2073 -0.4375  0.5632
  111DG      H4 2534   2.634   1.897   3.033  0.2826  0.0836 -2.5582
  111DG      H5 2535   2.569   2.063   3.042 -0.8159  1.5169  1.4273
  111DG      H6 2536   2.189   1.771   2.355  0.6357 -1.5849 -0.5025
  111DG      H7 2537   2.221   1.717   2.515  1.1935 -1.4195  0.0824
  111DG      H8 2538   2.098   1.832   2.496 -0.1897 -1.4359  0.0849
  111DG      O9 2539   2.594   1.994   2.856 -0.3657  0.4287  0.1849
  111DG     O10 2540   2.283   1.912   2.485 -0.6453 -0.3803  0.0672
  111DG     C11 2541   2.623   2.118   2.798  0.6610 -0.8255  0.6056
  111DG     C12 2542   2.414   1.886   2.433  0.1013  0.5231 -0.0722
  111DG     H13 2543   2.712   2.157   2.831 -0.1622  0.0240 -0.2848
  111DG     H14 2544   2.538   2.190   2.816  0.0915  1.1393  2.4433
  111DG     H15 2545   2.412   1.884   2.322  2.2964 -2.7035 -2.7530
  111DG     H16 2546   2.464   1.793   2.466 -0.5974 -1.5591 -0.7828
  111DG     C17 2547   2.634   2.092   2.646 -0.2525 -0.5979  0.0818
  111DG     C18 2548   2.514   1.993   2.462 -0.0310 -0.1114  0.1515
  111DG     O19 2549   2.524   2.015   2.605  0.0287 -0.7046 -0.1045
  111DG     H20 2550   2.730   2.048   2.624 -2.2814  1.0962 -0.1593
  111DG     H21 2551   2.629   2.185   2.595  0.4995 -1.5534  0.2417
  111DG     H22 2552   2.607   1.966   2.418 -3.4252  0.1563 -1.2749
  111DG     H23 2553   2.488   2.085   2.415 -0.4164 -0.4386 -3.0950
  112DG      C1 2554   1.201   2.025   3.339 -0.7615  0.2889 -0.2299
  112DG      C2 2555   1.002   1.269   3.583  0.0997  0.8917  0.1914
  112DG      H3 2556   1.191   2.127   3.374  0.4667  0.8143  1.4167
  112DG      H4 2557   1.155   2.027   3.235 -0.2077  1.5962 -0.9578
  112DG      H5 2558   1.307   2.022   3.346 -0.1599  3.6911  2.9516
  112DG      H6 2559   0.998   1.192   3.653 -1.1133 -1.2543  0.2247
  112DG      H7 2560   0.935   1.240   3.502  1.1348  2.3699  0.4478
  112DG      H8 2561   1.102   1.280   3.540 -0.8170  0.6718 -0.9757
  112DG      O9 2562   1.151   1.940   3.436 -0.1368 -0.5100  0.5630
  112DG     O10 2563   0.968   1.394   3.650  0.1787 -0.0069  0.0270
  112DG     C11 2564   1.015   1.959   3.480 -0.2542  0.0848 -0.8807
  112DG     C12 2565   0.961   1.504   3.557  0.5526  0.1475  0.1672
  112DG     H13 2566   0.943   1.945   3.395 -1.2921 -0.3493 -1.1925
  112DG     H14 2567   1.010   2.056   3.517 -0.2286 -1.1906 -2.4463
  112DG     H15 2568   0.885   1.493   3.480 -0.8061  3.4149  0.7580
  112DG     H16 2569   1.061   1.511   3.521  0.2899 -3.9144  0.1711
  112DG     C17 2570   0.965   1.864   3.586 -0.0634 -0.4793 -0.4202
  112DG     C18 2571   0.931   1.637   3.627  0.0167  0.3760 -0.3546
  112DG     O19 2572   0.965   1.734   3.537 -0.2129  0.2837 -0.8363
  112DG     H20 2573   0.862   1.890   3.607  1.1845  0.0638 -1.5138
  112DG     H21 2574   1.029   1.873   3.676 -0.8483  0.7221  0.7849
  112DG     H22 2575   0.825   1.634   3.654 -1.7783 -2.3831 -0.0216
  112DG     H23 2576   0.992   1.645   3.715 -0.2911 -1.5920  0.2015
  113DG      C1 2577   2.913   0.199   0.296 -0.0572  0.4677 -0.5255
  113DG      C2 2578   3.351  -0.139   0.690 -0.3195  0.1958 -0.4465
  113DG      H3 2579   2.804   0.177   0.286  0.6205  0.0867  0.1552
  113DG      H4 2580   2.966   0.154   0.217  0.7629  1.6866 -1.6649
  113DG      H5 2581   2.920   0.311   0.269  1.6809 -0.0793 -1.4008
  113DG      H6 2582   3.438  -0.073   0.706  0.4673 -2.1571 -0.4310
  113DG      H7 2583   3.346  -0.206   0.776  0.8374  2.2377  0.9080
  113DG      H8 2584   3.374  -0.190   0.603  0.8602  0.0371  0.1307
  113DG      O9 2585   2.949   0.168   0.429  0.4247  0.2773 -0.8431
  113DG     O10 2586   3.234  -0.056   0.676  0.0327  0.3148 -0.2282
  113DG     C11 2587   2.870   0.229   0.533  0.1567 -0.4040 -0.1961
  113DG     C12 2588   3.149  -0.057   0.792 -0.1805  0.3480  0.1198
  113DG     H13 2589   2.777   0.173   0.539  0.3033 -2.2585  0.2059
  113DG     H14 2590   2.846   0.333   0.507 -0.1550 -0.8864  3.3983
  113DG     H15 2591   3.206  -0.080   0.881  3.8355  0.9592  1.7618
  113DG     H16 2592   3.080  -0.144   0.800 -1.5778 -0.5857  4.0049
  113DG     C17 2593   2.943   0.220   0.670 -0.3147 -0.0424 -0.8649
  113DG     C18 2594   3.078   0.079   0.802  0.8514  0.2574 -0.0995
  113DG     O19 2595   3.003   0.092   0.681 -0.7618 -0.0015 -0.1250
  113DG     H20 2596   2.883   0.240   0.760  1.5450 -0.2638 -3.5958
  113DG     H21 2597   3.025   0.301   0.667  3.0081  0.3009  2.6357
  113DG     H22 2598   3.023   0.068   0.896 -1.4603 -1.6234 -1.3408
  113DG     H23 2599   3.140   0.167   0.819  2.2668  3.3553 -1.2254
  114DG      C1 2600   3.666   4.926   4.531 -0.3338 -0.8251  0.4257
  114DG      C2 2601   4.346   5.031   4.449  1.3053  0.0287  0.6263
  114DG      H3 2602   3.618   4.980   4.448  0.6817  0.7712 -1.2161
  114DG      H4 2603   3.596   4.925   4.618  2.7049  2.8999  1.6819
  114DG      H5 2604   3.696   4.827   4.492  1.1240  1.6342 -0.1760
  114DG      H6 2605   4.433   5.099   4.428  1.3069  0.4214  1.9983
  114DG      H7 2606   4.388   4.976   4.535 -0.4061 -0.3673 -1.9654
  114DG      H8 2607   4.317   4.973   4.360  1.2475  0.1968  0.4018
  114DG      O9 2608   3.789   4.998   4.560  0.1343  0.1246 -0.1110
  114DG     O10 2609   4.228   5.105   4.495  0.0538 -0.2094 -0.0436
  114DG     C11 2610   3.781   5.064   4.689 -0.6569 -0.2959  0.7933
  114DG     C12 2611   4.248   5.175   4.618 -0.0466  1.1415  0.4865
  114DG     H13 2612   3.786   4.987   4.775  0.2123  1.1752 -1.0311
  114DG     H14 2613   3.687   5.114   4.701 -0.0601  0.9351  0.8725
  114DG     H15 2614   4.314   5.254   4.603 -2.4714 -2.6426  0.1867
  114DG     H16 2615   4.273   5.100   4.690 -0.6391 -1.4605 -2.7325
  114DG     C17 2616   3.882   5.183   4.702  0.0585  0.3755 -0.4093
  114DG     C18 2617   4.106   5.236   4.651 -0.1762  0.0209  0.5358
  114DG     O19 2618   4.008   5.134   4.663  0.1999 -0.1975  0.2769
  114DG     H20 2619   3.906   5.216   4.805 -0.9760  1.2956 -1.5890
  114DG     H21 2620   3.854   5.264   4.629  1.0295 -1.4361 -0.2237
  114DG     H22 2621   4.107   5.293   4.742 -1.4698 -0.4894  0.0500
  114DG     H23 2622   4.074   5.301   4.572 -0.1506 -2.0578 -0.4391
  115DG      C1 2623   2.236   1.079   0.726 -0.3688  0.4614 -0.7196
  115DG      C2 2624   2.959   1.348   1.132 -0.0196  0.9934 -0.0396
  115DG      H3 2625   2.196   1.000   0.665  2.6826  0.3955  0.1578
  115DG      H4 2626   2.224   1.174   0.666  0.1440  2.4306 -0.8900
  115DG      H5 2627   2.173   1.087   0.821  0.5033 -1.8086  1.5585
  115DG      H6 2628   2.923   1.377   1.234 -1.2147 -0.0591  1.3960
  115DG      H7 2629   3.033   1.268   1.127 -1.8716 -1.5227 -2.5382
  115DG      H8 2630   2.979   1.424   1.064 -0.1345  0.4016 -1.1177
  115DG      O9 2631   2.370   1.044   0.759  0.0373  0.3521 -0.7572
  115DG     O10 2632   2.850   1.286   1.059  0.3276 -0.3014  0.1269
  115DG     C11 2633   2.424   1.143   0.843 -0.5583  0.2169 -0.1213
  115DG     C12 2634   2.819   1.160   1.125  0.3013 -0.4531 -0.4733
  115DG     H13 2635   2.359   1.159   0.930 -1.1531  0.8018  2.2384
  115DG     H14 2636   2.446   1.239   0.786  1.2000  2.1178 -0.4249
  115DG     H15 2637   2.757   1.177   1.211 -1.3624 -1.2709 -1.0569
  115DG     H16 2638   2.907   1.105   1.165 -2.3479 -1.2331 -0.4582
  115DG     C17 2639   2.561   1.090   0.876 -0.1258  0.6075  0.3224
  115DG     C18 2640   2.735   1.071   1.026  0.7216 -0.1276 -0.0800
  115DG     O19 2641   2.610   1.130   0.995  0.3906  0.4092 -0.0806
  115DG     H20 2642   2.630   1.112   0.794 -0.5976  2.7258 -0.0362
  115DG     H21 2643   2.545   0.983   0.886  0.7102 -0.5790  0.8618
  115DG     H22 2644   2.788   1.055   0.938 -1.1153 -0.2391  3.0567
  115DG     H23 2645   2.721   0.968   1.058 -0.3810  0.4003  0.4030
  116DG      C1 2646   5.437   3.617   4.850 -0.4286 -0.2593 -0.6638
  116DG      C2 2647   5.797   3.282   5.436 -0.8496  0.0351  0.2598
  116DG      H3 2648   5.379   3.711   4.842 -4.2742 -2.0603 -3.7305
  116DG      H4 2649   5.375   3.542   4.793 -0.5990  2.3644 -0.1919
  116DG      H5 2650   5.537   3.633   4.797  2.7899 -0.2150 -3.2762
  116DG      H6 2651   5.797   3.267   5.543  1.8106  1.4826 -0.2005
  116DG      H7 2652   5.754   3.186   5.401 -0.6457  0.4069 -2.6161
  116DG      H8 2653   5.907   3.297   5.413 -0.5637 -0.5853  0.5407
  116DG      O9 2654   5.454   3.571   4.983  0.0434 -0.6111  0.5141
  116DG     O10 2655   5.715   3.396   5.409 -0.6854  0.4667  0.0142
  116DG     C11 2656   5.468   3.676   5.079 -0.1971  0.2112  0.2868
  116DG     C12 2657   5.580   3.365   5.421 -0.5995 -0.6476 -0.3108
  116DG     H13 2658   5.398   3.756   5.056  2.0723 -1.0303  3.9738
  116DG     H14 2659   5.570   3.718   5.088  0.0934 -3.3457  0.9758
  116DG     H15 2660   5.547   3.334   5.518 -0.3284  0.9926 -0.6433
  116DG     H16 2661   5.539   3.297   5.342  2.7577  1.3606 -1.0158
  116DG     C17 2662   5.438   3.637   5.223 -0.5268  0.5692  0.3267
  116DG     C18 2663   5.497   3.493   5.403  0.4518  0.0694 -0.2428
  116DG     O19 2664   5.511   3.528   5.268 -0.3094  0.1634  0.3349
  116DG     H20 2665   5.333   3.614   5.239 -0.4118 -0.6487  2.4165
  116DG     H21 2666   5.455   3.736   5.269  0.0918 -0.3581 -1.5883
  116DG     H22 2667   5.393   3.477   5.422  1.1789 -2.2142 -2.0859
  116DG     H23 2668   5.529   3.576   5.466  1.5115  0.4806 -2.4739
  117DG      C1 2669   2.070   4.705   5.494 -0.2864  0.2146 -0.3088
  117DG      C2 2670   1.732   5.104   6.174  0.1187  0.5905  0.3382
  117DG      H3 2671   2.151   4.645   5.538 -0.5654  0.2689  1.2464
  117DG      H4 2672   2.097   4.722   5.390  1.8779  1.5479 -0.1119
  117DG      H5 2673   1.975   4.649   5.505 -0.7963  0.1495  1.4687
  117DG      H6 2674   1.750   5.215   6.179  0.8940  2.5319  0.5044
  117DG      H7 2675   1.627   5.083   6.211  1.1699 -0.4249 -1.0685
  117DG      H8 2676   1.801   5.052   6.243 -1.1907 -0.2852  0.0497
  117DG      O9 2677   2.054   4.832   5.544  0.9428  0.0310 -0.5925
  117DG     O10 2678   1.764   5.072   6.039  0.1969  0.4884  0.1666
  117DG     C11 2679   2.029   4.840   5.683 -0.4551  0.0916  0.0739
  117DG     C12 2680   1.676   4.964   5.988 -0.6435  0.9020  0.1587
  117DG     H13 2681   2.065   4.936   5.704  1.9533 -0.5883  0.3330
  117DG     H14 2682   2.089   4.772   5.744  1.8189  0.0704 -1.8356
  117DG     H15 2683   1.574   4.989   5.984  1.4847  0.4432  0.2546
  117DG     H16 2684   1.684   4.870   6.045  2.3891  0.2615 -0.2978
  117DG     C17 2685   1.874   4.832   5.709 -0.0423  0.0419 -0.1210
  117DG     C18 2686   1.710   4.923   5.843  0.7563  0.1955  0.3214
  117DG     O19 2687   1.843   4.884   5.836 -0.2413  0.3823 -0.2192
  117DG     H20 2688   1.832   4.733   5.698  0.7332  1.0817 -1.4784
  117DG     H21 2689   1.821   4.888   5.622 -2.2800 -1.2603 -2.4546
  117DG     H22 2690   1.646   4.842   5.807 -0.2265 -0.2004  1.0139
  117DG     H23 2691   1.707   5.013   5.781  0.6913  1.9783  1.9469
  118DG      C1 2692   4.507   1.051   5.072  0.5758  0.0944  0.1386
  118DG      C2 2693   4.448   0.461   5.557  0.6189 -0.8427  0.8875
  118DG      H3 2694   4.564   1.000   4.992 -1.0191 -2.8383 -0.6898
  118DG      H4 2695   4.561   1.069   5.163 -1.4912  0.0614  2.7070
  118DG      H5 2696   4.475   1.145   5.029 -1.5471  1.5901  1.0749
  118DG      H6 2697   4.393   0.371   5.584  0.5373  0.1379 -0.6404
  118DG      H7 2698   4.551   0.434   5.535  1.7425  1.0701  1.1037
  118DG      H8 2699   4.461   0.513   5.652  0.8091 -1.7638  1.4577
  118DG      O9 2700   4.390   0.978   5.091  0.0141 -0.4709  0.2995
  118DG     O10 2701   4.390   0.523   5.442  0.4957  0.3978 -0.2402
  118DG     C11 2702   4.409   0.858   5.165  0.1879 -0.6965  0.6279
  118DG     C12 2703   4.253   0.553   5.455  0.0077 -0.6769 -0.5266
  118DG     H13 2704   4.415   0.875   5.278 -0.8442  0.9406  2.3433
  118DG     H14 2705   4.489   0.808   5.114 -1.0031 -0.9040  0.5472
  118DG     H15 2706   4.222   0.591   5.554  0.9661  2.0632 -0.4362
  118DG     H16 2707   4.198   0.464   5.439 -0.4371 -2.8296  0.7842
  118DG     C17 2708   4.278   0.774   5.153 -0.4768  0.0611  0.1729
  118DG     C18 2709   4.210   0.648   5.345 -0.4204 -0.3066  0.8329
  118DG     O19 2710   4.296   0.662   5.241  0.8444 -0.2424  0.0038
  118DG     H20 2711   4.253   0.739   5.056  1.1424  2.0191  1.9595
  118DG     H21 2712   4.195   0.838   5.190 -1.1376  0.5185  1.7261
  118DG     H22 2713   4.117   0.622   5.298  0.6195  0.8239  2.4152
  118DG     H23 2714   4.197   0.739   5.403  3.4662 -0.9079  0.3261
  119DG      C1 2715   3.517   1.528   2.897  0.7654 -0.0550 -0.6476
  119DG      C2 2716   2.831   1.753   2.725 -0.2859  0.0415 -0.4219
  119DG      H3 2717   3.567   1.491   2.811 -1.2021  0.3758 -1.6267
  119DG      H4 2718   3.536   1.480   2.997 -0.0342  0.3661 -2.2347
  119DG      H5 2719   3.553   1.633   2.922 -1.5843 -0.9864 -1.5690
  119DG      H6 2720   2.730   1.741   2.753  2.5082  0.1467 -0.3906
  119DG      H7 2721   2.862   1.849   2.782  0.2392  1.8930  1.8091
  119DG      H8 2722   2.849   1.761   2.616 -3.2028 -0.3426  1.1816
  119DG      O9 2723   3.377   1.535   2.870  0.4024  0.1165 -0.0271
  119DG     O10 2724   2.916   1.649   2.779 -0.0249  0.3976 -0.0757
  119DG     C11 2725   3.331   1.406   2.854  0.2059  0.1138 -0.9229
  119DG     C12 2726   2.876   1.517   2.733 -0.4911  0.2132 -0.4909
  119DG     H13 2727   3.383   1.332   2.917  0.9876 -2.2147 -0.5267
  119DG     H14 2728   3.341   1.378   2.748  0.5957 -0.2984  1.7785
  119DG     H15 2729   2.889   1.507   2.627  2.1665  0.6844  1.0446
  119DG     H16 2730   2.772   1.504   2.761  1.8395 -0.2731  0.3571
  119DG     C17 2731   3.176   1.400   2.890  0.4145  0.0929  0.0100
  119DG     C18 2732   2.959   1.401   2.793 -0.0270  0.7795  0.5779
  119DG     O19 2733   3.091   1.457   2.792 -0.3586  0.0797 -0.2087
  119DG     H20 2734   3.143   1.450   2.987 -0.3076  2.9896  0.6981
  119DG     H21 2735   3.143   1.294   2.904 -2.1848 -0.7525 -0.9316
  119DG     H22 2736   2.929   1.389   2.899  2.2161  1.8137  1.2694
  119DG     H23 2737   2.960   1.304   2.733 -0.1749 -1.0599 -1.7577
  120DG      C1 2738   3.710   4.248   1.867 -0.0474 -0.6878 -0.3925
  120DG      C2 2739   3.964   4.841   1.354  0.1173 -0.1244  0.2907
  120DG      H3 2740   3.641   4.258   1.950 -2.3415 -1.0878  1.3169
  120DG      H4 2741   3.808   4.259   1.912  1.1399  1.4832 -0.1598
  120DG      H5 2742   3.721   4.142   1.836 -0.3596  0.1862 -1.8570
  120DG      H6 2743   3.976   4.791   1.253  2.1288 -0.2448  0.0151
  120DG      H7 2744   3.872   4.896   1.343  1.8238  0.1762  1.0031
  120DG      H8 2745   4.044   4.909   1.377 -0.9326 -1.0946 -0.9952
  120DG      O9 2746   3.675   4.322   1.748  0.6788 -0.5931  0.8051
  120DG     O10 2747   3.927   4.750   1.461  0.8534 -0.0784 -0.0413
  120DG     C11 2748   3.777   4.407   1.706  1.2267 -0.6552  0.0162
  120DG     C12 2749   4.037   4.662   1.486  0.0408  0.4954 -0.3385
  120DG     H13 2750   3.849   4.438   1.778 -0.2167 -1.3835 -0.7196
  120DG     H14 2751   3.731   4.500   1.673  1.6469 -1.2806 -1.9625
  120DG     H15 2752   4.113   4.719   1.536 -0.9237 -1.6193  0.5361
  120DG     H16 2753   4.080   4.631   1.392  1.3601 -1.6361  2.5776
  120DG     C17 2754   3.842   4.353   1.576 -0.2732  0.2347  0.0102
  120DG     C18 2755   3.988   4.551   1.575  0.7378  0.7369 -0.0945
  120DG     O19 2756   3.883   4.471   1.506  0.3125  0.3006 -0.3912
  120DG     H20 2757   3.762   4.309   1.519  0.1803 -0.4865 -1.1058
  120DG     H21 2758   3.925   4.287   1.594  1.3161  1.5330  0.6951
  120DG     H22 2759   4.073   4.487   1.599  4.4325  0.3534 -0.7503
  120DG     H23 2760   3.957   4.597   1.673  0.0373 -0.0982  0.3208
  121DG      C1 2761   1.699   2.556   4.268  0.8167  0.7866  0.3959
  121DG      C2 2762   1.840   3.279   4.472 -0.0787 -0.4262  0.5378
  121DG      H3 2763   1.688   2.448   4.296  0.5474 -0.1683 -0.5801
  121DG      H4 2764   1.756   2.557   4.179  1.8640 -1.1299  2.5688
  121DG      H5 2765   1.599   2.588   4.248 -3.0955 -2.4518 -0.6286
  121DG      H6 2766   1.882   3.359   4.534  2.9069  1.0396 -0.6480
  121DG      H7 2767   1.844   3.325   4.366  0.2702  0.2755 -3.7188
  121DG      H8 2768   1.742   3.245   4.510 -0.9646 -0.2661  1.9857
  121DG      O9 2769   1.751   2.627   4.375 -0.2326 -0.5782 -0.6782
  121DG     O10 2770   1.926   3.169   4.456  0.3279 -0.1973  0.0968
  121DG     C11 2771   1.817   2.749   4.330  0.2135  0.2833  0.4579
  121DG     C12 2772   1.951   3.097   4.581  0.2768 -0.5260  0.0762
  121DG     H13 2773   1.743   2.819   4.280  1.4627 -0.0441 -0.2953
  121DG     H14 2774   1.901   2.746   4.255  0.3368  0.1846 -0.9083
  121DG     H15 2775   1.861   3.074   4.634  0.8606  2.4960 -0.1271
  121DG     H16 2776   2.015   3.163   4.631 -2.1859  1.0677 -0.4595
  121DG     C17 2777   1.860   2.819   4.464  0.1260 -0.4883  0.1012
  121DG     C18 2778   2.026   2.963   4.555 -0.3747 -0.7368  0.1668
  121DG     O19 2779   1.974   2.904   4.436  0.2650 -0.2274  0.4446
  121DG     H20 2780   1.873   2.749   4.541  0.9351  1.3153  0.5951
  121DG     H21 2781   1.779   2.881   4.497 -1.7415  4.4968 -2.6483
  121DG     H22 2782   2.132   2.994   4.534 -1.0161  2.1547  3.8892
  121DG     H23 2783   2.023   2.883   4.630  2.7103 -0.3084 -0.9496
  122DG      C1 2784   0.486   1.408   2.924 -0.1772  0.1232 -0.4620
  122DG      C2 2785  -0.147   0.883   2.971 -0.2094  0.2939 -0.5175
  122DG      H3 2786   0.478   1.472   2.838  1.5797 -1.6831  0.5958
  122DG      H4 2787   0.512   1.296   2.906  3.6183 -1.4919  0.2847
  122DG      H5 2788   0.558   1.453   2.996  2.1510  0.0420  0.2192
  122DG      H6 2789  -0.235   0.859   3.028 -0.5664  1.1550  2.0840
  122DG      H7 2790  -0.172   0.914   2.867  2.5703 -0.7001  0.9283
  122DG      H8 2791  -0.081   0.793   2.950 -0.0825 -0.9600  2.5423
  122DG      O9 2792   0.356   1.406   2.971  0.0689  0.1685  0.0014
  122DG     O10 2793  -0.058   0.978   3.036  0.2184 -0.5311 -0.0201
  122DG     C11 2794   0.326   1.316   3.075  0.6249 -0.7362 -0.3308
  122DG     C12 2795  -0.112   1.113   3.035  0.7838  0.6453  0.0437
  122DG     H13 2796   0.379   1.354   3.166  1.6838  0.4607  1.1674
  122DG     H14 2797   0.359   1.218   3.043 -2.4308  0.3749  0.4390
  122DG     H15 2798  -0.207   1.102   3.084  0.0952  0.3634  3.6893
  122DG     H16 2799  -0.114   1.159   2.939 -0.8534  0.7280 -0.5033
  122DG     C17 2800   0.178   1.322   3.115 -0.6579  0.9811 -0.3452
  122DG     C18 2801  -0.020   1.197   3.119 -0.1317  0.2682 -0.4974
  122DG     O19 2802   0.111   1.198   3.067  0.5153 -0.4173 -0.8036
  122DG     H20 2803   0.125   1.403   3.058 -0.7861 -0.1459  0.9063
  122DG     H21 2804   0.168   1.329   3.227 -1.5931  0.2085  2.7858
  122DG     H22 2805  -0.064   1.300   3.139 -1.2100  0.9617 -1.0539
  122DG     H23 2806  -0.018   1.156   3.223 -1.1192  2.1993 -1.3594
  123DG      C1 2807   0.060   1.819   0.673 -0.8954 -0.0491  0.6970
  123DG      C2 2808  -0.001   2.364   0.621  0.2152  0.1915 -0.0118
  123DG      H3 2809   0.089   1.719   0.714 -0.2291  2.0180  0.1847
  123DG      H4 2810   0.120   1.844   0.592  1.3077  0.0419  0.1870
  123DG      H5 2811  -0.038   1.786   0.630 -0.4600 -1.4719  2.8086
  123DG      H6 2812   0.097   2.389   0.593  1.5130  0.3833 -0.3073
  123DG      H7 2813   0.015   2.253   0.630  0.0555  1.5127 -0.0218
  123DG      H8 2814  -0.072   2.405   0.543 -0.2569 -1.5993 -0.6233
  123DG      O9 2815   0.031   1.928   0.760  0.2207 -0.4939  0.0629
  123DG     O10 2816  -0.030   2.435   0.740  0.1324  0.1300 -0.0702
  123DG     C11 2817   0.137   1.965   0.848  0.0038 -0.5456 -0.6391
  123DG     C12 2818   0.058   2.428   0.851 -0.7147 -0.1966  0.7157
  123DG     H13 2819   0.212   2.006   0.790  0.0868 -4.7715 -2.4279
  123DG     H14 2820   0.172   1.876   0.901 -2.0236  0.1066 -1.8954
  123DG     H15 2821   0.020   2.512   0.917 -0.1446  0.6375 -0.1093
  123DG     H16 2822   0.168   2.429   0.829  0.4282 -0.0215  0.8973
  123DG     C17 2823   0.086   2.076   0.938 -0.2559  0.9635  0.2749
  123DG     C18 2824   0.025   2.300   0.930 -0.2307 -0.4454  0.7307
  123DG     O19 2825   0.065   2.189   0.860 -0.4492  0.0186 -0.0125
  123DG     H20 2826   0.154   2.081   1.020 -2.9944 -4.5571 -1.9718
  123DG     H21 2827  -0.005   2.038   0.981 -0.4157 -0.6388 -0.9514
  123DG     H22 2828   0.090   2.313   1.018 -0.8949  2.4674  0.1794
  123DG     H23 2829  -0.078   2.284   0.950  1.0155  2.0351 -0.6550
  124DG      C1 2830   4.104   2.663   2.488  0.5957  0.8708  0.0198
  124DG      C2 2831   3.650   3.143   2.548  0.3967  0.0018 -0.1803
  124DG      H3 2832   4.187   2.731   2.502 -1.1951  2.0301 -0.1614
  124DG      H4 2833   4.146   2.569   2.451 -1.9238  1.3845 -1.4402
  124DG      H5 2834   4.053   2.632   2.583 -0.7549 -1.4902  2.9216
  124DG      H6 2835   3.586   3.162   2.454  0.8175  0.3779 -0.5149
  124DG      H7 2836   3.592   3.082   2.616 -3.0870  1.7511 -0.8547
  124DG      H8 2837   3.658   3.241   2.603  0.5261  1.0349 -0.6111
  124DG      O9 2838   4.008   2.725   2.403  0.2300  0.3189  0.6522
  124DG     O10 2839   3.780   3.103   2.535  0.7531 -0.4821 -0.2855
  124DG     C11 2840   4.056   2.789   2.285 -0.6463 -0.4178 -0.2241
  124DG     C12 2841   3.855   3.191   2.448  0.0770  0.6539 -0.7256
  124DG     H13 2842   3.973   2.786   2.213  2.5533  1.5042  1.2817
  124DG     H14 2843   4.133   2.733   2.239  0.0738 -1.3118  0.8596
  124DG     H15 2844   3.873   3.281   2.511  4.2110 -0.0484 -4.3897
  124DG     H16 2845   3.795   3.216   2.358 -1.4413 -0.9214 -0.1627
  124DG     C17 2846   4.079   2.930   2.322 -0.4839  0.0741  0.3106
  124DG     C18 2847   3.988   3.123   2.413 -0.3303 -1.0190  0.5437
  124DG     O19 2848   3.965   2.992   2.380  0.2987 -0.1213 -0.3824
  124DG     H20 2849   4.103   2.978   2.235 -0.3269  1.2638  0.8299
  124DG     H21 2850   4.159   2.938   2.393  0.6834 -1.4737  0.0423
  124DG     H22 2851   4.047   3.180   2.341 -1.4763 -1.4937 -1.1570
  124DG     H23 2852   4.049   3.144   2.501  1.2237 -1.2562 -2.6016
  125DG      C1 2853   3.293   0.823   4.568  0.0233  0.2212  0.5937
  125DG      C2 2854   3.903   0.270   4.467 -0.6307  0.6991 -0.8507
  125DG      H3 2855   3.246   0.752   4.497 -0.3552 -0.5363  1.5676
  125DG      H4 2856   3.319   0.920   4.521  2.8306  0.2910 -2.9139
  125DG      H5 2857   3.226   0.858   4.644  0.7697 -0.6025  2.3231
  125DG      H6 2858   3.965   0.183   4.464 -3.0898 -0.3424  1.9817
  125DG      H7 2859   3.817   0.249   4.408  0.7523  0.8304 -0.0785
  125DG      H8 2860   3.966   0.340   4.414 -1.2072  0.2634  0.6572
  125DG      O9 2861   3.411   0.772   4.631  0.2724 -0.1032  0.3747
  125DG     O10 2862   3.886   0.311   4.602  0.0092  0.6261 -0.3317
  125DG     C11 2863   3.394   0.663   4.718 -0.3744  0.4489  0.0387
  125DG     C12 2864   3.801   0.426   4.617 -0.3787 -0.6751 -0.7744
  125DG     H13 2865   3.291   0.656   4.759 -0.6724 -0.4363 -0.5057
  125DG     H14 2866   3.454   0.675   4.806  0.1680  1.9118  1.4130
  125DG     H15 2867   3.828   0.497   4.541 -1.8131 -0.6777 -0.7836
  125DG     H16 2868   3.810   0.484   4.712  0.6179  0.8099  0.4085
  125DG     C17 2869   3.441   0.533   4.653  0.4617  0.2415 -0.1835
  125DG     C18 2870   3.648   0.406   4.590 -0.5176 -0.3598  0.1171
  125DG     O19 2871   3.584   0.524   4.639 -0.1169 -0.6999  0.2063
  125DG     H20 2872   3.401   0.518   4.557 -0.1581  0.1207 -1.1828
  125DG     H21 2873   3.406   0.438   4.703 -0.8146 -1.1747 -0.3352
  125DG     H22 2874   3.642   0.399   4.483  1.2134  2.1239  0.2907
  125DG     H23 2875   3.593   0.325   4.642 -2.1799  1.3258  0.6817
  126DG      C1 2876   4.143   2.218   5.413 -0.4122  0.2872  0.5494
  126DG      C2 2877   4.329   2.887   5.414 -0.5416 -0.3339  0.6667
  126DG      H3 2878   4.048   2.177   5.443  0.1867 -0.6063 -0.8854
  126DG      H4 2879   4.220   2.151   5.460  1.2106 -0.8404 -0.3333
  126DG      H5 2880   4.157   2.226   5.301 -2.9479  2.4465  0.8342
  126DG      H6 2881   4.333   2.927   5.314  0.7928  0.7860  1.7866
  126DG      H7 2882   4.348   2.957   5.498 -3.7858 -3.3044 -0.1075
  126DG      H8 2883   4.411   2.819   5.416  1.9910  1.8482  1.5108
  126DG      O9 2884   4.149   2.354   5.462 -0.6952 -0.1498 -0.0937
  126DG     O10 2885   4.218   2.817   5.437 -0.2904  0.1231  0.3262
  126DG     C11 2886   4.061   2.431   5.383  0.2576 -0.5745 -0.2003
  126DG     C12 2887   4.095   2.878   5.400  0.1488 -0.4957 -0.5815
  126DG     H13 2888   3.970   2.372   5.370 -0.4783 -2.4915 -0.0771
  126DG     H14 2889   4.103   2.461   5.290 -0.7368  1.9842  1.3990
  126DG     H15 2890   4.093   2.894   5.291  3.4418 -0.4130  0.5002
  126DG     H16 2891   4.084   2.972   5.456  1.3349  1.9959  0.6825
  126DG     C17 2892   4.038   2.565   5.452 -0.6583 -0.0482 -0.6381
  126DG     C18 2893   3.974   2.796   5.429  0.6107 -0.1422  0.3594
  126DG     O19 2894   3.975   2.668   5.373  0.3002 -0.2244  0.6239
  126DG     H20 2895   4.134   2.599   5.482  2.0028 -0.9792 -2.0528
  126DG     H21 2896   3.989   2.558   5.548  1.3930  0.9912 -1.4945
  126DG     H22 2897   3.942   2.796   5.535  0.8143 -1.3702 -0.8468
  126DG     H23 2898   3.890   2.850   5.382 -0.1886 -0.0528  2.3445
  127DG      C1 2899   4.542   1.771   1.441 -0.4445 -0.5399  0.3104
  127DG      C2 2900   5.035   1.824   1.859  0.7025 -0.1028 -0.2812
  127DG      H3 2901   4.580   1.793   1.541  1.3726 -0.6789  1.4447
  127DG      H4 2902   4.451   1.707   1.448 -0.0358 -0.6251 -1.9395
  127DG      H5 2903   4.520   1.868   1.394 -0.9119  0.6942 -0.8398
  127DG      H6 2904   5.137   1.843   1.817  0.5899  0.3495 -1.5267
  127DG      H7 2905   4.982   1.913   1.891 -1.8791  0.8780  0.6619
  127DG      H8 2906   5.063   1.756   1.941 -1.2756  2.3693  0.4791
  127DG      O9 2907   4.658   1.725   1.370 -0.0096 -0.2809  0.1858
  127DG     O10 2908   4.973   1.737   1.769 -0.4738 -0.8267 -0.8118
  127DG     C11 2909   4.675   1.584   1.367 -0.4072  0.3901 -0.3570
  127DG     C12 2910   4.843   1.690   1.804 -0.4855 -1.0021 -0.5384
  127DG     H13 2911   4.745   1.562   1.287  0.7996 -0.6231 -0.8728
  127DG     H14 2912   4.590   1.536   1.346  2.4424  0.2924  2.2550
  127DG     H15 2913   4.780   1.783   1.789 -2.7029  0.6343 -0.6643
  127DG     H16 2914   4.833   1.657   1.907  0.7746 -0.3321 -1.0514
  127DG     C17 2915   4.719   1.530   1.504  0.2608 -0.3261 -0.7453
  127DG     C18 2916   4.786   1.583   1.714  0.8666 -0.4792  0.1278
  127DG     O19 2917   4.774   1.630   1.584  0.0222  0.0799 -0.3839
  127DG     H20 2918   4.786   1.444   1.495 -0.2029  1.2046 -0.3954
  127DG     H21 2919   4.627   1.497   1.551 -2.2793 -2.7042 -0.0561
  127DG     H22 2920   4.847   1.492   1.729  0.2772 -1.9417 -1.9789
  127DG     H23 2921   4.689   1.549   1.751  0.2958 -0.8934 -1.0548
  128DG      C1 2922   2.595   0.036   2.846 -0.0175  0.6838 -0.2998
  128DG      C2 2923   2.720  -0.353   2.303 -0.0357 -0.5264 -0.1928
  128DG      H3 2924   2.559   0.059   2.946  0.8605  0.1861  3.0484
  128DG      H4 2925   2.517   0.073   2.773  1.3774 -3.1943  0.2493
  128DG      H5 2926   2.687   0.096   2.837  1.8628 -1.3064  0.8217
  128DG      H6 2927   2.737  -0.455   2.292 -1.5480  0.6280 -0.0606
  128DG      H7 2928   2.661  -0.315   2.210  0.4991  1.3769  0.8737
  128DG      H8 2929   2.817  -0.301   2.320  1.3202 -1.2772 -0.2603
  128DG      O9 2930   2.611  -0.101   2.814 -0.3968  1.0668 -0.3328
  128DG     O10 2931   2.651  -0.342   2.421 -0.0583 -0.4425 -0.0576
  128DG     C11 2932   2.500  -0.182   2.851  0.1071  0.3683  0.1404
  128DG     C12 2933   2.521  -0.383   2.424  0.1129 -0.1974 -0.2455
  128DG     H13 2934   2.408  -0.134   2.822 -0.2361  0.3236  0.5746
  128DG     H14 2935   2.505  -0.168   2.959 -2.1226 -0.4712  1.3477
  128DG     H15 2936   2.512  -0.484   2.374 -0.0401  1.2000  0.4542
  128DG     H16 2937   2.455  -0.319   2.373  2.9479  1.4742  1.0905
  128DG     C17 2938   2.510  -0.321   2.787  0.5116 -0.1871 -0.2140
  128DG     C18 2939   2.468  -0.409   2.568 -0.2457 -0.9379 -0.7003
  128DG     O19 2940   2.511  -0.299   2.646 -0.1785  0.3607  0.2084
  128DG     H20 2941   2.430  -0.383   2.822  0.1436 -3.8058 -0.5953
  128DG     H21 2942   2.598  -0.373   2.814 -1.3687  1.3548  2.0370
  128DG     H22 2943   2.360  -0.420   2.565 -1.3684 -0.2509  0.9265
  128DG     H23 2944   2.506  -0.503   2.601 -0.0712 -1.8342  0.2271
  129DG      C1 2945   0.604   4.778   2.181 -0.6538  0.1215 -0.8540
  129DG      C2 2946  -0.001   4.741   1.980 -0.2094 -0.2503 -0.0417
  129DG      H3 2947   0.606   4.828   2.083 -2.0822  0.4395  0.4219
  129DG      H4 2948   0.641   4.673   2.161  2.5294 -0.2272 -1.6184
  129DG      H5 2949   0.661   4.833   2.243 -2.2792  0.7904 -0.8575
  129DG      H6 2950   0.010   4.771   1.875 -3.2963 -0.7964  0.6809
  129DG      H7 2951  -0.103   4.710   1.980 -0.0333 -0.1754  1.0300
  129DG      H8 2952   0.021   4.833   2.045  1.0580  1.7971  0.7536
  129DG      O9 2953   0.466   4.771   2.209 -0.2040  0.2173 -0.1121
  129DG     O10 2954   0.095   4.645   2.005  0.3694  0.4686 -0.4844
  129DG     C11 2955   0.447   4.671   2.309 -0.1640  0.1324 -0.1554
  129DG     C12 2956   0.066   4.569   2.124 -0.6390  0.1288 -0.2077
  129DG     H13 2957   0.466   4.713   2.412  4.6871  1.6614  2.5804
  129DG     H14 2958   0.512   4.584   2.298  0.3439  0.4256 -1.9478
  129DG     H15 2959  -0.023   4.504   2.101  0.9099 -1.9830  0.0672
  129DG     H16 2960   0.046   4.637   2.202  0.3417  0.7209 -0.9513
  129DG     C17 2961   0.306   4.614   2.305  0.1192  0.0723  0.4112
  129DG     C18 2962   0.184   4.476   2.157 -0.3393 -0.5785 -0.2924
  129DG     O19 2963   0.308   4.542   2.183 -0.2841  0.4481  0.4748
  129DG     H20 2964   0.231   4.697   2.314 -1.3098  0.3015 -0.5860
  129DG     H21 2965   0.292   4.542   2.385 -2.1998  1.5793  2.4902
  129DG     H22 2966   0.164   4.411   2.245  0.8584  1.3629 -0.9413
  129DG     H23 2967   0.202   4.408   2.074 -0.6954 -2.6529  0.8462
  130DG      C1 2968   0.794   3.885   0.978 -0.4540 -0.3250  0.2351
  130DG      C2 2969   1.314   3.232   1.009 -0.0049 -1.2324  0.2825
  130DG      H3 2970   0.842   3.957   1.040  1.9724  0.8894  0.7467
  130DG      H4 2971   0.689   3.903   0.982  1.2263  2.4046  2.7678
  130DG      H5 2972   0.836   3.892   0.874  3.0553  0.5311 -1.6554
  130DG      H6 2973   1.382   3.238   0.932  2.3650  1.1350  0.6842
  130DG      H7 2974   1.355   3.290   1.096 -0.7741  0.2923 -0.7930
  130DG      H8 2975   1.304   3.122   1.036  0.2464  1.0719 -1.0268
  130DG      O9 2976   0.809   3.757   1.027  0.0409 -0.0563 -0.2173
  130DG     O10 2977   1.185   3.282   0.967  0.1660  0.1344  0.4598
  130DG     C11 2978   0.806   3.655   0.932 -0.0674  0.0234 -0.0771
  130DG     C12 2979   1.098   3.298   1.077 -0.0452 -0.4992 -0.2211
  130DG     H13 2980   0.890   3.655   0.861 -0.3050 -0.5990  2.2313
  130DG     H14 2981   0.722   3.660   0.860  1.3446  0.5642  0.7503
  130DG     H15 2982   1.136   3.372   1.144 -2.6297 -0.2010 -0.0260
  130DG     H16 2983   1.088   3.209   1.143 -2.4229  0.7509  1.9415
  130DG     C17 2984   0.814   3.518   1.000  0.6642  0.7061 -0.0126
  130DG     C18 2985   0.959   3.333   1.024  0.4241 -0.0697 -0.6269
  130DG     O19 2986   0.951   3.475   1.004 -0.0502 -0.5544 -0.0731
  130DG     H20 2987   0.756   3.440   0.942 -0.2816 -1.5880  2.3791
  130DG     H21 2988   0.774   3.512   1.102  0.6073 -0.0005 -1.2592
  130DG     H22 2989   0.930   3.281   0.935  0.0521 -0.1498  2.2782
  130DG     H23 2990   0.899   3.308   1.109 -0.3264 -1.6011  0.8624
  131DG      C1 2991   3.747   1.631   2.304 -0.0064  0.2109 -0.0274
  131DG      C2 2992   3.888   0.942   2.470 -0.2496  0.6955 -0.5777
  131DG      H3 2993   3.815   1.605   2.377 -0.1933 -1.2097  2.8670
  131DG      H4 2994   3.670   1.698   2.338 -1.1475  0.3995 -3.0845
  131DG      H5 2995   3.801   1.667   2.217  2.6151  1.2825  1.5282
  131DG      H6 2996   3.983   0.891   2.480 -0.7421 -0.3128  1.5656
  131DG      H7 2997   3.856   0.983   2.563  2.9151 -2.6226 -1.5995
  131DG      H8 2998   3.824   0.868   2.428 -0.9675  0.1203 -0.3411
  131DG      O9 2999   3.675   1.517   2.276 -0.6492 -0.1189 -0.1623
  131DG     O10 3000   3.908   1.040   2.370  0.2254  0.1481  0.5735
  131DG     C11 3001   3.615   1.455   2.393 -0.0040  0.0010  0.9134
  131DG     C12 3002   3.987   1.148   2.399 -0.7191 -0.3540 -0.1796
  131DG     H13 3003   3.553   1.380   2.349  1.9916 -1.4218  0.0426
  131DG     H14 3004   3.552   1.528   2.445 -1.5046  1.5721  4.7173
  131DG     H15 3005   4.010   1.192   2.306  1.1639  0.6736  3.1786
  131DG     H16 3006   4.080   1.125   2.453  3.6196 -2.1845  0.8979
  131DG     C17 3007   3.714   1.393   2.487  0.3099 -0.1943  0.5898
  131DG     C18 3008   3.908   1.251   2.487  0.6621 -0.4193  0.2816
  131DG     O19 3009   3.788   1.294   2.419  0.2458 -0.2560  0.1309
  131DG     H20 3010   3.656   1.338   2.564  2.2920  0.2103  0.4957
  131DG     H21 3011   3.778   1.460   2.550 -1.0886 -1.4480 -0.0726
  131DG     H22 3012   3.869   1.195   2.567  3.0384 -1.9570 -3.1927
  131DG     H23 3013   3.979   1.330   2.524 -1.7357 -0.5772 -0.5662
  132DG      C1 3014   3.964   3.205   4.842 -0.2552  0.3562  0.3159
  132DG      C2 3015   4.464   3.044   4.456  0.9341  0.0866 -0.1063
  132DG      H3 3016   3.958   3.180   4.951 -0.2944 -0.6710 -0.5069
  132DG      H4 3017   3.856   3.221   4.818 -3.5233 -0.0640  0.4578
  132DG      H5 3018   4.020   3.296   4.829 -1.8907  1.7690  2.1858
  132DG      H6 3019   4.504   3.014   4.357  1.0320 -0.3893 -2.4555
  132DG      H7 3020   4.482   3.153   4.465 -2.2676 -0.8347  0.7197
  132DG      H8 3021   4.518   2.994   4.543 -2.2444 -2.1314  1.4918
  132DG      O9 3022   4.028   3.111   4.764  0.1796  0.2601  0.4545
  132DG     O10 3023   4.319   3.031   4.468  0.2090 -0.4265 -0.1552
  132DG     C11 3024   3.948   2.998   4.751  0.3704  0.6393 -0.4515
  132DG     C12 3025   4.288   2.893   4.486 -0.0138 -0.3298  0.5936
  132DG     H13 3026   3.852   3.013   4.708 -1.3929  1.2399  0.1351
  132DG     H14 3027   3.922   2.950   4.848  2.3194  0.0477  0.9895
  132DG     H15 3028   4.313   2.857   4.585  0.8862 -0.4433  1.6442
  132DG     H16 3029   4.336   2.828   4.413  0.0229  0.9443  0.3916
  132DG     C17 3030   4.026   2.898   4.663 -0.3658  0.4821  0.0637
  132DG     C18 3031   4.131   2.882   4.452  0.3446 -0.5701  0.0155
  132DG     O19 3032   4.051   2.961   4.538 -0.6287 -0.9078 -0.3347
  132DG     H20 3033   3.975   2.798   4.654  0.6723 -0.8737  1.9892
  132DG     H21 3034   4.121   2.876   4.711  0.4605 -3.8850  2.3989
  132DG     H22 3035   4.113   2.916   4.353 -0.4733 -4.3507  1.8562
  132DG     H23 3036   4.102   2.782   4.457  0.8322  1.0295  0.0364
  133DG      C1 3037   5.071   1.067   2.831 -0.1989  0.2621 -0.4452
  133DG      C2 3038   5.349   0.355   2.717  0.0986 -0.2245 -0.2994
  133DG      H3 3039   5.120   1.056   2.928  0.3468 -0.9651 -0.0502
  133DG      H4 3040   4.977   1.110   2.853  1.7324 -0.4017  1.2305
  133DG      H5 3041   5.123   1.150   2.782 -0.9850  1.4589  3.4707
  133DG      H6 3042   5.336   0.259   2.676  1.1588  0.3546 -0.4348
  133DG      H7 3043   5.418   0.408   2.664 -0.8521 -1.3339  2.2011
  133DG      H8 3044   5.387   0.331   2.818 -0.0910 -0.0386 -0.8586
  133DG      O9 3045   5.050   0.962   2.741 -0.2655 -0.2940 -0.5920
  133DG     O10 3046   5.216   0.425   2.721  0.8877  0.0071  0.5195
  133DG     C11 3047   4.970   0.859   2.800 -0.2187 -0.6454 -0.5556
  133DG     C12 3048   5.163   0.456   2.596 -0.2386 -0.2189  0.3644
  133DG     H13 3049   4.872   0.908   2.817 -0.8343  0.2247  0.3337
  133DG     H14 3050   4.995   0.829   2.901  1.7748  0.4740 -0.6840
  133DG     H15 3051   5.141   0.360   2.556 -1.0324 -0.8763  1.0222
  133DG     H16 3052   5.235   0.507   2.532 -0.6792  1.0517  0.5226
  133DG     C17 3053   4.951   0.738   2.706  0.6615  0.0513 -0.5062
  133DG     C18 3054   5.036   0.538   2.623  0.1056  0.6317  0.8280
  133DG     O19 3055   5.058   0.652   2.703 -0.1263  0.4592  0.3283
  133DG     H20 3056   4.907   0.777   2.613 -2.4892  1.9557 -1.8181
  133DG     H21 3057   4.875   0.683   2.757  1.6000  1.2607  0.0750
  133DG     H22 3058   4.996   0.557   2.524  0.3454 -0.9257 -1.5452
  133DG     H23 3059   4.963   0.468   2.665 -0.1983 -1.0332  0.3020
  134DG      C1 3060   0.319   4.107   3.983 -0.0252  0.2761 -0.0340
  134DG      C2 3061   0.409   3.933   3.315  0.1611 -0.3632 -0.2835
  134DG      H3 3062   0.384   4.090   4.061 -0.3158  1.0300 -0.5579
  134DG      H4 3063   0.222   4.117   4.026  4.1520 -0.9687  4.3115
  134DG      H5 3064   0.353   4.194   3.928 -0.6910 -0.5997  0.7258
  134DG      H6 3065   0.336   3.925   3.236  0.9117  0.2855  1.4279
  134DG      H7 3066   0.436   4.040   3.323 -1.1676  2.6875  0.1120
  134DG      H8 3067   0.493   3.879   3.285 -1.5152 -0.2920  0.2948
  134DG      O9 3068   0.320   3.997   3.889 -0.9409 -0.1968 -0.1197
  134DG     O10 3069   0.352   3.901   3.443 -0.2218  0.5123  0.5537
  134DG     C11 3070   0.220   3.895   3.910  0.8314  0.3706 -0.3268
  134DG     C12 3071   0.268   3.790   3.436  0.9535 -0.1497 -0.3427
  134DG     H13 3072   0.122   3.943   3.914  0.6307  1.8378  1.3519
  134DG     H14 3073   0.238   3.850   4.002 -0.0495  1.3585  3.4518
  134DG     H15 3074   0.314   3.714   3.373  0.4266  1.2823 -1.0649
  134DG     H16 3075   0.168   3.805   3.393 -0.5848  0.4024 -0.3878
  134DG     C17 3076   0.235   3.785   3.804  0.9100  0.1325  0.1267
  134DG     C18 3077   0.255   3.731   3.573 -0.2771  0.8852 -0.6748
  134DG     O19 3078   0.246   3.831   3.671 -0.2919  0.2713  0.5848
  134DG     H20 3079   0.147   3.725   3.825  0.6182 -1.7275  1.5709
  134DG     H21 3080   0.316   3.715   3.835  0.1308 -0.2130  1.6835
  134DG     H22 3081   0.155   3.683   3.571 -1.3327 -1.0574  0.1326
  134DG     H23 3082   0.331   3.651   3.599 -0.2467 -1.5706  0.0048
  135DG      C1 3083   1.808   2.108   0.656  0.1031  0.1685 -0.3373
  135DG      C2 3084   2.250   2.280   0.146 -0.1857  1.0675  0.8546
  135DG      H3 3085   1.740   2.173   0.603  2.1462 -2.0627 -0.3865
  135DG      H4 3086   1.819   2.151   0.749  0.3948  0.8489 -1.7739
  135DG      H5 3087   1.750   2.019   0.668 -1.0771 -0.4433 -1.1268
  135DG      H6 3088   2.189   2.263   0.059  1.0933 -0.3209 -1.3453
  135DG      H7 3089   2.217   2.369   0.187 -1.1027 -3.0677 -0.7571
  135DG      H8 3090   2.346   2.292   0.106 -1.9480  2.0670  0.3430
  135DG      O9 3091   1.915   2.063   0.572 -0.5778  0.0150 -0.0308
  135DG     O10 3092   2.250   2.165   0.226  0.2556  0.7812 -0.1068
  135DG     C11 3093   2.018   1.994   0.638 -0.8562 -0.3855  0.1180
  135DG     C12 3094   2.334   2.181   0.338  0.6329 -0.9301 -0.6133
  135DG     H13 3095   1.972   1.902   0.679 -2.5456 -3.5936 -1.9243
  135DG     H14 3096   2.055   2.062   0.715  0.4292  1.7292 -2.8400
  135DG     H15 3097   2.320   2.275   0.386  1.4279  1.9608 -1.1148
  135DG     H16 3098   2.438   2.178   0.304 -0.6038  0.8504 -0.9179
  135DG     C17 3099   2.136   1.958   0.552 -0.0404  0.6383 -0.8748
  135DG     C18 3100   2.311   2.065   0.438  0.6744 -0.4032 -0.2640
  135DG     O19 3101   2.169   2.061   0.466  0.1590  0.2997 -0.0183
  135DG     H20 3102   2.117   1.870   0.487 -1.1980  0.2772 -0.4441
  135DG     H21 3103   2.214   1.933   0.620 -0.3646  1.0653 -1.8994
  135DG     H22 3104   2.346   1.969   0.396  2.3538  1.2991  0.0692
  135DG     H23 3105   2.362   2.085   0.534  0.4211  0.8254 -0.9223
  136DG      C1 3106   2.604   2.635   2.055  0.1109 -0.3852 -0.0270
  136DG      C2 3107   3.117   2.950   2.657 -0.0982 -0.6506 -0.5336
  136DG      H3 3108   2.512   2.654   1.998  1.1262  1.0639 -0.0656
  136DG      H4 3109   2.582   2.565   2.131 -1.0874  1.1034  0.4291
  136DG      H5 3110   2.659   2.575   1.986 -1.0054  2.1063 -0.7706
  136DG      H6 3111   3.195   2.880   2.615  1.1674 -2.7083  2.0444
  136DG      H7 3112   3.174   3.017   2.714  1.0591 -1.5891 -3.0143
  136DG      H8 3113   3.045   2.894   2.725 -0.3547 -2.1322 -1.1050
  136DG      O9 3114   2.684   2.736   2.107 -0.5256  0.0310 -0.5396
  136DG     O10 3115   3.038   3.003   2.548 -0.2152  0.6567 -0.1964
  136DG     C11 3116   2.615   2.823   2.189 -0.1719  0.2020  0.3436
  136DG     C12 3117   2.968   2.904   2.472 -0.1329  0.2017 -0.1649
  136DG     H13 3118   2.595   2.783   2.288  1.1278 -0.2935 -2.1295
  136DG     H14 3119   2.528   2.864   2.140  0.0263 -2.4752 -2.3860
  136DG     H15 3120   2.900   2.840   2.535  0.6525  0.4652  1.4348
  136DG     H16 3121   3.043   2.843   2.421 -0.0497  1.6090  1.6309
  136DG     C17 3122   2.709   2.940   2.210 -0.6104  0.4753  0.5987
  136DG     C18 3123   2.895   2.984   2.361 -0.0094 -0.2381 -0.3438
  136DG     O19 3124   2.809   2.892   2.296 -0.3007 -0.1253  0.2855
  136DG     H20 3125   2.649   3.026   2.251 -1.1801  1.2581 -0.8322
  136DG     H21 3126   2.754   2.974   2.118 -0.7248 -0.5388 -0.2177
  136DG     H22 3127   2.841   3.074   2.399 -1.6932 -0.5268  0.3841
  136DG     H23 3128   2.971   3.027   2.304 -0.4977  0.2956  0.0522
  137DG      C1 3129   3.641   3.946   5.277 -0.3792 -0.0609  0.8808
  137DG      C2 3130   3.573   3.905   5.921 -0.2436 -0.2553 -0.2993
  137DG      H3 3131   3.628   4.043   5.321 -1.1672 -2.1556  1.2640
  137DG      H4 3132   3.542   3.910   5.241 -3.4121  1.6568  1.7205
  137DG      H5 3133   3.707   3.934   5.185  1.2318 -2.5636 -1.3910
  137DG      H6 3134   3.633   3.980   5.976  0.0663  3.4501  1.7499
  137DG      H7 3135   3.477   3.945   5.878 -2.4963 -1.0730 -1.6147
  137DG      H8 3136   3.548   3.839   6.000 -0.6160  0.8704 -0.7154
  137DG      O9 3137   3.694   3.860   5.377  0.0205  0.5466  0.3331
  137DG     O10 3138   3.649   3.834   5.830  0.6016  0.6028 -0.0150
  137DG     C11 3139   3.834   3.871   5.404  0.1668 -0.4211 -0.0138
  137DG     C12 3140   3.782   3.820   5.867  0.3157  0.3646 -0.0997
  137DG     H13 3141   3.853   3.970   5.441 -1.4674  1.1127  3.5862
  137DG     H14 3142   3.892   3.847   5.318  2.4615 -0.9121 -0.1636
  137DG     H15 3143   3.780   3.765   5.962 -0.5879  0.5256 -0.4196
  137DG     H16 3144   3.822   3.922   5.886 -0.2902  0.5823 -1.0161
  137DG     C17 3145   3.885   3.784   5.519  0.4486  0.0631  0.1366
  137DG     C18 3146   3.852   3.754   5.749 -0.2371 -0.2380 -0.8943
  137DG     O19 3147   3.821   3.833   5.640 -0.2610  0.0689  0.1710
  137DG     H20 3148   3.993   3.750   5.526  4.7326 -3.4591 -1.5804
  137DG     H21 3149   3.828   3.691   5.501  2.0319 -2.1450 -1.4215
  137DG     H22 3150   3.962   3.742   5.756  2.9698  2.6111 -0.2442
  137DG     H23 3151   3.818   3.650   5.729  2.3679  0.7554 -2.1887
  138DG      C1 3152   0.777   4.138   4.259 -0.2165  0.3161 -0.7999
  138DG      C2 3153   0.895   3.474   4.058 -0.3270 -0.5605 -0.6777
  138DG      H3 3154   0.707   4.116   4.347 -0.1968 -0.6627  0.3990
  138DG      H4 3155   0.760   4.235   4.212  1.8674 -0.3900 -2.7810
  138DG      H5 3156   0.872   4.135   4.306 -2.7931  1.7752 -1.0531
  138DG      H6 3157   0.983   3.507   4.004  0.3427  0.6950 -2.2029
  138DG      H7 3158   0.927   3.456   4.167 -1.0602  1.2086  2.0432
  138DG      H8 3159   0.855   3.386   4.016 -2.7024  0.5922 -2.4271
  138DG      O9 3160   0.774   4.041   4.150 -0.8462  0.2338 -0.0658
  138DG     O10 3161   0.796   3.577   4.087  0.2872 -0.8249 -0.2471
  138DG     C11 3162   0.658   4.047   4.074  0.9134  0.6194  0.0900
  138DG     C12 3163   0.710   3.594   3.977  0.2278 -0.1865  0.6325
  138DG     H13 3164   0.664   4.129   4.010 -1.9959 -0.8954  0.3356
  138DG     H14 3165   0.570   4.052   4.133 -2.0533 -2.6466 -2.3941
  138DG     H15 3166   0.669   3.494   3.950  1.6318 -0.2838 -0.7854
  138DG     H16 3167   0.769   3.611   3.885  1.7374  0.6373 -0.7114
  138DG     C17 3168   0.640   3.923   3.985  0.4759  0.2580 -0.4162
  138DG     C18 3169   0.600   3.696   4.003  0.5183 -0.2895  0.2763
  138DG     O19 3170   0.659   3.813   4.068  0.5548  0.4592  0.1611
  138DG     H20 3171   0.719   3.927   3.915 -1.0847 -1.6438  1.1427
  138DG     H21 3172   0.536   3.931   3.933 -2.4862  1.8209 -1.7559
  138DG     H22 3173   0.542   3.722   3.912 -3.3189  0.3984 -1.8319
  138DG     H23 3174   0.530   3.646   4.072  1.9878 -0.0679  0.7858
  139DG      C1 3175   3.567   4.833   1.722  1.2984 -0.3872  0.3846
  139DG      C2 3176   3.238   4.641   1.320 -0.0854  0.5843  0.0002
  139DG      H3 3177   3.620   4.738   1.718 -1.9726 -2.0877 -1.2795
  139DG      H4 3178   3.628   4.925   1.712  0.1885  2.0963 -0.3878
  139DG      H5 3179   3.508   4.825   1.630  0.5652 -1.0944  1.5374
  139DG      H6 3180   3.144   4.605   1.273 -4.4132 -0.7091  0.5557
  139DG      H7 3181   3.284   4.707   1.236  1.2939  0.9034  0.1856
  139DG      H8 3182   3.296   4.549   1.327  0.3148  0.7467 -1.0275
  139DG      O9 3183   3.478   4.834   1.833 -0.4061  0.7950  0.7979
  139DG     O10 3184   3.205   4.700   1.445  0.9469  0.4139  0.0541
  139DG     C11 3185   3.393   4.948   1.834 -0.0270  0.2476 -0.1943
  139DG     C12 3186   3.142   4.828   1.427 -0.2583  0.0705 -0.0861
  139DG     H13 3187   3.447   5.044   1.814  2.2521 -0.1272 -2.5047
  139DG     H14 3188   3.372   4.957   1.944 -1.4901 -0.2954 -1.7075
  139DG     H15 3189   3.037   4.813   1.386 -1.2730 -0.9837  0.0563
  139DG     H16 3190   3.199   4.885   1.365 -1.1896 -1.8013  2.5596
  139DG     C17 3191   3.260   4.910   1.769  0.2001 -0.9154 -0.4071
  139DG     C18 3192   3.131   4.899   1.559  0.1139 -0.5811 -0.4248
  139DG     O19 3193   3.254   4.912   1.630 -0.4535 -0.2353 -0.7130
  139DG     H20 3194   3.185   4.981   1.804  3.0148 -0.4588  0.9493
  139DG     H21 3195   3.223   4.812   1.791  1.0598  2.8801 -0.6529
  139DG     H22 3196   3.079   4.994   1.544 -0.0467  2.7103 -2.6843
  139DG     H23 3197   3.060   4.840   1.616 -0.6515 -4.0272 -0.0387
  140DG      C1 3198   1.428   4.898   2.440  0.2004  0.2163 -0.1052
  140DG      C2 3199   1.465   4.935   3.333 -0.1297  0.3042 -0.2630
  140DG      H3 3200   1.375   4.964   2.372 -0.2320 -0.3001  1.9252
  140DG      H4 3201   1.385   4.795   2.430 -0.9495  0.8375 -2.5779
  140DG      H5 3202   1.534   4.880   2.408  1.8562 -4.2557 -2.1629
  140DG      H6 3203   1.558   5.001   3.317  1.4265  2.9526 -1.5067
  140DG      H7 3204   1.408   4.933   3.432 -1.7166  5.1245  1.9751
  140DG      H8 3205   1.497   4.832   3.309 -1.7202 -0.4876  0.6113
  140DG      O9 3206   1.422   4.943   2.575  0.2359  0.7125  0.3012
  140DG     O10 3207   1.366   4.973   3.233  0.3139  0.3006  0.6850
  140DG     C11 3208   1.295   4.954   2.622  0.9278  0.4155 -0.6009
  140DG     C12 3209   1.410   4.969   3.094 -0.0981  0.3324 -0.3256
  140DG     H13 3210   1.256   4.852   2.630  1.9292  0.5759  0.7583
  140DG     H14 3211   1.220   5.008   2.560  1.2797 -1.0384  1.7216
  140DG     H15 3212   1.475   4.881   3.087 -1.3391 -0.8087 -0.1398
  140DG     H16 3213   1.474   5.049   3.064 -0.6267 -0.8985 -0.8835
  140DG     C17 3214   1.288   5.023   2.764  0.2917  0.3942 -0.2518
  140DG     C18 3215   1.309   4.961   2.989 -0.8391  0.0767  0.0935
  140DG     O19 3216   1.368   4.971   2.860  0.1272 -0.0344  0.1074
  140DG     H20 3217   1.186   5.044   2.806 -0.1346 -0.3098 -0.2797
  140DG     H21 3218   1.323   5.129   2.746 -1.6722 -2.2060 -0.1447
  140DG     H22 3219   1.262   4.863   3.003  0.0284  0.0444 -0.7902
  140DG     H23 3220   1.224   5.030   3.004  1.0618  0.0014 -0.1467
  141DG      C1 3221   2.061   5.107   3.231  0.2311 -0.1575 -0.1792
  141DG      C2 3222   1.415   5.513   3.447  1.0618  0.0920  0.0523
  141DG      H3 3223   2.082   5.139   3.135  1.1941 -1.4853 -1.4674
  141DG      H4 3224   1.958   5.073   3.234 -0.5164 -1.3026  2.0985
  141DG      H5 3225   2.123   5.022   3.255 -1.9494  1.3079  1.5089
  141DG      H6 3226   1.399   5.548   3.342 -1.4026  2.7074  0.2821
  141DG      H7 3227   1.316   5.511   3.498 -0.9058  3.0666  0.0388
  141DG      H8 3228   1.462   5.603   3.488 -0.1406  0.4209 -1.9021
  141DG      O9 3229   2.074   5.223   3.317  0.2504 -0.4357 -0.3425
  141DG     O10 3230   1.484   5.391   3.478 -0.2470 -0.0094 -0.4212
  141DG     C11 3231   2.057   5.181   3.453 -0.1581 -0.1063  0.3402
  141DG     C12 3232   1.620   5.398   3.437 -0.3476 -0.5467 -0.2246
  141DG     H13 3233   2.096   5.264   3.504 -1.3383  0.0096 -0.9222
  141DG     H14 3234   2.107   5.085   3.482 -0.7538  2.5384  1.2381
  141DG     H15 3235   1.655   5.489   3.471  0.7469  0.1395 -2.2198
  141DG     H16 3236   1.633   5.400   3.324  0.9816 -2.7001 -0.2430
  141DG     C17 3237   1.908   5.177   3.496  0.2409 -0.6870 -0.0850
  141DG     C18 3238   1.705   5.277   3.488  0.6099  0.4541  0.1196
  141DG     O19 3239   1.834   5.274   3.426  0.2274  0.4867 -0.3319
  141DG     H20 3240   1.914   5.200   3.607  1.4527 -2.2624 -1.1606
  141DG     H21 3241   1.858   5.082   3.485  1.7279  3.3586  0.8945
  141DG     H22 3242   1.706   5.266   3.601  1.0750  0.7971 -1.5180
  141DG     H23 3243   1.649   5.185   3.458 -3.4520 -0.2014 -0.9000
  142DG      C1 3244   4.551   4.649   5.383  0.6260 -0.4060  1.0667
  142DG      C2 3245   3.950   4.722   5.736  0.2802  0.1559 -0.3966
  142DG      H3 3246   4.549   4.544   5.342 -0.9338 -0.9960 -0.2186
  142DG      H4 3247   4.656   4.679   5.397  3.6330 -0.3040  1.5870
  142DG      H5 3248   4.515   4.723   5.306 -1.0763  0.7579 -3.7700
  142DG      H6 3249   3.917   4.828   5.726  2.0790  0.0715  0.8632
  142DG      H7 3250   3.903   4.660   5.665  0.9334 -1.0787 -0.6611
  142DG      H8 3251   3.890   4.690   5.819  0.9257 -1.5199  0.2583
  142DG      O9 3252   4.481   4.655   5.504 -0.5266 -0.4415  0.0494
  142DG     O10 3253   4.084   4.694   5.755  0.2180 -0.1397 -0.0016
  142DG     C11 3254   4.546   4.581   5.611  0.0469 -0.4879 -0.3563
  142DG     C12 3255   4.104   4.569   5.819 -0.4167 -0.4639 -0.1293
  142DG     H13 3256   4.653   4.600   5.622  0.2360 -0.1188 -0.6197
  142DG     H14 3257   4.557   4.475   5.585 -0.3666  1.2729  3.9121
  142DG     H15 3258   4.082   4.498   5.742 -1.4777 -0.1042 -1.2203
  142DG     H16 3259   4.040   4.549   5.905 -0.0565 -0.2878  2.7285
  142DG     C17 3260   4.468   4.585   5.746 -0.0595  0.6542  1.2407
  142DG     C18 3261   4.258   4.557   5.844  0.3131  0.0069  0.0121
  142DG     O19 3262   4.329   4.597   5.731 -0.3788  0.0670  0.0835
  142DG     H20 3263   4.496   4.671   5.804 -0.7644  0.7365  0.4773
  142DG     H21 3264   4.494   4.494   5.803  1.6533 -0.4013 -0.0724
  142DG     H22 3265   4.293   4.624   5.920 -1.1626 -2.3834 -2.6124
  142DG     H23 3266   4.289   4.455   5.864 -2.6846  0.2503  3.6665
  143DG      C1 3267   4.082   0.600   2.157  0.5776  0.3419 -0.2982
  143DG      C2 3268   4.867   0.484   1.941 -0.1247 -0.3003 -0.3336
  143DG      H3 3269   4.004   0.668   2.177  0.5850  4.1922 -0.7751
  143DG      H4 3270   4.149   0.583   2.246 -0.0477 -1.1169  1.3808
  143DG      H5 3271   4.034   0.506   2.143  0.6737  4.0355 -0.8755
  143DG      H6 3272   4.930   0.519   1.866 -0.0005 -0.3283 -0.1550
  143DG      H7 3273   4.901   0.529   2.037  0.2513 -1.1466 -1.4724
  143DG      H8 3274   4.868   0.374   1.944  1.4711 -0.9047 -0.7281
  143DG      O9 3275   4.170   0.641   2.054 -0.0048 -0.3297 -0.3416
  143DG     O10 3276   4.742   0.541   1.913 -0.4826 -0.5649 -0.0850
  143DG     C11 3277   4.264   0.547   2.017  0.1632 -0.0740  0.0412
  143DG     C12 3278   4.676   0.504   1.793  0.2556 -1.1607  0.2524
  143DG     H13 3279   4.215   0.464   1.965  0.5005  2.8125 -3.2869
  143DG     H14 3280   4.313   0.503   2.097 -0.5987  1.8847 -0.8640
  143DG     H15 3281   4.654   0.397   1.792 -0.6248  1.9090  0.8921
  143DG     H16 3282   4.742   0.527   1.709 -0.8449 -0.1831 -2.3000
  143DG     C17 3283   4.361   0.621   1.918 -0.0032 -0.1517  0.1639
  143DG     C18 3284   4.550   0.586   1.784  0.6312  0.7928 -0.1388
  143DG     O19 3285   4.465   0.538   1.883  0.6677 -0.3209 -0.0092
  143DG     H20 3286   4.392   0.713   1.967  2.4188 -0.0090 -0.0406
  143DG     H21 3287   4.307   0.656   1.829 -0.3998  0.8416 -1.1372
  143DG     H22 3288   4.574   0.690   1.791 -0.3932  2.1474 -0.6773
  143DG     H23 3289   4.513   0.575   1.684  1.6416 -0.6725 -0.7950
  144DG      C1 3290   3.009   4.680   4.514  0.2964  0.4166 -0.3493
  144DG      C2 3291   2.385   4.845   4.247 -0.2325 -0.9771  0.6843
  144DG      H3 3292   3.041   4.751   4.437  0.9739 -1.0373 -1.3051
  144DG      H4 3293   2.990   4.590   4.463  1.6388  2.6586  1.5486
  144DG      H5 3294   3.096   4.660   4.579  2.0480 -0.1973  2.9858
  144DG      H6 3295   2.281   4.831   4.248  1.1606  1.5137 -1.8433
  144DG      H7 3296   2.408   4.947   4.223  2.8889 -0.0633 -0.2395
  144DG      H8 3297   2.435   4.791   4.163  0.8696  0.8388 -2.6228
  144DG      O9 3298   2.886   4.747   4.571 -0.2258 -0.3498 -0.0728
  144DG     O10 3299   2.456   4.809   4.364  0.7064 -0.1171  0.4216
  144DG     C11 3300   2.796   4.669   4.650  0.0988 -0.4812 -0.7483
  144DG     C12 3301   2.419   4.891   4.468 -0.2976  0.6507  0.2692
  144DG     H13 3302   2.856   4.622   4.724  0.1016 -2.0271  0.4323
  144DG     H14 3303   2.761   4.589   4.585 -1.3879 -1.1438 -0.0313
  144DG     H15 3304   2.314   4.897   4.480  0.9851  0.3986  2.4687
  144DG     H16 3305   2.453   4.994   4.455  1.2202 -1.6769  1.1990
  144DG     C17 3306   2.678   4.759   4.699 -0.1972 -0.6291  0.6175
  144DG     C18 3307   2.478   4.829   4.603 -0.0133 -0.1125  0.3810
  144DG     O19 3308   2.615   4.798   4.584  0.2623  0.5244  0.0680
  144DG     H20 3309   2.699   4.854   4.752 -0.8298 -1.2474 -0.5825
  144DG     H21 3310   2.618   4.685   4.757  0.2665  1.7554  0.2371
  144DG     H22 3311   2.469   4.895   4.687 -0.9846  0.6385 -0.8718
  144DG     H23 3312   2.428   4.736   4.629 -1.7368  0.1079 -1.1464
  145DG      C1 3313   4.689   4.559   2.278 -0.0702 -0.7458  0.3588
  145DG      C2 3314   4.057   4.407   2.579  0.0868 -0.4816  0.5202
  145DG      H3 3315   4.786   4.526   2.245 -0.1072 -0.2109 -1.9055
  145DG      H4 3316   4.688   4.574   2.379 -0.2070 -0.5129 -0.4480
  145DG      H5 3317   4.666   4.651   2.222 -2.8682 -0.2674  2.2772
  145DG      H6 3318   4.128   4.486   2.589 -1.9012  1.7950  2.2613
  145DG      H7 3319   3.955   4.449   2.562 -1.0004 -1.4834  0.9612
  145DG      H8 3320   4.060   4.361   2.682  1.5101 -1.8957  0.2618
  145DG      O9 3321   4.584   4.473   2.236  0.1766 -0.1913  0.4693
  145DG     O10 3322   4.110   4.333   2.473  0.0947  0.0234 -0.4067
  145DG     C11 3323   4.576   4.339   2.291  0.2301  0.8716  0.2301
  145DG     C12 3324   4.115   4.402   2.350  0.4541 -0.6986 -0.6266
  145DG     H13 3325   4.591   4.350   2.396 -0.2078  1.7599 -0.6051
  145DG     H14 3326   4.668   4.289   2.255 -0.0425 -0.5033 -1.0408
  145DG     H15 3327   4.140   4.509   2.346 -0.1681 -0.9664 -1.7188
  145DG     H16 3328   4.016   4.390   2.314  3.4540  0.3673  1.4713
  145DG     C17 3329   4.438   4.279   2.257 -0.1404 -1.1962  0.2058
  145DG     C18 3330   4.207   4.327   2.256  0.3727 -0.7420  0.0788
  145DG     O19 3331   4.336   4.369   2.295 -0.3673  0.1385  0.2158
  145DG     H20 3332   4.437   4.181   2.307 -1.8436  1.1889 -0.8502
  145DG     H21 3333   4.439   4.279   2.146  1.2350  0.0315  0.3730
  145DG     H22 3334   4.191   4.222   2.283  0.0306 -0.6940 -0.9714
  145DG     H23 3335   4.181   4.341   2.151  1.3048 -1.9843  0.1706
  146DG      C1 3336   1.989   0.598   2.452 -0.1359 -0.1821  0.3673
  146DG      C2 3337   2.590   0.557   2.700  0.0506 -0.2789  0.1481
  146DG      H3 3338   1.938   0.526   2.377 -0.7606  1.0511 -1.4244
  146DG      H4 3339   2.054   0.666   2.395  0.1438 -1.1050 -1.0452
  146DG      H5 3340   1.915   0.651   2.509  0.6512 -1.0535 -0.5734
  146DG      H6 3341   2.554   0.648   2.751  2.1762  1.8559 -0.0342
  146DG      H7 3342   2.680   0.521   2.754  1.3214  1.5235 -0.3432
  146DG      H8 3343   2.612   0.590   2.593  0.3451  0.6396 -3.9993
  146DG      O9 3344   2.069   0.519   2.529  0.1179  0.3505  0.5195
  146DG     O10 3345   2.479   0.461   2.685  0.4410  0.0124 -0.0111
  146DG     C11 3346   2.004   0.416   2.603 -0.2397 -0.2293  0.7308
  146DG     C12 3347   2.442   0.414   2.809  0.6130  0.5452 -0.6412
  146DG     H13 3348   1.946   0.350   2.538 -0.1130 -2.9632  0.0420
  146DG     H14 3349   1.946   0.466   2.680  0.3727 -1.9298  1.5787
  146DG     H15 3350   2.425   0.485   2.886  0.4867 -0.8319 -0.6316
  146DG     H16 3351   2.529   0.353   2.849  1.1419 -1.3684 -0.4188
  146DG     C17 3352   2.105   0.322   2.682 -0.2703 -0.6537 -0.1955
  146DG     C18 3353   2.318   0.323   2.784 -0.0261 -0.3019 -0.6888
  146DG     O19 3354   2.214   0.404   2.722  0.4251 -0.4403  0.3385
  146DG     H20 3355   2.150   0.247   2.612 -0.2965 -1.7207  0.1299
  146DG     H21 3356   2.063   0.280   2.772  0.0526 -0.8121 -2.4789
  146DG     H22 3357   2.353   0.240   2.726 -0.7148 -0.8475  0.6929
  146DG     H23 3358   2.280   0.286   2.883 -0.0157 -1.2837  0.6937
  147DG      C1 3359   4.694   1.022   0.739  0.0768 -0.0150 -0.8263
  147DG      C2 3360   4.556   0.817   0.076 -0.8248  0.0459  0.2823
  147DG      H3 3361   4.716   1.126   0.761  0.3237  2.3184  0.5517
  147DG      H4 3362   4.688   0.996   0.846 -2.7404  1.7941 -1.8849
  147DG      H5 3363   4.590   1.021   0.708  0.2142  2.3117 -1.8218
  147DG      H6 3364   4.556   0.740  -0.004 -1.0584  0.3195 -0.5164
  147DG      H7 3365   4.449   0.844   0.095 -0.2577  1.3355  0.6123
  147DG      H8 3366   4.601   0.909   0.036  0.0554 -3.6019  5.0502
  147DG      O9 3367   4.793   0.963   0.649 -0.1345 -0.2449 -0.3504
  147DG     O10 3368   4.626   0.762   0.189 -0.3422 -0.2584  0.3664
  147DG     C11 3369   4.762   0.826   0.628  0.6409 -0.0130 -0.1058
  147DG     C12 3370   4.765   0.756   0.173  0.2338  0.0650 -0.1978
  147DG     H13 3371   4.665   0.812   0.580 -0.4110 -1.8118 -3.0676
  147DG     H14 3372   4.764   0.764   0.723 -1.6842  0.5855  0.9611
  147DG     H15 3373   4.807   0.856   0.153 -0.0531  1.2625  1.4140
  147DG     H16 3374   4.796   0.695   0.089 -0.9628  0.8869  1.2098
  147DG     C17 3375   4.859   0.764   0.524  0.5036 -0.6972  0.4025
  147DG     C18 3376   4.839   0.705   0.299  0.0441 -1.1487 -0.1314
  147DG     O19 3377   4.820   0.809   0.392  0.0887 -0.1479 -0.2577
  147DG     H20 3378   4.841   0.650   0.529 -0.4479  0.4999  0.9836
  147DG     H21 3379   4.967   0.797   0.540  0.8040  0.3804 -0.0599
  147DG     H22 3380   4.790   0.608   0.319 -0.2077  0.1707  0.4047
  147DG     H23 3381   4.946   0.701   0.279 -1.4502  0.7082 -0.2133
  148DG      C1 3382   0.729   1.609   5.156 -0.5991  0.5059  0.3002
  148DG      C2 3383   0.931   2.188   4.913 -0.4346 -0.0453  0.0351
  148DG      H3 3384   0.665   1.516   5.160 -1.7630  0.8063  1.7901
  148DG      H4 3385   0.818   1.596   5.210  0.4703  0.8526  0.6112
  148DG      H5 3386   0.764   1.615   5.055  1.8217  0.4340 -3.1405
  148DG      H6 3387   0.888   2.288   4.898 -2.3640 -0.7959 -1.1785
  148DG      H7 3388   1.004   2.196   4.986 -1.9200 -1.0163  0.6559
  148DG      H8 3389   0.968   2.137   4.829 -2.2442 -0.1078  0.9610
  148DG      O9 3390   0.664   1.733   5.186 -0.5553 -0.4770  0.0880
  148DG     O10 3391   0.838   2.094   4.970 -0.0116 -0.8372 -0.1632
  148DG     C11 3392   0.537   1.746   5.118 -0.2491 -0.5190  0.4512
  148DG     C12 3393   0.714   2.110   4.909  0.2043  0.5211 -0.2240
  148DG     H13 3394   0.481   1.832   5.149  0.3366  0.6505 -0.6376
  148DG     H14 3395   0.476   1.654   5.126 -1.6705 -1.4561  1.2734
  148DG     H15 3396   0.725   2.106   4.804  2.1941  2.1503  1.4428
  148DG     H16 3397   0.661   2.205   4.930 -1.5051  1.3320  0.0388
  148DG     C17 3398   0.566   1.773   4.973  0.1755 -0.3733  0.0819
  148DG     C18 3399   0.611   2.010   4.965  0.2520  0.7927 -0.8473
  148DG     O19 3400   0.652   1.876   4.929  0.0542 -0.1593 -0.6849
  148DG     H20 3401   0.469   1.796   4.924  2.9144  0.3518 -0.9597
  148DG     H21 3402   0.598   1.687   4.912 -1.9299  0.1474 -2.1919
  148DG     H22 3403   0.593   2.007   5.076  0.3583 -0.4235  0.0153
  148DG     H23 3404   0.514   2.044   4.931 -0.6186  2.5785 -1.5264
  149DG      C1 3405   0.664   1.364   3.694 -0.2868  0.4651  0.1411
  149DG      C2 3406   0.245   0.667   3.765  0.2631 -0.7248 -0.6517
  149DG      H3 3407   0.653   1.389   3.587 -1.5580 -0.1040 -3.1578
  149DG      H4 3408   0.736   1.280   3.699  2.7076 -0.3747 -1.6068
  149DG      H5 3409   0.684   1.452   3.754  1.7810 -1.7148  0.9851
  149DG      H6 3410   0.168   0.651   3.697  0.0012  0.0223 -0.2867
  149DG      H7 3411   0.336   0.647   3.712  0.8375 -0.3030 -0.9207
  149DG      H8 3412   0.242   0.590   3.838  0.4752  0.8304 -2.3552
  149DG      O9 3413   0.544   1.299   3.731 -0.6929 -0.1353 -0.3131
  149DG     O10 3414   0.247   0.798   3.816  0.2281 -0.0101  0.3633
  149DG     C11 3415   0.535   1.259   3.871 -0.5757 -0.4159  1.2421
  149DG     C12 3416   0.224   0.899   3.721  0.3510 -0.6256  0.0268
  149DG     H13 3417   0.530   1.347   3.937  1.1079  2.7948 -0.3406
  149DG     H14 3418   0.618   1.199   3.907  1.6943 -2.3290 -0.5782
  149DG     H15 3419   0.126   0.882   3.684  1.4007 -1.7604 -0.1544
  149DG     H16 3420   0.294   0.885   3.642  0.1849  1.6337 -0.8814
  149DG     C17 3421   0.395   1.183   3.898  0.1005  0.0782 -1.1717
  149DG     C18 3422   0.240   1.045   3.785  0.1439 -0.2876 -0.2356
  149DG     O19 3423   0.382   1.069   3.814  0.3307 -0.7765 -0.5153
  149DG     H20 3424   0.315   1.250   3.872  1.2888 -0.7312 -2.4909
  149DG     H21 3425   0.388   1.153   4.006 -1.1193  1.1767  1.6207
  149DG     H22 3426   0.190   1.113   3.718 -0.8086 -0.4957  0.1925
  149DG     H23 3427   0.183   1.051   3.879  0.0226  1.3156  2.5988
  150DG      C1 3428   3.592   3.936   1.529  0.2082 -0.7088 -0.1955
  150DG      C2 3429   4.104   3.848   0.983 -0.0584  1.0972  0.3702
  150DG      H3 3430   3.512   3.993   1.471 -1.7824  1.1187 -1.4214
  150DG      H4 3431   3.640   4.013   1.591  1.3573 -0.8779  0.0349
  150DG      H5 3432   3.542   3.872   1.600 -1.3382 -3.6207 -1.6733
  150DG      H6 3433   4.168   3.939   0.993  5.4945  0.2150 -0.3373
  150DG      H7 3434   4.163   3.772   0.942  1.3224  0.2922  1.7423
  150DG      H8 3435   4.017   3.856   0.915 -2.9724  0.3966 -0.9500
  150DG      O9 3436   3.679   3.851   1.462  0.5844  0.0574 -0.4686
  150DG     O10 3437   4.046   3.805   1.106 -0.2937 -0.1019  0.3961
  150DG     C11 3438   3.779   3.793   1.546  0.3300 -0.3976  0.2697
  150DG     C12 3439   4.134   3.745   1.201 -0.3473 -0.3443 -0.2901
  150DG     H13 3440   3.732   3.723   1.611 -0.2568  2.2876 -1.8030
  150DG     H14 3441   3.839   3.873   1.584  0.6093 -0.6365 -0.3676
  150DG     H15 3442   4.178   3.824   1.258 -2.1511 -3.4603  0.3957
  150DG     H16 3443   4.202   3.666   1.173  1.5461  1.1051 -2.5502
  150DG     C17 3444   3.872   3.702   1.461 -0.4489 -0.4764  0.3590
  150DG     C18 3445   4.035   3.683   1.294  0.2356 -0.1039  0.2463
  150DG     O19 3446   3.955   3.775   1.375 -0.0848  0.1110  0.0130
  150DG     H20 3447   3.820   3.638   1.394  1.6804  0.9767 -2.7283
  150DG     H21 3448   3.930   3.643   1.526 -2.0653  0.1771  0.9841
  150DG     H22 3449   3.967   3.629   1.228 -0.0093  0.6263 -1.4356
  150DG     H23 3450   4.084   3.606   1.353  0.8272  0.8129 -1.2835
  151DG      C1 3451   4.582   5.144   1.832 -0.6003 -0.0521  0.0901
  151DG      C2 3452   4.188   5.445   1.354 -0.5992 -0.5483  0.8163
  151DG      H3 3453   4.539   5.140   1.930  0.7963 -0.9501  1.4587
  151DG      H4 3454   4.693   5.130   1.845  0.8973 -1.0699  0.5029
  151DG      H5 3455   4.537   5.059   1.779 -0.7605  2.8097  1.9784
  151DG      H6 3456   4.097   5.383   1.342 -0.6411 -2.6679 -1.2969
  151DG      H7 3457   4.179   5.548   1.318 -0.4419 -0.9944 -1.0172
  151DG      H8 3458   4.256   5.410   1.278 -1.3324 -0.2156  2.3209
  151DG      O9 3459   4.547   5.264   1.764  0.0163  0.0967  0.1043
  151DG     O10 3460   4.240   5.434   1.481 -0.3067  0.6103  0.5321
  151DG     C11 3461   4.557   5.381   1.846  0.2618  0.2486  0.0146
  151DG     C12 3462   4.189   5.537   1.575 -0.1483  0.7853 -0.2146
  151DG     H13 3463   4.667   5.394   1.859 -0.4367  0.3743 -0.2977
  151DG     H14 3464   4.508   5.360   1.940  0.3104 -0.8195  0.6634
  151DG     H15 3465   4.118   5.495   1.647  1.3423 -1.1310 -0.3263
  151DG     H16 3466   4.146   5.622   1.529  0.5441  0.9452  0.7847
  151DG     C17 3467   4.494   5.509   1.782  0.3929  0.1176  0.1920
  151DG     C18 3468   4.307   5.594   1.659  0.1961  0.4276 -0.5429
  151DG     O19 3469   4.365   5.488   1.718  0.6787  0.1773 -0.0044
  151DG     H20 3470   4.562   5.542   1.704  4.5209  1.4464 -1.4888
  151DG     H21 3471   4.490   5.589   1.857  1.2942  2.0201  1.4387
  151DG     H22 3472   4.379   5.650   1.594 -0.9221 -1.3028 -3.2287
  151DG     H23 3473   4.259   5.670   1.727  0.8458  0.0191 -2.4515
  152DG      C1 3474   0.800   0.957   1.301 -0.2989  0.1258 -0.0105
  152DG      C2 3475   0.217   0.744   0.868 -0.6247 -0.2242  0.0024
  152DG      H3 3476   0.761   1.038   1.366  1.7486  0.2966  0.2917
  152DG      H4 3477   0.907   0.956   1.308  0.0045  2.4063  1.8441
  152DG      H5 3478   0.769   0.873   1.357  0.4867  0.2299 -1.7743
  152DG      H6 3479   0.187   0.641   0.843 -1.4405  0.1217 -1.3407
  152DG      H7 3480   0.167   0.784   0.962 -3.2059  0.4377 -0.0317
  152DG      H8 3481   0.171   0.812   0.793  1.8630  1.7493  0.5002
  152DG      O9 3482   0.743   0.961   1.172 -0.9543 -0.3180 -0.2884
  152DG     O10 3483   0.357   0.747   0.845 -0.0944  0.2926 -0.6097
  152DG     C11 3484   0.801   0.855   1.089 -0.1837 -0.1774 -0.6584
  152DG     C12 3485   0.406   0.880   0.830  0.3559 -0.4660 -0.0608
  152DG     H13 3486   0.755   0.756   1.119  0.1833 -1.8586  1.0271
  152DG     H14 3487   0.908   0.837   1.085 -1.8667 -2.2978  0.2550
  152DG     H15 3488   0.369   0.950   0.905  0.3697 -1.1151  0.5337
  152DG     H16 3489   0.352   0.932   0.747 -1.5356  1.9992 -1.0974
  152DG     C17 3490   0.753   0.883   0.948  0.9334  0.4722 -0.2054
  152DG     C18 3491   0.562   0.881   0.818  0.9619 -0.0780  0.5080
  152DG     O19 3492   0.614   0.862   0.944  0.2168 -0.2153 -0.1602
  152DG     H20 3493   0.794   0.804   0.882 -0.7725  0.9193  0.8191
  152DG     H21 3494   0.777   0.984   0.906 -0.5318  1.4660  0.7717
  152DG     H22 3495   0.582   0.816   0.738 -1.1518  0.6205 -0.0628
  152DG     H23 3496   0.595   0.982   0.783 -1.3714  1.1911  0.5677
  153DG      C1 3497   1.409   1.440   4.831 -0.0894 -0.8122  0.4407
  153DG      C2 3498   1.095   2.021   5.223 -0.4104 -0.3555  0.2555
  153DG      H3 3499   1.472   1.401   4.914 -1.6683 -2.0956  0.3872
  153DG      H4 3500   1.465   1.484   4.749 -0.3852  1.8051  1.6081
  153DG      H5 3501   1.364   1.346   4.787  1.7256 -2.0692 -1.2289
  153DG      H6 3502   1.173   2.050   5.147 -1.3649 -1.1394 -2.1846
  153DG      H7 3503   0.994   2.068   5.202 -2.2706  1.2357 -3.8796
  153DG      H8 3504   1.121   2.066   5.320 -0.5988  1.1531 -2.1131
  153DG      O9 3505   1.327   1.552   4.866  0.4583 -0.0431 -0.8905
  153DG     O10 3506   1.070   1.882   5.223  0.3527 -0.1278 -0.4633
  153DG     C11 3507   1.399   1.653   4.920  0.0581 -0.2721  0.4963
  153DG     C12 3508   0.994   1.846   5.113 -0.0037  0.2532 -0.2084
  153DG     H13 3509   1.484   1.678   4.844  0.9482  2.3425  0.6709
  153DG     H14 3510   1.442   1.626   5.020 -1.3298  0.9829 -0.7605
  153DG     H15 3511   0.907   1.908   5.093  2.4727 -1.2216  0.4561
  153DG     H16 3512   0.950   1.751   5.138 -1.8528  0.3454 -1.0915
  153DG     C17 3513   1.294   1.767   4.935  0.4614  0.2653  0.6323
  153DG     C18 3514   1.077   1.822   4.993  0.4181 -0.5566  0.0240
  153DG     O19 3515   1.175   1.723   5.006 -0.2906 -0.2579  0.2901
  153DG     H20 3516   1.267   1.786   4.830 -1.7571  3.2626 -0.0546
  153DG     H21 3517   1.329   1.859   4.982 -0.9684 -0.1160 -0.3459
  153DG     H22 3518   1.016   1.782   4.916 -0.9171 -2.0001  1.5286
  153DG     H23 3519   1.103   1.923   4.965 -1.4341  0.7157 -0.0458
  154DG      C1 3520   5.169   3.657   2.112 -0.0969 -0.4395 -0.7847
  154DG      C2 3521   4.878   3.519   2.785 -0.2427  0.6657  0.1783
  154DG      H3 3522   5.075   3.699   2.143  0.4214 -0.7873  1.0750
  154DG      H4 3523   5.147   3.578   2.043  2.1206 -1.3896  0.6438
  154DG      H5 3524   5.220   3.742   2.068 -0.1777 -1.3082  0.9215
  154DG      H6 3525   4.864   3.424   2.835 -1.5345 -1.7972  0.9603
  154DG      H7 3526   4.845   3.603   2.841 -0.1010 -1.0933  2.7590
  154DG      H8 3527   4.817   3.519   2.693  0.4161  1.5755  2.0788
  154DG      O9 3528   5.242   3.607   2.220 -0.6454  0.4484  0.1135
  154DG     O10 3529   5.014   3.532   2.752 -0.0673  0.3149  0.5089
  154DG     C11 3530   5.248   3.697   2.329  0.1505 -0.0176  0.4094
  154DG     C12 3531   5.066   3.413   2.682 -0.4255 -0.6335 -1.1234
  154DG     H13 3532   5.153   3.743   2.355  0.4693  1.7693  0.2195
  154DG     H14 3533   5.328   3.761   2.307 -1.7908  0.9398 -0.2127
  154DG     H15 3534   5.002   3.392   2.594  0.1492  1.7463  0.2089
  154DG     H16 3535   5.066   3.327   2.747  0.9541  1.4851  0.8293
  154DG     C17 3536   5.283   3.625   2.465  0.2112 -0.2786  0.7097
  154DG     C18 3537   5.203   3.444   2.613 -0.0130 -0.7881 -0.0102
  154DG     O19 3538   5.183   3.530   2.495 -0.2980  0.1829  0.4109
  154DG     H20 3539   5.306   3.701   2.540  0.0693  1.7019 -1.6175
  154DG     H21 3540   5.379   3.588   2.454 -1.4326 -0.3311  1.2412
  154DG     H22 3541   5.272   3.498   2.679 -0.4753  1.0425 -1.8251
  154DG     H23 3542   5.240   3.359   2.562 -3.1609  0.3515 -2.1364
  155DG      C1 3543   0.852   5.164   1.192  0.3879  0.1133  0.0897
  155DG      C2 3544   0.890   5.488   0.735  0.1731  0.1520  0.3406
  155DG      H3 3545   0.803   5.071   1.216  2.1311 -2.6758  0.3530
  155DG      H4 3546   0.801   5.196   1.102  1.5847 -0.6666 -1.6762
  155DG      H5 3547   0.841   5.240   1.270  1.1310  2.1302 -1.4589
  155DG      H6 3548   0.804   5.428   0.773 -1.0416 -1.5147  0.1416
  155DG      H7 3549   0.892   5.581   0.791 -1.8439 -1.0318  2.7806
  155DG      H8 3550   0.870   5.515   0.629 -0.4269  0.1219 -3.4590
  155DG      O9 3551   0.987   5.157   1.149 -0.3008  0.1894  0.2743
  155DG     O10 3552   1.021   5.436   0.757 -0.3285 -0.2882  0.2586
  155DG     C11 3553   1.037   5.046   1.070 -0.4735  0.2029  0.8438
  155DG     C12 3554   1.057   5.317   0.685 -0.5564 -0.3017  0.1796
  155DG     H13 3555   1.010   4.953   1.117  1.6490 -1.7868 -1.7767
  155DG     H14 3556   1.142   5.055   1.071  2.1824 -1.5145 -0.9402
  155DG     H15 3557   1.166   5.306   0.691  1.3027 -1.0875  2.0361
  155DG     H16 3558   1.033   5.327   0.579  1.5418  0.8115 -0.8151
  155DG     C17 3559   0.976   5.057   0.933  0.2646 -0.3489  0.7617
  155DG     C18 3560   0.992   5.194   0.739 -0.3029  0.2485 -0.3567
  155DG     O19 3561   1.028   5.170   0.874 -0.2011  0.3455  0.6763
  155DG     H20 3562   0.871   5.080   0.931  2.0448 -0.7000 -2.3412
  155DG     H21 3563   0.968   4.961   0.888  2.0633 -0.1328  3.0395
  155DG     H22 3564   0.886   5.211   0.736  2.5768  0.9235 -1.1828
  155DG     H23 3565   1.020   5.103   0.688  0.4316 -2.9031  3.7184
  156DG      C1 3566   4.744   3.507   2.384  0.6229 -0.4073 -0.0005
  156DG      C2 3567   4.804   3.192   1.714  0.8482 -0.3911 -0.0246
  156DG      H3 3568   4.650   3.496   2.441 -0.0345 -2.4884  2.0178
  156DG      H4 3569   4.765   3.605   2.332 -1.6934  1.4753 -1.1125
  156DG      H5 3570   4.823   3.482   2.450 -1.5902 -2.1177  1.9067
  156DG      H6 3571   4.891   3.182   1.781  1.0086 -1.7238 -0.2795
  156DG      H7 3572   4.769   3.092   1.678 -0.5900 -1.3812 -0.9240
  156DG      H8 3573   4.847   3.233   1.629 -1.7864 -0.8194 -0.4142
  156DG      O9 3574   4.739   3.407   2.284 -0.2244 -0.0570 -0.6914
  156DG     O10 3575   4.703   3.267   1.784  0.5946 -0.1768  0.1122
  156DG     C11 3576   4.691   3.281   2.322 -0.5747  0.2678 -0.6941
  156DG     C12 3577   4.607   3.191   1.856  0.2176  0.4091 -0.2641
  156DG     H13 3578   4.595   3.296   2.366  3.4082  1.7881 -0.9428
  156DG     H14 3579   4.752   3.242   2.408 -1.4316  2.2442 -0.6709
  156DG     H15 3580   4.572   3.108   1.795  0.8635 -0.9158  3.3323
  156DG     H16 3581   4.508   3.244   1.871 -4.2700  1.2355 -0.4783
  156DG     C17 3582   4.695   3.185   2.207  0.0180  0.5505 -0.4801
  156DG     C18 3583   4.670   3.130   1.981 -0.1533  0.1620  0.0332
  156DG     O19 3584   4.671   3.235   2.081 -0.5621 -0.3860 -0.0669
  156DG     H20 3585   4.612   3.117   2.234 -0.8059  0.3374 -0.2878
  156DG     H21 3586   4.798   3.148   2.212 -0.0680 -0.6993  0.0257
  156DG     H22 3587   4.614   3.043   2.027  0.0706  0.0943  3.1916
  156DG     H23 3588   4.773   3.093   1.965 -0.6514 -5.2045 -1.1428
  157DG      C1 3589   1.324   0.904   4.358 -0.1983  0.3842 -1.4140
  157DG      C2 3590   0.628   0.324   4.103 -0.0118 -0.0387 -0.2030
  157DG      H3 3591   1.420   0.956   4.344 -2.2104  2.7019  2.7770
  157DG      H4 3592   1.329   0.831   4.434 -1.1695  2.8885  2.5481
  157DG      H5 3593   1.252   0.982   4.384  0.0976  2.7501 -0.3721
  157DG      H6 3594   0.578   0.288   4.012 -1.5885  1.0096 -1.1016
  157DG      H7 3595   0.632   0.240   4.174  0.0729 -3.3773  1.1406
  157DG      H8 3596   0.563   0.402   4.154  0.2473  1.7935 -1.3885
  157DG      O9 3597   1.272   0.842   4.245  0.0310 -0.3862  0.1246
  157DG     O10 3598   0.760   0.376   4.077 -0.3904  0.2222  0.5150
  157DG     C11 3599   1.147   0.770   4.264 -0.2850 -0.1266 -0.1093
  157DG     C12 3600   0.802   0.482   4.158  0.5879  0.4901 -0.4930
  157DG     H13 3601   1.066   0.837   4.283 -1.1898  1.0814 -2.7103
  157DG     H14 3602   1.158   0.704   4.355 -2.9578 -1.4935  1.1942
  157DG     H15 3603   0.810   0.458   4.267 -1.8084  0.2279  0.4990
  157DG     H16 3604   0.734   0.572   4.156 -0.5918  1.8413  0.4472
  157DG     C17 3605   1.111   0.681   4.154  0.2526 -0.0071  0.2281
  157DG     C18 3606   0.931   0.536   4.098  0.2637 -0.5079  0.2175
  157DG     O19 3607   0.984   0.620   4.191  0.1393  0.3519 -0.0982
  157DG     H20 3608   1.192   0.614   4.142 -0.4233  0.2226  1.4710
  157DG     H21 3609   1.102   0.720   4.050 -0.1900  0.4402 -0.2598
  157DG     H22 3610   1.001   0.459   4.075 -2.4676  0.3505 -0.2629
  157DG     H23 3611   0.899   0.597   4.014 -0.6915  4.2265  1.9245
  158DG      C1 3612   0.178   4.260   2.633 -0.3698 -0.1740 -0.0516
  158DG      C2 3613  -0.318   3.880   2.738  0.3402 -0.2027 -0.0776
  158DG      H3 3614   0.195   4.188   2.551 -3.5101 -2.5547  0.4994
  158DG      H4 3615   0.259   4.265   2.703 -1.2880  3.4514 -0.9559
  158DG      H5 3616   0.196   4.349   2.574  0.4651 -3.4694 -1.0756
  158DG      H6 3617  -0.369   3.910   2.645 -2.8847  0.9170 -0.3296
  158DG      H7 3618  -0.244   3.804   2.721 -2.5554 -0.2101 -1.1058
  158DG      H8 3619  -0.392   3.839   2.804  1.4560  0.9111  1.4453
  158DG      O9 3620   0.060   4.237   2.704 -0.1062  0.4816  0.0773
  158DG     O10 3621  -0.241   3.980   2.806 -0.0423  0.1666 -0.1446
  158DG     C11 3622   0.042   4.330   2.806  0.0165  0.3346 -0.4781
  158DG     C12 3623  -0.284   4.011   2.941 -0.3679  0.2972 -0.1258
  158DG     H13 3624   0.044   4.425   2.749 -0.1681 -0.0941  0.3956
  158DG     H14 3625   0.123   4.311   2.886 -0.2967 -0.7745 -0.7481
  158DG     H15 3626  -0.252   3.928   2.999 -0.2511  1.0562  1.3321
  158DG     H16 3627  -0.391   4.003   2.957  1.6662 -0.1801 -1.1488
  158DG     C17 3628  -0.100   4.311   2.856 -0.1826 -0.2374 -0.6213
  158DG     C18 3629  -0.228   4.160   2.972 -0.0009  0.0289 -0.0955
  158DG     O19 3630  -0.109   4.180   2.891 -0.5038 -0.3494  0.3908
  158DG     H20 3631  -0.174   4.342   2.793  0.4066  0.8543  1.0182
  158DG     H21 3632  -0.100   4.372   2.947 -0.1722  0.9315  0.1249
  158DG     H22 3633  -0.304   4.222   2.944  3.3502  0.6124 -3.5101
  158DG     H23 3634  -0.195   4.187   3.075  1.5654  0.0998 -1.9446
  159DG      C1 3635   4.961   3.544   3.424  0.2129  0.3847  0.0588
  159DG      C2 3636   4.420   3.363   3.709 -0.4139  0.4433 -0.6245
  159DG      H3 3637   4.995   3.569   3.525  1.3734  0.0368  0.9983
  159DG      H4 3638   5.032   3.592   3.353  0.4334  1.4576  1.2362
  159DG      H5 3639   4.970   3.433   3.432  0.2368 -3.5495  1.7726
  159DG      H6 3640   4.456   3.255   3.708  0.5740 -0.8592 -1.0291
  159DG      H7 3641   4.445   3.416   3.794 -0.2934  1.9446 -1.7926
  159DG      H8 3642   4.312   3.366   3.697  0.5910  2.0635 -0.4404
  159DG      O9 3643   4.825   3.580   3.397  0.4544 -0.8750  0.2761
  159DG     O10 3644   4.468   3.429   3.591  0.1478 -0.1350  0.1336
  159DG     C11 3645   4.799   3.568   3.259  0.4151 -0.3418 -0.2902
  159DG     C12 3646   4.407   3.397   3.466 -0.3258  0.8581 -0.3865
  159DG     H13 3647   4.818   3.473   3.219 -2.0465  2.1040  5.0050
  159DG     H14 3648   4.840   3.645   3.189 -0.7937 -0.4426  2.0917
  159DG     H15 3649   4.298   3.387   3.475  0.5996  0.0249  0.1855
  159DG     H16 3650   4.434   3.294   3.444  1.9751 -0.5361 -2.1538
  159DG     C17 3651   4.643   3.585   3.258 -0.1723 -0.4087 -0.6267
  159DG     C18 3652   4.454   3.489   3.354  0.5412 -0.4235  0.3761
  159DG     O19 3653   4.592   3.506   3.360 -0.2195 -0.0291 -0.5717
  159DG     H20 3654   4.605   3.557   3.162  2.7387  0.4997 -0.4631
  159DG     H21 3655   4.620   3.688   3.269  0.6488  0.1832 -2.5879
  159DG     H22 3656   4.428   3.437   3.260 -1.6517  0.7955  0.4672
  159DG     H23 3657   4.417   3.592   3.354  1.2937 -4.0393 -0.0710
  160DG      C1 3658   5.488   4.103   3.646  0.5114 -0.1571  0.4422
  160DG      C2 3659   6.129   4.119   3.694 -0.2243  0.2242  0.4498
  160DG      H3 3660   5.502   4.018   3.710  1.1417  0.4528  0.2826
  160DG      H4 3661   5.431   4.073   3.556  0.3126 -0.8452  0.6485
  160DG      H5 3662   5.430   4.181   3.697 -1.3269  1.6503 -2.9374
  160DG      H6 3663   6.236   4.149   3.672  1.6956  0.2558 -2.3115
  160DG      H7 3664   6.102   4.160   3.788 -0.2096  2.5346  0.3186
  160DG      H8 3665   6.125   4.012   3.705 -0.5782  0.0565 -0.5675
  160DG      O9 3666   5.608   4.161   3.598 -0.5092 -0.0874  0.5457
  160DG     O10 3667   6.047   4.167   3.584 -0.1432 -0.0415 -0.1064
  160DG     C11 3668   5.591   4.276   3.529 -0.2792  0.0762 -0.0489
  160DG     C12 3669   6.062   4.309   3.565 -0.3292 -0.2360  0.1665
  160DG     H13 3670   5.572   4.351   3.610  0.0691 -2.1846  1.2882
  160DG     H14 3671   5.507   4.277   3.458 -0.1295  1.0760 -2.7305
  160DG     H15 3672   6.164   4.329   3.529  0.7635 -1.8932  0.1452
  160DG     H16 3673   6.067   4.366   3.648  1.8471  0.7230 -1.8229
  160DG     C17 3674   5.715   4.311   3.455 -0.1023  0.0726  0.5069
  160DG     C18 3675   5.945   4.353   3.478 -1.4881 -0.5993 -0.2596
  160DG     O19 3676   5.833   4.297   3.535  0.1285  0.6693  0.0090
  160DG     H20 3677   5.705   4.408   3.409  1.5101 -0.9070  0.0363
  160DG     H21 3678   5.713   4.236   3.371 -2.9785  0.5990  1.5821
  160DG     H22 3679   5.951   4.466   3.477 -0.3745  0.7461  2.1103
  160DG     H23 3680   5.961   4.320   3.374  1.7339  1.7516 -1.7431
  161DG      C1 3681   2.009   2.904   1.780  0.6412  0.5669  0.2891
  161DG      C2 3682   2.193   2.787   1.119  0.2261 -0.8083 -0.1657
  161DG      H3 3683   1.935   2.822   1.780 -0.6580 -0.1777 -3.3610
  161DG      H4 3684   1.977   2.980   1.853 -2.0354  2.1308  1.1480
  161DG      H5 3685   2.097   2.853   1.814 -0.7739  0.5092 -1.2822
  161DG      H6 3686   2.276   2.720   1.148 -0.3545 -0.2210  0.2013
  161DG      H7 3687   2.097   2.740   1.118 -0.1210  0.3229  0.9707
  161DG      H8 3688   2.206   2.831   1.021  3.0110  0.9009 -1.2730
  161DG      O9 3689   2.014   2.964   1.650  0.5002 -0.1397  0.0178
  161DG     O10 3690   2.187   2.900   1.211 -0.0870  0.2125  0.0033
  161DG     C11 3691   2.103   3.062   1.639 -1.4463 -1.1063 -0.4876
  161DG     C12 3692   2.081   2.991   1.176  0.4606  0.2235  0.5218
  161DG     H13 3693   2.201   3.020   1.635 -1.3764  0.1350 -2.9488
  161DG     H14 3694   2.108   3.119   1.723  0.7837 -1.4899 -0.4004
  161DG     H15 3695   1.980   2.946   1.168 -1.7316  2.9992  2.7042
  161DG     H16 3696   2.098   3.043   1.078 -0.5329 -1.9767 -2.0112
  161DG     C17 3697   2.066   3.146   1.512  0.4434 -0.7058 -0.8691
  161DG     C18 3698   2.084   3.108   1.272  0.2279 -0.6015  0.3344
  161DG     O19 3699   2.059   3.055   1.396  0.5301 -0.5596  0.1527
  161DG     H20 3700   2.138   3.225   1.497 -1.5496  0.0524 -0.7290
  161DG     H21 3701   1.968   3.189   1.523  2.3315 -0.9698  4.3995
  161DG     H22 3702   2.179   3.163   1.277 -1.8074  1.4423  3.9150
  161DG     H23 3703   2.017   3.187   1.240 -0.3379  2.0228 -2.7429
  162DG      C1 3704   0.944   5.118   1.549 -0.7601  0.4292  0.2103
  162DG      C2 3705   0.829   5.002   2.003 -0.5721  0.0175 -0.2210
  162DG      H3 3706   0.903   5.076   1.638 -0.9390  0.5118 -0.6395
  162DG      H4 3707   1.044   5.121   1.566 -1.4222  2.4656  2.1304
  162DG      H5 3708   0.916   5.053   1.473  1.9048  1.7941  2.2348
  162DG      H6 3709   0.765   4.996   2.091 -1.4240  2.2226 -0.0928
  162DG      H7 3710   0.848   4.898   1.967  1.5587  0.8240 -0.3838
  162DG      H8 3711   0.922   5.036   2.046 -0.9828 -0.8592 -0.0890
  162DG      O9 3712   0.906   5.245   1.507  0.0283  0.0119  1.0020
  162DG     O10 3713   0.750   5.085   1.922 -0.0475 -0.5838  0.5448
  162DG     C11 3714   0.936   5.349   1.599 -0.7474 -0.1943 -0.1954
  162DG     C12 3715   0.754   5.223   1.975  0.1097  0.0472  0.1325
  162DG     H13 3716   0.899   5.438   1.558 -0.3312 -2.6948 -0.1995
  162DG     H14 3717   1.043   5.369   1.590 -0.0593 -2.0922 -1.2264
  162DG     H15 3718   0.856   5.251   2.004 -1.2019  1.5828 -0.2307
  162DG     H16 3719   0.702   5.220   2.068 -3.2273 -1.8956 -0.6909
  162DG     C17 3720   0.891   5.335   1.748 -0.3801 -0.0770  0.3017
  162DG     C18 3721   0.698   5.335   1.890  0.0484  0.5229  0.2507
  162DG     O19 3722   0.752   5.334   1.762 -0.7214 -0.0502 -0.0945
  162DG     H20 3723   0.925   5.411   1.819  1.4656  3.3555 -1.7969
  162DG     H21 3724   0.944   5.245   1.795 -0.0650  0.1996  0.1434
  162DG     H22 3725   0.590   5.321   1.871 -3.1839  1.3397 -1.9338
  162DG     H23 3726   0.720   5.427   1.938 -1.2519  0.0118 -0.9143
  163DG      C1 3727   2.390   3.937   1.228 -0.1941 -0.1931  0.9027
  163DG      C2 3728   2.083   4.242   0.660 -0.8920  0.0439  0.1880
  163DG      H3 3729   2.499   3.960   1.227  2.7929 -3.8080  1.9912
  163DG      H4 3730   2.385   3.839   1.280  1.5986 -2.3563  0.2739
  163DG      H5 3731   2.335   4.008   1.283 -1.7788  0.7266 -1.5605
  163DG      H6 3732   2.022   4.313   0.713  3.0453  2.4494  1.5244
  163DG      H7 3733   2.181   4.290   0.656 -3.1870 -1.4151 -0.2546
  163DG      H8 3734   2.034   4.232   0.566 -1.1628 -0.5483 -0.8060
  163DG      O9 3735   2.322   3.923   1.103  0.2180 -0.3997  0.5167
  163DG     O10 3736   2.106   4.115   0.722 -1.2594  0.2214  0.0673
  163DG     C11 3737   2.387   3.824   1.028  0.0900 -0.1771 -0.0782
  163DG     C12 3738   2.194   4.040   0.642  0.8315 -0.0120 -0.2626
  163DG     H13 3739   2.386   3.732   1.088  3.1597  2.6217 -2.1932
  163DG     H14 3740   2.485   3.846   1.005 -0.2095 -4.0761 -1.0487
  163DG     H15 3741   2.286   4.092   0.616 -0.1540  0.2452 -0.3056
  163DG     H16 3742   2.146   4.013   0.548  1.7145 -0.1636  0.0375
  163DG     C17 3743   2.307   3.798   0.901 -0.0084  0.5648  0.4978
  163DG     C18 3744   2.221   3.899   0.707  0.3436 -0.1872  0.0701
  163DG     O19 3745   2.283   3.920   0.830  0.0731 -0.4598 -0.0890
  163DG     H20 3746   2.219   3.749   0.927 -0.2566  2.8593  2.0174
  163DG     H21 3747   2.367   3.731   0.838 -0.2822 -0.4128 -0.3402
  163DG     H22 3748   2.124   3.851   0.720  1.6942  1.0344 -0.7858
  163DG     H23 3749   2.284   3.845   0.633  0.9637  1.7681 -1.1319
  164DG      C1 3750   5.201   4.048   1.073  0.3110  0.2057 -0.1200
  164DG      C2 3751   5.513   4.418   1.782 -0.2668  0.1165  0.3801
  164DG      H3 3752   5.105   4.012   1.110 -0.9701 -0.5130  0.7977
  164DG      H4 3753   5.281   3.982   1.097 -0.6170  1.8002 -0.8915
  164DG      H5 3754   5.195   4.063   0.970  0.3725  0.8841 -0.0096
  164DG      H6 3755   5.507   4.523   1.789  1.9374  1.4289 -0.7734
  164DG      H7 3756   5.426   4.373   1.835  4.3554 -4.1585 -1.4173
  164DG      H8 3757   5.609   4.390   1.817  0.0957 -0.5143 -3.7822
  164DG      O9 3758   5.214   4.176   1.127 -0.0466 -0.1561  0.1286
  164DG     O10 3759   5.490   4.393   1.641 -0.6618  0.2551  0.1567
  164DG     C11 3760   5.244   4.176   1.258 -0.2616  0.6562  0.9118
  164DG     C12 3761   5.497   4.251   1.617 -0.3314 -0.1219  0.1922
  164DG     H13 3762   5.294   4.082   1.291  2.6016 -0.0310 -0.8006
  164DG     H14 3763   5.160   4.178   1.318  0.9478 -0.3836  0.6720
  164DG     H15 3764   5.414   4.213   1.678 -1.0262  2.6252  1.0558
  164DG     H16 3765   5.589   4.207   1.669  0.4022 -2.2586 -0.4272
  164DG     C17 3766   5.339   4.293   1.287 -0.3698 -0.7019  0.3829
  164DG     C18 3767   5.483   4.216   1.471  0.0594  0.3293  0.2781
  164DG     O19 3768   5.373   4.297   1.422 -0.2682  0.6654  0.3217
  164DG     H20 3769   5.283   4.383   1.263  0.6182  1.0542 -3.8774
  164DG     H21 3770   5.431   4.285   1.229 -0.5840 -4.0457  3.8735
  164DG     H22 3771   5.579   4.245   1.422 -1.6668 -4.3712 -1.0005
  164DG     H23 3772   5.472   4.103   1.456  4.2024  0.2744  1.3819
  165DG      C1 3773   0.311   2.451   3.652 -0.4440 -0.1526  0.4981
  165DG      C2 3774   0.319   2.966   3.508  0.0175 -1.0583 -0.0476
  165DG      H3 3775   0.273   2.548   3.681 -0.2803  0.7011 -1.1380
  165DG      H4 3776   0.260   2.375   3.708 -0.6638 -1.5993  1.8557
  165DG      H5 3777   0.280   2.425   3.559 -1.3809  0.4535  3.5645
  165DG      H6 3778   0.243   3.048   3.519 -1.4714  1.9833 -2.0634
  165DG      H7 3779   0.409   3.032   3.485  2.5348  1.6034  1.3654
  165DG      H8 3780   0.299   2.909   3.414  1.1940  1.5019 -1.9509
  165DG      O9 3781   0.453   2.440   3.661  0.0259 -0.9696 -0.0750
  165DG     O10 3782   0.339   2.875   3.613  0.1650 -0.7416 -0.9199
  165DG     C11 3783   0.520   2.465   3.792  0.1005 -0.3734  0.0500
  165DG     C12 3784   0.377   2.928   3.742  0.3092 -0.8028  0.1776
  165DG     H13 3785   0.624   2.489   3.766  2.4202 -2.2107  0.0522
  165DG     H14 3786   0.512   2.375   3.856 -0.0971 -1.3796  0.5302
  165DG     H15 3787   0.310   3.008   3.767  1.0164  1.9694 -0.5093
  165DG     H16 3788   0.475   2.975   3.736 -3.6601 -1.2100 -3.7552
  165DG     C17 3789   0.468   2.592   3.868 -0.3574 -0.0667  0.4818
  165DG     C18 3790   0.386   2.811   3.838 -0.3255  0.0974  0.6121
  165DG     O19 3791   0.450   2.697   3.783  0.2358  0.0492  0.1609
  165DG     H20 3792   0.552   2.624   3.936  0.6921  0.1535 -1.1123
  165DG     H21 3793   0.381   2.562   3.932 -1.3671  0.4116 -0.5488
  165DG     H22 3794   0.440   2.832   3.930  0.0626 -0.0106 -2.5664
  165DG     H23 3795   0.283   2.776   3.869 -3.6469  0.9116 -0.1603
  166DG      C1 3796   2.891   2.372   4.332 -0.0140 -0.0709 -0.2231
  166DG      C2 3797   2.433   1.968   4.626  0.9129 -0.5324 -0.1453
  166DG      H3 3798   2.964   2.292   4.304  0.5143 -1.2307  1.1002
  166DG      H4 3799   2.841   2.346   4.427 -0.9821  0.9057  0.8765
  166DG      H5 3800   2.944   2.465   4.359  3.1981 -2.9002  2.5683
  166DG      H6 3801   2.471   1.975   4.731  1.6066 -0.6165  2.4719
  166DG      H7 3802   2.348   1.905   4.647  1.4875  1.1049 -0.1846
  166DG      H8 3803   2.503   1.917   4.571 -0.5038 -0.9821  1.4054
  166DG      O9 3804   2.796   2.406   4.228  0.3400 -0.1532 -0.1648
  166DG     O10 3805   2.396   2.094   4.567 -0.0883 -0.0772 -0.1665
  166DG     C11 3806   2.705   2.511   4.269  0.7564 -0.3606 -0.7629
  166DG     C12 3807   2.511   2.177   4.551  0.6884  0.0211  0.6301
  166DG     H13 3808   2.682   2.573   4.186  0.4013 -1.9959  1.0378
  166DG     H14 3809   2.755   2.578   4.346  0.4937 -1.5666  3.5978
  166DG     H15 3810   2.576   2.119   4.493 -0.4344  1.0328 -3.0340
  166DG     H16 3811   2.565   2.207   4.644 -2.6404 -0.9967 -2.0358
  166DG     C17 3812   2.571   2.461   4.318 -0.4093 -0.1589 -0.6572
  166DG     C18 3813   2.480   2.293   4.456  0.1197  0.5168  0.0262
  166DG     O19 3814   2.595   2.371   4.419 -0.5708 -0.1004 -0.9574
  166DG     H20 3815   2.534   2.411   4.228 -0.3568 -0.9773 -2.2301
  166DG     H21 3816   2.498   2.544   4.340 -2.1894 -0.4511  0.5909
  166DG     H22 3817   2.435   2.262   4.367 -1.7878  0.0918 -0.7155
  166DG     H23 3818   2.401   2.357   4.496  1.0429  2.6127  0.1590
  167DG      C1 3819   1.109   0.203   3.295  0.3823 -0.4249  0.1726
  167DG      C2 3820   0.600  -0.323   3.502 -0.4774 -0.1268 -0.2003
  167DG      H3 3821   1.121   0.235   3.394  1.2334 -0.9008 -5.0433
  167DG      H4 3822   1.118   0.301   3.248 -1.0683  0.3722 -0.6713
  167DG      H5 3823   1.188   0.142   3.259 -0.5241 -0.3629  1.8285
  167DG      H6 3824   0.505  -0.375   3.468  0.0720 -2.3225  2.4484
  167DG      H7 3825   0.668  -0.404   3.495  0.5581 -0.3761  0.8983
  167DG      H8 3826   0.590  -0.300   3.605 -3.6700 -0.7470  0.2229
  167DG      O9 3827   0.981   0.149   3.268 -0.4334  0.0400 -0.4041
  167DG     O10 3828   0.645  -0.201   3.443 -0.3390  0.3942 -0.0626
  167DG     C11 3829   0.879   0.237   3.306  0.0419  0.7817 -0.5140
  167DG     C12 3830   0.543  -0.097   3.454 -0.4453  0.5681  0.2560
  167DG     H13 3831   0.893   0.329   3.252  0.5157  0.0574  0.5236
  167DG     H14 3832   0.885   0.265   3.416 -2.1989  0.5648 -0.6011
  167DG     H15 3833   0.527  -0.064   3.561 -2.2440 -1.8739  0.4013
  167DG     H16 3834   0.448  -0.138   3.425 -1.7966 -0.2064 -1.2958
  167DG     C17 3835   0.733   0.181   3.302  0.0082  0.6546  0.6891
  167DG     C18 3836   0.580   0.023   3.357 -0.1098  0.4644 -0.6140
  167DG     O19 3837   0.708   0.071   3.380  0.4500  0.3397 -0.0307
  167DG     H20 3838   0.702   0.158   3.201 -0.0062 -0.4911  0.7315
  167DG     H21 3839   0.673   0.259   3.342  0.0081  0.1904  1.0906
  167DG     H22 3840   0.569  -0.010   3.253 -0.8255  0.9021  0.7949
  167DG     H23 3841   0.501   0.096   3.364 -0.3811 -1.2402 -0.1675
  168DG      C1 3842   3.042   1.440   1.864 -0.3609 -0.2834  0.3286
  168DG      C2 3843   3.598   1.051   2.186  0.3436  1.0517  0.0132
  168DG      H3 3844   2.994   1.467   1.767  0.6422 -0.4127  2.3937
  168DG      H4 3845   3.126   1.504   1.855 -2.2286  1.6525  0.4131
  168DG      H5 3846   2.984   1.452   1.953  0.5588 -0.7053  1.5897
  168DG      H6 3847   3.625   0.942   2.189  1.7047  0.2754  1.4258
  168DG      H7 3848   3.693   1.101   2.221  0.4503 -0.9439  1.6542
  168DG      H8 3849   3.525   1.057   2.268  0.7827 -3.2483 -1.9438
  168DG      O9 3850   3.103   1.307   1.889 -0.8370  0.1982  0.5001
  168DG     O10 3851   3.550   1.098   2.062 -0.1438 -0.2333  0.6701
  168DG     C11 3852   3.165   1.254   1.768 -0.3587  0.7100 -0.7506
  168DG     C12 3853   3.534   1.237   2.057 -0.3053 -0.3214 -0.0850
  168DG     H13 3854   3.096   1.256   1.682 -1.4956  2.9449 -3.5207
  168DG     H14 3855   3.160   1.151   1.794 -0.2899  3.7960  1.1178
  168DG     H15 3856   3.625   1.281   2.093 -2.4858 -0.3304  0.3947
  168DG     H16 3857   3.449   1.258   2.115 -0.7678 -2.3410  2.2198
  168DG     C17 3858   3.317   1.289   1.766  0.6467 -0.5268  0.0168
  168DG     C18 3859   3.498   1.281   1.919 -0.0470  0.3057 -0.6687
  168DG     O19 3860   3.365   1.247   1.895 -0.1055  0.3844 -0.1712
  168DG     H20 3861   3.329   1.393   1.764 -1.8421 -2.5973 -0.3674
  168DG     H21 3862   3.378   1.243   1.682  0.0114 -0.1472 -1.3875
  168DG     H22 3863   3.519   1.389   1.898  1.2362  1.7043  0.8351
  168DG     H23 3864   3.540   1.217   1.842 -2.1398 -1.1194  3.4932
  169DG      C1 3865   0.783   2.772   4.507  0.4523  0.2627 -0.1678
  169DG      C2 3866   1.259   2.520   4.116  0.7802  0.3962  0.3725
  169DG      H3 3867   0.684   2.776   4.461  1.8671 -1.7471 -2.9091
  169DG      H4 3868   0.800   2.842   4.593  2.1504  1.4362 -2.0139
  169DG      H5 3869   0.796   2.678   4.554  1.2155 -0.7199 -0.1045
  169DG      H6 3870   1.348   2.546   4.057  1.6168 -1.6727  0.0757
  169DG      H7 3871   1.306   2.474   4.199 -1.1909 -0.5870 -0.7239
  169DG      H8 3872   1.205   2.442   4.063  1.2955  2.5275  2.2526
  169DG      O9 3873   0.878   2.798   4.409 -0.0307  0.2442 -0.0243
  169DG     O10 3874   1.184   2.636   4.140 -0.4974  0.3041 -0.7659
  169DG     C11 3875   0.858   2.929   4.351 -0.2730 -0.1935  0.4691
  169DG     C12 3876   1.102   2.678   4.025 -0.2092 -0.1958 -0.1549
  169DG     H13 3877   0.866   3.012   4.428 -2.4284 -2.9302 -0.2287
  169DG     H14 3878   0.757   2.929   4.310  1.0533 -0.2866 -1.5636
  169DG     H15 3879   1.017   2.611   4.006  2.0138 -1.3284  1.1755
  169DG     H16 3880   1.172   2.681   3.934  0.3589  1.1545  2.0225
  169DG     C17 3881   0.953   2.941   4.232  1.0043  0.5560  0.0987
  169DG     C18 3882   1.055   2.819   4.055 -0.1045  0.4487  0.2211
  169DG     O19 3883   0.972   2.818   4.165  0.4301  0.4703 -0.1409
  169DG     H20 3884   1.046   2.981   4.266  0.1626  0.9889 -2.1897
  169DG     H21 3885   0.920   3.005   4.146 -1.8907 -1.0843 -1.5583
  169DG     H22 3886   1.140   2.881   4.075  0.9099 -1.0609  1.0758
  169DG     H23 3887   1.005   2.858   3.971  0.4796 -0.5272 -0.5857
  170DG      C1 3888   1.382   2.626   4.509 -0.1094 -1.1352  0.1460
  170DG      C2 3889   0.789   2.511   4.208 -0.0994 -0.1921 -0.4701
  170DG      H3 3890   1.468   2.566   4.482  2.8315  5.6854 -1.4028
  170DG      H4 3891   1.385   2.666   4.606 -0.6709  1.2295  1.5209
  170DG      H5 3892   1.374   2.700   4.428 -3.0248 -3.1584 -2.2962
  170DG      H6 3893   0.719   2.444   4.254 -0.7234  0.6229  1.7089
  170DG      H7 3894   0.737   2.613   4.226 -3.5433  1.8094 -0.4768
  170DG      H8 3895   0.792   2.480   4.100  0.8528 -1.0303 -1.9236
  170DG      O9 3896   1.264   2.547   4.508  0.3315  0.8697 -0.3076
  170DG     O10 3897   0.917   2.507   4.275  0.0426  0.7282 -0.1396
  170DG     C11 3898   1.285   2.425   4.580 -0.5722  0.2591 -0.5196
  170DG     C12 3899   0.965   2.368   4.275  0.4830  0.3040  0.4338
  170DG     H13 3900   1.332   2.442   4.677 -0.8024 -0.5522 -0.7637
  170DG     H14 3901   1.364   2.369   4.523 -0.6486  0.6944 -2.7753
  170DG     H15 3902   0.988   2.334   4.175  0.9551  0.1125  0.7010
  170DG     H16 3903   0.888   2.306   4.310  1.2157  0.5779  0.5001
  170DG     C17 3904   1.150   2.348   4.592 -0.3495  1.2709 -0.2413
  170DG     C18 3905   1.082   2.340   4.365  0.5552 -0.2490 -0.2976
  170DG     O19 3906   1.052   2.382   4.497  0.4091 -0.2618  0.4094
  170DG     H20 3907   1.108   2.354   4.692  1.3876 -1.0568  1.4501
  170DG     H21 3908   1.168   2.234   4.583  0.0211  3.1898 -0.2981
  170DG     H22 3909   1.100   2.233   4.370  1.1168 -0.6657  0.0750
  170DG     H23 3910   1.180   2.378   4.340  0.1198 -0.1117 -1.3335
  171DG      C1 3911   0.470   2.263   2.314 -0.7014 -0.0075  0.3519
  171DG      C2 3912   0.162   2.483   1.678 -0.6374 -0.8344 -0.0620
  171DG      H3 3913   0.476   2.150   2.319 -0.4624 -1.1440  2.2605
  171DG      H4 3914   0.502   2.303   2.415 -0.6273  1.5884  0.4919
  171DG      H5 3915   0.543   2.303   2.252 -0.5153  0.9003  0.2632
  171DG      H6 3916   0.165   2.376   1.655  1.9990 -0.9379  0.7460
  171DG      H7 3917   0.073   2.528   1.635  2.5181 -0.7733 -0.5645
  171DG      H8 3918   0.242   2.528   1.621  0.2801  0.3093  1.2338
  171DG      O9 3919   0.339   2.312   2.282 -0.6024 -0.4110  0.3368
  171DG     O10 3920   0.163   2.490   1.822 -0.1538 -0.1960  0.0518
  171DG     C11 3921   0.353   2.449   2.265 -0.3222 -0.7775 -0.1616
  171DG     C12 3922   0.049   2.425   1.882  0.4891 -0.2998  0.3952
  171DG     H13 3923   0.434   2.479   2.197 -0.4316  0.6638 -0.5510
  171DG     H14 3924   0.374   2.502   2.362  1.3960 -1.3293 -2.9850
  171DG     H15 3925   0.062   2.318   1.872  2.6702 -1.0961 -0.8985
  171DG     H16 3926  -0.047   2.441   1.851 -1.1709  0.6974  0.1347
  171DG     C17 3927   0.211   2.497   2.203 -0.5233 -0.3137  0.1334
  171DG     C18 3928   0.066   2.474   2.029 -0.6168  0.2978  0.6847
  171DG     O19 3929   0.191   2.436   2.078 -0.2407 -0.1162 -0.1910
  171DG     H20 3930   0.199   2.602   2.187  0.3250  0.5883 -0.1475
  171DG     H21 3931   0.142   2.470   2.272 -0.6408  0.8117 -2.5763
  171DG     H22 3932   0.050   2.584   2.021  1.0387 -0.5402 -2.5175
  171DG     H23 3933  -0.012   2.424   2.094  3.4725  1.4485 -0.4147
  172DG      C1 3934   2.703   0.560   4.278 -0.4504  0.0887  0.3381
  172DG      C2 3935   2.568   0.622   3.595 -0.2398 -0.4522 -0.0325
  172DG      H3 3936   2.678   0.595   4.384  1.2474 -0.5324 -1.2730
  172DG      H4 3937   2.732   0.455   4.270 -0.7834 -0.0059 -0.6444
  172DG      H5 3938   2.614   0.558   4.219  2.0962  0.2190 -0.7188
  172DG      H6 3939   2.667   0.614   3.545 -0.3559 -0.7053 -0.6552
  172DG      H7 3940   2.500   0.536   3.571 -0.1336  0.3680  0.4362
  172DG      H8 3941   2.510   0.689   3.535  1.5071 -0.2512 -1.2896
  172DG      O9 3942   2.800   0.641   4.218  0.3159 -0.2820  0.3012
  172DG     O10 3943   2.565   0.654   3.733  0.2865  0.0421 -0.2436
  172DG     C11 3944   2.780   0.785   4.221  0.1177  0.7920  0.2383
  172DG     C12 3945   2.628   0.778   3.764 -0.4835 -0.3264  0.1661
  172DG     H13 3946   2.862   0.845   4.200 -1.6296 -2.6141  1.0798
  172DG     H14 3947   2.755   0.808   4.321 -1.6889  1.2751 -1.3011
  172DG     H15 3948   2.587   0.844   3.693  1.3219  1.6252 -0.0740
  172DG     H16 3949   2.740   0.775   3.745  0.4515  0.4014  1.2141
  172DG     C17 3950   2.663   0.816   4.134 -0.8032 -0.0329  0.3421
  172DG     C18 3951   2.599   0.824   3.907  0.1650  0.1014  0.0658
  172DG     O19 3952   2.682   0.765   4.003  0.0945  0.0079  0.3329
  172DG     H20 3953   2.671   0.921   4.121  1.1099  0.3890  2.0207
  172DG     H21 3954   2.563   0.781   4.167  0.3002  0.8723 -0.0211
  172DG     H22 3955   2.605   0.931   3.919  0.6991  0.3587  0.7894
  172DG     H23 3956   2.500   0.788   3.921 -2.1867  2.4782 -0.7923
  173DG      C1 3957   0.009   0.405   4.126 -0.4835 -0.5627 -0.6416
  173DG      C2 3958  -0.267   0.550   3.451  0.1863 -0.3648 -0.1873
  173DG      H3 3959   0.108   0.383   4.073 -2.1133 -2.2191 -0.4329
  173DG      H4 3960   0.017   0.366   4.224  0.9773  0.1548  0.1906
  173DG      H5 3961  -0.008   0.506   4.148 -0.1355  0.8859  0.3294
  173DG      H6 3962  -0.224   0.637   3.498  0.1062 -0.7170 -1.4166
  173DG      H7 3963  -0.245   0.549   3.345 -0.3273  2.1321 -0.8013
  173DG      H8 3964  -0.376   0.558   3.462 -0.2661  4.5858  0.0401
  173DG      O9 3965  -0.109   0.343   4.070 -0.6899 -0.0932  0.3152
  173DG     O10 3966  -0.219   0.443   3.528 -0.7178  0.1761 -0.7501
  173DG     C11 3967  -0.087   0.221   3.989  0.2620  0.1057 -0.1607
  173DG     C12 3968  -0.077   0.459   3.559 -0.7373  0.0190  0.6796
  173DG     H13 3969  -0.177   0.162   3.982  0.2885 -3.8504  0.9240
  173DG     H14 3970  -0.025   0.164   4.060 -0.7438  0.1898 -1.4726
  173DG     H15 3971  -0.055   0.549   3.613 -1.0668  1.2414 -0.1036
  173DG     H16 3972  -0.021   0.464   3.466 -0.8634 -1.7569  0.7678
  173DG     C17 3973  -0.034   0.236   3.851  0.0879  0.7410  0.7233
  173DG     C18 3974  -0.030   0.335   3.642 -0.0121  0.5529  0.6339
  173DG     O19 3975  -0.091   0.332   3.771  0.0073 -0.0440 -0.0126
  173DG     H20 3976  -0.063   0.144   3.800 -0.6412 -0.4055  1.0429
  173DG     H21 3977   0.074   0.242   3.846 -1.3535  0.0855  0.2566
  173DG     H22 3978  -0.057   0.248   3.584  0.3655  1.3292 -1.3821
  173DG     H23 3979   0.077   0.337   3.663  0.8391  1.0065  2.3722
  174DG      C1 3980   2.999   5.147   2.652 -0.1681 -0.3553 -0.3420
  174DG      C2 3981   2.480   5.499   2.420 -0.2792 -0.1660  0.0935
  174DG      H3 3982   3.001   5.134   2.761  1.1219 -1.0626  0.0598
  174DG      H4 3983   3.102   5.130   2.627  0.2286  0.1084 -0.3525
  174DG      H5 3984   2.933   5.070   2.604 -0.0932  0.3986  1.2060
  174DG      H6 3985   2.449   5.528   2.321  0.0813 -1.2822 -0.5838
  174DG      H7 3986   2.449   5.398   2.443  0.9850  3.0132  2.9437
  174DG      H8 3987   2.436   5.563   2.502  1.5921 -0.7313 -1.3793
  174DG      O9 3988   2.949   5.270   2.607 -0.2486 -0.1035  0.2015
  174DG     O10 3989   2.624   5.512   2.438  0.2587  0.2178 -0.5357
  174DG     C11 3990   3.034   5.381   2.646  0.2866  0.3573 -0.5096
  174DG     C12 3991   2.677   5.645   2.459 -0.7179  0.1215  1.1069
  174DG     H13 3992   3.137   5.351   2.646  0.5064 -2.0451 -0.5339
  174DG     H14 3993   3.009   5.410   2.752  1.5477  2.4993 -0.0160
  174DG     H15 3994   2.649   5.697   2.550  0.5490  0.9761  0.8388
  174DG     H16 3995   2.641   5.716   2.378 -1.3293  0.6178  0.0705
  174DG     C17 3996   3.002   5.494   2.548 -0.0502 -0.0925  0.1737
  174DG     C18 3997   2.831   5.644   2.474  0.8010  0.1354  0.2082
  174DG     O19 3998   2.865   5.535   2.561 -0.2242  0.4478  0.2101
  174DG     H20 3999   3.018   5.455   2.446 -0.7550  2.1720  0.4379
  174DG     H21 4000   3.075   5.581   2.563  2.5383  1.0761 -4.0681
  174DG     H22 4001   2.863   5.623   2.371 -3.1600  0.9369  0.5699
  174DG     H23 4002   2.876   5.738   2.500 -0.8998  0.1473  0.3883
  175DG      C1 4003   1.388   2.210   1.685  0.2384  0.3741  0.1379
  175DG      C2 4004   1.544   1.894   2.303  0.4597  0.4982 -0.8839
  175DG      H3 4005   1.476   2.196   1.629  0.7746  0.4796  1.1896
  175DG      H4 4006   1.379   2.321   1.692  2.8534 -2.7341 -0.0560
  175DG      H5 4007   1.300   2.175   1.635  2.1874  0.9805  2.6780
  175DG      H6 4008   1.578   1.975   2.360  1.4274 -0.6653  3.7026
  175DG      H7 4009   1.440   1.892   2.290  0.4986  2.4593  0.3888
  175DG      H8 4010   1.564   1.810   2.369 -0.1314 -2.1874  0.7584
  175DG      O9 4011   1.399   2.132   1.804  0.2943  0.1400 -0.3500
  175DG     O10 4012   1.615   1.877   2.185  1.0298 -0.1415 -0.4149
  175DG     C11 4013   1.518   2.153   1.871 -0.0407  0.7740 -0.4002
  175DG     C12 4014   1.572   1.768   2.107  0.1118  0.3381  0.0618
  175DG     H13 4015   1.521   2.258   1.909 -1.2201 -1.4391  0.5276
  175DG     H14 4016   1.605   2.133   1.806  1.3869  1.3295  0.1642
  175DG     H15 4017   1.531   1.698   2.179  0.6356 -0.6816  1.4805
  175DG     H16 4018   1.665   1.725   2.060  1.0945  0.3276 -0.4883
  175DG     C17 4019   1.521   2.046   1.979  0.8213 -0.6666 -0.2271
  175DG     C18 4020   1.461   1.807   2.005  0.4269 -0.1596  0.5686
  175DG     O19 4021   1.512   1.915   1.919  0.7196 -0.1904  0.5030
  175DG     H20 4022   1.426   2.061   2.045 -1.8732  2.1619 -0.7459
  175DG     H21 4023   1.608   2.071   2.042 -0.4999 -2.3456  0.8977
  175DG     H22 4024   1.436   1.723   1.946  0.3384  1.5357  1.0449
  175DG     H23 4025   1.369   1.847   2.060 -0.7988 -1.0379  1.2752
  176DG      C1 4026   3.694   2.417   5.167 -0.8655 -0.5726 -0.9410
  176DG      C2 4027   3.042   2.882   4.851 -0.5957 -0.8864  0.2275
  176DG      H3 4028   3.725   2.388   5.266  2.5793  1.1460  1.3039
  176DG      H4 4029   3.782   2.412   5.102  0.1803 -1.1150 -0.3174
  176DG      H5 4030   3.617   2.352   5.124 -0.8444  0.1835 -3.1115
  176DG      H6 4031   2.987   2.964   4.901 -1.2728 -0.0338 -0.0759
  176DG      H7 4032   3.108   2.930   4.782  1.5034 -1.6825  1.4794
  176DG      H8 4033   2.956   2.833   4.803  0.5553  0.1632 -0.3306
  176DG      O9 4034   3.635   2.545   5.180  0.2951 -0.2156  0.9344
  176DG     O10 4035   3.106   2.803   4.943  0.4476  0.3891  0.2637
  176DG     C11 4036   3.582   2.588   5.053  0.1403 -0.2162 -0.9246
  176DG     C12 4037   3.133   2.680   4.889 -0.0873  0.2042  0.4875
  176DG     H13 4038   3.633   2.557   4.962 -1.0134 -2.3990  0.3632
  176DG     H14 4039   3.578   2.702   5.054 -0.2061 -4.5875 -0.0260
  176DG     H15 4040   3.194   2.688   4.798 -0.0135 -3.6458 -0.2743
  176DG     H16 4041   3.042   2.626   4.862 -0.6161  1.1425 -0.7269
  176DG     C17 4042   3.429   2.544   5.058 -0.3026 -0.3352  1.0352
  176DG     C18 4043   3.214   2.587   4.972  0.2549 -0.2645 -0.0951
  176DG     O19 4044   3.351   2.611   4.957 -0.3494 -0.2053 -0.1859
  176DG     H20 4045   3.391   2.569   5.159 -0.0656  1.1626 -2.2911
  176DG     H21 4046   3.414   2.444   5.035 -0.9969  2.0089  0.2430
  176DG     H22 4047   3.175   2.592   5.069 -0.3310 -0.1824  0.4576
  176DG     H23 4048   3.199   2.487   4.933 -0.2018 -0.2683 -0.9938
  177DG      C1 4049   2.777   2.348   1.652  0.6682  0.2213  0.1892
  177DG      C2 4050   3.610   2.600   2.045 -0.0312 -0.4251 -0.6139
  177DG      H3 4051   2.736   2.302   1.562 -2.4596  0.4450 -1.7532
  177DG      H4 4052   2.750   2.452   1.652 -0.9389 -2.4177 -1.3085
  177DG      H5 4053   2.725   2.293   1.731  1.3337 -0.1497 -1.0876
  177DG      H6 4054   3.574   2.697   2.011  1.7916  2.8442  5.0535
  177DG      H7 4055   3.609   2.587   2.155 -1.8936  2.1161  0.1715
  177DG      H8 4056   3.712   2.589   2.017 -2.7510 -0.4698  0.4601
  177DG      O9 4057   2.920   2.340   1.659 -0.2654  0.3269  0.8177
  177DG     O10 4058   3.541   2.492   1.988  0.6298 -0.1622  0.1813
  177DG     C11 4059   2.985   2.392   1.769  0.2797 -0.2046 -0.4283
  177DG     C12 4060   3.406   2.499   1.990  0.2467  0.8468 -0.5196
  177DG     H13 4061   2.947   2.348   1.862  0.4200  1.1833  0.8034
  177DG     H14 4062   2.963   2.497   1.776  0.2986 -1.7631  1.5019
  177DG     H15 4063   3.367   2.591   1.957 -0.5805 -0.7436 -1.3624
  177DG     H16 4064   3.366   2.463   2.084  1.1790  0.0501  0.5857
  177DG     C17 4065   3.137   2.351   1.774  0.0745  0.2802  0.6793
  177DG     C18 4066   3.344   2.393   1.895 -0.2013 -0.3826 -0.5609
  177DG     O19 4067   3.208   2.406   1.883  0.6230  0.0360  0.2717
  177DG     H20 4068   3.184   2.391   1.692 -1.6056 -2.7949 -1.1809
  177DG     H21 4069   3.149   2.245   1.761 -1.4393 -1.5049  1.4268
  177DG     H22 4070   3.398   2.411   1.800  1.5327  0.2995 -2.4008
  177DG     H23 4071   3.369   2.296   1.935  1.9127  0.1307  3.0707
  178DG      C1 4072   4.748   5.232   4.923 -0.3340 -0.9326 -0.2012
  178DG      C2 4073   5.238   5.454   5.440 -0.1811 -0.0097  0.2492
  178DG      H3 4074   4.759   5.132   4.894 -0.1759  0.6682 -0.5182
  178DG      H4 4075   4.803   5.294   4.852 -1.8536 -0.3726 -0.1008
  178DG      H5 4076   4.642   5.249   4.906 -1.7043  0.3256 -0.9029
  178DG      H6 4077   5.217   5.542   5.498 -1.6514  0.0362 -0.4037
  178DG      H7 4078   5.280   5.380   5.509  2.6942  0.3670 -0.6985
  178DG      H8 4079   5.306   5.487   5.360 -2.6794  1.5470  1.8746
  178DG      O9 4080   4.791   5.266   5.052 -0.2864 -0.1393  0.2009
  178DG     O10 4081   5.117   5.403   5.378  0.5866 -0.2534  0.2479
  178DG     C11 4082   4.694   5.226   5.148  0.2500  0.1435 -0.3588
  178DG     C12 4083   5.018   5.389   5.476  0.2507  0.3672 -0.0061
  178DG     H13 4084   4.712   5.131   5.191 -0.8774  2.2193 -0.8849
  178DG     H14 4085   4.584   5.233   5.126  0.4451 -2.1252 -1.4502
  178DG     H15 4086   5.035   5.464   5.558 -1.2580 -0.4896  3.2156
  178DG     H16 4087   5.042   5.293   5.515  0.6428 -1.2617 -0.8442
  178DG     C17 4088   4.721   5.320   5.265  0.0679  0.3621 -0.5634
  178DG     C18 4089   4.879   5.401   5.409  0.4409 -0.2760  0.9132
  178DG     O19 4090   4.856   5.305   5.310  0.3671 -0.1618  0.0174
  178DG     H20 4091   4.661   5.285   5.347  1.2215 -0.6267  0.3572
  178DG     H21 4092   4.693   5.424   5.228  0.0121 -1.8251 -1.3751
  178DG     H22 4093   4.805   5.385   5.491  3.1619 -0.7522 -0.5378
  178DG     H23 4094   4.860   5.508   5.376  0.4379 -0.7775 -2.7630
  179DG      C1 4095   1.233   1.081   2.434 -0.1423 -0.8183 -0.1108
  179DG      C2 4096   1.510   0.583   2.756 -0.2107 -0.3078 -0.2636
  179DG      H3 4097   1.185   1.123   2.350 -3.0060 -0.2144 -0.3781
  179DG      H4 4098   1.347   1.077   2.419 -1.4326  0.6812 -3.8890
  179DG      H5 4099   1.219   1.157   2.511  0.2894  0.6463 -1.2397
  179DG      H6 4100   1.570   0.675   2.779 -1.4183  0.5504 -0.4973
  179DG      H7 4101   1.479   0.533   2.846  0.9057 -1.2761  1.0009
  179DG      H8 4102   1.573   0.517   2.701  0.2091  1.1579  2.5450
  179DG      O9 4103   1.190   0.950   2.473 -0.2890 -0.2177 -0.1321
  179DG     O10 4104   1.396   0.612   2.687 -0.0440  0.1118  0.3455
  179DG     C11 4105   1.164   0.866   2.368  0.9188 -0.3912  0.0848
  179DG     C12 4106   1.323   0.502   2.623 -0.4263  0.0842 -0.5295
  179DG     H13 4107   1.257   0.856   2.302  1.6634  0.8009 -0.9378
  179DG     H14 4108   1.087   0.911   2.302  0.4812  2.7445 -0.7869
  179DG     H15 4109   1.315   0.422   2.698 -2.0031 -0.8111 -0.5406
  179DG     H16 4110   1.383   0.466   2.541 -0.5147 -0.7879  1.5404
  179DG     C17 4111   1.117   0.729   2.416  0.0094 -0.5037 -0.2209
  179DG     C18 4112   1.197   0.558   2.562  0.2265  0.4427  1.0368
  179DG     O19 4113   1.228   0.679   2.495  0.1172  0.1800  0.4774
  179DG     H20 4114   1.100   0.667   2.332  1.2125  1.0485  1.9057
  179DG     H21 4115   1.022   0.731   2.468 -1.2442 -0.8642 -0.2117
  179DG     H22 4116   1.161   0.481   2.493  0.4697 -1.5499  3.1467
  179DG     H23 4117   1.126   0.559   2.642  0.8791  1.0222  3.4816
  180DG      C1 4118   2.390   3.534   0.001 -0.1716 -0.0486  0.3908
  180DG      C2 4119   2.652   3.890   0.687  0.7315 -0.4170 -0.3354
  180DG      H3 4120   2.482   3.555  -0.056 -0.2895  0.7625 -1.0720
  180DG      H4 4121   2.304   3.544  -0.052 -0.6805  0.4187  2.1579
  180DG      H5 4122   2.398   3.434   0.045 -1.8493 -0.6109 -1.2804
  180DG      H6 4123   2.674   3.793   0.730  1.9981  1.1974 -0.0740
  180DG      H7 4124   2.734   3.947   0.642 -1.3920  1.4599 -0.8693
  180DG      H8 4125   2.604   3.958   0.759 -1.7814  3.3455  1.5573
  180DG      O9 4126   2.387   3.634   0.098 -0.0585 -0.0676 -0.3895
  180DG     O10 4127   2.562   3.879   0.576  0.7782  0.8508  0.5714
  180DG     C11 4128   2.286   3.618   0.204 -0.3259  0.3215 -0.5298
  180DG     C12 4129   2.602   3.785   0.470 -0.3216 -0.3086  0.2944
  180DG     H13 4130   2.314   3.532   0.263  1.5395 -2.9097  1.2231
  180DG     H14 4131   2.186   3.595   0.165  0.4208  1.8371 -1.8551
  180DG     H15 4132   2.604   3.685   0.513 -1.1570  0.7476 -0.8879
  180DG     H16 4133   2.704   3.805   0.436  1.0854 -1.3090 -2.6981
  180DG     C17 4134   2.278   3.737   0.307 -0.5780 -0.6810  0.1439
  180DG     C18 4135   2.506   3.793   0.353  0.4030 -0.4051 -0.1368
  180DG     O19 4136   2.384   3.738   0.403  0.4053 -0.5365  0.0533
  180DG     H20 4137   2.194   3.727   0.373  2.5824  1.4234  2.0912
  180DG     H21 4138   2.267   3.827   0.247 -1.1917 -4.4982  0.6656
  180DG     H22 4139   2.487   3.901   0.326 -1.7169 -2.0771 -0.5773
  180DG     H23 4140   2.547   3.736   0.271  1.7299 -0.3260  1.0951
  181DG      C1 4141   4.136   0.339   3.705 -0.8981  0.1599 -0.0466
  181DG      C2 4142   3.672   0.375   3.977 -0.6813  0.3389 -0.3626
  181DG      H3 4143   4.069   0.334   3.617 -1.7406  1.6757 -0.0604
  181DG      H4 4144   4.203   0.421   3.701 -1.2513 -0.5632 -1.1848
  181DG      H5 4145   4.068   0.354   3.792  2.1636 -1.0414 -2.4385
  181DG      H6 4146   3.622   0.308   3.907  0.5925 -0.3916  2.2260
  181DG      H7 4147   3.611   0.367   4.064 -0.1308  0.2659  0.5024
  181DG      H8 4148   3.685   0.478   3.942 -2.9258  0.2088 -1.1559
  181DG      O9 4149   4.213   0.220   3.726 -0.0521 -0.4386 -0.1624
  181DG     O10 4150   3.806   0.343   4.011  0.4257 -0.0860 -0.5290
  181DG     C11 4151   4.135   0.105   3.714  0.1747  0.6542 -0.0864
  181DG     C12 4152   3.840   0.208   4.041  0.4359 -0.1039  0.8524
  181DG     H13 4153   4.206   0.025   3.714  0.4307  0.2960  1.2724
  181DG     H14 4154   4.098   0.109   3.616 -0.7291  1.1831  2.0665
  181DG     H15 4155   3.777   0.171   4.118  0.8835 -1.2776 -0.3866
  181DG     H16 4156   3.946   0.199   4.071 -0.5009 -0.2686  0.9072
  181DG     C17 4157   4.033   0.072   3.824 -0.7867  0.0833 -0.7329
  181DG     C18 4158   3.820   0.122   3.916  0.5775 -0.6106  0.2803
  181DG     O19 4159   3.920   0.156   3.821  0.3663 -0.1961 -0.4905
  181DG     H20 4160   4.096   0.074   3.919 -0.6287 -1.7066 -1.5641
  181DG     H21 4161   4.003  -0.030   3.807  0.6749 -0.9679  4.5953
  181DG     H22 4162   3.836   0.022   3.947 -2.4181  0.2869 -1.9914
  181DG     H23 4163   3.718   0.130   3.882 -1.2907  0.3356 -0.2257
  182DG      C1 4164   3.095   4.040   1.380  1.0972 -0.1377 -0.4997
  182DG      C2 4165   3.651   4.656   1.175  0.0063  0.3686  0.0249
  182DG      H3 4166   3.078   3.944   1.337  0.5926 -0.0760 -3.6507
  182DG      H4 4167   3.018   4.101   1.337  0.4448 -0.5226  0.9196
  182DG      H5 4168   3.074   4.025   1.479 -0.9338 -1.4869 -0.7873
  182DG      H6 4169   3.551   4.690   1.166 -2.0238  1.9328  3.1487
  182DG      H7 4170   3.670   4.664   1.282  0.6005 -0.3424  2.2298
  182DG      H8 4171   3.715   4.724   1.122 -2.8992 -0.8420  0.0041
  182DG      O9 4172   3.229   4.089   1.356 -0.3956 -0.4005 -0.1223
  182DG     O10 4173   3.668   4.514   1.143 -0.3790  0.4633 -0.0440
  182DG     C11 4174   3.246   4.123   1.212  0.0624 -0.1614 -0.0463
  182DG     C12 4175   3.590   4.433   1.230  0.4399 -0.0297 -0.3900
  182DG     H13 4176   3.205   4.212   1.174  0.1194  0.8730 -2.3620
  182DG     H14 4177   3.200   4.052   1.143  0.8528  0.5464 -0.6893
  182DG     H15 4178   3.494   4.483   1.239  0.4091 -2.8489  0.5118
  182DG     H16 4179   3.646   4.438   1.331  1.3721 -0.6162  1.2450
  182DG     C17 4180   3.391   4.133   1.174  0.2993 -0.1159  0.0994
  182DG     C18 4181   3.557   4.292   1.179 -0.1227 -0.0924 -0.0739
  182DG     O19 4182   3.436   4.252   1.233  0.1135  0.1382 -0.0586
  182DG     H20 4183   3.397   4.140   1.069 -1.3182 -3.0547 -0.4318
  182DG     H21 4184   3.446   4.049   1.224 -2.9378 -1.2342  0.1185
  182DG     H22 4185   3.550   4.286   1.065  1.3879 -0.8673 -2.7997
  182DG     H23 4186   3.643   4.233   1.216 -1.4148 -0.1766 -0.4673
  183DG      C1 4187   4.869   3.904   4.406 -0.5517 -0.5521 -0.4565
  183DG      C2 4188   5.613   4.347   4.190 -0.6095 -0.2724  0.5916
  183DG      H3 4189   4.813   3.964   4.478  3.0242 -1.6345  1.0397
  183DG      H4 4190   4.826   3.803   4.420 -0.3382 -0.6371  0.2420
  183DG      H5 4191   4.828   3.947   4.312 -0.5333 -1.8020 -1.9841
  183DG      H6 4192   5.720   4.355   4.199 -1.6423  2.4953  0.3127
  183DG      H7 4193   5.576   4.371   4.092  1.0145  0.0454  0.7527
  183DG      H8 4194   5.563   4.416   4.260  1.1074  1.4221  1.1415
  183DG      O9 4195   5.012   3.933   4.417  0.1775  0.2064  0.2413
  183DG     O10 4196   5.572   4.225   4.238 -0.2514  0.5576 -0.2631
  183DG     C11 4197   5.099   3.852   4.335  0.3730  0.3114 -0.7222
  183DG     C12 4198   5.435   4.179   4.224  0.1189  1.1566  0.2244
  183DG     H13 4199   5.077   3.867   4.229 -1.0907 -1.3908  1.5626
  183DG     H14 4200   5.075   3.751   4.365 -0.7670 -0.6641 -2.9799
  183DG     H15 4201   5.413   4.162   4.116  0.1764 -2.0996 -0.5637
  183DG     H16 4202   5.370   4.266   4.246 -1.0469 -0.7637 -0.6171
  183DG     C17 4203   5.245   3.889   4.355  0.4668 -0.4692 -0.4289
  183DG     C18 4204   5.410   4.048   4.310 -0.4786  0.2635  0.0593
  183DG     O19 4205   5.273   4.021   4.308  0.3909  0.1744 -0.2115
  183DG     H20 4206   5.297   3.814   4.308 -1.5256  2.6559  0.0486
  183DG     H21 4207   5.279   3.879   4.460 -0.6448  3.3430  1.6719
  183DG     H22 4208   5.461   3.966   4.262  3.4800 -1.3734  4.0561
  183DG     H23 4209   5.435   4.045   4.417 -1.6772  0.7155 -1.8460
  184DG      C1 4210   1.634   1.098   4.933  0.0711  0.4797  0.3431
  184DG      C2 4211   2.060   1.334   5.501  0.7490  0.0675 -0.2023
  184DG      H3 4212   1.629   1.110   4.825  1.2986 -1.2086 -1.1268
  184DG      H4 4213   1.528   1.063   4.952 -0.6686 -1.9339 -0.8269
  184DG      H5 4214   1.697   1.009   4.949 -1.2390  0.5269  1.9149
  184DG      H6 4215   2.010   1.238   5.509  1.8827 -0.8894 -2.0864
  184DG      H7 4216   2.168   1.304   5.501  0.7076 -1.1904 -1.0997
  184DG      H8 4217   2.046   1.387   5.590 -0.0761 -1.2439 -3.8646
  184DG      O9 4218   1.667   1.220   4.996  0.1809 -0.0575  0.0093
  184DG     O10 4219   2.031   1.397   5.378  0.6559 -0.2979  0.2559
  184DG     C11 4220   1.793   1.269   4.956 -0.3963  0.0484  0.1292
  184DG     C12 4221   1.896   1.454   5.379 -0.0345 -0.4221 -0.5045
  184DG     H13 4222   1.798   1.271   4.845  4.7793 -0.3138 -3.6658
  184DG     H14 4223   1.870   1.204   4.993 -1.9221  0.1387  2.1615
  184DG     H15 4224   1.898   1.540   5.448 -0.0128 -1.0492 -0.5231
  184DG     H16 4225   1.823   1.381   5.413 -1.9325  1.6258 -0.8338
  184DG     C17 4226   1.821   1.401   5.020  0.7182  0.3487  0.3037
  184DG     C18 4227   1.863   1.496   5.243 -0.6578  0.0745  0.3658
  184DG     O19 4228   1.831   1.381   5.160  0.0587  0.1650  0.4247
  184DG     H20 4229   1.745   1.472   4.996  1.9952 -0.4946 -2.3099
  184DG     H21 4230   1.910   1.454   4.982  0.1719 -1.2398 -0.0865
  184DG     H22 4231   1.785   1.571   5.252 -0.6537 -2.5230  0.3959
  184DG     H23 4232   1.943   1.554   5.202 -0.1252 -0.2391  0.7339
  185DG      C1 4233   0.574   1.836   2.173 -0.0293  0.2420  0.4805
  185DG      C2 4234   0.072   1.842   1.762  0.1495  0.5837  0.1741
  185DG      H3 4235   0.585   1.943   2.161 -0.3863  1.3087  1.5151
  185DG      H4 4236   0.677   1.809   2.202  0.7412  0.1929  0.1497
  185DG      H5 4237   0.521   1.813   2.264 -0.5744  0.1070 -0.6184
  185DG      H6 4238   0.022   1.769   1.824 -0.0416 -1.8133 -3.0596
  185DG      H7 4239   0.068   1.948   1.793 -1.3284  0.8899 -0.3083
  185DG      H8 4240   0.025   1.825   1.657 -0.9527  0.3948 -1.6608
  185DG      O9 4241   0.521   1.785   2.057  0.3957  0.1222 -0.2325
  185DG     O10 4242   0.207   1.802   1.745  0.1522  0.7627  0.3143
  185DG     C11 4243   0.567   1.657   2.022  0.6148 -0.1103 -0.0706
  185DG     C12 4244   0.227   1.671   1.694 -0.0784  0.3103  0.0383
  185DG     H13 4245   0.523   1.582   2.087  2.2169 -1.4927  0.5140
  185DG     H14 4246   0.681   1.654   2.032  0.2459 -0.7242  2.8423
  185DG     H15 4247   0.185   1.665   1.597  0.7929  0.9954  0.6760
  185DG     H16 4248   0.174   1.596   1.756  2.8085 -1.7544  2.2354
  185DG     C17 4249   0.549   1.634   1.871  0.5274 -0.3959  0.3241
  185DG     C18 4250   0.377   1.650   1.716 -0.4730 -0.5614 -0.0503
  185DG     O19 4251   0.412   1.658   1.851  0.1684  0.0956  0.5985
  185DG     H20 4252   0.571   1.533   1.844 -0.0612  0.0206  2.1303
  185DG     H21 4253   0.611   1.706   1.817 -0.6960  0.1475 -0.9487
  185DG     H22 4254   0.391   1.548   1.679 -0.0981 -0.8308 -0.7574
  185DG     H23 4255   0.431   1.719   1.649 -0.5840 -0.8503 -2.7169
  186DG      C1 4256   1.659   3.745   4.942  1.0790  0.5762 -0.1336
  186DG      C2 4257   1.140   4.134   5.296  0.0770  0.3059  0.1023
  186DG      H3 4258   1.667   3.719   4.838 -0.7754  1.4615  0.6914
  186DG      H4 4259   1.739   3.686   4.994  0.4123  2.8289 -1.9017
  186DG      H5 4260   1.674   3.849   4.947 -0.6975 -0.3116  1.2118
  186DG      H6 4261   1.028   4.130   5.310 -0.4110 -0.1870 -0.7412
  186DG      H7 4262   1.181   4.202   5.374  0.2906  2.7113 -0.4438
  186DG      H8 4263   1.167   4.170   5.196  1.1822 -0.3021 -2.0771
  186DG      O9 4264   1.535   3.691   4.997 -0.7753 -0.6128  0.5784
  186DG     O10 4265   1.189   4.003   5.308  0.4257 -0.1348 -0.2998
  186DG     C11 4266   1.530   3.664   5.139 -1.2091 -0.4583  0.3541
  186DG     C12 4267   1.121   3.918   5.216  0.7598 -0.2220 -0.2587
  186DG     H13 4268   1.588   3.743   5.178  0.6464 -0.1258 -1.5984
  186DG     H14 4269   1.576   3.566   5.150  0.2950  0.6249  1.7523
  186DG     H15 4270   1.114   3.940   5.111 -2.1558  0.4243  0.4074
  186DG     H16 4271   1.021   3.900   5.260 -1.2571 -0.1778 -0.2536
  186DG     C17 4272   1.387   3.656   5.188  0.2951  0.3953 -0.0521
  186DG     C18 4273   1.181   3.775   5.221 -1.1255 -1.0859 -0.3717
  186DG     O19 4274   1.321   3.781   5.185 -0.4396 -0.4339 -0.4325
  186DG     H20 4275   1.393   3.625   5.296  2.0338  0.7639  0.9007
  186DG     H21 4276   1.336   3.582   5.136  1.7247 -2.0712 -2.5570
  186DG     H22 4277   1.175   3.740   5.329  1.1667  1.7738  1.8451
  186DG     H23 4278   1.119   3.698   5.171 -0.1173 -0.7903 -0.0386
  187DG      C1 4279   4.037   0.529   3.201 -0.4556  0.9202  0.3229
  187DG      C2 4280   4.178   1.208   2.801 -0.0346 -0.2998  0.4085
  187DG      H3 4281   3.963   0.541   3.281 -0.3276 -1.7829 -0.7999
  187DG      H4 4282   4.118   0.602   3.226  3.0295  0.7452  1.2837
  187DG      H5 4283   4.098   0.440   3.212  1.4023  0.2096 -0.6924
  187DG      H6 4284   4.160   1.301   2.751  3.1304  2.0769  3.4265
  187DG      H7 4285   4.174   1.218   2.909  0.5084 -2.6113 -0.8466
  187DG      H8 4286   4.281   1.179   2.770  0.5709  0.4643 -3.1300
  187DG      O9 4287   3.962   0.541   3.082  0.1953  0.0983  0.4268
  187DG     O10 4288   4.095   1.094   2.773  0.1889 -0.1453 -0.5714
  187DG     C11 4289   4.044   0.544   2.973 -0.4438  0.8214  0.3191
  187DG     C12 4290   4.118   0.980   2.852 -0.3620 -0.8092 -0.2210
  187DG     H13 4291   4.040   0.444   2.928 -0.5469  0.6831 -0.7091
  187DG     H14 4292   4.148   0.570   3.001 -2.0740 -0.9820 -0.4447
  187DG     H15 4293   4.100   1.011   2.961 -0.0516 -0.5883 -0.0523
  187DG     H16 4294   4.221   0.942   2.860 -0.6708 -0.3105  1.0827
  187DG     C17 4295   3.991   0.645   2.873 -0.0773 -0.1201  0.2491
  187DG     C18 4296   4.022   0.876   2.823 -0.1023  0.3387  0.6744
  187DG     O19 4297   4.027   0.780   2.924 -0.0616 -0.6005 -0.8034
  187DG     H20 4298   3.879   0.638   2.853 -0.7495 -2.2930  0.7512
  187DG     H21 4299   4.047   0.617   2.783  1.9682  1.8225 -0.1248
  187DG     H22 4300   3.924   0.914   2.804  0.8099  1.4636  0.2565
  187DG     H23 4301   4.064   0.828   2.731 -2.2751 -0.1627  1.2371
  188DG      C1 4302   1.743   0.452   3.382 -0.0916 -0.4671  0.0040
  188DG      C2 4303   2.006   0.364   4.145 -0.3751 -0.5816 -0.3159
  188DG      H3 4304   1.765   0.392   3.291 -1.4976 -0.7489 -0.2791
  188DG      H4 4305   1.750   0.559   3.352  0.8077 -0.3244 -1.5126
  188DG      H5 4306   1.641   0.432   3.405 -1.1930 -0.1479  0.7266
  188DG      H6 4307   2.036   0.469   4.138  2.7138  1.1837  0.7962
  188DG      H7 4308   1.951   0.349   4.242 -1.4201 -1.9698  0.6384
  188DG      H8 4309   2.100   0.305   4.144 -3.0726 -2.1858  0.8435
  188DG      O9 4310   1.833   0.414   3.485 -0.1183 -0.0153  0.4233
  188DG     O10 4311   1.931   0.328   4.028 -0.0025 -0.0767  0.5061
  188DG     C11 4312   1.811   0.287   3.543 -0.0684 -0.8522 -0.0385
  188DG     C12 4313   1.832   0.419   3.998  0.0883 -0.0264  0.0129
  188DG     H13 4314   1.912   0.253   3.564  0.3698 -1.9969 -1.0521
  188DG     H14 4315   1.763   0.216   3.477  1.0563 -0.8787 -0.5508
  188DG     H15 4316   1.874   0.515   3.968 -1.0610 -0.2491  3.8406
  188DG     H16 4317   1.772   0.439   4.088  0.6789  1.0515  1.0649
  188DG     C17 4318   1.724   0.294   3.663  0.5768  0.0965  0.5767
  188DG     C18 4319   1.738   0.371   3.881 -0.9573  0.1275 -0.0180
  188DG     O19 4320   1.806   0.362   3.756 -0.5525 -0.0132  0.4791
  188DG     H20 4321   1.696   0.191   3.695  0.2561  0.0734  1.0782
  188DG     H21 4322   1.625   0.345   3.656  1.6688 -0.7146 -1.8192
  188DG     H22 4323   1.716   0.268   3.913 -1.1155  0.4907 -2.2318
  188DG     H23 4324   1.649   0.428   3.876 -0.7014  2.4505  2.2303
  189DG      C1 4325   2.019   1.744   2.939  0.3439  0.1176  0.1071
  189DG      C2 4326   2.299   2.258   2.584 -0.2734  0.2441  0.4199
  189DG      H3 4327   1.997   1.711   2.838  0.0149  2.1130  0.0108
  189DG      H4 4328   1.934   1.797   2.975  1.9746  2.8908 -0.9607
  189DG      H5 4329   2.041   1.655   3.010 -0.8749 -1.0165 -2.9298
  189DG      H6 4330   2.295   2.187   2.494  3.5685 -0.0738 -2.0562
  189DG      H7 4331   2.233   2.352   2.571 -1.0404  1.6059  1.4910
  189DG      H8 4332   2.393   2.301   2.591 -3.6300  2.1511 -2.6860
  189DG      O9 4333   2.128   1.837   2.944 -0.1829 -0.3994  0.4594
  189DG     O10 4334   2.255   2.188   2.703  0.0450  0.1962 -0.4616
  189DG     C11 4335   2.148   1.900   3.070 -0.2364  0.3248  0.6027
  189DG     C12 4336   2.265   2.275   2.820  0.3879 -0.7177 -1.0294
  189DG     H13 4337   2.175   1.840   3.153  1.7634 -0.7153  0.1413
  189DG     H14 4338   2.062   1.955   3.102  0.1996 -0.5677 -2.2586
  189DG     H15 4339   2.187   2.355   2.810 -0.6111  0.0437  0.4609
  189DG     H16 4340   2.363   2.307   2.835  0.5807  1.6137  3.2649
  189DG     C17 4341   2.265   1.997   3.058 -0.0294 -0.4418 -0.1431
  189DG     C18 4342   2.215   2.213   2.949  0.9562  0.7461  0.0621
  189DG     O19 4343   2.274   2.085   2.943  0.5107  0.9123  0.5084
  189DG     H20 4344   2.353   1.939   3.043 -0.1272 -1.0302 -0.6064
  189DG     H21 4345   2.267   2.068   3.135 -0.3418  1.2893 -2.4860
  189DG     H22 4346   2.242   2.278   3.034 -0.3551  0.4563  1.9332
  189DG     H23 4347   2.107   2.197   2.955  2.4239 -3.4676  0.7040
  190DG      C1 4348   1.855   0.965   1.866  0.9042  0.1277  0.1461
  190DG      C2 4349   2.237   0.473   1.698  1.0695 -0.7670  0.2079
  190DG      H3 4350   1.777   0.893   1.843  0.6372  1.3225  1.1725
  190DG      H4 4351   1.854   1.000   1.765 -0.6083  2.1418 -3.2595
  190DG      H5 4352   1.810   1.048   1.934 -2.2804  0.5002 -0.6955
  190DG      H6 4353   2.267   0.377   1.721 -1.6219  0.1523 -1.8820
  190DG      H7 4354   2.194   0.459   1.597  1.2753  2.5447  1.2130
  190DG      H8 4355   2.329   0.529   1.701 -1.1870  1.5865 -1.5792
  190DG      O9 4356   1.976   0.914   1.910  0.1950 -0.0262 -0.1673
  190DG     O10 4357   2.145   0.530   1.796  0.2662  0.4841 -0.3377
  190DG     C11 4358   1.987   0.876   2.046  0.4592 -0.2635  0.4060
  190DG     C12 4359   2.175   0.484   1.928  0.2144  0.1466  0.2625
  190DG     H13 4360   1.918   0.931   2.109 -0.5021  1.5811 -0.7386
  190DG     H14 4361   2.093   0.885   2.074 -1.8722 -0.2856  0.0919
  190DG     H15 4362   2.272   0.535   1.961  1.7820  3.0733  2.2048
  190DG     H16 4363   2.200   0.381   1.931 -1.5346  1.5500 -1.7690
  190DG     C17 4364   1.954   0.733   2.076 -0.0421 -0.5143  1.0947
  190DG     C18 4365   2.073   0.538   2.023 -0.6672  0.1988 -0.4958
  190DG     O19 4366   2.042   0.669   1.990 -0.1290  0.0528 -0.2697
  190DG     H20 4367   1.848   0.699   2.065  0.8874  2.2796  0.1728
  190DG     H21 4368   1.977   0.708   2.180 -1.4196  0.1671  1.0251
  190DG     H22 4369   1.982   0.492   2.012  2.0731  2.2005  1.2073
  190DG     H23 4370   2.116   0.524   2.123  2.8565  1.6831  1.0215
  191DG      C1 4371   0.052   3.903   2.487 -0.3711 -0.1884 -0.3337
  191DG      C2 4372   0.040   4.058   3.217 -0.5956  0.1790  0.9162
  191DG      H3 4373  -0.026   3.976   2.451  0.9970  0.7792  0.2182
  191DG      H4 4374   0.040   3.822   2.419 -1.0293  3.2356  0.8133
  191DG      H5 4375   0.162   3.932   2.475 -0.5080 -1.4055  0.9443
  191DG      H6 4376  -0.012   4.023   3.302  1.3970 -0.6559  0.1219
  191DG      H7 4377   0.149   4.061   3.244  2.0639 -0.8175 -1.6252
  191DG      H8 4378  -0.003   4.164   3.206  3.4811 -0.2184 -1.3485
  191DG      O9 4379   0.024   3.858   2.624 -0.1256 -0.6430 -0.5439
  191DG     O10 4380   0.026   3.977   3.096  0.1895 -0.1562  0.1308
  191DG     C11 4381   0.092   3.736   2.651  0.4267  0.0514 -0.2638
  191DG     C12 4382   0.063   3.837   3.118  0.4956  0.4518  0.1839
  191DG     H13 4383   0.198   3.749   2.631 -1.6214  1.0332  0.2817
  191DG     H14 4384   0.053   3.659   2.584  1.2244 -1.8144 -0.9214
  191DG     H15 4385   0.024   3.798   3.209 -0.3149  0.5902 -2.1882
  191DG     H16 4386   0.165   3.816   3.127 -1.2924  0.7266 -2.6412
  191DG     C17 4387   0.068   3.683   2.793 -0.3723 -0.0742 -0.0027
  191DG     C18 4388   0.019   3.758   3.001 -0.3424 -0.0135  0.3648
  191DG     O19 4389   0.087   3.795   2.882 -0.3527  0.1765  0.4350
  191DG     H20 4390   0.153   3.614   2.820  1.3210  0.1600  0.7135
  191DG     H21 4391  -0.028   3.637   2.799 -2.8202 -1.9479 -0.8110
  191DG     H22 4392   0.055   3.662   3.032 -1.6294 -1.2157  1.3665
  191DG     H23 4393  -0.087   3.753   2.979 -1.1969  0.0290  0.4761
  192DG      C1 4394   2.854   4.332   3.784  0.6153 -0.1555 -0.1748
  192DG      C2 4395   3.267   4.229   3.267 -0.1684 -0.1635 -0.3732
  192DG      H3 4396   2.944   4.321   3.845  0.6025  3.3263 -0.5250
  192DG      H4 4397   2.771   4.271   3.828  0.8397  0.1557  1.0200
  192DG      H5 4398   2.826   4.436   3.785 -0.3099 -0.5032 -0.6958
  192DG      H6 4399   3.254   4.285   3.178  0.8487 -2.6812  0.6290
  192DG      H7 4400   3.320   4.286   3.338  0.8397 -2.5675 -2.1041
  192DG      H8 4401   3.337   4.148   3.239  1.2305  1.4632 -1.4779
  192DG      O9 4402   2.872   4.280   3.651  0.4577  0.4059 -0.4192
  192DG     O10 4403   3.145   4.177   3.315  0.5826 -0.4460  0.7611
  192DG     C11 4404   2.755   4.298   3.563 -0.4575  0.2006  0.5590
  192DG     C12 4405   3.049   4.171   3.211  0.4051  0.7016 -0.8820
  192DG     H13 4406   2.761   4.395   3.510  2.6405  0.9438  2.1882
  192DG     H14 4407   2.657   4.294   3.612  1.3882  2.3416 -1.3674
  192DG     H15 4408   3.078   4.096   3.150 -0.4136  1.1397  1.7972
  192DG     H16 4409   3.029   4.266   3.161 -1.2756 -0.7957 -1.7574
  192DG     C17 4410   2.774   4.187   3.462  0.2485  0.0032 -1.4176
  192DG     C18 4411   2.912   4.129   3.277  0.4787 -0.4515 -0.3008
  192DG     O19 4412   2.892   4.214   3.396  0.2213 -0.8005  0.0274
  192DG     H20 4413   2.687   4.188   3.393 -0.4254 -1.1132  1.6935
  192DG     H21 4414   2.779   4.089   3.505 -0.4034  2.2645 -0.7234
  192DG     H22 4415   2.819   4.133   3.210 -4.8343  0.6188 -1.3622
  192DG     H23 4416   2.925   4.026   3.311 -0.8966  2.8552  1.0031
  193DG      C1 4417   2.396   1.106   2.104 -0.4335 -0.3578  0.2784
  193DG      C2 4418   2.728   1.617   1.463 -0.4588 -0.2180  0.1601
  193DG      H3 4419   2.368   1.095   2.205 -2.3742 -1.2891 -0.0625
  193DG      H4 4420   2.338   1.028   2.054  0.9950  2.9200 -1.9399
  193DG      H5 4421   2.352   1.204   2.072  0.7622  0.4781 -1.4145
  193DG      H6 4422   2.632   1.621   1.407  1.0293 -1.7442 -0.3256
  193DG      H7 4423   2.786   1.707   1.464  0.2500 -0.3302 -4.9928
  193DG      H8 4424   2.783   1.544   1.418 -0.9551 -1.0692 -1.8477
  193DG      O9 4425   2.536   1.088   2.083 -0.0576  0.2042  0.4884
  193DG     O10 4426   2.715   1.590   1.600  0.1340  0.0591  0.3271
  193DG     C11 4427   2.576   1.115   1.948  0.1387  0.5645  0.3715
  193DG     C12 4428   2.685   1.457   1.642 -0.2191  0.3456  0.2797
  193DG     H13 4429   2.515   1.071   1.868 -0.9900 -0.4520  0.6069
  193DG     H14 4430   2.680   1.087   1.944 -0.8411  1.2493  0.1938
  193DG     H15 4431   2.777   1.392   1.616 -1.1510  1.0823  2.8564
  193DG     H16 4432   2.600   1.420   1.581  1.7682 -0.8533 -0.7832
  193DG     C17 4433   2.566   1.272   1.930  0.1853  0.8798  0.2621
  193DG     C18 4434   2.645   1.442   1.785  0.2521 -0.6947 -0.3474
  193DG     O19 4435   2.618   1.302   1.804  0.8963 -0.3625  0.1830
  193DG     H20 4436   2.620   1.325   2.001  1.8659  1.1393 -1.2574
  193DG     H21 4437   2.460   1.301   1.927 -0.2056  0.3888 -1.2863
  193DG     H22 4438   2.718   1.494   1.849  0.3816  0.0531 -0.4961
  193DG     H23 4439   2.550   1.497   1.804 -2.2595 -1.2235  3.6453
  194DG      C1 4440   5.187   3.282   1.467 -0.2454  0.4256  0.1462
  194DG      C2 4441   5.578   3.790   1.594  0.0550  0.4747 -0.1070
  194DG      H3 4442   5.171   3.363   1.396  1.4533 -2.3985  0.1206
  194DG      H4 4443   5.099   3.223   1.461 -3.4284  0.0793  0.1165
  194DG      H5 4444   5.268   3.214   1.441  1.5932 -3.0649  2.7530
  194DG      H6 4445   5.553   3.807   1.483 -2.0109  0.8898 -0.1161
  194DG      H7 4446   5.564   3.882   1.655 -1.6562  2.0557  0.4495
  194DG      H8 4447   5.683   3.765   1.590 -1.5875  1.7189  0.7706
  194DG      O9 4448   5.203   3.338   1.592 -0.7352 -0.5400 -0.3091
  194DG     O10 4449   5.501   3.683   1.648 -0.2532  0.6694  0.2030
  194DG     C11 4450   5.266   3.258   1.698  0.4206 -0.5380  0.6555
  194DG     C12 4451   5.548   3.647   1.777 -0.1145  0.1646 -0.4965
  194DG     H13 4452   5.358   3.222   1.661 -0.4434 -1.3424 -1.0219
  194DG     H14 4453   5.214   3.172   1.738 -1.6058  0.5060 -0.3855
  194DG     H15 4454   5.545   3.721   1.860 -0.2847  1.8120 -1.1095
  194DG     H16 4455   5.651   3.614   1.768 -0.0540  0.4703 -2.1815
  194DG     C17 4456   5.327   3.345   1.809  0.3721  0.3806  0.2922
  194DG     C18 4457   5.455   3.536   1.841 -0.3668  0.0887  0.3442
  194DG     O19 4458   5.412   3.441   1.749 -0.2480  0.1662  0.3258
  194DG     H20 4459   5.394   3.283   1.874  1.1905 -0.0777 -1.3449
  194DG     H21 4460   5.254   3.403   1.864 -0.7086 -2.1681 -3.1945
  194DG     H22 4461   5.499   3.493   1.933 -1.1915 -0.2459  3.0690
  194DG     H23 4462   5.365   3.586   1.874 -0.7447 -0.6285 -2.1299
  195DG      C1 4463   3.703   3.496   2.338  0.5597 -0.3617  0.2031
  195DG      C2 4464   3.848   4.007   2.762  0.0021 -0.0667  0.1971
  195DG      H3 4465   3.742   3.443   2.259  1.7452  0.3747  2.0546
  195DG      H4 4466   3.674   3.594   2.298 -2.5705 -3.3632 -3.8962
  195DG      H5 4467   3.608   3.446   2.373 -1.3266  1.4797  0.5443
  195DG      H6 4468   3.771   4.018   2.838 -0.3833 -1.1371 -2.2397
  195DG      H7 4469   3.915   4.088   2.788  0.2687 -0.5963 -0.7290
  195DG      H8 4470   3.798   4.040   2.672 -0.9709 -1.7913 -2.5549
  195DG      O9 4471   3.812   3.510   2.426 -0.4959  0.6025 -0.0359
  195DG     O10 4472   3.910   3.881   2.733 -0.1379  0.0203  0.2824
  195DG     C11 4473   3.939   3.544   2.380 -0.3405  0.2262  0.3265
  195DG     C12 4474   4.040   3.888   2.696 -0.7036  0.2111  0.1884
  195DG     H13 4475   3.930   3.629   2.316  0.7755  1.3925  1.0955
  195DG     H14 4476   3.967   3.463   2.307 -0.3667  0.7069 -1.8449
  195DG     H15 4477   4.089   3.914   2.789 -0.4765 -0.2168 -0.3951
  195DG     H16 4478   4.063   3.959   2.611 -1.6043  0.9486  1.7370
  195DG     C17 4479   4.041   3.580   2.490  0.3288 -0.5019  0.6085
  195DG     C18 4480   4.094   3.750   2.643  0.5823 -0.6920  0.3782
  195DG     O19 4481   4.012   3.713   2.534  0.4490 -0.8600 -0.5439
  195DG     H20 4482   4.150   3.559   2.463  0.4563 -1.5317  1.1682
  195DG     H21 4483   4.021   3.507   2.575 -2.8786 -2.8731 -0.0648
  195DG     H22 4484   4.197   3.767   2.622  0.0701  1.7196 -0.5216
  195DG     H23 4485   4.084   3.688   2.733 -1.2052  0.2402  0.9506
  196DG      C1 4486   5.380   1.853   2.738 -0.7175 -0.2886  0.3133
  196DG      C2 4487   5.910   2.253   2.767 -0.4805 -0.4122 -0.4202
  196DG      H3 4488   5.302   1.785   2.692  1.1871 -0.9606 -2.2115
  196DG      H4 4489   5.340   1.899   2.832 -2.2521  0.5552 -1.0603
  196DG      H5 4490   5.467   1.798   2.773  1.9319 -0.8338 -0.1166
  196DG      H6 4491   5.956   2.164   2.802  0.4820  0.1894 -0.4457
  196DG      H7 4492   5.989   2.317   2.730  0.0715 -2.7411  2.8921
  196DG      H8 4493   5.858   2.291   2.854 -0.9108  1.5201 -0.0894
  196DG      O9 4494   5.449   1.951   2.656 -0.9104 -0.0688 -0.0567
  196DG     O10 4495   5.817   2.222   2.668 -0.4198  0.3470  0.2046
  196DG     C11 4496   5.363   2.049   2.601  1.0253  0.6718  0.5595
  196DG     C12 4497   5.744   2.334   2.621  0.8063  0.5969  0.1036
  196DG     H13 4498   5.321   2.110   2.676  0.2189 -1.2668  1.2116
  196DG     H14 4499   5.280   2.019   2.537  0.1248  0.7131 -3.1061
  196DG     H15 4500   5.796   2.417   2.567  3.2270  3.6834  1.6972
  196DG     H16 4501   5.698   2.376   2.716 -0.2276 -1.4826  0.6393
  196DG     C17 4502   5.445   2.151   2.509  0.6199 -0.0267 -0.7465
  196DG     C18 4503   5.632   2.291   2.528  0.2120  0.4776  0.5499
  196DG     O19 4504   5.562   2.187   2.586 -0.2806  0.0112  0.2863
  196DG     H20 4505   5.375   2.230   2.481 -2.6135  3.2061 -0.4251
  196DG     H21 4506   5.472   2.100   2.414  2.2378  1.0264  0.4707
  196DG     H22 4507   5.572   2.385   2.513  0.9456  0.4707  1.2584
  196DG     H23 4508   5.672   2.251   2.440  1.2131  0.6069  1.5491
  197DG      C1 4509   3.677   2.484   4.606  0.0097 -0.4409  0.1893
  197DG      C2 4510   3.999   2.996   3.894 -0.0140  0.1649 -0.1954
  197DG      H3 4511   3.600   2.477   4.685  1.4214 -0.3322  0.7879
  197DG      H4 4512   3.766   2.455   4.649  1.6423 -0.9602  0.6760
  197DG      H5 4513   3.652   2.404   4.533  0.0499 -1.6376 -1.5865
  197DG      H6 4514   4.106   2.983   3.915 -3.1218 -1.2183  1.3434
  197DG      H7 4515   3.962   2.922   3.820 -2.5858  0.7134 -1.3573
  197DG      H8 4516   3.986   3.090   3.842 -3.6275 -0.1893  1.5098
  197DG      O9 4517   3.685   2.617   4.556 -0.0480 -0.3562  0.2220
  197DG     O10 4518   3.928   2.994   4.025  0.2573 -0.7386 -0.0153
  197DG     C11 4519   3.772   2.622   4.448 -0.0053  0.3654  0.0088
  197DG     C12 4520   3.959   2.881   4.096  0.7779 -0.1488  0.0950
  197DG     H13 4521   3.745   2.535   4.376 -0.0919  1.3164 -0.5478
  197DG     H14 4522   3.878   2.608   4.486 -2.1537  1.0806 -0.9044
  197DG     H15 4523   4.044   2.887   4.158 -0.8134  3.2096  1.3579
  197DG     H16 4524   3.961   2.795   4.024 -0.9334  1.0896  0.0920
  197DG     C17 4525   3.768   2.764   4.383 -0.0301  0.0336  0.8173
  197DG     C18 4526   3.841   2.867   4.185 -0.3644  0.0975 -0.4913
  197DG     O19 4527   3.867   2.769   4.283 -0.0570 -0.8877 -0.0282
  197DG     H20 4528   3.788   2.841   4.455  0.1623 -1.1941 -1.0399
  197DG     H21 4529   3.676   2.780   4.330 -0.0754 -0.7154 -1.5902
  197DG     H22 4530   3.830   2.965   4.229  0.1741  0.9414  0.1267
  197DG     H23 4531   3.762   2.845   4.121  4.1946 -0.0385  1.6146
  198DG      C1 4532   0.490   1.706   1.309 -0.2619 -0.1252 -0.6621
  198DG      C2 4533  -0.222   1.766   1.585 -0.6758  0.5753 -0.5166
  198DG      H3 4534   0.487   1.675   1.421  0.9803  1.5167  1.1284
  198DG      H4 4535   0.570   1.785   1.300  0.1486  1.5003 -1.1275
  198DG      H5 4536   0.513   1.631   1.232  1.5337 -3.6143 -1.4629
  198DG      H6 4537  -0.231   1.746   1.686  1.4264  1.6550 -2.0861
  198DG      H7 4538  -0.181   1.869   1.566  1.1543  1.2155 -1.4445
  198DG      H8 4539  -0.326   1.770   1.549 -1.1959 -1.4804 -2.5056
  198DG      O9 4540   0.360   1.757   1.273  0.0296  0.1416 -0.3507
  198DG     O10 4541  -0.138   1.676   1.514  0.1753  0.4785  0.3846
  198DG     C11 4542   0.321   1.870   1.355  0.1643 -0.0973 -0.5083
  198DG     C12 4543  -0.130   1.694   1.373  0.3626  0.3500  0.2994
  198DG     H13 4544   0.393   1.951   1.345  2.6235 -0.0721  2.5327
  198DG     H14 4545   0.317   1.836   1.463  0.4258 -0.6269 -0.6462
  198DG     H15 4546  -0.237   1.719   1.339 -0.8277 -1.8805  0.9394
  198DG     H16 4547  -0.093   1.599   1.328  0.1899  0.4984 -2.7922
  198DG     C17 4548   0.175   1.917   1.337  0.2112 -0.4544 -1.1614
  198DG     C18 4549  -0.041   1.820   1.332  0.1351  0.6148  1.0770
  198DG     O19 4550   0.088   1.803   1.366  0.7918  0.5149  0.0076
  198DG     H20 4551   0.166   1.957   1.235  1.7721 -0.7548 -2.3255
  198DG     H21 4552   0.149   1.988   1.410 -0.5472 -2.2952 -0.4588
  198DG     H22 4553  -0.053   1.830   1.228  1.0837 -0.8852 -0.8511
  198DG     H23 4554  -0.087   1.905   1.377  4.0014 -0.3945 -0.0500
  199DG      C1 4555   3.433   1.648   1.468 -0.7909  1.0703  0.6449
  199DG      C2 4556   3.766   1.503   1.926 -0.0324  0.2952 -0.0640
  199DG      H3 4557   3.412   1.650   1.576  1.2476  0.2827  0.5279
  199DG      H4 4558   3.433   1.539   1.434 -0.1708 -0.1052 -1.2441
  199DG      H5 4559   3.354   1.695   1.415 -2.4738  0.7511  2.1163
  199DG      H6 4560   3.663   1.532   1.954 -2.5233 -2.9211  0.2017
  199DG      H7 4561   3.767   1.399   1.893 -1.0872 -0.1804 -0.8877
  199DG      H8 4562   3.820   1.521   2.020 -0.9183 -0.6728 -0.5411
  199DG      O9 4563   3.562   1.696   1.445  0.6694 -0.8326  0.2288
  199DG     O10 4564   3.817   1.587   1.825  0.8333 -0.2397 -0.2130
  199DG     C11 4565   3.570   1.834   1.472  0.6211  0.1451 -0.0925
  199DG     C12 4566   3.830   1.725   1.849  0.3301  0.5170  0.0040
  199DG     H13 4567   3.485   1.894   1.433  0.0550 -0.0870  0.8281
  199DG     H14 4568   3.663   1.857   1.423  0.2592 -0.0332 -0.3304
  199DG     H15 4569   3.917   1.773   1.805  1.3562  0.0779 -1.5903
  199DG     H16 4570   3.845   1.739   1.955 -1.3200 -2.2951  3.1635
  199DG     C17 4571   3.579   1.874   1.623 -0.7447  0.0148  0.3758
  199DG     C18 4572   3.698   1.797   1.816  0.6321  0.4185  0.5483
  199DG     O19 4573   3.692   1.805   1.669  0.0667 -0.5479  0.1940
  199DG     H20 4574   3.488   1.850   1.671  2.6784 -2.5496  0.0704
  199DG     H21 4575   3.605   1.981   1.620 -0.8274  1.7006  1.9101
  199DG     H22 4576   3.613   1.741   1.851 -1.1722  0.7827  2.4648
  199DG     H23 4577   3.694   1.898   1.860 -0.1828  0.4149  2.3442
  200DG      C1 4578   2.064   3.306   0.265 -0.0405  0.8168 -0.3080
  200DG      C2 4579   2.044   3.267  -0.245  0.3098 -0.8928 -0.5497
  200DG      H3 4580   2.122   3.401   0.287 -0.7032  0.4319  0.1603
  200DG      H4 4581   1.999   3.283   0.346  0.6028 -0.0036 -1.2437
  200DG      H5 4582   2.007   3.335   0.173 -0.6004 -2.5268  0.0344
  200DG      H6 4583   1.939   3.244  -0.283  0.0603  1.3782  0.0176
  200DG      H7 4584   2.041   3.257  -0.136  1.1865  3.1724 -2.3797
  200DG      H8 4585   2.068   3.364  -0.285  0.2530  0.6469  0.4737
  200DG      O9 4586   2.163   3.214   0.243  0.1270  0.6245  0.4340
  200DG     O10 4587   2.140   3.170  -0.287  0.5085 -0.0699 -0.0088
  200DG     C11 4588   2.111   3.084   0.213 -0.1241 -0.0356  0.3090
  200DG     C12 4589   2.258   3.196  -0.221 -0.0302 -0.0225 -0.4990
  200DG     H13 4590   2.009   3.081   0.165  2.0258  1.0474 -1.8872
  200DG     H14 4591   2.105   3.022   0.306 -0.3166 -1.7731 -2.7919
  200DG     H15 4592   2.265   3.293  -0.176  0.9722  0.0114  0.2191
  200DG     H16 4593   2.325   3.190  -0.304 -1.5110 -0.1963  0.0784
  200DG     C17 4594   2.203   3.030   0.105 -0.3400 -0.3330  1.3201
  200DG     C18 4595   2.281   3.096  -0.114  0.0909  0.6560 -0.0372
  200DG     O19 4596   2.191   3.116  -0.009 -0.0341  0.4908  0.8684
  200DG     H20 4597   2.174   2.931   0.064  1.7381 -3.6257  1.4632
  200DG     H21 4598   2.305   3.025   0.143  0.5379  2.5232 -0.1935
  200DG     H22 4599   2.274   2.995  -0.155  0.9363  2.1523 -0.0149
  200DG     H23 4600   2.384   3.106  -0.068  3.1389  1.4365 -3.5475
  201DG      C1 4601   5.003   0.702   1.266  0.0098 -0.7758  0.6654
  201DG      C2 4602   5.457   0.571   0.683 -1.0125 -0.6380 -0.3461
  201DG      H3 4603   5.038   0.765   1.345 -1.7380 -1.2316  0.6009
  201DG      H4 4604   5.053   0.615   1.291  0.7806  0.7666 -1.2308
  201DG      H5 4605   4.897   0.691   1.280 -1.4959  1.5736 -0.9619
  201DG      H6 4606   5.402   0.473   0.681 -0.4391  0.6085  0.6248
  201DG      H7 4607   5.426   0.620   0.593 -0.5817 -0.6789  1.4815
  201DG      H8 4608   5.571   0.558   0.670  3.1728  0.6781 -0.2402
  201DG      O9 4609   5.057   0.746   1.142  0.0142  0.4360 -0.1292
  201DG     O10 4610   5.421   0.635   0.804  0.0780 -0.4825 -0.4359
  201DG     C11 4611   4.992   0.856   1.088  0.0140 -0.8287  0.2151
  201DG     C12 4612   5.287   0.678   0.800  0.7690  0.1758 -0.0740
  201DG     H13 4613   4.966   0.935   1.162 -1.1021  0.8921 -1.1284
  201DG     H14 4614   4.899   0.819   1.041  1.0947 -0.8360 -1.1472
  201DG     H15 4615   5.208   0.597   0.799 -0.2044 -2.9265 -0.8028
  201DG     H16 4616   5.275   0.740   0.710  0.1573  1.6133  0.5297
  201DG     C17 4617   5.079   0.922   0.982 -0.6411 -0.2758 -0.1517
  201DG     C18 4618   5.251   0.760   0.920  0.2849  0.2913 -0.4389
  201DG     O19 4619   5.123   0.822   0.891  0.2128 -0.3262  0.3068
  201DG     H20 4620   5.163   0.972   1.029 -4.4923 -0.3736  1.6455
  201DG     H21 4621   5.023   1.006   0.941  0.2445 -2.4629 -3.8230
  201DG     H22 4622   5.253   0.712   1.017 -1.4203  0.1908 -0.1225
  201DG     H23 4623   5.328   0.841   0.930 -1.2389  0.3710  3.3033
  202DG      C1 4624   5.224   4.135   5.254 -0.4690  0.1264  0.0834
  202DG      C2 4625   5.136   4.366   4.645  0.5810 -0.0074  0.1691
  202DG      H3 4626   5.279   4.079   5.328 -1.8984 -0.6886  1.8480
  202DG      H4 4627   5.120   4.106   5.271 -2.0214 -1.5189 -0.0763
  202DG      H5 4628   5.236   4.246   5.269 -1.8793  0.3989 -0.8119
  202DG      H6 4629   5.191   4.450   4.675 -1.9159  1.5940 -1.1857
  202DG      H7 4630   5.113   4.364   4.537 -0.9997 -0.6069  0.0531
  202DG      H8 4631   5.038   4.371   4.696 -2.5604  0.6818  0.7828
  202DG      O9 4632   5.255   4.093   5.123  0.5601  0.4527  0.5436
  202DG     O10 4633   5.211   4.253   4.682  0.3466  0.0282 -0.0962
  202DG     C11 4634   5.396   4.097   5.097 -0.0613 -0.4377  0.1245
  202DG     C12 4635   5.349   4.248   4.648 -0.4348 -0.0503 -0.1471
  202DG     H13 4636   5.444   4.015   5.155 -0.0127  0.3741 -0.4162
  202DG     H14 4637   5.440   4.186   5.128 -0.5085  0.7751  0.6933
  202DG     H15 4638   5.392   4.346   4.667 -2.4294  0.3226  2.5398
  202DG     H16 4639   5.348   4.216   4.544 -0.7870  1.9589 -2.9259
  202DG     C17 4640   5.441   4.069   4.960  0.3082  0.1899 -0.1207
  202DG     C18 4641   5.422   4.139   4.730  0.2311  0.5436 -0.8898
  202DG     O19 4642   5.379   4.161   4.868  0.2348 -0.2101  0.4365
  202DG     H20 4643   5.438   3.963   4.940  1.5518  0.1166  1.1334
  202DG     H21 4644   5.542   4.087   4.949  1.1418 -2.1744  3.0808
  202DG     H22 4645   5.403   4.036   4.693  3.6975 -2.4565  0.9431
  202DG     H23 4646   5.527   4.163   4.712  0.3759  2.0172 -0.5179
  203DG      C1 4647   1.684   2.612   2.726 -0.3249 -0.8751 -0.4261
  203DG      C2 4648   2.008   3.001   2.317 -0.3306  0.4223 -0.2046
  203DG      H3 4649   1.617   2.676   2.664 -2.9517 -0.7123 -1.4801
  203DG      H4 4650   1.660   2.626   2.831 -1.1390  0.4303  1.4015
  203DG      H5 4651   1.672   2.504   2.705  0.9954 -1.6629  0.2505
  203DG      H6 4652   2.012   2.985   2.214 -0.7343  1.6787 -1.4269
  203DG      H7 4653   1.917   3.054   2.324 -1.2982 -0.9235 -0.5759
  203DG      H8 4654   2.089   3.074   2.347 -1.8415  1.8293  2.1546
  203DG      O9 4655   1.812   2.656   2.692 -0.1478  0.4141 -0.0018
  203DG     O10 4656   2.017   2.876   2.399 -0.2323 -0.4702  0.2182
  203DG     C11 4657   1.908   2.559   2.716 -0.0871 -0.1054 -0.0118
  203DG     C12 4658   2.140   2.815   2.387  0.4878  0.3119  0.2941
  203DG     H13 4659   1.887   2.467   2.664 -0.3260  2.2183  1.9129
  203DG     H14 4660   1.908   2.533   2.821 -0.3431 -0.8265 -0.1926
  203DG     H15 4661   2.221   2.881   2.386  0.7523 -0.2558  1.9002
  203DG     H16 4662   2.144   2.764   2.293  0.2921 -0.1956  0.7621
  203DG     C17 4663   2.045   2.621   2.684 -1.3611 -0.2722 -0.1237
  203DG     C18 4664   2.166   2.714   2.499  0.2011  0.5308 -0.6519
  203DG     O19 4665   2.047   2.651   2.546 -0.1350  0.5032 -0.1334
  203DG     H20 4666   2.119   2.548   2.704 -1.1943  0.5650  2.0320
  203DG     H21 4667   2.068   2.714   2.741  0.2661 -1.2180  0.3128
  203DG     H22 4668   2.244   2.646   2.479  1.6263  1.6128 -0.9197
  203DG     H23 4669   2.208   2.769   2.588  0.5337  2.7491  0.3046
  204DG      C1 4670   4.021   1.378   0.109 -0.1924 -0.0951  0.1620
  204DG      C2 4671   4.147   1.086   0.649 -0.2275 -0.0101 -1.1591
  204DG      H3 4672   3.947   1.427   0.171 -2.7184 -4.3221 -2.4607
  204DG      H4 4673   3.992   1.277   0.072  1.0352  1.9470 -1.4858
  204DG      H5 4674   4.033   1.430   0.012  1.9547 -1.8117 -3.2033
  204DG      H6 4675   4.062   1.138   0.669  1.7389  2.6481 -1.2633
  204DG      H7 4676   4.125   0.995   0.596 -1.3046  1.5703  0.3865
  204DG      H8 4677   4.209   1.062   0.735 -0.3477  1.9054 -0.0240
  204DG      O9 4678   4.139   1.359   0.178  0.2215  0.0221 -0.9820
  204DG     O10 4679   4.225   1.161   0.556 -0.2554 -0.2404  0.6763
  204DG     C11 4680   4.196   1.472   0.235  0.1614  0.2956 -0.6297
  204DG     C12 4681   4.279   1.274   0.624  0.6343  0.0553  0.3907
  204DG     H13 4682   4.141   1.518   0.319 -0.2168  2.4106  1.6393
  204DG     H14 4683   4.209   1.555   0.158  1.2467  4.1464 -0.8508
  204DG     H15 4684   4.372   1.247   0.677 -0.5834 -0.4515  0.1969
  204DG     H16 4685   4.210   1.317   0.703  0.7913 -1.4061  2.3925
  204DG     C17 4686   4.337   1.427   0.277  0.2057 -0.3527  0.0798
  204DG     C18 4687   4.308   1.383   0.513  0.4103  0.8262  0.0019
  204DG     O19 4688   4.324   1.326   0.384 -0.3934  0.1018  0.6343
  204DG     H20 4689   4.388   1.519   0.308 -0.1074 -0.5146 -0.9732
  204DG     H21 4690   4.388   1.394   0.191 -0.5785  2.0296 -2.9084
  204DG     H22 4691   4.230   1.463   0.505  2.6021  1.2532 -0.3111
  204DG     H23 4692   4.405   1.436   0.525 -0.7487 -2.6189 -1.5684
  205DG      C1 4693   1.204   3.612   2.612 -0.5140 -0.1904 -0.0179
  205DG      C2 4694   0.807   3.888   2.135 -0.1869  0.0444 -0.2471
  205DG      H3 4695   1.307   3.570   2.594  0.5970 -0.2132 -0.7397
  205DG      H4 4696   1.146   3.564   2.684  0.8552 -0.0690  0.5755
  205DG      H5 4697   1.217   3.717   2.626 -4.1350  2.2295 -2.8417
  205DG      H6 4698   0.848   3.975   2.183  0.2546 -1.1528  0.2339
  205DG      H7 4699   0.801   3.911   2.032  1.5355  2.1156 -0.4787
  205DG      H8 4700   0.712   3.881   2.182  3.0951  1.6265 -0.8513
  205DG      O9 4701   1.146   3.600   2.483  0.5978  0.1116  0.2192
  205DG     O10 4702   0.882   3.775   2.168  0.3583  0.8127  0.4382
  205DG     C11 4703   1.106   3.468   2.446 -0.2492 -0.0257  0.0302
  205DG     C12 4704   0.851   3.670   2.080  0.2183  0.4450  0.4312
  205DG     H13 4705   1.015   3.445   2.509  0.8368 -0.7342  1.1257
  205DG     H14 4706   1.183   3.391   2.469 -0.6730  2.5394 -0.0832
  205DG     H15 4707   0.877   3.696   1.970 -0.7937  2.2638 -1.8520
  205DG     H16 4708   0.743   3.654   2.090  0.3661 -3.3206 -1.4448
  205DG     C17 4709   1.073   3.459   2.293 -0.0458 -0.4332 -0.1296
  205DG     C18 4710   0.957   3.559   2.116  0.9318  0.6540 -0.1015
  205DG     O19 4711   0.982   3.558   2.253 -0.2397 -0.0098  0.2725
  205DG     H20 4712   1.033   3.357   2.277 -1.7475  0.3955 -0.4907
  205DG     H21 4713   1.168   3.455   2.242  1.7943  0.8512  0.2565
  205DG     H22 4714   0.922   3.455   2.090  1.0019 -2.0921 -0.1953
  205DG     H23 4715   1.051   3.582   2.067  1.9174 -0.8367 -0.7243
  206DG      C1 4716   4.013   2.314   2.283  0.2027 -0.0819  0.8915
  206DG      C2 4717   4.343   2.206   1.676  0.1241  0.5082  0.0091
  206DG      H3 4718   3.976   2.390   2.356  0.8181 -0.6278 -1.8938
  206DG      H4 4719   4.092   2.263   2.338 -0.9210  1.2671 -2.0602
  206DG      H5 4720   3.936   2.238   2.265 -0.1436  3.2627 -0.2113
  206DG      H6 4721   4.448   2.231   1.679 -0.2198 -0.0959 -2.7396
  206DG      H7 4722   4.331   2.115   1.735 -0.9450  1.1627 -0.7461
  206DG      H8 4723   4.297   2.191   1.576 -1.9216 -2.2527  0.7991
  206DG      O9 4724   4.063   2.372   2.164  0.6646 -0.1216 -0.2146
  206DG     O10 4725   4.272   2.294   1.767 -0.2255  0.1057 -0.3169
  206DG     C11 4726   3.960   2.440   2.100 -0.1827  0.4540 -0.2114
  206DG     C12 4727   4.216   2.398   1.692  1.0121  0.0486 -0.1873
  206DG     H13 4728   3.897   2.510   2.161  1.5947 -2.0296 -2.1638
  206DG     H14 4729   3.894   2.376   2.048 -2.8801  0.0557  0.6301
  206DG     H15 4730   4.148   2.361   1.620  0.8631  1.4143 -2.2474
  206DG     H16 4731   4.293   2.447   1.639 -0.6996  1.0163 -0.1832
  206DG     C17 4732   4.019   2.516   1.983 -0.3907  0.3211  0.5144
  206DG     C18 4733   4.153   2.507   1.784  0.0385 -0.3965  0.0742
  206DG     O19 4734   4.074   2.439   1.881 -0.4216  0.5602 -0.1498
  206DG     H20 4735   4.103   2.573   2.029 -2.7958  2.0671  1.0998
  206DG     H21 4736   3.947   2.596   1.945 -1.2369 -1.6491  0.4143
  206DG     H22 4737   4.240   2.566   1.818 -3.0805 -2.3273 -2.3998
  206DG     H23 4738   4.083   2.563   1.714 -0.7295  1.1576 -2.7313
  207DG      C1 4739   3.307   3.926   2.523 -0.2451  0.0386  0.3680
  207DG      C2 4740   2.844   4.107   2.198  0.2380  0.7115  0.0756
  207DG      H3 4741   3.340   4.009   2.454  0.5407  1.1459 -1.5608
  207DG      H4 4742   3.378   3.846   2.498  1.8170  2.2505  1.4796
  207DG      H5 4743   3.321   3.948   2.627 -1.3278 -0.2593 -0.0042
  207DG      H6 4744   2.760   4.145   2.147  4.0127  0.2483  2.0481
  207DG      H7 4745   2.925   4.175   2.178 -1.0735 -2.9901 -0.9056
  207DG      H8 4746   2.872   4.010   2.155 -0.6196 -0.0328 -0.2456
  207DG      O9 4747   3.168   3.914   2.497 -0.2129 -0.1687 -0.2700
  207DG     O10 4748   2.823   4.092   2.337 -0.2274 -0.9550 -0.2265
  207DG     C11 4749   3.102   3.813   2.575  0.5101  0.7145 -0.0550
  207DG     C12 4750   2.724   3.998   2.371  0.1191 -0.2483  0.0351
  207DG     H13 4751   3.090   3.837   2.685  0.8750 -0.9961  0.8950
  207DG     H14 4752   3.166   3.720   2.586  2.4559 -0.3416  0.4178
  207DG     H15 4753   2.642   3.988   2.298  2.2069 -0.5786 -1.0013
  207DG     H16 4754   2.682   4.041   2.462  1.8435  0.7713  0.8289
  207DG     C17 4755   2.975   3.762   2.506  0.0783  0.8009  0.1017
  207DG     C18 4756   2.792   3.857   2.394  0.2438  0.1088  0.4772
  207DG     O19 4757   2.897   3.875   2.485  0.4390 -0.9553 -0.0823
  207DG     H20 4758   2.923   3.685   2.564 -1.1888  0.9701 -1.7429
  207DG     H21 4759   3.010   3.719   2.408  0.0708 -2.5669  0.7535
  207DG     H22 4760   2.726   3.782   2.420  2.4331  1.4480 -2.1906
  207DG     H23 4761   2.836   3.820   2.299 -0.0747  1.2446 -3.1839
  208DG      C1 4762   0.821   3.048   1.968  0.4616 -0.4809  0.2480
  208DG      C2 4763   0.899   2.477   2.361  0.0672  0.4470  0.4990
  208DG      H3 4764   0.864   3.003   1.878 -0.6568 -2.4280 -0.1921
  208DG      H4 4765   0.831   3.156   1.961 -0.7382  1.7368 -2.5371
  208DG      H5 4766   0.716   3.017   1.973 -1.2200  0.7788  0.6128
  208DG      H6 4767   0.796   2.448   2.337 -2.0573 -1.7971  0.1965
  208DG      H7 4768   0.967   2.418   2.302  0.2394  1.5496 -0.8504
  208DG      H8 4769   0.916   2.440   2.462  0.8714  0.0992  0.3761
  208DG      O9 4770   0.885   3.011   2.085 -0.0298  0.0545 -0.2465
  208DG     O10 4771   0.914   2.620   2.366 -0.0345 -0.5211  0.0956
  208DG     C11 4772   1.025   3.038   2.095 -0.4971  0.3917 -1.1106
  208DG     C12 4773   1.039   2.657   2.417  0.7302  0.4643  0.2315
  208DG     H13 4774   1.039   3.147   2.076  3.3277 -0.4692  1.3429
  208DG     H14 4775   1.070   2.979   2.022  1.2298 -1.5679 -0.8546
  208DG     H15 4776   1.109   2.594   2.371 -2.2597  0.0726  0.0036
  208DG     H16 4777   1.036   2.640   2.523  0.0736 -2.2160  0.1644
  208DG     C17 4778   1.072   2.993   2.234 -0.6391 -0.8251  0.2444
  208DG     C18 4779   1.080   2.802   2.392  0.0072  0.0322 -0.9523
  208DG     O19 4780   1.044   2.852   2.260  0.0929  0.2005  0.0073
  208DG     H20 4781   1.027   3.065   2.309  2.1861 -0.9357  0.6341
  208DG     H21 4782   1.185   3.006   2.243 -1.1442  1.1576 -0.5498
  208DG     H22 4783   1.042   2.872   2.462  0.7953 -0.6565 -1.2790
  208DG     H23 4784   1.186   2.816   2.405 -1.3066  0.5660 -0.1240
  209DG      C1 4785   5.428   2.934   4.868  0.3196 -0.3350 -0.5300
  209DG      C2 4786   5.158   3.258   5.542 -0.3025  0.4253  0.8033
  209DG      H3 4787   5.519   2.993   4.845  0.9434 -3.6192  0.2534
  209DG      H4 4788   5.343   2.997   4.844 -0.6392  1.5210 -0.9073
  209DG      H5 4789   5.437   2.841   4.811 -0.7948 -3.9282 -0.9926
  209DG      H6 4790   5.100   3.174   5.578  0.7766  1.7942 -0.1255
  209DG      H7 4791   5.220   3.283   5.621 -0.4177  0.0491 -3.3545
  209DG      H8 4792   5.086   3.338   5.523  0.0679 -0.9385 -0.8392
  209DG      O9 4793   5.440   2.903   5.007  0.5715 -0.3673  0.4973
  209DG     O10 4794   5.229   3.217   5.427 -0.1060 -0.2061 -0.0413
  209DG     C11 4795   5.323   2.859   5.065  0.3395  0.4970 -0.0457
  209DG     C12 4796   5.161   3.156   5.318 -0.3607  0.5209 -0.1598
  209DG     H13 4797   5.315   2.750   5.052  0.7811  1.6792 -0.9099
  209DG     H14 4798   5.231   2.892   5.022 -0.7491 -1.9887 -2.1921
  209DG     H15 4799   5.072   3.213   5.282  0.5597  2.9961 -1.3322
  209DG     H16 4800   5.126   3.061   5.358 -0.0004  0.3658 -1.2265
  209DG     C17 4801   5.316   2.883   5.216 -0.1006 -0.3265 -0.0647
  209DG     C18 4802   5.263   3.115   5.213 -0.6497  0.0323 -0.3707
  209DG     O19 4803   5.351   3.014   5.259  0.0520 -0.5294 -0.2289
  209DG     H20 4804   5.379   2.816   5.266  0.3889  0.1089  0.7679
  209DG     H21 4805   5.215   2.862   5.253 -0.2577  0.3311  0.0896
  209DG     H22 4806   5.203   3.081   5.132  3.0078  2.5080  6.1728
  209DG     H23 4807   5.313   3.201   5.169 -0.8694  1.3142  0.6249
  210DG      C1 4808   4.967   0.147   3.712 -0.3182 -0.2457 -0.9166
  210DG      C2 4809   4.705   0.577   4.189 -0.0233 -0.1764 -0.1632
  210DG      H3 4810   5.072   0.117   3.725 -0.8575  0.7034  0.2847
  210DG      H4 4811   4.934   0.120   3.615  0.5240  0.3902  1.4543
  210DG      H5 4812   4.899   0.090   3.769 -3.8637 -0.1421 -1.6328
  210DG      H6 4813   4.632   0.497   4.208  1.6982 -2.1408  2.0764
  210DG      H7 4814   4.779   0.574   4.268 -2.1704  1.3667 -2.1562
  210DG      H8 4815   4.648   0.671   4.193 -3.8735 -2.0409 -1.1571
  210DG      O9 4816   4.941   0.283   3.756 -0.2555 -0.0370  0.0311
  210DG     O10 4817   4.764   0.576   4.058  0.8889 -0.7402  0.2636
  210DG     C11 4818   5.026   0.370   3.686 -0.1236  0.0408 -0.0395
  210DG     C12 4819   4.878   0.660   4.047  0.1002  0.4438 -0.1644
  210DG     H13 4820   5.028   0.351   3.578  2.7975  2.6080  1.4968
  210DG     H14 4821   5.126   0.351   3.721  1.4012  1.0258  0.8626
  210DG     H15 4822   4.960   0.616   4.105 -1.1316  0.6673 -2.3361
  210DG     H16 4823   4.849   0.755   4.083 -1.2477  0.0440  0.1353
  210DG     C17 4824   4.994   0.520   3.721 -0.8022  0.2753  0.3222
  210DG     C18 4825   4.916   0.664   3.896  0.0257  0.7807  0.4914
  210DG     O19 4826   4.957   0.535   3.853  0.3265 -0.1888 -1.0223
  210DG     H20 4827   4.911   0.562   3.664 -0.9522  0.7267  2.9285
  210DG     H21 4828   5.085   0.586   3.705  0.8605  0.8461  0.2888
  210DG     H22 4829   4.834   0.688   3.833 -0.7475  0.8971 -2.6981
  210DG     H23 4830   4.990   0.738   3.873 -1.9014  2.3419 -0.4772
  211DG      C1 4831   4.412   5.090   5.390 -0.0927 -0.0006  0.1973
  211DG      C2 4832   4.200   4.560   5.340  0.3430 -0.2845  0.4918
  211DG      H3 4833   4.341   5.060   5.308 -2.4146  1.7884 -0.4986
  211DG      H4 4834   4.511   5.046   5.368  0.1391 -0.4122 -0.4734
  211DG      H5 4835   4.414   5.199   5.396 -2.1547 -0.4823 -2.8356
  211DG      H6 4836   4.136   4.515   5.261  2.2243 -1.4895 -1.2545
  211DG      H7 4837   4.302   4.557   5.304 -1.0765 -1.0653  0.6320
  211DG      H8 4838   4.199   4.486   5.425  0.8290  0.4669  1.5096
  211DG      O9 4839   4.367   5.035   5.510 -0.3183 -0.1103  0.3009
  211DG     O10 4840   4.166   4.700   5.369 -0.2034 -0.1763 -0.0966
  211DG     C11 4841   4.261   5.100   5.573 -0.3821  0.2643 -0.5346
  211DG     C12 4842   4.029   4.731   5.380 -0.3435 -0.1263  0.7327
  211DG     H13 4843   4.276   5.209   5.579 -4.1572 -0.9691  0.8577
  211DG     H14 4844   4.262   5.065   5.671  0.3461 -0.1562  0.7122
  211DG     H15 4845   3.993   4.672   5.466 -1.2751 -0.8841  0.1209
  211DG     H16 4846   3.972   4.694   5.295  0.7028 -1.2831  0.9528
  211DG     C17 4847   4.131   5.068   5.506 -0.3129  0.1167 -0.2903
  211DG     C18 4848   4.015   4.884   5.403 -0.0852 -0.7828 -0.0520
  211DG     O19 4849   4.114   4.928   5.501  0.1931  0.4711 -0.4658
  211DG     H20 4850   4.123   5.106   5.403  0.4012  0.2851  1.2806
  211DG     H21 4851   4.050   5.117   5.557  1.8760  0.8094  1.3120
  211DG     H22 4852   4.030   4.945   5.315  0.4733 -0.7167  2.3502
  211DG     H23 4853   3.920   4.921   5.444 -1.7278  3.3899 -0.7915
  212DG      C1 4854   0.012   3.270   4.671 -0.1757  0.0475  0.8403
  212DG      C2 4855   0.637   3.202   4.810  0.3023 -0.0394  0.2836
  212DG      H3 4856   0.006   3.275   4.778 -0.5321  2.9476 -1.9678
  212DG      H4 4857  -0.086   3.230   4.644  0.5755  2.1126  1.9951
  212DG      H5 4858   0.025   3.373   4.629 -1.6021 -1.0255 -0.6436
  212DG      H6 4859   0.610   3.209   4.917  0.1458  1.5687 -0.2622
  212DG      H7 4860   0.733   3.161   4.787  1.8819 -0.2580 -0.4200
  212DG      H8 4861   0.636   3.314   4.784  0.6926  2.0440  2.2357
  212DG      O9 4862   0.116   3.189   4.622  0.0823  0.1518 -0.1623
  212DG     O10 4863   0.542   3.127   4.742  0.3859  0.2886 -0.2914
  212DG     C11 4864   0.118   3.187   4.484 -0.8419  0.0182 -0.3972
  212DG     C12 4865   0.572   3.127   4.607 -0.2356  0.5563 -0.2052
  212DG     H13 4866   0.124   3.275   4.433  2.2388  2.8518 -0.9409
  212DG     H14 4867   0.032   3.131   4.445 -1.0353 -0.0959  1.6007
  212DG     H15 4868   0.667   3.077   4.579 -1.7757  2.1320  0.8205
  212DG     H16 4869   0.574   3.227   4.575 -0.3993  0.1079 -0.4184
  212DG     C17 4870   0.236   3.091   4.455  0.2360  0.8447 -0.1568
  212DG     C18 4871   0.458   3.064   4.527 -0.1847  0.4529 -0.6517
  212DG     O19 4872   0.341   3.142   4.535 -0.3375 -0.1479 -0.3311
  212DG     H20 4873   0.253   3.083   4.343  3.3603 -0.1949 -2.6910
  212DG     H21 4874   0.204   2.990   4.484  0.4397  1.3345 -0.4602
  212DG     H22 4875   0.495   3.038   4.427 -0.9619 -1.5616 -0.2768
  212DG     H23 4876   0.439   2.962   4.561  0.4140  0.0836  2.6969
  213DG      C1 4877   4.748   2.476   1.560  0.2484 -0.1825  0.3228
  213DG      C2 4878   5.021   2.000   1.182 -0.3553  0.7000  0.1491
  213DG      H3 4879   4.754   2.524   1.466 -0.1783  0.3695  3.8202
  213DG      H4 4880   4.795   2.536   1.636 -1.2547  0.8542 -0.5753
  213DG      H5 4881   4.635   2.463   1.577 -0.7981  0.6169  1.4876
  213DG      H6 4882   4.926   1.995   1.138  0.7709  0.4229 -1.3415
  213DG      H7 4883   5.083   2.073   1.132 -0.9622 -0.7188 -2.8852
  213DG      H8 4884   5.065   1.899   1.177  0.2013 -1.5741 -0.4236
  213DG      O9 4885   4.814   2.349   1.562  0.2927  0.3138 -0.5601
  213DG     O10 4886   5.021   2.037   1.318  0.0184 -0.5096 -0.7855
  213DG     C11 4887   4.786   2.281   1.683 -0.4749 -0.3199  0.0594
  213DG     C12 4888   4.965   1.936   1.392  0.2436  0.0013 -0.2137
  213DG     H13 4889   4.678   2.243   1.680 -2.3831  1.7036  0.9989
  213DG     H14 4890   4.798   2.343   1.768 -1.1007 -1.4923 -0.8392
  213DG     H15 4891   5.027   1.846   1.380 -0.6656  1.2048  0.3801
  213DG     H16 4892   4.865   1.925   1.353 -0.5144 -0.9716 -1.9362
  213DG     C17 4893   4.877   2.150   1.691  0.4562 -0.5316 -0.3403
  213DG     C18 4894   4.956   1.984   1.540 -0.1288  0.1171  0.3672
  213DG     O19 4895   4.883   2.105   1.554 -0.2540 -0.2818 -0.2331
  213DG     H20 4896   4.839   2.073   1.759  0.1514 -0.6133 -2.3049
  213DG     H21 4897   4.982   2.179   1.719  2.9061  0.1379  0.9049
  213DG     H22 4898   4.903   1.912   1.608 -1.1395 -0.5100  0.5002
  213DG     H23 4899   5.056   1.986   1.582  1.1924 -1.5587 -0.6276
  214DG      C1 4900   2.256   0.535   3.228  0.5005 -0.5666  0.5428
  214DG      C2 4901   2.309   1.076   3.138 -0.1662 -0.5674 -0.2003
  214DG      H3 4902   2.325   0.447   3.207  2.1207 -1.9101 -1.1748
  214DG      H4 4903   2.168   0.476   3.266 -1.3861 -1.5285 -2.2996
  214DG      H5 4904   2.298   0.591   3.311  0.0301 -1.4283  0.5703
  214DG      H6 4905   2.402   1.021   3.138 -2.5538  1.2217  0.7661
  214DG      H7 4906   2.328   1.177   3.101 -1.7703  1.1691 -0.6061
  214DG      H8 4907   2.279   1.090   3.238  0.3201 -0.7546 -3.0895
  214DG      O9 4908   2.209   0.626   3.125 -0.6374 -0.2280  0.1638
  214DG     O10 4909   2.204   1.026   3.059 -0.3201 -0.1722 -0.3052
  214DG     C11 4910   2.125   0.563   3.028  0.4984 -0.4159 -0.6007
  214DG     C12 4911   2.246   0.979   2.937 -0.2501 -0.5254 -0.1839
  214DG     H13 4912   2.024   0.539   3.064  0.7787  1.0368 -0.6086
  214DG     H14 4913   2.175   0.466   2.996  0.2876  0.1287 -0.4345
  214DG     H15 4914   2.336   0.921   2.951  0.4847 -1.9293  2.0612
  214DG     H16 4915   2.277   1.073   2.883  1.0586 -0.2536  1.7804
  214DG     C17 4916   2.110   0.658   2.910  0.7082 -0.0812 -0.2614
  214DG     C18 4917   2.141   0.901   2.866 -0.2932  0.0639 -0.4460
  214DG     O19 4918   2.116   0.795   2.957 -0.3056 -0.5556  0.1484
  214DG     H20 4919   2.007   0.657   2.865  0.8572 -1.0445  0.8154
  214DG     H21 4920   2.177   0.631   2.829  0.5500 -0.3419 -1.6384
  214DG     H22 4921   2.054   0.957   2.836 -1.9791  1.0851 -0.3344
  214DG     H23 4922   2.175   0.860   2.774 -1.4544 -0.1240 -1.6710
  215DG      C1 4923   1.233   4.945   1.349 -0.0878 -0.0629 -0.0168
  215DG      C2 4924   1.839   5.184   1.379 -0.3085  0.6176 -0.1004
  215DG      H3 4925   1.146   5.006   1.330 -1.0671  1.8985 -0.0974
  215DG      H4 4926   1.210   4.841   1.367 -1.3313 -1.9351 -1.5016
  215DG      H5 4927   1.282   4.936   1.254 -0.9603  2.1699  0.8839
  215DG      H6 4928   1.878   5.102   1.322 -0.8669 -3.1217 -1.1430
  215DG      H7 4929   1.756   5.222   1.327  2.1598  1.7429  0.2079
  215DG      H8 4930   1.903   5.277   1.398 -1.7421  2.1491 -0.1882
  215DG      O9 4931   1.326   4.998   1.450  0.5955  0.2202  0.2483
  215DG     O10 4932   1.837   5.128   1.505  0.0825 -0.1282  0.6265
  215DG     C11 4933   1.338   5.143   1.437  0.3964  0.8463  0.0240
  215DG     C12 4934   1.785   5.217   1.593  0.2070 -0.0160  0.2287
  215DG     H13 4935   1.245   5.198   1.444  0.7869 -2.9003  2.1755
  215DG     H14 4936   1.380   5.151   1.343 -2.2067 -0.2538  1.4492
  215DG     H15 4937   1.802   5.320   1.558  0.0762 -0.9777 -3.3371
  215DG     H16 4938   1.848   5.210   1.677 -1.4856 -0.4319 -3.5276
  215DG     C17 4939   1.424   5.206   1.548  0.1339  0.0918 -0.6226
  215DG     C18 4940   1.639   5.195   1.635 -0.0800  0.3229 -0.0152
  215DG     O19 4941   1.554   5.168   1.528 -0.0145  0.3824  0.6032
  215DG     H20 4942   1.380   5.166   1.637  0.3432  0.0246 -0.6777
  215DG     H21 4943   1.411   5.316   1.553  2.6876 -1.5227  2.1422
  215DG     H22 4944   1.633   5.107   1.693  1.3118  1.2778  2.6221
  215DG     H23 4945   1.606   5.277   1.704 -4.0076  2.9922  1.9727
  216DG      C1 4946   3.804   1.703   1.100  0.8601  0.2856  0.4707
  216DG      C2 4947   4.019   1.102   1.101  0.3551 -0.7833 -0.0929
  216DG      H3 4948   3.749   1.644   1.176 -1.9266  2.0250  1.5683
  216DG      H4 4949   3.718   1.760   1.052 -0.2474  1.0671  0.5690
  216DG      H5 4950   3.877   1.764   1.154 -0.8171 -2.9991 -0.5564
  216DG      H6 4951   4.108   1.104   1.043  0.9324  0.7083 -0.4784
  216DG      H7 4952   4.038   1.088   1.207 -1.6255  0.8506  1.0293
  216DG      H8 4953   3.965   1.020   1.066  2.8725  1.9170  1.9093
  216DG      O9 4954   3.860   1.601   1.021 -0.9564 -0.1976 -0.1621
  216DG     O10 4955   3.952   1.226   1.077  0.2719 -0.4525 -0.3933
  216DG     C11 4956   3.912   1.661   0.898 -0.7949  0.2374 -0.9281
  216DG     C12 4957   4.026   1.353   1.080 -0.7831  0.3709 -0.2998
  216DG     H13 4958   3.963   1.757   0.914  0.9988 -0.2488 -1.9922
  216DG     H14 4959   3.822   1.676   0.837 -1.4062 -0.2994  0.7994
  216DG     H15 4960   4.116   1.337   1.139  0.4152  1.4033 -0.8475
  216DG     H16 4961   3.961   1.423   1.129 -0.7453 -0.3587  1.6906
  216DG     C17 4962   4.027   1.577   0.828  0.3778 -0.4099 -0.3752
  216DG     C18 4963   4.083   1.387   0.946  0.4048  0.6992  0.1288
  216DG     O19 4964   4.108   1.522   0.932 -0.2561  0.3851 -0.2262
  216DG     H20 4965   4.085   1.643   0.759  1.6761 -1.0238 -0.7152
  216DG     H21 4966   3.981   1.507   0.772  1.6859 -0.0011  1.0034
  216DG     H22 4967   4.181   1.336   0.942 -1.1166  1.8242 -0.4898
  216DG     H23 4968   4.022   1.331   0.871 -1.3676 -1.7590  1.9635
  217DG      C1 4969   2.342   2.227   3.406  0.0630  0.0070 -0.1514
  217DG      C2 4970   2.710   2.734   3.289 -0.8316 -0.2020 -0.4941
  217DG      H3 4971   2.383   2.237   3.306 -0.1177 -1.6923 -2.0716
  217DG      H4 4972   2.258   2.153   3.393  1.3082  1.8314 -2.6424
  217DG      H5 4973   2.414   2.180   3.470  0.1219  1.5978  1.4261
  217DG      H6 4974   2.750   2.819   3.341 -0.7240 -0.8367 -1.9019
  217DG      H7 4975   2.793   2.665   3.268 -0.7251  0.6375 -2.6965
  217DG      H8 4976   2.667   2.766   3.192  2.3734 -0.4807  0.5413
  217DG      O9 4977   2.307   2.339   3.479 -0.2244  0.1714  0.5932
  217DG     O10 4978   2.598   2.685   3.362  0.4626 -0.7412 -0.1006
  217DG     C11 4979   2.219   2.427   3.417 -0.0026  0.2039 -0.5065
  217DG     C12 4980   2.507   2.789   3.402 -0.0139 -0.0447  1.0862
  217DG     H13 4981   2.124   2.373   3.433 -1.1427  0.7749  0.3670
  217DG     H14 4982   2.245   2.429   3.312  0.6485 -0.6151  1.2517
  217DG     H15 4983   2.453   2.832   3.313  0.0348  1.4349 -4.0084
  217DG     H16 4984   2.559   2.867   3.458 -0.8062  2.3614 -0.2431
  217DG     C17 4985   2.238   2.560   3.491 -0.4635  0.7448  0.4119
  217DG     C18 4986   2.401   2.726   3.493  1.1141 -0.2740  0.3153
  217DG     O19 4987   2.362   2.611   3.440  0.2993  0.4621  0.2181
  217DG     H20 4988   2.244   2.556   3.605 -2.7237 -0.4087 -1.0005
  217DG     H21 4989   2.165   2.648   3.465 -2.0895  0.4523 -0.1835
  217DG     H22 4990   2.435   2.719   3.596 -0.5763 -0.5487 -4.3407
  217DG     H23 4991   2.318   2.801   3.501 -1.0263  1.8097 -0.3899
  218DG      C1 4992   0.273   1.954   2.415  0.0595  0.3215  0.5947
  218DG      C2 4993   0.366   2.027   3.061 -0.1025  0.7378  0.0235
  218DG      H3 4994   0.334   2.039   2.438 -1.6259  3.0353 -3.3372
  218DG      H4 4995   0.190   1.995   2.350 -1.6941 -0.3004  1.0775
  218DG      H5 4996   0.320   1.882   2.344 -1.3088 -0.5946 -0.9773
  218DG      H6 4997   0.348   1.995   3.162 -1.0361  0.6864 -1.0960
  218DG      H7 4998   0.478   2.033   3.051  2.9631 -0.6372  0.6740
  218DG      H8 4999   0.322   2.125   3.056 -1.9125 -1.7217  1.2475
  218DG      O9 5000   0.240   1.878   2.528  0.0301  0.0412  0.0591
  218DG     O10 5001   0.310   1.942   2.960  0.0097 -0.2229  0.3621
  218DG     C11 5002   0.349   1.798   2.573 -0.1183 -0.5144  0.4056
  218DG     C12 5003   0.323   1.800   2.998  0.0877 -0.6066 -0.1928
  218DG     H13 5004   0.429   1.874   2.593 -0.8626  0.0548  0.1832
  218DG     H14 5005   0.391   1.731   2.499 -3.7901 -3.6256  0.3420
  218DG     H15 5006   0.310   1.780   3.109 -0.6049 -1.3022  0.8848
  218DG     H16 5007   0.424   1.771   2.961  0.3286 -2.0995 -1.2245
  218DG     C17 5008   0.304   1.703   2.682 -0.1140 -0.8225 -1.1839
  218DG     C18 5009   0.228   1.717   2.906 -1.0402  0.7905 -0.2426
  218DG     O19 5010   0.233   1.773   2.777 -0.4853  0.1312 -0.2328
  218DG     H20 5011   0.390   1.646   2.722 -0.2334 -3.1518 -1.0321
  218DG     H21 5012   0.245   1.629   2.644 -0.8698  0.6534 -0.4735
  218DG     H22 5013   0.250   1.607   2.911 -1.9262  0.6012  0.1996
  218DG     H23 5014   0.128   1.737   2.933  1.3875  1.6480 -0.8121
  219DG      C1 5015   1.473   3.460   2.863  0.0670  0.0501  0.6554
  219DG      C2 5016   1.559   3.095   3.429 -0.3982 -0.5064  0.5144
  219DG      H3 5017   1.408   3.486   2.777 -4.0090  1.5805 -2.2323
  219DG      H4 5018   1.529   3.387   2.812  0.9692  0.7336 -3.4028
  219DG      H5 5019   1.535   3.542   2.890  1.7454  1.3081  1.8412
  219DG      H6 5020   1.645   3.089   3.363  0.0131  0.0031 -0.5725
  219DG      H7 5021   1.600   3.132   3.528  0.5351 -0.5935 -0.5754
  219DG      H8 5022   1.524   2.991   3.447  0.1238  0.1219  3.0314
  219DG      O9 5023   1.412   3.402   2.977  0.1832  0.0149  0.5438
  219DG     O10 5024   1.470   3.187   3.366 -0.4355  0.0551 -0.1721
  219DG     C11 5025   1.283   3.459   3.017 -0.7526 -0.0171  0.0648
  219DG     C12 5026   1.355   3.220   3.439  0.8906  0.1590  0.0852
  219DG     H13 5027   1.215   3.457   2.934 -0.5138  2.6091  0.8862
  219DG     H14 5028   1.303   3.562   3.045 -1.3120 -0.4745  2.4509
  219DG     H15 5029   1.369   3.307   3.494  0.0650 -1.4781  0.7236
  219DG     H16 5030   1.311   3.142   3.503  1.7083  0.1661  1.0827
  219DG     C17 5031   1.210   3.387   3.132  0.5247 -0.5731 -0.2889
  219DG     C18 5032   1.249   3.260   3.331 -0.6411  1.1493 -0.8121
  219DG     O19 5033   1.307   3.347   3.225 -0.0188 -0.5499 -0.3254
  219DG     H20 5034   1.166   3.298   3.083  0.7021 -0.2452 -0.2907
  219DG     H21 5035   1.132   3.456   3.163 -2.8841 -1.0095 -0.6658
  219DG     H22 5036   1.208   3.173   3.287 -1.1594 -0.2724  2.1452
  219DG     H23 5037   1.167   3.312   3.379  2.6232 -1.1850 -0.2636
  220DG      C1 5038   2.637   0.632   0.397 -0.6265 -0.0494 -0.0122
  220DG      C2 5039   2.442   0.236  -0.180 -0.1008 -0.0812  0.0816
  220DG      H3 5040   2.729   0.590   0.436 -1.4897 -1.8428 -0.5046
  220DG      H4 5041   2.550   0.601   0.462 -1.9667  1.6680 -2.1240
  220DG      H5 5042   2.640   0.740   0.393 -2.2171 -0.5672  0.2386
  220DG      H6 5043   2.414   0.169  -0.256  0.7914  2.6720  1.7011
  220DG      H7 5044   2.368   0.238  -0.106 -0.0565  0.6845 -1.2063
  220DG      H8 5045   2.439   0.336  -0.216 -0.1470 -0.9701  1.1122
  220DG      O9 5046   2.623   0.580   0.264  0.1440  0.0942  0.7481
  220DG     O10 5047   2.570   0.205  -0.133 -0.1617 -0.6659  0.1482
  220DG     C11 5048   2.735   0.598   0.185 -1.0198  0.2542  0.0516
  220DG     C12 5049   2.578   0.218   0.007  0.7395 -0.5497 -0.4957
  220DG     H13 5050   2.818   0.540   0.220  2.4122 -0.4688  1.9891
  220DG     H14 5051   2.762   0.706   0.194  1.4261  2.0574  2.1935
  220DG     H15 5052   2.666   0.171   0.052 -1.5964  1.2457  0.2658
  220DG     H16 5053   2.498   0.169   0.063 -0.0957  0.4889 -1.6586
  220DG     C17 5054   2.702   0.570   0.042 -0.3631  0.1289 -0.0433
  220DG     C18 5055   2.596   0.363   0.059  0.5247  0.3789  0.4682
  220DG     O19 5056   2.711   0.432   0.021  0.1625 -0.4316  0.4403
  220DG     H20 5057   2.776   0.615  -0.024  1.2068  0.3588 -3.4358
  220DG     H21 5058   2.612   0.620   0.008 -0.4885  2.2994 -0.5060
  220DG     H22 5059   2.513   0.412   0.019 -1.0620 -1.2970  0.4806
  220DG     H23 5060   2.588   0.365   0.168  0.1183 -0.3311 -0.7363
  221DG      C1 5061   1.021   2.022   3.964  0.7247  0.1061 -0.0255
  221DG      C2 5062   0.177   2.048   3.980  0.5346  0.6894  0.0482
  221DG      H3 5063   1.040   2.093   3.886  0.7380  0.1363  0.5381
  221DG      H4 5064   1.000   1.924   3.913  1.5999 -2.6289  0.5559
  221DG      H5 5065   1.112   2.019   4.027  4.2476  1.2727  1.1679
  221DG      H6 5066   0.129   2.147   4.000  0.1621 -1.0246  2.7822
  221DG      H7 5067   0.167   2.012   3.878  0.9034 -0.5706 -2.5785
  221DG      H8 5068   0.118   1.984   4.042  0.6181 -0.4904 -1.8578
  221DG      O9 5069   0.908   2.083   4.024 -0.0391  0.2954  0.7123
  221DG     O10 5070   0.309   2.051   4.029  0.0436  0.4074  0.3387
  221DG     C11 5071   0.852   2.013   4.127  0.0352 -0.3946 -0.2823
  221DG     C12 5072   0.399   2.136   3.966  0.1320  0.4440  0.5524
  221DG     H13 5073   0.923   2.028   4.205  1.1625 -1.7488  2.0974
  221DG     H14 5074   0.845   1.904   4.118 -0.6843 -0.3589 -3.1717
  221DG     H15 5075   0.345   2.228   3.939  2.0910  0.3590  1.6663
  221DG     H16 5076   0.440   2.077   3.886 -2.0505 -3.2901  1.9982
  221DG     C17 5077   0.704   2.060   4.164  0.9122 -0.3092  0.2569
  221DG     C18 5078   0.515   2.155   4.062  0.0694 -0.0880  0.6721
  221DG     O19 5079   0.625   2.067   4.050 -0.4310  0.1806 -0.3946
  221DG     H20 5080   0.704   2.148   4.218  0.6770 -0.5189 -0.4732
  221DG     H21 5081   0.668   1.979   4.226 -0.1746 -2.1537 -1.6343
  221DG     H22 5082   0.563   2.254   4.046  0.5799  1.3777  0.2269
  221DG     H23 5083   0.466   2.142   4.160  0.0251 -3.4597  1.2365
  222DG      C1 5084   1.292   0.962   1.225 -0.0589 -0.0182 -0.1814
  222DG      C2 5085   1.627   0.233   1.061 -0.3863  0.2529 -0.0942
  222DG      H3 5086   1.187   0.944   1.200 -1.1853 -1.0747  0.3669
  222DG      H4 5087   1.340   1.038   1.165 -1.6288  2.6627 -1.1406
  222DG      H5 5088   1.288   1.010   1.325 -2.2871 -2.3366 -0.6620
  222DG      H6 5089   1.708   0.279   1.112 -1.2295  0.0078 -2.1306
  222DG      H7 5090   1.643   0.122   1.095 -0.5203  0.9864  1.2907
  222DG      H8 5091   1.633   0.238   0.953 -0.0296  2.0858 -2.3050
  222DG      O9 5092   1.361   0.838   1.242 -0.5770  0.4073  0.1005
  222DG     O10 5093   1.503   0.262   1.126 -0.5683  0.8783  0.4454
  222DG     C11 5094   1.487   0.837   1.303 -0.4838  0.4080 -0.3188
  222DG     C12 5095   1.463   0.397   1.115 -0.1717  0.0859  0.2757
  222DG     H13 5096   1.478   0.876   1.400  0.9479 -1.9737 -0.3433
  222DG     H14 5097   1.559   0.913   1.257  0.6518  1.0459 -2.6938
  222DG     H15 5098   1.368   0.416   1.169  0.2638  1.3194 -0.8104
  222DG     H16 5099   1.447   0.422   1.009  1.0498 -0.8257 -0.4220
  222DG     C17 5100   1.549   0.695   1.309 -0.1787  0.3636 -0.5696
  222DG     C18 5101   1.561   0.492   1.183 -0.2703  0.0531  0.0403
  222DG     O19 5102   1.503   0.622   1.197  0.5680 -0.3703  0.3971
  222DG     H20 5103   1.517   0.635   1.394 -0.3644 -1.9705 -1.6176
  222DG     H21 5104   1.659   0.695   1.313 -0.8279 -0.0490  1.8923
  222DG     H22 5105   1.598   0.450   1.275  1.1782  1.0417  0.6561
  222DG     H23 5106   1.641   0.507   1.116 -1.8157  0.4908 -0.5683
  223DG      C1 5107   5.073   2.944   2.903 -0.1986 -0.3661  0.1639
  223DG      C2 5108   5.374   2.693   2.453  0.3912 -0.7715 -0.2019
  223DG      H3 5109   5.166   3.003   2.894  0.3461 -1.4597 -3.2919
  223DG      H4 5110   5.092   2.847   2.946  1.5370 -0.9266 -1.2061
  223DG      H5 5111   5.016   3.010   2.973  0.3165 -1.0646 -1.4464
  223DG      H6 5112   5.444   2.737   2.386 -1.7920 -3.1407 -1.2819
  223DG      H7 5113   5.440   2.652   2.528 -2.8739  0.4293 -3.6795
  223DG      H8 5114   5.338   2.606   2.393 -0.2414  0.2631 -2.5507
  223DG      O9 5115   5.008   2.915   2.782  0.0385 -0.1525  0.4599
  223DG     O10 5116   5.275   2.776   2.507 -0.2289 -0.2836  0.7152
  223DG     C11 5117   4.954   3.026   2.717  0.1610 -0.5254 -0.2417
  223DG     C12 5118   5.214   2.863   2.404  0.0121 -0.4765 -0.3622
  223DG     H13 5119   5.025   3.097   2.700 -2.1576 -0.4923  0.4742
  223DG     H14 5120   4.872   3.069   2.773  1.6326 -1.2177  1.6014
  223DG     H15 5121   5.172   2.801   2.319 -0.4541 -2.7717 -1.1989
  223DG     H16 5122   5.292   2.927   2.357 -0.3981  1.3775  0.6454
  223DG     C17 5123   4.904   2.983   2.577  0.0875  0.3885 -0.1628
  223DG     C18 5124   5.126   2.965   2.467  0.3459  0.4302 -0.8112
  223DG     O19 5125   5.002   2.906   2.509 -0.2206 -0.0255  0.0501
  223DG     H20 5126   4.879   3.065   2.512  0.1363 -3.8917 -1.2560
  223DG     H21 5127   4.812   2.917   2.592  1.4247 -2.1049  0.0203
  223DG     H22 5128   5.174   3.017   2.550  0.2823  0.7132 -0.3777
  223DG     H23 5129   5.102   3.034   2.389  0.3004 -0.3904 -0.8901
  224DG      C1 5130   2.370   0.341   2.395 -0.0226  0.7155 -0.2094
  224DG      C2 5131   2.002   0.159   1.713 -0.1459  0.5336  0.0974
  224DG      H3 5132   2.427   0.375   2.312  1.0902 -1.3127  0.2193
  224DG      H4 5133   2.444   0.295   2.456  0.7587  3.4511 -0.6549
  224DG      H5 5134   2.324   0.426   2.445 -0.8223 -2.1542 -1.8013
  224DG      H6 5135   1.988   0.264   1.681  4.0082  1.8938 -0.1777
  224DG      H7 5136   2.095   0.127   1.675  0.6762 -0.5798 -1.2672
  224DG      H8 5137   1.926   0.092   1.670 -0.5778 -2.1994  0.2403
  224DG      O9 5138   2.268   0.243   2.364  0.6349 -0.0256  0.4938
  224DG     O10 5139   1.999   0.146   1.857 -0.5243 -0.4061 -0.4068
  224DG     C11 5140   2.183   0.300   2.265 -0.2950  0.3219 -1.2180
  224DG     C12 5141   1.892   0.221   1.914  0.3870  0.8603 -1.3273
  224DG     H13 5142   2.238   0.319   2.177  0.6909  2.3064  2.4007
  224DG     H14 5143   2.154   0.398   2.292 -2.6486 -3.8688 -0.1979
  224DG     H15 5144   1.801   0.183   1.886  2.9148 -2.5095  1.1545
  224DG     H16 5145   1.903   0.328   1.879 -2.4364 -1.0403 -3.2904
  224DG     C17 5146   2.059   0.213   2.238  0.5119 -0.1682  0.1875
  224DG     C18 5147   1.897   0.208   2.065 -0.2194  0.6680  0.4582
  224DG     O19 5148   2.033   0.240   2.103  0.3132 -0.6271 -0.2057
  224DG     H20 5149   1.983   0.221   2.311 -0.7823 -0.1734  0.5237
  224DG     H21 5150   2.098   0.113   2.237  1.1747 -3.3561 -0.7142
  224DG     H22 5151   1.826   0.267   2.127  1.7837  0.7692 -0.3993
  224DG     H23 5152   1.879   0.107   2.095 -0.6655  0.6282  4.3755
  225DG      C1 5153   2.476   5.149   3.329  0.0155 -0.2289  1.1217
  225DG      C2 5154   2.544   4.509   3.914  0.0009  0.7085  0.7273
  225DG      H3 5155   2.470   5.142   3.220 -3.2099  1.2039 -0.7159
  225DG      H4 5156   2.543   5.229   3.364  1.0408 -0.1044  1.4553
  225DG      H5 5157   2.369   5.193   3.341  1.6292  3.2275  0.6728
  225DG      H6 5158   2.590   4.411   3.935 -1.8169  0.5850 -1.5534
  225DG      H7 5159   2.575   4.582   3.983 -1.2500 -3.7900 -0.4434
  225DG      H8 5160   2.439   4.508   3.933 -1.0652  1.3233  2.5654
  225DG      O9 5161   2.493   5.024   3.378  0.2037  0.1225 -0.3299
  225DG     O10 5162   2.567   4.543   3.777 -0.0888  0.0780 -1.0307
  225DG     C11 5163   2.623   4.977   3.363 -0.2800 -0.0679  0.5219
  225DG     C12 5164   2.552   4.676   3.732  0.4062 -0.6551 -0.2238
  225DG     H13 5165   2.683   5.027   3.430 -3.3149 -1.7157 -0.7948
  225DG     H14 5166   2.675   4.991   3.272  0.4863  0.4352  1.3028
  225DG     H15 5167   2.597   4.750   3.799 -0.0643  3.0712  1.2189
  225DG     H16 5168   2.442   4.700   3.734 -2.3822 -0.8218 -3.0918
  225DG     C17 5169   2.620   4.829   3.394 -0.0658  0.2419  0.1415
  225DG     C18 5170   2.598   4.693   3.585 -0.4833  0.5991  0.7603
  225DG     O19 5171   2.616   4.823   3.535 -0.1966 -0.0940 -0.1998
  225DG     H20 5172   2.712   4.780   3.350 -1.1357  0.7426 -0.0503
  225DG     H21 5173   2.523   4.783   3.351 -1.6993  0.8920 -2.6196
  225DG     H22 5174   2.693   4.648   3.573  0.3454 -0.9329  1.1035
  225DG     H23 5175   2.533   4.638   3.517 -1.1786  2.3991 -0.3477
  226DG      C1 5176   2.823   4.105   4.163 -0.2234  0.0040  0.5976
  226DG      C2 5177   2.690   3.563   4.692 -0.6240  0.6821  0.4510
  226DG      H3 5178   2.792   4.144   4.061 -0.4058  1.6325 -3.2399
  226DG      H4 5179   2.865   4.006   4.151  3.7095 -0.1218 -0.5493
  226DG      H5 5180   2.912   4.165   4.205  1.4272  1.4065 -1.1588
  226DG      H6 5181   2.722   3.600   4.782 -1.3477 -0.9277 -0.1967
  226DG      H7 5182   2.600   3.507   4.707 -2.0644  1.9885  2.4432
  226DG      H8 5183   2.774   3.505   4.652 -3.0066 -2.7789 -0.8365
  226DG      O9 5184   2.712   4.099   4.250  0.0715  0.3843  0.0817
  226DG     O10 5185   2.656   3.674   4.611  0.1583 -0.1116 -0.3612
  226DG     C11 5186   2.728   4.001   4.348 -0.1110  0.6087  0.2613
  226DG     C12 5187   2.559   3.756   4.683 -0.0319 -0.4294 -0.7455
  226DG     H13 5188   2.823   4.014   4.406 -1.1958 -0.7722 -0.6829
  226DG     H14 5189   2.722   3.901   4.301 -0.7416  1.0941 -0.7170
  226DG     H15 5190   2.595   3.793   4.779  0.4037 -0.2036  2.4869
  226DG     H16 5191   2.467   3.701   4.706 -3.5891  0.1602 -0.6515
  226DG     C17 5192   2.609   4.027   4.443  0.1021 -0.1496  0.2598
  226DG     C18 5193   2.502   3.869   4.589 -0.8711 -0.3940  0.5147
  226DG     O19 5194   2.623   3.924   4.533  0.0762 -0.4367  0.3741
  226DG     H20 5195   2.509   4.017   4.395 -0.6459  1.3145  1.2488
  226DG     H21 5196   2.615   4.117   4.497 -0.9095 -0.7354 -2.3408
  226DG     H22 5197   2.441   3.834   4.510 -1.7690  1.5180  0.2913
  226DG     H23 5198   2.443   3.945   4.649 -0.6070  1.8824  1.0388
  227DG      C1 5199   2.387   2.895   2.970 -0.1914  0.2982 -0.0462
  227DG      C2 5200   2.593   3.449   3.098  0.3461 -0.5183 -1.2910
  227DG      H3 5201   2.347   2.837   2.884  0.0075 -0.3471  2.4194
  227DG      H4 5202   2.331   2.856   3.058  1.2399  2.8887 -0.8279
  227DG      H5 5203   2.496   2.882   2.972 -0.6612 -2.1410  0.5300
  227DG      H6 5204   2.628   3.409   3.196  0.5324  1.6267 -1.1015
  227DG      H7 5205   2.673   3.440   3.027  0.0023 -0.5605  0.0973
  227DG      H8 5206   2.579   3.563   3.111 -1.1771  1.4678 -3.3946
  227DG      O9 5207   2.349   3.029   2.948  0.4810 -0.3930 -0.1577
  227DG     O10 5208   2.468   3.411   3.039  0.2230  0.0977 -0.2588
  227DG     C11 5209   2.207   3.053   2.963  0.5129 -0.4465 -0.2633
  227DG     C12 5210   2.363   3.464   3.128 -0.5409 -0.1610 -0.7228
  227DG     H13 5211   2.160   3.008   3.049  2.1860  0.3506 -1.1356
  227DG     H14 5212   2.163   3.002   2.875  0.7079  0.0137 -0.5372
  227DG     H15 5213   2.360   3.570   3.101 -2.0439 -2.8692 -0.8373
  227DG     H16 5214   2.397   3.449   3.235  2.4871 -2.9136 -2.5862
  227DG     C17 5215   2.180   3.202   2.966 -0.0108  0.8180 -0.3974
  227DG     C18 5216   2.229   3.403   3.089 -0.9518  0.0362 -0.2114
  227DG     O19 5217   2.248   3.263   3.069  0.2156 -0.0118  0.2860
  227DG     H20 5218   2.071   3.214   2.967 -1.7154  0.9343 -0.8218
  227DG     H21 5219   2.205   3.241   2.869 -0.2427 -0.0048 -0.0785
  227DG     H22 5220   2.159   3.425   3.170  1.2376 -0.5903 -0.2127
  227DG     H23 5221   2.185   3.443   2.999 -0.9790 -1.2044 -0.2596
  228DG      C1 5222   3.657   3.410   0.943 -1.2311  0.6421  0.0315
  228DG      C2 5223   3.192   3.658   1.509 -0.2158 -0.0724 -0.1807
  228DG      H3 5224   3.584   3.351   0.888  2.5626  0.2088  0.9773
  228DG      H4 5225   3.729   3.351   0.994 -1.7350  0.0495  1.6666
  228DG      H5 5226   3.705   3.470   0.864  2.2111  0.4240 -1.9378
  228DG      H6 5227   3.144   3.745   1.551 -0.1367  1.6053 -0.8116
  228DG      H7 5228   3.117   3.582   1.517 -1.2514  2.3029  1.9218
  228DG      H8 5229   3.269   3.618   1.573  0.5384  0.5109  2.4251
  228DG      O9 5230   3.602   3.507   1.022 -0.1445  0.3907 -0.3475
  228DG     O10 5231   3.231   3.686   1.376 -0.3685 -0.5570  0.0484
  228DG     C11 5232   3.564   3.454   1.143  0.0973  0.0092 -0.1566
  228DG     C12 5233   3.343   3.774   1.375  0.1813 -0.3184  0.6022
  228DG     H13 5234   3.641   3.394   1.195  0.2863 -2.8779 -1.2027
  228DG     H14 5235   3.485   3.379   1.124 -1.6981  1.1086 -1.7430
  228DG     H15 5236   3.414   3.724   1.439 -0.4889 -1.5546  1.3727
  228DG     H16 5237   3.328   3.870   1.410  0.0134  0.2502 -1.5009
  228DG     C17 5238   3.518   3.574   1.237  0.1388 -0.0846  0.3063
  228DG     C18 5239   3.401   3.782   1.233  0.1832  0.7372 -0.8569
  228DG     O19 5240   3.413   3.653   1.177  0.9175 -0.3377 -0.8293
  228DG     H20 5241   3.604   3.637   1.251  0.9791  0.1842 -1.5985
  228DG     H21 5242   3.487   3.546   1.335 -0.5139  2.8569  2.5430
  228DG     H22 5243   3.334   3.835   1.166 -1.2766 -0.9514  0.0488
  228DG     H23 5244   3.496   3.837   1.236  1.4892 -0.8803  1.5907
  229DG      C1 5245   0.890   4.078   4.862 -0.3212  0.4251  0.9533
  229DG      C2 5246   1.228   4.734   5.271  0.7328  0.3193  0.1751
  229DG      H3 5247   0.927   4.011   4.943 -1.7302 -0.4121  1.4022
  229DG      H4 5248   0.936   4.045   4.766 -2.3041 -2.0345  1.5187
  229DG      H5 5249   0.784   4.052   4.843 -0.6914  0.0517  2.0265
  229DG      H6 5250   1.160   4.783   5.339  0.5821  0.5267 -0.6540
  229DG      H7 5251   1.293   4.664   5.319 -0.8105  1.1193 -0.0610
  229DG      H8 5252   1.283   4.816   5.214  1.2420  0.2658  0.7381
  229DG      O9 5253   0.932   4.215   4.891  0.0356 -0.1448 -0.0664
  229DG     O10 5254   1.135   4.668   5.185 -0.0543  0.2913 -0.1132
  229DG     C11 5255   0.858   4.271   4.997 -0.7299 -0.1268 -0.0381
  229DG     C12 5256   1.205   4.566   5.107  0.2994  0.0782  0.9168
  229DG     H13 5257   0.880   4.221   5.091 -1.5644  0.4398 -2.4447
  229DG     H14 5258   0.752   4.260   4.977 -0.1203  0.5896  1.9557
  229DG     H15 5259   1.240   4.483   5.167  0.7564  0.4199  3.4761
  229DG     H16 5260   1.288   4.613   5.053 -0.9751 -1.6411  2.2616
  229DG     C17 5261   0.879   4.423   5.006 -0.3738 -1.3505  0.0551
  229DG     C18 5262   1.100   4.519   5.000 -0.1495 -0.7015 -0.1028
  229DG     O19 5263   1.004   4.453   5.075 -0.2782  0.0432 -0.6369
  229DG     H20 5264   0.797   4.476   5.048  0.1646  3.0590 -1.2228
  229DG     H21 5265   0.878   4.456   4.899 -1.6347  0.8876 -2.5738
  229DG     H22 5266   1.051   4.601   4.953  0.3948 -1.5345  0.7972
  229DG     H23 5267   1.134   4.443   4.931  0.4074 -0.5798 -1.5278
  230DG      C1 5268   3.387   0.210   4.265  0.4168 -0.3471  0.4077
  230DG      C2 5269   3.080  -0.191   3.533  0.5114  0.0149 -0.3664
  230DG      H3 5270   3.466   0.257   4.203 -1.1556 -0.7279 -0.0417
  230DG      H4 5271   3.437   0.184   4.362  0.7116 -0.7724  0.1095
  230DG      H5 5272   3.329   0.298   4.296 -1.4141  1.9560  0.2879
  230DG      H6 5273   3.183  -0.210   3.496  1.7724 -0.8923  0.7699
  230DG      H7 5274   3.009  -0.260   3.488 -0.7325 -2.4993  2.1365
  230DG      H8 5275   3.048  -0.096   3.489  1.3045  0.0721  2.0366
  230DG      O9 5276   3.305   0.116   4.202 -0.2377 -0.8530  0.4956
  230DG     O10 5277   3.078  -0.188   3.675 -0.0805 -0.5171 -0.6175
  230DG     C11 5278   3.385   0.007   4.150 -0.0604  0.4887 -0.0923
  230DG     C12 5279   3.182  -0.110   3.738  0.2680  0.1152 -0.5745
  230DG     H13 5280   3.433  -0.044   4.232  1.1876 -1.0300  1.3661
  230DG     H14 5281   3.458   0.050   4.080  1.5669  1.8929 -0.3384
  230DG     H15 5282   3.161  -0.006   3.707 -0.6559  2.3826  1.6394
  230DG     H16 5283   3.283  -0.139   3.702  2.5302 -1.0080  0.5954
  230DG     C17 5284   3.302  -0.097   4.075 -0.3029 -0.6419  0.2238
  230DG     C18 5285   3.171  -0.136   3.887 -0.2182 -0.4925 -0.4234
  230DG     O19 5286   3.246  -0.037   3.959 -0.1844 -0.2842 -0.7992
  230DG     H20 5287   3.232  -0.137   4.146  1.1718  0.2752 -0.7581
  230DG     H21 5288   3.371  -0.176   4.043  1.7315 -2.0407 -0.2989
  230DG     H22 5289   3.065  -0.150   3.918  0.0342  0.5079 -1.0991
  230DG     H23 5290   3.217  -0.235   3.902 -2.5592 -2.6353  2.4034
  231DG      C1 5291   4.043   0.493   4.125  0.9200 -0.0192  0.2010
  231DG      C2 5292   4.410   0.880   4.674 -0.1274  0.2059 -0.4075
  231DG      H3 5293   4.091   0.416   4.171 -1.0718  1.6444 -1.1120
  231DG      H4 5294   4.038   0.477   4.016 -1.4750  2.1295  0.1201
  231DG      H5 5295   3.943   0.495   4.161  1.5142 -0.0238  0.3228
  231DG      H6 5296   4.494   0.808   4.673  1.2868  1.0503  1.8683
  231DG      H7 5297   4.443   0.966   4.730 -2.2131  0.1694  0.5460
  231DG      H8 5298   4.328   0.846   4.742  0.4110 -0.4282 -0.1889
  231DG      O9 5299   4.106   0.613   4.156 -0.1973 -0.4066 -0.1503
  231DG     O10 5300   4.365   0.905   4.544  0.1143 -0.1410  0.3201
  231DG     C11 5301   4.250   0.608   4.141 -0.1865  0.0857 -0.0904
  231DG     C12 5302   4.470   0.920   4.452 -0.1273  0.1528  0.5055
  231DG     H13 5303   4.270   0.566   4.036 -0.4952 -1.1515  1.8054
  231DG     H14 5304   4.288   0.536   4.206  0.3767 -0.2183 -0.7412
  231DG     H15 5305   4.549   0.850   4.479 -0.9572 -0.1496 -1.2035
  231DG     H16 5306   4.518   1.015   4.473 -1.2504 -1.0393  0.5134
  231DG     C17 5307   4.308   0.753   4.151  0.3241 -0.1003  0.3254
  231DG     C18 5308   4.412   0.909   4.309  0.3859 -0.4374 -0.3009
  231DG     O19 5309   4.339   0.787   4.291 -0.1382 -0.5218  0.2657
  231DG     H20 5310   4.236   0.824   4.106 -0.0939  1.1441 -0.6181
  231DG     H21 5311   4.404   0.746   4.094 -2.0426 -1.0364 -0.2315
  231DG     H22 5312   4.352   0.997   4.290  0.5948 -0.2417  0.6781
  231DG     H23 5313   4.492   0.903   4.230  2.0336 -0.7902 -3.9668
  232DG      C1 5314   4.762   4.426   2.666 -0.4112  0.0231  0.3001
  232DG      C2 5315   4.440   4.420   3.300  0.2404  0.0894  0.7565
  232DG      H3 5316   4.855   4.396   2.604  1.6848 -1.2555  1.2210
  232DG      H4 5317   4.734   4.534   2.646 -0.3562 -0.8381  1.3432
  232DG      H5 5318   4.677   4.360   2.648 -1.0854 -3.3942  2.2373
  232DG      H6 5319   4.450   4.387   3.405 -1.2091 -1.6955 -0.0671
  232DG      H7 5320   4.419   4.532   3.303 -0.5070  1.4939  3.3022
  232DG      H8 5321   4.352   4.375   3.254 -1.2750 -0.0630 -0.2255
  232DG      O9 5322   4.786   4.417   2.805 -0.0642 -0.4432  0.0645
  232DG     O10 5323   4.552   4.385   3.209  0.1095  0.1793  0.3722
  232DG     C11 5324   4.841   4.292   2.839 -0.9976 -0.2601  0.2116
  232DG     C12 5325   4.678   4.436   3.252  0.0980  0.3351 -0.2983
  232DG     H13 5326   4.936   4.279   2.787 -0.0943 -1.8361 -0.8083
  232DG     H14 5327   4.779   4.208   2.806  0.5386 -3.0260 -0.6595
  232DG     H15 5328   4.683   4.447   3.363 -2.4968 -0.2936  0.1523
  232DG     H16 5329   4.679   4.544   3.230  0.7071 -0.0451  3.1716
  232DG     C17 5330   4.871   4.291   2.988 -0.4338  0.3393  0.8138
  232DG     C18 5331   4.789   4.351   3.189 -0.1432  0.6586 -0.7673
  232DG     O19 5332   4.752   4.316   3.060 -0.1886 -0.1366  0.7811
  232DG     H20 5333   4.952   4.370   2.993  2.5419  0.3914  1.2674
  232DG     H21 5334   4.914   4.188   3.017 -0.8229 -1.3106  1.7051
  232DG     H22 5335   4.875   4.411   3.204 -1.7838 -0.2910  0.2785
  232DG     H23 5336   4.810   4.258   3.251  4.1084  1.9434  1.3660
  233DG      C1 5337   0.472   2.581   3.167  0.3594  0.1936  0.8329
  233DG      C2 5338   0.764   3.130   3.305  0.0789 -0.1863  0.6380
  233DG      H3 5339   0.372   2.605   3.211  0.7543  0.4149 -1.3951
  233DG      H4 5340   0.466   2.473   3.156 -3.9411 -0.7820 -2.1243
  233DG      H5 5341   0.471   2.617   3.067 -1.8648 -1.3084 -0.6479
  233DG      H6 5342   0.750   3.138   3.195 -0.6936  2.0096  1.5152
  233DG      H7 5343   0.702   3.210   3.346 -0.5533 -2.2626 -0.5369
  233DG      H8 5344   0.877   3.150   3.311  2.6206 -2.3565 -0.2366
  233DG      O9 5345   0.575   2.635   3.249  0.0633 -0.1982 -0.1889
  233DG     O10 5346   0.715   3.009   3.350  0.1674 -0.1202 -0.5997
  233DG     C11 5347   0.547   2.610   3.389  0.5635  0.2220 -0.5947
  233DG     C12 5348   0.763   2.984   3.483  0.5112  0.4138 -0.2524
  233DG     H13 5349   0.521   2.510   3.403 -0.0434  0.9712 -0.5926
  233DG     H14 5350   0.467   2.680   3.422  0.8385 -0.6347  0.8875
  233DG     H15 5351   0.720   3.055   3.558 -2.2317 -1.1938  4.4999
  233DG     H16 5352   0.870   2.998   3.484 -2.9405 -0.4216  0.1425
  233DG     C17 5353   0.676   2.624   3.466 -0.7462  0.2249 -0.2170
  233DG     C18 5354   0.708   2.847   3.532  0.3281 -0.4440  0.6355
  233DG     O19 5355   0.725   2.752   3.433  0.1209  0.1179  0.3427
  233DG     H20 5356   0.752   2.549   3.435  0.7325  1.0892  0.8928
  233DG     H21 5357   0.656   2.624   3.572 -2.4042  2.1608 -2.4646
  233DG     H22 5358   0.761   2.810   3.620  2.1462 -0.4663  0.3963
  233DG     H23 5359   0.605   2.844   3.556  0.4487  1.6112  0.9332
  234DG      C1 5360   3.229   2.287   3.218  0.2358  0.7413  0.2544
  234DG      C2 5361   3.367   1.715   3.368  0.7104 -0.1480  1.0953
  234DG      H3 5362   3.139   2.274   3.272  3.1808 -0.5962  0.4643
  234DG      H4 5363   3.238   2.384   3.164 -1.5967 -0.8932  1.2299
  234DG      H5 5364   3.311   2.288   3.286  0.1893 -3.1513 -0.8894
  234DG      H6 5365   3.260   1.710   3.407 -1.2245  4.1231 -0.2380
  234DG      H7 5366   3.409   1.619   3.359 -2.1735 -0.6129 -2.3930
  234DG      H8 5367   3.430   1.781   3.424  0.0008 -2.6680 -2.0131
  234DG      O9 5368   3.247   2.175   3.129  0.2582  0.1654 -0.3641
  234DG     O10 5369   3.364   1.778   3.235  0.0169 -0.2166 -0.5260
  234DG     C11 5370   3.139   2.151   3.034 -0.0337 -0.7184  0.7436
  234DG     C12 5371   3.275   1.723   3.135  0.1578  0.9593 -0.2140
  234DG     H13 5372   3.119   2.239   2.965 -0.8155  0.2312 -0.5512
  234DG     H14 5373   3.052   2.120   3.093 -0.2801 -3.3344  0.5498
  234DG     H15 5374   3.174   1.714   3.176  2.4708 -2.0126  2.1332
  234DG     H16 5375   3.315   1.621   3.132 -0.6041  1.9154  2.7263
  234DG     C17 5376   3.177   2.024   2.957  0.1214  0.2243  0.8105
  234DG     C18 5377   3.268   1.808   3.010 -0.2372  0.1889 -0.2634
  234DG     O19 5378   3.201   1.924   3.055  0.0130  0.1019 -0.1705
  234DG     H20 5379   3.273   2.046   2.916 -1.3892 -0.6128  3.2698
  234DG     H21 5380   3.107   1.994   2.883  1.5093  3.0181  0.0995
  234DG     H22 5381   3.367   1.842   2.984 -0.6291  3.0932 -0.7098
  234DG     H23 5382   3.212   1.754   2.932  1.5154 -3.1119  1.9449
  235DG      C1 5383   1.625   3.749   2.137 -0.0240  0.0746  0.0646
  235DG      C2 5384   1.716   4.421   1.940 -0.1163 -0.3319 -0.3957
  235DG      H3 5385   1.716   3.802   2.166  0.2782  0.8210  1.1557
  235DG      H4 5386   1.658   3.656   2.088 -0.7498  0.1182  2.4096
  235DG      H5 5387   1.571   3.710   2.224  0.8193  1.1100  0.5129
  235DG      H6 5388   1.824   4.432   1.915  1.3586 -1.1100 -0.1018
  235DG      H7 5389   1.662   4.514   1.924 -0.0578 -0.5329  1.4497
  235DG      H8 5390   1.702   4.411   2.051  0.3124 -2.2528 -0.6075
  235DG      O9 5391   1.555   3.833   2.049  0.1344 -0.0386  0.1411
  235DG     O10 5392   1.667   4.303   1.877 -0.0149 -0.1099 -0.2102
  235DG     C11 5393   1.627   3.865   1.928 -0.2578  0.1103  0.0819
  235DG     C12 5394   1.724   4.280   1.754  0.0903 -0.3386 -0.3690
  235DG     H13 5395   1.597   3.799   1.850  0.2040 -0.3121 -1.3484
  235DG     H14 5396   1.730   3.849   1.929 -1.4750  0.0512 -1.6212
  235DG     H15 5397   1.832   4.280   1.750  1.0023  0.2266 -0.1096
  235DG     H16 5398   1.692   4.366   1.696 -2.7244 -2.0105 -1.9575
  235DG     C17 5399   1.590   4.008   1.878 -0.5700  0.3337 -0.4728
  235DG     C18 5400   1.665   4.154   1.695  0.1472  0.3046 -0.5784
  235DG     O19 5401   1.674   4.027   1.768 -0.3513 -0.3739 -0.1176
  235DG     H20 5402   1.618   4.072   1.963  0.1949  0.6827  1.3083
  235DG     H21 5403   1.487   4.005   1.840 -2.4890 -0.4284 -0.4449
  235DG     H22 5404   1.556   4.173   1.672  1.0457  1.4933 -0.7916
  235DG     H23 5405   1.711   4.137   1.593  0.4704 -1.5905  1.1621
  236DG      C1 5406   1.905   3.039   2.657 -0.3794  0.7297 -0.1881
  236DG      C2 5407   1.837   2.757   2.103 -0.2192  0.1599 -0.2916
  236DG      H3 5408   2.001   2.989   2.646 -0.4376 -0.7686 -1.8759
  236DG      H4 5409   1.865   3.048   2.756 -1.7684  0.3977 -1.9186
  236DG      H5 5410   1.920   3.143   2.629  0.0994 -1.7659 -1.4143
  236DG      H6 5411   1.927   2.724   2.155  0.7501 -0.5341  0.5344
  236DG      H7 5412   1.797   2.679   2.041  0.3880  0.3769  2.2202
  236DG      H8 5413   1.858   2.841   2.037 -1.6556  1.0368  2.0297
  236DG      O9 5414   1.791   2.985   2.592  0.0964  0.2792  0.2689
  236DG     O10 5415   1.751   2.790   2.212 -0.5583 -0.4725  0.2584
  236DG     C11 5416   1.674   3.067   2.593 -0.2235 -0.5153 -0.1332
  236DG     C12 5417   1.630   2.857   2.175 -0.3873 -1.2875 -0.0911
  236DG     H13 5418   1.693   3.162   2.541 -1.4609  0.7807  1.7425
  236DG     H14 5419   1.633   3.094   2.692  1.0948  1.2029  3.1392
  236DG     H15 5420   1.583   2.793   2.098  0.6414  1.0136 -2.3370
  236DG     H16 5421   1.636   2.958   2.126 -1.7034  0.1427  0.0933
  236DG     C17 5422   1.567   2.994   2.506  0.7001 -0.5099 -0.0539
  236DG     C18 5423   1.543   2.874   2.299 -0.0015 -0.2765  0.7650
  236DG     O19 5424   1.635   2.932   2.392 -0.7432  0.5062  0.5062
  236DG     H20 5425   1.490   3.066   2.489 -0.9614  0.5671 -0.7571
  236DG     H21 5426   1.533   2.921   2.571  2.0008 -0.0630  1.6226
  236DG     H22 5427   1.457   2.935   2.269  0.7067 -0.6355 -1.0971
  236DG     H23 5428   1.507   2.782   2.342  0.0692  0.4492  2.0805
  237DG      C1 5429   5.483   4.983   3.288 -0.2154  0.3883  0.2515
  237DG      C2 5430   5.290   5.663   3.317 -0.0925  0.5008  0.3572
  237DG      H3 5431   5.476   5.010   3.181  1.7228  2.4372 -2.3503
  237DG      H4 5432   5.391   4.927   3.315 -0.7794 -0.5103 -1.5117
  237DG      H5 5433   5.559   4.906   3.292  1.0003 -0.2906 -0.8747
  237DG      H6 5434   5.325   5.766   3.327  2.2552 -0.3106 -0.6075
  237DG      H7 5435   5.281   5.639   3.211  4.0787 -2.2448  0.1099
  237DG      H8 5436   5.201   5.649   3.375 -0.7084  0.2472 -2.2154
  237DG      O9 5437   5.505   5.088   3.380  0.5072 -0.0261  0.3502
  237DG     O10 5438   5.387   5.582   3.371 -0.6774 -0.5102 -0.4248
  237DG     C11 5439   5.633   5.148   3.355 -0.0547 -0.1637  0.1692
  237DG     C12 5440   5.522   5.610   3.328 -0.5276 -0.0291 -0.0137
  237DG     H13 5441   5.649   5.158   3.253 -1.6828 -1.6690  0.6416
  237DG     H14 5442   5.718   5.097   3.400 -0.7121 -2.5110 -0.4941
  237DG     H15 5443   5.551   5.715   3.357  2.6550  2.0542 -0.2755
  237DG     H16 5444   5.535   5.606   3.225 -0.8409  1.0574  0.9095
  237DG     C17 5445   5.644   5.287   3.423 -0.1334 -0.9079  0.4151
  237DG     C18 5446   5.618   5.518   3.393 -0.2660  0.3598  0.5785
  237DG     O19 5447   5.580   5.386   3.345 -0.2756 -0.1030  0.2016
  237DG     H20 5448   5.745   5.305   3.433  1.0193  1.4610 -3.6414
  237DG     H21 5449   5.596   5.299   3.525  1.2660  0.2993 -2.0739
  237DG     H22 5450   5.723   5.539   3.368  1.0544 -0.3997  1.1462
  237DG     H23 5451   5.602   5.528   3.506  0.2542 -1.1236 -1.0316
  238DG      C1 5452   3.716   3.075   1.872  0.7222  0.5437 -0.5809
  238DG      C2 5453   3.140   2.763   2.107  0.4723 -0.1683 -0.1117
  238DG      H3 5454   3.799   3.136   1.895 -0.6464 -1.7240  0.7282
  238DG      H4 5455   3.641   3.118   1.814  1.0753 -0.6310  2.2736
  238DG      H5 5456   3.757   2.994   1.819  0.6239 -1.3273  1.9272
  238DG      H6 5457   3.129   2.666   2.065 -0.2343  0.3206 -0.5996
  238DG      H7 5458   3.056   2.784   2.181 -3.0770 -0.5489 -1.8129
  238DG      H8 5459   3.141   2.825   2.021 -1.5067 -0.0315  2.3918
  238DG      O9 5460   3.650   3.038   1.993  0.4743 -0.0543 -0.4736
  238DG     O10 5461   3.273   2.772   2.166 -0.7686 -0.4560 -0.2243
  238DG     C11 5462   3.720   2.953   2.077 -0.0438 -1.2276 -0.9285
  238DG     C12 5463   3.292   2.900   2.220 -1.1018 -0.8700  0.3101
  238DG     H13 5464   3.820   2.994   2.102  0.3528  1.7972  0.5637
  238DG     H14 5465   3.736   2.860   2.032 -0.7011  1.7522  2.3035
  238DG     H15 5466   3.220   2.921   2.302  0.5690  0.9031  0.1507
  238DG     H16 5467   3.294   2.980   2.154 -0.7952  0.1585  1.3233
  238DG     C17 5468   3.650   2.946   2.212  0.1008  0.2974  0.1654
  238DG     C18 5469   3.432   2.899   2.289 -0.3515 -0.0203 -0.0006
  238DG     O19 5470   3.520   2.893   2.177  0.2496 -0.1308 -0.4267
  238DG     H20 5471   3.644   3.046   2.249 -0.8598 -0.5270 -2.4496
  238DG     H21 5472   3.694   2.881   2.287  0.3925  0.7470 -0.9995
  238DG     H22 5473   3.450   2.986   2.353 -2.4738 -1.4187  0.4998
  238DG     H23 5474   3.435   2.810   2.346  2.0026 -2.6680  0.4302
  239DG      C1 5475   0.732   5.453   4.349 -0.0595  0.5958  0.4502
  239DG      C2 5476   0.911   4.647   4.173  0.0483  0.1086 -0.4461
  239DG      H3 5477   0.770   5.524   4.428  2.0400  0.5370 -0.5470
  239DG      H4 5478   0.633   5.420   4.383  0.5550  1.2158  1.4326
  239DG      H5 5479   0.724   5.499   4.251 -2.3789 -1.5651 -0.3833
  239DG      H6 5480   0.822   4.632   4.238 -0.7388 -2.0512  0.6294
  239DG      H7 5481   0.886   4.674   4.073  1.6848 -0.8507  0.7279
  239DG      H8 5482   0.972   4.559   4.167  1.7401  2.0545  1.3935
  239DG      O9 5483   0.819   5.336   4.327 -0.5252 -0.0968 -0.6329
  239DG     O10 5484   0.985   4.738   4.244 -0.1633  0.3923  0.1525
  239DG     C11 5485   0.899   5.294   4.430 -0.3218  0.2242  0.3244
  239DG     C12 5486   0.925   4.866   4.241 -0.2489 -0.0802  0.4580
  239DG     H13 5487   0.846   5.239   4.504  0.1850  0.0017 -1.5937
  239DG     H14 5488   0.948   5.382   4.487  1.5818  2.3553 -0.3255
  239DG     H15 5489   0.837   4.860   4.306 -0.5136  0.7878  0.2119
  239DG     H16 5490   0.894   4.885   4.140  1.0837  3.7496  4.0199
  239DG     C17 5491   1.001   5.183   4.387  0.1892 -0.4543  0.4241
  239DG     C18 5492   1.010   4.976   4.285  0.5820 -0.3065  0.3174
  239DG     O19 5493   0.925   5.088   4.316  0.6692  0.4170 -0.0834
  239DG     H20 5494   1.043   5.139   4.472  0.8554  3.4298  1.6867
  239DG     H21 5495   1.078   5.234   4.331  0.1248 -3.0550 -0.3810
  239DG     H22 5496   1.068   4.952   4.372  1.2598 -1.9171 -0.1726
  239DG     H23 5497   1.075   5.014   4.206 -0.5456  0.8329  1.6043
  240DG      C1 5498   3.573   0.916   0.143  0.2844 -0.1673 -0.1631
  240DG      C2 5499   3.215   0.563   0.774  0.7322  0.3014  0.3591
  240DG      H3 5500   3.620   0.899   0.237 -1.3591  2.4321 -2.0095
  240DG      H4 5501   3.532   1.021   0.155  0.5571  1.0557 -0.4450
  240DG      H5 5502   3.653   0.922   0.069 -0.4661  0.7849  1.1073
  240DG      H6 5503   3.181   0.510   0.861 -1.8852  1.5635 -3.6790
  240DG      H7 5504   3.310   0.510   0.751  1.6355 -2.3461  1.6631
  240DG      H8 5505   3.234   0.669   0.798  0.4556  1.4760  1.1967
  240DG      O9 5506   3.476   0.822   0.098 -0.0705 -0.4044 -0.3712
  240DG     O10 5507   3.122   0.554   0.672 -0.0863 -0.3335  0.5827
  240DG     C11 5508   3.360   0.816   0.179  0.7466  0.1037  0.6325
  240DG     C12 5509   3.125   0.648   0.561  0.3135  0.2137  0.4067
  240DG     H13 5510   3.284   0.769   0.114 -1.5385 -0.3407  0.6171
  240DG     H14 5511   3.319   0.919   0.193 -0.6683 -2.3548 -0.8356
  240DG     H15 5512   3.102   0.752   0.595  0.6560  0.7286  2.1948
  240DG     H16 5513   3.045   0.607   0.493 -0.5657 -1.1736 -2.4202
  240DG     C17 5514   3.380   0.745   0.315  0.0505 -0.5032 -0.3967
  240DG     C18 5515   3.255   0.649   0.485  0.1356  0.8952 -0.2274
  240DG     O19 5516   3.261   0.748   0.382 -0.1755  0.0187 -0.3667
  240DG     H20 5517   3.458   0.795   0.376  2.0238 -0.4396 -1.5027
  240DG     H21 5518   3.408   0.648   0.292 -1.4918 -0.8840  1.9212
  240DG     H22 5519   3.339   0.672   0.558 -2.7720 -1.1194 -0.6608
  240DG     H23 5520   3.270   0.550   0.444 -0.3478  0.5320  1.3634
  241DG      C1 5521   4.309   4.556   4.896  0.6115 -0.1214 -0.0505
  241DG      C2 5522   4.512   3.800   4.990 -0.3403 -0.9406  0.4294
  241DG      H3 5523   4.398   4.566   4.838 -1.8192 -0.2608  1.7892
  241DG      H4 5524   4.308   4.640   4.962  0.0630 -1.5899  1.1827
  241DG      H5 5525   4.221   4.547   4.838 -0.9543  0.2060  0.7042
  241DG      H6 5526   4.530   3.737   5.077  3.7966  1.4151  1.6778
  241DG      H7 5527   4.418   3.764   4.949 -1.9739 -1.9037 -0.8168
  241DG      H8 5528   4.604   3.781   4.921  1.9094 -1.3772 -0.8465
  241DG      O9 5529   4.330   4.438   4.973  0.6720 -0.1511 -1.0792
  241DG     O10 5530   4.510   3.935   5.040  0.8714  0.0472  0.5051
  241DG     C11 5531   4.454   4.455   5.050  0.5273  0.9055  0.4628
  241DG     C12 5532   4.469   4.019   4.934  0.1533 -0.5120 -0.5541
  241DG     H13 5533   4.463   4.548   5.107 -1.9061  0.8889  2.6065
  241DG     H14 5534   4.548   4.455   4.989 -2.1135 -0.1837  0.7339
  241DG     H15 5535   4.399   3.972   4.862  2.3264 -2.2587 -1.6104
  241DG     H16 5536   4.555   4.029   4.865  0.0963 -2.5698 -1.3631
  241DG     C17 5537   4.476   4.338   5.144 -0.4293  0.9095 -0.3762
  241DG     C18 5538   4.431   4.164   4.988  0.1208 -0.1568  0.0786
  241DG     O19 5539   4.527   4.227   5.065 -0.0819 -0.1393  0.0543
  241DG     H20 5540   4.383   4.320   5.201  3.2745  1.9417 -2.2893
  241DG     H21 5541   4.543   4.351   5.224 -1.7536  1.6542 -1.6516
  241DG     H22 5542   4.417   4.230   4.903  0.8778 -0.7778 -1.8691
  241DG     H23 5543   4.343   4.152   5.047 -1.6383  0.6472 -0.7966
  242DG      C1 5544   3.511   1.080   2.565 -0.8427 -0.3726  0.8921
  242DG      C2 5545   2.844   0.841   2.635  0.4944 -0.4616 -0.5583
  242DG      H3 5546   3.478   1.164   2.500  1.5234  1.0813 -2.3908
  242DG      H4 5547   3.610   1.109   2.601 -2.9501 -1.8791  1.4981
  242DG      H5 5548   3.442   1.085   2.649 -0.3506  1.9106  1.1203
  242DG      H6 5549   2.797   0.813   2.542  2.4582 -2.6697 -1.9733
  242DG      H7 5550   2.792   0.807   2.720  0.5498 -1.4514 -0.0871
  242DG      H8 5551   2.823   0.956   2.646  1.2082  0.8577 -0.9644
  242DG      O9 5552   3.514   0.958   2.494 -0.0002  0.5777 -0.4570
  242DG     O10 5553   2.984   0.808   2.638 -0.2224 -0.2859 -0.0065
  242DG     C11 5554   3.503   0.843   2.580 -0.7541 -0.1682  0.1655
  242DG     C12 5555   3.058   0.861   2.742  0.7009  0.1313  0.3015
  242DG     H13 5556   3.535   0.859   2.689  0.5632  1.0144  0.8597
  242DG     H14 5557   3.580   0.764   2.552 -1.1473  0.8389 -0.6394
  242DG     H15 5558   3.015   0.837   2.840 -0.4981 -2.0536  2.3241
  242DG     H16 5559   3.056   0.969   2.725 -0.9496  0.3659 -1.0930
  242DG     C17 5560   3.369   0.774   2.561 -0.3820 -0.4985 -0.7500
  242DG     C18 5561   3.206   0.811   2.730  0.2571 -0.4107 -0.4205
  242DG     O19 5562   3.256   0.846   2.601  0.0772 -0.3100  0.2063
  242DG     H20 5563   3.371   0.680   2.623  0.5931  1.1605  0.8355
  242DG     H21 5564   3.358   0.741   2.456  0.9077  0.7876  2.9951
  242DG     H22 5565   3.275   0.834   2.806  0.1766  0.2505 -1.6252
  242DG     H23 5566   3.187   0.703   2.735 -0.8282 -1.0496  1.1597
  243DG      C1 5567   0.856   4.490   5.355  0.1171  0.7326 -0.2593
  243DG      C2 5568   1.319   3.940   5.850  0.3814 -0.5749 -0.1994
  243DG      H3 5569   0.909   4.539   5.276 -0.6154  0.4793 -2.3673
  243DG      H4 5570   0.788   4.568   5.390  1.4593  0.1523 -1.7898
  243DG      H5 5571   0.793   4.405   5.313 -0.3450  2.3301  2.9867
  243DG      H6 5572   1.289   3.868   5.781  1.7652  2.6023  0.3327
  243DG      H7 5573   1.419   3.907   5.881  0.1859 -0.5179  3.0016
  243DG      H8 5574   1.255   3.926   5.943  1.9619  0.0712  0.5827
  243DG      O9 5575   0.935   4.440   5.455 -1.1194  0.8509  0.1830
  243DG     O10 5576   1.317   4.072   5.791  0.2501 -0.3775  0.1276
  243DG     C11 5577   1.069   4.492   5.453  0.7448 -0.0067 -0.1075
  243DG     C12 5578   1.205   4.108   5.716  0.3940 -0.8122 -0.1448
  243DG     H13 5579   1.060   4.602   5.454  1.0081  0.6874 -0.1264
  243DG     H14 5580   1.115   4.452   5.365  1.1567  0.5215 -1.1240
  243DG     H15 5581   1.120   4.070   5.776  3.5604 -0.7497  0.0643
  243DG     H16 5582   1.199   4.058   5.617 -3.6058  0.3189 -2.3373
  243DG     C17 5583   1.121   4.449   5.595 -0.0950  0.8670  0.5891
  243DG     C18 5584   1.209   4.265   5.718  0.0607 -0.1869 -0.7507
  243DG     O19 5585   1.131   4.305   5.601  0.1928 -0.2728  0.0299
  243DG     H20 5586   1.052   4.490   5.676  0.7321  1.1780  0.8108
  243DG     H21 5587   1.219   4.494   5.600 -1.8355  0.5041 -0.4233
  243DG     H22 5588   1.180   4.319   5.807  0.7989 -0.6459  2.1240
  243DG     H23 5589   1.317   4.300   5.713  4.0076  2.8376  1.6618
  244DG      C1 5590   2.805   3.788   1.491 -0.7877  0.1331  0.0142
  244DG      C2 5591   2.677   4.465   1.182 -0.6668  0.1555  0.4013
  244DG      H3 5592   2.893   3.843   1.494  1.5902 -2.8477  1.3792
  244DG      H4 5593   2.818   3.708   1.418  2.5140 -0.6987  1.2662
  244DG      H5 5594   2.803   3.733   1.589  0.7302  0.2864 -1.4205
  244DG      H6 5595   2.758   4.424   1.130  1.4564 -0.1408  0.5745
  244DG      H7 5596   2.614   4.522   1.114  1.5984 -2.6008  0.0281
  244DG      H8 5597   2.715   4.537   1.250 -0.3318  0.1114  0.3801
  244DG      O9 5598   2.693   3.874   1.473  0.0010  0.8222 -0.6833
  244DG     O10 5599   2.623   4.348   1.237  0.2452 -0.0510 -0.2226
  244DG     C11 5600   2.693   3.969   1.573 -0.1061 -0.3308  0.0092
  244DG     C12 5601   2.546   4.366   1.359 -0.7400 -0.2576  0.9284
  244DG     H13 5602   2.783   4.025   1.569  0.9818  2.0680  0.4581
  244DG     H14 5603   2.683   3.914   1.666 -2.4692 -2.5917 -0.8052
  244DG     H15 5604   2.461   4.433   1.325  2.5317 -2.0159 -3.6288
  244DG     H16 5605   2.606   4.423   1.439  0.6944  1.8985 -1.6579
  244DG     C17 5606   2.582   4.074   1.556  0.2952 -0.4656 -0.1342
  244DG     C18 5607   2.489   4.234   1.421 -0.9575 -0.1583  0.0809
  244DG     O19 5608   2.600   4.157   1.443  0.3269 -0.1509  1.2966
  244DG     H20 5609   2.563   4.132   1.646  0.0372  1.1320  0.8245
  244DG     H21 5610   2.494   4.012   1.532  1.4249 -1.8152  0.2173
  244DG     H22 5611   2.442   4.264   1.511  4.9575  0.2817  1.7936
  244DG     H23 5612   2.414   4.185   1.355  3.0878 -1.1773  2.7827
  245DG      C1 5613   5.268   4.898   4.104 -0.3202 -0.2775  0.6541
  245DG      C2 5614   5.824   4.943   3.696  0.1007 -0.3736 -0.4943
  245DG      H3 5615   5.250   4.816   4.169  0.6129  0.9587  1.3538
  245DG      H4 5616   5.220   4.869   4.009  0.8643  2.3419 -1.0723
  245DG      H5 5617   5.229   4.995   4.122  0.6239 -1.0496 -0.4769
  245DG      H6 5618   5.734   4.994   3.651  2.5222  1.9737  0.5121
  245DG      H7 5619   5.912   5.013   3.700  0.1995  1.4566  2.3533
  245DG      H8 5620   5.861   4.859   3.631 -2.7255  0.4064 -2.8210
  245DG      O9 5621   5.412   4.903   4.085 -0.9281 -0.3201  0.3498
  245DG     O10 5622   5.799   4.910   3.831 -0.3131  0.9831 -0.6175
  245DG     C11 5623   5.472   4.949   4.206 -0.4905  0.4285 -0.9488
  245DG     C12 5624   5.806   5.032   3.904  0.2426 -0.0303 -0.6482
  245DG     H13 5625   5.437   4.896   4.296  0.1373 -2.5197  2.5376
  245DG     H14 5626   5.460   5.059   4.213 -0.4529 -0.8530 -1.5007
  245DG     H15 5627   5.712   5.083   3.873 -1.3152 -1.5011 -2.6491
  245DG     H16 5628   5.901   5.092   3.896 -1.4236  1.4420 -2.0882
  245DG     C17 5629   5.625   4.931   4.193 -0.1752 -0.0021  0.1570
  245DG     C18 5630   5.794   5.011   4.051  0.6302  0.6177 -0.7657
  245DG     O19 5631   5.664   4.960   4.063  0.1501 -0.0038  0.0316
  245DG     H20 5632   5.651   4.828   4.222 -2.6698  0.5982 -0.9189
  245DG     H21 5633   5.681   4.994   4.263  0.1630 -1.0984 -1.8407
  245DG     H22 5634   5.868   4.932   4.079 -3.0332  0.9293  1.0024
  245DG     H23 5635   5.813   5.103   4.111 -0.3974 -1.2094  1.9169
  246DG      C1 5636   4.147   4.701   1.018 -0.1920  0.3766  0.0501
  246DG      C2 5637   4.407   4.049   1.255  0.6644  0.2536 -0.1781
  246DG      H3 5638   4.074   4.781   1.027  0.5892  3.3826  1.5830
  246DG      H4 5639   4.147   4.665   0.917  0.5143  0.3493  0.0930
  246DG      H5 5640   4.252   4.737   1.022  2.8140  1.4320  1.2098
  246DG      H6 5641   4.374   3.970   1.333 -2.3398 -1.4996 -2.5380
  246DG      H7 5642   4.470   4.009   1.172 -0.9162  1.2905 -0.6360
  246DG      H8 5643   4.452   4.119   1.316  0.5409  1.4804 -0.5372
  246DG      O9 5644   4.118   4.598   1.106 -0.4784  0.0644 -0.5327
  246DG     O10 5645   4.286   4.103   1.199  0.0978 -0.4035 -0.0988
  246DG     C11 5646   3.996   4.525   1.084  0.1109 -0.1034 -0.5196
  246DG     C12 5647   4.198   4.151   1.299  0.0452 -0.1646  0.0168
  246DG     H13 5648   3.986   4.492   0.980 -0.2562 -2.7028 -0.2997
  246DG     H14 5649   3.902   4.580   1.083  0.4897  2.6856 -1.2698
  246DG     H15 5650   4.242   4.233   1.362  1.1591  0.5018 -1.1424
  246DG     H16 5651   4.175   4.071   1.366 -0.8905 -1.9057 -1.7290
  246DG     C17 5652   3.983   4.408   1.183 -0.5048  0.5823 -0.4814
  246DG     C18 5653   4.069   4.199   1.240 -0.0938 -0.0438  0.0366
  246DG     O19 5654   4.084   4.320   1.166 -0.2546 -0.3935 -0.1697
  246DG     H20 5655   3.886   4.367   1.163  1.2870  0.2676 -1.2187
  246DG     H21 5656   3.972   4.448   1.285 -1.2028  1.4990 -0.8314
  246DG     H22 5657   4.005   4.115   1.213  2.7965 -1.2009 -0.5028
  246DG     H23 5658   4.018   4.240   1.332  0.6050  2.1361 -0.1775
  247DG      C1 5659   0.494   3.392   1.131  0.2080 -0.2098  0.7706
  247DG      C2 5660  -0.158   3.204   1.084 -0.3510 -0.3074  0.1828
  247DG      H3 5661   0.467   3.425   1.225  2.1031 -0.4168 -1.1518
  247DG      H4 5662   0.506   3.488   1.073  1.9657  3.2317 -0.8705
  247DG      H5 5663   0.600   3.352   1.133 -1.4695 -1.3688  2.6736
  247DG      H6 5664  -0.141   3.265   1.176  0.9140 -1.6456  0.8701
  247DG      H7 5665  -0.213   3.261   1.015 -1.1291  1.2285 -2.6259
  247DG      H8 5666  -0.214   3.114   1.105 -1.3828  0.3321 -0.1126
  247DG      O9 5667   0.401   3.300   1.069  0.4711 -0.6947  0.0844
  247DG     O10 5668  -0.032   3.178   1.041 -0.1743  0.6790 -0.5109
  247DG     C11 5669   0.421   3.295   0.930  0.1663 -0.6041  0.4589
  247DG     C12 5670  -0.034   3.127   0.908 -0.6459  0.2002  0.1926
  247DG     H13 5671   0.523   3.284   0.900  2.1591  1.9792 -1.3875
  247DG     H14 5672   0.384   3.397   0.891  1.0321  0.3529  0.4221
  247DG     H15 5673  -0.097   3.185   0.848 -2.5846  1.4030 -2.8739
  247DG     H16 5674  -0.090   3.038   0.904  3.4134 -0.0873 -1.2609
  247DG     C17 5675   0.330   3.188   0.866  0.1056 -0.2273  0.8912
  247DG     C18 5676   0.109   3.095   0.866 -0.1002 -1.4571 -0.4781
  247DG     O19 5677   0.202   3.195   0.925  0.0344  0.6649 -0.0057
  247DG     H20 5678   0.379   3.089   0.873 -0.0413 -1.8381 -0.1878
  247DG     H21 5679   0.318   3.213   0.758  1.4404 -2.5767  0.2944
  247DG     H22 5680   0.138   2.994   0.898  2.4049 -1.6240  0.7684
  247DG     H23 5681   0.113   3.089   0.752 -0.0525  0.3235 -1.6754
  248DG      C1 5682   0.033   1.056   1.801  0.1285 -0.3030  0.5802
  248DG      C2 5683   0.203   0.998   1.127  1.0456  0.2356 -0.5434
  248DG      H3 5684  -0.057   1.072   1.864 -1.8824  0.9402  2.8461
  248DG      H4 5685   0.080   1.150   1.795  0.3959 -1.0088  1.5350
  248DG      H5 5686   0.096   0.977   1.837  0.5310  2.3217  0.9872
  248DG      H6 5687   0.171   1.015   1.026  2.7065  0.9605  0.7073
  248DG      H7 5688   0.262   1.088   1.146 -0.0907  2.2673 -0.8762
  248DG      H8 5689   0.271   0.913   1.134  0.1370  0.7951 -0.1909
  248DG      O9 5690  -0.007   1.020   1.672 -0.1340 -0.0447  0.2143
  248DG     O10 5691   0.097   0.996   1.218  0.0508 -0.0454  0.4278
  248DG     C11 5692  -0.097   0.911   1.674 -0.1075  0.2708  0.0306
  248DG     C12 5693   0.020   0.880   1.210 -0.1264 -0.1693  0.2743
  248DG     H13 5694  -0.171   0.918   1.755  1.6366 -0.7698 -0.7784
  248DG     H14 5695  -0.056   0.813   1.692  1.3510  3.2678 -0.0226
  248DG     H15 5696   0.073   0.793   1.220  0.4253  1.1935 -0.7770
  248DG     H16 5697  -0.018   0.885   1.107 -0.7260 -0.5411 -3.2262
  248DG     C17 5698  -0.168   0.922   1.537  0.5436 -0.4932 -0.0837
  248DG     C18 5699  -0.099   0.897   1.307 -0.0261  0.1325  0.4105
  248DG     O19 5700  -0.060   0.927   1.437 -0.0670 -0.0991 -0.4750
  248DG     H20 5701  -0.226   1.010   1.531  0.3186  0.5234 -0.0855
  248DG     H21 5702  -0.226   0.833   1.526  2.9588  0.5889 -0.7856
  248DG     H22 5703  -0.163   0.973   1.273  0.7266 -3.4393  1.0416
  248DG     H23 5704  -0.164   0.811   1.301  1.2139  0.3522 -1.8702
  249DG      C1 5705   4.964   0.917   3.529  0.2129  0.0335 -0.3475
  249DG      C2 5706   4.200   0.913   3.247 -0.2916 -0.5931 -0.7957
  249DG      H3 5707   5.035   0.879   3.458  2.5821 -1.5311 -2.4377
  249DG      H4 5708   4.975   0.859   3.622  1.1522  0.0489  0.5813
  249DG      H5 5709   4.989   1.021   3.546 -1.0466 -2.6916 -0.7805
  249DG      H6 5710   4.156   1.010   3.216  1.9041  0.6470  2.2629
  249DG      H7 5711   4.188   0.845   3.166  2.3183  0.1903  0.4532
  249DG      H8 5712   4.137   0.860   3.323  0.7338  0.7583 -1.0788
  249DG      O9 5713   4.839   0.913   3.462  0.1201 -0.2892 -0.4050
  249DG     O10 5714   4.336   0.911   3.289  0.4478  0.0334  0.3070
  249DG     C11 5715   4.789   0.785   3.432 -0.5988  0.4743  0.1138
  249DG     C12 5716   4.363   0.927   3.433  0.7994 -0.0414  1.2964
  249DG     H13 5717   4.749   0.744   3.526  0.3373 -2.2763  1.6043
  249DG     H14 5718   4.871   0.723   3.397 -0.4641 -0.8285  0.5711
  249DG     H15 5719   4.310   0.851   3.484 -0.7645  1.5972 -0.1967
  249DG     H16 5720   4.331   1.029   3.462 -0.0796  0.6068 -0.2031
  249DG     C17 5721   4.664   0.773   3.340  0.0730 -0.3205 -0.0035
  249DG     C18 5722   4.513   0.916   3.467  0.1355 -0.0480  0.0020
  249DG     O19 5723   4.546   0.780   3.418  0.1114 -0.1604  0.2287
  249DG     H20 5724   4.656   0.668   3.309  0.5909  0.4779  3.0604
  249DG     H21 5725   4.671   0.843   3.260  1.7219 -0.9363 -0.2455
  249DG     H22 5726   4.577   0.984   3.413 -1.7528 -1.9117 -1.7643
  249DG     H23 5727   4.529   0.915   3.578 -2.5533 -0.2273 -0.8793
  250DG      C1 5728   0.324   5.474   5.418  0.3006  0.0358  0.0464
  250DG      C2 5729   0.296   5.716   6.057  0.1193  0.4071  0.2509
  250DG      H3 5730   0.413   5.407   5.444 -3.2829  2.1060 -1.3510
  250DG      H4 5731   0.374   5.561   5.373  0.6308  0.5194 -1.8042
  250DG      H5 5732   0.265   5.426   5.333 -0.9181 -0.0786  2.1531
  250DG      H6 5733   0.291   5.822   6.050  1.6554 -0.3535 -0.6313
  250DG      H7 5734   0.282   5.665   6.154 -0.5769 -0.7566  0.7650
  250DG      H8 5735   0.398   5.697   6.033 -1.5769  0.8239 -0.3485
  250DG      O9 5736   0.250   5.524   5.526  0.4106  0.2542  0.6438
  250DG     O10 5737   0.217   5.653   5.959 -0.4234 -0.4207  0.3621
  250DG     C11 5738   0.116   5.571   5.497 -0.1469  0.7440 -0.0687
  250DG     C12 5739   0.081   5.694   5.963 -0.4561  0.3086 -0.0451
  250DG     H13 5740   0.070   5.498   5.427 -1.0895  0.7130  0.2353
  250DG     H14 5741   0.116   5.667   5.439 -1.0607 -0.6173 -1.0014
  250DG     H15 5742   0.075   5.805   5.958 -1.3644  1.1938 -2.1765
  250DG     H16 5743   0.039   5.668   6.057 -0.1999  0.2297  0.7389
  250DG     C17 5744   0.021   5.591   5.614  0.2595  0.8261 -0.0588
  250DG     C18 5745   0.016   5.617   5.843  0.1990  0.1356  1.2665
  250DG     O19 5746   0.086   5.636   5.729  0.1774 -0.3405  0.4637
  250DG     H20 5747  -0.032   5.498   5.631 -1.5444 -0.1688 -0.7011
  250DG     H21 5748  -0.059   5.658   5.579 -0.2699  2.6209  0.6068
  250DG     H22 5749   0.010   5.504   5.864  0.5303 -1.9326 -0.9774
  250DG     H23 5750  -0.085   5.663   5.822 -1.7228  1.5215  1.5539
  251DG      C1 5751   0.782   3.665   0.595 -0.8957  0.2206  0.1868
  251DG      C2 5752   0.756   3.989  -0.024  0.6119  0.0947 -0.9289
  251DG      H3 5753   0.726   3.746   0.637  0.9507 -1.7406  1.0149
  251DG      H4 5754   0.882   3.707   0.603  1.0996  0.5855  0.2410
  251DG      H5 5755   0.778   3.579   0.660 -1.8223  1.2380 -2.3765
  251DG      H6 5756   0.852   4.032   0.022  3.7885  0.8062 -2.4727
  251DG      H7 5757   0.752   3.991  -0.133 -1.8756  0.6004 -0.0392
  251DG      H8 5758   0.671   4.051   0.028 -2.5771  1.1811  2.2444
  251DG      O9 5759   0.750   3.645   0.455  0.5117 -0.6655  0.0260
  251DG     O10 5760   0.744   3.850  -0.004 -0.4779 -1.0041 -0.3767
  251DG     C11 5761   0.830   3.547   0.392  0.8572 -0.3180 -0.3055
  251DG     C12 5762   0.844   3.760  -0.044 -0.1823 -0.3780 -0.3972
  251DG     H13 5763   0.819   3.451   0.433  0.4841 -1.3355 -1.7861
  251DG     H14 5764   0.930   3.567   0.423 -0.0732 -1.1379  0.6581
  251DG     H15 5765   0.944   3.795  -0.014 -2.0763  1.6853 -0.4446
  251DG     H16 5766   0.854   3.756  -0.151  1.0919  1.9088  0.1672
  251DG     C17 5767   0.807   3.526   0.242 -1.1885  0.1603 -1.2764
  251DG     C18 5768   0.818   3.626   0.026  0.3324 -0.3818  0.2665
  251DG     O19 5769   0.806   3.643   0.166 -0.1410 -0.7555 -0.8427
  251DG     H20 5770   0.714   3.470   0.231 -0.3326 -1.4736 -0.6600
  251DG     H21 5771   0.887   3.458   0.198 -0.1932 -2.0405  0.4454
  251DG     H22 5772   0.726   3.588  -0.014  0.2205  2.0103  0.2722
  251DG     H23 5773   0.890   3.555  -0.016  0.5817 -0.8718 -0.1018
  252DG      C1 5774   0.964   4.585   2.066 -0.3549 -1.4705 -0.2286
  252DG      C2 5775   0.437   4.053   2.281  0.1415 -0.2458  0.1304
  252DG      H3 5776   0.881   4.654   2.039 -1.6249 -0.5606  1.9345
  252DG      H4 5777   1.046   4.582   2.003  1.0972 -1.7427  1.0356
  252DG      H5 5778   1.010   4.628   2.152 -1.1382 -0.3224 -1.1391
  252DG      H6 5779   0.442   3.967   2.343  2.0144 -0.0914 -1.6194
  252DG      H7 5780   0.350   4.117   2.309  2.0339  0.7476 -2.3938
  252DG      H8 5781   0.400   4.038   2.182  0.5727  0.2186  2.0157
  252DG      O9 5782   0.907   4.459   2.089 -0.2625 -0.1112 -0.7475
  252DG     O10 5783   0.563   4.107   2.271 -0.1882  0.8393  0.1692
  252DG     C11 5784   1.002   4.362   2.120  0.5224  0.3508  0.1842
  252DG     C12 5785   0.550   4.242   2.226  0.3776  0.1104 -0.6063
  252DG     H13 5786   1.095   4.399   2.163  0.9935  1.1228 -0.0187
  252DG     H14 5787   1.030   4.309   2.031  2.1313 -0.0248  2.5996
  252DG     H15 5788   0.481   4.290   2.289 -0.5433 -3.1760 -3.0159
  252DG     H16 5789   0.511   4.241   2.129  1.7981 -2.5159  1.7219
  252DG     C17 5790   0.928   4.262   2.201  0.0153  0.7327  0.9408
  252DG     C18 5791   0.686   4.306   2.236  0.5874  0.2471  0.3328
  252DG     O19 5792   0.789   4.238   2.162 -0.3369  0.6459 -0.0915
  252DG     H20 5793   0.929   4.275   2.305  1.2071 -1.3127 -1.5730
  252DG     H21 5794   0.983   4.170   2.188  0.8648  1.8739 -2.4061
  252DG     H22 5795   0.689   4.407   2.208  0.7503 -2.2579 -0.6483
  252DG     H23 5796   0.711   4.304   2.339 -0.8453  1.3339 -0.0991
  253DG      C1 5797   5.033   1.462   2.386  0.6070  0.4501 -0.0484
  253DG      C2 5798   5.302   0.733   1.983 -0.1211  0.3567  0.2342
  253DG      H3 5799   4.949   1.529   2.362 -1.3784 -1.2674  3.1596
  253DG      H4 5800   5.128   1.473   2.335 -3.0478  0.5466 -0.0704
  253DG      H5 5801   5.061   1.468   2.488  1.8314  0.6355  0.4029
  253DG      H6 5802   5.224   0.652   1.969  0.6024  2.8627 -1.1464
  253DG      H7 5803   5.346   0.727   1.885 -0.0932  0.0767  0.7362
  253DG      H8 5804   5.379   0.693   2.048  1.0485  1.0479  1.7993
  253DG      O9 5805   4.984   1.327   2.359  0.4676  0.2141  0.2913
  253DG     O10 5806   5.262   0.863   2.007  0.4704  0.2768  0.4035
  253DG     C11 5807   5.078   1.229   2.384 -0.3242  0.0897  0.2376
  253DG     C12 5808   5.198   0.872   2.133 -0.3177 -0.4208 -0.3161
  253DG     H13 5809   5.097   1.208   2.488 -1.4153 -1.3555 -3.5130
  253DG     H14 5810   5.176   1.253   2.355 -2.0685 -1.0477  1.0680
  253DG     H15 5811   5.254   0.821   2.209  0.2044  2.6308 -0.9138
  253DG     H16 5812   5.095   0.834   2.125 -0.6637 -0.4460 -0.0364
  253DG     C17 5813   5.013   1.101   2.322 -0.1130  0.0093  0.1993
  253DG     C18 5814   5.192   1.009   2.185  0.0706  0.0337  0.4136
  253DG     O19 5815   5.112   0.999   2.305  0.6802 -0.5782 -0.4220
  253DG     H20 5816   4.961   1.117   2.224 -1.4125 -1.6490  1.5873
  253DG     H21 5817   4.949   1.074   2.405  2.5992  1.3428  1.0967
  253DG     H22 5818   5.291   1.049   2.200  1.1112 -0.9783  0.7187
  253DG     H23 5819   5.141   1.072   2.111 -2.5752  0.8512 -1.5480
  254DG      C1 5820   0.489   0.233   2.224 -0.0455 -0.4890  0.1536
  254DG      C2 5821  -0.376   0.368   2.241 -0.3268 -0.0992  0.2670
  254DG      H3 5822   0.440   0.193   2.141  1.0636 -2.1807 -1.5312
  254DG      H4 5823   0.526   0.153   2.288  1.5871 -5.4628 -1.4891
  254DG      H5 5824   0.575   0.286   2.184  1.7263  0.0185  0.2675
  254DG      H6 5825  -0.384   0.338   2.136 -0.8500  0.2478 -1.1804
  254DG      H7 5826  -0.383   0.275   2.298  3.0351  0.7758 -0.2615
  254DG      H8 5827  -0.459   0.438   2.239 -0.4395  0.7137 -2.5773
  254DG      O9 5828   0.388   0.313   2.280  0.0424  0.2712 -0.0435
  254DG     O10 5829  -0.253   0.434   2.261 -0.5076  0.3533  0.1104
  254DG     C11 5830   0.290   0.221   2.333  0.8674 -0.8018 -0.5487
  254DG     C12 5831  -0.146   0.342   2.261  0.0729  0.8128 -0.5635
  254DG     H13 5832   0.331   0.149   2.406 -1.7980  2.7395 -0.0175
  254DG     H14 5833   0.261   0.159   2.250  0.3496 -0.3884  0.1636
  254DG     H15 5834  -0.132   0.290   2.163  1.1852 -0.0002 -0.4728
  254DG     H16 5835  -0.155   0.264   2.332  1.5510  1.0301  2.5508
  254DG     C17 5836   0.155   0.288   2.379 -0.5791  0.2643 -0.4693
  254DG     C18 5837  -0.021   0.420   2.288 -1.0309  0.4363  0.0214
  254DG     O19 5838   0.095   0.342   2.259  0.9486  0.8084 -0.0960
  254DG     H20 5839   0.173   0.374   2.452 -1.4848  2.1360  3.5880
  254DG     H21 5840   0.091   0.217   2.432  4.2463 -0.4697  0.0433
  254DG     H22 5841  -0.015   0.495   2.211  2.4177 -0.1837  0.0935
  254DG     H23 5842  -0.022   0.473   2.384  0.0524  3.2012  1.3988
  255DG      C1 5843   4.119   2.676   5.025 -0.2387 -0.0081 -0.6553
  255DG      C2 5844   3.632   2.187   4.852 -0.5911  0.1292  0.0345
  255DG      H3 5845   4.022   2.700   5.073  2.1671 -0.9858  0.3003
  255DG      H4 5846   4.174   2.765   5.026  0.1396 -0.2130 -0.2299
  255DG      H5 5847   4.165   2.595   5.080 -0.7674 -1.4717 -0.5659
  255DG      H6 5848   3.542   2.261   4.856 -1.8611 -2.6565  0.6754
  255DG      H7 5849   3.606   2.099   4.788  0.1549 -1.2018  0.5669
  255DG      H8 5850   3.642   2.157   4.953 -0.6320  0.1388  0.7837
  255DG      O9 5851   4.100   2.643   4.885  0.1604 -0.7698  0.6033
  255DG     O10 5852   3.755   2.247   4.821  0.3365  0.2697 -0.7455
  255DG     C11 5853   4.020   2.526   4.866  0.1003  0.5642 -0.3307
  255DG     C12 5854   3.853   2.147   4.782  0.5636 -0.3199  0.1109
  255DG     H13 5855   3.990   2.524   4.760  2.1963 -0.1559 -0.2594
  255DG     H14 5856   3.931   2.527   4.929  0.2487  0.4745  1.5647
  255DG     H15 5857   3.829   2.088   4.694  1.2827  0.8100 -1.3216
  255DG     H16 5858   3.872   2.083   4.866 -0.7537  0.5963  3.5477
  255DG     C17 5859   4.099   2.394   4.879  0.0436  0.0078 -0.2102
  255DG     C18 5860   3.980   2.228   4.770 -0.4925  0.6002 -0.5045
  255DG     O19 5861   4.007   2.283   4.893 -0.1076 -0.0167  0.4689
  255DG     H20 5862   4.158   2.395   4.971 -1.1779  0.0595 -0.7982
  255DG     H21 5863   4.181   2.382   4.811  0.1831  2.6958  1.6492
  255DG     H22 5864   4.067   2.172   4.734 -0.6859  1.7640 -2.5654
  255DG     H23 5865   3.961   2.304   4.692 -3.0042  0.8243 -0.9435
  256DG      C1 5866   4.460   5.448   3.844 -0.0350 -0.6508  0.2379
  256DG      C2 5867   4.292   5.902   4.514  0.6492 -0.5835 -0.3525
  256DG      H3 5868   4.547   5.401   3.884  1.7704 -0.4093 -3.1067
  256DG      H4 5869   4.502   5.538   3.787  2.2705  3.5875  0.1308
  256DG      H5 5870   4.417   5.388   3.765  0.8633 -0.9125  0.5833
  256DG      H6 5871   4.364   5.879   4.586  2.0424  0.4573 -1.5766
  256DG      H7 5872   4.329   5.983   4.449 -0.8453 -0.3701  3.9534
  256DG      H8 5873   4.203   5.941   4.568 -0.7392 -0.6447  1.1564
  256DG      O9 5874   4.371   5.477   3.946  0.6369  0.4708 -0.6934
  256DG     O10 5875   4.236   5.797   4.446 -0.1086  0.0938 -0.3295
  256DG     C11 5876   4.355   5.375   4.046  0.4412 -0.0973 -0.1694
  256DG     C12 5877   4.326   5.734   4.356  0.2523  0.2200  0.4275
  256DG     H13 5878   4.446   5.347   4.105  1.3028  1.2162  0.4151
  256DG     H14 5879   4.303   5.286   4.013 -3.7237 -2.5693 -0.2727
  256DG     H15 5880   4.404   5.673   4.400  1.4365 -3.8310 -3.2153
  256DG     H16 5881   4.366   5.805   4.285  1.4408 -1.4212 -0.1399
  256DG     C17 5882   4.261   5.436   4.147 -0.9252 -0.1268 -0.6518
  256DG     C18 5883   4.238   5.632   4.276 -0.4655 -0.8224 -0.1846
  256DG     O19 5884   4.329   5.549   4.206 -0.0206  0.2933 -0.2959
  256DG     H20 5885   4.246   5.366   4.232  2.4236 -0.6613 -0.1436
  256DG     H21 5886   4.165   5.469   4.101 -0.2037 -0.4077 -0.2375
  256DG     H22 5887   4.183   5.580   4.354 -1.9461  3.0144  3.4265
  256DG     H23 5888   4.163   5.678   4.215  1.5465 -0.0776  0.3320
  257DG      C1 5889   0.675   3.654   1.733 -0.2644 -0.3129 -0.2018
  257DG      C2 5890   0.560   4.300   1.531  0.3803  0.8192 -0.0486
  257DG      H3 5891   0.615   3.589   1.667 -2.5658  1.6067  0.4496
  257DG      H4 5892   0.673   3.600   1.831 -1.9002  0.6543 -0.6214
  257DG      H5 5893   0.770   3.660   1.684 -0.6199  0.7448 -0.1843
  257DG      H6 5894   0.643   4.349   1.581  1.4086  1.8762 -0.0656
  257DG      H7 5895   0.616   4.265   1.447 -1.2867 -1.2488  1.2476
  257DG      H8 5896   0.490   4.376   1.493  0.6846  0.3947  0.1298
  257DG      O9 5897   0.609   3.776   1.757  0.7366  0.2205  0.0260
  257DG     O10 5898   0.516   4.181   1.598  0.2977 -0.1395  1.0135
  257DG     C11 5899   0.481   3.765   1.819  0.3130  0.0797  0.1496
  257DG     C12 5900   0.380   4.186   1.637  0.6238 -0.2663 -0.3762
  257DG     H13 5901   0.495   3.704   1.909  1.6260 -2.4699  0.3684
  257DG     H14 5902   0.424   3.702   1.743  2.1420  0.3596 -0.3880
  257DG     H15 5903   0.325   4.134   1.556 -3.0211  0.7425  1.0994
  257DG     H16 5904   0.335   4.283   1.655  2.3067 -0.3150  0.9359
  257DG     C17 5905   0.425   3.900   1.861  0.0563 -0.3050  0.1812
  257DG     C18 5906   0.362   4.102   1.764  0.2354  0.6894 -0.8829
  257DG     O19 5907   0.412   3.973   1.743  0.0256  0.1343 -0.1243
  257DG     H20 5908   0.479   3.952   1.940 -2.4515 -0.6109 -0.5553
  257DG     H21 5909   0.328   3.884   1.906 -0.6001 -0.4073  2.6663
  257DG     H22 5910   0.414   4.159   1.851 -1.7536 -1.1501 -0.3678
  257DG     H23 5911   0.262   4.083   1.793 -0.8290  0.1386  0.5065
  258DG      C1 5912   5.401   2.783   2.886 -0.6002  0.3311 -0.7836
  258DG      C2 5913   4.934   2.594   2.370  0.8314  0.1497 -0.2246
  258DG      H3 5914   5.492   2.786   2.826 -0.0574 -1.0757  0.8164
  258DG      H4 5915   5.404   2.785   2.995 -0.4982  2.8995  0.7031
  258DG      H5 5916   5.354   2.885   2.864  1.5325  1.5002 -0.6104
  258DG      H6 5917   5.008   2.641   2.307  2.6031  0.9087  1.8433
  258DG      H7 5918   4.878   2.515   2.313  1.3580  2.0652 -0.7714
  258DG      H8 5919   4.866   2.671   2.406 -1.3575  2.3351 -0.8936
  258DG      O9 5920   5.307   2.689   2.829 -0.2186 -0.4443  0.3578
  258DG     O10 5921   4.997   2.549   2.486  0.0550  0.1626  0.1448
  258DG     C11 5922   5.368   2.557   2.818  0.5151  0.2801 -0.6898
  258DG     C12 5923   5.072   2.424   2.469 -0.3262 -0.0828 -0.1658
  258DG     H13 5924   5.409   2.532   2.916  0.2142  1.4937 -2.0362
  258DG     H14 5925   5.444   2.544   2.743 -1.9795  0.2581  2.5699
  258DG     H15 5926   5.161   2.433   2.406 -0.8062 -0.5908 -0.2417
  258DG     H16 5927   5.015   2.345   2.417  0.2124  1.0241 -0.9576
  258DG     C17 5928   5.257   2.453   2.788  0.2488 -0.1067  0.6269
  258DG     C18 5929   5.112   2.391   2.615 -0.2203 -0.1709  0.3832
  258DG     O19 5930   5.217   2.475   2.657  0.3489 -0.0762 -0.0209
  258DG     H20 5931   5.178   2.476   2.854  1.8006 -1.9387 -2.0391
  258DG     H21 5932   5.288   2.351   2.803 -0.6943  3.3297  1.7852
  258DG     H22 5933   5.021   2.418   2.670  0.5462  0.2082  0.5454
  258DG     H23 5934   5.133   2.285   2.638  0.6195 -0.8744  0.6099
  259DG      C1 5935   2.113   0.483   3.668 -0.4207 -0.7825 -0.2003
  259DG      C2 5936   2.375   0.007   3.943 -0.4328  0.3562 -0.3482
  259DG      H3 5937   2.083   0.392   3.626 -1.0652 -1.1288  0.4194
  259DG      H4 5938   2.139   0.559   3.588  2.8550  0.8048 -2.2529
  259DG      H5 5939   2.027   0.528   3.726  1.6565  1.5749  2.3757
  259DG      H6 5940   2.290  -0.065   3.936 -1.3683  1.9904 -2.3416
  259DG      H7 5941   2.429  -0.007   3.845  1.9025  0.6416 -3.0906
  259DG      H8 5942   2.448  -0.029   4.019  2.8433 -0.8672  1.9544
  259DG      O9 5943   2.223   0.466   3.756  0.4306 -0.0423  0.4154
  259DG     O10 5944   2.333   0.139   3.978  0.0006  0.4213 -0.8186
  259DG     C11 5945   2.249   0.568   3.856 -0.2660  0.2815 -0.5573
  259DG     C12 5946   2.438   0.219   4.014 -0.0083 -0.4023  0.0674
  259DG     H13 5947   2.157   0.613   3.892  1.4906 -0.7036  2.9989
  259DG     H14 5948   2.282   0.652   3.797  1.5552  0.0384  1.3244
  259DG     H15 5949   2.487   0.260   3.922 -0.6576 -0.1428  0.5680
  259DG     H16 5950   2.507   0.166   4.086  0.7933 -1.7729 -1.7125
  259DG     C17 5951   2.337   0.532   3.967  0.1830  0.3901 -0.0799
  259DG     C18 5952   2.377   0.335   4.096  0.6429  1.2072  0.5451
  259DG     O19 5953   2.284   0.411   4.032  0.4818  0.1793 -0.2354
  259DG     H20 5954   2.342   0.610   4.034  0.7738  0.5010 -0.9747
  259DG     H21 5955   2.435   0.509   3.933  3.3942  1.9693  0.3832
  259DG     H22 5956   2.326   0.281   4.181 -0.2757  0.2564  1.3347
  259DG     H23 5957   2.458   0.392   4.143 -1.5200  1.9152  0.5371
  260DG      C1 5958   0.608   5.309   0.265 -0.0607  0.2873 -0.3799
  260DG      C2 5959  -0.124   5.260   0.646  1.0520 -0.1532 -0.5507
  260DG      H3 5960   0.650   5.397   0.220 -3.8139  1.2647  0.6915
  260DG      H4 5961   0.636   5.222   0.204  0.6216  0.3259 -1.0111
  260DG      H5 5962   0.657   5.295   0.362 -1.8860 -1.6756  1.0204
  260DG      H6 5963  -0.112   5.272   0.757  0.2674  2.4826  0.9369
  260DG      H7 5964  -0.225   5.307   0.622 -1.0878  1.0208 -0.7736
  260DG      H8 5965  -0.119   5.155   0.618  1.0319  2.2695 -1.3983
  260DG      O9 5966   0.469   5.328   0.266 -0.7544  0.1219 -0.1351
  260DG     O10 5967  -0.012   5.324   0.581 -0.4658  0.4719 -0.0206
  260DG     C11 5968   0.408   5.218   0.329  0.0349 -0.1026  0.9299
  260DG     C12 5969   0.113   5.258   0.606 -0.1223  0.2508 -0.2661
  260DG     H13 5970   0.457   5.214   0.429 -0.5107  1.5539 -2.2864
  260DG     H14 5971   0.424   5.122   0.282 -0.1736 -2.7983 -1.6575
  260DG     H15 5972   0.112   5.157   0.564 -1.2712 -2.8420  0.0501
  260DG     H16 5973   0.131   5.238   0.715 -2.3192  1.0640  1.3204
  260DG     C17 5974   0.255   5.241   0.319 -0.1767  0.7301  0.6468
  260DG     C18 5975   0.228   5.337   0.543  0.1143  0.1002 -0.8803
  260DG     O19 5976   0.217   5.355   0.399 -0.0181 -0.3827  0.5106
  260DG     H20 5977   0.200   5.154   0.352 -2.6137 -1.7933 -0.1191
  260DG     H21 5978   0.232   5.264   0.216 -1.6066  1.1906 -1.1258
  260DG     H22 5979   0.240   5.428   0.592 -1.1078 -0.6620  2.3164
  260DG     H23 5980   0.319   5.289   0.571  0.0774 -0.0201  0.6527
  261DG      C1 5981   3.277   1.018   0.982  0.4744 -0.9771 -0.4043
  261DG      C2 5982   3.487   1.442   0.511 -0.2406 -0.6896  0.1546
  261DG      H3 5983   3.364   1.066   1.025  0.4118  1.4218 -1.8953
  261DG      H4 5984   3.256   0.913   1.007 -1.2090  0.1022 -0.3842
  261DG      H5 5985   3.183   1.071   1.011  1.9207  0.0662  0.6329
  261DG      H6 5986   3.549   1.386   0.446 -2.4180  0.0274  0.1772
  261DG      H7 5987   3.456   1.529   0.462  0.6983 -0.5883  0.2426
  261DG      H8 5988   3.550   1.472   0.593 -0.5282  1.8035 -0.3133
  261DG      O9 5989   3.287   1.031   0.837  0.1318 -0.0847 -0.2964
  261DG     O10 5990   3.386   1.363   0.558  0.1666  0.4981  1.3269
  261DG     C11 5991   3.171   1.011   0.761  0.0259  0.6758  0.1566
  261DG     C12 5992   3.275   1.356   0.466  0.3524  1.3075  0.5536
  261DG     H13 5993   3.079   1.059   0.794  1.7166 -1.7598 -1.0795
  261DG     H14 5994   3.151   0.905   0.771  1.6375  0.7640  1.2061
  261DG     H15 5995   3.292   1.383   0.361  3.0602  1.1284 -0.6019
  261DG     H16 5996   3.195   1.424   0.497 -0.4166  2.7198  0.1550
  261DG     C17 5997   3.192   1.028   0.613 -0.3074  0.4682  0.1658
  261DG     C18 5998   3.215   1.214   0.471 -0.6106  0.4919  0.0659
  261DG     O19 5999   3.226   1.166   0.598  0.0145 -0.3437 -0.4720
  261DG     H20 6000   3.096   1.007   0.569  0.9151  0.4720 -3.0800
  261DG     H21 6001   3.266   0.954   0.576  1.3253 -0.8562 -1.9594
  261DG     H22 6002   3.115   1.205   0.444  1.0179 -0.3023  0.3684
  261DG     H23 6003   3.270   1.148   0.408  0.6084 -1.0828 -0.2955
  262DG      C1 6004   3.459   0.242   4.962  0.6316  0.2646  0.6005
  262DG      C2 6005   3.105   0.632   5.308  0.0081  0.0017 -0.1234
  262DG      H3 6006   3.455   0.287   4.866  1.8093 -0.9376 -0.7258
  262DG      H4 6007   3.356   0.198   4.981 -2.1388  2.9291 -0.0037
  262DG      H5 6008   3.531   0.172   4.952 -0.4726 -2.7630 -0.1622
  262DG      H6 6009   3.100   0.702   5.388  0.9152 -0.6005 -0.9259
  262DG      H7 6010   3.057   0.686   5.223 -0.9900  1.3919  0.1486
  262DG      H8 6011   3.047   0.539   5.330  0.6803 -0.7096 -0.4217
  262DG      O9 6012   3.494   0.326   5.071 -0.6116 -0.1401  0.5464
  262DG     O10 6013   3.245   0.590   5.301 -0.1409  0.0296  0.5738
  262DG     C11 6014   3.610   0.407   5.046  0.0551  0.0058 -0.1947
  262DG     C12 6015   3.334   0.698   5.297  1.0456  0.1369  0.2655
  262DG     H13 6016   3.596   0.451   4.947  0.1984  0.2658  2.1525
  262DG     H14 6017   3.707   0.353   5.055 -2.5936  2.5217  0.5363
  262DG     H15 6018   3.317   0.748   5.392 -1.3210  0.5567 -1.4587
  262DG     H16 6019   3.305   0.766   5.215 -1.8168  0.3684 -1.1725
  262DG     C17 6020   3.612   0.524   5.148 -0.0136  0.3795 -0.3529
  262DG     C18 6021   3.477   0.667   5.274 -0.6083  0.2927  0.5134
  262DG     O19 6022   3.482   0.553   5.186  0.8317 -0.3086 -0.0244
  262DG     H20 6023   3.663   0.611   5.105 -2.2249  1.3939  0.1330
  262DG     H21 6024   3.679   0.497   5.233 -0.9265 -0.0286  1.4276
  262DG     H22 6025   3.521   0.761   5.244  0.8406 -0.1879 -2.1236
  262DG     H23 6026   3.528   0.644   5.365  0.2135  0.0133 -1.6141
  263DG      C1 6027   2.970   0.235   3.373  0.3343 -0.4770 -0.1812
  263DG      C2 6028   2.539   0.731   3.094  0.3260 -0.4287  0.1854
  263DG      H3 6029   2.865   0.207   3.391 -1.1121 -3.0570  1.0345
  263DG      H4 6030   3.024   0.193   3.457 -2.4547 -0.0615  0.2106
  263DG      H5 6031   3.011   0.183   3.288 -1.3634 -3.8068 -1.0461
  263DG      H6 6032   2.472   0.652   3.068  0.1928 -1.6727  0.5102
  263DG      H7 6033   2.490   0.790   3.172  3.3232 -0.4325  2.3253
  263DG      H8 6034   2.560   0.787   3.003  2.0802 -0.3302 -1.2159
  263DG      O9 6035   2.992   0.377   3.359  0.1268  0.9661 -0.0003
  263DG     O10 6036   2.657   0.684   3.151 -0.6222 -0.5227  0.3379
  263DG     C11 6037   2.956   0.447   3.474  0.2043  0.6361 -0.3159
  263DG     C12 6038   2.742   0.786   3.196 -0.1861  0.3434  0.5308
  263DG     H13 6039   3.039   0.424   3.542  2.2492  2.5769  1.2969
  263DG     H14 6040   2.857   0.415   3.508 -0.5373 -0.9089  0.9904
  263DG     H15 6041   2.699   0.838   3.281 -0.2179  0.3712 -2.2975
  263DG     H16 6042   2.763   0.864   3.125  1.7289 -1.8020  3.9680
  263DG     C17 6043   2.957   0.602   3.433  0.4409 -0.7924  0.9815
  263DG     C18 6044   2.866   0.731   3.255  0.4365  0.3554 -0.0444
  263DG     O19 6045   2.850   0.621   3.341  0.2025  0.4502  0.3836
  263DG     H20 6046   3.050   0.622   3.381  0.1000  0.7638  0.3444
  263DG     H21 6047   2.946   0.657   3.529 -0.9306 -0.8223  0.4931
  263DG     H22 6048   2.910   0.693   3.171 -0.6079  0.7689  1.8062
  263DG     H23 6049   2.939   0.803   3.288 -2.0897 -1.6067  0.5063
  264DG      C1 6050   4.101   5.419   2.734 -0.0158  0.0001 -0.2873
  264DG      C2 6051   4.754   5.007   3.100 -0.0730 -0.1506  0.1690
  264DG      H3 6052   4.137   5.511   2.777 -0.1439 -2.1456 -0.6464
  264DG      H4 6053   4.000   5.443   2.720  1.1826  0.2994  2.1461
  264DG      H5 6054   4.156   5.404   2.643  1.4697  1.1431  0.7412
  264DG      H6 6055   4.762   4.933   3.183 -1.2489  0.8614  1.6287
  264DG      H7 6056   4.820   4.981   3.026  0.2713  1.8133  2.4145
  264DG      H8 6057   4.799   5.107   3.129 -2.8500 -0.0636  2.1260
  264DG      O9 6058   4.117   5.312   2.827  0.6938 -0.3262 -0.6303
  264DG     O10 6059   4.620   5.027   3.050 -0.8607 -0.2310 -0.1448
  264DG     C11 6060   4.249   5.284   2.855  0.2992  0.3231  0.1973
  264DG     C12 6061   4.545   5.084   3.162 -0.2577  0.8472  0.2990
  264DG     H13 6062   4.298   5.371   2.884 -2.0364  0.0787 -1.6052
  264DG     H14 6063   4.302   5.237   2.773  0.8932 -1.7512  3.4449
  264DG     H15 6064   4.576   5.190   3.175 -0.1925  0.2036 -0.4755
  264DG     H16 6065   4.572   5.033   3.261 -0.3774 -0.2432 -0.4834
  264DG     C17 6066   4.257   5.174   2.969 -0.2584 -0.1531 -0.1172
  264DG     C18 6067   4.394   5.081   3.130 -0.0246  0.5302 -0.3599
  264DG     O19 6068   4.375   5.177   3.029 -0.7828 -0.5211  0.1892
  264DG     H20 6069   4.231   5.074   2.924 -1.9819  1.0888  0.3116
  264DG     H21 6070   4.177   5.192   3.043  0.3970  1.7371  0.8433
  264DG     H22 6071   4.378   4.980   3.099  0.7072  1.6921 -4.3323
  264DG     H23 6072   4.340   5.110   3.221 -0.3238  2.4712  1.2283
  265DG      C1 6073   3.639   1.094   2.892 -0.4924  0.9537 -0.1533
  265DG      C2 6074   3.838   1.825   2.616  0.2370  0.2342  0.3213
  265DG      H3 6075   3.568   1.150   2.833 -0.9877 -1.5236 -0.3021
  265DG      H4 6076   3.594   1.047   2.971 -2.5158 -0.6008 -1.2745
  265DG      H5 6077   3.700   1.014   2.841  3.6629  1.0625 -2.9167
  265DG      H6 6078   3.929   1.877   2.585  1.3173  0.9696  0.4111
  265DG      H7 6079   3.801   1.756   2.542  0.8853  0.1323  2.4592
  265DG      H8 6080   3.769   1.908   2.644 -0.7090  0.1063  0.9659
  265DG      O9 6081   3.732   1.183   2.954 -0.2706 -0.4400 -0.2337
  265DG     O10 6082   3.854   1.757   2.740  0.0004 -0.6086 -0.1149
  265DG     C11 6083   3.791   1.278   2.860 -0.3851 -0.8547  0.6011
  265DG     C12 6084   3.982   1.689   2.739  0.2070  0.2727 -0.9092
  265DG     H13 6085   3.714   1.328   2.790 -1.2442 -4.0927  1.9374
  265DG     H14 6086   3.855   1.215   2.799  0.2455  0.8017 -2.2657
  265DG     H15 6087   4.059   1.761   2.739 -2.9704  1.8442 -2.5448
  265DG     H16 6088   3.998   1.641   2.639 -0.1740 -0.8291  0.3462
  265DG     C17 6089   3.872   1.387   2.924 -0.1845  0.0101  0.6441
  265DG     C18 6090   3.985   1.577   2.851  0.0230  0.2411  0.0671
  265DG     O19 6091   3.898   1.479   2.816  0.0132  0.1857  0.3081
  265DG     H20 6092   3.963   1.352   2.970 -2.7312  0.6003  1.6367
  265DG     H21 6093   3.813   1.439   2.999  0.3190 -1.5686  0.2278
  265DG     H22 6094   4.093   1.547   2.853  0.5366 -1.3744 -2.4159
  265DG     H23 6095   3.958   1.627   2.944 -3.5955 -0.5479  1.1913
  266DG      C1 6096   3.754   3.469   3.351 -0.8218 -0.6839 -0.7691
  266DG      C2 6097   3.679   3.536   2.741  0.9179 -0.0925 -0.4310
  266DG      H3 6098   3.731   3.360   3.351 -2.4638 -1.0123 -1.0103
  266DG      H4 6099   3.750   3.471   3.463 -0.2863 -0.3705 -0.8985
  266DG      H5 6100   3.858   3.487   3.309  1.2759  1.3005 -5.8723
  266DG      H6 6101   3.763   3.600   2.750  0.2007 -1.7934 -1.6452
  266DG      H7 6102   3.697   3.431   2.735  2.2689 -0.7937 -0.1474
  266DG      H8 6103   3.640   3.558   2.640 -0.1070  2.4669  1.0008
  266DG      O9 6104   3.658   3.544   3.280 -0.2033  0.4812  0.1554
  266DG     O10 6105   3.585   3.554   2.841 -0.7596  1.0670  0.5488
  266DG     C11 6106   3.667   3.681   3.307 -0.0660  0.0165  0.1196
  266DG     C12 6107   3.539   3.689   2.839  0.0564 -0.0940  0.1951
  266DG     H13 6108   3.768   3.710   3.300  1.8317  1.1696 -0.5493
  266DG     H14 6109   3.630   3.720   3.408 -0.7033 -1.8672 -1.0948
  266DG     H15 6110   3.447   3.686   2.774 -1.9562  2.4912 -0.1881
  266DG     H16 6111   3.606   3.762   2.797 -0.4756 -0.9248 -1.0715
  266DG     C17 6112   3.580   3.757   3.194  0.0566 -0.2392  0.4478
  266DG     C18 6113   3.493   3.737   2.978 -0.3919  0.1919  0.5651
  266DG     O19 6114   3.610   3.718   3.059  0.1004  0.1028  0.4744
  266DG     H20 6115   3.603   3.862   3.220  1.0382  0.3365  2.5248
  266DG     H21 6116   3.480   3.741   3.222  0.2282  2.5351  1.4460
  266DG     H22 6117   3.479   3.849   2.975 -3.2014 -1.9451 -0.7717
  266DG     H23 6118   3.406   3.685   3.016  1.2218 -1.5150  0.9562
  267DG      C1 6119   2.065   2.535   4.535  0.2330  0.1371 -0.1345
  267DG      C2 6120   2.051   1.897   4.391 -0.4096 -0.3732 -0.4660
  267DG      H3 6121   2.077   2.642   4.518  0.6721  0.8026  0.4899
  267DG      H4 6122   2.116   2.508   4.625  0.4814 -0.3788 -0.3611
  267DG      H5 6123   1.962   2.500   4.536 -4.1588  1.2243 -0.0659
  267DG      H6 6124   2.115   1.831   4.457  0.5792 -1.4862  0.9221
  267DG      H7 6125   1.980   1.949   4.455  1.1430  2.1942 -0.0571
  267DG      H8 6126   2.005   1.834   4.317  4.7037 -1.3718  0.5725
  267DG      O9 6127   2.146   2.456   4.451 -0.0514 -0.1306 -0.8664
  267DG     O10 6128   2.146   1.991   4.321  0.1542  0.5969  0.2681
  267DG     C11 6129   2.136   2.498   4.314 -1.1315 -0.5812 -0.6400
  267DG     C12 6130   2.077   2.036   4.208 -0.1117  0.3018 -0.6224
  267DG     H13 6131   2.191   2.592   4.293  0.2282  2.1220 -1.4171
  267DG     H14 6132   2.030   2.517   4.301  1.0670 -1.3722 -1.3156
  267DG     H15 6133   1.971   2.050   4.218  4.3673  1.0053 -0.1303
  267DG     H16 6134   2.097   1.951   4.141  2.2699 -1.1220 -0.1932
  267DG     C17 6135   2.181   2.389   4.215  0.0071  0.0756  0.5290
  267DG     C18 6136   2.141   2.166   4.160 -0.3429 -0.1337  0.6830
  267DG     O19 6137   2.124   2.266   4.257  0.4974  0.2646  0.2001
  267DG     H20 6138   2.291   2.375   4.215  0.6574  2.4198 -0.4102
  267DG     H21 6139   2.149   2.422   4.119  1.1058 -0.3836  3.0164
  267DG     H22 6140   2.240   2.139   4.129  0.3735  1.1275  0.7751
  267DG     H23 6141   2.083   2.184   4.069  0.9138  0.1896 -2.0807
  268DG      C1 6142   3.549   3.086   3.371 -0.1753  0.3144 -0.3571
  268DG      C2 6143   2.989   2.997   3.349 -0.5267  0.1146  0.4207
  268DG      H3 6144   3.588   3.007   3.301  2.7874 -0.0784 -1.9477
  268DG      H4 6145   3.522   3.039   3.468  3.3270 -1.0192  2.1162
  268DG      H5 6146   3.638   3.139   3.399 -0.3913 -1.3920  2.0993
  268DG      H6 6147   2.950   2.951   3.436  0.2113  2.0616  1.0573
  268DG      H7 6148   2.977   2.932   3.268 -0.6282  2.4484 -0.3465
  268DG      H8 6149   3.098   3.000   3.372  0.9142  0.1871 -2.9669
  268DG      O9 6150   3.439   3.158   3.313 -0.6234 -0.1430  0.1300
  268DG     O10 6151   2.928   3.126   3.328 -0.6784 -0.1730  0.2705
  268DG     C11 6152   3.403   3.274   3.383  0.1714  0.1271 -0.5325
  268DG     C12 6153   2.977   3.188   3.208 -0.3669 -0.3534 -0.0012
  268DG     H13 6154   3.483   3.345   3.386  2.0540 -0.0167 -1.0965
  268DG     H14 6155   3.384   3.244   3.489 -0.3120 -0.6639 -1.4666
  268DG     H15 6156   2.892   3.238   3.163 -0.3576 -0.4496  2.3556
  268DG     H16 6157   3.025   3.123   3.129 -0.5716  1.7193 -0.0664
  268DG     C17 6158   3.293   3.342   3.307  0.3696  0.1261  0.9347
  268DG     C18 6159   3.072   3.305   3.237  0.2373 -0.9433 -0.3329
  268DG     O19 6160   3.188   3.249   3.300 -0.7270  0.5643 -0.0271
  268DG     H20 6161   3.335   3.384   3.209 -1.7699 -0.4865 -2.9197
  268DG     H21 6162   3.256   3.431   3.357 -0.7000 -1.8365  0.4087
  268DG     H22 6163   3.095   3.356   3.145  1.9100 -1.2078 -1.8020
  268DG     H23 6164   3.033   3.384   3.303 -0.2184 -1.6331 -1.8779
  269DG      C1 6165   1.561   2.423   0.541 -0.2069 -0.2512 -0.4581
  269DG      C2 6166   1.269   2.894   0.200  0.9653  0.2905  0.9517
  269DG      H3 6167   1.625   2.508   0.530 -0.2514  1.6007  1.9107
  269DG      H4 6168   1.586   2.349   0.462  0.5321 -1.5938 -1.2424
  269DG      H5 6169   1.584   2.384   0.642 -0.0995  0.0524  0.9006
  269DG      H6 6170   1.199   2.964   0.162  0.6243 -1.5974  2.0838
  269DG      H7 6171   1.329   2.935   0.281 -0.6254 -1.2000  0.8616
  269DG      H8 6172   1.333   2.855   0.124 -1.4037 -1.4273  3.1895
  269DG      O9 6173   1.430   2.485   0.532 -0.3002  0.2308 -0.1053
  269DG     O10 6174   1.211   2.775   0.253 -0.5186 -0.2823 -0.1512
  269DG     C11 6175   1.326   2.393   0.506  0.4938 -0.1966 -0.1860
  269DG     C12 6176   1.120   2.793   0.356  0.9104 -0.0579 -0.6669
  269DG     H13 6177   1.328   2.298   0.563  0.3808 -1.4757  0.1887
  269DG     H14 6178   1.343   2.359   0.407 -1.8369 -0.9671  0.6681
  269DG     H15 6179   1.025   2.844   0.335 -1.7342 -1.5395 -2.8126
  269DG     H16 6180   1.174   2.853   0.433  0.3665  2.0769 -0.4930
  269DG     C17 6181   1.180   2.448   0.502 -0.4022 -1.0346 -0.1543
  269DG     C18 6182   1.083   2.654   0.422  0.0697 -1.4600 -0.3402
  269DG     O19 6183   1.204   2.578   0.441 -0.0428  0.2647 -0.7864
  269DG     H20 6184   1.134   2.459   0.600 -1.0507 -0.2185  2.4774
  269DG     H21 6185   1.121   2.391   0.432  1.0434  1.3898 -0.0335
  269DG     H22 6186   1.012   2.666   0.505  1.7540 -1.0730 -1.0237
  269DG     H23 6187   1.016   2.601   0.352  0.5898 -1.2570 -1.4338
  270DG      C1 6188   2.787   5.440   5.278 -0.1476 -0.1595  1.0060
  270DG      C2 6189   2.831   5.130   4.586 -0.2064 -0.0878  0.0926
  270DG      H3 6190   2.804   5.522   5.347 -1.6032  2.7213  1.3128
  270DG      H4 6191   2.849   5.365   5.301  0.3346 -0.9011  1.5445
  270DG      H5 6192   2.688   5.398   5.305  1.6476  0.7161  4.0670
  270DG      H6 6193   2.847   5.148   4.482  0.4717  1.6091 -0.5470
  270DG      H7 6194   2.918   5.072   4.625  1.2128 -2.7694 -1.8643
  270DG      H8 6195   2.737   5.077   4.606 -1.9730 -1.9822  2.2969
  270DG      O9 6196   2.785   5.456   5.137  0.4508  0.3339  0.0341
  270DG     O10 6197   2.829   5.251   4.664 -0.9916 -0.0680 -0.4218
  270DG     C11 6198   2.674   5.533   5.087 -0.5518 -0.3684  0.3184
  270DG     C12 6199   2.731   5.345   4.625  0.3913  0.2888  0.6265
  270DG     H13 6200   2.671   5.629   5.137 -0.9172  2.4947  0.9433
  270DG     H14 6201   2.583   5.478   5.112  2.6722  0.3770 -0.9375
  270DG     H15 6202   2.628   5.302   4.616  0.7552  0.9156 -0.2450
  270DG     H16 6203   2.764   5.377   4.528 -2.8389  1.4395  3.3278
  270DG     C17 6204   2.687   5.564   4.938  0.1509  0.5074  0.3995
  270DG     C18 6205   2.728   5.466   4.720 -0.2624 -0.1989 -0.1012
  270DG     O19 6206   2.693   5.442   4.865  0.3285  0.7125  0.6264
  270DG     H20 6207   2.779   5.609   4.927 -1.9034 -3.0621  2.0913
  270DG     H21 6208   2.613   5.632   4.900  0.4999 -0.9093 -0.8924
  270DG     H22 6209   2.820   5.521   4.715 -1.1830  6.2929  1.4224
  270DG     H23 6210   2.656   5.540   4.671 -0.5937 -0.6199  2.3146
  271DG      C1 6211   3.433   2.680   1.589 -0.0089 -0.4933 -0.1373
  271DG      C2 6212   4.047   3.180   1.384 -0.3020  0.2193  0.2459
  271DG      H3 6213   3.402   2.573   1.602 -0.6567 -2.1539  1.1462
  271DG      H4 6214   3.359   2.723   1.518 -0.2978 -1.0199  4.1664
  271DG      H5 6215   3.424   2.728   1.689  1.0507 -1.8612 -0.7497
  271DG      H6 6216   4.013   3.255   1.321 -1.0666  1.4720  0.8138
  271DG      H7 6217   4.154   3.189   1.396 -0.1549 -2.2627 -0.8303
  271DG      H8 6218   4.032   3.090   1.325  0.2878 -2.9394  1.3002
  271DG      O9 6219   3.571   2.681   1.556  0.8158  0.0139 -0.4346
  271DG     O10 6220   3.965   3.180   1.500  0.5397  0.6136 -0.2759
  271DG     C11 6221   3.632   2.811   1.571 -0.5289 -0.5201  0.7618
  271DG     C12 6222   4.014   3.090   1.590  0.1754  0.5683 -1.1434
  271DG     H13 6223   3.619   2.848   1.676  0.0633 -2.5528  3.9543
  271DG     H14 6224   3.590   2.874   1.498 -0.0418 -0.1543 -0.2513
  271DG     H15 6225   3.983   3.134   1.685  1.5281  0.6593 -1.3097
  271DG     H16 6226   4.125   3.084   1.603  0.3537  2.2378 -0.4841
  271DG     C17 6227   3.782   2.809   1.550 -0.1859  1.0892  0.0686
  271DG     C18 6228   3.960   2.947   1.584  0.7949 -0.2697  0.0654
  271DG     O19 6229   3.819   2.944   1.551 -0.5590 -0.0246  1.2518
  271DG     H20 6230   3.804   2.760   1.451 -1.9835  0.8807  1.6786
  271DG     H21 6231   3.829   2.747   1.628  0.0634  1.8888  0.3459
  271DG     H22 6232   4.014   2.887   1.510 -0.3184 -1.8969 -0.1091
  271DG     H23 6233   3.974   2.895   1.681 -1.7634  0.6417  1.7134
  272DG      C1 6234   3.896   2.565   3.361  0.4401  0.6307 -0.7345
  272DG      C2 6235   3.535   2.229   2.814 -0.2824  0.0917 -0.6884
  272DG      H3 6236   3.854   2.643   3.431 -1.6230  1.1149  0.8682
  272DG      H4 6237   3.972   2.619   3.310  1.9348  0.3369  2.0798
  272DG      H5 6238   3.941   2.486   3.421 -0.5101 -1.3780 -0.4973
  272DG      H6 6239   3.457   2.263   2.754  3.0989 -1.1894 -1.3406
  272DG      H7 6240   3.623   2.244   2.757 -0.5182  0.8571 -0.7939
  272DG      H8 6241   3.536   2.123   2.836  1.5061  1.1139  0.8583
  272DG      O9 6242   3.799   2.518   3.272  0.4527  0.3123 -0.1368
  272DG     O10 6243   3.522   2.307   2.927 -0.3411  0.4226 -0.1771
  272DG     C11 6244   3.686   2.468   3.347  0.3302  0.1572  0.1246
  272DG     C12 6245   3.527   2.450   2.905 -0.3708 -0.4677 -1.0498
  272DG     H13 6246   3.671   2.503   3.451  2.6681  2.6843 -1.1971
  272DG     H14 6247   3.689   2.359   3.357 -1.4533 -0.3259 -0.0542
  272DG     H15 6248   3.467   2.478   2.819 -1.4937  1.4151  0.8178
  272DG     H16 6249   3.627   2.483   2.884  0.2958 -1.1585  1.3665
  272DG     C17 6250   3.566   2.515   3.261  0.1086  0.3448 -0.6489
  272DG     C18 6251   3.486   2.524   3.039  0.0683 -0.0865 -0.1901
  272DG     O19 6252   3.585   2.480   3.129  0.0869  0.4725  0.3009
  272DG     H20 6253   3.586   2.619   3.254  0.4784 -2.8544 -1.1122
  272DG     H21 6254   3.477   2.477   3.313  0.1688  0.3808 -0.0006
  272DG     H22 6255   3.501   2.634   3.039 -1.0121  0.0735  0.1953
  272DG     H23 6256   3.382   2.511   3.066  0.4944  1.8384  1.2438
  273DG      C1 6257   2.620   0.369   3.266  0.6268  0.2271 -0.6216
  273DG      C2 6258   1.971   0.229   3.161 -1.2499 -0.2361  0.2760
  273DG      H3 6259   2.619   0.394   3.161 -0.9451 -1.2443  0.9051
  273DG      H4 6260   2.712   0.344   3.305 -3.1243  0.6991 -1.6251
  273DG      H5 6261   2.595   0.452   3.326 -2.2342 -0.8332  0.2182
  273DG      H6 6262   1.960   0.309   3.231  0.8434  1.7014 -1.1551
  273DG      H7 6263   1.976   0.282   3.063  0.6424  2.3074 -0.9866
  273DG      H8 6264   1.873   0.178   3.162  0.4807  0.3808 -0.7918
  273DG      O9 6265   2.517   0.269   3.296 -0.1097  0.7409 -0.3273
  273DG     O10 6266   2.083   0.151   3.198  0.2023  0.4327  0.4202
  273DG     C11 6267   2.564   0.148   3.256  0.3168  0.9041  0.1917
  273DG     C12 6268   2.116   0.063   3.096 -0.2609 -0.3646  0.0940
  273DG     H13 6269   2.651   0.120   3.317  2.0428  0.5496  3.1321
  273DG     H14 6270   2.600   0.151   3.153  0.6139  0.4871 -4.1796
  273DG     H15 6271   2.139   0.140   3.023 -0.9203  3.3931  0.7858
  273DG     H16 6272   2.035  -0.005   3.088 -1.5670  1.1189 -0.2784
  273DG     C17 6273   2.454   0.044   3.249 -0.2626  0.6324 -0.3079
  273DG     C18 6274   2.250  -0.009   3.135 -0.0789  0.1403 -0.6389
  273DG     O19 6275   2.346   0.089   3.171  0.8497 -0.7589  0.7924
  273DG     H20 6276   2.426   0.012   3.350  0.2431  1.3006 -0.4523
  273DG     H21 6277   2.518  -0.041   3.215 -0.1734 -3.0171  2.3259
  273DG     H22 6278   2.226  -0.085   3.207  0.2097  1.5864 -1.3244
  273DG     H23 6279   2.284  -0.082   3.061 -0.0049  1.7262  1.5423
  274DG      C1 6280   2.796   2.405   5.337 -0.7750  1.1252  0.0291
  274DG      C2 6281   3.016   2.686   4.536 -0.1345 -0.2096  0.4549
  274DG      H3 6282   2.765   2.330   5.413 -0.7884 -0.4702  4.2059
  274DG      H4 6283   2.714   2.475   5.327 -1.9281 -1.6878 -2.2977
  274DG      H5 6284   2.879   2.461   5.379 -0.4004  1.6455  1.1586
  274DG      H6 6285   3.103   2.662   4.475 -0.8859 -1.7297  1.4942
  274DG      H7 6286   2.945   2.731   4.468 -0.7953  0.2338  2.7392
  274DG      H8 6287   3.031   2.761   4.617 -0.3911  0.1456  4.0027
  274DG      O9 6288   2.825   2.344   5.211  0.1126  0.5362  0.7888
  274DG     O10 6289   2.979   2.561   4.589  0.1103 -0.3867  0.3299
  274DG     C11 6290   2.834   2.435   5.104 -0.2818 -0.1821 -0.3957
  274DG     C12 6291   2.846   2.558   4.642 -0.4167 -0.9339  0.0491
  274DG     H13 6292   2.931   2.496   5.113  1.1642 -1.2502 -2.3159
  274DG     H14 6293   2.746   2.502   5.099 -2.7858  0.8687 -0.0667
  274DG     H15 6294   2.773   2.556   4.560  0.8292 -0.3315  0.2775
  274DG     H16 6295   2.821   2.653   4.689 -1.0857 -1.1541  2.0925
  274DG     C17 6296   2.827   2.373   4.966  0.2513  0.5299 -0.0260
  274DG     C18 6297   2.814   2.440   4.733 -0.8518 -0.7564  0.0455
  274DG     O19 6298   2.854   2.478   4.867 -0.3324 -0.3573  0.2026
  274DG     H20 6299   2.731   2.332   4.948  0.0650 -1.1086 -1.6308
  274DG     H21 6300   2.899   2.290   4.950  1.6063  0.0101 -0.3718
  274DG     H22 6301   2.705   2.421   4.735 -0.9350 -1.1097  1.4501
  274DG     H23 6302   2.876   2.351   4.708 -0.4549  2.0700 -1.4286
  275DG      C1 6303   2.905   4.937   3.640 -0.1740 -0.0870  0.4068
  275DG      C2 6304   3.616   5.076   4.090  0.0431  0.4311 -0.7683
  275DG      H3 6305   2.913   5.046   3.623 -0.1414 -1.1828  1.3121
  275DG      H4 6306   2.799   4.925   3.654  0.5319  1.8785 -0.0112
  275DG      H5 6307   2.942   4.874   3.557 -1.4953 -0.1410 -1.0247
  275DG      H6 6308   3.603   5.183   4.110 -0.7501 -0.3460  0.6585
  275DG      H7 6309   3.659   5.029   4.185  1.5820 -2.7141 -1.8044
  275DG      H8 6310   3.694   5.065   4.014  1.6882 -2.8061 -1.2426
  275DG      O9 6311   2.983   4.897   3.757  0.0191 -0.0063 -0.0841
  275DG     O10 6312   3.494   5.011   4.048  0.2556 -0.2037  0.3459
  275DG     C11 6313   3.114   4.924   3.741 -0.0325  0.6142  0.0054
  275DG     C12 6314   3.518   4.883   3.987  0.3969  0.1133  0.2003
  275DG     H13 6315   3.126   5.033   3.753  1.2473 -0.3398  0.4603
  275DG     H14 6316   3.145   4.900   3.637  0.6144  0.0033 -2.1199
  275DG     H15 6317   3.581   4.826   4.055  0.2474  0.7428  2.1910
  275DG     H16 6318   3.570   4.881   3.893 -0.0211  1.2959  1.6588
  275DG     C17 6319   3.179   4.844   3.851 -0.4703 -0.4641  0.5868
  275DG     C18 6320   3.390   4.804   3.963  0.5410  0.3902 -0.1101
  275DG     O19 6321   3.318   4.868   3.862 -0.2588 -0.0086  0.0442
  275DG     H20 6322   3.177   4.742   3.828  0.5436  3.4990  2.3889
  275DG     H21 6323   3.134   4.862   3.945  1.3466 -0.6717 -0.6607
  275DG     H22 6324   3.410   4.704   3.930 -0.9760 -0.0045  0.2335
  275DG     H23 6325   3.334   4.794   4.059  0.6992 -1.4068  0.4962
  276DG      C1 6326   4.091   4.338   4.644  0.2784  0.0196 -0.3244
  276DG      C2 6327   3.392   3.909   4.495 -0.1388 -0.1702 -0.0638
  276DG      H3 6328   4.065   4.451   4.645 -0.8272  4.2819  0.5843
  276DG      H4 6329   4.198   4.328   4.650  2.2315  3.5240  1.2000
  276DG      H5 6330   4.057   4.301   4.733 -0.3080  1.0133 -1.8771
  276DG      H6 6331   3.357   3.929   4.591  0.8413 -0.5913 -3.5617
  276DG      H7 6332   3.310   3.928   4.424  1.1670  0.0838 -0.5806
  276DG      H8 6333   3.431   3.807   4.482  1.2903  2.3010 -0.5686
  276DG      O9 6334   4.039   4.272   4.531 -0.2607 -0.1720  0.3121
  276DG     O10 6335   3.524   3.969   4.461 -0.4367 -0.3169 -0.4976
  276DG     C11 6336   3.899   4.285   4.528 -0.7921  0.4383 -0.3762
  276DG     C12 6337   3.510   4.065   4.356 -0.1344 -0.0169  0.2759
  276DG     H13 6338   3.864   4.389   4.541 -2.3252 -0.3480 -2.7307
  276DG     H14 6339   3.863   4.218   4.614  1.6323 -1.3947 -0.0926
  276DG     H15 6340   3.442   4.146   4.387 -0.2387  0.6814 -0.0121
  276DG     H16 6341   3.463   4.016   4.273  0.5231 -1.6092  0.3391
  276DG     C17 6342   3.835   4.238   4.399  0.3578  0.7151  0.0969
  276DG     C18 6343   3.651   4.116   4.321 -0.0503 -0.8163  0.2782
  276DG     O19 6344   3.716   4.174   4.434 -0.1586  0.4433 -0.1489
  276DG     H20 6345   3.901   4.177   4.335  0.1897  1.7386  3.6427
  276DG     H21 6346   3.810   4.329   4.346  2.7111 -1.0265  1.4444
  276DG     H22 6347   3.713   4.027   4.286 -1.5389 -0.1912 -1.6833
  276DG     H23 6348   3.641   4.184   4.237 -1.1015 -0.7046 -0.5418
  277DG      C1 6349   4.718   4.234   4.700 -0.5373 -0.0898 -0.2023
  277DG      C2 6350   4.455   3.774   4.625 -0.5631 -0.2924 -0.3558
  277DG      H3 6351   4.801   4.187   4.751 -0.4303  0.7581 -1.4894
  277DG      H4 6352   4.659   4.276   4.777  2.5061  0.9599  2.1551
  277DG      H5 6353   4.763   4.312   4.636  0.0912 -0.7764 -4.0584
  277DG      H6 6354   4.488   3.743   4.527 -2.1554 -1.3448 -0.5185
  277DG      H7 6355   4.496   3.870   4.666 -0.6025 -1.0361 -1.1779
  277DG      H8 6356   4.483   3.701   4.697  0.7413 -0.0762  0.7709
  277DG      O9 6357   4.641   4.156   4.617  0.7183  0.3704  0.2132
  277DG     O10 6358   4.314   3.772   4.618 -0.1171 -0.4145  0.1155
  277DG     C11 6359   4.522   4.219   4.591 -0.1711 -0.2364 -0.1155
  277DG     C12 6360   4.254   3.860   4.524 -0.1197 -0.2096  0.4324
  277DG     H13 6361   4.549   4.301   4.527 -2.6378  0.2869  0.5237
  277DG     H14 6362   4.470   4.262   4.671 -0.7252 -0.9152  3.0527
  277DG     H15 6363   4.153   3.822   4.504  1.0932 -0.3620  0.1152
  277DG     H16 6364   4.305   3.864   4.427 -0.1054  2.3977 -0.6771
  277DG     C17 6365   4.421   4.131   4.515  0.1184 -0.5227 -0.4429
  277DG     C18 6366   4.231   4.008   4.575 -0.0515 -0.4895 -0.0020
  277DG     O19 6367   4.355   4.060   4.618 -0.3769  0.6751  0.3415
  277DG     H20 6368   4.478   4.067   4.444  0.1532  0.3965 -2.2946
  277DG     H21 6369   4.351   4.198   4.467 -0.4481  2.8487  1.1577
  277DG     H22 6370   4.179   4.053   4.499 -0.0191  0.8528 -0.7974
  277DG     H23 6371   4.164   4.007   4.663 -2.9968  0.9835 -0.9169
  278DG      C1 6372   2.870   4.938   5.450  0.5431 -0.8502  0.1566
  278DG      C2 6373   3.029   4.327   5.626  0.0714  0.4140  0.7646
  278DG      H3 6374   2.973   4.928   5.408  1.4725 -0.3356  2.3620
  278DG      H4 6375   2.868   4.955   5.558 -1.4101 -0.9066  1.7380
  278DG      H5 6376   2.827   5.025   5.399 -2.1068 -3.5896 -0.1704
  278DG      H6 6377   3.107   4.324   5.545  1.4055  2.5145 -0.7928
  278DG      H7 6378   3.080   4.371   5.705 -1.6271 -2.7441 -0.6480
  278DG      H8 6379   3.004   4.219   5.632  3.2327 -2.5848 -4.2381
  278DG      O9 6380   2.789   4.822   5.433  0.1548 -0.1619  0.3548
  278DG     O10 6381   2.910   4.405   5.586 -0.1245  0.2949  0.6111
  278DG     C11 6382   2.659   4.833   5.486 -0.7133 -0.2819 -0.2367
  278DG     C12 6383   2.795   4.395   5.670 -0.2170 -0.8625 -0.0844
  278DG     H13 6384   2.590   4.874   5.407  1.3257 -2.4255 -2.2839
  278DG     H14 6385   2.658   4.889   5.578  1.9945 -0.9666 -3.3075
  278DG     H15 6386   2.806   4.437   5.765  0.1152  2.8820 -0.2572
  278DG     H16 6387   2.772   4.289   5.689  0.0904  2.2988  0.7004
  278DG     C17 6388   2.611   4.683   5.515 -0.7405 -0.5225  0.8166
  278DG     C18 6389   2.685   4.478   5.597  0.1883 -0.1890  0.7438
  278DG     O19 6390   2.716   4.619   5.575  0.1013 -0.8659  0.1445
  278DG     H20 6391   2.588   4.642   5.414 -0.3542  2.1468 -2.2478
  278DG     H21 6392   2.521   4.679   5.564 -2.2864  0.4506  1.1576
  278DG     H22 6393   2.645   4.432   5.511  2.5466  0.5593 -0.9260
  278DG     H23 6394   2.599   4.477   5.666  0.7894 -0.8508  1.8232
  279DG      C1 6395   5.070   1.229   3.726  0.6028 -0.6568  0.2464
  279DG      C2 6396   5.252   1.807   3.208  0.5307 -0.1201 -0.6341
  279DG      H3 6397   5.074   1.241   3.833 -2.5047  0.2745  1.0513
  279DG      H4 6398   5.097   1.134   3.705  0.0365  0.5025 -1.7337
  279DG      H5 6399   4.964   1.254   3.703  0.2511 -1.5386 -2.5476
  279DG      H6 6400   5.363   1.799   3.229  0.2177 -3.5441  0.8378
  279DG      H7 6401   5.212   1.812   3.109 -2.2154 -1.4640  0.6965
  279DG      H8 6402   5.219   1.896   3.260 -0.5504  0.2711  2.4759
  279DG      O9 6403   5.154   1.321   3.655 -0.1220  0.3064  0.0689
  279DG     O10 6404   5.182   1.709   3.284  0.1981 -0.4547  0.6357
  279DG     C11 6405   5.094   1.445   3.632 -0.5297 -0.0140  0.7073
  279DG     C12 6406   5.245   1.584   3.258 -0.1415 -0.0739 -0.0459
  279DG     H13 6407   5.062   1.487   3.728  2.1805  1.9111  1.3107
  279DG     H14 6408   5.012   1.449   3.560  0.0446  0.0131  1.5316
  279DG     H15 6409   5.354   1.589   3.292  2.9653 -0.0188  1.8848
  279DG     H16 6410   5.253   1.560   3.154  0.9881  0.0158 -0.2448
  279DG     C17 6411   5.207   1.515   3.560  0.2730 -0.3698  0.0914
  279DG     C18 6412   5.173   1.465   3.329 -0.1503 -0.0744 -0.2713
  279DG     O19 6413   5.241   1.440   3.449 -0.4036 -0.4429  0.4925
  279DG     H20 6414   5.280   1.527   3.632 -1.7428 -1.8335 -0.2907
  279DG     H21 6415   5.173   1.613   3.524 -3.2878 -2.5840  0.0230
  279DG     H22 6416   5.069   1.482   3.335  0.8324 -2.0052 -2.7080
  279DG     H23 6417   5.182   1.387   3.260 -2.7608 -0.5065  0.1642
  280DG      C1 6418   3.526   3.594   5.373  0.5508 -0.4722  0.2412
  280DG      C2 6419   3.614   4.146   5.712 -0.3831  0.0108 -0.2055
  280DG      H3 6420   3.604   3.557   5.437  1.9001  2.4131 -1.5909
  280DG      H4 6421   3.570   3.644   5.293 -0.6866 -0.0645  1.4837
  280DG      H5 6422   3.468   3.518   5.329 -0.5346  1.2752 -2.5615
  280DG      H6 6423   3.645   4.238   5.660  1.2607 -1.2351  0.5841
  280DG      H7 6424   3.579   4.179   5.812  0.3773  0.5224  1.3066
  280DG      H8 6425   3.698   4.077   5.715  1.4665  2.0560  0.2169
  280DG      O9 6426   3.449   3.690   5.451 -0.0994  0.4100  0.0399
  280DG     O10 6427   3.498   4.085   5.655  0.1596  0.3583 -0.2588
  280DG     C11 6428   3.320   3.725   5.392 -0.0331 -0.2407 -0.0125
  280DG     C12 6429   3.416   4.166   5.572 -0.0143  0.3157 -0.8159
  280DG     H13 6430   3.252   3.636   5.392  0.6774 -0.8188 -0.2181
  280DG     H14 6431   3.332   3.749   5.288 -0.6393 -3.6787  1.4350
  280DG     H15 6432   3.467   4.205   5.482 -3.3257  1.2183 -1.4864
  280DG     H16 6433   3.378   4.252   5.634  0.0350 -0.8112  0.2182
  280DG     C17 6434   3.260   3.855   5.453 -0.2012 -0.1040  0.3577
  280DG     C18 6435   3.297   4.084   5.527 -0.1370  0.4333  0.3406
  280DG     O19 6436   3.353   3.964   5.469  0.1809 -0.4598  0.4517
  280DG     H20 6437   3.222   3.818   5.549 -0.4161 -0.2871 -0.6655
  280DG     H21 6438   3.180   3.886   5.382 -1.4309  0.7211 -3.4043
  280DG     H22 6439   3.251   4.062   5.621 -0.3007  0.1590  1.8906
  280DG     H23 6440   3.233   4.128   5.448 -0.5363 -2.1416 -3.6080
  281DG      C1 6441   2.265   5.158   0.964 -0.7791  0.6509  1.2183
  281DG      C2 6442   2.419   4.755   0.419 -0.6286 -0.6828 -0.0853
  281DG      H3 6443   2.271   5.248   1.019  0.9945  0.9091  0.3598
  281DG      H4 6444   2.261   5.067   1.026 -0.1525 -1.2208 -3.3881
  281DG      H5 6445   2.168   5.171   0.919 -0.6144  1.3110 -1.7982
  281DG      H6 6446   2.399   4.781   0.313 -1.5573  0.7249  0.5800
  281DG      H7 6447   2.505   4.684   0.422  0.4117  1.1279  2.3638
  281DG      H8 6448   2.330   4.703   0.456  1.7117 -1.5012  0.5105
  281DG      O9 6449   2.349   5.140   0.849 -0.4199  0.1719  0.1085
  281DG     O10 6450   2.462   4.855   0.512  0.2574  0.2926 -0.4148
  281DG     C11 6451   2.487   5.142   0.877  0.5084  1.0033  0.2109
  281DG     C12 6452   2.595   4.897   0.485  0.3549  0.3124  0.0574
  281DG     H13 6453   2.504   5.052   0.932  1.1120 -0.2791 -1.2375
  281DG     H14 6454   2.521   5.226   0.941  0.4207  1.5852  1.5306
  281DG     H15 6455   2.623   4.899   0.382 -1.8498  0.6413  0.1629
  281DG     H16 6456   2.668   4.826   0.525  0.8489  0.8016  0.5039
  281DG     C17 6457   2.563   5.144   0.748  0.2545  0.6785  0.3886
  281DG     C18 6458   2.622   5.029   0.551 -0.0291 -0.7112 -0.0856
  281DG     O19 6459   2.545   5.026   0.672 -0.0898  0.3266 -0.3376
  281DG     H20 6460   2.664   5.149   0.774 -2.1355 -0.2018 -0.5772
  281DG     H21 6461   2.523   5.229   0.685 -0.2914  2.2191 -1.4587
  281DG     H22 6462   2.728   5.026   0.579 -0.2897  0.1460 -0.9956
  281DG     H23 6463   2.612   5.120   0.484  0.2850  0.3187 -0.3271
  282DG      C1 6464   5.004   2.543   0.642 -0.0745 -0.2071 -0.3130
  282DG      C2 6465   4.332   2.690   0.922  0.1838 -0.5450 -0.6364
  282DG      H3 6466   5.087   2.572   0.710 -1.1011  2.0185 -0.5404
  282DG      H4 6467   5.048   2.509   0.550  0.3363 -2.5956  2.3190
  282DG      H5 6468   4.949   2.459   0.691 -0.6156 -1.9207  1.0258
  282DG      H6 6469   4.275   2.781   0.940 -2.1427  1.1403  0.8192
  282DG      H7 6470   4.255   2.617   0.928  0.8729 -0.2086 -1.6328
  282DG      H8 6471   4.396   2.687   1.012  0.9092  2.1805  1.3367
  282DG      O9 6472   4.917   2.660   0.609 -0.1687 -0.7029  0.1763
  282DG     O10 6473   4.408   2.687   0.800 -0.3936  0.3342  0.7417
  282DG     C11 6474   4.816   2.641   0.517 -0.2588  0.6471  0.6394
  282DG     C12 6475   4.469   2.806   0.780  0.2483  0.1899 -0.0789
  282DG     H13 6476   4.770   2.548   0.531 -1.4520  1.9764  1.0820
  282DG     H14 6477   4.862   2.640   0.419 -2.2892  0.9443  0.3858
  282DG     H15 6478   4.554   2.801   0.846  0.4375  0.5950  0.0004
  282DG     H16 6479   4.409   2.889   0.812 -2.3906  0.0788  0.0238
  282DG     C17 6480   4.714   2.756   0.521  0.1301  0.3497  0.0164
  282DG     C18 6481   4.527   2.826   0.634 -0.3770 -0.1416 -0.0384
  282DG     O19 6482   4.642   2.750   0.638 -0.6499 -0.2352  0.6386
  282DG     H20 6483   4.645   2.746   0.440  0.8150  0.3282 -0.0935
  282DG     H21 6484   4.757   2.857   0.503  0.0585  1.5828  0.9647
  282DG     H22 6485   4.452   2.797   0.557 -1.6152  0.3335 -0.9845
  282DG     H23 6486   4.559   2.929   0.617  1.4148 -1.3925  1.5664
  283DG      C1 6487   1.531   0.305   2.167  0.7395  0.5628 -0.2962
  283DG      C2 6488   1.260  -0.095   2.621 -0.5280  0.3111 -0.4096
  283DG      H3 6489   1.565   0.381   2.241 -0.0578  1.3906 -2.3637
  283DG      H4 6490   1.522   0.353   2.071 -1.0917  0.9536 -0.5880
  283DG      H5 6491   1.606   0.229   2.157 -0.7656  0.1034 -0.1474
  283DG      H6 6492   1.330  -0.168   2.593  0.3224  0.5985  0.4087
  283DG      H7 6493   1.321  -0.012   2.654  1.6206  0.3500  1.5989
  283DG      H8 6494   1.200  -0.132   2.707  0.2882 -0.4304 -2.4736
  283DG      O9 6495   1.405   0.242   2.195 -0.4847 -0.3613 -0.3648
  283DG     O10 6496   1.182  -0.054   2.506  0.3441 -1.0613 -0.0054
  283DG     C11 6497   1.296   0.339   2.205  0.7854  0.7500 -0.1592
  283DG     C12 6498   1.085   0.050   2.538 -0.3109  0.2671  0.2050
  283DG     H13 6499   1.295   0.393   2.112  0.3809 -1.3539  0.3151
  283DG     H14 6500   1.302   0.411   2.285 -0.5927 -1.5031  0.4070
  283DG     H15 6501   1.117   0.094   2.632  0.3729 -0.2562  1.1281
  283DG     H16 6502   0.995  -0.004   2.576  1.7744 -1.3497  2.7410
  283DG     C17 6503   1.170   0.248   2.224 -0.3305 -0.1593 -0.2112
  283DG     C18 6504   1.059   0.130   2.403 -0.2766 -0.2687 -0.1212
  283DG     O19 6505   1.180   0.185   2.348 -0.2866  0.1492 -0.3111
  283DG     H20 6506   1.142   0.181   2.147 -0.1692  1.3924  0.9293
  283DG     H21 6507   1.076   0.307   2.236 -4.2714 -1.8666 -1.7209
  283DG     H22 6508   1.007   0.075   2.327 -0.1555 -1.1505 -0.6819
  283DG     H23 6509   1.013   0.222   2.441  0.8217 -1.3434 -0.6977
  284DG      C1 6510   4.530   2.036   2.004 -0.1838  0.6350 -0.1288
  284DG      C2 6511   4.614   2.733   2.213  1.0089  0.5631  0.4038
  284DG      H3 6512   4.581   2.041   1.908 -1.2253 -0.4439 -0.3369
  284DG      H4 6513   4.448   1.972   1.995  2.3803 -1.2155 -3.4057
  284DG      H5 6514   4.601   1.996   2.078  2.2855  0.1140  0.2839
  284DG      H6 6515   4.602   2.806   2.293  0.1941  0.7666  0.5874
  284DG      H7 6516   4.717   2.728   2.177 -0.3238  0.6374  0.5765
  284DG      H8 6517   4.546   2.752   2.125 -1.8912  1.0170  1.6935
  284DG      O9 6518   4.485   2.166   2.037  0.6128 -0.7670  0.2515
  284DG     O10 6519   4.582   2.610   2.271  0.3344 -0.6946  0.2160
  284DG     C11 6520   4.569   2.274   2.022  0.4569  0.6261 -0.6317
  284DG     C12 6521   4.442   2.603   2.308 -0.1995  0.1232  1.3341
  284DG     H13 6522   4.605   2.268   1.916 -1.8376  0.4614  0.3170
  284DG     H14 6523   4.661   2.278   2.085 -0.3793  0.0615 -0.1742
  284DG     H15 6524   4.398   2.701   2.320 -1.3019 -1.7656 -0.3595
  284DG     H16 6525   4.417   2.533   2.392 -0.8394 -2.0819  1.6709
  284DG     C17 6526   4.497   2.408   2.050 -0.3685 -0.3018  0.1096
  284DG     C18 6527   4.357   2.529   2.209  0.1158 -0.6432  0.5353
  284DG     O19 6528   4.419   2.407   2.173  0.4858  0.1828 -0.1517
  284DG     H20 6529   4.437   2.443   1.968  3.0076 -5.2379  1.8764
  284DG     H21 6530   4.575   2.482   2.058 -0.2860 -0.8770 -1.0263
  284DG     H22 6531   4.263   2.512   2.253  0.0745  0.4991  3.1051
  284DG     H23 6532   4.348   2.601   2.123  0.8156  0.4375  2.8952
  285DG      C1 6533   5.002   5.248   2.566  0.3458  0.7344 -0.2000
  285DG      C2 6534   4.465   5.706   2.086  0.0253 -0.6371 -0.4702
  285DG      H3 6535   4.903   5.239   2.609 -0.4623  0.5089 -0.4136
  285DG      H4 6536   5.063   5.274   2.647  1.3301  1.3303 -0.9886
  285DG      H5 6537   5.038   5.154   2.527  1.4381  2.5001  2.9051
  285DG      H6 6538   4.379   5.641   2.070 -1.6991  2.6153 -0.1116
  285DG      H7 6539   4.447   5.744   2.188  0.5649 -1.8295  0.9496
  285DG      H8 6540   4.453   5.777   2.011 -2.0195  0.8386  2.6081
  285DG      O9 6541   5.003   5.358   2.474  0.3133 -0.1944 -0.3759
  285DG     O10 6542   4.591   5.647   2.074  0.3020  0.5906  0.3359
  285DG     C11 6543   5.029   5.319   2.339 -0.5340 -0.1165 -0.2509
  285DG     C12 6544   4.636   5.542   2.158 -0.1990 -0.0153  0.1979
  285DG     H13 6545   4.986   5.216   2.307  0.6312 -0.2321 -1.2439
  285DG     H14 6546   5.135   5.307   2.332  1.5479 -0.0038 -1.1567
  285DG     H15 6547   4.588   5.446   2.136  1.2229  2.2667 -1.5545
  285DG     H16 6548   4.614   5.573   2.254 -0.4509  2.8988 -0.2639
  285DG     C17 6549   4.982   5.418   2.241 -0.6794  0.0986 -0.0611
  285DG     C18 6550   4.794   5.523   2.154  0.2222 -0.1538 -0.7135
  285DG     O19 6551   4.841   5.433   2.253  0.0897 -0.1069  0.1859
  285DG     H20 6552   5.015   5.390   2.137  0.2434 -1.6051 -0.8002
  285DG     H21 6553   5.023   5.512   2.258  0.5933  0.7110  0.2313
  285DG     H22 6554   4.815   5.490   2.055 -2.7441  0.7790 -0.4150
  285DG     H23 6555   4.850   5.617   2.163 -1.2690  1.2332 -0.4083
  286DG      C1 6556   2.133   0.150   4.452 -0.3448  0.2498 -0.4745
  286DG      C2 6557   1.579   0.259   4.827  0.5563  0.5231  0.0245
  286DG      H3 6558   2.164   0.067   4.512 -2.1406  1.4131 -1.7768
  286DG      H4 6559   2.222   0.200   4.401  0.4511  0.6850  0.6759
  286DG      H5 6560   2.073   0.107   4.371 -1.1659 -0.6131 -0.9454
  286DG      H6 6561   1.611   0.164   4.869 -0.2327 -0.2169  2.9025
  286DG      H7 6562   1.508   0.306   4.894  0.3281  2.3999 -1.2149
  286DG      H8 6563   1.506   0.234   4.753  0.8468 -0.8407  0.6179
  286DG      O9 6564   2.070   0.245   4.541  0.5421 -0.1195 -0.1671
  286DG     O10 6565   1.685   0.335   4.770  0.5641  0.4928  0.7271
  286DG     C11 6566   2.158   0.299   4.628  0.1707  0.3736  1.0325
  286DG     C12 6567   1.749   0.399   4.867 -0.1482  0.0499  0.4938
  286DG     H13 6568   2.247   0.350   4.580 -1.9986 -1.3704  0.9471
  286DG     H14 6569   2.193   0.221   4.692 -1.3630  2.2602 -2.0174
  286DG     H15 6570   1.767   0.344   4.956  0.9235  1.3506 -0.7697
  286DG     H16 6571   1.696   0.485   4.885  0.0921  1.9071 -2.3953
  286DG     C17 6572   2.082   0.402   4.710 -0.3388  0.4541  0.0133
  286DG     C18 6573   1.882   0.455   4.818 -0.2194  0.1644 -0.4684
  286DG     O19 6574   1.955   0.352   4.756 -0.2480  0.3112 -0.3460
  286DG     H20 6575   2.070   0.491   4.642  3.5324 -1.6416 -0.5942
  286DG     H21 6576   2.143   0.446   4.786 -1.8490  0.0470 -2.2685
  286DG     H22 6577   1.859   0.530   4.740 -1.7074 -1.3158 -0.5404
  286DG     H23 6578   1.940   0.505   4.895  0.3607 -0.6772 -1.0589
  287DG      C1 6579   4.646   4.699   4.623 -0.0905 -0.4223 -0.4652
  287DG      C2 6580   4.147   4.300   4.222 -0.1244 -0.3034  0.2111
  287DG      H3 6581   4.592   4.797   4.626 -0.9065  1.6876 -2.9750
  287DG      H4 6582   4.752   4.727   4.646  2.1653  0.8904 -0.1351
  287DG      H5 6583   4.615   4.615   4.696 -2.0042  0.4340  0.7583
  287DG      H6 6584   4.078   4.366   4.277  1.1066 -2.6154 -0.9797
  287DG      H7 6585   4.142   4.310   4.112  1.3164  2.2099 -0.4539
  287DG      H8 6586   4.141   4.194   4.249  2.1020 -1.8584 -2.6497
  287DG      O9 6587   4.646   4.664   4.486 -0.5271 -0.7860  0.6092
  287DG     O10 6588   4.281   4.356   4.244  0.0618  0.1067  0.3787
  287DG     C11 6589   4.514   4.631   4.438 -0.5204 -0.6972  0.3666
  287DG     C12 6590   4.380   4.280   4.180  0.2851  0.7570 -0.1407
  287DG     H13 6591   4.466   4.723   4.413 -1.7882  2.4246 -1.4510
  287DG     H14 6592   4.472   4.576   4.523 -1.4540  0.6372 -0.7628
  287DG     H15 6593   4.348   4.260   4.082  0.1065  0.8562  2.7047
  287DG     H16 6594   4.395   4.192   4.237 -1.2522 -0.4049  2.6163
  287DG     C17 6595   4.520   4.560   4.302 -0.8373 -0.9569 -0.4174
  287DG     C18 6596   4.515   4.356   4.184 -0.3530 -0.1658 -1.0701
  287DG     O19 6597   4.540   4.418   4.310  0.3730 -0.4002 -0.2290
  287DG     H20 6598   4.611   4.601   4.253 -0.4436  0.3950 -0.8400
  287DG     H21 6599   4.434   4.589   4.248 -0.1976  1.3721  1.8239
  287DG     H22 6600   4.594   4.287   4.182 -0.2773 -0.5320  0.5082
  287DG     H23 6601   4.512   4.420   4.096  0.7054  1.5002 -0.4733
  288DG      C1 6602   0.939   1.877   1.556  0.7649 -0.4079  0.3386
  288DG      C2 6603   1.428   1.667   1.206 -0.3086 -0.1369  0.1951
  288DG      H3 6604   0.832   1.853   1.582 -0.2294 -0.1475 -1.1379
  288DG      H4 6605   0.977   1.969   1.597 -0.1803 -0.9665 -3.7333
  288DG      H5 6606   0.989   1.796   1.611  0.5126 -1.2226 -0.4067
  288DG      H6 6607   1.415   1.565   1.244  2.9512 -0.5572 -1.1912
  288DG      H7 6608   1.489   1.670   1.116 -3.2870 -0.5672  0.8043
  288DG      H8 6609   1.476   1.728   1.282 -0.5052  0.7493 -0.2129
  288DG      O9 6610   0.961   1.890   1.413  0.1947 -0.1050  0.4267
  288DG     O10 6611   1.302   1.737   1.185  0.5408 -0.3285  0.8016
  288DG     C11 6612   0.849   1.853   1.336  0.0067  0.2862  0.9864
  288DG     C12 6613   1.231   1.703   1.072  0.2574  0.0416 -0.9896
  288DG     H13 6614   0.757   1.909   1.353 -2.8375 -0.9651 -0.2719
  288DG     H14 6615   0.821   1.747   1.355 -0.4811 -0.7579 -3.9295
  288DG     H15 6616   1.211   1.597   1.072  0.0953 -1.5191  1.2473
  288DG     H16 6617   1.285   1.712   0.981 -1.6201 -2.4419 -0.3504
  288DG     C17 6618   0.900   1.849   1.187 -0.0656 -0.0305 -0.1093
  288DG     C18 6619   1.101   1.781   1.063  0.4823 -0.2789 -0.1143
  288DG     O19 6620   1.016   1.761   1.177 -1.2667 -0.5300  0.0258
  288DG     H20 6621   0.919   1.950   1.152  1.4503  0.0409 -0.7659
  288DG     H21 6622   0.826   1.809   1.120 -0.3918 -0.8372  2.2953
  288DG     H22 6623   1.134   1.885   1.048 -0.0899  3.1053  0.7280
  288DG     H23 6624   1.052   1.752   0.971  0.0755  0.1741  1.2346
  289DG      C1 6625   4.948   0.152   2.648 -0.6044  0.8368 -0.7585
  289DG      C2 6626   4.217   0.388   2.555 -0.1363 -0.3250 -0.5623
  289DG      H3 6627   5.025   0.122   2.578  1.8175 -2.3673 -0.0937
  289DG      H4 6628   4.892   0.063   2.685  3.2785 -1.6540 -1.3624
  289DG      H5 6629   5.006   0.193   2.734  0.2118 -1.5694 -0.2543
  289DG      H6 6630   4.209   0.333   2.652 -1.9250 -0.4663  3.0184
  289DG      H7 6631   4.183   0.488   2.574  1.4229  0.5942  0.0936
  289DG      H8 6632   4.152   0.342   2.483 -0.0491 -0.8712 -1.1883
  289DG      O9 6633   4.864   0.250   2.602  0.3159  0.5575  0.1912
  289DG     O10 6634   4.346   0.375   2.505  0.1268 -0.0331  0.6874
  289DG     C11 6635   4.816   0.213   2.474  0.0501 -0.3159  0.4336
  289DG     C12 6636   4.434   0.430   2.594 -0.3544  0.3574 -0.1907
  289DG     H13 6637   4.767   0.120   2.474 -0.2187  0.4641  0.1652
  289DG     H14 6638   4.902   0.213   2.410  0.9449  1.5181  0.5211
  289DG     H15 6639   4.444   0.369   2.687 -2.5951  1.3565 -0.9500
  289DG     H16 6640   4.397   0.528   2.621  0.0215 -0.2405 -1.6964
  289DG     C17 6641   4.726   0.317   2.411  0.4673 -0.7658 -0.1262
  289DG     C18 6642   4.571   0.439   2.541  0.3128  0.4434 -0.6642
  289DG     O19 6643   4.599   0.325   2.465 -0.2472 -0.4942  0.3220
  289DG     H20 6644   4.727   0.308   2.305 -2.1274  0.2168  2.3240
  289DG     H21 6645   4.785   0.408   2.431 -1.3434 -0.0383  0.7371
  289DG     H22 6646   4.565   0.531   2.473  0.0623  1.7940 -0.8574
  289DG     H23 6647   4.641   0.456   2.621 -0.6283 -0.9946  0.7329
  290DG      C1 6648   1.878   3.621   5.395 -0.5934  0.9303 -0.2896
  290DG      C2 6649   1.661   4.194   5.374 -0.4547  0.0342  0.1494
  290DG      H3 6650   1.974   3.666   5.387 -2.1910 -0.2784 -2.6221
  290DG      H4 6651   1.819   3.659   5.308  1.7045  0.6275 -3.0946
  290DG      H5 6652   1.897   3.514   5.385 -0.4885 -1.6782 -0.7045
  290DG      H6 6653   1.769   4.209   5.360  2.8146 -1.3988  0.1614
  290DG      H7 6654   1.610   4.178   5.278  0.6049 -0.3788 -1.6621
  290DG      H8 6655   1.617   4.278   5.432 -0.7722 -2.7225 -1.3691
  290DG      O9 6656   1.807   3.655   5.514  0.0289  0.0299 -0.1742
  290DG     O10 6657   1.627   4.067   5.434  0.4405 -0.5290  0.3397
  290DG     C11 6658   1.674   3.602   5.514 -0.0270 -0.4800 -0.6911
  290DG     C12 6659   1.489   4.031   5.421 -0.9711  0.3036  0.2617
  290DG     H13 6660   1.675   3.506   5.569  1.8438 -2.4081  1.5165
  290DG     H14 6661   1.637   3.580   5.417  1.5216 -1.1918  1.8349
  290DG     H15 6662   1.459   3.998   5.319 -1.8934  1.7837 -2.4757
  290DG     H16 6663   1.426   4.113   5.455 -0.2535 -0.8334  0.9148
  290DG     C17 6664   1.567   3.703   5.569  0.4182 -0.6194 -0.0732
  290DG     C18 6665   1.465   3.905   5.513  0.2537 -0.1753  0.7052
  290DG     O19 6666   1.564   3.817   5.481 -0.1045  0.5290  0.5445
  290DG     H20 6667   1.595   3.742   5.673  1.5626 -0.2883 -0.0753
  290DG     H21 6668   1.464   3.659   5.579 -2.0367 -0.4880 -0.8402
  290DG     H22 6669   1.475   3.946   5.609 -0.3244 -1.6988  1.1428
  290DG     H23 6670   1.365   3.854   5.500 -3.5907 -2.0638  0.4467
  291DG      C1 6671   4.234   0.416   1.379 -0.2084  0.7235 -0.2398
  291DG      C2 6672   4.166   0.454   0.716  0.0056  0.4553  0.5358
  291DG      H3 6673   4.159   0.350   1.342  2.1841  0.9600  3.1355
  291DG      H4 6674   4.177   0.500   1.423 -1.4145  0.9921 -0.2519
  291DG      H5 6675   4.293   0.355   1.453 -1.7622 -0.0730  0.5822
  291DG      H6 6676   4.147   0.350   0.708 -2.1139 -1.4834  1.1511
  291DG      H7 6677   4.068   0.498   0.737  4.4180 -2.6273 -0.4398
  291DG      H8 6678   4.207   0.483   0.617 -0.4787  1.0115 -1.0564
  291DG      O9 6679   4.316   0.443   1.271  0.9613 -0.2139  0.4855
  291DG     O10 6680   4.248   0.476   0.832 -0.2749  0.1949  0.0953
  291DG     C11 6681   4.390   0.558   1.299  0.1832 -0.4089 -0.2653
  291DG     C12 6682   4.277   0.617   0.841 -0.7299 -0.4128 -0.3724
  291DG     H13 6683   4.470   0.524   1.368 -0.4807 -0.9710 -3.4235
  291DG     H14 6684   4.338   0.637   1.352 -0.9813  2.2840 -1.0065
  291DG     H15 6685   4.200   0.675   0.894  0.2630 -1.8960 -0.3406
  291DG     H16 6686   4.293   0.659   0.745  0.0184 -3.1277 -0.4153
  291DG     C17 6687   4.440   0.617   1.157  0.3399  1.5716 -0.8388
  291DG     C18 6688   4.402   0.635   0.924 -0.0368 -0.0293  0.0339
  291DG     O19 6689   4.361   0.581   1.042 -0.0957  0.9171  0.0995
  291DG     H20 6690   4.543   0.591   1.144  0.8198  1.7848  0.7006
  291DG     H21 6691   4.440   0.722   1.171 -0.3244  2.6242  3.1209
  291DG     H22 6692   4.491   0.587   0.879 -0.6676 -0.2414 -1.6192
  291DG     H23 6693   4.417   0.742   0.940 -2.4497 -0.9252 -0.2704
  292DG      C1 6694   1.487   2.454   0.960  0.7211  0.7378 -0.7547
  292DG      C2 6695   2.075   3.038   0.670 -0.5137  0.0657  0.0594
  292DG      H3 6696   1.499   2.468   1.070  0.3026 -1.8641 -0.3358
  292DG      H4 6697   1.479   2.348   0.944 -2.2283 -0.5035  2.4620
  292DG      H5 6698   1.383   2.496   0.926 -0.8832  0.7468 -1.8013
  292DG      H6 6699   2.147   3.047   0.588  0.6394  0.1479  0.0846
  292DG      H7 6700   2.000   3.116   0.666 -1.0022 -1.5118 -1.5853
  292DG      H8 6701   2.129   3.042   0.760  1.2054  0.2097 -2.5216
  292DG      O9 6702   1.583   2.519   0.884  0.1250 -0.0313  0.0281
  292DG     O10 6703   2.026   2.904   0.670  0.1501  0.0697  0.1500
  292DG     C11 6704   1.707   2.460   0.900 -0.2864 -0.2820 -0.1239
  292DG     C12 6705   1.967   2.855   0.788 -0.7698 -0.4114  0.2685
  292DG     H13 6706   1.701   2.362   0.874 -1.9920  4.2971 -0.8704
  292DG     H14 6707   1.736   2.466   1.010 -1.6304 -0.3359  2.8177
  292DG     H15 6708   1.863   2.901   0.785 -1.5326 -3.1876  0.5417
  292DG     H16 6709   2.018   2.872   0.881  2.8451  1.1407 -1.4310
  292DG     C17 6710   1.807   2.533   0.807 -0.3244  0.3065  0.1326
  292DG     C18 6711   1.960   2.704   0.770 -0.4675 -0.4721 -0.3950
  292DG     O19 6712   1.850   2.658   0.848 -0.2263  0.5161  0.1138
  292DG     H20 6713   1.764   2.539   0.708 -0.0630  1.8390 -1.8646
  292DG     H21 6714   1.901   2.476   0.801  0.4782  1.1173  0.0904
  292DG     H22 6715   1.928   2.691   0.666 -0.0243  0.4910 -0.2382
  292DG     H23 6716   2.051   2.649   0.776  0.8292 -0.7598 -0.6691
  293DG      C1 6717   2.814   2.425   0.680 -0.2351  0.1465 -0.6999
  293DG      C2 6718   3.131   3.073   0.963 -0.0164 -0.5500 -0.2494
  293DG      H3 6719   2.799   2.319   0.702 -0.1913 -1.6673  0.6659
  293DG      H4 6720   2.830   2.433   0.571  0.4888 -0.4519  2.7548
  293DG      H5 6721   2.720   2.473   0.713 -0.1843  0.0202  1.1570
  293DG      H6 6722   3.217   3.104   1.031 -1.8383  1.3451 -1.7771
  293DG      H7 6723   3.156   3.127   0.875  0.8329  0.1518  1.2948
  293DG      H8 6724   3.026   3.106   0.991 -1.3723  1.4182  1.3088
  293DG      O9 6725   2.916   2.486   0.757  0.1908 -0.4388 -0.0721
  293DG     O10 6726   3.121   2.932   0.932 -0.2984  0.0656  0.2826
  293DG     C11 6727   3.049   2.465   0.711 -0.4198 -0.1346  0.0182
  293DG     C12 6728   3.247   2.864   0.919  0.4026 -0.2105 -0.5978
  293DG     H13 6729   3.056   2.514   0.613  2.3906  1.3034  0.8132
  293DG     H14 6730   3.059   2.359   0.690 -0.4957  1.0898 -2.7302
  293DG     H15 6731   3.318   2.884   0.998  1.0809 -5.1204  0.9433
  293DG     H16 6732   3.303   2.886   0.828 -1.2988  1.3150  1.2362
  293DG     C17 6733   3.145   2.520   0.817 -0.4917  0.1129  0.2317
  293DG     C18 6734   3.218   2.718   0.923  0.5206 -0.2064 -0.0087
  293DG     O19 6735   3.144   2.667   0.817  0.0551  0.3020 -0.3573
  293DG     H20 6736   3.240   2.484   0.795 -1.9679  0.3973 -3.9716
  293DG     H21 6737   3.113   2.490   0.918  1.4357  1.5846  3.1314
  293DG     H22 6738   3.314   2.671   0.921 -2.6077 -0.8690 -0.2400
  293DG     H23 6739   3.178   2.681   1.020 -1.8720 -1.9373  3.1035
  294DG      C1 6740   4.681   3.124   3.897  0.1196  0.0647 -0.1272
  294DG      C2 6741   4.254   2.726   3.974 -0.2688 -0.0048  0.1728
  294DG      H3 6742   4.732   3.218   3.915  2.3739  0.8917 -1.6323
  294DG      H4 6743   4.595   3.117   3.958  2.5087 -0.0355  3.5815
  294DG      H5 6744   4.645   3.112   3.792  1.3810  1.6682 -4.1550
  294DG      H6 6745   4.193   2.717   3.885 -1.2958  0.2144 -0.1837
  294DG      H7 6746   4.187   2.693   4.057  0.8537 -1.8933 -0.0168
  294DG      H8 6747   4.257   2.834   4.003 -0.5459  0.0577  0.4906
  294DG      O9 6748   4.755   3.009   3.920 -0.4596  0.2076  0.4302
  294DG     O10 6749   4.383   2.661   3.966  0.4463 -0.3587  0.8769
  294DG     C11 6750   4.790   2.996   4.060  0.1276 -0.1862 -0.7741
  294DG     C12 6751   4.455   2.646   4.090 -0.5311 -0.1497  0.4666
  294DG     H13 6752   4.814   3.094   4.099 -1.1133  1.2442  0.3037
  294DG     H14 6753   4.877   2.938   4.070  1.1670  1.0362  0.9651
  294DG     H15 6754   4.539   2.580   4.075 -2.6826  0.6776  0.2319
  294DG     H16 6755   4.396   2.598   4.165  4.1630 -0.4531 -0.6060
  294DG     C17 6756   4.675   2.948   4.138  0.3913 -0.0072  0.0914
  294DG     C18 6757   4.508   2.786   4.152 -0.0486  0.3223 -0.0372
  294DG     O19 6758   4.616   2.831   4.073  0.2947  0.1636 -0.5439
  294DG     H20 6759   4.596   3.027   4.157 -3.3618  1.2229 -0.6665
  294DG     H21 6760   4.714   2.923   4.236  0.4144  3.2067  2.4930
  294DG     H22 6761   4.430   2.865   4.163  2.1060 -2.1485 -1.3540
  294DG     H23 6762   4.535   2.754   4.260 -0.6728 -3.3040 -2.2658
  295DG      C1 6763   4.757   4.838   1.960  0.3976 -0.1028  0.3309
  295DG      C2 6764   4.452   4.713   2.434  0.8832  0.6151 -0.3461
  295DG      H3 6765   4.741   4.732   1.948 -0.6817 -1.2338  0.1964
  295DG      H4 6766   4.834   4.863   1.898 -0.7298 -2.6036  2.6904
  295DG      H5 6767   4.667   4.873   1.920  1.0645  0.9901 -1.4271
  295DG      H6 6768   4.497   4.752   2.344 -1.3511 -0.4596  0.4229
  295DG      H7 6769   4.493   4.618   2.473 -0.8893 -1.4813  2.8766
  295DG      H8 6770   4.347   4.690   2.413  0.5005  0.5446  1.8906
  295DG      O9 6771   4.761   4.874   2.095 -0.0148  0.4396  0.1584
  295DG     O10 6772   4.454   4.819   2.528  0.0207  0.2183  0.6059
  295DG     C11 6773   4.707   5.003   2.122  0.2783  0.9868 -0.1895
  295DG     C12 6774   4.581   4.853   2.586  0.1046  0.9765 -0.4339
  295DG     H13 6775   4.603   4.994   2.092 -2.6302 -1.8926 -1.8543
  295DG     H14 6776   4.763   5.075   2.059 -0.5741 -2.0067 -1.0936
  295DG     H15 6777   4.651   4.766   2.596  2.3413 -0.9737  1.1166
  295DG     H16 6778   4.565   4.872   2.687 -0.3345  0.2062  0.8086
  295DG     C17 6779   4.719   5.029   2.274 -0.2775  0.2090 -0.0035
  295DG     C18 6780   4.651   4.961   2.495  0.4733  0.9178 -0.2508
  295DG     O19 6781   4.655   4.935   2.355 -0.3802 -0.6974  0.1621
  295DG     H20 6782   4.668   5.126   2.289  2.0312  0.5277 -2.6900
  295DG     H21 6783   4.825   5.033   2.307  2.1098 -1.1278  2.0057
  295DG     H22 6784   4.611   5.067   2.506 -2.1356  0.3298 -1.1410
  295DG     H23 6785   4.758   4.967   2.525 -1.1419 -0.7690 -2.4128
  296DG      C1 6786   1.846   3.926   5.215 -0.0116 -0.0161  0.8206
  296DG      C2 6787   1.666   4.118   5.842 -0.2373  0.1062 -0.1324
  296DG      H3 6788   1.845   4.018   5.152 -0.2516  0.5021 -0.0479
  296DG      H4 6789   1.735   3.904   5.207  0.7940  1.0572 -0.2917
  296DG      H5 6790   1.902   3.847   5.161 -2.5591 -0.9726 -0.5912
  296DG      H6 6791   1.711   4.086   5.938  0.8918 -0.6240  0.3435
  296DG      H7 6792   1.646   4.225   5.858 -0.0691  1.6669 -1.6406
  296DG      H8 6793   1.571   4.066   5.816 -0.3306 -2.4524  0.4898
  296DG      O9 6794   1.886   3.945   5.351  0.2687 -0.0906 -0.1457
  296DG     O10 6795   1.760   4.102   5.732 -0.6308  0.1328 -0.1780
  296DG     C11 6796   2.016   4.003   5.355 -0.2535  0.1838 -0.6986
  296DG     C12 6797   1.891   4.146   5.756 -0.1802  0.5319 -0.5033
  296DG     H13 6798   2.003   4.110   5.326  0.5495  0.5341 -0.5365
  296DG     H14 6799   2.079   3.967   5.272 -0.6267  0.1581 -1.5664
  296DG     H15 6800   1.941   4.087   5.832  1.3368  1.4902 -0.7750
  296DG     H16 6801   1.886   4.244   5.794 -0.8184 -0.0095  1.2065
  296DG     C17 6802   2.086   3.966   5.488  0.6770  0.0001 -0.6180
  296DG     C18 6803   1.981   4.130   5.627 -0.1218  0.3072  0.3276
  296DG     O19 6804   2.000   3.995   5.597  0.1319  0.3676  0.2866
  296DG     H20 6805   2.185   4.014   5.499  1.6935  0.0371  0.1214
  296DG     H21 6806   2.107   3.857   5.484 -0.6375 -2.0259 -1.0929
  296DG     H22 6807   1.932   4.182   5.547 -1.1140 -1.5935 -0.1167
  296DG     H23 6808   2.080   4.183   5.638 -0.5136  2.0299  4.1512
  297DG      C1 6809   5.288   2.199   1.493 -0.2185  0.5019 -0.6011
  297DG      C2 6810   5.132   2.932   1.623 -0.5288 -0.8431 -0.1351
  297DG      H3 6811   5.386   2.214   1.534  1.8020  0.1922  1.1007
  297DG      H4 6812   5.309   2.158   1.393  3.2100  1.7319  0.4812
  297DG      H5 6813   5.229   2.140   1.556  2.4515 -0.0020 -0.3219
  297DG      H6 6814   5.179   3.014   1.566 -3.3302 -0.5085 -2.3753
  297DG      H7 6815   5.032   2.971   1.649 -0.2993 -0.4214 -1.8501
  297DG      H8 6816   5.180   2.905   1.723  2.2185 -1.2865  1.8685
  297DG      O9 6817   5.207   2.306   1.472 -0.3516  0.1863  1.1086
  297DG     O10 6818   5.123   2.831   1.526 -0.3779  0.0711 -0.0650
  297DG     C11 6819   5.172   2.386   1.585  0.5424  0.3432 -1.0047
  297DG     C12 6820   4.997   2.770   1.502  0.4581 -0.3638 -0.1100
  297DG     H13 6821   5.242   2.380   1.675 -0.7834  0.4265 -1.6499
  297DG     H14 6822   5.069   2.356   1.612 -0.5996  0.1903  2.7535
  297DG     H15 6823   4.934   2.840   1.458  1.0097 -0.8707  0.1893
  297DG     H16 6824   4.961   2.728   1.597  2.0535  2.2377  3.3491
  297DG     C17 6825   5.157   2.538   1.538 -0.5913  0.4610  0.7441
  297DG     C18 6826   5.024   2.668   1.394  0.5674 -0.2894 -0.0351
  297DG     O19 6827   5.043   2.540   1.450  0.0550  0.2987  0.2244
  297DG     H20 6828   5.243   2.575   1.484 -4.1149 -0.0018 -0.4697
  297DG     H21 6829   5.143   2.595   1.629  2.3792 -1.8717  0.5853
  297DG     H22 6830   4.933   2.671   1.336 -0.4788 -1.2656  1.6935
  297DG     H23 6831   5.098   2.702   1.322  2.0431 -0.2646  0.6299
  298DG      C1 6832   3.213   3.307   1.473 -0.2251  0.9870  0.5963
  298DG      C2 6833   2.761   2.731   1.391 -0.3689  0.2457 -0.5644
  298DG      H3 6834   3.292   3.304   1.544  2.9821 -3.6798 -2.4105
  298DG      H4 6835   3.128   3.352   1.531  0.9668 -0.2486  2.2239
  298DG      H5 6836   3.237   3.369   1.388 -1.3138 -1.6568  0.0002
  298DG      H6 6837   2.673   2.758   1.336  1.6860  1.9486  4.1691
  298DG      H7 6838   2.765   2.630   1.430 -1.6367 -0.1121  2.8253
  298DG      H8 6839   2.761   2.800   1.476 -0.4071 -0.1189  1.6418
  298DG      O9 6840   3.173   3.176   1.422  0.4395 -0.8259  0.0562
  298DG     O10 6841   2.873   2.751   1.310 -0.3315  0.0386 -0.6827
  298DG     C11 6842   3.288   3.110   1.386 -0.0508  0.3232 -0.3023
  298DG     C12 6843   2.998   2.710   1.367  0.0968 -0.3012  0.2873
  298DG     H13 6844   3.356   3.106   1.473  3.1284  1.4091 -1.8895
  298DG     H14 6845   3.337   3.173   1.316 -2.0352 -1.1840 -0.0957
  298DG     H15 6846   3.004   2.604   1.338  1.1174 -2.3839 -0.3884
  298DG     H16 6847   2.998   2.707   1.475  1.5269  1.6993  1.8084
  298DG     C17 6848   3.260   2.973   1.322 -0.1426  0.2488 -0.2952
  298DG     C18 6849   3.116   2.780   1.299 -0.5279  0.0185  0.1367
  298DG     O19 6850   3.147   2.896   1.372 -0.6767 -0.3075  0.2805
  298DG     H20 6851   3.348   2.912   1.335 -3.0235 -1.1322  2.9236
  298DG     H21 6852   3.259   2.997   1.216  0.6471  1.9783 -0.1896
  298DG     H22 6853   3.208   2.716   1.291 -1.3803 -0.5841  2.3396
  298DG     H23 6854   3.082   2.808   1.201  0.6234  0.2926 -0.4091
  299DG      C1 6855   4.398   4.802   3.426 -0.6947 -0.4616  0.0552
  299DG      C2 6856   4.353   5.331   3.443  0.2212  0.1778  0.4749
  299DG      H3 6857   4.421   4.703   3.452 -2.0663  0.3169 -0.2834
  299DG      H4 6858   4.359   4.801   3.316 -2.5839 -0.0694 -0.7245
  299DG      H5 6859   4.319   4.831   3.490  0.6588  0.2105 -0.8323
  299DG      H6 6860   4.374   5.224   3.464  0.0813 -2.4893  1.2776
  299DG      H7 6861   4.264   5.372   3.485  0.1637 -1.3775 -2.0743
  299DG      H8 6862   4.347   5.349   3.334  0.6027  1.5754 -0.2733
  299DG      O9 6863   4.510   4.878   3.453 -0.0278  0.7367 -0.1268
  299DG     O10 6864   4.459   5.403   3.505 -0.5561 -0.0625 -0.3560
  299DG     C11 6865   4.537   4.881   3.592  1.4788 -0.3080  0.1255
  299DG     C12 6866   4.594   5.357   3.489  0.4457  0.4053 -0.2575
  299DG     H13 6867   4.600   4.795   3.608  0.6720 -0.7212 -0.5036
  299DG     H14 6868   4.445   4.883   3.654 -2.2897  0.1039  1.8298
  299DG     H15 6869   4.650   5.438   3.539  0.3447 -0.3326 -0.0526
  299DG     H16 6870   4.624   5.347   3.387 -0.2831  0.2320  0.8948
  299DG     C17 6871   4.621   5.004   3.621  0.0216  0.3371 -0.2233
  299DG     C18 6872   4.640   5.232   3.568  0.0081  0.2589  0.0325
  299DG     O19 6873   4.559   5.115   3.562 -0.4815  0.7310  0.0931
  299DG     H20 6874   4.718   4.991   3.571 -1.3047 -4.9932  1.1154
  299DG     H21 6875   4.647   5.015   3.732  0.0624 -1.0955  0.6334
  299DG     H22 6876   4.746   5.207   3.567  0.3053 -2.9303  1.0752
  299DG     H23 6877   4.628   5.263   3.669  1.0509 -0.2006  1.2071
  300DG      C1 6878   5.488   4.805   0.107 -0.0582 -0.6925  0.5309
  300DG      C2 6879   4.751   5.161   0.195  0.6590 -0.4894  0.7763
  300DG      H3 6880   5.486   4.768   0.209  0.4132 -1.0632 -1.0992
  300DG      H4 6881   5.544   4.900   0.095  0.9686  0.7820 -0.8709
  300DG      H5 6882   5.535   4.732   0.041 -0.2963  1.3327  1.2879
  300DG      H6 6883   4.828   5.224   0.155 -0.1426 -0.0575  1.2250
  300DG      H7 6884   4.653   5.196   0.150 -0.0034  1.2106 -0.3018
  300DG      H8 6885   4.757   5.162   0.301 -1.0631  1.0907  2.4721
  300DG      O9 6886   5.359   4.828   0.048 -0.3043 -0.6044  0.0188
  300DG     O10 6887   4.781   5.043   0.116 -0.9010 -0.3617 -0.4463
  300DG     C11 6888   5.275   4.715   0.040 -0.1762  0.1236  0.3916
  300DG     C12 6889   4.888   4.974   0.161 -0.0451 -0.0926  0.0510
  300DG     H13 6890   5.266   4.663   0.136 -2.1564  0.1578  0.0173
  300DG     H14 6891   5.310   4.649  -0.039  0.2197  2.5537  0.7217
  300DG     H15 6892   4.850   4.919   0.243 -1.8529 -1.3622 -0.6950
  300DG     H16 6893   4.962   5.038   0.208 -1.8837 -0.9636 -1.1165
  300DG     C17 6894   5.136   4.759  -0.006 -0.3900  0.0660  0.1474
  300DG     C18 6895   4.951   4.899   0.048 -0.3027 -0.0534  0.0429
  300DG     O19 6896   5.073   4.842   0.092  0.6888  0.4779  0.3300
  300DG     H20 6897   5.075   4.674  -0.020  2.0076  1.2308 -1.2275
  300DG     H21 6898   5.153   4.820  -0.097  2.5487  1.5613  1.5900
  300DG     H22 6899   4.885   4.822   0.022  1.7706  3.2705  2.1331
  300DG     H23 6900   4.970   4.967  -0.036 -2.6922  0.9863 -3.0020
  301DG      C1 6901   1.068   0.561   1.067 -0.2379 -0.4834  0.7305
  301DG      C2 6902   0.874   0.949   0.518  0.7038 -0.0180  0.7159
  301DG      H3 6903   1.100   0.662   1.109 -0.1943  0.8162  0.0190
  301DG      H4 6904   1.123   0.481   1.122 -0.6606  0.9748 -0.9404
  301DG      H5 6905   0.962   0.538   1.089  0.2332 -4.7294  0.8079
  301DG      H6 6906   0.852   0.984   0.622  0.4188  2.0323  0.0695
  301DG      H7 6907   0.872   1.042   0.450 -0.3642  3.7917  0.3882
  301DG      H8 6908   0.794   0.879   0.496  2.2181 -1.3656 -1.3246
  301DG      O9 6909   1.110   0.557   0.930 -0.7556  0.1222  0.2153
  301DG     O10 6910   1.005   0.892   0.532 -0.7123  0.0340  0.6317
  301DG     C11 6911   1.229   0.623   0.910  0.3508 -0.2868 -0.4739
  301DG     C12 6912   1.012   0.775   0.612  0.4717 -0.1426  0.6817
  301DG     H13 6913   1.296   0.573   0.977  0.5408  0.1554 -1.2418
  301DG     H14 6914   1.237   0.733   0.925 -0.2661 -1.2243  2.1402
  301DG     H15 6915   0.976   0.682   0.560  1.4726 -3.0129 -1.3706
  301DG     H16 6916   0.966   0.786   0.715  0.3360  0.4208  2.9735
  301DG     C17 6917   1.272   0.587   0.768 -0.0654 -0.2379  0.5543
  301DG     C18 6918   1.160   0.744   0.626 -0.0293  0.4568 -0.1552
  301DG     O19 6919   1.165   0.617   0.682 -0.1890 -0.1470 -0.0087
  301DG     H20 6920   1.302   0.485   0.757 -0.3142  1.9644  0.6732
  301DG     H21 6921   1.355   0.634   0.728  0.9957 -3.4644 -0.8075
  301DG     H22 6922   1.208   0.744   0.532  1.1057  1.6192  1.0521
  301DG     H23 6923   1.216   0.813   0.685 -2.1045 -1.6838  1.1905
  302DG      C1 6924   4.356   4.163   5.459 -0.5730 -0.0626  0.1866
  302DG      C2 6925   4.581   3.776   5.906  0.4519 -0.2340  0.3339
  302DG      H3 6926   4.286   4.134   5.378 -2.7101  0.9006  1.3769
  302DG      H4 6927   4.337   4.267   5.490  1.4921 -2.5537 -1.4321
  302DG      H5 6928   4.344   4.103   5.548 -0.0273  2.0177 -0.1891
  302DG      H6 6929   4.667   3.711   5.894 -2.5546 -0.0288  1.5499
  302DG      H7 6930   4.606   3.876   5.947  0.5726  0.9320 -0.2347
  302DG      H8 6931   4.505   3.726   5.972  0.9246  1.9026 -0.2693
  302DG      O9 6932   4.491   4.157   5.416 -0.7690  0.3315  1.0718
  302DG     O10 6933   4.509   3.791   5.785  0.2455  0.0655  0.0400
  302DG     C11 6934   4.523   4.059   5.324  0.5754 -0.0750  0.2805
  302DG     C12 6935   4.556   3.705   5.678 -0.2438 -0.1678  0.5856
  302DG     H13 6936   4.625   4.077   5.294 -2.9609 -0.5745 -1.9519
  302DG     H14 6937   4.470   4.080   5.232 -1.5157  0.5099  1.7462
  302DG     H15 6938   4.518   3.600   5.691 -0.2530 -3.0979 -1.3670
  302DG     H16 6939   4.667   3.704   5.674  1.1449  2.6700 -2.5323
  302DG     C17 6940   4.498   3.911   5.368 -0.2197  0.2216  0.1631
  302DG     C18 6941   4.500   3.747   5.543 -0.4741  0.0527 -0.2582
  302DG     O19 6942   4.548   3.880   5.498  0.5196 -0.7000  0.0972
  302DG     H20 6943   4.540   3.845   5.289  2.2662 -1.9214 -1.0271
  302DG     H21 6944   4.395   3.903   5.365  0.2167 -1.3822  1.1643
  302DG     H22 6945   4.518   3.668   5.473  0.3847  0.6764 -0.4416
  302DG     H23 6946   4.396   3.756   5.557 -0.2356 -0.5144 -2.4085
  303DG      C1 6947   1.396   4.555   3.223 -0.1669 -1.1543 -0.7125
  303DG      C2 6948   0.748   4.428   2.994  0.1875 -0.1435 -0.6126
  303DG      H3 6949   1.478   4.599   3.168  1.8652 -1.3649 -1.2913
  303DG      H4 6950   1.433   4.481   3.300  0.3334  1.0584 -1.0738
  303DG      H5 6951   1.333   4.635   3.264 -0.5145  1.9709  1.9499
  303DG      H6 6952   0.716   4.369   3.078  3.0274  1.2206  1.3585
  303DG      H7 6953   0.733   4.543   3.008 -1.8113 -0.3461  2.5872
  303DG      H8 6954   0.691   4.404   2.907  3.1036 -0.9771 -1.7345
  303DG      O9 6955   1.310   4.486   3.138  0.2385  0.4541 -0.0470
  303DG     O10 6956   0.886   4.407   2.963  0.7919 -0.4713  0.0986
  303DG     C11 6957   1.362   4.365   3.086 -0.3489  0.8460 -0.5897
  303DG     C12 6958   0.911   4.281   2.907  0.3199 -0.4172 -0.4233
  303DG     H13 6959   1.359   4.299   3.174 -0.2833 -0.2803  1.0764
  303DG     H14 6960   1.469   4.370   3.070 -2.4182  1.4788 -0.4696
  303DG     H15 6961   0.849   4.275   2.817 -0.4756 -0.3691  0.3523
  303DG     H16 6962   0.863   4.219   2.975  1.9511 -0.3674 -0.5149
  303DG     C17 6963   1.276   4.321   2.967  0.2739  0.6015  0.3926
  303DG     C18 6964   1.060   4.265   2.883  0.1517  0.0678  0.3104
  303DG     O19 6965   1.139   4.290   2.995  0.1503  0.0778  0.3945
  303DG     H20 6966   1.322   4.231   2.914 -0.8140  2.6752 -1.5080
  303DG     H21 6967   1.285   4.400   2.892 -0.5522  0.8075 -0.4873
  303DG     H22 6968   1.075   4.166   2.849  0.7618 -0.9093 -2.2611
  303DG     H23 6969   1.090   4.325   2.793 -0.4524  2.6916  0.2547
  304DG      C1 6970   0.879   4.887   5.497  0.0782 -0.2769 -0.6752
  304DG      C2 6971   1.344   5.477   5.582  0.5352 -0.2165  0.0394
  304DG      H3 6972   0.839   4.970   5.559  0.0544 -1.2254  1.2884
  304DG      H4 6973   0.866   4.788   5.541 -1.9418 -0.1894  0.7699
  304DG      H5 6974   0.834   4.891   5.398 -1.9211  1.8557 -0.0116
  304DG      H6 6975   1.357   5.544   5.492  2.8208  0.2396 -0.7473
  304DG      H7 6976   1.256   5.511   5.643 -1.3868  0.6717 -0.2068
  304DG      H8 6977   1.440   5.494   5.635 -3.7415  2.0429 -1.2225
  304DG      O9 6978   1.025   4.917   5.481 -0.0608 -0.0907  0.4179
  304DG     O10 6979   1.325   5.336   5.549 -0.2625 -0.2659 -0.4558
  304DG     C11 6980   1.106   4.884   5.589  0.6362  0.2072 -0.3382
  304DG     C12 6981   1.390   5.255   5.640  0.2560 -0.4355 -0.1935
  304DG     H13 6982   1.102   4.775   5.600 -0.9918 -0.8354 -1.1534
  304DG     H14 6983   1.066   4.925   5.679 -1.2107  0.3610  3.2959
  304DG     H15 6984   1.331   5.256   5.728  1.7558  1.5550  0.0350
  304DG     H16 6985   1.494   5.285   5.664  0.4045 -1.6436 -0.5821
  304DG     C17 6986   1.246   4.935   5.574  0.1168  0.0118  0.8723
  304DG     C18 6987   1.385   5.113   5.582 -0.3402 -0.1891  0.1410
  304DG     O19 6988   1.252   5.073   5.587 -0.3241 -0.2132 -0.2748
  304DG     H20 6989   1.275   4.889   5.484  2.0769 -0.4680  1.3394
  304DG     H21 6990   1.299   4.878   5.649 -0.8815  0.2413 -0.7310
  304DG     H22 6991   1.431   5.096   5.483 -1.9330 -0.1237  2.5449
  304DG     H23 6992   1.449   5.056   5.648  0.9411 -1.0641  1.6305
  305DG      C1 6993   4.401   0.064   2.556  0.4195  0.2103  0.3947
  305DG      C2 6994   4.739   0.131   2.960 -0.0870  0.3460  1.4768
  305DG      H3 6995   4.422   0.091   2.458  3.0684 -1.4997  1.9040
  305DG      H4 6996   4.456   0.134   2.610  0.1138  2.8081 -1.7367
  305DG      H5 6997   4.300   0.096   2.596 -1.0044  3.7950 -0.8092
  305DG      H6 6998   4.648   0.149   3.016  2.3764  1.8452  0.3860
  305DG      H7 6999   4.809   0.211   2.967  0.2420  0.1633  2.3341
  305DG      H8 7000   4.729   0.128   2.853 -0.7090 -0.8995  2.2560
  305DG      O9 7001   4.432  -0.066   2.595 -0.3980 -0.3165  0.3537
  305DG     O10 7002   4.797   0.013   3.015 -0.9626  0.3585  0.6625
  305DG     C11 7003   4.566  -0.100   2.569  0.2681  0.2327 -0.1286
  305DG     C12 7004   4.704  -0.092   3.027  0.5246 -0.0057 -0.2656
  305DG     H13 7005   4.630  -0.014   2.563  0.8280 -1.3913 -0.3924
  305DG     H14 7006   4.579  -0.160   2.479  0.6947  0.8030  2.5310
  305DG     H15 7007   4.607  -0.054   3.061 -1.4202 -0.5194 -2.4282
  305DG     H16 7008   4.746  -0.153   3.113 -0.4576  0.3925  0.6752
  305DG     C17 7009   4.606  -0.194   2.682 -0.7664  0.6163 -0.0428
  305DG     C18 7010   4.688  -0.187   2.910 -0.5629 -0.4184 -0.2515
  305DG     O19 7011   4.646  -0.117   2.791  0.3736 -0.0791  0.1023
  305DG     H20 7012   4.689  -0.247   2.647 -1.7206  0.2127  2.8790
  305DG     H21 7013   4.531  -0.260   2.703  0.0650  0.5617  0.0782
  305DG     H22 7014   4.779  -0.247   2.896  0.6883  0.2169  1.4712
  305DG     H23 7015   4.621  -0.270   2.925 -2.4059  0.9087 -0.3414
  306DG      C1 7016   5.171   4.374   0.130 -0.1927 -0.6850  0.4872
  306DG      C2 7017   4.574   4.224   0.494 -0.6664  0.7999 -0.1549
  306DG      H3 7018   5.130   4.465   0.175  0.6001 -1.1495 -0.9473
  306DG      H4 7019   5.222   4.406   0.041  1.8200 -1.0161  0.4483
  306DG      H5 7020   5.236   4.325   0.205 -0.4482  0.1726  0.5320
  306DG      H6 7021   4.471   4.233   0.468  1.3204 -0.1631 -0.0220
  306DG      H7 7022   4.597   4.131   0.542  2.0967  1.1569 -1.4642
  306DG      H8 7023   4.607   4.292   0.566  0.1129  1.2239 -1.4538
  306DG      O9 7024   5.067   4.281   0.090 -0.2226  0.3622 -0.5143
  306DG     O10 7025   4.658   4.248   0.374 -0.5975  0.3483  0.1473
  306DG     C11 7026   4.979   4.329  -0.010 -0.0816 -0.2004  0.0920
  306DG     C12 7027   4.626   4.148   0.280  0.6077  0.3192 -0.0836
  306DG     H13 7028   5.025   4.324  -0.107 -0.1262  0.5110  1.6845
  306DG     H14 7029   4.964   4.441   0.011 -1.5984  1.0938  0.7932
  306DG     H15 7030   4.524   4.125   0.271  0.4751  0.3364 -1.3346
  306DG     H16 7031   4.670   4.052   0.309 -0.2194 -0.3833  2.1884
  306DG     C17 7032   4.842   4.261  -0.017  0.7711  0.6577 -0.3088
  306DG     C18 7033   4.666   4.193   0.137  0.3118 -0.0844 -1.0134
  306DG     O19 7034   4.799   4.240   0.123  0.2243  0.2852 -0.0101
  306DG     H20 7035   4.856   4.165  -0.062 -0.6691 -0.1817  1.7448
  306DG     H21 7036   4.767   4.326  -0.074 -2.7154  0.8528 -0.1180
  306DG     H22 7037   4.658   4.108   0.068 -2.7317  3.0634 -0.9486
  306DG     H23 7038   4.597   4.269   0.101  0.7451  2.2942  0.9083
  307DG      C1 7039   1.256   2.094   0.191  0.2266 -0.9912  0.1356
  307DG      C2 7040   1.374   2.639  -0.354 -0.2192  0.0100 -0.4987
  307DG      H3 7041   1.359   2.061   0.204 -1.3912 -1.6861 -0.1061
  307DG      H4 7042   1.189   2.005   0.194 -1.1143 -1.0141  3.0366
  307DG      H5 7043   1.233   2.151   0.284  0.0557 -0.0320  3.6314
  307DG      H6 7044   1.326   2.700  -0.436  0.2477 -0.9609  0.2848
  307DG      H7 7045   1.372   2.712  -0.276 -0.5016 -1.0089 -0.4898
  307DG      H8 7046   1.475   2.625  -0.387 -0.5040 -1.3598 -0.4302
  307DG      O9 7047   1.243   2.193   0.086  0.2923  0.7464 -0.7395
  307DG     O10 7048   1.312   2.517  -0.324  0.1223  0.1737 -0.4737
  307DG     C11 7049   1.110   2.238   0.077 -0.2498 -0.1350 -0.3104
  307DG     C12 7050   1.171   2.528  -0.290 -0.1611 -0.2661  0.5195
  307DG     H13 7051   1.061   2.273   0.171 -0.5737  2.9759  1.9846
  307DG     H14 7052   1.053   2.163   0.035  2.0232  4.1614  0.5440
  307DG     H15 7053   1.121   2.585  -0.364  1.0918  0.2002 -1.1405
  307DG     H16 7054   1.172   2.585  -0.194 -0.8035  0.0401 -1.5632
  307DG     C17 7055   1.108   2.359  -0.020 -0.1157 -0.0071 -0.7337
  307DG     C18 7056   1.098   2.394  -0.256 -0.1292  0.0667  0.4427
  307DG     O19 7057   1.174   2.333  -0.147  0.7120  0.2459 -0.1324
  307DG     H20 7058   1.149   2.447   0.029 -0.7966  0.9538 -2.8347
  307DG     H21 7059   1.005   2.382  -0.027  2.0090  1.3161 -1.8072
  307DG     H22 7060   0.992   2.414  -0.240  1.0109  1.1356  1.5412
  307DG     H23 7061   1.107   2.314  -0.328 -0.5353 -1.7105 -4.3787
  308DG      C1 7062   0.513   3.686   4.369  0.4256 -0.5080  0.1495
  308DG      C2 7063   1.141   3.697   4.271  0.7397 -0.2248 -0.3386
  308DG      H3 7064   0.502   3.609   4.290  0.6638 -4.3077 -0.4234
  308DG      H4 7065   0.496   3.787   4.324  0.7170  0.4890 -1.7446
  308DG      H5 7066   0.435   3.671   4.441  1.2824  0.7919  0.7309
  308DG      H6 7067   1.106   3.612   4.339 -3.0003 -1.8744 -2.2328
  308DG      H7 7068   1.129   3.668   4.168  1.1484 -2.1791  0.9383
  308DG      H8 7069   1.249   3.716   4.286 -2.7652  0.1749 -0.3098
  308DG      O9 7070   0.641   3.693   4.426  0.0794 -1.2568 -0.4055
  308DG     O10 7071   1.068   3.813   4.291 -0.1938  0.1771 -0.2430
  308DG     C11 7072   0.648   3.772   4.544  0.0529  0.0367 -0.1276
  308DG     C12 7073   1.090   3.875   4.424 -0.1650  0.0717 -0.4168
  308DG     H13 7074   0.587   3.727   4.616  0.5167 -2.3308 -0.4688
  308DG     H14 7075   0.626   3.877   4.534 -2.2832 -0.1241 -0.3354
  308DG     H15 7076   1.078   3.982   4.426 -2.0941  0.5977 -0.3889
  308DG     H16 7077   1.196   3.867   4.442 -2.1882  1.4200 -1.6672
  308DG     C17 7078   0.792   3.762   4.597 -0.5917  0.0136  0.3619
  308DG     C18 7079   1.011   3.809   4.532  0.1432  0.7560  0.0496
  308DG     O19 7080   0.871   3.816   4.491  0.0478  0.5052  0.1221
  308DG     H20 7081   0.808   3.649   4.607 -2.5323  1.1066  1.3156
  308DG     H21 7082   0.813   3.811   4.694 -0.2091 -0.0341  1.9567
  308DG     H22 7083   1.036   3.706   4.524  1.7058 -0.7632 -0.2193
  308DG     H23 7084   1.036   3.867   4.619  2.7510  0.7740 -1.0936
  309DG      C1 7085   3.941   2.537   2.926  0.1227 -0.1973  0.1360
  309DG      C2 7086   3.575   2.039   3.235  0.0444  0.6895  0.3729
  309DG      H3 7087   4.030   2.568   2.878 -1.4419 -1.1649 -0.6736
  309DG      H4 7088   3.934   2.592   3.023  0.7899  0.8797  2.0940
  309DG      H5 7089   3.851   2.568   2.878  4.1912  3.0615 -0.5057
  309DG      H6 7090   3.552   2.124   3.289 -0.2924 -0.3734 -0.3296
  309DG      H7 7091   3.502   2.019   3.153 -0.4462 -1.1557  0.9592
  309DG      H8 7092   3.589   1.948   3.298 -0.0741  1.3271 -0.0499
  309DG      O9 7093   3.939   2.399   2.948 -0.4708  0.2496  0.2612
  309DG     O10 7094   3.704   2.057   3.176  0.1365 -0.6367 -0.0152
  309DG     C11 7095   3.944   2.317   2.834 -0.8707 -0.0158  0.0907
  309DG     C12 7096   3.739   1.953   3.082  0.0568 -0.1335  0.4033
  309DG     H13 7097   4.026   2.351   2.771 -1.8073 -2.0226 -0.2222
  309DG     H14 7098   3.849   2.335   2.787  1.9832 -1.3047 -1.6058
  309DG     H15 7099   3.663   1.942   3.006 -0.2323 -2.4103  0.6688
  309DG     H16 7100   3.747   1.857   3.140 -0.8393 -1.6393  1.5538
  309DG     C17 7101   3.971   2.164   2.872 -0.2572 -0.3265 -0.7104
  309DG     C18 7102   3.872   1.988   3.006  0.8705  0.6442  0.0359
  309DG     O19 7103   3.854   2.107   2.933 -0.1800  0.0537 -0.0116
  309DG     H20 7104   4.056   2.157   2.941  1.3052  0.3162  3.0931
  309DG     H21 7105   3.997   2.102   2.788  0.5076  0.7332  0.2187
  309DG     H22 7106   3.943   1.991   3.090 -1.6922  0.9735  1.9156
  309DG     H23 7107   3.903   1.913   2.936 -2.0896  0.1115 -0.6751
  310DG      C1 7108   3.819   1.513   4.406  0.0013  0.2354 -0.4602
  310DG      C2 7109   3.283   1.217   4.809 -0.5608  0.9834 -0.6267
  310DG      H3 7110   3.871   1.561   4.484 -2.1186  1.6609 -1.2453
  310DG      H4 7111   3.714   1.535   4.419  2.0229 -1.1276  1.7053
  310DG      H5 7112   3.846   1.559   4.308  1.9012  0.6829  0.0884
  310DG      H6 7113   3.197   1.181   4.753  0.1734  0.1879  0.0973
  310DG      H7 7114   3.268   1.178   4.904 -0.7870  1.8149 -0.3473
  310DG      H8 7115   3.289   1.325   4.801  0.0696  0.7557 -2.4786
  310DG      O9 7116   3.845   1.372   4.426  0.0280 -0.5103 -0.4409
  310DG     O10 7117   3.405   1.159   4.761 -0.0961  0.0448  0.2813
  310DG     C11 7118   3.767   1.286   4.336  0.4399  0.4258  0.5880
  310DG     C12 7119   3.438   1.208   4.637 -0.3327  0.1280 -0.0504
  310DG     H13 7120   3.830   1.267   4.251  0.1602 -2.0960  1.2223
  310DG     H14 7121   3.667   1.327   4.303  0.0196  0.9729  1.6635
  310DG     H15 7122   3.444   1.315   4.647 -0.5216 -3.7598  0.7038
  310DG     H16 7123   3.367   1.183   4.556  0.1355  0.8035  0.4059
  310DG     C17 7124   3.723   1.165   4.416 -0.5107  0.3172 -0.3700
  310DG     C18 7125   3.571   1.152   4.598 -0.2989 -0.0688 -0.3922
  310DG     O19 7126   3.609   1.217   4.475  0.2407 -0.1692 -0.2515
  310DG     H20 7127   3.799   1.134   4.484 -1.7313 -0.4324  0.6761
  310DG     H21 7128   3.683   1.069   4.363 -2.1907  1.3122 -3.0229
  310DG     H22 7129   3.638   1.167   4.684  0.3660 -2.0470  2.3616
  310DG     H23 7130   3.557   1.048   4.578  2.1111  1.5369 -0.3896
  311DG      C1 7131   1.064   0.991   1.577 -0.7689  0.1363 -0.6229
  311DG      C2 7132   0.737   0.932   2.359  0.0177  0.5120  0.1820
  311DG      H3 7133   1.137   0.922   1.617  0.6108 -2.2787 -1.6082
  311DG      H4 7134   1.118   1.054   1.497 -0.6306  0.2433 -2.4151
  311DG      H5 7135   0.974   0.947   1.529 -1.3100  0.4583  1.5803
  311DG      H6 7136   0.689   0.841   2.328  0.8161  1.7943 -0.3313
  311DG      H7 7137   0.832   0.897   2.398  0.4417 -1.1014  1.5424
  311DG      H8 7138   0.675   0.975   2.437  0.8396  1.4038 -0.0112
  311DG      O9 7139   1.045   1.056   1.702 -0.2503 -0.2626  0.2654
  311DG     O10 7140   0.746   1.041   2.266  0.5159 -0.5868 -0.1886
  311DG     C11 7141   0.943   1.157   1.704 -0.3558  1.1343  0.0261
  311DG     C12 7142   0.818   1.006   2.148  0.5242  0.5226 -0.3108
  311DG     H13 7143   0.858   1.115   1.654  2.1451 -0.2905 -0.8328
  311DG     H14 7144   0.983   1.238   1.642  1.3907 -3.5931 -1.6015
  311DG     H15 7145   0.751   0.953   2.084 -3.3580  0.4411 -1.5138
  311DG     H16 7146   0.903   0.934   2.176  3.2519  0.2349  0.0644
  311DG     C17 7147   0.928   1.196   1.852  0.2467 -0.2688  0.1525
  311DG     C18 7148   0.876   1.136   2.075 -0.3109  0.0552  0.7839
  311DG     O19 7149   0.927   1.091   1.947 -0.2709  0.3593  0.5049
  311DG     H20 7150   0.834   1.247   1.861 -0.6278 -0.4852  0.8013
  311DG     H21 7151   1.013   1.260   1.876 -1.0568 -2.0939  0.9427
  311DG     H22 7152   0.792   1.214   2.073 -0.1830 -0.2515 -0.0287
  311DG     H23 7153   0.960   1.188   2.109 -2.7590  0.6078 -3.9777
  312DG      C1 7154   1.656   4.785   4.531  1.0532  0.8079 -0.0479
  312DG      C2 7155   1.836   5.200   4.113 -0.3308 -0.1883  0.6582
  312DG      H3 7156   1.676   4.759   4.632 -1.7111  0.9870 -0.7850
  312DG      H4 7157   1.587   4.714   4.481 -2.2869  2.2096 -0.8332
  312DG      H5 7158   1.610   4.888   4.532  3.4375  0.2228  1.0405
  312DG      H6 7159   1.878   5.167   4.015  0.5187 -1.6892 -0.2192
  312DG      H7 7160   1.728   5.205   4.115 -2.0656 -1.6413  0.1146
  312DG      H8 7161   1.866   5.302   4.128 -1.2032 -0.2937 -1.1176
  312DG      O9 7162   1.770   4.803   4.453 -0.5128  0.0755  0.4395
  312DG     O10 7163   1.894   5.119   4.206 -0.4164  0.8356 -0.4661
  312DG     C11 7164   1.875   4.864   4.521  0.0169 -0.0979  0.1419
  312DG     C12 7165   2.036   5.137   4.212 -0.3754  0.0135 -0.1463
  312DG     H13 7166   1.896   4.803   4.610 -0.0516  0.5968 -2.4165
  312DG     H14 7167   1.841   4.954   4.564  0.2176  0.5423 -0.8763
  312DG     H15 7168   2.071   5.237   4.226  2.1684 -2.9066  0.2537
  312DG     H16 7169   2.079   5.093   4.122  0.1349 -0.4639  1.1076
  312DG     C17 7170   2.003   4.861   4.446 -0.5855 -0.0084 -0.0314
  312DG     C18 7171   2.075   5.057   4.338  0.2137  0.6441  1.2271
  312DG     O19 7172   1.999   4.936   4.333 -0.2628  0.1043  0.1552
  312DG     H20 7173   2.030   4.756   4.411  2.2808 -3.3079 -1.3820
  312DG     H21 7174   2.087   4.891   4.512  1.2949 -3.4995  0.2045
  312DG     H22 7175   2.183   5.035   4.337  1.4702 -0.0464  3.1718
  312DG     H23 7176   2.054   5.111   4.429  1.1662 -0.0002 -1.2655
  313DG      C1 7177   0.934   2.668   0.938 -0.1013  0.1589  0.0252
  313DG      C2 7178   1.063   3.209   0.342 -0.2387  0.5044  0.3467
  313DG      H3 7179   0.924   2.605   0.846 -0.4562 -2.1593 -0.5306
  313DG      H4 7180   0.852   2.659   1.000  1.7555  0.8038  1.5601
  313DG      H5 7181   1.021   2.639   0.995 -1.8188  1.0330 -5.8331
  313DG      H6 7182   1.132   3.285   0.300 -1.4922 -1.6883 -2.5785
  313DG      H7 7183   1.031   3.151   0.255  1.0593 -2.0381 -0.1163
  313DG      H8 7184   0.985   3.273   0.381 -2.5859 -0.8833 -0.7511
  313DG      O9 7185   0.964   2.799   0.911  0.0591  0.1492 -0.6158
  313DG     O10 7186   1.122   3.134   0.442 -0.5403 -0.2573 -0.0411
  313DG     C11 7187   1.046   2.818   0.796 -0.4487  0.5672 -0.1350
  313DG     C12 7188   1.189   3.198   0.552  0.0809 -1.1710  0.0526
  313DG     H13 7189   0.976   2.816   0.711  1.1792  1.2710  0.6925
  313DG     H14 7190   1.114   2.733   0.785  1.2813 -0.7084  2.5565
  313DG     H15 7191   1.129   3.265   0.611  1.9587 -0.3039  2.0944
  313DG     H16 7192   1.261   3.272   0.512 -0.5185  2.3559 -2.4683
  313DG     C17 7193   1.111   2.960   0.783 -0.0903  0.2877  0.0645
  313DG     C18 7194   1.260   3.101   0.646  0.4420  0.8900  0.1256
  313DG     O19 7195   1.175   2.983   0.657 -0.2515 -0.0862 -0.1142
  313DG     H20 7196   1.188   2.965   0.861  1.1960  0.0216  0.1504
  313DG     H21 7197   1.047   3.044   0.805 -0.3147  2.1377 -1.8046
  313DG     H22 7198   1.355   3.070   0.607  0.4001 -1.6448  0.1284
  313DG     H23 7199   1.278   3.147   0.743  0.4262 -2.1480 -0.4439
  314DG      C1 7200   2.998   1.869   3.562 -0.0187 -0.2286 -0.1859
  314DG      C2 7201   3.378   1.972   4.093  0.5546 -0.6636  0.5396
  314DG      H3 7202   3.017   1.977   3.540  1.2563  0.6876  0.6808
  314DG      H4 7203   2.911   1.830   3.503  0.4983  0.5252 -2.4883
  314DG      H5 7204   3.084   1.810   3.528 -2.6608  2.2924 -0.8040
  314DG      H6 7205   3.381   2.077   4.114  1.1311 -0.9105 -1.9586
  314DG      H7 7206   3.398   1.920   4.187  1.7367 -2.2727  0.9592
  314DG      H8 7207   3.449   1.959   4.016  0.5506 -1.2915 -0.4339
  314DG      O9 7208   2.979   1.864   3.702 -0.3781  0.1032  0.0383
  314DG     O10 7209   3.248   1.941   4.052 -0.0613 -0.1048 -0.5184
  314DG     C11 7210   2.867   1.940   3.751  0.6252  0.6506 -0.6365
  314DG     C12 7211   3.151   1.958   4.145 -0.0757 -0.5482 -0.1705
  314DG     H13 7212   2.766   1.916   3.712  0.7745 -0.8239 -1.0505
  314DG     H14 7213   2.890   2.048   3.737  1.7943 -1.0906  0.0544
  314DG     H15 7214   3.148   2.061   4.161  0.0600 -2.4769  0.6188
  314DG     H16 7215   3.180   1.918   4.243  3.9440  1.4790  1.3074
  314DG     C17 7216   2.858   1.913   3.903  0.5460 -0.1053  0.2606
  314DG     C18 7217   3.023   1.899   4.078 -0.6619 -0.6696 -0.2012
  314DG     O19 7218   2.975   1.970   3.956 -0.3712 -0.0279 -0.1321
  314DG     H20 7219   2.850   1.805   3.912 -1.0885  1.0041 -1.5902
  314DG     H21 7220   2.770   1.960   3.941  1.6630  1.8243  0.3317
  314DG     H22 7221   3.043   1.790   4.056  1.9528  2.2595 -2.5866
  314DG     H23 7222   2.939   1.909   4.148  0.9891 -0.4097  1.9671
  315DG      C1 7223   1.337   3.848   2.333  0.2878  0.0606 -0.2402
  315DG      C2 7224   0.708   3.724   2.488 -0.0917  0.1053 -0.8998
  315DG      H3 7225   1.330   3.779   2.254  0.3961  2.1942  0.5723
  315DG      H4 7226   1.377   3.808   2.431  2.6189 -2.2775  0.0596
  315DG      H5 7227   1.397   3.931   2.302 -1.2501 -0.4781 -0.2250
  315DG      H6 7228   0.757   3.656   2.562  2.8644 -0.9846  1.9265
  315DG      H7 7229   0.606   3.748   2.519 -0.1644 -1.3248  2.1093
  315DG      H8 7230   0.710   3.661   2.400  1.1446 -0.0466  0.9438
  315DG      O9 7231   1.204   3.905   2.374  0.0263 -0.5224  0.1498
  315DG     O10 7232   0.783   3.846   2.471  0.3117  0.2192 -0.2701
  315DG     C11 7233   1.231   3.996   2.486  0.1118 -0.5969  0.0105
  315DG     C12 7234   0.760   3.952   2.560  0.5680 -0.5313 -0.0967
  315DG     H13 7235   1.298   4.068   2.447  0.6646 -1.9543 -0.6953
  315DG     H14 7236   1.291   3.953   2.571  1.0824  2.1151 -1.8884
  315DG     H15 7237   0.758   3.906   2.656  0.4306 -0.8884  1.0763
  315DG     H16 7238   0.663   3.988   2.555  0.2094  1.5687 -0.5347
  315DG     C17 7239   1.103   4.072   2.526 -0.2461 -0.4360 -0.4630
  315DG     C18 7240   0.870   4.056   2.541  0.1072 -0.8029 -0.6039
  315DG     O19 7241   0.992   3.984   2.531  0.4188 -0.2884  1.0616
  315DG     H20 7242   1.076   4.147   2.455 -0.8129  1.2878 -1.5361
  315DG     H21 7243   1.116   4.125   2.621  2.3860 -1.0555 -1.1999
  315DG     H22 7244   0.858   4.103   2.445 -0.2042 -0.7328  2.4970
  315DG     H23 7245   0.868   4.137   2.617  0.9948  1.6082  1.0745
  316DG      C1 7246   3.811   0.263   3.365  1.1152  0.0964 -0.0760
  316DG      C2 7247   3.342   0.131   3.179  0.3265  0.3570 -0.2576
  316DG      H3 7248   3.923   0.258   3.378  2.8096  3.3664 -0.2674
  316DG      H4 7249   3.779   0.296   3.460  2.0692 -0.6739  0.8760
  316DG      H5 7250   3.781   0.336   3.289  0.6345 -1.6237 -1.9601
  316DG      H6 7251   3.238   0.082   3.164 -1.8900 -1.3466 -2.8912
  316DG      H7 7252   3.302   0.219   3.234 -1.8255 -2.6909  2.3326
  316DG      H8 7253   3.394   0.156   3.083 -0.7616  2.7253 -1.3908
  316DG      O9 7254   3.769   0.125   3.328  0.2142 -0.6009 -0.0091
  316DG     O10 7255   3.436   0.064   3.264 -0.3656 -0.3655  0.2177
  316DG     C11 7256   3.785   0.044   3.442 -0.2551  0.8087 -0.1558
  316DG     C12 7257   3.383  -0.044   3.329 -0.0627  0.1756  0.2729
  316DG     H13 7258   3.719   0.048   3.531 -0.2968 -1.9356  2.3826
  316DG     H14 7259   3.885   0.052   3.493  2.1750 -1.7311 -0.9346
  316DG     H15 7260   3.345  -0.123   3.264  0.5218 -0.4663 -0.9025
  316DG     H16 7261   3.302  -0.007   3.388  0.4099  0.8102 -4.0165
  316DG     C17 7262   3.756  -0.099   3.391 -0.1911 -0.5775  0.3449
  316DG     C18 7263   3.511  -0.091   3.411 -0.8123  0.3327  0.7532
  316DG     O19 7264   3.624  -0.118   3.335  0.3382 -0.4268  0.5481
  316DG     H20 7265   3.777  -0.163   3.476  2.0092  0.2772 -1.4167
  316DG     H21 7266   3.835  -0.114   3.316  0.0632  0.4360  2.7047
  316DG     H22 7267   3.526  -0.026   3.499 -0.0214 -0.0294 -0.3128
  316DG     H23 7268   3.474  -0.194   3.441 -1.3287 -1.6793  0.9907
  317DG      C1 7269   4.315   3.359   1.614 -0.8512 -0.5481  0.1160
  317DG      C2 7270   4.802   3.720   1.553 -0.0634 -0.1318  0.0576
  317DG      H3 7271   4.301   3.455   1.663 -0.0910 -1.0129 -0.7434
  317DG      H4 7272   4.305   3.277   1.687 -0.8997  0.1608 -0.2323
  317DG      H5 7273   4.246   3.351   1.533  0.9101 -1.2618 -0.7401
  317DG      H6 7274   4.859   3.785   1.488 -0.8317 -1.4708  0.9327
  317DG      H7 7275   4.714   3.775   1.572  1.3880  0.4403 -0.3622
  317DG      H8 7276   4.854   3.702   1.649  1.3262 -2.2573  1.0587
  317DG      O9 7277   4.439   3.359   1.553 -0.2360 -0.1000 -0.1009
  317DG     O10 7278   4.765   3.592   1.499  0.0913  0.8450  0.4433
  317DG     C11 7279   4.478   3.237   1.488  0.0954  0.3474 -0.1699
  317DG     C12 7280   4.870   3.502   1.463  0.0882  0.4613 -0.5839
  317DG     H13 7281   4.394   3.190   1.433 -1.9084 -0.6368  0.2403
  317DG     H14 7282   4.519   3.167   1.552 -1.3770  3.8947 -1.4824
  317DG     H15 7283   4.923   3.472   1.560  2.5810  0.1404 -0.4629
  317DG     H16 7284   4.946   3.556   1.409 -2.6054  1.5303  1.3187
  317DG     C17 7285   4.590   3.273   1.398  0.4389 -0.2717 -0.4343
  317DG     C18 7286   4.806   3.383   1.396 -0.4010 -0.1199 -0.1888
  317DG     O19 7287   4.695   3.336   1.474 -0.1572 -0.0880  0.0566
  317DG     H20 7288   4.551   3.339   1.318 -0.8950  0.9227 -1.9086
  317DG     H21 7289   4.631   3.186   1.353 -1.4717  1.7691  0.1058
  317DG     H22 7290   4.776   3.416   1.296 -2.8881 -0.6959  3.1919
  317DG     H23 7291   4.890   3.312   1.373  1.3930 -1.6133  1.4124
  318DG      C1 7292   4.679   2.749   4.537 -0.4383  0.7618 -0.0605
  318DG      C2 7293   3.965   2.442   4.223 -0.2366  0.0727 -0.4023
  318DG      H3 7294   4.693   2.798   4.445  0.9201  1.0471  5.4498
  318DG      H4 7295   4.742   2.663   4.535  1.1760  0.1761  0.6092
  318DG      H5 7296   4.716   2.823   4.606  0.8790  0.2330 -0.8334
  318DG      H6 7297   4.036   2.438   4.138 -0.3127 -0.0704  2.5441
  318DG      H7 7298   3.876   2.376   4.202  0.8657 -0.2741  0.8323
  318DG      H8 7299   3.923   2.540   4.221  0.2261  0.2932  1.5976
  318DG      O9 7300   4.541   2.730   4.556  0.3806 -0.0634 -0.3529
  318DG     O10 7301   4.031   2.414   4.348 -0.3493 -0.6154 -0.4055
  318DG     C11 7302   4.517   2.622   4.642 -0.5113  0.1054  0.4346
  318DG     C12 7303   4.150   2.495   4.363  0.0174  0.0249 -0.2134
  318DG     H13 7304   4.555   2.650   4.743 -2.2823 -1.2399  1.2034
  318DG     H14 7305   4.569   2.533   4.606 -1.2119  0.9024  2.2452
  318DG     H15 7306   4.134   2.593   4.339  1.1949 -1.0858  1.6181
  318DG     H16 7307   4.222   2.459   4.288 -1.5858 -2.0804  0.9912
  318DG     C17 7308   4.367   2.585   4.650 -1.2569  0.5064 -0.7821
  318DG     C18 7309   4.196   2.484   4.507 -0.0134  0.5067  0.0187
  318DG     O19 7310   4.319   2.555   4.516 -0.2284 -0.4317 -0.0148
  318DG     H20 7311   4.310   2.656   4.708  0.8816 -0.1406  3.1600
  318DG     H21 7312   4.362   2.497   4.707 -0.3164  1.9022 -0.6064
  318DG     H22 7313   4.119   2.530   4.571 -3.4964  0.7259  2.0594
  318DG     H23 7314   4.205   2.383   4.537  0.1926  0.3138 -0.2389
  319DG      C1 7315   2.337   4.312   0.991  0.0287 -0.0397  0.4056
  319DG      C2 7316   1.858   3.826   0.810 -0.6177 -0.1086  0.1710
  319DG      H3 7317   2.364   4.412   1.029  0.6444  0.1762 -0.7927
  319DG      H4 7318   2.410   4.286   0.907  1.8450  0.7011 -0.8163
  319DG      H5 7319   2.366   4.233   1.066 -2.2865 -0.1794 -0.1195
  319DG      H6 7320   1.922   3.763   0.742 -1.5136 -0.6149 -1.3819
  319DG      H7 7321   1.856   3.761   0.900 -3.9370  0.4929  0.7755
  319DG      H8 7322   1.753   3.821   0.779  1.5395  2.8379  0.1468
  319DG      O9 7323   2.203   4.318   0.959 -0.1891  0.0410 -0.0167
  319DG     O10 7324   1.898   3.955   0.846  0.6483  0.4202 -0.2843
  319DG     C11 7325   2.124   4.330   1.077  0.9760 -0.3452  0.2417
  319DG     C12 7326   1.801   4.009   0.930 -0.7482  0.0541 -0.6248
  319DG     H13 7327   2.143   4.424   1.129 -4.0484 -1.5906  2.2542
  319DG     H14 7328   2.145   4.250   1.145 -1.7659  0.4892  0.6387
  319DG     H15 7329   1.812   3.959   1.026  0.3258 -3.3440 -0.1401
  319DG     H16 7330   1.698   3.994   0.902 -1.8624  1.7687  0.8307
  319DG     C17 7331   1.980   4.313   1.038  0.3335  0.0443 -0.4769
  319DG     C18 7332   1.817   4.157   0.952 -0.8653  0.6549 -0.2320
  319DG     O19 7333   1.955   4.177   0.996  0.1904 -0.1039  0.1329
  319DG     H20 7334   1.953   4.384   0.958  0.4616  0.7147 -2.3358
  319DG     H21 7335   1.904   4.333   1.126  1.1292  0.1251  1.8564
  319DG     H22 7336   1.798   4.195   0.855 -1.5707 -1.3102  2.4045
  319DG     H23 7337   1.740   4.200   1.010 -1.0196 -1.6398  0.5857
  320DG      C1 7338   2.153   1.609   3.298 -0.5816  0.0257  0.0571
  320DG      C2 7339   2.752   1.122   3.443  0.1567  0.2350  0.1546
  320DG      H3 7340   2.249   1.612   3.256  0.6013 -0.7563 -1.8050
  320DG      H4 7341   2.139   1.710   3.339  0.8091  2.6052 -1.4487
  320DG      H5 7342   2.084   1.594   3.215 -0.8435  0.9592  0.3421
  320DG      H6 7343   2.828   1.189   3.485  0.1452 -1.4360 -1.0888
  320DG      H7 7344   2.763   1.020   3.487 -1.7555 -0.3674  2.4854
  320DG      H8 7345   2.764   1.122   3.329  0.3334  0.6284 -1.3195
  320DG      O9 7346   2.147   1.507   3.395  0.0610 -0.2854  0.0391
  320DG     O10 7347   2.631   1.184   3.486  0.5371  0.6377  0.1941
  320DG     C11 7348   2.274   1.492   3.459  0.3037 -0.2729 -0.1304
  320DG     C12 7349   2.522   1.101   3.440  0.1322 -1.2771  0.7316
  320DG     H13 7350   2.278   1.561   3.540  1.0058 -0.5399  0.1338
  320DG     H14 7351   2.358   1.511   3.387 -0.5214  3.4729 -1.4878
  320DG     H15 7352   2.534   0.998   3.481  0.7021  1.1987  0.6237
  320DG     H16 7353   2.513   1.104   3.333 -1.7957 -0.1834  2.3740
  320DG     C17 7354   2.282   1.356   3.528  0.5042 -0.7173 -0.3539
  320DG     C18 7355   2.389   1.147   3.494  0.2732  0.5432  0.0601
  320DG     O19 7356   2.354   1.273   3.442  0.2967  0.1294 -0.6817
  320DG     H20 7357   2.179   1.317   3.539  1.8541 -0.4301  2.2190
  320DG     H21 7358   2.330   1.357   3.629 -0.8336 -2.1383  0.6746
  320DG     H22 7359   2.311   1.081   3.459  0.7873  0.4299  0.7059
  320DG     H23 7360   2.397   1.149   3.607  0.4950 -0.3864  5.6163
  321DG      C1 7361   5.277   1.710   2.389  0.5579 -0.1538  0.2726
  321DG      C2 7362   4.540   1.662   2.125 -0.2931  0.2789 -0.2379
  321DG      H3 7363   5.350   1.792   2.376 -3.2360 -0.7032 -2.3766
  321DG      H4 7364   5.297   1.628   2.317 -1.4828 -1.1341  1.4363
  321DG      H5 7365   5.306   1.663   2.483 -0.3609  1.4323 -1.8162
  321DG      H6 7366   4.516   1.682   2.024 -0.3890 -2.0313 -0.9614
  321DG      H7 7367   4.596   1.567   2.119  0.0811  0.6254  0.5378
  321DG      H8 7368   4.450   1.652   2.188  1.8178  0.0242 -0.2910
  321DG      O9 7369   5.149   1.771   2.404 -0.5062 -0.8662  0.3372
  321DG     O10 7370   4.633   1.757   2.182 -0.4589 -0.2326 -0.5021
  321DG     C11 7371   5.130   1.863   2.309 -0.2975  0.0167 -0.5979
  321DG     C12 7372   4.668   1.734   2.318 -0.0388 -0.3001  0.0075
  321DG     H13 7373   5.138   1.835   2.207 -0.2580  1.0783  0.4189
  321DG     H14 7374   5.200   1.948   2.335  0.3023  0.8406  1.2339
  321DG     H15 7375   4.719   1.633   2.322  2.0529 -2.8079 -1.4687
  321DG     H16 7376   4.579   1.728   2.387 -0.5149  0.9488  1.6313
  321DG     C17 7377   4.987   1.917   2.328 -0.3036 -0.4076  0.9288
  321DG     C18 7378   4.768   1.834   2.368  0.0686 -0.3000 -0.2464
  321DG     O19 7379   4.885   1.816   2.291  0.0279  0.9514  0.1848
  321DG     H20 7380   4.957   2.011   2.269 -3.1336  0.8986 -3.1243
  321DG     H21 7381   4.985   1.943   2.437  0.9162 -1.4264  1.3431
  321DG     H22 7382   4.732   1.936   2.351 -0.9985  0.8344  1.7653
  321DG     H23 7383   4.783   1.823   2.476  1.0878 -3.1576 -1.8316
  322DG      C1 7384   3.154   2.209   3.550  0.1221 -1.2784  0.0186
  322DG      C2 7385   3.185   1.660   3.830  0.2899 -0.1841 -0.3836
  322DG      H3 7386   3.198   2.306   3.525  0.4140  1.9712 -0.5648
  322DG      H4 7387   3.075   2.235   3.616  0.1078  2.5121 -0.7490
  322DG      H5 7388   3.120   2.147   3.469 -0.1187 -3.0987  0.7797
  322DG      H6 7389   3.155   1.640   3.721  0.4851 -0.4491 -0.3252
  322DG      H7 7390   3.204   1.556   3.873  0.0421 -2.8037  3.3108
  322DG      H8 7391   3.101   1.702   3.878  1.3101  3.6051 -0.8399
  322DG      O9 7392   3.247   2.134   3.627  0.1499  0.4721 -0.1336
  322DG     O10 7393   3.292   1.748   3.823  0.1243 -0.5047 -0.1165
  322DG     C11 7394   3.377   2.125   3.570  0.3908  0.2070  0.3647
  322DG     C12 7395   3.400   1.694   3.751 -0.0345 -0.2184  0.3662
  322DG     H13 7396   3.424   2.216   3.569 -2.0467 -1.3413 -1.8652
  322DG     H14 7397   3.375   2.089   3.471 -1.4742 -0.0492 -1.2265
  322DG     H15 7398   3.365   1.645   3.661  1.2409 -0.8642  0.9026
  322DG     H16 7399   3.452   1.622   3.804 -2.4480  1.9279 -0.0048
  322DG     C17 7400   3.469   2.032   3.656 -0.1857 -0.7632 -0.6086
  322DG     C18 7401   3.483   1.810   3.720  0.2163  0.2018 -0.3945
  322DG     O19 7402   3.400   1.906   3.666 -0.4727 -0.2762  0.3430
  322DG     H20 7403   3.494   2.059   3.761 -3.0971  0.8052  1.3411
  322DG     H21 7404   3.565   2.022   3.601  0.0895  0.5458 -4.2225
  322DG     H22 7405   3.537   1.844   3.811  0.8194  0.8157  0.1417
  322DG     H23 7406   3.556   1.782   3.646  1.4991  0.1447 -0.7901
  323DG      C1 7407   1.974   2.084   1.672 -0.5101  0.2327  0.7500
  323DG      C2 7408   2.091   1.510   1.357 -0.5213  0.1248  0.3879
  323DG      H3 7409   2.068   2.124   1.622 -1.3790 -1.1893  0.5389
  323DG      H4 7410   2.002   2.035   1.767 -1.4678 -0.9787 -0.2358
  323DG      H5 7411   1.920   2.173   1.696  1.1493 -0.8050 -0.9117
  323DG      H6 7412   2.191   1.552   1.344  0.7779 -2.3158  2.6553
  323DG      H7 7413   2.096   1.428   1.430  0.7999  0.7649  0.3658
  323DG      H8 7414   2.070   1.465   1.260 -2.7924 -1.4659 -1.1680
  323DG      O9 7415   1.913   1.995   1.586 -0.7602  0.0427 -0.8756
  323DG     O10 7416   1.989   1.604   1.401 -0.1844 -0.2200 -0.4548
  323DG     C11 7417   1.772   1.982   1.598 -0.1137 -0.7050 -0.0650
  323DG     C12 7418   1.857   1.544   1.397  0.1801  0.5054  0.1226
  323DG     H13 7419   1.707   2.071   1.595  0.5174 -1.8073  2.4684
  323DG     H14 7420   1.760   1.941   1.699  2.5969 -0.1598  3.4610
  323DG     H15 7421   1.833   1.486   1.490 -1.3499 -0.5432 -0.5398
  323DG     H16 7422   1.831   1.468   1.319  0.8658  0.8881 -0.5221
  323DG     C17 7423   1.720   1.885   1.493  0.3523  0.1073  0.1558
  323DG     C18 7424   1.754   1.663   1.402 -0.2730  0.0566  0.3195
  323DG     O19 7425   1.805   1.774   1.483 -0.2723 -0.0504 -0.4121
  323DG     H20 7426   1.721   1.935   1.396  2.6556  0.3465 -0.1947
  323DG     H21 7427   1.618   1.844   1.514 -1.8058 -2.4979 -0.3312
  323DG     H22 7428   1.751   1.707   1.302 -1.2140  1.1852  1.2577
  323DG     H23 7429   1.659   1.621   1.436  1.7684  0.6335 -3.5790
  324DG      C1 7430   4.398   3.054   1.150 -0.2714  0.8528 -0.6688
  324DG      C2 7431   5.047   3.205   0.639  0.1347 -0.3376  0.5914
  324DG      H3 7432   4.424   2.951   1.152 -0.7496  2.1356  1.2482
  324DG      H4 7433   4.293   3.045   1.162  0.6857 -0.7239  2.1412
  324DG      H5 7434   4.453   3.122   1.215  1.2453 -1.7321  0.7367
  324DG      H6 7435   5.060   3.191   0.531  2.0598 -1.4863  0.2204
  324DG      H7 7436   5.125   3.266   0.681  0.9636  0.0670  0.7835
  324DG      H8 7437   5.072   3.113   0.689 -2.7497  0.8075 -0.6597
  324DG      O9 7438   4.414   3.094   1.016 -0.2547  0.4768  0.6856
  324DG     O10 7439   4.914   3.246   0.672  0.3890  0.8037  0.1153
  324DG     C11 7440   4.551   3.106   0.978 -0.7141 -0.2804 -0.4878
  324DG     C12 7441   4.817   3.181   0.595  0.1370  0.0162 -0.6260
  324DG     H13 7442   4.601   3.009   0.994  0.8902  1.2474  1.2755
  324DG     H14 7443   4.601   3.173   1.056 -0.8907  0.0988  1.1841
  324DG     H15 7444   4.843   3.074   0.600  1.1165 -1.4842  0.0211
  324DG     H16 7445   4.811   3.203   0.496 -2.1498 -2.7446  1.0163
  324DG     C17 7446   4.546   3.158   0.839  0.3738  0.9343 -0.2470
  324DG     C18 7447   4.681   3.209   0.654  0.0419  0.2440 -1.0407
  324DG     O19 7448   4.670   3.144   0.781 -0.1277 -0.1698  0.2055
  324DG     H20 7449   4.517   3.264   0.825 -1.3467 -0.1110  0.0640
  324DG     H21 7450   4.481   3.097   0.774 -2.3182  1.6349 -0.6800
  324DG     H22 7451   4.667   3.317   0.675  2.6456  1.7255 -0.1868
  324DG     H23 7452   4.602   3.173   0.584 -0.3893  0.2704 -2.6841
  325DG      C1 7453   3.504   3.226   3.813 -0.5096 -1.1841  0.2057
  325DG      C2 7454   3.489   3.900   3.916 -0.0707  0.9536  0.2171
  325DG      H3 7455   3.585   3.241   3.887  1.7424  2.7038 -3.1949
  325DG      H4 7456   3.515   3.118   3.776  1.4375 -2.5690  0.4883
  325DG      H5 7457   3.408   3.235   3.856  0.3105  0.2584  0.8852
  325DG      H6 7458   3.423   3.888   4.009  1.2317 -1.8914 -2.1435
  325DG      H7 7459   3.600   3.883   3.937 -0.2465  1.8693 -0.2657
  325DG      H8 7460   3.480   4.003   3.879 -0.3194 -0.6355 -0.4592
  325DG      O9 7461   3.507   3.316   3.697 -0.1600  0.4410 -0.7179
  325DG     O10 7462   3.456   3.803   3.819 -0.8773 -0.4149  0.1759
  325DG     C11 7463   3.466   3.442   3.740  0.6548 -0.0194 -0.1650
  325DG     C12 7464   3.523   3.837   3.697  0.6145 -0.2326  0.1962
  325DG     H13 7465   3.537   3.468   3.818  1.9303 -0.7550  0.8972
  325DG     H14 7466   3.363   3.446   3.780 -1.5477  0.9495 -4.6147
  325DG     H15 7467   3.624   3.806   3.694  4.3523  1.1477  0.0096
  325DG     H16 7468   3.529   3.945   3.676  1.9077 -0.0180  2.2496
  325DG     C17 7469   3.490   3.545   3.630  0.1054  0.6711 -0.1730
  325DG     C18 7470   3.429   3.779   3.603 -0.0534  0.8325 -0.3873
  325DG     O19 7471   3.394   3.646   3.637 -0.1351 -0.0505 -0.1149
  325DG     H20 7472   3.478   3.500   3.524  1.7715  0.9697 -2.1188
  325DG     H21 7473   3.593   3.581   3.640 -1.5141  0.6176 -0.9090
  325DG     H22 7474   3.348   3.847   3.612  0.4855  1.9675 -0.0895
  325DG     H23 7475   3.456   3.798   3.501 -0.9838  1.9130  0.6956
  326DG      C1 7476   2.823   4.192   1.837 -0.0470 -0.5399  0.0889
  326DG      C2 7477   3.307   4.610   1.985  0.0894  0.2147  0.7387
  326DG      H3 7478   2.806   4.201   1.730 -0.4028 -3.0767 -0.4239
  326DG      H4 7479   2.770   4.280   1.872 -1.9895 -0.9024 -0.0994
  326DG      H5 7480   2.767   4.100   1.868 -0.6690 -0.8760 -2.9847
  326DG      H6 7481   3.391   4.635   1.913  0.3532 -2.3775  0.0631
  326DG      H7 7482   3.219   4.668   1.946  0.3241  0.1206 -2.6106
  326DG      H8 7483   3.324   4.650   2.084 -1.3643 -1.4788 -2.8350
  326DG      O9 7484   2.961   4.200   1.877 -0.2164 -0.0587 -0.2477
  326DG     O10 7485   3.272   4.471   1.994  0.6262 -0.0908  0.3420
  326DG     C11 7486   3.041   4.089   1.837  0.1537  0.5325  0.7516
  326DG     C12 7487   3.388   4.389   1.983  0.1441  0.6509  0.2792
  326DG     H13 7488   3.055   4.097   1.734  0.7626  0.4637  2.6096
  326DG     H14 7489   2.986   3.997   1.855  0.9811  0.4666  0.9333
  326DG     H15 7490   3.456   4.415   2.068 -0.8062 -2.6294  1.1371
  326DG     H16 7491   3.440   4.408   1.886 -0.8376  1.6684 -1.8652
  326DG     C17 7492   3.173   4.091   1.924 -0.0681 -0.3866 -0.3979
  326DG     C18 7493   3.352   4.241   1.981 -0.4026 -0.4464 -0.6614
  326DG     O19 7494   3.225   4.220   1.929 -0.6405  0.2237  0.2060
  326DG     H20 7495   3.246   4.024   1.880  2.4953  0.6755  1.7577
  326DG     H21 7496   3.143   4.048   2.021 -0.7929  0.2919  1.7248
  326DG     H22 7497   3.422   4.180   1.925 -0.5259  0.8998 -1.8776
  326DG     H23 7498   3.351   4.209   2.085  0.2060 -1.2449  0.1832
  327DG      C1 7499   3.846   3.300   3.772 -0.2726  0.2844 -0.3473
  327DG      C2 7500   3.496   3.489   4.486  0.1962  0.1111  0.2035
  327DG      H3 7501   3.838   3.210   3.835 -0.9890 -2.8125  0.1142
  327DG      H4 7502   3.952   3.314   3.735 -0.4468 -1.3587 -1.5516
  327DG      H5 7503   3.779   3.282   3.692 -0.6307  0.3618  2.3693
  327DG      H6 7504   3.460   3.572   4.558 -1.5603  2.0755  0.2217
  327DG      H7 7505   3.392   3.453   4.446 -2.1325  1.2924  1.1684
  327DG      H8 7506   3.542   3.419   4.555 -1.5696  2.1649 -1.4558
  327DG      O9 7507   3.809   3.417   3.847 -0.2842  0.4485 -0.2978
  327DG     O10 7508   3.583   3.514   4.379  0.2553 -0.2555 -0.0061
  327DG     C11 7509   3.875   3.414   3.978 -0.7170 -0.2556  0.1221
  327DG     C12 7510   3.526   3.593   4.273 -0.4175  0.2119  0.1215
  327DG     H13 7511   3.987   3.408   3.975 -1.0343  0.0377  0.3725
  327DG     H14 7512   3.871   3.320   4.028 -1.8207 -1.6812  0.7654
  327DG     H15 7513   3.485   3.688   4.315  1.3948  0.4958  1.7758
  327DG     H16 7514   3.442   3.538   4.226  0.6482 -1.3207 -1.8520
  327DG     C17 7515   3.830   3.525   4.075  0.1653 -0.2575 -0.5041
  327DG     C18 7516   3.633   3.622   4.162 -0.4163 -0.3264  0.4776
  327DG     O19 7517   3.695   3.502   4.118 -0.2199 -0.9283  0.1032
  327DG     H20 7518   3.841   3.613   4.012  0.2996 -3.5063  1.8203
  327DG     H21 7519   3.893   3.540   4.159  0.8550  0.0974  0.8815
  327DG     H22 7520   3.609   3.676   4.074  0.0499 -0.8407  2.5088
  327DG     H23 7521   3.710   3.690   4.216  0.2021  2.2559  0.9909
  328DG      C1 7522   3.690   0.113   0.496  0.2582 -0.2999  0.1112
  328DG      C2 7523   3.635   0.170   1.307 -0.5764 -0.0011 -0.0500
  328DG      H3 7524   3.685   0.013   0.465 -2.7336 -1.6816  0.4186
  328DG      H4 7525   3.800   0.136   0.502  0.8056  1.8063 -0.1865
  328DG      H5 7526   3.648   0.185   0.420 -0.0329  1.3005  1.5486
  328DG      H6 7527   3.581   0.068   1.309 -0.8809 -2.6830  1.7235
  328DG      H7 7528   3.739   0.162   1.342  0.8749 -0.4973 -2.6871
  328DG      H8 7529   3.582   0.218   1.392  0.9752  0.7639 -0.8973
  328DG      O9 7530   3.606   0.117   0.617  0.4582  0.4795  0.4187
  328DG     O10 7531   3.611   0.246   1.191  0.0895 -0.1263 -0.1161
  328DG     C11 7532   3.588   0.253   0.662 -0.6102  0.2234 -0.2679
  328DG     C12 7533   3.477   0.221   1.139  0.5236  0.0447  0.4179
  328DG     H13 7534   3.553   0.308   0.573  2.8780  0.2728  0.6440
  328DG     H14 7535   3.684   0.300   0.697  0.2536  2.3080  3.3601
  328DG     H15 7536   3.397   0.233   1.209 -1.1804  0.1695 -2.5038
  328DG     H16 7537   3.481   0.114   1.116  1.1642  0.0818  0.6601
  328DG     C17 7538   3.482   0.251   0.776 -0.0083  0.0709 -0.4724
  328DG     C18 7539   3.447   0.281   1.000  0.6626  0.3944 -0.2021
  328DG     O19 7540   3.529   0.221   0.904  0.0545  0.0635  0.4362
  328DG     H20 7541   3.398   0.185   0.749 -1.2314 -0.7123 -0.9146
  328DG     H21 7542   3.442   0.354   0.783 -2.1736  1.0261  0.9833
  328DG     H22 7543   3.338   0.280   0.987  0.2879  1.1949 -1.6576
  328DG     H23 7544   3.484   0.383   1.007  2.1111 -2.4531 -0.4722
  329DG      C1 7545   2.689   1.446   5.086  0.6405  0.2932  0.0788
  329DG      C2 7546   2.480   0.771   5.097  0.8045  0.0757 -0.4817
  329DG      H3 7547   2.627   1.480   5.000 -3.0482  2.9388 -0.8355
  329DG      H4 7548   2.777   1.400   5.047  0.2800  0.0647  2.3550
  329DG      H5 7549   2.723   1.532   5.144  4.1713 -0.1963  0.9155
  329DG      H6 7550   2.552   0.748   5.020 -0.4334 -0.0504  0.1308
  329DG      H7 7551   2.457   0.672   5.147 -1.6286 -1.3853  0.0823
  329DG      H8 7552   2.391   0.812   5.054  0.7454  0.9473  0.0346
  329DG      O9 7553   2.617   1.349   5.167 -0.4116  0.2414 -0.2131
  329DG     O10 7554   2.541   0.861   5.183 -0.0728 -0.4055 -0.3641
  329DG     C11 7555   2.678   1.326   5.290 -0.7259  0.5594 -0.2309
  329DG     C12 7556   2.476   0.875   5.316  0.5475 -0.1445 -0.3249
  329DG     H13 7557   2.676   1.417   5.348  0.8532  0.1527 -0.0223
  329DG     H14 7558   2.778   1.282   5.276 -1.0863 -0.4749 -0.3943
  329DG     H15 7559   2.507   0.790   5.358  0.0679  0.0775 -2.0156
  329DG     H16 7560   2.371   0.879   5.298 -1.9750  1.3521  0.9390
  329DG     C17 7561   2.594   1.237   5.375 -0.8395  0.2677  0.3255
  329DG     C18 7562   2.519   1.006   5.386  0.3061  0.0304 -0.9706
  329DG     O19 7563   2.567   1.115   5.305 -0.5336 -0.0459  0.3146
  329DG     H20 7564   2.503   1.287   5.413  0.3707  0.2865 -0.9344
  329DG     H21 7565   2.653   1.214   5.466  0.1753  1.2722  1.3725
  329DG     H22 7566   2.451   1.042   5.464  2.1804  3.1451  0.9032
  329DG     H23 7567   2.602   0.979   5.450 -3.1722 -1.7626 -0.7423
  330DG      C1 7568   4.549   1.891   3.917 -0.6852  0.1957  0.7875
  330DG      C2 7569   4.901   1.763   3.352 -0.4994 -0.3112 -0.3496
  330DG      H3 7570   4.562   1.999   3.910  1.8336  0.9132 -1.4976
  330DG      H4 7571   4.641   1.847   3.958 -1.2907  0.4256 -1.3624
  330DG      H5 7572   4.461   1.871   3.977  0.1192 -0.0290  3.5210
  330DG      H6 7573   4.920   1.657   3.324  0.9400 -2.1890  0.3850
  330DG      H7 7574   4.922   1.832   3.265  1.5893  0.9612 -0.1771
  330DG      H8 7575   4.969   1.794   3.431 -0.7551 -1.2065  0.6171
  330DG      O9 7576   4.536   1.844   3.778  0.0227  0.1463 -0.4147
  330DG     O10 7577   4.776   1.793   3.402  0.8131 -0.0549 -0.3992
  330DG     C11 7578   4.438   1.921   3.710 -0.6220 -0.2729 -0.4605
  330DG     C12 7579   4.665   1.743   3.318 -0.0036  0.2217  0.6393
  330DG     H13 7580   4.458   2.028   3.709  2.7490  2.5733  3.2714
  330DG     H14 7581   4.342   1.907   3.767  0.1098 -2.8996 -0.0786
  330DG     H15 7582   4.652   1.637   3.290 -2.2081  1.4922  0.9010
  330DG     H16 7583   4.670   1.792   3.217  0.4568 -1.0803  2.0227
  330DG     C17 7584   4.414   1.862   3.565  0.5293  0.6772  0.5971
  330DG     C18 7585   4.539   1.804   3.375 -0.1947  0.1728 -0.0978
  330DG     O19 7586   4.546   1.822   3.516  0.7687  0.8331 -0.4182
  330DG     H20 7587   4.370   1.931   3.495  2.6677 -3.5187  1.9311
  330DG     H21 7588   4.348   1.778   3.570 -0.7691 -0.9969 -1.2119
  330DG     H22 7589   4.518   1.901   3.342 -3.4396 -2.0539  1.8289
  330DG     H23 7590   4.462   1.738   3.345 -0.8131  1.6065 -1.4183
  331DG      C1 7591   5.366   0.141   0.841 -0.3818  0.0318 -0.0761
  331DG      C2 7592   4.807   0.514   0.974 -0.1051  0.1848  0.4299
  331DG      H3 7593   5.417   0.051   0.802 -0.6983  0.6543 -0.2924
  331DG      H4 7594   5.437   0.185   0.909  0.8906  0.2730  3.9678
  331DG      H5 7595   5.334   0.209   0.762  0.2259 -2.2664 -2.2139
  331DG      H6 7596   4.717   0.489   1.032  0.6401  2.4864  0.0327
  331DG      H7 7597   4.877   0.567   1.031  0.7714 -1.9396 -0.5608
  331DG      H8 7598   4.770   0.575   0.895  1.7632  0.6019 -1.7017
  331DG      O9 7599   5.258   0.098   0.919 -0.3961  0.0418 -0.2043
  331DG     O10 7600   4.874   0.402   0.915  0.4828  0.1231  0.1003
  331DG     C11 7601   5.158   0.017   0.859  0.4249  0.2634  0.4089
  331DG     C12 7602   4.978   0.441   0.831 -0.5215 -0.5398  0.0687
  331DG     H13 7603   5.080  -0.011   0.938  0.0193  0.7716  2.6749
  331DG     H14 7604   5.201  -0.076   0.812  0.5790 -0.8062  0.1527
  331DG     H15 7605   5.062   0.465   0.891 -0.4275 -2.1464 -0.9803
  331DG     H16 7606   4.964   0.536   0.775  0.5329 -1.1697 -0.4973
  331DG     C17 7607   5.085   0.095   0.746  0.6015  0.3806 -0.4046
  331DG     C18 7608   5.014   0.325   0.737  0.0041  0.6761 -0.0985
  331DG     O19 7609   5.054   0.213   0.816  0.3368  0.1472  0.0445
  331DG     H20 7610   4.993   0.043   0.712 -0.4997  0.9173 -0.1494
  331DG     H21 7611   5.160   0.121   0.662  3.0478  0.0755 -3.3339
  331DG     H22 7612   4.933   0.295   0.666 -1.5521 -1.5327  1.3619
  331DG     H23 7613   5.105   0.351   0.678  1.2962  0.6883 -0.2967
  332DG      C1 7614   2.054   0.045   4.115  0.0747  0.8000  0.1649
  332DG      C2 7615   2.406   0.250   3.584  0.0528  0.5675  0.1235
  332DG      H3 7616   1.979   0.118   4.146  0.7861  2.9496 -1.6364
  332DG      H4 7617   2.146   0.067   4.173  1.3690  0.3726 -0.5049
  332DG      H5 7618   2.012  -0.044   4.156 -1.6795  0.5860 -1.2762
  332DG      H6 7619   2.467   0.281   3.660 -1.5129  0.9199 -1.1709
  332DG      H7 7620   2.465   0.179   3.529 -0.9368  0.4013 -1.3105
  332DG      H8 7621   2.390   0.336   3.514 -0.2599 -1.1168 -3.8890
  332DG      O9 7622   2.064   0.049   3.970  0.3223  0.2097  0.2927
  332DG     O10 7623   2.287   0.198   3.634  0.6272  0.4445  0.5401
  332DG     C11 7624   1.940   0.015   3.907 -0.1939  0.3561 -0.1545
  332DG     C12 7625   2.202   0.149   3.529 -0.4768  1.1123  0.2826
  332DG     H13 7626   1.874   0.101   3.918 -0.2924 -0.3878 -1.6125
  332DG     H14 7627   1.893  -0.071   3.952 -0.7174 -1.1664 -1.5999
  332DG     H15 7628   2.263   0.108   3.450  0.5880 -2.0870 -0.8318
  332DG     H16 7629   2.137   0.221   3.478 -1.8770 -1.1911  1.9625
  332DG     C17 7630   1.969  -0.017   3.761  0.2594 -0.0347  0.6653
  332DG     C18 7631   2.122   0.032   3.588 -0.4400  0.5237 -0.0120
  332DG     O19 7632   2.063   0.079   3.707  0.3446 -0.2215 -0.4800
  332DG     H20 7633   1.869   0.002   3.711  0.7871  2.6595 -0.5083
  332DG     H21 7634   2.001  -0.116   3.743 -1.6846  1.4193  2.6649
  332DG     H22 7635   2.043   0.002   3.510 -0.1595  1.9334  0.5228
  332DG     H23 7636   2.197  -0.040   3.622  0.8448 -0.2394  0.8082
  333DG      C1 7637   2.717   3.350   3.953  0.3433  0.5679  0.3929
  333DG      C2 7638   3.159   3.821   4.158 -0.2551 -0.1594 -0.8948
  333DG      H3 7639   2.691   3.274   3.883  4.0256  2.8158  0.2280
  333DG      H4 7640   2.637   3.413   3.970  0.6216 -2.0828  3.3025
  333DG      H5 7641   2.740   3.302   4.044 -0.4100  0.5201 -0.0936
  333DG      H6 7642   3.112   3.815   4.257 -1.3266 -0.7030  1.7728
  333DG      H7 7643   3.252   3.758   4.149  2.8915 -0.4980 -1.5944
  333DG      H8 7644   3.188   3.933   4.154  0.8272 -2.6007 -0.1346
  333DG      O9 7645   2.828   3.427   3.906  0.0933 -0.2676 -0.0068
  333DG     O10 7646   3.063   3.800   4.055 -0.0390 -0.3529 -0.7776
  333DG     C11 7647   2.955   3.357   3.912  0.4058 -0.0778  0.7286
  333DG     C12 7648   3.117   3.792   3.924 -0.3134  0.1755 -0.0430
  333DG     H13 7649   2.955   3.253   3.876  0.4655  1.8228  1.5103
  333DG     H14 7650   2.994   3.346   4.019  0.9279 -0.0649  3.2872
  333DG     H15 7651   3.192   3.868   3.884  1.7707 -1.7770  0.7588
  333DG     H16 7652   3.022   3.805   3.866 -1.8200 -2.7397  0.2722
  333DG     C17 7653   3.074   3.439   3.854  0.7655  0.5185 -0.0369
  333DG     C18 7654   3.170   3.648   3.894  0.6109  0.3232 -0.1952
  333DG     O19 7655   3.059   3.564   3.912 -0.1177 -0.5152 -0.2209
  333DG     H20 7656   3.074   3.438   3.746  0.5684 -3.5921 -2.1728
  333DG     H21 7657   3.165   3.387   3.885 -0.4533 -0.0262  0.3901
  333DG     H22 7658   3.189   3.648   3.782  1.5415  0.2853 -2.3696
  333DG     H23 7659   3.253   3.610   3.946 -0.2842 -1.6418  1.5690
  334DG      C1 7660   1.318   1.633   4.402 -0.4789  0.2430 -0.0518
  334DG      C2 7661   1.931   1.214   4.344 -0.0037  0.3782 -0.7339
  334DG      H3 7662   1.358   1.701   4.332 -2.6802 -2.0939  1.4594
  334DG      H4 7663   1.360   1.655   4.500 -1.8635  0.3864 -1.1428
  334DG      H5 7664   1.212   1.649   4.406 -2.0356  0.7081  1.4210
  334DG      H6 7665   1.993   1.211   4.437 -0.1674  0.1240 -1.1327
  334DG      H7 7666   1.934   1.124   4.288 -2.2209  1.7602  0.5121
  334DG      H8 7667   1.969   1.289   4.274  0.1718  0.5097  1.7097
  334DG      O9 7668   1.350   1.495   4.363 -0.1001  0.0467  0.5817
  334DG     O10 7669   1.786   1.234   4.372  0.1348  0.0259  0.4794
  334DG     C11 7670   1.328   1.391   4.456 -0.2125 -0.3372 -0.1042
  334DG     C12 7671   1.710   1.120   4.412  0.1222  0.0379 -0.3845
  334DG     H13 7672   1.222   1.405   4.472  0.9250 -2.2455 -1.0569
  334DG     H14 7673   1.381   1.407   4.542 -1.9538 -1.7471 -0.4600
  334DG     H15 7674   1.771   1.074   4.482  3.4292  0.5728 -0.6505
  334DG     H16 7675   1.697   1.057   4.328  0.4089  0.8590  2.4880
  334DG     C17 7676   1.351   1.246   4.403  0.4564 -0.1586 -0.2215
  334DG     C18 7677   1.563   1.161   4.467 -0.6349  0.2553 -0.3071
  334DG     O19 7678   1.480   1.213   4.362  0.0576 -0.2936  0.1479
  334DG     H20 7679   1.277   1.234   4.320 -1.1418  0.3541 -0.6052
  334DG     H21 7680   1.313   1.180   4.479  0.4418  0.0745 -0.9062
  334DG     H22 7681   1.518   1.075   4.510 -0.4461  1.2758 -2.2661
  334DG     H23 7682   1.574   1.226   4.558  0.0063 -0.3871 -0.2950
  335DG      C1 7683   4.492   0.977   2.997  0.1492 -0.2417 -0.5984
  335DG      C2 7684   4.296   0.173   3.227  0.6017 -0.3261 -0.2933
  335DG      H3 7685   4.549   1.062   2.958  2.5191 -1.0425 -3.8290
  335DG      H4 7686   4.529   0.979   3.094  1.0516  0.5241  1.8210
  335DG      H5 7687   4.387   0.995   3.014  0.0552 -0.8350 -2.7003
  335DG      H6 7688   4.386   0.122   3.240  1.2565  0.3764 -0.7415
  335DG      H7 7689   4.258   0.187   3.330  1.5031 -0.2528  1.9239
  335DG      H8 7690   4.223   0.112   3.172  0.6061 -2.6786 -2.4392
  335DG      O9 7691   4.521   0.845   2.941 -0.3597  0.2617 -0.8769
  335DG     O10 7692   4.313   0.299   3.161  0.2336 -0.2367 -0.1521
  335DG     C11 7693   4.436   0.741   2.988  0.5233  0.4262 -0.8991
  335DG     C12 7694   4.354   0.273   3.025  0.2755 -0.0306  0.0919
  335DG     H13 7695   4.327   0.759   2.964 -2.7817  1.1269 -1.1962
  335DG     H14 7696   4.447   0.746   3.097  0.5367  1.4411 -2.6830
  335DG     H15 7697   4.272   0.298   2.950 -0.6428 -1.4818 -0.1306
  335DG     H16 7698   4.393   0.175   3.006  0.6232  0.5762 -0.7893
  335DG     C17 7699   4.488   0.607   2.934 -0.0009  0.4178  0.3345
  335DG     C18 7700   4.465   0.378   2.990  0.4454 -0.0475  0.1355
  335DG     O19 7701   4.404   0.508   2.987  0.8033  0.7230 -0.1830
  335DG     H20 7702   4.595   0.580   2.942  1.0259  0.0229 -1.5390
  335DG     H21 7703   4.471   0.624   2.829 -0.2069  0.5221  0.9312
  335DG     H22 7704   4.544   0.381   3.065  0.4378 -3.5188  0.4142
  335DG     H23 7705   4.503   0.349   2.901 -1.5463  0.4431  3.6047
  336DG      C1 7706   2.954   4.744   0.297 -0.1966 -0.2982  0.0186
  336DG      C2 7707   2.943   4.750  -0.332  0.5081 -0.0166 -0.1792
  336DG      H3 7708   2.954   4.831   0.238  1.5145 -0.3129  1.1697
  336DG      H4 7709   2.990   4.766   0.402  0.4537  2.1730  2.7509
  336DG      H5 7710   2.851   4.713   0.306  1.3160  1.1730 -0.4459
  336DG      H6 7711   2.962   4.859  -0.349  2.7572 -2.2414 -1.1873
  336DG      H7 7712   2.959   4.695  -0.427 -2.8928  2.5759 -0.1464
  336DG      H8 7713   2.842   4.726  -0.311  2.1844 -0.6906 -0.5877
  336DG      O9 7714   3.037   4.660   0.216 -0.2132  0.0280  0.3662
  336DG     O10 7715   3.030   4.708  -0.227  0.0525 -0.2099 -0.6586
  336DG     C11 7716   3.176   4.684   0.226 -1.3954  0.0397 -0.2397
  336DG     C12 7717   3.169   4.726  -0.253 -0.5863  0.2404 -0.3260
  336DG     H13 7718   3.221   4.639   0.313 -0.3365 -0.4331 -0.5331
  336DG     H14 7719   3.190   4.791   0.230  0.1197 -0.5196 -2.6964
  336DG     H15 7720   3.192   4.836  -0.256 -1.7919 -1.8072  2.2936
  336DG     H16 7721   3.212   4.678  -0.341 -0.2570  1.2321 -1.3231
  336DG     C17 7722   3.250   4.627   0.102 -0.4343 -0.2403  0.5064
  336DG     C18 7723   3.256   4.660  -0.141  0.1416  0.1122  0.4165
  336DG     O19 7724   3.197   4.689  -0.014 -0.0317  0.3027 -0.2843
  336DG     H20 7725   3.224   4.521   0.101  0.0520 -0.7996  0.2192
  336DG     H21 7726   3.362   4.638   0.102  2.2630  1.8938 -3.5387
  336DG     H22 7727   3.244   4.556  -0.145  0.4783  3.8422  0.4771
  336DG     H23 7728   3.359   4.694  -0.128  1.2844 -0.3529  3.0938
  337DG      C1 7729   1.038   0.982   4.646 -0.5509 -1.1824 -0.2934
  337DG      C2 7730   1.731   0.724   4.462 -0.2672  0.0984 -0.1544
  337DG      H3 7731   1.057   1.073   4.587 -1.0735  0.5083 -0.2584
  337DG      H4 7732   0.990   1.005   4.741  2.0037  0.3515 -1.8744
  337DG      H5 7733   0.971   0.915   4.595  1.2781  1.4423 -2.8912
  337DG      H6 7734   1.810   0.658   4.482 -0.8855 -0.7473  0.5881
  337DG      H7 7735   1.676   0.671   4.382 -1.5034 -1.9948  0.3816
  337DG      H8 7736   1.772   0.816   4.426  0.5575  1.3235  1.2854
  337DG      O9 7737   1.168   0.939   4.679 -0.0813 -0.8052 -0.1095
  337DG     O10 7738   1.651   0.751   4.569 -0.2396 -0.1093 -0.3451
  337DG     C11 7739   1.178   0.832   4.781  0.5941  0.0062 -0.0962
  337DG     C12 7740   1.570   0.636   4.610 -0.9140 -0.1341 -0.6210
  337DG     H13 7741   1.134   0.739   4.746 -0.8512  0.2589  0.1196
  337DG     H14 7742   1.110   0.863   4.856 -0.2200  0.9252  1.2393
  337DG     H15 7743   1.625   0.545   4.630 -0.2222 -0.0566 -2.3627
  337DG     H16 7744   1.495   0.615   4.534 -2.0667 -2.6231 -3.0094
  337DG     C17 7745   1.323   0.813   4.834  0.4049 -0.0789  0.3041
  337DG     C18 7746   1.495   0.672   4.737  0.6813  0.2926 -0.3118
  337DG     O19 7747   1.416   0.790   4.725  0.6868 -0.5383 -0.5399
  337DG     H20 7748   1.330   0.746   4.915 -0.5045  2.4170  0.3891
  337DG     H21 7749   1.332   0.905   4.874 -0.3719 -0.3543  0.5616
  337DG     H22 7750   1.444   0.585   4.773 -0.3311 -0.7178 -2.3184
  337DG     H23 7751   1.573   0.708   4.806 -0.0258 -0.8426  0.4772
  338DG      C1 7752   0.656   0.941   3.681 -0.1541 -0.3147  0.0673
  338DG      C2 7753   1.310   0.666   3.351  0.4579  0.4289  0.0457
  338DG      H3 7754   0.600   1.030   3.655 -1.1968 -1.2611  2.4609
  338DG      H4 7755   0.649   0.931   3.789 -0.8868  0.0036 -0.1465
  338DG      H5 7756   0.619   0.858   3.633  2.2602  1.9839  0.0385
  338DG      H6 7757   1.358   0.710   3.256  2.0250  0.3532 -1.1265
  338DG      H7 7758   1.376   0.653   3.429 -3.7707 -0.8449  1.6184
  338DG      H8 7759   1.265   0.569   3.330 -0.0914  4.3826 -1.1559
  338DG      O9 7760   0.793   0.974   3.645  0.1672 -0.0935 -0.1244
  338DG     O10 7761   1.222   0.776   3.377  0.3419 -0.4553  0.6751
  338DG     C11 7762   0.887   0.868   3.655 -1.2571 -0.5110  0.0648
  338DG     C12 7763   1.275   0.891   3.432 -0.1901 -0.2280 -0.4803
  338DG     H13 7764   0.870   0.796   3.572 -0.8884 -0.2894 -0.6606
  338DG     H14 7765   0.865   0.815   3.753 -0.4379  1.0197 -0.2300
  338DG     H15 7766   1.365   0.918   3.374  0.4031 -0.2979 -0.1088
  338DG     H16 7767   1.317   0.872   3.532 -0.6150  0.3741 -2.5396
  338DG     C17 7768   1.037   0.912   3.624 -0.4064  0.2690 -1.1218
  338DG     C18 7769   1.166   1.000   3.445  0.6565 -0.1024  0.6822
  338DG     O19 7770   1.045   0.941   3.483  0.0872 -0.0301 -0.2111
  338DG     H20 7771   1.095   0.819   3.645  1.7909 -2.6722 -1.2644
  338DG     H21 7772   1.075   0.995   3.688  2.4721 -0.2648 -0.5311
  338DG     H22 7773   1.188   1.084   3.510 -1.0545 -2.9477  2.1830
  338DG     H23 7774   1.158   1.043   3.346  0.2488  0.9173 -2.3501
  339DG      C1 7775   1.179   3.020   5.205  0.0295  0.3563  0.3966
  339DG      C2 7776   1.388   3.445   4.590 -0.6147 -0.3300 -0.5313
  339DG      H3 7777   1.167   2.933   5.135  1.6007  0.2946 -2.4825
  339DG      H4 7778   1.106   3.023   5.289 -1.2046  1.8300 -2.2643
  339DG      H5 7779   1.278   3.018   5.250  0.0147  2.4976 -0.7372
  339DG      H6 7780   1.448   3.533   4.620 -0.7492  0.0024 -0.6996
  339DG      H7 7781   1.439   3.362   4.635 -0.1386 -0.1854  1.0256
  339DG      H8 7782   1.394   3.431   4.483  2.6452  1.1898  2.4002
  339DG      O9 7783   1.184   3.144   5.138 -0.9165 -0.1194  0.4791
  339DG     O10 7784   1.262   3.441   4.658 -0.0767 -0.4306  0.2459
  339DG     C11 7785   1.066   3.149   5.047  0.0912 -0.5640  0.3296
  339DG     C12 7786   1.270   3.508   4.785 -0.6500  0.5337 -0.6165
  339DG     H13 7787   0.979   3.115   5.102 -2.7291 -0.2942 -3.3282
  339DG     H14 7788   1.077   3.086   4.963  0.0985  1.5835  1.7432
  339DG     H15 7789   1.294   3.608   4.769  0.5069 -0.8308 -1.1571
  339DG     H16 7790   1.355   3.475   4.845  2.8873  2.2590  1.1075
  339DG     C17 7791   1.037   3.300   5.009 -0.0493 -0.0539 -0.1696
  339DG     C18 7792   1.145   3.479   4.875 -0.1634  0.6311  0.1750
  339DG     O19 7793   1.155   3.349   4.940 -0.4573 -0.5461  0.2971
  339DG     H20 7794   1.007   3.352   5.097 -0.9811 -0.4882 -2.9549
  339DG     H21 7795   0.956   3.298   4.939 -1.0911  0.0818  2.2811
  339DG     H22 7796   1.147   3.532   4.976 -0.8888 -0.6338 -0.4047
  339DG     H23 7797   1.058   3.481   4.820  1.7536 -1.0976  2.8732
  340DG      C1 7798   2.488   2.971   1.380  0.1059 -0.8614  0.6856
  340DG      C2 7799   3.135   2.775   1.710  0.1192  0.1222 -0.4686
  340DG      H3 7800   2.535   3.059   1.335  0.4123 -1.5798  0.1956
  340DG      H4 7801   2.381   3.001   1.380 -3.4026 -1.5154 -2.2781
  340DG      H5 7802   2.513   2.895   1.308  1.5938  0.8304  2.0064
  340DG      H6 7803   3.227   2.787   1.776  1.4328  0.0926 -1.6126
  340DG      H7 7804   3.104   2.670   1.729  1.2064 -0.8032  0.2995
  340DG      H8 7805   3.167   2.777   1.605  1.5278  1.0123 -0.5246
  340DG      O9 7806   2.544   2.945   1.505 -0.0729 -0.3376 -0.1970
  340DG     O10 7807   3.024   2.855   1.729  0.1123 -0.1502 -0.0227
  340DG     C11 7808   2.541   3.061   1.589 -0.4523 -0.0965  1.0112
  340DG     C12 7809   2.911   2.794   1.790 -0.1495  0.2916  0.3545
  340DG     H13 7810   2.441   3.103   1.603 -1.0777 -0.8193  1.4088
  340DG     H14 7811   2.603   3.136   1.542 -2.5098 -0.7848 -0.5226
  340DG     H15 7812   2.932   2.750   1.884 -0.9657 -0.7500 -1.2837
  340DG     H16 7813   2.870   2.716   1.729  0.2891 -1.9183 -0.4611
  340DG     C17 7814   2.611   3.011   1.718 -0.0161  0.4376 -0.7034
  340DG     C18 7815   2.798   2.889   1.823  0.8976  0.6515 -0.2874
  340DG     O19 7816   2.720   2.915   1.704 -0.8286  0.4495 -0.1076
  340DG     H20 7817   2.526   2.963   1.772  0.0027  0.9794 -1.0631
  340DG     H21 7818   2.636   3.097   1.786 -0.6285  1.7007  2.1836
  340DG     H22 7819   2.719   2.830   1.877 -1.0891  1.8298 -2.4648
  340DG     H23 7820   2.834   2.980   1.870 -0.6328  0.3680  0.4814
  341DG      C1 7821   2.511   4.519   0.748  0.0051  0.3112  0.1086
  341DG      C2 7822   2.089   4.480   0.364  0.8700 -0.3622  0.4582
  341DG      H3 7823   2.444   4.557   0.668 -0.2315  0.4410  0.3764
  341DG      H4 7824   2.593   4.588   0.775 -0.3298  0.3841 -0.8471
  341DG      H5 7825   2.449   4.496   0.832  2.4187 -0.0990 -1.9221
  341DG      H6 7826   2.033   4.472   0.455 -2.1768 -0.0881  0.2716
  341DG      H7 7827   2.138   4.580   0.361 -1.1700  1.3845 -1.1554
  341DG      H8 7828   2.021   4.459   0.282 -1.8669  3.1208  1.4539
  341DG      O9 7829   2.550   4.396   0.711  0.2616  0.0318  0.5386
  341DG     O10 7830   2.188   4.377   0.383 -0.3958  0.2835  0.2242
  341DG     C11 7831   2.623   4.398   0.588 -0.3617  0.3768  0.0032
  341DG     C12 7832   2.275   4.371   0.276 -0.6045  0.9179  0.2920
  341DG     H13 7833   2.727   4.375   0.620  0.9839 -0.0250 -0.0340
  341DG     H14 7834   2.621   4.493   0.531  0.0736 -0.9095  1.0412
  341DG     H15 7835   2.296   4.467   0.242 -1.4302 -0.6234 -1.3160
  341DG     H16 7836   2.220   4.318   0.200  0.7744  0.0045  0.7032
  341DG     C17 7837   2.572   4.300   0.487  0.7150  0.2304  0.4415
  341DG     C18 7838   2.399   4.284   0.319  0.2697 -0.1846  0.0168
  341DG     O19 7839   2.463   4.357   0.419  0.4853 -0.4261 -0.1371
  341DG     H20 7840   2.546   4.203   0.535 -1.1513 -0.4295  2.4861
  341DG     H21 7841   2.649   4.273   0.421  1.0174 -0.2294  0.0078
  341DG     H22 7842   2.365   4.182   0.350  1.3350 -0.2226 -1.4369
  341DG     H23 7843   2.468   4.277   0.239  0.0398  1.3310 -1.0165
  342DG      C1 7844   2.861   1.583   0.884  0.1883 -0.0999  0.7802
  342DG      C2 7845   3.499   1.840   0.862 -0.0869  0.0338  0.4418
  342DG      H3 7846   2.905   1.508   0.815  1.0150  0.1477  0.1175
  342DG      H4 7847   2.807   1.646   0.818  1.2794  0.5768  0.8402
  342DG      H5 7848   2.789   1.541   0.947  1.6684  0.3153 -0.4808
  342DG      H6 7849   3.468   1.866   0.754  0.3549  0.6436 -0.6596
  342DG      H7 7850   3.579   1.904   0.891 -0.5223  0.6557  0.1956
  342DG      H8 7851   3.521   1.734   0.851 -2.0365 -0.1161  0.4015
  342DG      O9 7852   2.963   1.642   0.959 -0.8295 -0.1022  0.5627
  342DG     O10 7853   3.391   1.861   0.949  0.5187  0.3738  0.0881
  342DG     C11 7854   2.921   1.748   1.043  0.2628  0.3077  0.3752
  342DG     C12 7855   3.399   1.818   1.084  0.6623 -0.2451 -0.9865
  342DG     H13 7856   2.833   1.718   1.094  0.3225 -0.3590 -1.3432
  342DG     H14 7857   2.894   1.831   0.985 -1.4732 -2.6363 -1.2994
  342DG     H15 7858   3.477   1.871   1.139 -1.0292 -1.4303 -1.7151
  342DG     H16 7859   3.419   1.712   1.076 -2.7557  2.6773 -1.8946
  342DG     C17 7860   3.033   1.782   1.137  0.5570 -0.5469  0.6271
  342DG     C18 7861   3.268   1.837   1.161  0.1806  0.4608  0.6363
  342DG     O19 7862   3.160   1.807   1.069  0.7694  0.0188  0.0761
  342DG     H20 7863   3.051   1.698   1.206  0.1756  0.4481 -0.6916
  342DG     H21 7864   3.006   1.873   1.192  2.7929  0.3805 -0.1576
  342DG     H22 7865   3.269   1.758   1.234 -1.8802 -1.5632 -3.5613
  342DG     H23 7866   3.268   1.939   1.200 -1.5473 -0.7554  2.3134
  343DG      C1 7867   2.615   0.567   1.276 -0.6557 -0.0051  0.0686
  343DG      C2 7868   1.965   0.265   1.303 -0.6658 -0.5997 -0.3388
  343DG      H3 7869   2.657   0.668   1.257  0.7037  0.1436  2.6307
  343DG      H4 7870   2.691   0.489   1.245 -1.6459 -0.6509 -0.1946
  343DG      H5 7871   2.604   0.569   1.380  2.5635 -2.3292  0.3794
  343DG      H6 7872   1.982   0.219   1.405 -1.0016  0.2790  0.0134
  343DG      H7 7873   1.873   0.218   1.259  0.0998 -0.9330  3.3899
  343DG      H8 7874   2.052   0.224   1.248  3.0467 -0.0856  0.4488
  343DG      O9 7875   2.500   0.527   1.205  0.0628 -0.8124  0.1440
  343DG     O10 7876   1.974   0.404   1.281  0.2973  0.1664 -0.7213
  343DG     C11 7877   2.376   0.606   1.229 -0.0283 -0.3134 -0.5737
  343DG     C12 7878   1.965   0.442   1.146  0.0176 -0.3623  0.4920
  343DG     H13 7879   2.393   0.703   1.199 -0.5511  2.1772  2.3737
  343DG     H14 7880   2.362   0.612   1.341  1.1932  0.4418  1.5495
  343DG     H15 7881   1.863   0.441   1.108  2.5775  0.4149 -2.4616
  343DG     H16 7882   2.018   0.373   1.084 -2.9339  2.2740 -0.1250
  343DG     C17 7883   2.266   0.540   1.159  0.3802 -0.4267  0.8596
  343DG     C18 7884   2.023   0.581   1.113  0.1283  0.0495  0.0584
  343DG     O19 7885   2.141   0.610   1.187  0.1299  0.4301 -0.0609
  343DG     H20 7886   2.252   0.433   1.176 -1.9507  0.4753  1.5122
  343DG     H21 7887   2.283   0.539   1.049 -0.9748 -3.2409 -1.4117
  343DG     H22 7888   2.045   0.576   1.009 -3.4037 -1.5799  1.2473
  343DG     H23 7889   1.953   0.662   1.126 -0.5193 -1.0089 -0.1004
  344DG      C1 7890   4.040   1.585   3.651 -0.0516 -0.0175 -0.3519
  344DG      C2 7891   3.703   1.988   4.412  0.2535  0.1694 -0.2076
  344DG      H3 7892   4.101   1.492   3.641  2.6823  0.5663 -0.1688
  344DG      H4 7893   4.077   1.652   3.573 -1.2306  0.0555  1.8349
  344DG      H5 7894   3.934   1.565   3.634  0.9715  0.1449  1.5455
  344DG      H6 7895   3.601   1.971   4.377 -1.7805 -3.8252 -0.6534
  344DG      H7 7896   3.733   1.902   4.476 -0.2559 -0.4649 -0.9120
  344DG      H8 7897   3.696   2.071   4.476 -0.6829  1.3991  1.6735
  344DG      O9 7898   4.065   1.645   3.778  0.1397 -0.0614  0.2077
  344DG     O10 7899   3.790   2.013   4.302 -0.1816 -0.3783 -0.0469
  344DG     C11 7900   4.020   1.784   3.784 -0.4696 -0.1520  0.0103
  344DG     C12 7901   3.770   1.929   4.190  0.3478  0.2087 -0.1070
  344DG     H13 7902   3.919   1.790   3.734 -2.2918  2.4021 -1.2727
  344DG     H14 7903   4.079   1.836   3.709  0.3764  0.8012 -1.3871
  344DG     H15 7904   3.673   1.934   4.132  1.2453  0.9963  0.8746
  344DG     H16 7905   3.782   1.821   4.215 -0.1738  1.1346 -0.0011
  344DG     C17 7906   4.024   1.867   3.914 -0.3279  0.5618  0.1477
  344DG     C18 7907   3.884   1.962   4.093  1.2894 -0.6001  0.3074
  344DG     O19 7908   3.904   1.858   3.986 -0.4189 -0.3889  0.2850
  344DG     H20 7909   4.056   1.969   3.902 -1.5922 -0.3851  0.5348
  344DG     H21 7910   4.108   1.834   3.974  1.5740 -0.9358 -0.4737
  344DG     H22 7911   3.850   2.055   4.054  1.8304 -0.1725 -1.5423
  344DG     H23 7912   3.969   1.974   4.156 -0.5918 -3.2360  0.1629
  345DG      C1 7913   3.594   5.079   2.433  0.6809  0.3769 -0.1503
  345DG      C2 7914   3.897   4.785   1.946  0.3823 -0.3453 -0.5667
  345DG      H3 7915   3.502   5.119   2.390  1.0583  1.8254  1.1723
  345DG      H4 7916   3.684   5.141   2.424  0.2900 -1.1392  0.4579
  345DG      H5 7917   3.583   5.078   2.543  0.5804  0.3610  1.7817
  345DG      H6 7918   3.971   4.816   1.865 -4.2454  1.8917 -2.0585
  345DG      H7 7919   3.803   4.835   1.917  0.3414  0.2914  2.5096
  345DG      H8 7920   3.939   4.831   2.035  3.1428  1.1894 -0.6054
  345DG      O9 7921   3.627   4.939   2.395 -0.4138 -0.2944  0.4216
  345DG     O10 7922   3.905   4.641   1.953 -0.0845  0.5319  0.3452
  345DG     C11 7923   3.627   4.916   2.256  0.8612  0.5093  0.1500
  345DG     C12 7924   3.846   4.574   2.065  0.2201 -0.3649  0.5893
  345DG     H13 7925   3.722   4.960   2.220  1.2706 -1.3152  1.3960
  345DG     H14 7926   3.542   4.973   2.206 -1.6140  1.4924 -1.0108
  345DG     H15 7927   3.908   4.590   2.151  0.6848  1.1111 -2.4398
  345DG     H16 7928   3.858   4.462   2.056 -0.1265 -1.9321 -1.0997
  345DG     C17 7929   3.619   4.767   2.238 -0.2929  0.2391  0.2978
  345DG     C18 7930   3.689   4.600   2.079 -0.2211 -0.4213 -0.0521
  345DG     O19 7931   3.649   4.735   2.100  0.5282  0.1546 -0.1531
  345DG     H20 7932   3.515   4.728   2.264  1.3073  0.5297 -1.2823
  345DG     H21 7933   3.697   4.720   2.300  0.0924 -0.6066 -1.4304
  345DG     H22 7934   3.623   4.572   1.995 -0.3693  2.5390 -0.9482
  345DG     H23 7935   3.650   4.535   2.157  0.1990 -1.0170 -0.9819
  346DG      C1 7936   4.722   1.386   3.482  0.1423 -0.4967 -0.3435
  346DG      C2 7937   4.954   1.656   3.950 -0.0047  0.4461 -0.0212
  346DG      H3 7938   4.771   1.344   3.570 -0.1997  0.2370  0.7777
  346DG      H4 7939   4.807   1.423   3.423  2.0957 -3.2062 -0.8771
  346DG      H5 7940   4.657   1.318   3.424 -0.4988 -2.8264 -1.4706
  346DG      H6 7941   5.044   1.597   3.938  2.6435  0.8338 -0.3213
  346DG      H7 7942   4.975   1.760   3.911  3.4305 -1.6569 -0.7149
  346DG      H8 7943   4.940   1.673   4.058  1.9883 -2.1052  2.6023
  346DG      O9 7944   4.654   1.505   3.515  0.1318  0.5930 -0.4422
  346DG     O10 7945   4.840   1.593   3.899 -0.2889 -0.1910  0.1856
  346DG     C11 7946   4.532   1.485   3.581 -0.2107 -0.1614  0.4336
  346DG     C12 7947   4.818   1.460   3.934  0.5906 -0.8005 -0.9314
  346DG     H13 7948   4.464   1.438   3.513  0.6494 -1.6533 -0.4099
  346DG     H14 7949   4.492   1.585   3.593 -0.0194 -0.9135 -3.6514
  346DG     H15 7950   4.839   1.445   4.037  1.1401 -0.7605  0.9178
  346DG     H16 7951   4.893   1.399   3.882 -0.7293 -0.6966  2.7443
  346DG     C17 7952   4.534   1.409   3.715 -0.4205 -0.2254 -0.1664
  346DG     C18 7953   4.680   1.405   3.903 -0.0249 -0.4897  0.1217
  346DG     O19 7954   4.645   1.463   3.781  0.7293 -0.0707  0.2367
  346DG     H20 7955   4.546   1.305   3.688  1.4364 -0.1370  1.7292
  346DG     H21 7956   4.444   1.425   3.771  1.9562 -2.2372 -1.2388
  346DG     H22 7957   4.669   1.295   3.896  0.8755 -1.4224  0.0235
  346DG     H23 7958   4.605   1.428   3.976 -0.3828 -0.4931 -4.2064
  347DG      C1 7959   4.824   2.054   4.062  0.3746  0.1183 -0.9321
  347DG      C2 7960   5.267   1.867   3.669  0.4822 -0.5089  0.4499
  347DG      H3 7961   4.767   2.029   3.975  2.3543 -0.9100 -1.8058
  347DG      H4 7962   4.864   2.150   4.051 -0.2197  0.4649 -2.4196
  347DG      H5 7963   4.760   2.051   4.154 -1.7137  0.5942 -0.5892
  347DG      H6 7964   5.363   1.844   3.623 -1.1069 -0.7824 -1.4079
  347DG      H7 7965   5.195   1.832   3.590  0.0748 -1.3724 -0.0409
  347DG      H8 7966   5.270   1.971   3.655 -2.7254 -2.4220  0.9088
  347DG      O9 7967   4.918   1.954   4.076  0.0621  0.2222  0.0305
  347DG     O10 7968   5.245   1.829   3.808  0.2402 -0.0640 -0.1648
  347DG     C11 7969   4.996   1.983   4.189  0.4631  0.0574  0.3059
  347DG     C12 7970   5.354   1.863   3.890 -0.2716 -0.2065 -0.1158
  347DG     H13 7971   4.952   1.941   4.275  1.1171  0.6846  1.1498
  347DG     H14 7972   5.022   2.089   4.199 -0.0363  0.0849 -2.1452
  347DG     H15 7973   5.379   1.963   3.872  1.3667  1.7949 -2.6485
  347DG     H16 7974   5.447   1.804   3.875 -0.9608  1.0833 -2.2625
  347DG     C17 7975   5.127   1.910   4.179 -0.5264  0.3607 -0.0160
  347DG     C18 7976   5.307   1.853   4.033  0.9137  1.2478  0.2167
  347DG     O19 7977   5.190   1.928   4.055 -0.1072  0.1945  0.4975
  347DG     H20 7978   5.107   1.806   4.190  1.2873  1.5809  0.6377
  347DG     H21 7979   5.191   1.937   4.260  0.9709  1.0354  0.5996
  347DG     H22 7980   5.307   1.748   4.070  1.5273  0.5253  0.5002
  347DG     H23 7981   5.377   1.895   4.094 -2.2872  1.3344  0.6124
  348DG      C1 7982   4.102   1.274   3.474  0.5444 -0.2408  0.1823
  348DG      C2 7983   4.705   1.014   3.761 -0.1581 -0.4345  0.3313
  348DG      H3 7984   4.105   1.210   3.383 -2.8042 -0.6094 -0.4087
  348DG      H4 7985   4.160   1.364   3.450  4.2000 -1.1460  0.0417
  348DG      H5 7986   4.001   1.316   3.492 -0.7241 -0.5677 -0.9808
  348DG      H6 7987   4.720   0.905   3.755  3.2954 -0.8528 -2.1194
  348DG      H7 7988   4.758   1.058   3.679  0.5942 -1.5779 -1.5834
  348DG      H8 7989   4.749   1.050   3.855 -0.6696  0.2553  0.9336
  348DG      O9 7990   4.160   1.211   3.583  0.0524 -0.6108 -0.1310
  348DG     O10 7991   4.570   1.061   3.763 -0.2705  0.5220 -0.1812
  348DG     C11 7992   4.103   1.089   3.613 -0.2154  0.4225 -0.1409
  348DG     C12 7993   4.493   1.015   3.870  0.1647 -1.3802  0.4237
  348DG     H13 7994   4.137   1.008   3.551 -0.3050 -0.7654  2.3692
  348DG     H14 7995   3.990   1.092   3.614  0.9806  1.4519 -2.2361
  348DG     H15 7996   4.543   1.050   3.966  0.8762  1.4715 -0.5505
  348DG     H16 7997   4.491   0.910   3.863  0.1662 -0.0243  0.5917
  348DG     C17 7998   4.146   1.045   3.760  0.1674  0.4894  0.0487
  348DG     C18 7999   4.356   1.081   3.861  0.4115 -0.1857  0.7841
  348DG     O19 8000   4.292   1.046   3.742  0.5082  0.0487  0.1630
  348DG     H20 8001   4.101   0.946   3.787  1.6457  0.3756  0.5019
  348DG     H21 8002   4.099   1.123   3.820 -1.6917  0.5411  0.6074
  348DG     H22 8003   4.297   1.059   3.949 -0.3963  0.4478  0.9503
  348DG     H23 8004   4.363   1.192   3.866  0.6274 -0.5006 -1.7424
  349DG      C1 8005   0.626   2.029   3.407 -0.3015  0.8843 -0.0162
  349DG      C2 8006   1.015   2.712   3.705  0.2001 -0.1580  0.0310
  349DG      H3 8007   0.524   2.063   3.407 -0.7588  0.3448 -1.1905
  349DG      H4 8008   0.632   1.935   3.460 -1.5223 -1.9445  1.5510
  349DG      H5 8009   0.659   2.013   3.300 -0.5890 -0.2792 -0.5968
  349DG      H6 8010   0.984   2.782   3.786 -0.0360  0.4855 -1.3176
  349DG      H7 8011   1.122   2.697   3.709  2.0441 -2.3484  1.4150
  349DG      H8 8012   1.000   2.771   3.609  0.0884 -0.7943 -2.0341
  349DG      O9 8013   0.707   2.129   3.467 -0.0481  0.2250  0.1348
  349DG     O10 8014   0.948   2.588   3.712 -0.4491 -0.1228  0.1768
  349DG     C11 8015   0.651   2.177   3.588 -0.1111  0.2723 -0.5686
  349DG     C12 8016   0.995   2.507   3.605 -0.6414 -0.0766 -0.3135
  349DG     H13 8017   0.608   2.094   3.638  4.2683  1.0164  2.2979
  349DG     H14 8018   0.576   2.255   3.579 -0.5213 -0.1536 -0.2445
  349DG     H15 8019   1.106   2.508   3.596  1.2901 -0.1865 -0.0148
  349DG     H16 8020   0.950   2.542   3.514 -0.5989  0.1425 -0.6353
  349DG     C17 8021   0.763   2.231   3.681 -0.5276 -0.2236 -0.0170
  349DG     C18 8022   0.949   2.369   3.639 -0.4823 -0.1687 -0.0114
  349DG     O19 8023   0.818   2.339   3.597 -0.8409 -0.0639 -0.4580
  349DG     H20 8024   0.832   2.141   3.678 -1.2752 -4.5717  3.2945
  349DG     H21 8025   0.726   2.264   3.779 -0.5210  2.0213 -1.4071
  349DG     H22 8026   1.018   2.299   3.580 -0.6671  0.4289 -0.7180
  349DG     H23 8027   0.975   2.360   3.747  1.1271  0.8836  2.2756
  350DG      C1 8028   3.208   4.150   3.755  0.1868  0.6051  0.7879
  350DG      C2 8029   2.985   4.578   3.361 -0.5163  0.7723 -0.7114
  350DG      H3 8030   3.281   4.101   3.814  1.7548 -1.9103 -1.7518
  350DG      H4 8031   3.184   4.089   3.669 -2.2492  1.9009  0.2526
  350DG      H5 8032   3.121   4.172   3.818  0.3373 -2.1119 -0.8879
  350DG      H6 8033   2.959   4.505   3.290  1.8729 -0.0089 -0.6158
  350DG      H7 8034   2.909   4.576   3.435 -3.0048 -0.1828  1.1888
  350DG      H8 8035   2.981   4.677   3.306  0.1363  0.1393 -1.5849
  350DG      O9 8036   3.244   4.279   3.712  0.3809  0.4567  0.3456
  350DG     O10 8037   3.099   4.562   3.434 -0.4149 -0.3293  0.1965
  350DG     C11 8038   3.375   4.279   3.658 -0.0233  0.4142 -1.0665
  350DG     C12 8039   3.212   4.617   3.366  0.5255 -0.5057 -0.4318
  350DG     H13 8040   3.377   4.204   3.577  0.7635  0.0996 -0.5818
  350DG     H14 8041   3.446   4.241   3.734  0.3895 -1.2001  0.0834
  350DG     H15 8042   3.219   4.719   3.339  2.4079  0.1716 -0.6198
  350DG     H16 8043   3.237   4.566   3.276 -1.5363  1.2136  1.1191
  350DG     C17 8044   3.404   4.423   3.611 -0.0874  0.4255  0.0818
  350DG     C18 8045   3.317   4.593   3.468  0.6406 -0.2516  0.1052
  350DG     O19 8046   3.316   4.455   3.506 -0.0083 -0.4453 -0.1278
  350DG     H20 8047   3.501   4.422   3.573 -0.4013 -3.5659  2.8771
  350DG     H21 8048   3.399   4.493   3.696 -0.1286  2.6829  4.2831
  350DG     H22 8049   3.420   4.624   3.430 -0.1576 -3.0085 -2.2245
  350DG     H23 8050   3.304   4.654   3.562  4.3288  3.1648 -1.3163
  351DG      C1 8051   0.336   3.032   1.294 -0.1170 -0.0332  0.9247
  351DG      C2 8052   0.004   3.565   0.993 -0.0087  0.0185 -0.7545
  351DG      H3 8053   0.317   2.956   1.366 -0.5819  1.8976 -1.2835
  351DG      H4 8054   0.435   3.062   1.284 -1.6602 -1.0829  2.4601
  351DG      H5 8055   0.292   2.991   1.204 -3.6285  3.7439 -0.6027
  351DG      H6 8056  -0.062   3.651   1.001 -2.2669 -0.5649  2.2868
  351DG      H7 8057   0.101   3.601   0.971  0.7886  0.3064 -2.4100
  351DG      H8 8058  -0.019   3.512   0.897 -1.7139 -2.1655  1.4776
  351DG      O9 8059   0.252   3.145   1.312 -0.3632 -0.2121 -0.9101
  351DG     O10 8060   0.017   3.489   1.113 -0.0355 -0.1795 -0.4389
  351DG     C11 8061   0.282   3.225   1.428  0.1556  0.0104 -0.1291
  351DG     C12 8062   0.016   3.571   1.228  0.6791 -0.7752  0.6333
  351DG     H13 8063   0.359   3.289   1.408 -1.8874 -1.6638 -0.6690
  351DG     H14 8064   0.297   3.160   1.516  0.7094 -1.1910 -0.3651
  351DG     H15 8065  -0.069   3.641   1.238  0.3098  2.3097  0.4246
  351DG     H16 8066   0.112   3.620   1.229  0.3139  0.0057 -0.6040
  351DG     C17 8067   0.149   3.301   1.453  0.2377 -0.2638 -0.2825
  351DG     C18 8068   0.011   3.468   1.347  0.4541  0.2889 -0.1528
  351DG     O19 8069   0.118   3.372   1.334 -0.5909  0.3072  0.4972
  351DG     H20 8070   0.174   3.370   1.533  2.3279 -0.9467 -0.3952
  351DG     H21 8071   0.072   3.235   1.489 -1.1417 -0.3699  0.6904
  351DG     H22 8072   0.017   3.514   1.443  0.0974 -0.7034  1.3930
  351DG     H23 8073  -0.090   3.422   1.352 -0.4637  1.1769  1.9825
  352DG      C1 8074   3.038   4.990   4.851  0.6356 -0.3173 -0.2194
  352DG      C2 8075   3.746   4.724   5.073  0.4988 -0.3148 -0.1452
  352DG      H3 8076   3.007   4.953   4.950 -1.4216 -1.3938  0.8923
  352DG      H4 8077   3.008   4.908   4.782  1.2003 -1.8003  1.1091
  352DG      H5 8078   2.981   5.076   4.828  2.3971  1.0435 -0.5546
  352DG      H6 8079   3.729   4.740   5.177 -0.5578  0.9824 -1.5216
  352DG      H7 8080   3.728   4.617   5.060  2.5334 -0.7446  1.8901
  352DG      H8 8081   3.852   4.743   5.052 -1.7440  0.7001  0.4604
  352DG      O9 8082   3.177   5.017   4.848 -0.0671 -0.0249  0.0057
  352DG     O10 8083   3.654   4.801   4.997 -0.1282  0.0642  0.1898
  352DG     C11 8084   3.233   5.088   4.954 -0.0647  0.5128  0.0266
  352DG     C12 8085   3.518   4.765   5.026 -0.2626  0.1980 -0.3628
  352DG     H13 8086   3.204   5.043   5.046  0.7245  3.1868 -1.2764
  352DG     H14 8087   3.189   5.184   4.951 -2.5375  1.1166  0.5251
  352DG     H15 8088   3.506   4.770   5.134 -1.1237 -0.9552  0.9341
  352DG     H16 8089   3.489   4.665   5.003 -1.5970  3.9919  0.2950
  352DG     C17 8090   3.389   5.093   4.951  0.2044 -0.1908 -0.2888
  352DG     C18 8091   3.418   4.864   4.970  1.8056 -0.0204 -0.4809
  352DG     O19 8092   3.446   4.990   5.026  0.0146  0.0546 -0.1727
  352DG     H20 8093   3.420   5.184   5.007 -0.1957  3.3742  0.3568
  352DG     H21 8094   3.426   5.108   4.847 -1.0615 -0.6725 -2.3560
  352DG     H22 8095   3.422   4.859   4.860  0.9736 -1.4585  0.0328
  352DG     H23 8096   3.323   4.823   5.000  3.2376  0.2631 -0.7082
  353DG      C1 8097   3.304   3.144   1.828 -0.0356 -0.5267  0.4633
  353DG      C2 8098   2.846   3.132   1.237  0.1673 -0.3015  0.6209
  353DG      H3 8099   3.276   3.047   1.864  0.9850 -2.3464  0.8450
  353DG      H4 8100   3.324   3.188   1.927 -0.8590  0.1017 -1.4237
  353DG      H5 8101   3.393   3.129   1.760  1.1776  0.7578  1.9225
  353DG      H6 8102   2.824   3.038   1.208 -0.2291  0.3336 -0.4417
  353DG      H7 8103   2.759   3.188   1.208  2.9970  1.6775  2.6524
  353DG      H8 8104   2.936   3.178   1.196  1.9584 -0.9017  0.5263
  353DG      O9 8105   3.190   3.215   1.764 -0.3145  0.3962 -0.3390
  353DG     O10 8106   2.846   3.147   1.385 -0.3295  0.0831  0.0749
  353DG     C11 8107   3.074   3.207   1.839  0.6755 -0.1406  0.5661
  353DG     C12 8108   2.850   3.283   1.424 -0.2579 -0.3716 -0.4717
  353DG     H13 8109   3.075   3.250   1.936  2.1231  0.8051 -2.5185
  353DG     H14 8110   3.037   3.107   1.840  2.7583  3.8848  1.2834
  353DG     H15 8111   2.772   3.336   1.370 -0.4116 -1.8988 -0.6016
  353DG     H16 8112   2.944   3.331   1.390  2.0189 -0.7873 -0.1729
  353DG     C17 8113   2.974   3.291   1.760 -0.7207  0.6667  0.1867
  353DG     C18 8114   2.838   3.315   1.573  0.0550 -0.1128  0.1087
  353DG     O19 8115   2.938   3.237   1.633 -0.2596 -0.2219  0.0438
  353DG     H20 8116   3.013   3.382   1.735  0.1522 -3.2065  0.0824
  353DG     H21 8117   2.879   3.317   1.816  0.7098  1.5262  0.3792
  353DG     H22 8118   2.856   3.421   1.583 -2.1811 -1.5444  0.1748
  353DG     H23 8119   2.744   3.289   1.615 -1.4324 -0.5712 -2.4203
  354DG      C1 8120   3.422   4.823   3.088  0.3327 -0.0416  0.2289
  354DG      C2 8121   3.305   4.193   2.865  0.5378  0.5131  0.5708
  354DG      H3 8122   3.321   4.809   3.046 -0.6801 -0.6815  0.8249
  354DG      H4 8123   3.478   4.869   3.011 -1.8552  0.2596  0.4276
  354DG      H5 8124   3.431   4.891   3.167 -1.6674  0.6207 -0.3906
  354DG      H6 8125   3.196   4.228   2.849 -1.8372  1.2126  0.2345
  354DG      H7 8126   3.361   4.188   2.766  0.9021  0.4081  1.8131
  354DG      H8 8127   3.295   4.096   2.908 -0.8050 -2.1822 -1.4784
  354DG      O9 8128   3.471   4.701   3.121  0.6642 -0.5295  0.2957
  354DG     O10 8129   3.378   4.272   2.964  0.0157  0.0113  0.1896
  354DG     C11 8130   3.609   4.675   3.128 -0.1108 -0.4744  0.4720
  354DG     C12 8131   3.519   4.244   2.969 -0.1431  0.4797 -0.6102
  354DG     H13 8132   3.666   4.736   3.202  1.9953 -0.3375 -1.9408
  354DG     H14 8133   3.648   4.709   3.038 -3.5623 -1.2461 -0.3915
  354DG     H15 8134   3.565   4.249   2.869  0.3264 -2.1328 -0.8897
  354DG     H16 8135   3.517   4.142   3.001 -1.3376 -1.0027  0.1712
  354DG     C17 8136   3.630   4.529   3.163  0.3467  0.5408 -0.0769
  354DG     C18 8137   3.581   4.322   3.080  0.5271  1.4712  0.3229
  354DG     O19 8138   3.574   4.464   3.051  0.1862 -0.2381 -0.0876
  354DG     H20 8139   3.579   4.495   3.249 -0.3049 -0.1538 -4.1872
  354DG     H21 8140   3.737   4.501   3.176  1.1734 -2.2747 -0.9284
  354DG     H22 8141   3.520   4.306   3.165  4.1676  1.0345 -0.4642
  354DG     H23 8142   3.676   4.278   3.109  0.9759 -0.4263  0.3824
  355DG      C1 8143   3.316   1.409   1.013 -0.4262  0.1024  0.6551
  355DG      C2 8144   3.561   1.062   0.500 -0.3938 -0.5373 -0.2066
  355DG      H3 8145   3.301   1.328   1.080  2.0276  1.8175  0.2467
  355DG      H4 8146   3.225   1.409   0.950 -0.1158  1.8051 -0.3921
  355DG      H5 8147   3.325   1.501   1.069 -0.1020 -2.7724 -0.9333
  355DG      H6 8148   3.504   0.973   0.536  1.1790 -0.8876  0.9997
  355DG      H7 8149   3.505   1.132   0.431 -1.0606  2.9043 -0.4311
  355DG      H8 8150   3.653   1.031   0.445  2.2869 -0.2917 -0.4932
  355DG      O9 8151   3.436   1.380   0.945  0.2834 -0.2197 -0.0758
  355DG     O10 8152   3.598   1.144   0.604 -0.4037 -0.1636 -0.5312
  355DG     C11 8153   3.551   1.372   1.032 -0.6232  0.1604 -0.5552
  355DG     C12 8154   3.694   1.085   0.695  0.1091  0.6589 -0.2505
  355DG     H13 8155   3.542   1.287   1.107  0.7320 -2.3126  0.6755
  355DG     H14 8156   3.567   1.469   1.082 -2.0689 -0.5297  2.0038
  355DG     H15 8157   3.773   1.033   0.643 -0.7390  0.4493  0.7577
  355DG     H16 8158   3.639   1.006   0.753  0.3502  4.1531 -0.2500
  355DG     C17 8159   3.674   1.353   0.941 -0.2935  0.5272  0.1417
  355DG     C18 8160   3.751   1.200   0.781  0.0412  0.1142 -0.5382
  355DG     O19 8161   3.645   1.234   0.861 -0.6567  0.4026 -0.2497
  355DG     H20 8162   3.761   1.357   1.001 -1.9533  0.5863 -0.9135
  355DG     H21 8163   3.687   1.442   0.871  1.4194  2.5847  1.5200
  355DG     H22 8164   3.831   1.174   0.847 -2.4945 -0.2411 -0.8904
  355DG     H23 8165   3.776   1.286   0.723 -0.0535  1.9092  4.4227
  356DG      C1 8166   0.065   3.616   2.181 -0.0621  0.8336 -0.7126
  356DG      C2 8167   0.647   3.317   2.390  0.2723 -0.4121 -1.0128
  356DG      H3 8168   0.142   3.618   2.102  0.1553  1.6243 -1.4584
  356DG      H4 8169   0.008   3.703   2.179  2.2771 -2.2526 -0.2389
  356DG      H5 8170  -0.019   3.542   2.162  1.0127 -0.9231 -1.7583
  356DG      H6 8171   0.748   3.343   2.349 -1.8529  0.6255 -0.1325
  356DG      H7 8172   0.616   3.221   2.340 -3.3050 -0.3938 -1.5438
  356DG      H8 8173   0.580   3.389   2.331 -0.7737  1.1161 -0.9197
  356DG      O9 8174   0.119   3.606   2.314 -0.2519  0.8438  0.6237
  356DG     O10 8175   0.641   3.323   2.528 -0.2279  0.2960 -0.7653
  356DG     C11 8176   0.197   3.491   2.316 -0.6117  0.7025 -0.4528
  356DG     C12 8177   0.524   3.281   2.590 -0.4916 -0.8580 -0.3851
  356DG     H13 8178   0.275   3.501   2.233 -0.0416 -2.4862 -1.0661
  356DG     H14 8179   0.132   3.404   2.297 -0.1820 -0.1819  1.2235
  356DG     H15 8180   0.563   3.250   2.689  1.1199  3.2455  0.5850
  356DG     H16 8181   0.491   3.187   2.543 -0.6648  1.0709 -1.6233
  356DG     C17 8182   0.258   3.497   2.456 -0.5345  0.1586 -0.2285
  356DG     C18 8183   0.409   3.386   2.601  0.0130  1.3576  0.7215
  356DG     O19 8184   0.359   3.401   2.468 -0.4410 -0.2850  0.0945
  356DG     H20 8185   0.181   3.483   2.532  1.9619  0.2349  2.7786
  356DG     H21 8186   0.313   3.593   2.474  0.2431  2.4750  2.0100
  356DG     H22 8187   0.333   3.343   2.670  0.0937  1.1219 -0.7495
  356DG     H23 8188   0.453   3.482   2.632  2.6855  0.6080  0.3078
  357DG      C1 8189   0.088   4.213   0.595  0.1032  1.0268 -0.4237
  357DG      C2 8190  -0.102   4.809   0.849 -0.1976  0.1470 -0.1473
  357DG      H3 8191   0.059   4.123   0.547  1.5486 -1.5235 -0.7537
  357DG      H4 8192   0.083   4.192   0.700 -2.1295 -1.1193  0.5646
  357DG      H5 8193   0.189   4.257   0.579  1.6884 -2.1905 -1.3564
  357DG      H6 8194  -0.041   4.756   0.923 -0.2811 -1.2828  0.6077
  357DG      H7 8195  -0.050   4.899   0.829 -2.3175  0.7005  3.2762
  357DG      H8 8196  -0.198   4.847   0.889  0.3555  4.4704  1.0234
  357DG      O9 8197  -0.015   4.306   0.576 -0.0319 -0.0994  0.0603
  357DG     O10 8198  -0.100   4.725   0.736  0.2470  0.0704 -0.0334
  357DG     C11 8199   0.008   4.363   0.442 -0.5066 -1.0452  0.5115
  357DG     C12 8200  -0.166   4.768   0.617 -0.4640 -0.7105  0.5491
  357DG     H13 8201  -0.011   4.294   0.357  2.5033  0.0412  1.6527
  357DG     H14 8202   0.117   4.392   0.435  1.6856  1.1080 -0.0618
  357DG     H15 8203  -0.105   4.849   0.571 -2.1992  0.2864  0.5446
  357DG     H16 8204  -0.251   4.816   0.646  2.0646 -1.2484  1.6360
  357DG     C17 8205  -0.088   4.485   0.421 -0.2338  0.8017  0.1560
  357DG     C18 8206  -0.188   4.656   0.526  0.7122  0.3364  0.2285
  357DG     O19 8207  -0.088   4.561   0.533  0.2111  0.0912  0.2148
  357DG     H20 8208  -0.187   4.451   0.379 -0.7210 -0.8257  0.4578
  357DG     H21 8209  -0.051   4.552   0.339  1.8051 -0.6315  1.7312
  357DG     H22 8210  -0.278   4.602   0.547 -0.3913  3.3238  2.1576
  357DG     H23 8211  -0.205   4.696   0.431  4.2325  0.6622 -3.4250
  358DG      C1 8212   4.460   2.467   1.252 -0.6246  0.8002 -0.0345
  358DG      C2 8213   5.197   2.404   1.146  0.4721  0.1511 -0.4227
  358DG      H3 8214   4.462   2.570   1.295 -0.7894  0.2180  2.1411
  358DG      H4 8215   4.384   2.413   1.311 -1.5158  0.1329  1.0969
  358DG      H5 8216   4.431   2.469   1.148  1.7140  0.1053 -0.8920
  358DG      H6 8217   5.244   2.428   1.047  1.4901  1.4952 -0.3817
  358DG      H7 8218   5.192   2.490   1.210 -0.3707  0.2202  0.3964
  358DG      H8 8219   5.266   2.334   1.190  0.6839  0.8972 -2.6765
  358DG      O9 8220   4.585   2.402   1.258 -0.2105  0.0937  0.3586
  358DG     O10 8221   5.078   2.338   1.144 -0.6849 -0.2557 -0.2088
  358DG     C11 8222   4.583   2.275   1.197  0.1170  0.0911  0.7864
  358DG     C12 8223   4.982   2.401   1.060  0.3730 -0.0295 -0.4018
  358DG     H13 8224   4.558   2.292   1.094 -0.1353 -0.7613 -0.1048
  358DG     H14 8225   4.501   2.216   1.232 -0.8575 -2.9470 -2.9411
  358DG     H15 8226   5.007   2.424   0.958  2.4819 -2.4825  0.1848
  358DG     H16 8227   4.953   2.491   1.107 -0.0022  3.4688  2.1525
  358DG     C17 8228   4.714   2.203   1.214 -0.1761  0.5006 -0.3069
  358DG     C18 8229   4.855   2.315   1.059  0.0718  0.3830 -0.3942
  358DG     O19 8230   4.829   2.281   1.192 -0.5211  0.3163 -0.2562
  358DG     H20 8231   4.729   2.117   1.140 -2.1346  1.1789  3.0381
  358DG     H21 8232   4.706   2.167   1.321  0.7713  0.7954  0.4346
  358DG     H22 8233   4.777   2.377   1.019  1.2066  1.6840  1.6140
  358DG     H23 8234   4.869   2.228   0.993  0.2140 -1.0097 -1.8581
  359DG      C1 8235   2.764   3.953   2.750 -0.1078 -0.1096  0.2388
  359DG      C2 8236   3.195   4.212   2.284 -0.2156  0.1766  0.4959
  359DG      H3 8237   2.725   3.892   2.666 -0.7494  0.3846 -0.1213
  359DG      H4 8238   2.699   3.939   2.838  1.7178  0.2680 -0.4081
  359DG      H5 8239   2.866   3.903   2.772  2.2759 -0.5349  0.8115
  359DG      H6 8240   3.178   4.109   2.241 -0.6280 -1.5640 -0.8393
  359DG      H7 8241   3.188   4.288   2.202  1.7867  1.2524  0.6429
  359DG      H8 8242   3.298   4.210   2.318  1.3815  0.0977 -0.3269
  359DG      O9 8243   2.790   4.093   2.714  0.4970 -0.3170 -0.3176
  359DG     O10 8244   3.109   4.228   2.399  0.4362 -0.4456 -0.8156
  359DG     C11 8245   2.835   4.182   2.815  0.6478  0.2280  0.7210
  359DG     C12 8246   3.109   4.357   2.460 -0.3637  0.2950 -0.4677
  359DG     H13 8247   2.923   4.153   2.862 -0.2108 -0.0160 -1.9867
  359DG     H14 8248   2.760   4.194   2.898  2.2783  1.6529  1.5466
  359DG     H15 8249   3.096   4.432   2.378 -1.2590 -1.5480 -0.2120
  359DG     H16 8250   3.198   4.377   2.520 -1.1752 -0.5568  0.0539
  359DG     C17 8251   2.860   4.312   2.748 -0.3964 -0.8016  0.1966
  359DG     C18 8252   2.974   4.364   2.534  0.1679 -0.0983  0.4602
  359DG     O19 8253   2.975   4.288   2.649  0.1526  0.2552 -0.1300
  359DG     H20 8254   2.889   4.388   2.824  0.6254 -1.2213 -1.1020
  359DG     H21 8255   2.772   4.354   2.700  3.5904  0.7800  0.5489
  359DG     H22 8256   2.958   4.466   2.566  3.0335  2.6000  1.0052
  359DG     H23 8257   2.894   4.336   2.472  1.2678  1.8595  1.2450
  360DG      C1 8258   4.512   0.046   0.073 -0.3119  0.3601 -0.5429
  360DG      C2 8259   4.382   0.049  -0.735 -0.1963 -0.1272 -0.0019
  360DG      H3 8260   4.576   0.008   0.160  1.5932  2.0764  1.9718
  360DG      H4 8261   4.435  -0.022   0.040 -1.4011 -2.1216 -3.2629
  360DG      H5 8262   4.486   0.142   0.111 -0.2264  0.7364  0.6424
  360DG      H6 8263   4.312   0.128  -0.742  2.7223 -1.1300  2.2345
  360DG      H7 8264   4.480   0.084  -0.748 -0.9943 -0.6645  0.5322
  360DG      H8 8265   4.357  -0.023  -0.820  0.9858 -2.7271 -0.2534
  360DG      O9 8266   4.616   0.054  -0.033 -0.6720  0.6392 -0.1134
  360DG     O10 8267   4.363  -0.023  -0.613 -0.4584 -0.0775  0.1616
  360DG     C11 8268   4.584   0.145  -0.134 -0.6730 -0.5819  0.1012
  360DG     C12 8269   4.409   0.050  -0.496 -0.3305  0.5252  0.4266
  360DG     H13 8270   4.666   0.157  -0.211  2.3377 -0.4247  1.0496
  360DG     H14 8271   4.587   0.248  -0.094  2.7863  4.2559 -1.0915
  360DG     H15 8272   4.380   0.155  -0.513 -0.6609 -2.0374  0.3116
  360DG     H16 8273   4.518   0.046  -0.499 -1.0605  0.1225  0.3564
  360DG     C17 8274   4.454   0.121  -0.199 -0.3134 -0.3307  0.6370
  360DG     C18 8275   4.351  -0.011  -0.368 -0.3664 -0.0754  0.7616
  360DG     O19 8276   4.433  -0.016  -0.255  0.1369 -0.6914 -0.1017
  360DG     H20 8277   4.435   0.200  -0.278  0.5874  0.8285 -1.0468
  360DG     H21 8278   4.371   0.133  -0.131  1.4529 -0.2536  0.7832
  360DG     H22 8279   4.256   0.040  -0.337 -1.7224 -0.0436  3.0599
  360DG     H23 8280   4.317  -0.112  -0.403  2.1708  0.6766  0.9397
  361DG      C1 8281   3.728   0.939   1.248 -0.2713  0.7292 -0.1048
  361DG      C2 8282   3.699   0.595   0.490 -0.0122  0.6577 -0.0615
  361DG      H3 8283   3.669   0.940   1.337  0.8769  2.3309  1.2520
  361DG      H4 8284   3.711   1.030   1.194  0.3930 -0.8589  0.4288
  361DG      H5 8285   3.828   0.944   1.271 -2.3158  0.8438 -1.4084
  361DG      H6 8286   3.641   0.633   0.403  0.4363  1.3516 -0.5494
  361DG      H7 8287   3.808   0.604   0.469  0.9087 -2.0935  0.9595
  361DG      H8 8288   3.667   0.486   0.501 -0.5716 -0.5316 -0.2561
  361DG      O9 8289   3.694   0.826   1.161 -0.2875  0.2232 -0.5722
  361DG     O10 8290   3.667   0.674   0.605  0.2625  0.3617 -0.7151
  361DG     C11 8291   3.564   0.817   1.113 -0.0187  0.2506  0.4492
  361DG     C12 8292   3.699   0.622   0.730  0.0224  0.1120 -0.4278
  361DG     H13 8293   3.543   0.893   1.040 -1.2984  1.5647 -0.5758
  361DG     H14 8294   3.497   0.822   1.196  0.6116 -2.4457  1.0081
  361DG     H15 8295   3.801   0.599   0.747  0.0882  1.2567 -1.6722
  361DG     H16 8296   3.639   0.534   0.723  0.2710  0.7504  0.6243
  361DG     C17 8297   3.541   0.679   1.049  0.3940 -0.2611 -0.1675
  361DG     C18 8298   3.637   0.719   0.836 -1.0963 -0.7090 -0.6687
  361DG     O19 8299   3.648   0.658   0.964  0.2354 -0.0607  0.1211
  361DG     H20 8300   3.448   0.671   0.994 -1.4932  0.0668 -1.2053
  361DG     H21 8301   3.543   0.595   1.125 -3.7962 -1.9312 -0.4191
  361DG     H22 8302   3.683   0.810   0.848 -1.3651 -1.9586  1.0840
  361DG     H23 8303   3.537   0.743   0.803  1.9680  3.7345 -0.0577
  362DG      C1 8304   4.819   3.182   3.593 -0.2859  0.0963 -0.0864
  362DG      C2 8305   4.819   3.834   3.620 -0.5555  0.3845 -0.6316
  362DG      H3 8306   4.716   3.187   3.534 -1.7180 -1.6643  1.3149
  362DG      H4 8307   4.826   3.078   3.637  0.7586  2.3324  1.2138
  362DG      H5 8308   4.911   3.204   3.532  2.7833  0.2151  1.0460
  362DG      H6 8309   4.921   3.809   3.657  2.1991 -0.9314  1.5761
  362DG      H7 8310   4.826   3.831   3.514  1.1435 -1.8472  2.4330
  362DG      H8 8311   4.791   3.934   3.642  0.1205 -0.0885  0.9762
  362DG      O9 8312   4.816   3.289   3.694  0.6135 -0.2172 -0.2485
  362DG     O10 8313   4.731   3.736   3.675  0.1940  0.0686  0.8411
  362DG     C11 8314   4.939   3.348   3.733  0.8384 -0.6468 -0.1817
  362DG     C12 8315   4.697   3.745   3.808  0.7773 -0.5848 -0.4405
  362DG     H13 8316   4.984   3.393   3.650 -0.9938  0.1603  0.2827
  362DG     H14 8317   5.007   3.270   3.766 -1.3789 -0.7924 -0.5902
  362DG     H15 8318   4.597   3.705   3.811  0.6137  1.6579  0.3480
  362DG     H16 8319   4.687   3.848   3.846 -1.5823  0.8957 -1.6389
  362DG     C17 8320   4.913   3.449   3.844 -0.3237 -0.8214 -0.1399
  362DG     C18 8321   4.796   3.658   3.888 -0.9926  0.0315  0.3732
  362DG     O19 8322   4.811   3.537   3.807  0.5132  0.0986  0.0170
  362DG     H20 8323   4.999   3.511   3.850 -2.1576 -1.6525 -0.8886
  362DG     H21 8324   4.895   3.399   3.938 -0.9407 -1.7801 -1.3858
  362DG     H22 8325   4.887   3.709   3.897 -0.1538  0.8896 -1.7249
  362DG     H23 8326   4.772   3.635   3.991  2.2672  1.6167  0.7132
  363DG      C1 8327   3.351   1.655   0.200 -0.1268  0.2594 -0.2728
  363DG      C2 8328   3.238   1.816   0.601  0.1454  0.0402  0.5055
  363DG      H3 8329   3.372   1.630   0.094  1.4801 -0.6370  0.2148
  363DG      H4 8330   3.421   1.607   0.259 -3.4548  1.0421  0.8812
  363DG      H5 8331   3.371   1.757   0.201  0.5031  2.1582 -1.8828
  363DG      H6 8332   3.252   1.732   0.531  2.6071  2.4882 -1.3629
  363DG      H7 8333   3.325   1.880   0.578  0.8146  1.2393  0.9420
  363DG      H8 8334   3.243   1.787   0.705 -1.7872  1.3373  1.6069
  363DG      O9 8335   3.221   1.644   0.262  0.1513  0.9662  0.1026
  363DG     O10 8336   3.111   1.871   0.574 -0.3551 -0.4187 -0.0289
  363DG     C11 8337   3.115   1.685   0.183 -0.4182  0.3993 -0.2463
  363DG     C12 8338   3.003   1.782   0.604  0.0030 -0.2662  0.3521
  363DG     H13 8339   3.114   1.631   0.092 -1.5267  2.4288  1.9905
  363DG     H14 8340   3.131   1.789   0.167  0.4051  0.3022  1.1710
  363DG     H15 8341   2.918   1.842   0.626  1.0174 -0.2052 -0.2026
  363DG     H16 8342   3.016   1.731   0.698  0.6461  3.0914 -0.2162
  363DG     C17 8343   2.984   1.665   0.260 -0.2287  0.4894 -0.8208
  363DG     C18 8344   2.977   1.677   0.498 -0.0908 -0.6645  1.1491
  363DG     O19 8345   2.982   1.739   0.372 -0.2161  0.2564 -0.1554
  363DG     H20 8346   2.960   1.556   0.275  0.7418  0.6958 -0.1734
  363DG     H21 8347   2.907   1.711   0.207  2.0287 -0.1362  0.3174
  363DG     H22 8348   3.051   1.600   0.508  1.5768  0.2345  1.7224
  363DG     H23 8349   2.879   1.634   0.522 -3.9287 -0.2022  0.9372
  364DG      C1 8350   0.490   1.203   0.974 -0.4419 -0.7738 -0.3468
  364DG      C2 8351  -0.153   1.754   0.982  0.6405 -0.4587 -0.5179
  364DG      H3 8352   0.502   1.110   1.029  0.7028 -1.8124 -2.8145
  364DG      H4 8353   0.590   1.244   0.973  0.6629 -0.7064 -2.1488
  364DG      H5 8354   0.473   1.184   0.864 -0.9768 -2.1468 -1.3353
  364DG      H6 8355  -0.227   1.824   1.036 -2.4388  0.4224 -1.8165
  364DG      H7 8356  -0.060   1.813   0.981  0.0493 -0.5964 -3.7455
  364DG      H8 8357  -0.174   1.738   0.873  2.0553 -1.7415 -1.2098
  364DG      O9 8358   0.397   1.296   1.034 -0.1202  0.0268 -0.4926
  364DG     O10 8359  -0.146   1.634   1.059 -0.1611 -0.2037  0.2276
  364DG     C11 8360   0.404   1.425   0.968 -0.1614  0.6700 -0.6372
  364DG     C12 8361  -0.062   1.536   0.994  0.0949 -0.0221  0.2898
  364DG     H13 8362   0.395   1.418   0.861  0.0551 -0.0494  0.6027
  364DG     H14 8363   0.498   1.483   1.001  0.5952  1.8543  0.3123
  364DG     H15 8364  -0.065   1.527   0.881 -3.1877  1.9922  0.3009
  364DG     H16 8365  -0.083   1.441   1.034  0.5199  4.4145 -0.3495
  364DG     C17 8366   0.301   1.518   1.030 -0.3891  0.4269  0.1231
  364DG     C18 8367   0.075   1.579   1.026 -0.5605  0.2165 -0.0381
  364DG     O19 8368   0.171   1.476   0.996 -0.4283 -0.4665 -0.0643
  364DG     H20 8369   0.318   1.614   0.982 -2.1176 -1.6813 -0.0491
  364DG     H21 8370   0.308   1.517   1.139 -3.2020  0.9343  1.0163
  364DG     H22 8371   0.106   1.663   0.967  2.7758  1.3254  1.2588
  364DG     H23 8372   0.081   1.599   1.137 -0.8700 -0.3047  0.1239
  365DG      C1 8373   0.809   2.653   1.827  1.0007 -0.2458 -0.8039
  365DG      C2 8374   0.734   2.925   2.466 -0.1111 -0.0979  0.4167
  365DG      H3 8375   0.792   2.563   1.757 -0.4681 -2.5352  0.7063
  365DG      H4 8376   0.916   2.669   1.817 -1.3155  1.1984  2.9239
  365DG      H5 8377   0.753   2.749   1.808  1.0416 -2.2703  1.4105
  365DG      H6 8378   0.831   2.886   2.500  1.6971 -0.1648  0.4344
  365DG      H7 8379   0.753   3.034   2.459 -0.6986  3.4092 -0.4858
  365DG      H8 8380   0.657   2.906   2.537  2.2477  1.2783 -0.2289
  365DG      O9 8381   0.793   2.607   1.958 -0.0970  0.5197  0.2491
  365DG     O10 8382   0.693   2.858   2.352  0.3122  0.4001 -0.1148
  365DG     C11 8383   0.660   2.564   1.996 -0.3385 -0.1349  0.3806
  365DG     C12 8384   0.593   2.934   2.286 -0.0057  0.1020  0.2720
  365DG     H13 8385   0.660   2.498   2.088 -2.2735  0.7364  3.5184
  365DG     H14 8386   0.623   2.506   1.911  0.4065 -1.3959 -0.3066
  365DG     H15 8387   0.646   3.015   2.241 -2.0754 -1.5420 -0.2398
  365DG     H16 8388   0.523   2.969   2.351  2.2333 -1.7505 -2.4182
  365DG     C17 8389   0.564   2.679   2.023 -0.5852  0.7939 -0.1151
  365DG     C18 8390   0.516   2.847   2.179  0.1240 -0.4139  0.3389
  365DG     O19 8391   0.610   2.760   2.126 -0.0191  0.3968  0.0595
  365DG     H20 8392   0.465   2.640   2.041 -1.5898 -1.2981 -0.1374
  365DG     H21 8393   0.541   2.741   1.939 -0.6969  0.7543 -0.3535
  365DG     H22 8394   0.434   2.793   2.226  0.5950  0.1876  3.2439
  365DG     H23 8395   0.476   2.917   2.103  1.9174  0.7328  1.2667
  366DG      C1 8396   2.046   5.288   4.700 -0.0734  0.2434  0.4255
  366DG      C2 8397   1.577   5.534   4.136  0.1423  0.3625 -0.2611
  366DG      H3 8398   2.077   5.326   4.803  1.4038 -0.2655 -1.3438
  366DG      H4 8399   2.129   5.318   4.631  2.4220  2.0851 -0.4766
  366DG      H5 8400   2.043   5.181   4.716  0.5399  2.5276  2.7455
  366DG      H6 8401   1.476   5.563   4.154 -0.0691 -0.5000  1.1782
  366DG      H7 8402   1.644   5.602   4.077 -1.0982  0.2050 -0.9242
  366DG      H8 8403   1.576   5.440   4.085  0.2403  2.8971  1.2615
  366DG      O9 8404   1.930   5.344   4.654  0.7512  0.3887 -0.4754
  366DG     O10 8405   1.631   5.514   4.267 -0.2668 -0.1924  0.3144
  366DG     C11 8406   1.861   5.294   4.539 -0.0170  0.4857  0.3622
  366DG     C12 8407   1.683   5.635   4.330  0.2712  0.0890 -0.2368
  366DG     H13 8408   1.823   5.203   4.572 -0.3548  2.0242  2.0441
  366DG     H14 8409   1.921   5.286   4.450  0.5643 -1.2868 -0.0533
  366DG     H15 8410   1.621   5.727   4.313 -0.3835  0.5352 -1.5276
  366DG     H16 8411   1.781   5.648   4.278 -1.5410  1.3525  1.0215
  366DG     C17 8412   1.745   5.387   4.509 -0.9682  0.1931  0.1143
  366DG     C18 8413   1.703   5.612   4.477  0.3523 -0.1098  0.4646
  366DG     O19 8414   1.802   5.520   4.495  0.1157 -0.3049 -0.1313
  366DG     H20 8415   1.663   5.387   4.577 -0.7120 -0.8350  0.2180
  366DG     H21 8416   1.708   5.360   4.408 -0.8318 -2.6502  1.9468
  366DG     H22 8417   1.741   5.703   4.525 -1.3327  1.7736  0.8828
  366DG     H23 8418   1.610   5.596   4.530 -1.5881 -1.9018 -0.9300
  367DG      C1 8419   4.718   3.424   4.277  0.5186  0.1705 -0.1286
  367DG      C2 8420   5.147   3.400   4.973 -0.3982  0.0685  0.3475
  367DG      H3 8421   4.739   3.339   4.210 -3.6428 -1.7690  1.8111
  367DG      H4 8422   4.798   3.498   4.291  3.1633  0.3762 -0.8016
  367DG      H5 8423   4.632   3.479   4.231  1.3912 -0.4946 -1.5931
  367DG      H6 8424   5.109   3.413   5.067 -0.7991 -1.5946 -0.0574
  367DG      H7 8425   5.219   3.323   4.974 -2.0984  0.8070  0.2602
  367DG      H8 8426   5.202   3.493   4.931 -1.6281  1.0286 -0.4613
  367DG      O9 8427   4.682   3.360   4.399  0.9347  0.5464 -0.1666
  367DG     O10 8428   5.042   3.362   4.882  0.0219  0.1588 -0.3045
  367DG     C11 8429   4.798   3.311   4.464  0.4683 -0.1468 -0.4907
  367DG     C12 8430   4.999   3.227   4.895  0.4325  0.0034 -0.7071
  367DG     H13 8431   4.876   3.397   4.468 -0.0141  0.6504  0.3150
  367DG     H14 8432   4.851   3.234   4.410  1.9095  1.0988 -0.0149
  367DG     H15 8433   4.971   3.207   5.000 -2.4481  1.2451  3.1102
  367DG     H16 8434   5.066   3.158   4.844  0.1340  2.2732  0.8095
  367DG     C17 8435   4.767   3.272   4.608  0.0558 -0.3362  0.1339
  367DG     C18 8436   4.868   3.220   4.813 -0.4952  0.0271 -0.7822
  367DG     O19 8437   4.884   3.263   4.684 -0.1537  0.2791  0.9270
  367DG     H20 8438   4.711   3.179   4.610  0.6011  0.7900  0.7591
  367DG     H21 8439   4.708   3.349   4.647  0.9387 -0.9866 -2.2606
  367DG     H22 8440   4.829   3.117   4.798 -1.2626  0.3455 -0.3900
  367DG     H23 8441   4.801   3.298   4.860  0.6741 -0.0286 -2.1656
  368DG      C1 8442   4.446   3.684   1.449 -0.0482 -0.2797  0.4273
  368DG      C2 8443   4.951   3.512   1.856 -0.2481 -0.4050  0.5589
  368DG      H3 8444   4.500   3.602   1.404  1.0210  1.4300  3.4728
  368DG      H4 8445   4.492   3.780   1.414 -0.1916 -2.0591  0.0063
  368DG      H5 8446   4.333   3.677   1.426  1.1523 -1.8157  1.4252
  368DG      H6 8447   5.002   3.604   1.851  3.8503 -0.5634 -2.7472
  368DG      H7 8448   4.991   3.455   1.944  0.5087  1.9066  0.8790
  368DG      H8 8449   4.981   3.460   1.761  1.5276  0.4791 -0.5157
  368DG      O9 8450   4.475   3.653   1.586 -0.0395 -0.3354  0.1998
  368DG     O10 8451   4.808   3.526   1.863 -0.1377 -0.3577  0.4298
  368DG     C11 8452   4.419   3.739   1.681  0.1559 -0.0560  0.3182
  368DG     C12 8453   4.757   3.585   1.978  0.0264  0.9413 -0.1451
  368DG     H13 8454   4.316   3.753   1.662  3.8298 -3.6834  1.1780
  368DG     H14 8455   4.465   3.837   1.675  0.1331 -1.2441  1.2559
  368DG     H15 8456   4.817   3.679   1.996  1.3226 -1.9697  1.7989
  368DG     H16 8457   4.762   3.519   2.063 -2.0912  2.1378 -1.0228
  368DG     C17 8458   4.434   3.692   1.820  0.4371  0.2352 -0.6047
  368DG     C18 8459   4.606   3.622   1.968 -0.4946  0.0639  0.0868
  368DG     O19 8460   4.573   3.659   1.835 -0.0906  0.0680 -0.7872
  368DG     H20 8461   4.377   3.601   1.833 -1.6803  0.6125  0.4690
  368DG     H21 8462   4.398   3.773   1.886  0.0881  1.8619 -0.4635
  368DG     H22 8463   4.551   3.526   1.976 -2.4447  0.4027  1.8334
  368DG     H23 8464   4.581   3.686   2.053 -1.4185 -3.3050  0.2042
  369DG      C1 8465   5.204   4.955   4.490  0.8743  0.2693  0.1785
  369DG      C2 8466   5.591   4.469   4.901  0.9224  0.0585  0.3367
  369DG      H3 8467   5.169   4.881   4.418 -1.5719 -0.8416  0.0591
  369DG      H4 8468   5.300   4.999   4.466 -1.7557 -2.2570  1.2113
  369DG      H5 8469   5.133   5.037   4.492  1.4553  0.5819 -1.4132
  369DG      H6 8470   5.546   4.373   4.873 -0.2620  0.8348 -0.0695
  369DG      H7 8471   5.691   4.460   4.879 -1.7530 -0.2442  0.8646
  369DG      H8 8472   5.580   4.437   5.002 -2.2064 -1.6754 -0.3210
  369DG      O9 8473   5.222   4.901   4.624  0.4288 -0.1259 -0.1156
  369DG     O10 8474   5.508   4.572   4.853  0.7710 -0.6970  0.1694
  369DG     C11 8475   5.113   4.834   4.676 -0.6187 -0.0478 -0.5391
  369DG     C12 8476   5.478   4.682   4.928 -0.9622  0.8899  0.0022
  369DG     H13 8477   5.092   4.749   4.612 -0.5042  1.3669  1.3317
  369DG     H14 8478   5.024   4.899   4.673 -2.7153  0.3081  0.6878
  369DG     H15 8479   5.561   4.740   4.949 -0.2969 -1.2363 -0.4600
  369DG     H16 8480   5.435   4.653   5.021  0.3891 -1.5349  0.5210
  369DG     C17 8481   5.139   4.781   4.817 -0.2881 -0.5976  0.3127
  369DG     C18 8482   5.379   4.778   4.863  0.2360 -0.7658  0.3514
  369DG     O19 8483   5.258   4.707   4.826 -0.3453  0.3273 -0.3492
  369DG     H20 8484   5.053   4.720   4.838 -1.3127  0.0706  0.8218
  369DG     H21 8485   5.142   4.870   4.879 -1.6064 -0.1246 -2.0084
  369DG     H22 8486   5.361   4.860   4.928  0.3140 -3.2979 -1.7543
  369DG     H23 8487   5.420   4.807   4.769 -0.0404 -0.0584 -2.4546
  370DG      C1 8488   1.875   0.617   1.592 -0.4302 -0.5391  0.1310
  370DG      C2 8489   2.391   0.784   1.938  0.6537 -0.3331  0.1540
  370DG      H3 8490   1.794   0.635   1.529  0.3159 -0.0988  2.2086
  370DG      H4 8491   1.844   0.602   1.697  3.2324 -1.8461  1.0730
  370DG      H5 8492   1.930   0.528   1.569 -0.7004  0.3616 -0.3183
  370DG      H6 8493   2.333   0.777   2.031  0.6770 -0.2535 -2.2828
  370DG      H7 8494   2.433   0.692   1.903  1.3892  0.3753 -2.4248
  370DG      H8 8495   2.483   0.840   1.952  4.6661 -0.9035 -1.5448
  370DG      O9 8496   1.963   0.730   1.581  0.0852 -0.4780 -0.0081
  370DG     O10 8497   2.321   0.835   1.826  0.1531  0.2195 -0.2171
  370DG     C11 8498   2.012   0.768   1.453 -0.1663  0.2169 -0.3079
  370DG     C12 8499   2.392   0.839   1.706 -0.1002 -0.4132 -0.2602
  370DG     H13 8500   1.931   0.815   1.397  0.0649 -0.2226 -0.1789
  370DG     H14 8501   2.048   0.682   1.392 -0.7266  1.8196 -0.7028
  370DG     H15 8502   2.436   0.752   1.665  3.1748  0.3839 -1.7131
  370DG     H16 8503   2.473   0.907   1.725  1.8372 -0.9021 -0.7459
  370DG     C17 8504   2.115   0.878   1.466  0.3437  0.2739  0.1431
  370DG     C18 8505   2.311   0.908   1.596 -0.3839  0.0828 -0.8241
  370DG     O19 8506   2.218   0.819   1.547  0.1074 -0.0290 -0.5685
  370DG     H20 8507   2.068   0.966   1.511 -0.8648  2.8176  0.1904
  370DG     H21 8508   2.150   0.892   1.364  0.5949  0.9082 -0.8102
  370DG     H22 8509   2.260   0.995   1.632  1.2376 -1.8313  0.7734
  370DG     H23 8510   2.374   0.933   1.510 -0.2161  0.8613 -2.0805
  371DG      C1 8511   4.587   5.371   1.398  0.6760 -0.5601  0.4355
  371DG      C2 8512   4.069   5.137   1.683 -0.5967  0.1823  0.1804
  371DG      H3 8513   4.511   5.439   1.371  2.3760  2.3845  1.2845
  371DG      H4 8514   4.678   5.392   1.341  0.4850 -1.7409  1.7532
  371DG      H5 8515   4.617   5.397   1.502 -2.6649  2.0936  1.6201
  371DG      H6 8516   3.991   5.067   1.658  1.1075 -0.7240  0.4456
  371DG      H7 8517   4.064   5.131   1.783 -0.7256  3.4106 -2.8221
  371DG      H8 8518   4.056   5.239   1.654  2.4074  2.2884  3.8338
  371DG      O9 8519   4.533   5.243   1.387 -0.1248 -0.1334 -0.0322
  371DG     O10 8520   4.186   5.104   1.621 -0.5517  0.1590  0.0796
  371DG     C11 8521   4.621   5.141   1.420 -0.1879  0.2939 -0.0120
  371DG     C12 8522   4.238   4.978   1.649 -0.3477 -0.1180 -0.2912
  371DG     H13 8523   4.672   5.165   1.518 -0.0391  0.6836  1.1635
  371DG     H14 8524   4.696   5.141   1.345 -3.2763 -0.3782 -1.1615
  371DG     H15 8525   4.159   4.905   1.648  0.2261 -1.3643  0.3794
  371DG     H16 8526   4.284   4.991   1.750  1.2825 -0.0076  0.5875
  371DG     C17 8527   4.535   5.013   1.451  0.2746 -0.3489 -0.1919
  371DG     C18 8528   4.347   4.923   1.559  0.2191  0.3628  0.1982
  371DG     O19 8529   4.418   5.038   1.523 -0.3275  0.1150  0.0048
  371DG     H20 8530   4.604   4.949   1.502 -0.4426 -2.7778  0.3025
  371DG     H21 8531   4.499   4.967   1.353 -0.8819 -3.8886  0.3000
  371DG     H22 8532   4.404   4.850   1.618  1.1811 -0.5666 -1.8977
  371DG     H23 8533   4.297   4.875   1.478 -0.0835  0.6702  0.7381
  372DG      C1 8534   3.762   3.820   4.598 -0.1554  0.1484  0.2607
  372DG      C2 8535   4.194   3.731   5.229 -0.0593  0.0656 -0.2163
  372DG      H3 8536   3.692   3.760   4.529 -0.9301  2.2784 -1.2300
  372DG      H4 8537   3.840   3.855   4.532 -0.7634 -0.2802  0.3347
  372DG      H5 8538   3.710   3.912   4.631 -0.3829  1.1579 -1.4472
  372DG      H6 8539   4.187   3.825   5.284 -0.0464  0.1447 -2.0811
  372DG      H7 8540   4.250   3.665   5.292 -1.1784  4.4341  1.7454
  372DG      H8 8541   4.249   3.761   5.134 -0.4596  2.5105 -0.6292
  372DG      O9 8542   3.813   3.746   4.715 -0.5760  0.1250  0.3720
  372DG     O10 8543   4.065   3.672   5.220  0.6643 -0.0097 -0.3601
  372DG     C11 8544   3.921   3.809   4.787 -0.6214  0.3355 -0.5749
  372DG     C12 8545   4.066   3.575   5.116 -0.1869  0.5678 -0.4775
  372DG     H13 8546   3.920   3.922   4.769 -2.3110  3.0363  0.3892
  372DG     H14 8547   4.021   3.782   4.746 -1.5516  1.1761  1.6508
  372DG     H15 8548   4.073   3.476   5.153 -2.7758 -0.6477 -1.7339
  372DG     H16 8549   4.145   3.579   5.036  0.2042  2.5996 -1.5732
  372DG     C17 8550   3.941   3.766   4.932 -0.3443 -0.6891 -0.5215
  372DG     C18 8551   3.915   3.576   5.061 -0.5359  0.9574 -0.2705
  372DG     O19 8552   3.923   3.626   4.935 -0.0104 -0.0990  0.0613
  372DG     H20 8553   3.866   3.826   4.997 -0.7183 -1.1651  2.6174
  372DG     H21 8554   4.039   3.788   4.962 -3.0561  2.0368 -1.8962
  372DG     H22 8555   3.884   3.472   5.044  0.1079 -2.7967 -1.1528
  372DG     H23 8556   3.838   3.614   5.127  0.0768 -0.4995 -1.5880
  373DG      C1 8557   2.245   2.597   1.908  0.6046 -0.4604  0.4170
  373DG      C2 8558   1.901   2.035   2.154  0.2542  0.0464  0.0122
  373DG      H3 8559   2.225   2.599   1.799 -0.3165 -0.5502  0.1449
  373DG      H4 8560   2.352   2.583   1.903  1.9570  2.2281  2.5397
  373DG      H5 8561   2.220   2.698   1.946 -0.9101  1.0485 -0.4684
  373DG      H6 8562   1.891   1.932   2.167 -0.0505  0.1213  1.2383
  373DG      H7 8563   1.839   2.065   2.235 -1.8652  0.0648  1.2972
  373DG      H8 8564   1.869   2.087   2.058  1.9694 -0.9626  3.1760
  373DG      O9 8565   2.169   2.492   1.965  0.1868  0.5225 -0.2765
  373DG     O10 8566   2.028   2.082   2.202 -0.6647  0.1287  0.4177
  373DG     C11 8567   2.197   2.472   2.105  0.9295 -0.2541 -0.1179
  373DG     C12 8568   2.135   2.032   2.130  0.3238  0.7481 -0.0118
  373DG     H13 8569   2.127   2.531   2.160 -1.0782 -2.0181  0.2832
  373DG     H14 8570   2.287   2.511   2.138 -1.6672  0.5830 -0.8393
  373DG     H15 8571   2.120   2.028   2.024 -0.1218 -4.3106  0.7366
  373DG     H16 8572   2.151   1.928   2.159  4.5193 -0.5536 -1.1874
  373DG     C17 8573   2.168   2.330   2.137 -0.3835 -0.1189 -0.1600
  373DG     C18 8574   2.261   2.111   2.142  0.2609 -0.0115  0.8535
  373DG     O19 8575   2.259   2.235   2.077  0.0384 -0.0404 -0.0251
  373DG     H20 8576   2.063   2.310   2.100  0.8104  0.1467 -1.4452
  373DG     H21 8577   2.165   2.318   2.242 -1.1312 -0.4844 -2.1683
  373DG     H22 8578   2.290   2.142   2.246  0.0897  2.0172  0.7660
  373DG     H23 8579   2.353   2.059   2.090  0.0955  1.0305  0.0446
  374DG      C1 8580   4.889   4.301   4.349  0.4841 -0.2558 -0.0237
  374DG      C2 8581   4.812   4.223   3.615  0.3890 -0.3027 -0.4658
  374DG      H3 8582   4.906   4.395   4.403  2.1645  0.0720  1.2286
  374DG      H4 8583   4.922   4.218   4.419 -0.3965  0.6582  0.6912
  374DG      H5 8584   4.789   4.288   4.312 -0.3272  2.1667 -2.4090
  374DG      H6 8585   4.882   4.265   3.544  0.9877  0.3545  0.8983
  374DG      H7 8586   4.857   4.137   3.651 -2.5594 -0.5360 -0.5731
  374DG      H8 8587   4.721   4.207   3.557  1.7695 -1.0498 -0.3177
  374DG      O9 8588   4.975   4.318   4.236  0.6662  0.0241 -0.6565
  374DG     O10 8589   4.795   4.318   3.721  0.0279 -0.0793 -0.1763
  374DG     C11 8590   4.993   4.205   4.161  0.3048  0.5875 -0.3736
  374DG     C12 8591   4.689   4.293   3.811 -0.0084 -0.3106  1.2878
  374DG     H13 8592   5.013   4.121   4.227 -0.1453  0.5178 -0.0871
  374DG     H14 8593   5.076   4.211   4.095 -2.1128  0.4485  1.1145
  374DG     H15 8594   4.600   4.255   3.756  0.0983  0.3777 -4.2767
  374DG     H16 8595   4.664   4.384   3.861  1.9016 -0.9853  1.3589
  374DG     C17 8596   4.876   4.164   4.079  0.7463  0.4162  0.0482
  374DG     C18 8597   4.730   4.194   3.910  0.1632 -0.6294 -0.1204
  374DG     O19 8598   4.838   4.252   3.978 -0.3978  0.5417 -0.2133
  374DG     H20 8599   4.795   4.161   4.152  0.8216  2.3448  1.6962
  374DG     H21 8600   4.890   4.061   4.045 -0.7138 -2.1610  0.1338
  374DG     H22 8601   4.652   4.170   3.977  2.6965  0.8638 -2.7498
  374DG     H23 8602   4.743   4.095   3.867 -0.3079 -1.4171  3.5398
  375DG      C1 8603   0.812   0.043   3.668 -0.1119  0.3950 -0.0661
  375DG      C2 8604   1.130  -0.115   3.025 -0.7135  0.7554  0.0451
  375DG      H3 8605   0.875   0.116   3.715 -0.7956 -2.9048  0.1727
  375DG      H4 8606   0.780  -0.031   3.742 -0.0659 -0.6915 -1.1639
  375DG      H5 8607   0.724   0.097   3.641  0.0790  1.0628 -1.8556
  375DG      H6 8608   1.198  -0.180   2.965  1.1723 -2.5885  2.9964
  375DG      H7 8609   1.043  -0.096   2.957  0.2535  0.1941 -0.1415
  375DG      H8 8610   1.179  -0.015   3.033 -0.8107  1.4498  0.1518
  375DG      O9 8611   0.893  -0.032   3.573  0.3860 -0.1534 -0.1985
  375DG     O10 8612   1.102  -0.163   3.155 -0.4672  0.1623 -0.0775
  375DG     C11 8613   1.008  -0.086   3.623  0.5711  0.0637 -0.7256
  375DG     C12 8614   1.211  -0.232   3.210 -0.2071 -0.2450  0.0882
  375DG     H13 8615   0.996  -0.118   3.726 -1.9548 -1.9989  1.7549
  375DG     H14 8616   1.083  -0.015   3.630 -1.4699 -1.9301  2.2998
  375DG     H15 8617   1.295  -0.163   3.212 -0.0869  1.1837 -0.7092
  375DG     H16 8618   1.242  -0.324   3.158 -1.3746 -0.8704 -0.0300
  375DG     C17 8619   1.053  -0.216   3.550  0.1849 -0.8197  0.5406
  375DG     C18 8620   1.169  -0.285   3.349  0.2043 -0.3302 -0.0326
  375DG     O19 8621   1.079  -0.194   3.409 -0.8071  0.1252 -0.2405
  375DG     H20 8622   0.970  -0.281   3.547 -0.0702  2.1577 -0.5206
  375DG     H21 8623   1.141  -0.258   3.605  0.3899  0.2949  1.9892
  375DG     H22 8624   1.119  -0.380   3.335 -1.6761  1.4973  2.2502
  375DG     H23 8625   1.252  -0.302   3.414 -1.8586 -1.1956  0.1651
  376DG      C1 8626   2.337   2.225   1.784  0.3240  0.4475 -0.5861
  376DG      C2 8627   2.875   2.250   1.296  0.1739 -0.5182 -0.5559
  376DG      H3 8628   2.269   2.143   1.785 -0.6831  0.4957  2.9462
  376DG      H4 8629   2.282   2.321   1.798 -1.1732 -0.0422 -0.3928
  376DG      H5 8630   2.398   2.219   1.878  2.9076 -1.2012 -0.6936
  376DG      H6 8631   2.952   2.201   1.236  0.8023  0.7210 -1.8840
  376DG      H7 8632   2.870   2.350   1.254 -0.7044  2.8074 -0.1794
  376DG      H8 8633   2.887   2.264   1.404 -0.2735  1.4039  0.6291
  376DG      O9 8634   2.425   2.221   1.671 -0.4003 -1.1706  0.1385
  376DG     O10 8635   2.745   2.195   1.279 -0.2617 -0.4104 -0.2668
  376DG     C11 8636   2.362   2.238   1.547 -0.1639 -0.0702 -0.4788
  376DG     C12 8637   2.733   2.068   1.337 -0.2526 -0.4191  0.4172
  376DG     H13 8638   2.327   2.340   1.532  4.1594  0.7386  1.3214
  376DG     H14 8639   2.273   2.166   1.535 -1.9558  2.8826 -1.2117
  376DG     H15 8640   2.770   2.068   1.440 -0.0606 -1.5125 -0.0360
  376DG     H16 8641   2.802   1.996   1.282  3.0436 -3.0306 -0.7632
  376DG     C17 8642   2.463   2.221   1.432  0.4285 -0.1381 -0.1895
  376DG     C18 8643   2.583   2.023   1.349 -0.5749 -0.4417 -0.3570
  376DG     O19 8644   2.510   2.091   1.451  0.6541  0.1705 -0.5116
  376DG     H20 8645   2.546   2.290   1.447 -0.7109 -0.2997 -1.5617
  376DG     H21 8646   2.415   2.242   1.335 -0.0355 -0.4551 -1.4397
  376DG     H22 8647   2.533   2.040   1.251  0.1148 -0.5814  2.8950
  376DG     H23 8648   2.595   1.922   1.380  1.7689  4.7241  2.1728
  377DG      C1 8649   2.913   4.101   0.497 -0.6365  0.1362 -0.4938
  377DG      C2 8650   2.858   4.926   0.888  0.3113 -0.5780 -0.3307
  377DG      H3 8651   2.984   4.088   0.418  1.4300 -4.1015 -0.8387
  377DG      H4 8652   2.824   4.055   0.459  2.2068 -0.0002 -1.4691
  377DG      H5 8653   2.943   4.040   0.583 -0.3786  0.2605  2.0468
  377DG      H6 8654   2.857   5.031   0.862 -0.3093  0.8115 -0.6788
  377DG      H7 8655   2.754   4.891   0.881 -1.0416 -0.6775  0.9978
  377DG      H8 8656   2.876   4.903   0.992  1.1350  0.8872 -2.2150
  377DG      O9 8657   2.902   4.235   0.545  0.5811 -0.8329  0.6026
  377DG     O10 8658   2.941   4.848   0.800  0.1351 -0.0383  0.2256
  377DG     C11 8659   3.020   4.286   0.600 -0.2944  0.1636 -0.0804
  377DG     C12 8660   2.918   4.706   0.805  0.1437  0.2488  0.6014
  377DG     H13 8661   3.107   4.235   0.557 -2.0184  0.9717 -2.1823
  377DG     H14 8662   3.024   4.260   0.700  2.5302  0.8586 -0.1119
  377DG     H15 8663   2.816   4.681   0.806  1.1054 -0.9182 -1.0993
  377DG     H16 8664   2.955   4.671   0.901 -2.7266 -1.1496 -0.1319
  377DG     C17 8665   3.037   4.440   0.581 -0.1073 -0.1102  0.0848
  377DG     C18 8666   2.992   4.645   0.691  0.0400  0.1406  0.2466
  377DG     O19 8667   2.959   4.510   0.683  0.0461  0.2814  0.2920
  377DG     H20 8668   3.016   4.458   0.470 -0.7665 -1.7476 -0.0878
  377DG     H21 8669   3.143   4.454   0.607  1.0649  0.7743  0.7573
  377DG     H22 8670   2.972   4.711   0.603 -2.3057  1.6652  2.3194
  377DG     H23 8671   3.091   4.656   0.717 -2.1916 -0.4063  1.7507
  378DG      C1 8672   3.698   3.422   1.716  0.2634 -0.8674 -0.4298
  378DG      C2 8673   3.221   3.495   2.296 -0.4338 -0.4266  0.3358
  378DG      H3 8674   3.690   3.482   1.619 -0.3933  1.0449 -1.9927
  378DG      H4 8675   3.640   3.332   1.713 -0.8581 -1.6493  0.5477
  378DG      H5 8676   3.801   3.397   1.724  0.2739 -0.3999 -2.3317
  378DG      H6 8677   3.185   3.548   2.206  1.2365 -1.7695 -0.8944
  378DG      H7 8678   3.168   3.403   2.312 -1.3815  1.9717 -0.7918
  378DG      H8 8679   3.208   3.560   2.379  0.1469  1.0239  1.0436
  378DG      O9 8680   3.642   3.507   1.821  0.2596  0.2379  0.7864
  378DG     O10 8681   3.360   3.480   2.291 -0.3282  1.1158  0.3137
  378DG     C11 8682   3.511   3.559   1.793 -0.0835 -0.6681  0.4310
  378DG     C12 8683   3.396   3.390   2.185 -0.1159 -0.6127  0.7800
  378DG     H13 8684   3.447   3.474   1.775  2.6957  0.7361  1.0973
  378DG     H14 8685   3.510   3.612   1.704  0.2529  1.5373  2.7913
  378DG     H15 8686   3.335   3.305   2.190 -0.0384  3.4705 -0.6340
  378DG     H16 8687   3.500   3.367   2.207  1.3010  1.5300 -0.7724
  378DG     C17 8688   3.449   3.642   1.907  0.5007  0.3763  0.7912
  378DG     C18 8689   3.385   3.456   2.049 -0.0316  0.1101  0.0921
  378DG     O19 8690   3.471   3.570   2.028  0.1245  0.0370  0.0719
  378DG     H20 8691   3.343   3.661   1.887  1.7804  2.5643 -0.8754
  378DG     H21 8692   3.506   3.731   1.922  0.3631 -2.8722 -4.0285
  378DG     H22 8693   3.423   3.373   1.982  0.6709  0.2432  0.0110
  378DG     H23 8694   3.288   3.485   2.021  1.8198 -2.2986  1.1570
  379DG      C1 8695   4.977   0.720   4.954 -0.0938 -0.1262 -0.1371
  379DG      C2 8696   5.547   0.162   4.867  0.1669  0.5315 -0.6293
  379DG      H3 8697   4.872   0.729   4.952  0.2286  0.5623  0.4394
  379DG      H4 8698   5.017   0.818   4.926  0.2327  1.0508  0.9867
  379DG      H5 8699   5.022   0.699   5.064 -0.3161  0.3050  2.3176
  379DG      H6 8700   5.606   0.252   4.900  3.1064  4.5461 -1.3483
  379DG      H7 8701   5.531   0.090   4.949  2.5127  0.0878  2.0934
  379DG      H8 8702   5.603   0.101   4.799  0.7344  0.4359  2.5997
  379DG      O9 8703   5.033   0.633   4.861 -0.5662 -0.1853 -0.2049
  379DG     O10 8704   5.417   0.193   4.821  0.3098 -0.7616  0.0613
  379DG     C11 8705   5.008   0.493   4.876 -0.9313 -0.7575 -0.5349
  379DG     C12 8706   5.419   0.310   4.734  0.2075  0.2214  0.5007
  379DG     H13 8707   4.903   0.478   4.888  1.3025 -2.8325 -0.4581
  379DG     H14 8708   5.057   0.469   4.976 -3.3148  2.1587 -0.5934
  379DG     H15 8709   5.491   0.295   4.657  0.4353 -0.0259 -0.5987
  379DG     H16 8710   5.457   0.394   4.798  3.4172 -0.2959  0.5636
  379DG     C17 8711   5.071   0.414   4.766  0.2007 -0.8395  0.1989
  379DG     C18 8712   5.276   0.330   4.680 -0.1705  0.6278  0.2541
  379DG     O19 8713   5.213   0.403   4.784 -0.1958  0.4270  0.2083
  379DG     H20 8714   5.044   0.463   4.664  1.4207  0.4937  1.1451
  379DG     H21 8715   5.032   0.318   4.755 -0.0767  1.7417  1.6324
  379DG     H22 8716   5.276   0.384   4.583  2.1888 -0.4748  0.4957
  379DG     H23 8717   5.240   0.231   4.656 -0.1592 -1.3037 -3.5819
  380DG      C1 8718   4.309   4.575   0.709 -0.0491  0.1323 -0.5283
  380DG      C2 8719   4.235   4.926   0.427  0.0830  0.0125  0.5354
  380DG      H3 8720   4.345   4.518   0.623 -5.1519  2.4624  2.5070
  380DG      H4 8721   4.202   4.595   0.707  1.5503  3.2160 -0.4512
  380DG      H5 8722   4.338   4.528   0.805 -0.5001  1.4171  0.1350
  380DG      H6 8723   4.139   4.889   0.422  2.1977  0.6798  2.0390
  380DG      H7 8724   4.255   4.904   0.532  1.0824  1.8494  0.8871
  380DG      H8 8725   4.219   5.034   0.433  0.6220  0.5445  0.9439
  380DG      O9 8726   4.381   4.701   0.699 -0.3361  0.2036  0.2630
  380DG     O10 8727   4.333   4.900   0.328 -0.0645 -0.5736 -0.9712
  380DG     C11 8728   4.523   4.687   0.726  0.4229 -0.3649  0.5371
  380DG     C12 8729   4.461   4.963   0.348  1.3511 -0.3828  0.1999
  380DG     H13 8730   4.557   4.594   0.680  0.4474  0.4806  0.5712
  380DG     H14 8731   4.533   4.680   0.824  1.1451  2.0360 -0.7706
  380DG     H15 8732   4.439   5.070   0.327 -0.0936  2.1211  3.6988
  380DG     H16 8733   4.529   4.921   0.269  0.8650 -0.7008 -1.0776
  380DG     C17 8734   4.586   4.814   0.664 -0.2889  0.3122 -0.5679
  380DG     C18 8735   4.527   4.955   0.485  0.2727  0.3341  0.0950
  380DG     O19 8736   4.530   4.817   0.534 -0.0144  0.7510 -0.1292
  380DG     H20 8737   4.698   4.830   0.657  0.7662 -0.3875  0.6763
  380DG     H21 8738   4.544   4.902   0.726  1.0402 -1.7756  1.0178
  380DG     H22 8739   4.623   4.993   0.461 -2.3867 -2.1199  1.3410
  380DG     H23 8740   4.483   5.017   0.561  1.5226 -1.2520 -1.1408
  381DG      C1 8741   2.161   0.683   0.096 -0.3143 -0.0378  0.4198
  381DG      C2 8742   2.570   0.439   0.793  0.1950 -0.5189  0.1335
  381DG      H3 8743   2.237   0.747   0.052 -0.0436 -0.3569  4.3822
  381DG      H4 8744   2.069   0.709   0.044 -1.7166  1.0110  1.5981
  381DG      H5 8745   2.190   0.583   0.069 -0.7820  2.3065 -1.3771
  381DG      H6 8746   2.604   0.357   0.734  1.6118  1.7412  4.6089
  381DG      H7 8747   2.661   0.492   0.830 -0.9954  0.3256 -0.7573
  381DG      H8 8748   2.523   0.403   0.886 -0.0844  2.2303  1.2203
  381DG      O9 8749   2.147   0.708   0.233 -0.1912  0.3930 -0.2137
  381DG     O10 8750   2.500   0.517   0.700  0.3016 -0.0219  0.6952
  381DG     C11 8751   2.231   0.635   0.316  0.2936 -0.1020  0.5599
  381DG     C12 8752   2.392   0.581   0.771 -0.0756  0.5477  0.5529
  381DG     H13 8753   2.335   0.641   0.283  0.6823 -0.8269 -0.4284
  381DG     H14 8754   2.200   0.533   0.306 -0.4683  0.2338 -1.1068
  381DG     H15 8755   2.419   0.635   0.861  0.5656  2.7203 -1.1605
  381DG     H16 8756   2.321   0.500   0.795 -0.4713  1.5672  2.0441
  381DG     C17 8757   2.200   0.683   0.459 -0.7019 -0.3253  0.0662
  381DG     C18 8758   2.309   0.666   0.673 -0.2332 -0.5052  0.3259
  381DG     O19 8759   2.296   0.610   0.546  0.1934 -0.6013  0.4054
  381DG     H20 8760   2.095   0.659   0.480  0.5274  0.7441  0.6611
  381DG     H21 8761   2.210   0.788   0.474 -0.0009 -2.5654 -1.3691
  381DG     H22 8762   2.210   0.684   0.725  1.0292 -0.4166  0.9783
  381DG     H23 8763   2.348   0.768   0.656  1.9881 -1.3989 -1.7093
  382DG      C1 8764   1.781   3.463   3.562  0.5311 -0.7264 -0.7276
  382DG      C2 8765   2.265   3.124   3.976  0.0243 -0.1999  0.1289
  382DG      H3 8766   1.802   3.553   3.622  2.2017 -0.3770  1.0464
  382DG      H4 8767   1.684   3.470   3.516  1.3975  1.1451 -3.1609
  382DG      H5 8768   1.858   3.453   3.482  0.2201 -0.6129 -1.2786
  382DG      H6 8769   2.291   3.025   4.010  1.3520  0.4839 -0.1617
  382DG      H7 8770   2.330   3.152   3.890  0.7599  1.7999 -1.5762
  382DG      H8 8771   2.284   3.199   4.055 -1.7475  1.2138 -0.4920
  382DG      O9 8772   1.784   3.348   3.646  0.0190 -0.0710  0.1117
  382DG     O10 8773   2.137   3.140   3.930  0.2964  0.4240  0.2952
  382DG     C11 8774   1.702   3.359   3.761 -0.2263  0.0395 -0.3847
  382DG     C12 8775   2.039   3.105   4.026 -0.3639  0.6158 -0.6381
  382DG     H13 8776   1.592   3.347   3.745 -1.2043 -1.4803 -0.3539
  382DG     H14 8777   1.712   3.448   3.813 -0.2732 -4.2548  0.3099
  382DG     H15 8778   2.039   3.168   4.112 -2.1366 -2.1000  2.1461
  382DG     H16 8779   2.070   2.998   4.052  0.3190 -2.5645 -1.5136
  382DG     C17 8780   1.738   3.232   3.847  0.2274 -0.7340  0.4376
  382DG     C18 8781   1.900   3.101   3.964  0.1203 -0.5375  0.4590
  382DG     O19 8782   1.877   3.227   3.886  0.2796  0.4600 -0.0792
  382DG     H20 8783   1.721   3.152   3.775  2.3692  2.2941  0.6178
  382DG     H21 8784   1.671   3.213   3.930  3.6371 -1.3786 -0.6873
  382DG     H22 8785   1.882   3.012   3.904  0.2766 -1.7320 -0.5778
  382DG     H23 8786   1.834   3.099   4.052 -2.7342  1.5037  1.3354
  383DG      C1 8787   4.603   3.985   2.747 -0.3735 -0.2127 -0.5743
  383DG      C2 8788   4.513   4.689   3.049 -0.2701  0.9323  0.2563
  383DG      H3 8789   4.709   3.995   2.714  4.4831  0.5563 -0.9419
  383DG      H4 8790   4.549   3.919   2.681 -0.0317  0.6867 -1.4781
  383DG      H5 8791   4.613   3.938   2.838  1.0624 -1.8045  0.5106
  383DG      H6 8792   4.505   4.678   3.153  3.4860 -0.4807 -1.5434
  383DG      H7 8793   4.616   4.690   3.019 -1.1271  3.0497 -0.0549
  383DG      H8 8794   4.487   4.789   3.012  1.6904  2.3646  0.7386
  383DG      O9 8795   4.527   4.105   2.764  0.7747 -0.2375 -0.0971
  383DG     O10 8796   4.446   4.585   2.979  0.2881 -0.1190  0.2976
  383DG     C11 8797   4.482   4.164   2.638 -0.6748  0.2404 -0.3745
  383DG     C12 8798   4.454   4.598   2.837  0.5687  0.6537  0.4128
  383DG     H13 8799   4.439   4.083   2.576 -0.8139  0.3430 -1.0062
  383DG     H14 8800   4.579   4.194   2.594  1.7203  1.3599 -0.7583
  383DG     H15 8801   4.552   4.609   2.807 -1.3565  0.0458 -0.4047
  383DG     H16 8802   4.406   4.694   2.809  0.3143  1.3672  0.1967
  383DG     C17 8803   4.390   4.287   2.653  0.5986 -0.6561  0.2760
  383DG     C18 8804   4.377   4.503   2.751  0.7927 -0.2616  0.5939
  383DG     O19 8805   4.454   4.381   2.746 -0.0484 -0.1775  0.1426
  383DG     H20 8806   4.285   4.265   2.681 -0.6621 -0.6553  0.9081
  383DG     H21 8807   4.387   4.329   2.551 -0.2219 -0.9275 -2.6152
  383DG     H22 8808   4.279   4.480   2.794  0.1239 -2.1124  0.4222
  383DG     H23 8809   4.360   4.553   2.660 -1.5091 -1.3975  1.5021
  384DG      C1 8810   0.917   1.937   4.515  0.3715 -0.5016  0.3398
  384DG      C2 8811   0.202   2.040   4.776 -1.2671 -0.4357  0.5640
  384DG      H3 8812   0.906   1.976   4.617 -2.9985  1.9448 -1.8324
  384DG      H4 8813   0.957   2.025   4.474 -1.7094  2.3501  1.2586
  384DG      H5 8814   0.988   1.859   4.499  1.3436 -0.2713 -0.8112
  384DG      H6 8815   0.191   2.143   4.737 -1.5064  1.4061 -2.1794
  384DG      H7 8816   0.110   1.985   4.757  0.6791  3.6650  0.5556
  384DG      H8 8817   0.218   2.053   4.884 -0.1140 -1.3553  0.1324
  384DG      O9 8818   0.787   1.910   4.463 -0.3804  0.3636  0.4194
  384DG     O10 8819   0.326   1.972   4.747 -0.6721  0.2780  0.0248
  384DG     C11 8820   0.747   1.783   4.505  0.5082 -1.0314  0.3113
  384DG     C12 8821   0.361   1.967   4.612  0.4307 -0.2508  0.8199
  384DG     H13 8822   0.742   1.777   4.614 -0.4254 -0.1213 -1.2643
  384DG     H14 8823   0.817   1.698   4.480 -1.4858 -0.4934  1.6745
  384DG     H15 8824   0.407   2.056   4.579  0.2353 -1.7514 -0.9839
  384DG     H16 8825   0.265   1.960   4.552 -0.8432  1.7169  0.9832
  384DG     C17 8826   0.611   1.754   4.438  0.1430 -0.4720 -0.1815
  384DG     C18 8827   0.454   1.853   4.583  0.3689 -0.4559  0.0329
  384DG     O19 8828   0.508   1.853   4.449 -0.2272  0.4976  0.0597
  384DG     H20 8829   0.571   1.660   4.478 -0.5182 -1.9842  1.1977
  384DG     H21 8830   0.620   1.744   4.324 -2.2242  0.5399  1.4048
  384DG     H22 8831   0.538   1.862   4.652 -0.1187  0.5818 -2.3837
  384DG     H23 8832   0.398   1.767   4.612 -0.2203 -0.9432 -1.6765
  385DG      C1 8833   4.303   3.864   0.644 -0.7351  0.4116 -0.1094
  385DG      C2 8834   4.484   4.398   1.059  0.4712 -0.7481 -0.0213
  385DG      H3 8835   4.317   3.904   0.550 -0.5073  0.5775  0.7167
  385DG      H4 8836   4.200   3.839   0.644 -0.8485 -1.0539  1.7520
  385DG      H5 8837   4.361   3.776   0.670 -0.8728  1.3791 -1.5390
  385DG      H6 8838   4.395   4.352   1.036  0.9910  1.1615  3.5375
  385DG      H7 8839   4.547   4.341   1.127 -2.2791  0.2773 -0.6792
  385DG      H8 8840   4.445   4.482   1.110 -2.8497 -1.2556  2.4191
  385DG      O9 8841   4.324   3.970   0.731 -0.1032 -0.3085 -0.2262
  385DG     O10 8842   4.559   4.429   0.942 -0.3633 -0.5564 -0.7907
  385DG     C11 8843   4.243   4.083   0.697  0.1543  0.0811 -0.0682
  385DG     C12 8844   4.616   4.313   0.887 -0.4719  0.0476  0.9346
  385DG     H13 8845   4.138   4.059   0.705  1.6448 -1.0137 -1.5706
  385DG     H14 8846   4.249   4.107   0.593 -0.1559 -2.6912 -0.2229
  385DG     H15 8847   4.704   4.283   0.945  1.6156  0.7221 -0.8093
  385DG     H16 8848   4.649   4.343   0.790 -0.6638 -2.2090 -0.2960
  385DG     C17 8849   4.277   4.203   0.794  0.3394  0.5200  0.6970
  385DG     C18 8850   4.514   4.205   0.848 -0.0143  0.6095 -0.3550
  385DG     O19 8851   4.405   4.265   0.778  0.5925  0.1701 -0.0468
  385DG     H20 8852   4.260   4.165   0.902 -1.9321 -0.7927  1.0190
  385DG     H21 8853   4.201   4.283   0.778  1.1291  0.0482 -0.6279
  385DG     H22 8854   4.568   4.140   0.784  1.4924 -3.0602  3.0033
  385DG     H23 8855   4.483   4.154   0.940  0.5245  1.5021 -1.3563
  386DG      C1 8856   1.732   1.562   3.480  0.3032 -0.4892 -0.0391
  386DG      C2 8857   1.541   1.296   4.038  0.2424 -0.7153 -0.2753
  386DG      H3 8858   1.712   1.469   3.420  1.7267 -2.0460  0.1606
  386DG      H4 8859   1.794   1.619   3.417  0.9137 -1.1689 -1.4641
  386DG      H5 8860   1.633   1.617   3.476 -2.2848  0.9035  1.0451
  386DG      H6 8861   1.452   1.326   3.988  0.4183 -1.8841 -1.1712
  386DG      H7 8862   1.558   1.193   4.033  2.4073  2.2832 -2.0349
  386DG      H8 8863   1.525   1.316   4.145  2.7680 -0.8520 -2.2715
  386DG      O9 8864   1.780   1.543   3.612 -0.5327 -0.5837  0.1172
  386DG     O10 8865   1.654   1.374   3.996  0.2818  0.3443 -0.3252
  386DG     C11 8866   1.914   1.496   3.621  0.6077  0.6244 -0.1088
  386DG     C12 8867   1.771   1.321   4.047  0.1457  0.2373  0.9748
  386DG     H13 8868   1.981   1.566   3.572 -2.0979  1.3266  1.5242
  386DG     H14 8869   1.922   1.397   3.578  1.0642  0.4704 -0.7753
  386DG     H15 8870   1.783   1.214   4.018 -1.2734  2.2195  0.6465
  386DG     H16 8871   1.770   1.337   4.155  1.9959  0.4693  0.0869
  386DG     C17 8872   1.955   1.478   3.769  0.9580  0.5085  0.3353
  386DG     C18 8873   1.889   1.391   3.984 -0.5061 -0.3723  0.2945
  386DG     O19 8874   1.859   1.402   3.843 -0.1244  0.3017 -0.0625
  386DG     H20 8875   1.982   1.570   3.818 -2.5724  2.7463 -1.4176
  386DG     H21 8876   2.048   1.425   3.768  1.4051  0.4765  1.9892
  386DG     H22 8877   1.901   1.490   4.027 -0.6808 -0.2471 -0.0994
  386DG     H23 8878   1.976   1.330   4.007 -4.3885 -1.2358 -0.4588
  387DG      C1 8879   5.075   4.888   1.164 -0.1635  0.6619 -0.1658
  387DG      C2 8880   4.285   5.080   1.171 -0.5476  0.4600  0.1870
  387DG      H3 8881   5.076   4.966   1.087 -0.5064 -0.6474 -2.2673
  387DG      H4 8882   5.149   4.816   1.124 -0.9640  0.4678  1.1603
  387DG      H5 8883   5.116   4.932   1.256 -0.1612  1.4426 -3.2058
  387DG      H6 8884   4.306   5.164   1.231 -1.6742  0.5977  0.2647
  387DG      H7 8885   4.203   5.101   1.107 -1.3162  0.9330  0.9217
  387DG      H8 8886   4.269   4.987   1.227 -1.2146 -2.3397 -2.5173
  387DG      O9 8887   4.951   4.834   1.197 -0.2261 -0.4277  0.7928
  387DG     O10 8888   4.410   5.054   1.110 -0.0786  0.4885  0.4001
  387DG     C11 8889   4.846   4.934   1.225 -1.4639 -0.4417 -0.3384
  387DG     C12 8890   4.469   5.164   1.040  0.1512  0.3976 -0.1525
  387DG     H13 8891   4.888   5.008   1.288 -0.0805 -3.2421 -0.2637
  387DG     H14 8892   4.768   4.886   1.280 -0.5184  0.7947  1.8382
  387DG     H15 8893   4.476   5.256   1.094 -1.5134  0.8981 -1.9212
  387DG     H16 8894   4.404   5.185   0.948  1.6992  1.2365  1.2655
  387DG     C17 8895   4.798   5.014   1.098 -0.6578 -0.2456 -0.0847
  387DG     C18 8896   4.612   5.118   1.008 -0.0152 -0.9165 -0.4322
  387DG     O19 8897   4.666   5.056   1.122 -0.1534  0.2799  0.2790
  387DG     H20 8898   4.798   4.944   1.008 -0.5293 -0.5894  0.2854
  387DG     H21 8899   4.863   5.098   1.071 -0.1426  1.6474 -1.0199
  387DG     H22 8900   4.598   5.044   0.925  0.7914  0.2177 -1.3195
  387DG     H23 8901   4.671   5.203   0.962  0.3077  0.1366  1.1576
  388DG      C1 8902   5.114   2.190   4.520 -0.4266 -0.0058 -0.1711
  388DG      C2 8903   4.403   2.173   4.289 -0.8997 -0.1542  0.5442
  388DG      H3 8904   5.208   2.169   4.480  1.5987  2.9676 -0.0228
  388DG      H4 8905   5.089   2.094   4.567 -0.7982  0.7120  1.1936
  388DG      H5 8906   5.134   2.255   4.604 -2.4742 -1.0606 -2.8249
  388DG      H6 8907   4.392   2.153   4.386  0.7408 -0.3261 -1.3173
  388DG      H7 8908   4.323   2.237   4.251 -0.9711 -1.4190 -1.6889
  388DG      H8 8909   4.410   2.081   4.226 -0.6422  1.4158 -0.1109
  388DG      O9 8910   4.992   2.229   4.451  0.1841  0.4132  0.0499
  388DG     O10 8911   4.524   2.247   4.273  0.1989 -0.6462  0.5023
  388DG     C11 8912   5.003   2.354   4.387  0.1299  0.1500  0.1363
  388DG     C12 8913   4.526   2.365   4.346 -0.1878  0.2345  0.1400
  388DG     H13 8914   5.094   2.370   4.327 -1.9019  0.3403  1.3968
  388DG     H14 8915   5.010   2.430   4.461  1.4314 -0.3765 -1.8631
  388DG     H15 8916   4.510   2.359   4.451 -0.1443  1.0729 -0.6705
  388DG     H16 8917   4.449   2.432   4.310 -0.8407 -0.2843  0.3834
  388DG     C17 8918   4.875   2.381   4.301  0.6199  0.5324 -0.2305
  388DG     C18 8919   4.654   2.441   4.319  0.1212  0.3017 -0.2720
  388DG     O19 8920   4.761   2.366   4.376  0.0212 -0.4092  0.1881
  388DG     H20 8921   4.868   2.323   4.207 -0.9893  0.5300  1.2864
  388DG     H21 8922   4.880   2.487   4.278  1.1600 -0.4353  1.7561
  388DG     H22 8923   4.663   2.442   4.212  1.7225 -2.8384 -1.8391
  388DG     H23 8924   4.657   2.541   4.357  1.1077 -1.2458 -2.5679
  389DG      C1 8925   3.150   5.215   5.273  0.5973 -0.2188  0.5417
  389DG      C2 8926   3.456   4.783   5.913 -0.5597  0.7066 -0.8166
  389DG      H3 8927   3.135   5.304   5.331  1.1409 -2.0517 -0.5270
  389DG      H4 8928   3.075   5.138   5.297 -1.4816  1.9683  0.9707
  389DG      H5 8929   3.134   5.244   5.168 -1.8156  1.6006  0.1934
  389DG      H6 8930   3.365   4.785   5.970  1.3139  0.8392  1.4492
  389DG      H7 8931   3.485   4.677   5.890  2.4849  0.8592  0.7551
  389DG      H8 8932   3.537   4.823   5.977 -1.0780 -2.5746 -0.7487
  389DG      O9 8933   3.288   5.182   5.294 -0.3402  0.2766 -0.7760
  389DG     O10 8934   3.444   4.849   5.792  0.0641 -0.5748  0.7564
  389DG     C11 8935   3.314   5.106   5.414  0.0215 -0.3231  0.2984
  389DG     C12 8936   3.556   4.825   5.709 -0.1394 -0.0522  0.5359
  389DG     H13 8937   3.264   5.005   5.419  3.2648 -0.2709 -0.8215
  389DG     H14 8938   3.286   5.161   5.503  3.6305  0.3172 -0.2295
  389DG     H15 8939   3.581   4.719   5.706  0.4645  0.7784  0.0176
  389DG     H16 8940   3.643   4.869   5.760 -1.3052 -1.6895 -0.9982
  389DG     C17 8941   3.462   5.068   5.430  0.3901  0.1819 -0.1598
  389DG     C18 8942   3.542   4.884   5.565 -0.4343  0.1711 -0.8810
  389DG     O19 8943   3.484   5.013   5.562 -0.1535 -0.4871  0.9497
  389DG     H20 8944   3.525   5.152   5.442 -1.0486  0.2931 -0.8560
  389DG     H21 8945   3.508   5.014   5.348 -0.5579 -1.7117 -0.1030
  389DG     H22 8946   3.641   4.892   5.518  0.8394 -1.9568  3.0460
  389DG     H23 8947   3.491   4.803   5.508  1.1839  1.3159 -3.0301
  390DG      C1 8948   1.156   5.164   2.252 -0.4346 -0.2164  0.3853
  390DG      C2 8949   1.542   5.715   2.508 -0.0135 -0.6360 -0.6067
  390DG      H3 8950   1.145   5.233   2.163 -0.1712 -1.4393  0.0177
  390DG      H4 8951   1.093   5.203   2.331 -0.1827  1.6999  2.9364
  390DG      H5 8952   1.131   5.063   2.230 -2.3537 -1.2865 -1.0026
  390DG      H6 8953   1.634   5.780   2.491  0.6308  1.1842  0.6558
  390DG      H7 8954   1.466   5.776   2.460 -0.5146 -1.1890 -0.8266
  390DG      H8 8955   1.518   5.711   2.611  1.3811  1.0570  0.7095
  390DG      O9 8956   1.282   5.180   2.306 -0.4650 -0.0683  0.0480
  390DG     O10 8957   1.542   5.601   2.427  0.3045 -0.2247  0.0946
  390DG     C11 8958   1.394   5.168   2.212 -0.0622  0.3254  0.2933
  390DG     C12 8959   1.610   5.495   2.490  0.3920 -0.3533  0.3497
  390DG     H13 8960   1.387   5.225   2.127 -0.5221  1.6181  4.1072
  390DG     H14 8961   1.395   5.063   2.182  0.1598 -1.6475  4.1979
  390DG     H15 8962   1.547   5.465   2.569  1.5413 -0.1497 -1.4998
  390DG     H16 8963   1.703   5.515   2.542  0.3654 -0.3511  0.4549
  390DG     C17 8964   1.525   5.214   2.282  0.5770 -0.3386  0.2551
  390DG     C18 8965   1.634   5.374   2.402 -0.3153 -0.1314 -0.4254
  390DG     O19 8966   1.508   5.335   2.353 -0.0795 -0.8584  0.1705
  390DG     H20 8967   1.600   5.230   2.211 -1.4257 -0.4123 -1.4059
  390DG     H21 8968   1.558   5.131   2.352 -0.6319 -1.2896  2.4775
  390DG     H22 8969   1.694   5.400   2.323  0.0685  0.5554 -1.1789
  390DG     H23 8970   1.677   5.297   2.467 -1.3651  1.1665 -0.0266
  391DG      C1 8971   5.249   3.549   3.017  0.4315 -0.3794 -0.1401
  391DG      C2 8972   5.520   3.073   3.246 -0.2363  0.0298 -0.0526
  391DG      H3 8973   5.151   3.575   2.965  0.2295 -1.8290 -1.3672
  391DG      H4 8974   5.333   3.530   2.948 -0.4802  1.5361  0.9300
  391DG      H5 8975   5.272   3.638   3.072  0.2269 -2.3191  0.9244
  391DG      H6 8976   5.610   3.093   3.300 -0.1536  1.4628 -0.4534
  391DG      H7 8977   5.552   3.020   3.155  1.3291  1.6336 -0.0741
  391DG      H8 8978   5.474   3.167   3.212  1.3393 -0.7318  0.9528
  391DG      O9 8979   5.223   3.460   3.126 -0.0303  0.7599  0.5438
  391DG     O10 8980   5.425   2.992   3.320 -0.7870 -0.8748 -0.5334
  391DG     C11 8981   5.123   3.366   3.092 -0.0547  0.0624  0.4277
  391DG     C12 8982   5.313   2.951   3.248  0.4118  0.6289 -0.1791
  391DG     H13 8983   5.158   3.308   3.002  0.5530 -0.5352  2.1224
  391DG     H14 8984   5.028   3.423   3.080 -0.0925  2.5224  0.4576
  391DG     H15 8985   5.282   2.853   3.290 -1.8443  2.1397  0.3980
  391DG     H16 8986   5.348   2.944   3.146 -0.3953  0.0228  1.9374
  391DG     C17 8987   5.110   3.261   3.203  0.4635 -0.7166  0.3302
  391DG     C18 8988   5.181   3.041   3.249  0.7184  0.4631  0.6529
  391DG     O19 8989   5.215   3.167   3.197 -0.3926  0.7127  0.6399
  391DG     H20 8990   5.009   3.224   3.193  0.0623 -0.5643 -1.5794
  391DG     H21 8991   5.092   3.318   3.293 -1.1466 -0.5963  0.9483
  391DG     H22 8992   5.091   2.996   3.198 -1.8762 -0.3006  2.3446
  391DG     H23 8993   5.154   3.063   3.351 -1.9593  0.8281  0.7768
  392DG      C1 8994   2.363   4.119   4.123 -0.2456  0.0823  0.0303
  392DG      C2 8995   1.733   3.913   4.015  0.2984  0.1842  0.9840
  392DG      H3 8996   2.332   4.116   4.226 -1.2001  2.6883 -1.4472
  392DG      H4 8997   2.462   4.066   4.109  0.6124  1.5127  2.6331
  392DG      H5 8998   2.292   4.065   4.069 -0.5300 -0.0226  2.1317
  392DG      H6 8999   1.805   3.855   4.070 -1.2970  0.7693 -0.3205
  392DG      H7 9000   1.636   3.901   4.060 -1.0806  1.7461 -1.9145
  392DG      H8 9001   1.718   3.876   3.915  2.8638  0.0222 -0.4968
  392DG      O9 9002   2.364   4.256   4.074  0.2571  0.2314 -0.2682
  392DG     O10 9003   1.770   4.052   4.018 -0.2435  0.8978 -0.2619
  392DG     C11 9004   2.238   4.325   4.076 -0.1861  0.6481  0.0611
  392DG     C12 9005   1.910   4.059   3.985 -0.2876  0.1322  0.7282
  392DG     H13 9006   2.273   4.426   4.101  1.3627  2.2628 -1.7341
  392DG     H14 9007   2.180   4.290   4.162 -0.2059  0.1355  0.8165
  392DG     H15 9008   1.929   4.013   3.886 -0.5058 -0.3950  1.8092
  392DG     H16 9009   1.974   3.994   4.045  4.0305 -0.7335  0.8018
  392DG     C17 9010   2.159   4.319   3.944 -0.0886 -0.5941  0.3465
  392DG     C18 9011   1.954   4.210   3.998 -0.8107  0.2040 -0.2313
  392DG     O19 9012   2.080   4.204   3.932  0.4765  0.0393  0.1623
  392DG     H20 9013   2.228   4.329   3.864 -0.0858 -0.2116  0.1733
  392DG     H21 9014   2.098   4.414   3.936 -0.6401  3.8553 -0.0063
  392DG     H22 9015   1.871   4.264   3.951  0.3911 -2.5145  0.7917
  392DG     H23 9016   1.965   4.230   4.108  2.4529  2.5941 -1.5468
  393DG      C1 9017   0.980   5.307   0.188 -0.2936 -0.7131 -0.5026
  393DG      C2 9018   0.811   5.976   0.729 -0.0858  0.1222 -0.5196
  393DG      H3 9019   0.879   5.282   0.216  0.6723  0.8569 -0.4710
  393DG      H4 9020   1.045   5.224   0.160 -1.8156  0.7979 -1.4681
  393DG      H5 9021   0.973   5.372   0.096 -1.4442  1.0289 -0.5553
  393DG      H6 9022   0.863   6.013   0.811  0.8556  0.6780  1.1141
  393DG      H7 9023   0.816   6.050   0.650 -0.8889 -0.6413  1.4091
  393DG      H8 9024   0.711   5.970   0.764  1.0907 -0.1790  1.5060
  393DG      O9 9025   1.058   5.377   0.294 -0.4116  0.6638 -0.0184
  393DG     O10 9026   0.864   5.854   0.695  0.1063 -0.3438  0.0793
  393DG     C11 9027   0.985   5.494   0.334 -0.2475 -0.5310 -0.0558
  393DG     C12 9028   0.987   5.864   0.633  0.2221  0.4965 -0.7299
  393DG     H13 9029   0.903   5.453   0.385  0.5850  1.0242 -3.3368
  393DG     H14 9030   0.940   5.544   0.247 -0.3342 -1.1561 -1.3753
  393DG     H15 9031   1.055   5.908   0.701 -1.4598 -2.2035 -0.8302
  393DG     H16 9032   0.986   5.930   0.554  3.3176  0.2042  0.6917
  393DG     C17 9033   1.068   5.597   0.413  0.1713  0.0837  0.1770
  393DG     C18 9034   1.047   5.741   0.591 -0.1008 -0.2332  0.7932
  393DG     O19 9035   0.980   5.686   0.474  0.2480 -0.3091  0.1205
  393DG     H20 9036   1.120   5.660   0.347 -0.6001  2.5690  0.6740
  393DG     H21 9037   1.144   5.551   0.481  1.4782  0.0062  0.3295
  393DG     H22 9038   1.146   5.777   0.556  1.0278 -0.0149 -3.0849
  393DG     H23 9039   1.075   5.672   0.669  0.4702 -0.0168 -0.7848
  394DG      C1 9040   3.245   3.962   5.067  0.2220 -0.1420  0.0231
  394DG      C2 9041   3.377   3.253   4.799 -0.3071  0.0545  0.5972
  394DG      H3 9042   3.203   3.961   5.168 -2.8368  3.0023  1.1329
  394DG      H4 9043   3.163   3.937   5.004 -0.0608  1.4727 -1.9323
  394DG      H5 9044   3.271   4.069   5.047 -0.2037  1.3119  0.9714
  394DG      H6 9045   3.287   3.230   4.739  0.7230 -0.6657 -1.4379
  394DG      H7 9046   3.450   3.184   4.748  1.4237  1.1314  0.3189
  394DG      H8 9047   3.346   3.222   4.900 -1.3793  2.0719  1.1719
  394DG      O9 9048   3.354   3.872   5.039 -0.2668  0.0004 -0.1019
  394DG     O10 9049   3.414   3.389   4.792 -0.1698  0.3749  0.4727
  394DG     C11 9050   3.443   3.889   4.933  0.4071  0.0097  0.1288
  394DG     C12 9051   3.533   3.421   4.870  0.6423 -0.0493 -0.0355
  394DG     H13 9052   3.481   3.993   4.947 -0.6404  0.3154 -0.7054
  394DG     H14 9053   3.380   3.886   4.845  0.5604 -1.7908 -1.4028
  394DG     H15 9054   3.619   3.350   4.855  1.1518  0.2995  0.9062
  394DG     H16 9055   3.510   3.405   4.971 -0.5426 -3.6911  0.0030
  394DG     C17 9056   3.552   3.780   4.919  0.1607 -0.3771  0.0368
  394DG     C18 9057   3.587   3.566   4.844  0.2487 -0.1409 -0.4025
  394DG     O19 9058   3.488   3.657   4.880 -0.4687 -0.7926  0.2363
  394DG     H20 9059   3.613   3.767   5.007 -0.3167 -2.3160 -1.0378
  394DG     H21 9060   3.620   3.824   4.838 -0.8679  2.4353 -1.7582
  394DG     H22 9061   3.669   3.586   4.894 -3.5357  2.0376  0.4800
  394DG     H23 9062   3.620   3.568   4.738 -1.8869  0.0545  1.5800
  395DG      C1 9063   5.433   5.201   3.928 -0.2574 -0.4822 -0.6509
  395DG      C2 9064   5.686   4.602   3.755 -0.2642  0.5226 -0.2585
  395DG      H3 9065   5.537   5.227   3.921 -1.7092 -0.9471  0.9436
  395DG      H4 9066   5.408   5.187   4.031 -4.2194  3.5565 -2.5010
  395DG      H5 9067   5.382   5.296   3.913  1.1255  0.1836 -0.5528
  395DG      H6 9068   5.756   4.612   3.667  1.3297 -0.6421 -0.7510
  395DG      H7 9069   5.732   4.641   3.852 -0.8699  2.7172  3.2943
  395DG      H8 9070   5.641   4.508   3.763 -0.3410 -1.2913 -0.9295
  395DG      O9 9071   5.389   5.088   3.853  0.5137  0.3120 -0.5952
  395DG     O10 9072   5.582   4.700   3.722  0.3267 -0.3583  0.3473
  395DG     C11 9073   5.392   5.098   3.712 -0.7285 -0.2601  0.9042
  395DG     C12 9074   5.500   4.657   3.613 -1.3077 -0.0601 -0.1934
  395DG     H13 9075   5.485   5.132   3.664 -0.7691  2.1372  0.8849
  395DG     H14 9076   5.321   5.179   3.694 -1.0965  0.7042 -0.4576
  395DG     H15 9077   5.476   4.557   3.602  1.5789  1.1941  1.7136
  395DG     H16 9078   5.560   4.672   3.522  0.9191 -0.6280 -2.1154
  395DG     C17 9079   5.331   4.973   3.648 -0.1506 -0.3578  0.9136
  395DG     C18 9080   5.377   4.748   3.611  0.8511  0.1588 -0.0088
  395DG     O19 9081   5.423   4.870   3.657  0.0023  0.5533  0.2869
  395DG     H20 9082   5.309   4.981   3.540  1.0482 -0.9443  1.1378
  395DG     H21 9083   5.246   4.946   3.700 -1.8786  1.0907 -1.1573
  395DG     H22 9084   5.350   4.744   3.507 -1.1571 -1.8155  0.3345
  395DG     H23 9085   5.295   4.706   3.668  0.1139  0.7922 -1.5588
  396DG      C1 9086   3.299   2.771   0.456 -0.0458  0.7593  0.9063
  396DG      C2 9087   3.480   2.053   0.377 -0.0367  0.6320  0.4854
  396DG      H3 9088   3.321   2.802   0.556  0.6755  0.6913 -0.8543
  396DG      H4 9089   3.242   2.853   0.406  1.3002 -1.4131 -0.8360
  396DG      H5 9090   3.398   2.772   0.407  0.3293 -0.1306 -1.8416
  396DG      H6 9091   3.440   1.956   0.390  1.8367  2.1442 -2.4988
  396DG      H7 9092   3.567   2.043   0.307 -0.6495 -0.7920  1.9160
  396DG      H8 9093   3.523   2.059   0.474 -3.6666 -0.6057 -0.6082
  396DG      O9 9094   3.227   2.649   0.448 -0.5447 -0.1444  0.0113
  396DG     O10 9095   3.391   2.158   0.345 -0.1191 -0.0040  0.8134
  396DG     C11 9096   3.217   2.608   0.309  0.5525  0.0386  0.8607
  396DG     C12 9097   3.290   2.157   0.432 -0.2659 -0.2277 -1.0831
  396DG     H13 9098   3.319   2.612   0.258 -0.7702 -1.5832 -3.4272
  396DG     H14 9099   3.148   2.683   0.264 -0.7373  0.9507  2.9244
  396DG     H15 9100   3.320   2.195   0.527  0.1595 -0.8572  2.9264
  396DG     H16 9101   3.234   2.065   0.440  0.9748  0.3941 -2.6944
  396DG     C17 9102   3.148   2.470   0.296 -0.0830  0.0885  0.1779
  396DG     C18 9103   3.185   2.255   0.379 -0.2168  0.1231 -0.4770
  396DG     O19 9104   3.235   2.385   0.367 -0.2738 -0.0866  0.0296
  396DG     H20 9105   3.136   2.455   0.191  1.8815  1.2777  4.7850
  396DG     H21 9106   3.048   2.468   0.329  2.3764 -1.1136 -1.2188
  396DG     H22 9107   3.154   2.209   0.283 -0.3795 -0.2576 -0.0543
  396DG     H23 9108   3.099   2.244   0.451 -0.3598 -0.0544  1.9043
  397DG      C1 9109   2.919   1.703   2.169 -0.7428 -0.4709  0.3145
  397DG      C2 9110   3.468   1.817   2.595 -0.5901 -0.0495  0.3403
  397DG      H3 9111   2.829   1.731   2.125 -0.4576  1.2775  0.9855
  397DG      H4 9112   2.908   1.632   2.248  1.3261  0.0725 -0.0890
  397DG      H5 9113   2.985   1.659   2.087  2.0793 -0.6431 -1.6007
  397DG      H6 9114   3.420   1.739   2.656  3.0620  1.3815  2.1821
  397DG      H7 9115   3.553   1.762   2.547 -0.9800 -0.1093 -3.4744
  397DG      H8 9116   3.498   1.902   2.666 -0.9856  1.8945  1.2986
  397DG      O9 9117   2.979   1.821   2.221  0.2575 -0.7703  0.2285
  397DG     O10 9118   3.375   1.874   2.500  0.2644  0.4193  0.5846
  397DG     C11 9119   2.893   1.874   2.322 -0.5831  0.0306 -0.2403
  397DG     C12 9120   3.299   1.977   2.569  0.5486  0.4558  0.1932
  397DG     H13 9121   2.880   1.796   2.403  0.9950 -0.0974  1.3479
  397DG     H14 9122   2.790   1.896   2.286  0.2204 -2.9442 -0.7033
  397DG     H15 9123   3.360   2.070   2.568  3.1028 -0.6045  0.1062
  397DG     H16 9124   3.266   1.948   2.669 -1.3139 -0.4364  0.2186
  397DG     C17 9125   2.973   1.986   2.386  0.2510  0.1998 -0.4034
  397DG     C18 9126   3.182   2.041   2.485  0.3004  0.0761 -0.4541
  397DG     O19 9127   3.100   1.939   2.426  0.5403  0.2870  0.9298
  397DG     H20 9128   2.909   2.026   2.474  0.0908  0.0356  0.0242
  397DG     H21 9129   2.984   2.062   2.313  0.6482 -3.0609 -1.2967
  397DG     H22 9130   3.116   2.101   2.550 -1.5311  0.0841  1.8064
  397DG     H23 9131   3.216   2.108   2.412  0.1437 -0.1060  2.4704
  398DG      C1 9132   2.441   2.441   4.793 -0.1048 -0.1240  0.7805
  398DG      C2 9133   1.839   2.228   4.418  0.3777  0.3372 -0.2081
  398DG      H3 9134   2.513   2.390   4.863  0.5747 -0.5306  2.0711
  398DG      H4 9135   2.405   2.528   4.846 -0.4740 -0.3574 -1.0435
  398DG      H5 9136   2.485   2.466   4.702 -2.4314  1.9779 -1.2507
  398DG      H6 9137   1.880   2.299   4.352 -1.2669  0.1048  2.3145
  398DG      H7 9138   1.821   2.137   4.363  0.6997 -0.1115 -0.9609
  398DG      H8 9139   1.751   2.282   4.448 -0.3692  0.3086  0.2443
  398DG      O9 9140   2.331   2.345   4.766  0.1059  0.3257  0.0655
  398DG     O10 9141   1.935   2.203   4.522  0.1337 -0.2345  0.4281
  398DG     C11 9142   2.250   2.329   4.882  0.5767  0.2383 -0.4161
  398DG     C12 9143   1.873   2.172   4.651  0.2932 -0.3399  0.6552
  398DG     H13 9144   2.183   2.415   4.898  0.3724  1.8689 -1.2220
  398DG     H14 9145   2.316   2.310   4.969  3.7375 -3.5688  2.8064
  398DG     H15 9146   1.794   2.100   4.641 -2.3160  1.6092  0.6825
  398DG     H16 9147   1.821   2.257   4.692  1.1859 -1.2937  1.0017
  398DG     C17 9148   2.168   2.204   4.875  0.4897  0.4318 -0.6948
  398DG     C18 9149   1.975   2.128   4.756 -0.8089 -0.7157 -0.0293
  398DG     O19 9150   2.070   2.238   4.772  0.5730  0.3835 -0.3112
  398DG     H20 9151   2.124   2.188   4.978  0.0487 -2.3145  0.9911
  398DG     H21 9152   2.246   2.126   4.846 -1.5057  1.1762 -2.9213
  398DG     H22 9153   1.931   2.113   4.854  0.9991 -0.3645  1.2858
  398DG     H23 9154   2.031   2.032   4.727 -2.8442 -0.0501  1.7916
  399DG      C1 9155   5.029   1.135   3.252  0.2676  0.0378  0.6730
  399DG      C2 9156   5.379   1.503   2.801  0.5084  0.0990 -0.1861
  399DG      H3 9157   5.130   1.090   3.244  1.4152 -2.1147 -0.0653
  399DG      H4 9158   4.958   1.053   3.263 -1.4551 -0.8711 -1.8509
  399DG      H5 9159   5.031   1.196   3.344 -0.0473 -0.1293  1.9397
  399DG      H6 9160   5.384   1.407   2.757  0.1873  1.6359  1.1762
  399DG      H7 9161   5.401   1.576   2.725 -1.7487  1.0081  1.6244
  399DG      H8 9162   5.449   1.513   2.884  1.6453 -1.2108 -0.8620
  399DG      O9 9163   5.003   1.211   3.135  0.1746  0.4112  0.9375
  399DG     O10 9164   5.257   1.515   2.875  0.0530 -0.3115 -0.0696
  399DG     C11 9165   4.877   1.285   3.128 -0.1009 -0.0643 -0.9386
  399DG     C12 9166   5.140   1.510   2.799  0.7287 -1.1002  0.3854
  399DG     H13 9167   4.828   1.296   3.225 -0.1677 -2.0042  1.2929
  399DG     H14 9168   4.797   1.223   3.083  1.8893  0.3789 -2.2267
  399DG     H15 9169   5.146   1.415   2.743  2.2409  1.0586  0.2188
  399DG     H16 9170   5.149   1.590   2.726  3.2065 -2.8498 -4.2462
  399DG     C17 9171   4.895   1.422   3.062  0.0843  0.1249  0.6033
  399DG     C18 9172   5.008   1.519   2.879  0.1185  0.0900  0.4144
  399DG     O19 9173   4.987   1.401   2.957  0.1662 -0.0196 -0.1089
  399DG     H20 9174   4.918   1.507   3.133  1.2105  1.3059  1.9998
  399DG     H21 9175   4.804   1.467   3.018  2.6249  2.1277  0.4662
  399DG     H22 9176   5.026   1.596   2.944 -2.1151  2.9253  2.7967
  399DG     H23 9177   4.923   1.543   2.811  2.3433 -0.3624 -0.8227
  400DG      C1 9178   2.110   4.353   4.445 -0.3021 -0.0370  0.0291
  400DG      C2 9179   2.706   4.360   4.748 -0.3077  0.3446 -0.2238
  400DG      H3 9180   2.021   4.404   4.415  0.8726  2.0332  0.9386
  400DG      H4 9181   2.090   4.253   4.426  2.3803  3.1002 -0.9203
  400DG      H5 9182   2.198   4.382   4.388 -0.6074 -0.8638  0.2766
  400DG      H6 9183   2.738   4.256   4.782  0.8651 -0.8305 -0.3427
  400DG      H7 9184   2.746   4.352   4.646  1.0638 -3.4806 -0.6980
  400DG      H8 9185   2.757   4.441   4.793 -0.2224 -1.9543 -0.9647
  400DG      O9 9186   2.130   4.384   4.577 -0.5371 -0.0026 -0.4611
  400DG     O10 9187   2.567   4.379   4.751  0.4287 -0.2615 -0.0717
  400DG     C11 9188   2.161   4.516   4.603 -0.4179 -0.4739  1.4372
  400DG     C12 9189   2.509   4.393   4.878 -0.1198  0.4002  0.8284
  400DG     H13 9190   2.067   4.566   4.575 -1.2188 -2.8099  1.0816
  400DG     H14 9191   2.249   4.574   4.558  3.5902  1.2645  0.6514
  400DG     H15 9192   2.543   4.480   4.928 -0.9853 -0.6071  3.1297
  400DG     H16 9193   2.519   4.300   4.936  0.3230  0.5733 -1.7199
  400DG     C17 9194   2.185   4.535   4.754 -0.0333  0.8741  0.9079
  400DG     C18 9195   2.357   4.400   4.851  0.4648  0.3728 -0.4697
  400DG     O19 9196   2.326   4.526   4.790 -0.7364 -0.5470 -0.4813
  400DG     H20 9197   2.135   4.467   4.818 -1.0888  1.1336  2.7208
  400DG     H21 9198   2.157   4.635   4.771 -1.0229 -2.2329 -0.1153
  400DG     H22 9199   2.328   4.321   4.784 -0.7418  0.1785  1.3337
  400DG     H23 9200   2.292   4.401   4.945  0.4685  3.8768 -1.0183
  401DG      C1 9201   4.211   1.848   4.374 -0.1583 -0.6009 -0.0631
  401DG      C2 9202   4.302   2.032   5.093  0.1160  0.6856  0.6401
  401DG      H3 9203   4.313   1.819   4.355 -0.5193  2.0829  0.1329
  401DG      H4 9204   4.203   1.960   4.370 -2.2526  2.5253 -1.1628
  401DG      H5 9205   4.149   1.818   4.303  0.8888 -2.3597  2.2014
  401DG      H6 9206   4.412   2.010   5.077 -1.4157  0.0791  0.8579
  401DG      H7 9207   4.282   2.131   5.060 -0.9236 -1.3392  0.6529
  401DG      H8 9208   4.284   2.029   5.203  0.2141  2.1071  0.6417
  401DG      O9 9209   4.161   1.800   4.500  0.0812  0.7543 -0.2190
  401DG     O10 9210   4.224   1.933   5.025  0.2338 -0.3095 -0.3100
  401DG     C11 9211   4.054   1.876   4.549  0.1951 -0.7651  0.1423
  401DG     C12 9212   4.080   1.940   5.032 -0.1432 -0.2093  0.6797
  401DG     H13 9213   3.974   1.870   4.473  0.3738 -0.6584 -2.2368
  401DG     H14 9214   4.073   1.981   4.559  0.9607  2.3513 -1.9744
  401DG     H15 9215   4.051   2.046   5.011 -1.4609 -0.8781  0.3144
  401DG     H16 9216   4.046   1.920   5.134 -0.1317  0.3612  4.1002
  401DG     C17 9217   3.997   1.829   4.681  0.0147 -0.1473 -0.0580
  401DG     C18 9218   4.023   1.851   4.923 -0.0472  0.1075  0.9246
  401DG     O19 9219   4.055   1.901   4.793 -0.1974  0.3717 -0.2778
  401DG     H20 9220   4.010   1.721   4.687 -0.4625 -1.4032 -0.0364
  401DG     H21 9221   3.891   1.855   4.679  1.0996 -1.9751 -0.1928
  401DG     H22 9222   4.073   1.751   4.942  1.6656  1.1427  0.7001
  401DG     H23 9223   3.915   1.853   4.921 -1.6534  1.1131  1.4789
  402DG      C1 9224   3.656   2.405   2.486  0.5031 -0.8802  0.2335
  402DG      C2 9225   3.336   2.914   2.993  0.5620 -0.0874  0.2839
  402DG      H3 9226   3.570   2.338   2.488 -1.9628  2.5096  2.0880
  402DG      H4 9227   3.728   2.376   2.559 -1.8438 -1.8178  1.0261
  402DG      H5 9228   3.700   2.388   2.395 -0.8988 -0.5505  0.1178
  402DG      H6 9229   3.403   2.919   3.080 -1.4267 -0.5914  0.0937
  402DG      H7 9230   3.311   3.007   2.948  0.9256 -2.5408 -0.1462
  402DG      H8 9231   3.241   2.882   3.035  4.1735 -0.7390 -0.0227
  402DG      O9 9232   3.618   2.538   2.515  0.0240 -0.1731 -0.1986
  402DG     O10 9233   3.371   2.825   2.891  0.3835  0.5802  0.9858
  402DG     C11 9234   3.730   2.620   2.518 -0.1437  0.0709  0.3044
  402DG     C12 9235   3.513   2.839   2.861  0.7112  0.5009  0.1530
  402DG     H13 9236   3.783   2.607   2.425 -1.2387 -2.5071  0.0673
  402DG     H14 9237   3.796   2.575   2.600 -0.1740 -0.6109 -0.8392
  402DG     H15 9238   3.582   2.815   2.943 -1.8786 -1.1011  1.7477
  402DG     H16 9239   3.525   2.939   2.835  1.8396 -0.6858 -0.5029
  402DG     C17 9240   3.712   2.769   2.553 -0.4104 -0.7310  0.4085
  402DG     C18 9241   3.544   2.773   2.724  0.5638 -0.2074  0.7594
  402DG     O19 9242   3.683   2.789   2.689  0.0902 -0.8210 -0.0564
  402DG     H20 9243   3.633   2.814   2.492  1.6135  0.1001 -1.4481
  402DG     H21 9244   3.810   2.820   2.535 -1.6849  0.8722 -0.5575
  402DG     H22 9245   3.525   2.662   2.716  0.5189 -2.0505  2.2002
  402DG     H23 9246   3.478   2.817   2.650  2.6389  0.1219 -0.6947
  403DG      C1 9247   3.173   3.063   3.663 -0.2770  0.6339  0.0285
  403DG      C2 9248   2.681   3.084   3.625 -0.2633  0.4167  0.4867
  403DG      H3 9249   3.262   2.994   3.645  1.4643 -3.5222  0.4649
  403DG      H4 9250   3.187   3.152   3.606 -0.1452  1.7515 -3.8605
  403DG      H5 9251   3.081   3.019   3.619 -0.2164 -0.4929  1.5370
  403DG      H6 9252   2.572   3.078   3.654 -2.5827 -0.5453  1.1594
  403DG      H7 9253   2.741   3.125   3.703 -1.3040 -1.1772 -1.9607
  403DG      H8 9254   2.705   3.136   3.528  1.3945 -0.3221 -0.9282
  403DG      O9 9255   3.153   3.103   3.798 -0.5712  0.1509 -0.2797
  403DG     O10 9256   2.731   2.950   3.617 -1.2102  0.3289  0.7166
  403DG     C11 9257   3.143   2.990   3.885  0.3517 -0.6820 -0.1656
  403DG     C12 9258   2.698   2.873   3.729  0.6846 -0.3613 -0.6963
  403DG     H13 9259   3.203   3.009   3.973  2.7394  0.2853  2.0768
  403DG     H14 9260   3.187   2.898   3.848  0.9225  0.8401 -2.6076
  403DG     H15 9261   2.708   2.769   3.704 -0.2073 -0.4991  0.6162
  403DG     H16 9262   2.589   2.882   3.756 -1.8834 -2.3049  1.3549
  403DG     C17 9263   3.002   2.968   3.930 -0.1817 -0.3518  0.5749
  403DG     C18 9264   2.790   2.896   3.855 -0.5812 -0.0886  0.1639
  403DG     O19 9265   2.924   2.942   3.822 -0.3728 -0.4901 -0.5354
  403DG     H20 9266   2.979   3.053   3.990 -3.2502 -0.5392 -0.3365
  403DG     H21 9267   3.012   2.879   3.992  0.6186  0.0759 -1.4414
  403DG     H22 9268   2.734   2.966   3.915  0.4923  0.9447 -0.4009
  403DG     H23 9269   2.781   2.804   3.911  1.3444  1.9225 -1.1081
  404DG      C1 9270   1.768   2.412   1.807  0.7296 -0.3342  0.3523
  404DG      C2 9271   2.514   2.557   1.591  0.1046  0.1163  0.1773
  404DG      H3 9272   1.669   2.381   1.801  0.0635  2.6459  0.0809
  404DG      H4 9273   1.784   2.468   1.903 -1.4574  0.2505  1.4323
  404DG      H5 9274   1.837   2.331   1.822  2.3081  3.7754 -0.0149
  404DG      H6 9275   2.526   2.462   1.637 -1.5023  0.6334  0.9629
  404DG      H7 9276   2.575   2.562   1.499  1.3848 -0.1670 -0.7933
  404DG      H8 9277   2.539   2.629   1.677 -0.8254 -1.6119 -0.7371
  404DG      O9 9278   1.800   2.492   1.697 -0.0658  0.0560  0.7701
  404DG     O10 9279   2.368   2.569   1.562 -0.1846  0.2273  0.0584
  404DG     C11 9280   1.936   2.535   1.699  0.2378 -0.3149  0.0227
  404DG     C12 9281   2.332   2.703   1.512 -1.1186  0.2309  0.0142
  404DG     H13 9282   1.999   2.455   1.725  0.7247 -1.1573  0.3075
  404DG     H14 9283   1.958   2.607   1.779  0.4847 -0.8240  3.4705
  404DG     H15 9284   2.388   2.721   1.416  2.1345 -1.6574  0.6266
  404DG     H16 9285   2.339   2.785   1.578 -0.7030  0.4176 -4.2274
  404DG     C17 9286   1.985   2.603   1.559 -0.3765  0.5731 -0.0762
  404DG     C18 9287   2.185   2.703   1.479 -0.2484 -0.2269  0.3916
  404DG     O19 9288   2.109   2.656   1.587 -0.3078  0.5204 -0.3803
  404DG     H20 9289   1.924   2.689   1.540  2.7078  0.8234 -0.2926
  404DG     H21 9290   1.995   2.535   1.475  1.4378  0.5233 -0.3905
  404DG     H22 9291   2.151   2.805   1.459 -0.8016 -0.4312 -0.6560
  404DG     H23 9292   2.174   2.637   1.391 -1.1535  0.9408  1.0052
  405DG      C1 9293   5.097   3.869   4.820  0.1644 -0.9592  0.2281
  405DG      C2 9294   5.240   4.459   5.017 -0.1844  0.0998 -0.0511
  405DG      H3 9295   5.040   3.913   4.732  0.8290 -0.3544 -3.3839
  405DG      H4 9296   5.070   3.757   4.820  0.5187 -0.6869 -2.2912
  405DG      H5 9297   5.201   3.887   4.799 -2.4248  2.8973  0.5202
  405DG      H6 9298   5.337   4.414   5.033  1.2083 -2.4849 -1.5438
  405DG      H7 9299   5.241   4.485   4.911  0.7944 -0.1352  0.3582
  405DG      H8 9300   5.214   4.544   5.075 -1.5749 -1.9090 -0.1735
  405DG      O9 9301   5.061   3.940   4.943  0.3718 -0.5269  0.3729
  405DG     O10 9302   5.154   4.351   5.059  0.9476 -0.1754 -0.3667
  405DG     C11 9303   4.922   3.949   4.954  0.4022 -0.1871  0.0803
  405DG     C12 9304   5.016   4.404   5.073 -0.8653 -0.0077  0.3439
  405DG     H13 9305   4.880   3.857   4.996 -1.2676  0.4302  0.5008
  405DG     H14 9306   4.878   3.965   4.849  1.8747 -0.5744 -0.4309
  405DG     H15 9307   4.991   4.459   4.982  0.5801 -1.0182 -2.7780
  405DG     H16 9308   5.017   4.475   5.159  1.6804  0.5645 -0.7027
  405DG     C17 9309   4.882   4.067   5.040 -0.6773  0.9880 -0.0864
  405DG     C18 9310   4.916   4.285   5.111 -0.3078  0.2545  0.2435
  405DG     O19 9311   4.955   4.181   5.024 -1.0457  0.4777 -0.2471
  405DG     H20 9312   4.885   4.037   5.146  0.7538 -1.0145  0.0368
  405DG     H21 9313   4.775   4.094   5.015 -1.4307  0.1372 -0.1725
  405DG     H22 9314   4.928   4.258   5.213  0.1464  1.4349 -0.0872
  405DG     H23 9315   4.814   4.310   5.104 -2.2941 -3.3132  0.2148
  406DG      C1 9316   3.977   0.616   1.140 -0.0914 -0.2571 -0.3720
  406DG      C2 9317   4.402   0.112   1.092  1.3358 -0.7827 -0.0259
  406DG      H3 9318   3.889   0.614   1.210  1.1246 -1.6338 -2.7655
  406DG      H4 9319   3.953   0.680   1.048 -1.3202 -2.4664 -1.1258
  406DG      H5 9320   4.072   0.659   1.179  0.8451  1.4620 -0.9984
  406DG      H6 9321   4.411  -0.001   1.113  0.8043 -1.4900 -0.6249
  406DG      H7 9322   4.475   0.147   1.020 -1.2025  0.5342 -2.0158
  406DG      H8 9323   4.426   0.157   1.188 -0.9225  0.6252 -2.0816
  406DG      O9 9324   3.996   0.488   1.096 -0.1667 -0.4381  0.2152
  406DG     O10 9325   4.261   0.142   1.064  0.3790  0.9399  0.1011
  406DG     C11 9326   3.881   0.433   1.025 -0.6518  0.5985 -0.3580
  406DG     C12 9327   4.213   0.100   0.933  0.5170 -0.4678  0.1160
  406DG     H13 9328   3.876   0.483   0.930 -0.3982 -2.9153 -0.4887
  406DG     H14 9329   3.793   0.437   1.087  0.7994 -0.4045  2.2637
  406DG     H15 9330   4.212  -0.009   0.911  1.4203 -0.5122 -0.9541
  406DG     H16 9331   4.262   0.160   0.856 -1.5453 -3.7990 -0.4879
  406DG     C17 9332   3.900   0.282   0.996  0.4483  0.6717  0.0350
  406DG     C18 9333   4.067   0.129   0.934  0.1113 -0.0652  0.0532
  406DG     O19 9334   4.037   0.258   0.963  0.5495  0.3336 -0.1738
  406DG     H20 9335   3.832   0.242   0.918 -0.2149  1.5551  0.2544
  406DG     H21 9336   3.854   0.233   1.076  0.2065  1.1693  1.8017
  406DG     H22 9337   4.034   0.117   0.833  0.2108  4.1593  1.1425
  406DG     H23 9338   4.014   0.060   1.003  0.9077 -1.4077 -0.5491
  407DG      C1 9339   0.926   1.704   1.922  0.6502 -0.0148 -0.3273
  407DG      C2 9340   1.268   1.456   2.677  0.2648  0.8053 -0.0157
  407DG      H3 9341   0.845   1.633   1.884  0.0377  1.4086  1.8254
  407DG      H4 9342   0.994   1.749   1.843  0.5858  0.9132  1.3080
  407DG      H5 9343   0.880   1.788   1.970  2.3545 -1.0380 -3.5830
  407DG      H6 9344   1.366   1.426   2.722  2.1998  2.2661  2.8490
  407DG      H7 9345   1.275   1.568   2.694  1.0033  0.5430 -1.3447
  407DG      H8 9346   1.185   1.405   2.725  0.8862  0.7923  0.4524
  407DG      O9 9347   0.999   1.644   2.031  0.0598  0.3228  0.0224
  407DG     O10 9348   1.281   1.433   2.540  0.1628  0.6959  0.4014
  407DG     C11 9349   1.049   1.518   1.998 -0.2115 -0.3269 -0.1201
  407DG     C12 9350   1.184   1.489   2.460  0.3797  0.4353  0.0921
  407DG     H13 9351   1.071   1.514   1.891 -0.4773 -0.6324 -0.6158
  407DG     H14 9352   0.973   1.442   2.020 -0.8527  0.1683  3.6906
  407DG     H15 9353   1.144   1.588   2.483 -1.0141 -1.1188  0.4275
  407DG     H16 9354   1.092   1.427   2.473  0.3679  3.3325  4.0132
  407DG     C17 9355   1.168   1.504   2.092  0.0099  0.6011  0.0665
  407DG     C18 9356   1.241   1.488   2.320  0.1147 -0.7297 -0.4953
  407DG     O19 9357   1.132   1.494   2.229 -0.4749  0.5780  0.0859
  407DG     H20 9358   1.230   1.590   2.071  2.5188 -0.5827 -0.8252
  407DG     H21 9359   1.240   1.430   2.061 -0.0013  3.4867 -1.5684
  407DG     H22 9360   1.316   1.561   2.299 -0.1069  0.3394 -0.9132
  407DG     H23 9361   1.291   1.389   2.316  0.6862 -0.4477  0.2960
  408DG      C1 9362   4.713   2.668   1.067 -0.0722 -1.1741  0.1339
  408DG      C2 9363   5.324   2.890   1.231 -0.1443  0.2674 -0.5604
  408DG      H3 9364   4.626   2.733   1.064 -0.8830 -0.9717 -2.5519
  408DG      H4 9365   4.717   2.604   1.158  0.0773 -2.9823  1.2235
  408DG      H5 9366   4.683   2.599   0.988 -0.1522 -2.3127 -2.3542
  408DG      H6 9367   5.341   2.812   1.302  1.2058 -0.0345 -2.1524
  408DG      H7 9368   5.430   2.924   1.204 -1.9382  1.6113  1.6676
  408DG      H8 9369   5.273   2.961   1.297 -0.6479  2.9413  1.0855
  408DG      O9 9370   4.844   2.730   1.051  0.2803  0.3286  0.2138
  408DG     O10 9371   5.237   2.846   1.125  0.0424 -0.8619 -0.1640
  408DG     C11 9372   4.867   2.796   0.926 -0.3078 -0.4916 -0.2964
  408DG     C12 9373   5.302   2.762   1.031 -0.0078 -0.3196  0.8990
  408DG     H13 9374   4.812   2.885   0.947 -4.5556 -0.0006 -0.2291
  408DG     H14 9375   4.817   2.736   0.843  0.5573  0.6317  1.2982
  408DG     H15 9376   5.313   2.662   1.067 -0.7675 -1.6397 -3.4666
  408DG     H16 9377   5.398   2.789   1.012 -4.2574  0.4251 -0.0318
  408DG     C17 9378   5.014   2.835   0.901 -0.4250  0.0656 -0.6655
  408DG     C18 9379   5.237   2.756   0.892 -0.0166  0.3580 -0.1207
  408DG     O19 9380   5.098   2.720   0.898  0.1220 -0.0683 -0.0931
  408DG     H20 9381   5.044   2.912   0.974  1.8721 -2.1578 -0.3262
  408DG     H21 9382   5.017   2.881   0.800  1.0079 -3.3454  0.8529
  408DG     H22 9383   5.254   2.849   0.837 -0.0820 -1.3380 -0.6215
  408DG     H23 9384   5.290   2.675   0.840  0.3146 -2.6101  0.4021
  409DG      C1 9385   1.378   3.158   4.829  0.5250 -0.0619 -0.0380
  409DG      C2 9386   1.936   2.668   4.933 -0.3031  0.0444  0.7670
  409DG      H3 9387   1.340   3.225   4.747 -0.6825  0.0591  2.0479
  409DG      H4 9388   1.436   3.228   4.887  0.5325  0.1376 -0.8530
  409DG      H5 9389   1.297   3.123   4.890 -3.2356 -0.9660  0.2386
  409DG      H6 9390   2.038   2.710   4.912  0.7891  3.1761 -2.6694
  409DG      H7 9391   1.868   2.752   4.936  1.3704 -0.6925  1.0136
  409DG      H8 9392   1.928   2.614   5.034 -0.3175  0.9000  1.5589
  409DG      O9 9393   1.455   3.068   4.764  0.5737  0.4378  0.0178
  409DG     O10 9394   1.886   2.582   4.831 -0.0203  0.5824  0.7770
  409DG     C11 9395   1.534   2.978   4.837  0.1295  0.4222 -0.0041
  409DG     C12 9396   1.747   2.547   4.848 -0.2000  0.7982  0.1372
  409DG     H13 9397   1.466   2.940   4.915  2.3870 -1.0000 -1.2317
  409DG     H14 9398   1.624   3.022   4.879 -4.9354 -2.0398  0.5017
  409DG     H15 9399   1.716   2.555   4.951  1.8626  0.3580  0.8649
  409DG     H16 9400   1.744   2.444   4.807  0.2727 -2.6078  0.4154
  409DG     C17 9401   1.577   2.863   4.740  0.2352  0.0286 -0.3424
  409DG     C18 9402   1.670   2.644   4.758  0.2455  0.2383 -0.0709
  409DG     O19 9403   1.662   2.773   4.808 -0.4289 -0.2089 -0.1573
  409DG     H20 9404   1.637   2.913   4.660 -2.4565  2.4393 -2.1699
  409DG     H21 9405   1.494   2.834   4.683 -1.4716  0.4683 -1.5063
  409DG     H22 9406   1.733   2.641   4.670  0.9291  1.7502  0.0919
  409DG     H23 9407   1.568   2.606   4.741 -0.8869 -0.8746 -4.1436
  410DG      C1 9408   4.377   2.835   1.428  0.1463  0.0996  0.3478
  410DG      C2 9409   5.021   2.780   1.940 -0.7689 -0.2211  0.0917
  410DG      H3 9410   4.320   2.816   1.512  3.0747 -1.7255 -1.6912
  410DG      H4 9411   4.400   2.743   1.385 -1.4852  0.6080  2.3418
  410DG      H5 9412   4.307   2.875   1.353  0.8117 -0.7713  0.5691
  410DG      H6 9413   5.018   2.714   2.024  1.6161 -1.9488  0.3242
  410DG      H7 9414   5.071   2.734   1.857  0.0950 -0.4956 -0.0973
  410DG      H8 9415   5.085   2.866   1.968  1.7237 -1.7895 -1.5109
  410DG      O9 9416   4.487   2.918   1.458  0.1975  0.7176 -0.1328
  410DG     O10 9417   4.890   2.810   1.908  0.0227 -0.4723  0.4865
  410DG     C11 9418   4.592   2.850   1.507 -0.0116 -0.7547 -0.3266
  410DG     C12 9419   4.809   2.694   1.898  0.1802  0.3985  0.1562
  410DG     H13 9420   4.673   2.923   1.507  0.6750 -0.0656  2.1634
  410DG     H14 9421   4.631   2.776   1.435  1.2148  0.0387  0.8483
  410DG     H15 9422   4.800   2.640   2.000  1.9432 -0.4649  3.0234
  410DG     H16 9423   4.860   2.624   1.840 -1.0392 -1.4334 -3.1121
  410DG     C17 9424   4.564   2.800   1.650  0.2176  0.5231  0.4579
  410DG     C18 9425   4.668   2.734   1.840  0.4255 -0.5128  0.0677
  410DG     O19 9426   4.687   2.775   1.708  0.2303  0.1198  0.1855
  410DG     H20 9427   4.501   2.713   1.654 -0.5188  0.0872 -1.1112
  410DG     H21 9428   4.506   2.874   1.709 -0.6435 -0.1754  1.5554
  410DG     H22 9429   4.597   2.656   1.845  1.7311  0.6849  2.0429
  410DG     H23 9430   4.635   2.826   1.891 -0.3253  1.0351  1.6759
  411DG      C1 9431   3.898   1.259   0.451  0.3257 -0.2038  0.3427
  411DG      C2 9432   4.434   0.956   0.382 -0.0261  1.0673  0.3687
  411DG      H3 9433   3.967   1.330   0.493 -1.4174 -1.8175  1.4242
  411DG      H4 9434   3.860   1.185   0.528 -0.1200  0.7152 -0.8812
  411DG      H5 9435   3.814   1.316   0.415 -0.5058 -3.3887 -2.3640
  411DG      H6 9436   4.465   1.038   0.444 -0.0615  3.5953 -1.6892
  411DG      H7 9437   4.502   0.878   0.399 -0.2897 -0.4519 -0.0857
  411DG      H8 9438   4.451   0.991   0.280 -0.9225 -1.6616 -0.4432
  411DG      O9 9439   3.976   1.195   0.349  0.3175  0.1385  0.1520
  411DG     O10 9440   4.296   0.920   0.401 -0.5320  0.1904 -1.0566
  411DG     C11 9441   3.894   1.109   0.264  0.1840 -0.4282  0.2963
  411DG     C12 9442   4.253   0.808   0.329  0.1963  0.0971  0.2899
  411DG     H13 9443   3.922   1.124   0.163  2.7696  0.4307  0.3186
  411DG     H14 9444   3.789   1.144   0.273 -0.1930  2.3520 -0.2227
  411DG     H15 9445   4.294   0.718   0.382 -1.8692 -0.5922  2.6716
  411DG     H16 9446   4.286   0.815   0.227 -1.0813 -1.5173 -1.0302
  411DG     C17 9447   3.919   0.963   0.300  0.2938 -0.1673 -0.8132
  411DG     C18 9448   4.101   0.806   0.327 -0.3915 -0.0106  0.6309
  411DG     O19 9449   4.059   0.939   0.282  0.3101  0.1236  0.1692
  411DG     H20 9450   3.862   0.897   0.229 -0.3657 -0.8240  0.1980
  411DG     H21 9451   3.891   0.934   0.395 -3.1220 -1.3831 -3.0735
  411DG     H22 9452   4.071   0.739   0.243 -1.1223 -1.2654 -0.3235
  411DG     H23 9453   4.073   0.771   0.417  1.0274  1.7454 -3.1131
  412DG      C1 9454   3.383   0.394   0.090 -0.1209 -0.1825 -0.2942
  412DG      C2 9455   3.185   0.480  -0.534  0.2031 -0.0901 -0.0983
  412DG      H3 9456   3.452   0.313   0.109 -0.6663 -0.8931  1.3040
  412DG      H4 9457   3.333   0.421   0.186 -0.5121 -0.1342  2.6424
  412DG      H5 9458   3.433   0.487   0.053 -1.3535 -0.8674 -1.7715
  412DG      H6 9459   3.089   0.509  -0.586  0.5364  4.1943  1.4887
  412DG      H7 9460   3.235   0.578  -0.524  2.1290 -0.0607 -0.7224
  412DG      H8 9461   3.239   0.420  -0.609 -1.1570  3.4703  1.4935
  412DG      O9 9462   3.277   0.357   0.000 -0.0529  0.0352 -0.0617
  412DG     O10 9463   3.159   0.412  -0.406 -0.1158  0.2733 -0.6144
  412DG     C11 9464   3.218   0.236   0.029 -0.4105  0.0396  0.1431
  412DG     C12 9465   3.085   0.289  -0.422  0.0467 -0.2346 -0.0002
  412DG     H13 9466   3.192   0.235   0.134 -0.7843  1.2290 -0.4792
  412DG     H14 9467   3.301   0.157   0.031  3.0863  2.0769 -2.3336
  412DG     H15 9468   3.146   0.205  -0.452 -0.2585  0.3137 -0.2895
  412DG     H16 9469   3.015   0.299  -0.508 -1.6306  1.0813 -0.1311
  412DG     C17 9470   3.089   0.210  -0.063 -0.0030 -0.0087 -0.1120
  412DG     C18 9471   3.022   0.241  -0.286  0.9007  0.6935  0.2467
  412DG     O19 9472   3.122   0.256  -0.190  0.4194 -0.4739 -0.3859
  412DG     H20 9473   2.998   0.259  -0.011 -2.0480  0.6451  1.9447
  412DG     H21 9474   3.062   0.101  -0.052  0.1747  0.3918  2.2718
  412DG     H22 9475   2.946   0.313  -0.247 -0.0402 -0.5831  0.8862
  412DG     H23 9476   2.984   0.140  -0.285  3.2844 -0.0072 -0.2413
  413DG      C1 9477   2.735   1.484   4.673  0.5147 -0.8395 -0.6043
  413DG      C2 9478   3.324   1.723   5.181  0.7090 -0.2734 -0.3336
  413DG      H3 9479   2.658   1.564   4.665  0.6464 -1.2883 -1.4321
  413DG      H4 9480   2.678   1.392   4.677  2.0428  0.3823 -0.7745
  413DG      H5 9481   2.800   1.487   4.588 -0.7028 -1.3902 -0.0045
  413DG      H6 9482   3.241   1.765   5.235  0.2342 -1.8583 -0.8012
  413DG      H7 9483   3.393   1.668   5.243 -0.5368 -1.6054 -2.5841
  413DG      H8 9484   3.365   1.808   5.127  1.4190 -0.4600 -2.7212
  413DG      O9 9485   2.815   1.471   4.788  0.1773  0.1348  0.5198
  413DG     O10 9486   3.251   1.639   5.092 -0.5909 -0.2466  0.3324
  413DG     C11 9487   2.892   1.587   4.815 -0.8120 -0.8191 -0.1364
  413DG     C12 9488   3.199   1.520   5.163 -0.4929 -0.4454  0.0942
  413DG     H13 9489   2.838   1.668   4.865 -0.9898 -0.1189  2.3663
  413DG     H14 9490   2.917   1.638   4.719  1.5378 -0.3197  0.9909
  413DG     H15 9491   3.138   1.540   5.253  1.8799  0.2784  1.9828
  413DG     H16 9492   3.284   1.466   5.214  3.3496 -0.5849 -1.8125
  413DG     C17 9493   3.028   1.553   4.883  0.2929 -0.3811  0.1413
  413DG     C18 9494   3.110   1.432   5.076  0.4027  0.3839 -0.6841
  413DG     O19 9495   3.000   1.504   5.014  0.0498  0.1277 -0.3875
  413DG     H20 9496   3.103   1.636   4.880  1.8007 -1.5109  1.6344
  413DG     H21 9497   3.078   1.485   4.817  2.5127 -1.7412  3.0166
  413DG     H22 9498   3.167   1.363   5.015  3.8456 -0.3289  2.2744
  413DG     H23 9499   3.067   1.357   5.142  2.3367 -1.7102 -1.4091
  414DG      C1 9500   2.807   1.260   3.989 -0.2663 -0.6946 -0.6806
  414DG      C2 9501   2.492   1.858   3.970  0.7199  0.2329 -0.7271
  414DG      H3 9502   2.846   1.304   4.081 -1.4869 -1.0421 -2.4812
  414DG      H4 9503   2.873   1.289   3.909  0.8301  2.2567 -2.7814
  414DG      H5 9504   2.797   1.156   4.012  0.3376  0.6552 -0.9087
  414DG      H6 9505   2.512   1.876   4.075  1.7685 -0.1637  1.1631
  414DG      H7 9506   2.495   1.948   3.910  0.0021 -1.3869  1.3970
  414DG      H8 9507   2.385   1.836   3.966 -0.1485  1.3060 -0.4385
  414DG      O9 9508   2.672   1.307   3.963  0.1875 -0.4874  0.2056
  414DG     O10 9509   2.562   1.746   3.917 -0.2105  0.1095  0.0127
  414DG     C11 9510   2.626   1.282   3.825  0.5658 -0.3480  0.1310
  414DG     C12 9511   2.536   1.742   3.773 -0.0822  0.7462  0.0003
  414DG     H13 9512   2.519   1.249   3.836 -0.5348  2.0763  2.1158
  414DG     H14 9513   2.686   1.211   3.771  3.5495  0.7566  1.1958
  414DG     H15 9514   2.565   1.831   3.721  0.5694 -0.2077  2.1853
  414DG     H16 9515   2.431   1.743   3.759  2.2050 -0.4769  2.5385
  414DG     C17 9516   2.644   1.399   3.731 -0.0059 -0.4548  0.5505
  414DG     C18 9517   2.610   1.619   3.717  0.0552  0.5361 -0.2174
  414DG     O19 9518   2.578   1.506   3.790  0.2083 -0.3131  0.0646
  414DG     H20 9519   2.610   1.370   3.628  1.2541  1.2974 -1.2130
  414DG     H21 9520   2.752   1.411   3.729  0.9833  0.3800  0.6469
  414DG     H22 9521   2.590   1.611   3.609  1.0238 -0.9309 -1.6900
  414DG     H23 9522   2.717   1.640   3.733  0.6232  1.7324 -0.5377
  415DG      C1 9523   2.309   3.888   2.379  0.0683 -0.5230  0.0095
  415DG      C2 9524   2.087   3.955   1.774 -0.2700  0.5662  0.4859
  415DG      H3 9525   2.366   3.923   2.465 -0.8749 -2.6798  0.1493
  415DG      H4 9526   2.356   3.815   2.314  0.3111  3.4282 -3.3028
  415DG      H5 9527   2.218   3.858   2.428 -0.1666 -0.2482  0.2750
  415DG      H6 9528   2.096   4.035   1.700  1.9114 -1.8566 -0.3230
  415DG      H7 9529   2.172   3.904   1.756 -1.9209  0.2776 -0.8510
  415DG      H8 9530   2.001   3.887   1.760 -2.0130 -0.9200  2.0973
  415DG      O9 9531   2.276   4.003   2.298  0.1315 -0.7808  0.6102
  415DG     O10 9532   2.086   4.008   1.908  0.1513 -0.2479 -0.0048
  415DG     C11 9533   2.163   4.067   2.357 -0.5099  0.1641  0.0504
  415DG     C12 9534   1.961   4.063   1.942 -0.4590  0.2353  0.3448
  415DG     H13 9535   2.198   4.128   2.443 -0.9168 -1.3836  0.2993
  415DG     H14 9536   2.079   4.008   2.396 -1.0488  0.5056  0.6662
  415DG     H15 9537   1.901   3.979   1.959  2.8116  1.8158  1.8298
  415DG     H16 9538   1.899   4.110   1.856 -0.9662  3.2020  0.9350
  415DG     C17 9539   2.115   4.164   2.254  0.2878  0.5988  0.5378
  415DG     C18 9540   1.984   4.156   2.063 -0.5313  0.2867  0.0818
  415DG     O19 9541   2.066   4.084   2.151 -0.6932 -0.1877  0.2075
  415DG     H20 9542   2.198   4.226   2.230 -0.5049 -2.7747 -0.8335
  415DG     H21 9543   2.035   4.228   2.297 -0.0994 -1.6009 -1.6507
  415DG     H22 9544   2.025   4.254   2.031  1.6317  0.2631  0.6766
  415DG     H23 9545   1.876   4.178   2.098 -1.4980 -2.0467 -0.5513
  416DG      C1 9546   1.751   1.506   3.053 -0.2886  0.7221 -0.0793
  416DG      C2 9547   1.656   1.154   2.314 -0.5062  0.1909  0.1073
  416DG      H3 9548   1.777   1.397   3.079 -2.4477 -1.2942  0.3287
  416DG      H4 9549   1.657   1.526   3.093 -0.7575 -2.1660 -1.5882
  416DG      H5 9550   1.828   1.564   3.104  3.4292 -0.6700 -3.5059
  416DG      H6 9551   1.686   1.188   2.212  0.3656  1.4912 -2.1595
  416DG      H7 9552   1.712   1.062   2.343 -1.6981 -3.8314  2.0093
  416DG      H8 9553   1.553   1.129   2.320  3.8497  2.9278  0.9479
  416DG      O9 9554   1.770   1.529   2.914 -0.0672 -0.0823 -0.3910
  416DG     O10 9555   1.665   1.261   2.411 -0.1566 -0.9537  0.3562
  416DG     C11 9556   1.683   1.457   2.830  0.2979 -0.2516  0.4406
  416DG     C12 9557   1.606   1.380   2.375 -0.4423 -0.3547 -0.7957
  416DG     H13 9558   1.588   1.495   2.840 -1.2286 -0.1379  1.1868
  416DG     H14 9559   1.672   1.350   2.857 -0.8328 -1.6781 -1.7186
  416DG     H15 9560   1.499   1.383   2.386 -1.1935  0.3380  1.2681
  416DG     H16 9561   1.618   1.408   2.270  1.5496 -1.1235 -1.3432
  416DG     C17 9562   1.731   1.480   2.688  0.3646 -0.9202 -0.2787
  416DG     C18 9563   1.663   1.491   2.461  0.3536  0.4586  0.4709
  416DG     O19 9564   1.627   1.449   2.596 -0.1305 -0.4539  0.2555
  416DG     H20 9565   1.814   1.419   2.684 -3.6001  0.7806  0.9006
  416DG     H21 9566   1.774   1.580   2.674  1.1488  0.3706  3.4270
  416DG     H22 9567   1.767   1.509   2.441 -1.3403  3.8375  1.1079
  416DG     H23 9568   1.613   1.593   2.449 -0.3651 -0.6886 -1.7053
  417DG      C1 9569   5.185   1.891   5.361  0.2070 -0.8071  0.3016
  417DG      C2 9570   5.605   2.519   5.132  0.1085  0.0069  0.3542
  417DG      H3 9571   5.216   1.794   5.333 -0.2792  1.4124  2.0602
  417DG      H4 9572   5.101   1.929   5.299 -0.8628 -1.6343 -0.2078
  417DG      H5 9573   5.146   1.879   5.465  0.7863  1.4638  0.4930
  417DG      H6 9574   5.617   2.460   5.039  1.0092  0.4634 -1.8474
  417DG      H7 9575   5.524   2.595   5.111 -2.3496  0.0888 -0.5943
  417DG      H8 9576   5.697   2.568   5.162 -1.5671 -0.2671  0.9860
  417DG      O9 9577   5.299   1.975   5.355 -0.1714  0.2211 -0.0148
  417DG     O10 9578   5.566   2.433   5.236  0.4218  0.5383 -0.7355
  417DG     C11 9579   5.282   2.108   5.404 -0.5468 -0.1356  0.3811
  417DG     C12 9580   5.553   2.495   5.365 -0.1564 -0.1356 -0.3741
  417DG     H13 9581   5.221   2.122   5.489  0.3836 -0.2493  0.3235
  417DG     H14 9582   5.234   2.179   5.337 -1.1546 -1.3150  0.3710
  417DG     H15 9583   5.473   2.565   5.363  1.3915 -1.3255 -1.2379
  417DG     H16 9584   5.645   2.545   5.399 -2.3138  0.2293 -1.7247
  417DG     C17 9585   5.417   2.169   5.436 -0.5865 -0.6034  0.2990
  417DG     C18 9586   5.521   2.386   5.462  0.1084  0.0287 -0.1441
  417DG     O19 9587   5.403   2.316   5.424  0.4067  0.0512  0.5381
  417DG     H20 9588   5.486   2.136   5.363 -0.6267 -0.3732  0.4545
  417DG     H21 9589   5.450   2.142   5.535 -1.8672 -0.2829  1.3148
  417DG     H22 9590   5.614   2.324   5.477 -1.3434  1.3414 -0.1727
  417DG     H23 9591   5.496   2.434   5.555 -0.7934 -1.0966  2.5831
  418DG      C1 9592   0.177   2.163   5.133  0.4675  0.7478 -0.6144
  418DG      C2 9593   0.208   1.653   4.867 -0.1637  0.1489  0.0211
  418DG      H3 9594   0.275   2.197   5.172  0.9627 -0.7112  1.6967
  418DG      H4 9595   0.103   2.195   5.199 -0.1670 -0.5602  1.6554
  418DG      H5 9596   0.161   2.210   5.035  0.7704 -0.2733 -0.2273
  418DG      H6 9597   0.158   1.733   4.926 -0.5513  1.4604 -1.8572
  418DG      H7 9598   0.267   1.705   4.796  1.3697 -1.0986 -3.5467
  418DG      H8 9599   0.122   1.601   4.831 -1.3558  0.1963  1.3335
  418DG      O9 9600   0.163   2.025   5.128  0.1054  0.3193  0.7734
  418DG     O10 9601   0.306   1.574   4.939  0.2224  0.1619 -0.0476
  418DG     C11 9602   0.209   1.950   5.237 -0.1304  0.0943  0.4297
  418DG     C12 9603   0.258   1.503   5.052  0.2552  0.0612 -0.1819
  418DG     H13 9604   0.175   1.999   5.323 -4.5591 -3.1085 -1.7561
  418DG     H14 9605   0.319   1.957   5.238 -0.1269 -2.4047 -3.4863
  418DG     H15 9606   0.341   1.458   5.105 -2.5010  0.8478  1.2003
  418DG     H16 9607   0.192   1.424   5.017 -0.3255  0.1981 -2.4004
  418DG     C17 9608   0.158   1.805   5.233 -0.5521  0.0725 -0.5541
  418DG     C18 9609   0.175   1.586   5.149 -0.3145  0.4115  0.2032
  418DG     O19 9610   0.223   1.720   5.145  0.1858 -0.4765  0.2777
  418DG     H20 9611   0.053   1.805   5.206  0.3958  0.5152 -0.3544
  418DG     H21 9612   0.180   1.769   5.333  1.5453  1.0427 -1.5848
  418DG     H22 9613   0.069   1.586   5.120  2.6103 -2.5281 -0.7508
  418DG     H23 9614   0.182   1.541   5.247  0.1356  2.6741  0.1992
  419DG      C1 9615   2.676   3.996   4.954 -0.8859  0.2652 -0.4471
  419DG      C2 9616   2.882   3.934   5.648 -0.3646  0.5448  0.7631
  419DG      H3 9617   2.653   3.888   4.961 -1.4249  1.0178  0.0050
  419DG      H4 9618   2.782   4.008   4.927  1.7675 -2.4705 -2.6018
  419DG      H5 9619   2.612   4.036   4.876 -0.1803 -3.2175 -0.2208
  419DG      H6 9620   2.830   3.837   5.650 -0.7804  0.2759  0.8367
  419DG      H7 9621   2.976   3.920   5.594 -3.5136  2.5902 -0.4676
  419DG      H8 9622   2.908   3.962   5.750  2.2157  1.0243  0.4359
  419DG      O9 9623   2.651   4.057   5.078 -0.4931 -0.2899 -0.0350
  419DG     O10 9624   2.802   4.020   5.567  0.3574 -0.2853  0.6447
  419DG     C11 9625   2.537   4.005   5.143  0.4637 -0.3834  0.2980
  419DG     C12 9626   2.665   4.012   5.596  0.3564 -0.0994  0.3259
  419DG     H13 9627   2.540   3.895   5.164 -2.9465  2.4709  2.9082
  419DG     H14 9628   2.444   4.016   5.081 -2.2660  1.9699 -2.6266
  419DG     H15 9629   2.666   4.049   5.695 -1.5399  1.9711  1.4327
  419DG     H16 9630   2.629   3.913   5.607 -0.8104  1.6793  0.1062
  419DG     C17 9631   2.504   4.079   5.278 -0.6141  0.2403 -0.5156
  419DG     C18 9632   2.574   4.086   5.502  0.0426 -0.0620 -0.3621
  419DG     O19 9633   2.589   4.019   5.377 -0.9571 -0.0714 -0.3464
  419DG     H20 9634   2.399   4.072   5.308  1.7631  1.3173  2.1149
  419DG     H21 9635   2.533   4.185   5.268 -0.4572  2.4540  2.9315
  419DG     H22 9636   2.468   4.068   5.529  2.8842 -0.3679  1.9085
  419DG     H23 9637   2.589   4.196   5.501  2.3983  1.5312  0.7280
  420DG      C1 9638   2.999   0.950   3.890  0.1298  0.1934  0.5988
  420DG      C2 9639   3.715   0.977   3.987  0.0978  0.4577  0.4825
  420DG      H3 9640   2.921   0.937   3.958 -1.5569  2.8206  1.1774
  420DG      H4 9641   3.032   0.853   3.861 -1.3852  1.8977  2.6231
  420DG      H5 9642   2.965   1.006   3.807  1.0415  0.0155 -0.6926
  420DG      H6 9643   3.788   1.049   3.956  0.0913 -0.1007  2.2063
  420DG      H7 9644   3.751   0.962   4.090 -2.7052  2.4690 -1.4364
  420DG      H8 9645   3.724   0.889   3.913  0.4563  0.7143 -0.5072
  420DG      O9 9646   3.116   1.003   3.944 -0.3162  1.0985 -0.0418
  420DG     O10 9647   3.577   1.024   3.988 -0.7078  0.3351  0.8916
  420DG     C11 9648   3.094   1.114   4.033  0.2620  0.3601  0.1742
  420DG     C12 9649   3.572   1.159   4.028  0.3562 -0.2073 -0.3974
  420DG     H13 9650   3.001   1.094   4.092 -4.0459 -1.1968  3.8931
  420DG     H14 9651   3.074   1.204   3.970 -0.2117 -1.5199  2.5838
  420DG     H15 9652   3.576   1.230   3.940  0.3416 -2.2533 -1.7795
  420DG     H16 9653   3.653   1.197   4.093 -0.7040 -0.2326 -2.7054
  420DG     C17 9654   3.220   1.143   4.122 -0.9714 -0.1592 -0.4171
  420DG     C18 9655   3.442   1.191   4.105 -0.4565 -0.4405 -0.4787
  420DG     O19 9656   3.334   1.137   4.034  0.2472  0.6689  0.0274
  420DG     H20 9657   3.239   1.067   4.206  1.0048 -0.7125 -1.6483
  420DG     H21 9658   3.216   1.242   4.167  1.8122 -0.4083  0.7187
  420DG     H22 9659   3.462   1.131   4.195 -1.6873  2.0862 -2.4736
  420DG     H23 9660   3.445   1.298   4.125  1.4353 -1.2953  0.9323
  421DG      C1 9661   4.241   1.038   5.495 -0.9191  0.0070 -0.1672
  421DG      C2 9662   4.745   1.388   6.031  0.1108  0.2143  0.7050
  421DG      H3 9663   4.233   1.020   5.386 -0.4596 -0.4087 -0.0203
  421DG      H4 9664   4.167   1.102   5.530 -2.9105  2.5390  0.2724
  421DG      H5 9665   4.220   0.940   5.546 -2.5788 -3.4634 -1.3618
  421DG      H6 9666   4.649   1.392   6.079 -1.9781  0.8410  2.9922
  421DG      H7 9667   4.803   1.306   6.063 -0.0081  0.8393  1.5953
  421DG      H8 9668   4.790   1.485   6.035 -0.3411 -1.0438 -1.1161
  421DG      O9 9669   4.369   1.079   5.542 -0.2055  0.5113  0.2584
  421DG     O10 9670   4.740   1.352   5.894  0.0072  0.4093 -0.3214
  421DG     C11 9671   4.428   1.180   5.461 -0.2484 -0.4788  0.1251
  421DG     C12 9672   4.667   1.234   5.859 -0.4274  0.3238 -0.2604
  421DG     H13 9673   4.369   1.270   5.457  0.3103 -0.0898 -1.4399
  421DG     H14 9674   4.434   1.150   5.354 -2.2794  1.9791 -0.4618
  421DG     H15 9675   4.568   1.232   5.904 -0.7602  1.5663 -2.4374
  421DG     H16 9676   4.718   1.144   5.914 -1.0028 -2.8100  0.9534
  421DG     C17 9677   4.572   1.206   5.502  0.2303  0.1074 -0.2586
  421DG     C18 9678   4.671   1.186   5.717  0.0679  0.9664  0.9762
  421DG     O19 9679   4.569   1.238   5.638 -0.3909 -0.2229  0.0469
  421DG     H20 9680   4.612   1.292   5.450 -3.1063 -0.8647  0.3629
  421DG     H21 9681   4.637   1.128   5.475 -0.9263 -0.3766  0.7396
  421DG     H22 9682   4.766   1.210   5.675  1.1986 -2.0755  1.1978
  421DG     H23 9683   4.665   1.076   5.716 -1.4546  3.7971  0.4660
  422DG      C1 9684   0.516   1.183   3.347  0.3375 -0.3269  0.6562
  422DG      C2 9685  -0.120   1.146   3.518 -0.5727 -0.7803 -0.3999
  422DG      H3 9686   0.485   1.268   3.411 -0.2087  1.6632  0.0422
  422DG      H4 9687   0.582   1.204   3.263  1.6183  0.4323  2.7366
  422DG      H5 9688   0.574   1.109   3.411  0.1948 -0.8290  1.2201
  422DG      H6 9689  -0.043   1.164   3.443  3.0428  2.3657 -0.8423
  422DG      H7 9690  -0.226   1.136   3.479 -0.1922 -2.1610  0.6930
  422DG      H8 9691  -0.114   1.237   3.571  1.2606 -2.0519  0.6894
  422DG      O9 9692   0.409   1.109   3.303  0.0606  0.0759  0.0988
  422DG     O10 9693  -0.090   1.032   3.589  0.0477 -0.5901  0.2543
  422DG     C11 9694   0.334   1.058   3.405  0.6915 -0.3211 -0.7868
  422DG     C12 9695  -0.102   0.903   3.520  0.3397 -0.6903 -0.6546
  422DG     H13 9696   0.275   1.139   3.451  1.0743 -1.4999  0.5184
  422DG     H14 9697   0.388   0.998   3.476  0.1311  3.0061 -0.8514
  422DG     H15 9698  -0.202   0.902   3.477  1.0103  3.5912 -0.2832
  422DG     H16 9699  -0.108   0.840   3.608  0.2519 -1.6588  0.5968
  422DG     C17 9700   0.220   0.971   3.348  0.2483 -0.7139 -0.1174
  422DG     C18 9701   0.004   0.890   3.408 -0.7709  0.0964  0.1672
  422DG     O19 9702   0.123   0.954   3.450  0.0071  0.2414 -0.4746
  422DG     H20 9703   0.265   0.877   3.311 -0.8663  1.4100  0.1420
  422DG     H21 9704   0.179   1.025   3.268 -0.2821 -2.0603  5.0566
  422DG     H22 9705   0.013   0.788   3.364 -0.2906 -0.2574  0.3335
  422DG     H23 9706  -0.032   0.954   3.320 -1.1154  0.3808 -1.2915
  423DG      C1 9707   4.907   1.687   5.311 -0.0163  0.0966 -0.6678
  423DG      C2 9708   4.153   1.817   5.432 -0.0821  0.3345  0.1178
  423DG      H3 9709   4.973   1.657   5.228  1.8381 -0.7457  1.9828
  423DG      H4 9710   4.945   1.638   5.403  3.1535 -0.7378  0.6825
  423DG      H5 9711   4.919   1.793   5.342  0.7241  0.1644 -0.8539
  423DG      H6 9712   4.139   1.800   5.539 -3.8266 -1.8135  2.3874
  423DG      H7 9713   4.129   1.912   5.390  1.0556 -1.4365 -1.2996
  423DG      H8 9714   4.083   1.744   5.380  0.2104  0.0702 -3.1983
  423DG      O9 9715   4.774   1.653   5.288 -0.0443 -0.0020  0.8353
  423DG     O10 9716   4.291   1.788   5.389  0.1188  0.3967 -0.1646
  423DG     C11 9717   4.759   1.508   5.267 -0.5046 -0.2016  0.2363
  423DG     C12 9718   4.348   1.661   5.430  0.3203 -0.1871 -0.1637
  423DG     H13 9719   4.796   1.444   5.344 -0.3115  1.0282  0.7525
  423DG     H14 9720   4.798   1.478   5.168 -1.0825 -1.5394  3.2983
  423DG     H15 9721   4.294   1.579   5.391  1.2741  2.4917  0.8193
  423DG     H16 9722   4.331   1.665   5.537  0.2111 -0.0522  1.1067
  423DG     C17 9723   4.606   1.477   5.258  0.3833 -0.3078 -0.2632
  423DG     C18 9724   4.487   1.655   5.374  0.3726 -0.6522  0.3906
  423DG     O19 9725   4.531   1.510   5.368 -0.0853 -0.2839  0.0836
  423DG     H20 9726   4.591   1.372   5.236 -0.5975  0.1995 -1.6738
  423DG     H21 9727   4.567   1.519   5.164  0.4006  2.6008 -0.9496
  423DG     H22 9728   4.493   1.685   5.268 -1.5056 -1.6651  0.9249
  423DG     H23 9729   4.552   1.713   5.434 -1.5208 -0.2708  1.6152
  424DG      C1 9730   1.440   2.539   0.163  0.1102 -0.3122 -0.3509
  424DG      C2 9731   1.478   2.817   0.792 -0.0751  0.3985  0.1472
  424DG      H3 9732   1.363   2.480   0.214 -0.3241  0.4107 -0.0659
  424DG      H4 9733   1.505   2.464   0.121  1.5400  1.5985 -0.4651
  424DG      H5 9734   1.388   2.599   0.091  0.5218 -0.5558  1.5711
  424DG      H6 9735   1.562   2.794   0.859 -4.5746 -1.8368 -1.9759
  424DG      H7 9736   1.447   2.923   0.798  0.1491  0.7888  0.0246
  424DG      H8 9737   1.392   2.750   0.801  0.4260  1.4252  1.9848
  424DG      O9 9738   1.516   2.607   0.253 -0.4110 -0.0688 -0.3744
  424DG     O10 9739   1.524   2.791   0.659  0.5428 -0.2169 -0.0071
  424DG     C11 9740   1.619   2.678   0.192  0.1790  0.2036  0.2884
  424DG     C12 9741   1.616   2.891   0.610 -0.3855  1.0036  0.4014
  424DG     H13 9742   1.573   2.766   0.148  3.1428  0.6017 -0.8476
  424DG     H14 9743   1.661   2.631   0.105 -1.5800  0.0133 -0.5423
  424DG     H15 9744   1.673   2.940   0.691 -0.2640  2.5389  0.1796
  424DG     H16 9745   1.574   2.975   0.554 -0.0717  1.0236  2.0928
  424DG     C17 9746   1.717   2.726   0.304  0.5016 -0.2019  0.5375
  424DG     C18 9747   1.713   2.826   0.518  0.3667 -0.1463 -0.1869
  424DG     O19 9748   1.644   2.797   0.395 -0.0415  0.1844 -0.0075
  424DG     H20 9749   1.801   2.784   0.271  1.6261  0.5489  0.4265
  424DG     H21 9750   1.772   2.640   0.351  2.4189 -1.5194  0.4773
  424DG     H22 9751   1.787   2.901   0.493  1.3226  2.8368 -3.5586
  424DG     H23 9752   1.758   2.743   0.562 -0.3884  1.5379 -4.0622
  425DG      C1 9753   3.037   0.772   1.194  0.3056  0.1171  0.6363
  425DG      C2 9754   2.920   0.969   0.358 -0.1906  0.2997 -0.1596
  425DG      H3 9755   3.035   0.858   1.258 -0.9454  1.6922 -0.1187
  425DG      H4 9756   3.134   0.771   1.156 -1.9362  0.7927  0.0698
  425DG      H5 9757   3.016   0.684   1.244  1.3067  3.4155 -2.6019
  425DG      H6 9758   2.886   0.943   0.256 -0.1499 -3.2991 -0.1379
  425DG      H7 9759   2.897   1.080   0.352  0.3127  3.2818 -1.3126
  425DG      H8 9760   3.023   0.962   0.363 -2.6581  1.7499 -3.7919
  425DG      O9 9761   2.937   0.797   1.091 -0.0699 -0.1652  0.1128
  425DG     O10 9762   2.858   0.890   0.457  0.6386 -0.6455 -0.1000
  425DG     C11 9763   2.958   0.718   0.970  0.1607 -0.8452 -0.3424
  425DG     C12 9764   2.802   0.964   0.568 -0.4206  0.0352  0.1463
  425DG     H13 9765   2.966   0.606   0.981  0.0336 -0.5497  1.6412
  425DG     H14 9766   3.050   0.747   0.918  0.6113  3.1155  0.9050
  425DG     H15 9767   2.718   1.025   0.527  1.8590  0.9462 -0.5175
  425DG     H16 9768   2.879   1.039   0.606  0.8459 -2.6445 -0.5495
  425DG     C17 9769   2.839   0.748   0.878 -0.0519 -0.3011 -0.3561
  425DG     C18 9770   2.772   0.858   0.680  0.7977 -0.1586 -0.4621
  425DG     O19 9771   2.866   0.856   0.789  0.7722 -0.3228 -0.5285
  425DG     H20 9772   2.754   0.769   0.947  0.7518  2.1134 -2.6213
  425DG     H21 9773   2.820   0.652   0.825 -0.3267 -0.3335  0.6512
  425DG     H22 9774   2.668   0.869   0.724 -1.8018 -0.2723  2.0529
  425DG     H23 9775   2.759   0.762   0.635  1.0548 -0.3853 -0.1841
  426DG      C1 9776   1.802   4.925   1.061 -0.3785  0.4430 -0.3852
  426DG      C2 9777   1.621   4.310   0.659 -0.0036 -0.0778  0.5762
  426DG      H3 9778   1.866   4.845   1.090  0.4809  0.7628 -0.3478
  426DG      H4 9779   1.775   4.988   1.147 -1.8662 -0.4793  0.4900
  426DG      H5 9780   1.859   4.975   0.988 -1.5352  0.6961 -0.4582
  426DG      H6 9781   1.547   4.305   0.733  1.3522 -1.2990 -1.7665
  426DG      H7 9782   1.571   4.330   0.567 -0.3330  1.3109 -2.3536
  426DG      H8 9783   1.659   4.205   0.652 -1.4556  2.5868  1.6411
  426DG      O9 9784   1.691   4.871   1.000  0.3518  0.3985  0.2710
  426DG     O10 9785   1.743   4.383   0.690 -0.7194  0.1101  0.5106
  426DG     C11 9786   1.625   4.765   1.068 -0.3967 -0.3457 -0.0112
  426DG     C12 9787   1.717   4.523   0.674 -0.5396  0.1773  0.0352
  426DG     H13 9788   1.521   4.773   1.037  0.2212 -1.2395  1.9617
  426DG     H14 9789   1.622   4.790   1.173 -1.0327  2.6164 -0.6050
  426DG     H15 9790   1.660   4.547   0.581  0.3833 -1.4293 -0.2432
  426DG     H16 9791   1.812   4.586   0.671 -1.8253 -1.2313 -0.9818
  426DG     C17 9792   1.674   4.620   1.042  0.2744  0.3410 -0.4550
  426DG     C18 9793   1.645   4.587   0.805 -0.0636  0.0714 -0.2842
  426DG     O19 9794   1.731   4.595   0.918  0.0536  0.1635  0.2437
  426DG     H20 9795   1.594   4.546   1.054  0.0287 -2.9473  0.8097
  426DG     H21 9796   1.750   4.585   1.108 -0.9590 -0.3125 -1.4675
  426DG     H22 9797   1.617   4.689   0.771  1.7689 -0.6472 -0.5979
  426DG     H23 9798   1.557   4.525   0.821 -0.5353  0.4504 -1.0338
  427DG      C1 9799   1.565   0.648   5.233  0.2026  0.0444  0.0706
  427DG      C2 9800   1.550  -0.139   5.301 -0.8619 -0.4960  0.4424
  427DG      H3 9801   1.498   0.711   5.157  0.4258  2.3340 -1.5846
  427DG      H4 9802   1.667   0.636   5.191  0.5807 -3.6503  1.0301
  427DG      H5 9803   1.567   0.703   5.324 -0.3893  0.8773 -1.8867
  427DG      H6 9804   1.478  -0.212   5.311 -1.4351  0.6645 -0.8682
  427DG      H7 9805   1.624  -0.162   5.222  2.0498  0.4341 -0.0153
  427DG      H8 9806   1.602  -0.127   5.395  2.2793 -2.5895 -4.2906
  427DG      O9 9807   1.506   0.520   5.254 -0.2670 -0.1368  0.7106
  427DG     O10 9808   1.504  -0.008   5.289  0.3391 -0.7681 -0.5818
  427DG     C11 9809   1.606   0.421   5.294  0.3654  0.0738  0.1211
  427DG     C12 9810   1.436   0.018   5.169 -0.1235 -0.0491 -0.4590
  427DG     H13 9811   1.642   0.443   5.393 -0.1749  0.0549  0.6391
  427DG     H14 9812   1.697   0.428   5.231 -1.0972  0.9412  0.4046
  427DG     H15 9813   1.348  -0.050   5.151 -2.4106  1.5641 -3.5631
  427DG     H16 9814   1.510   0.010   5.086  1.1742 -2.2306  0.2820
  427DG     C17 9815   1.557   0.274   5.291 -0.4273 -0.0917 -0.4017
  427DG     C18 9816   1.380   0.161   5.171 -0.2848  0.1500 -0.3808
  427DG     O19 9817   1.494   0.255   5.166 -0.2027  0.3093  0.5564
  427DG     H20 9818   1.489   0.252   5.364 -1.1539  0.6020  0.5031
  427DG     H21 9819   1.645   0.214   5.307 -0.8690 -1.0530 -1.6322
  427DG     H22 9820   1.310   0.170   5.087 -0.5913  0.2322  0.9690
  427DG     H23 9821   1.310   0.176   5.260 -1.3309  0.2272  1.1836
  428DG      C1 9822   0.113   5.278   2.960  0.1144 -1.2018 -0.1075
  428DG      C2 9823  -0.181   5.567   2.918  0.6766 -0.1492 -0.2018
  428DG      H3 9824   0.109   5.368   2.896 -1.0938 -0.2559  0.7608
  428DG      H4 9825   0.188   5.211   2.922 -1.2916 -0.4557  0.1024
  428DG      H5 9826   0.178   5.322   3.041 -0.5781 -3.1501  0.6848
  428DG      H6 9827  -0.133   5.515   2.837  0.0959 -1.8828  1.3828
  428DG      H7 9828  -0.259   5.640   2.895  1.3678 -1.6174  0.1898
  428DG      H8 9829  -0.106   5.625   2.971 -0.9702 -2.1796  0.1410
  428DG      O9 9830  -0.012   5.219   3.006  0.4614 -0.2257  0.3745
  428DG     O10 9831  -0.241   5.460   2.990 -0.2706  0.8605  0.3592
  428DG     C11 9832  -0.087   5.164   2.895  0.6590  0.1680 -0.1430
  428DG     C12 9833  -0.353   5.396   2.933  0.2347  0.4315  0.4212
  428DG     H13 9834  -0.031   5.088   2.846 -0.1826 -1.5799 -0.3045
  428DG     H14 9835  -0.108   5.252   2.835 -2.1746  2.2909 -1.0319
  428DG     H15 9836  -0.312   5.369   2.835  0.7183 -1.9966  0.2412
  428DG     H16 9837  -0.431   5.472   2.925 -0.5622 -0.1653  0.0876
  428DG     C17 9838  -0.209   5.098   2.957  0.9306 -0.3401 -0.1888
  428DG     C18 9839  -0.391   5.267   3.019  0.0487 -0.1311  0.0768
  428DG     O19 9840  -0.280   5.181   3.053 -0.0061  0.6504 -0.2208
  428DG     H20 9841  -0.166   5.020   3.014  0.1969 -0.6389  1.8712
  428DG     H21 9842  -0.278   5.062   2.879 -0.5092  1.0562 -1.0235
  428DG     H22 9843  -0.435   5.292   3.114  0.1203 -0.1947 -0.2104
  428DG     H23 9844  -0.468   5.214   2.967 -0.7182  1.4948 -1.5447
  429DG      C1 9845   3.493   4.252   5.116 -0.5396 -0.2630  0.2260
  429DG      C2 9846   3.365   4.651   4.432 -0.0607  0.6107 -0.4234
  429DG      H3 9847   3.538   4.336   5.170 -0.6040  0.9540 -1.9001
  429DG      H4 9848   3.547   4.163   5.148 -2.0939 -2.2284 -0.6674
  429DG      H5 9849   3.397   4.229   5.157  0.9060  2.2609  0.9930
  429DG      H6 9850   3.263   4.614   4.417 -2.2062 -0.9311  0.0287
  429DG      H7 9851   3.370   4.755   4.419  1.1318 -0.0736 -1.2024
  429DG      H8 9852   3.437   4.602   4.368 -0.5758 -0.1640  1.0080
  429DG      O9 9853   3.496   4.269   4.979  0.6155  0.1888 -0.1050
  429DG     O10 9854   3.381   4.618   4.569 -0.9296 -0.2840 -1.0102
  429DG     C11 9855   3.631   4.280   4.926  0.9590 -0.1183  0.4723
  429DG     C12 9856   3.432   4.488   4.591  0.5785 -0.5073  0.4621
  429DG     H13 9857   3.660   4.174   4.930 -2.1631 -1.0938 -0.7716
  429DG     H14 9858   3.687   4.339   5.001  1.6544 -0.4991  2.8774
  429DG     H15 9859   3.528   4.460   4.547 -1.3279  0.4471  0.0698
  429DG     H16 9860   3.363   4.419   4.545 -1.6302  1.4313  1.8981
  429DG     C17 9861   3.631   4.335   4.783 -0.5243 -0.3175 -0.2140
  429DG     C18 9862   3.438   4.470   4.742 -0.3237  0.0965 -0.4970
  429DG     O19 9863   3.575   4.470   4.782  0.6780 -0.1042 -0.1176
  429DG     H20 9864   3.586   4.267   4.717 -1.1242  2.4847  0.1705
  429DG     H21 9865   3.737   4.349   4.767 -2.2063 -0.1353 -0.9925
  429DG     H22 9866   3.383   4.554   4.787 -1.4536  3.2499  0.6769
  429DG     H23 9867   3.384   4.376   4.769 -0.7602  0.6841  1.1817
  430DG      C1 9868   2.379   5.337   1.688 -0.7285 -0.1365  0.6892
  430DG      C2 9869   2.366   4.961   2.137 -0.5897  0.0004  0.6797
  430DG      H3 9870   2.401   5.239   1.637 -0.2590 -0.9606  0.3185
  430DG      H4 9871   2.364   5.414   1.612 -2.2486  1.0848 -0.8616
  430DG      H5 9872   2.278   5.316   1.738 -0.6271  0.8543 -0.5788
  430DG      H6 9873   2.359   4.929   2.240 -1.9812  0.3118  1.4736
  430DG      H7 9874   2.282   4.922   2.070 -2.4087 -0.3287 -0.2629
  430DG      H8 9875   2.458   4.921   2.094 -1.1527 -1.8568  0.0012
  430DG      O9 9876   2.478   5.371   1.780 -0.2482  0.1432  0.4442
  430DG     O10 9877   2.383   5.102   2.137  0.7192  0.0746  0.0546
  430DG     C11 9878   2.440   5.490   1.854 -0.0479  0.1116  0.0494
  430DG     C12 9879   2.260   5.167   2.169  0.5157 -0.3536  0.5429
  430DG     H13 9880   2.417   5.570   1.787 -0.0823  1.1914 -2.7793
  430DG     H14 9881   2.528   5.526   1.914  0.9635  0.3734  0.6443
  430DG     H15 9882   2.211   5.135   2.263 -0.2753 -0.0177  2.3057
  430DG     H16 9883   2.190   5.141   2.096  0.6277 -3.2124 -0.1858
  430DG     C17 9884   2.319   5.463   1.952 -0.7071  0.0198 -0.6554
  430DG     C18 9885   2.274   5.317   2.149  0.2101 -0.3958  0.3531
  430DG     O19 9886   2.342   5.335   2.015  0.0143 -0.4238  0.2452
  430DG     H20 9887   2.223   5.462   1.909  0.9339  0.8892  1.7015
  430DG     H21 9888   2.304   5.549   2.022 -3.1882 -0.1670  1.9510
  430DG     H22 9889   2.187   5.378   2.165 -0.6646 -3.6650  0.4638
  430DG     H23 9890   2.351   5.350   2.218 -1.2339  1.6537 -3.4015
  431DG      C1 9891   1.205   0.695   2.963 -0.2659  0.1919 -0.4293
  431DG      C2 9892   1.738   0.890   2.648 -0.0525  0.3060 -0.5286
  431DG      H3 9893   1.109   0.694   3.016 -1.0392 -2.4315  1.4153
  431DG      H4 9894   1.286   0.696   3.038  0.1276  0.1446 -0.6231
  431DG      H5 9895   1.219   0.606   2.909  1.1336  1.7641  1.7859
  431DG      H6 9896   1.778   0.941   2.563 -1.2936 -2.4785  0.4611
  431DG      H7 9897   1.811   0.899   2.730 -3.6291  0.8501  0.4312
  431DG      H8 9898   1.750   0.788   2.618  0.5073  0.4082 -3.4307
  431DG      O9 9899   1.211   0.804   2.877  0.3184  0.1519  0.0240
  431DG     O10 9900   1.604   0.930   2.694 -0.2248 -0.5271 -0.8134
  431DG     C11 9901   1.216   0.923   2.946  0.4983 -0.1059 -0.3060
  431DG     C12 9902   1.599   1.074   2.699  0.3300  0.2100 -0.4080
  431DG     H13 9903   1.281   0.926   3.038  1.2480  0.4997 -0.1160
  431DG     H14 9904   1.125   0.944   2.993  1.1491  0.1390 -0.8834
  431DG     H15 9905   1.570   1.096   2.598  0.5325 -1.6409  0.6963
  431DG     H16 9906   1.683   1.138   2.735 -0.2097  5.3846 -1.1461
  431DG     C17 9907   1.258   1.041   2.858  0.2163  0.2585 -0.1357
  431DG     C18 9908   1.481   1.112   2.782  0.5980 -0.2086 -0.7935
  431DG     O19 9909   1.385   1.008   2.798  0.8204 -0.2640 -0.0449
  431DG     H20 9910   1.280   1.127   2.923  1.5446 -1.2318 -0.5401
  431DG     H21 9911   1.182   1.070   2.788 -2.0460  1.4939  2.3765
  431DG     H22 9912   1.513   1.142   2.886 -1.8533  2.4794  4.3751
  431DG     H23 9913   1.432   1.198   2.737  1.1172 -2.1227  0.9982
  432DG      C1 9914   1.994   1.261   2.944  0.1618  0.3650 -0.6307
  432DG      C2 9915   1.998   0.717   3.372 -0.6113 -0.2101  0.2968
  432DG      H3 9916   2.105   1.269   2.942  0.8609  1.5990  0.2717
  432DG      H4 9917   1.945   1.351   2.936 -1.1104 -2.1321  3.1532
  432DG      H5 9918   1.959   1.195   2.858 -0.5270 -1.7067 -0.2616
  432DG      H6 9919   1.992   0.651   3.280  2.9497 -0.0509 -1.2037
  432DG      H7 9920   2.103   0.751   3.377  1.0610  0.7906  0.6118
  432DG      H8 9921   1.962   0.663   3.459 -1.1453  0.2661 -0.6143
  432DG      O9 9922   1.959   1.193   3.065 -0.7854 -0.2032 -0.5335
  432DG     O10 9923   1.914   0.835   3.355 -0.3625 -0.3008  0.4457
  432DG     C11 9924   2.012   1.266   3.182  1.0646  0.9363  0.9899
  432DG     C12 9925   1.933   0.913   3.470  0.4255  0.9932  0.5858
  432DG     H13 9926   2.004   1.376   3.170 -0.3308  1.1690  1.0306
  432DG     H14 9927   2.113   1.245   3.205 -0.6160  0.3617  0.2416
  432DG     H15 9928   2.043   0.924   3.489 -0.8933  1.8429  0.6468
  432DG     H16 9929   1.894   0.853   3.557 -0.8692 -0.5973  3.6706
  432DG     C17 9930   1.920   1.234   3.301 -0.3740  0.4529  0.1255
  432DG     C18 9931   1.877   1.050   3.441 -0.4954  0.1739 -0.0408
  432DG     O19 9932   1.947   1.098   3.327  0.5952  0.0920 -0.3763
  432DG     H20 9933   1.822   1.246   3.266  0.9744 -2.6334  0.4413
  432DG     H21 9934   1.930   1.305   3.386 -0.1571  0.9617 -0.2517
  432DG     H22 9935   1.773   1.037   3.407  1.8763 -0.8290 -2.3031
  432DG     H23 9936   1.875   1.118   3.528  0.2270  0.4046  0.9400
  433DG      C1 9937   3.669   0.541   1.465  0.5106 -0.3653 -0.4430
  433DG      C2 9938   3.238   0.820   1.786 -0.0390 -0.1295 -1.0135
  433DG      H3 9939   3.688   0.493   1.365 -2.5734 -0.0871  1.5535
  433DG      H4 9940   3.743   0.505   1.536  1.5911 -0.9973 -0.9202
  433DG      H5 9941   3.692   0.653   1.451  1.0183  3.3953  0.4595
  433DG      H6 9942   3.214   0.841   1.685 -0.6520 -1.5919  1.8286
  433DG      H7 9943   3.151   0.848   1.840 -0.6457  0.0652 -1.1501
  433DG      H8 9944   3.328   0.882   1.808 -0.0998 -1.0493 -0.9299
  433DG      O9 9945   3.535   0.521   1.509 -0.0517 -0.1226  0.1717
  433DG     O10 9946   3.268   0.688   1.805 -0.1813  0.7871 -0.0324
  433DG     C11 9947   3.443   0.555   1.409  0.1184 -0.2244  0.5451
  433DG     C12 9948   3.162   0.601   1.783  0.3255 -0.9033  1.3448
  433DG     H13 9949   3.481   0.508   1.315  3.5098  0.3319  1.6537
  433DG     H14 9950   3.425   0.664   1.392  1.1747  1.8901 -0.6199
  433DG     H15 9951   3.067   0.641   1.826  2.9055 -2.4758  3.4054
  433DG     H16 9952   3.180   0.518   1.841  1.3221  0.3824 -1.1282
  433DG     C17 9953   3.300   0.508   1.442  0.7737  0.1961  0.5705
  433DG     C18 9954   3.156   0.554   1.632 -0.0430  0.6829  0.7075
  433DG     O19 9955   3.281   0.550   1.577  0.0118 -0.1231  0.0925
  433DG     H20 9956   3.276   0.403   1.415  0.1042  0.9233 -1.8441
  433DG     H21 9957   3.222   0.570   1.388  0.0749  0.8786 -3.2668
  433DG     H22 9958   3.106   0.454   1.641 -1.0815 -2.3202  0.8634
  433DG     H23 9959   3.090   0.627   1.581 -0.6014 -0.9917 -0.4181
  434DG      C1 9960   3.058   4.970   3.217  0.0618  0.0410 -0.2421
  434DG      C2 9961   3.614   5.340   3.801 -0.0797  0.7990  0.4348
  434DG      H3 9962   3.044   5.072   3.183  0.6779 -2.0607  1.4180
  434DG      H4 9963   2.983   4.947   3.284  1.0961  1.0528  0.3451
  434DG      H5 9964   3.046   4.899   3.137  0.1131  0.7131  1.8740
  434DG      H6 9965   3.654   5.440   3.778  1.6388  0.2130  1.5364
  434DG      H7 9966   3.535   5.341   3.875  0.2660 -2.7160 -0.7816
  434DG      H8 9967   3.688   5.288   3.857  0.2850  2.7358 -1.1220
  434DG      O9 9968   3.192   4.948   3.267  0.1808  0.2639  0.0294
  434DG     O10 9969   3.597   5.258   3.688 -0.2316  0.1130 -0.4345
  434DG     C11 9970   3.222   5.048   3.364  0.1761  0.0699  0.4482
  434DG     C12 9971   3.537   5.131   3.722  0.0604 -0.1609 -0.4192
  434DG     H13 9972   3.143   5.067   3.436  0.3920  0.5502  0.9082
  434DG     H14 9973   3.243   5.147   3.318  0.2021  2.7362  0.6274
  434DG     H15 9974   3.452   5.151   3.786  0.4267  1.8650 -1.2984
  434DG     H16 9975   3.609   5.073   3.784  1.6832  1.9837  2.1521
  434DG     C17 9976   3.350   5.002   3.435 -0.3040  0.1315  0.3650
  434DG     C18 9977   3.502   5.039   3.609 -0.0310 -0.3109  0.2599
  434DG     O19 9978   3.406   5.095   3.519 -0.3176  0.5875  0.4811
  434DG     H20 9979   3.422   4.965   3.364  0.5490  1.6557  2.7456
  434DG     H21 9980   3.318   4.911   3.480 -1.4091 -0.5959 -1.3781
  434DG     H22 9981   3.586   5.020   3.540  0.1349  1.6174 -0.9718
  434DG     H23 9982   3.469   4.946   3.659 -0.3358 -0.7152 -0.4537
  435DG      C1 9983   0.094   4.715   4.547  0.1656  0.5019 -0.1201
  435DG      C2 9984   0.363   5.277   4.323  0.4090  0.8333  0.0422
  435DG      H3 9985   0.027   4.655   4.486 -2.0897  1.2748 -1.8432
  435DG      H4 9986   0.021   4.791   4.579 -1.2931 -0.6310  1.4727
  435DG      H5 9987   0.122   4.651   4.630 -2.9239  2.0788  1.3907
  435DG      H6 9988   0.392   5.332   4.414 -0.3298 -2.3023  0.7376
  435DG      H7 9989   0.391   5.326   4.229 -1.4947  0.6797  0.9156
  435DG      H8 9990   0.252   5.265   4.321  0.7386 -0.3005  3.0170
  435DG      O9 9991   0.197   4.777   4.474 -0.0493  0.2589  0.0392
  435DG     O10 9992   0.410   5.138   4.317  0.6000 -0.2228 -0.3579
  435DG     C11 9993   0.284   4.683   4.430 -0.3079 -0.0453 -1.1253
  435DG     C12 9994   0.534   5.111   4.363 -0.4898  0.3759  0.1965
  435DG     H13 9995   0.223   4.620   4.360 -0.8464  1.2210  2.0856
  435DG     H14 9996   0.322   4.619   4.510  2.7279  0.4828 -2.2419
  435DG     H15 9997   0.550   5.134   4.470 -0.0305  0.9910  2.4882
  435DG     H16 9998   0.603   5.161   4.297 -0.0761 -3.2360 -1.8069
  435DG     C17 9999   0.407   4.756   4.357 -0.2389  0.1166 -0.4431
  435DG     C1810000   0.543   4.954   4.347 -0.2198 -0.5062  0.3058
  435DG     O1910001   0.424   4.889   4.401 -0.3734 -0.0888 -0.3987
  435DG     H2010002   0.388   4.765   4.252  0.7072  0.7950 -0.0033
  435DG     H2110003   0.504   4.713   4.360  1.2505 -1.1006 -1.9811
  435DG     H2210004   0.562   4.929   4.243 -1.3597 -0.4831 -2.8938
  435DG     H2310005   0.627   4.915   4.399  2.3998 -1.8331  2.4400
  436DG      C110006   3.635   3.197   1.416  0.0653  0.6949  0.6786
  436DG      C210007   3.447   2.500   1.177 -0.6832 -0.0904  0.4984
  436DG      H310008   3.707   3.267   1.383 -2.0152 -3.2771 -1.0563
  436DG      H410009   3.673   3.138   1.497 -2.1996 -0.5163  1.1300
  436DG      H510010   3.543   3.246   1.454  0.7954  0.8553  0.1093
  436DG      H610011   3.354   2.471   1.132 -2.0602 -3.1708  2.6489
  436DG      H710012   3.522   2.430   1.149 -1.7898 -0.8340 -0.2204
  436DG      H810013   3.420   2.509   1.283 -0.3392  0.3884  0.7078
  436DG      O910014   3.597   3.118   1.302 -0.2448  0.3023 -0.5756
  436DG     O1010015   3.481   2.631   1.128 -0.3112  0.1687 -0.0115
  436DG     C1110016   3.709   3.068   1.229  0.3164  0.5762 -0.7383
  436DG     C1210017   3.598   2.672   1.194 -0.5064  0.2548 -0.8361
  436DG     H1310018   3.757   2.982   1.278 -2.5974  0.6863  4.0890
  436DG     H1410019   3.785   3.145   1.210 -1.7311 -1.7255  0.7556
  436DG     H1510020   3.657   2.583   1.219  0.7792  0.3806  0.2403
  436DG     H1610021   3.581   2.719   1.290  0.2119  0.2596 -0.6117
  436DG     C1710022   3.660   3.022   1.089  0.3489 -0.0224 -0.6127
  436DG     C1810023   3.668   2.787   1.115  0.0349  0.0205 -0.2012
  436DG     O1910024   3.584   2.897   1.091  0.0616  0.7054 -0.1378
  436DG     H2010025   3.748   3.010   1.034  1.4766 -0.1404  4.0406
  436DG     H2110026   3.580   3.090   1.044  0.3680 -0.1043 -1.0227
  436DG     H2210027   3.764   2.800   1.172 -0.2921  2.6163  4.2154
  436DG     H2310028   3.699   2.747   1.016  0.1110 -1.0140 -2.4564
  437DG      C110029   2.274   1.493   3.968  0.5016  0.6492  0.1384
  437DG      C210030   2.835   1.533   4.283 -0.1266 -0.1117  0.3546
  437DG      H310031   2.334   1.411   4.012  0.5921 -1.3069  1.0509
  437DG      H410032   2.301   1.521   3.868 -0.3394  0.0761  3.8871
  437DG      H510033   2.176   1.461   3.983  0.4211 -0.3295  0.0649
  437DG      H610034   2.837   1.452   4.357  3.4629  0.8189 -1.0366
  437DG      H710035   2.867   1.495   4.183  0.3995  0.3094  0.1622
  437DG      H810036   2.909   1.603   4.328  0.8252  0.4698  1.9113
  437DG      O910037   2.299   1.608   4.040  0.2763 -0.1643  0.4054
  437DG     O1010038   2.715   1.601   4.253  0.0889  0.4081 -0.3380
  437DG     C1110039   2.239   1.599   4.170 -0.0486  0.8069  0.3721
  437DG     C1210040   2.660   1.656   4.372  0.0471 -0.6465 -0.0353
  437DG     H1310041   2.227   1.494   4.225  2.7812 -0.1631  4.5006
  437DG     H1410042   2.136   1.625   4.172  1.0428 -1.9193  0.8875
  437DG     H1510043   2.737   1.715   4.417 -0.1772 -1.3927  2.0151
  437DG     H1610044   2.636   1.569   4.429  2.7226  0.3975 -0.7666
  437DG     C1710045   2.313   1.690   4.265 -0.0040  0.0363  0.1779
  437DG     C1810046   2.526   1.729   4.340  0.4091  0.3356 -0.1579
  437DG     O1910047   2.443   1.650   4.257  0.1197 -0.0784 -0.1959
  437DG     H2010048   2.275   1.676   4.367 -0.2046 -0.4634  0.6194
  437DG     H2110049   2.295   1.796   4.236  1.3096  1.5811  0.6714
  437DG     H2210050   2.488   1.730   4.443  2.9860 -0.4046  0.2707
  437DG     H2310051   2.555   1.825   4.297  0.0381 -2.0787 -1.6928
  438DG      C110052   0.903   1.265   0.805 -0.1186 -0.2805  0.1046
  438DG      C210053   1.735   0.824   0.992  0.0631  0.4063  0.1768
  438DG      H310054   0.870   1.269   0.701 -2.3053 -0.1125  3.5461
  438DG      H410055   0.856   1.346   0.856 -0.1432 -1.4296 -1.7181
  438DG      H510056   0.850   1.175   0.844  1.4724 -0.8822  2.0311
  438DG      H610057   1.696   0.728   0.996  0.5829 -0.7826  2.3508
  438DG      H710058   1.839   0.817   0.951  1.7569 -4.0270  0.1126
  438DG      H810059   1.755   0.867   1.091  0.3041  0.3976 -0.3194
  438DG      O910060   1.044   1.269   0.804  0.1625 -0.1546  0.3797
  438DG     O1010061   1.661   0.916   0.908  0.0651 -0.0417 -0.3388
  438DG     C1110062   1.109   1.146   0.850  0.3145  0.4858 -0.7280
  438DG     C1210063   1.526   0.923   0.952  0.4613 -0.3450 -0.1762
  438DG     H1310064   1.074   1.049   0.803 -1.7474  0.1131  0.0485
  438DG     H1410065   1.086   1.131   0.961 -1.7773 -0.5498  1.2423
  438DG     H1510066   1.515   0.939   1.057 -1.1820 -3.1740 -0.9243
  438DG     H1610067   1.480   0.829   0.922 -0.8595  0.8739 -0.1433
  438DG     C1710068   1.260   1.155   0.827  0.1238 -0.4406  0.5280
  438DG     C1810069   1.470   1.041   0.880 -0.3231  0.3489  0.3262
  438DG     O1910070   1.327   1.042   0.892 -0.1818 -0.3978 -0.1775
  438DG     H2010071   1.298   1.247   0.861 -1.5432 -0.8292  0.6839
  438DG     H2110072   1.286   1.145   0.724  1.3334 -0.8344 -0.9652
  438DG     H2210073   1.519   1.133   0.905 -0.0946 -0.6105  3.2220
  438DG     H2310074   1.480   1.037   0.774  1.2816  1.2809  1.5051
  439DG      C110075   1.674   4.826   2.787 -0.2018  0.1114  1.0085
  439DG      C210076   2.291   4.496   2.903  0.1428 -0.5082 -0.2436
  439DG      H310077   1.623   4.896   2.732  0.8847  1.2522  3.1426
  439DG      H410078   1.649   4.849   2.890 -0.3359  1.8241  2.6587
  439DG      H510079   1.640   4.726   2.755 -3.2002 -0.0123  1.1090
  439DG      H610080   2.231   4.421   2.851  0.0731  0.8284 -0.6932
  439DG      H710081   2.396   4.496   2.882 -0.2245 -3.0217  1.7904
  439DG      H810082   2.273   4.482   3.012  0.6642  5.9762  0.3811
  439DG      O910083   1.818   4.839   2.758  0.1897 -0.5872  0.3827
  439DG     O1010084   2.240   4.622   2.857  0.0392  0.1134 -0.3613
  439DG     C1110085   1.863   4.969   2.801  0.7372  0.4827  0.2721
  439DG     C1210086   2.270   4.735   2.939 -0.2913 -0.4435 -0.1441
  439DG     H1310087   1.831   4.985   2.904 -0.3919 -1.0915  0.1283
  439DG     H1410088   1.818   5.052   2.744 -2.7980 -0.9162 -0.1784
  439DG     H1510089   2.381   4.753   2.942 -1.5509  1.3111 -1.7030
  439DG     H1610090   2.234   4.730   3.043 -0.3247 -0.7684  0.8973
  439DG     C1710091   2.014   4.966   2.802  0.0941  0.5062 -0.0724
  439DG     C1810092   2.206   4.849   2.861 -0.3405 -0.3864  1.2073
  439DG     O1910093   2.067   4.852   2.873  0.0426 -0.1089  0.2096
  439DG     H2010094   2.056   5.056   2.841 -0.3360 -0.6088  1.9850
  439DG     H2110095   2.055   4.955   2.701  0.9258 -0.4006  0.2950
  439DG     H2210096   2.258   4.938   2.900  0.9654 -0.6006 -0.5448
  439DG     H2310097   2.237   4.825   2.765 -0.7808 -2.2018  4.3829
  440DG      C110098   3.000   5.124   0.586  0.1685  0.0159 -0.5392
  440DG      C210099   3.270   5.709   0.437 -0.0989 -0.1494 -0.0259
  440DG      H310100   2.932   5.055   0.540  2.4499 -1.0652  1.4407
  440DG      H410101   2.929   5.194   0.631 -1.2327 -1.3574 -1.0665
  440DG      H510102   3.052   5.082   0.676 -0.8310  1.7928  1.0611
  440DG      H610103   3.171   5.749   0.454 -2.4444  1.5858  0.5523
  440DG      H710104   3.320   5.701   0.535 -2.8430 -0.1212  1.6143
  440DG      H810105   3.343   5.777   0.381  2.8143  2.0638 -3.2526
  440DG      O910106   3.079   5.171   0.485  0.6984  0.8282 -0.4481
  440DG     O1010107   3.257   5.585   0.360 -0.2072  0.0667 -0.3211
  440DG     C1110108   3.177   5.080   0.437  0.3575 -0.1800  0.0504
  440DG     C1210109   3.375   5.502   0.339  0.2669  0.6425 -0.9679
  440DG     H1310110   3.127   4.998   0.389  2.5041 -2.1710 -1.1781
  440DG     H1410111   3.253   5.059   0.510  0.5962  1.8042  0.4204
  440DG     H1510112   3.423   5.489   0.437 -2.4082  3.3593  1.1605
  440DG     H1610113   3.443   5.549   0.282 -2.0018 -1.8783  0.9179
  440DG     C1710114   3.255   5.156   0.330 -0.6676 -0.3098  0.1732
  440DG     C1810115   3.340   5.370   0.276 -0.0735  0.3332 -0.1248
  440DG     O1910116   3.270   5.290   0.372 -0.1667  0.2603 -0.0835
  440DG     H2010117   3.199   5.157   0.241 -2.5974  1.7655 -0.8394
  440DG     H2110118   3.350   5.106   0.303 -0.2873 -0.8700  1.8089
  440DG     H2210119   3.286   5.378   0.176 -0.9590 -2.3580 -3.5238
  440DG     H2310120   3.433   5.317   0.253 -1.0618 -0.6439 -0.7278
  441DG      C110121   0.906   0.965   2.690 -0.1323 -0.0274  0.5385
  441DG      C210122   0.710   0.620   2.113  0.2520 -0.0578  0.3835
  441DG      H310123   0.835   1.047   2.675 -3.7818  2.0745 -0.2441
  441DG      H410124   0.974   0.962   2.610 -1.7430  1.5561  1.5891
  441DG      H510125   0.979   0.981   2.775 -2.1997 -1.1222 -0.1926
  441DG      H610126   0.626   0.700   2.097 -1.8086  4.4531  0.2679
  441DG      H710127   0.807   0.670   2.087 -1.4352 -0.6538  0.2732
  441DG      H810128   0.696   0.524   2.062  1.7875 -1.6755  0.2328
  441DG      O910129   0.829   0.846   2.696 -0.4549  0.4176 -0.0297
  441DG     O1010130   0.675   0.598   2.240  0.3943 -0.6076  0.5541
  441DG     C1110131   0.885   0.725   2.727  0.7531  1.0559  0.4904
  441DG     C1210132   0.765   0.519   2.313 -0.5661 -0.4325 -0.5520
  441DG     H1310133   0.895   0.721   2.835  2.8663 -2.0040  4.8435
  441DG     H1410134   0.980   0.708   2.684 -2.2405 -0.8935  0.0975
  441DG     H1510135   0.860   0.569   2.289  3.9393 -0.1717 -0.1769
  441DG     H1610136   0.771   0.417   2.277  1.2135  1.3706 -1.4494
  441DG     C1710137   0.794   0.607   2.671 -0.6140  0.2792  0.0461
  441DG     C1810138   0.733   0.514   2.463  0.0355  0.5102 -0.0932
  441DG     O1910139   0.791   0.622   2.529  0.3101 -0.0680  0.2971
  441DG     H2010140   0.689   0.622   2.706 -1.8639 -0.5875  0.9850
  441DG     H2110141   0.838   0.520   2.718  0.5620 -1.0806  0.8540
  441DG     H2210142   0.626   0.511   2.484  0.7414 -0.4966 -0.2349
  441DG     H2310143   0.767   0.419   2.502 -1.3313 -0.0274 -3.5358
  442DG      C110144   5.021   0.204   4.036  0.0616 -0.1587 -0.1545
  442DG      C210145   4.532   0.609   3.799  0.2940 -0.3300 -0.5104
  442DG      H310146   5.063   0.280   3.974 -1.7085  0.2210  0.5976
  442DG      H410147   5.028   0.118   3.970  0.0405 -1.5098 -0.8187
  442DG      H510148   5.089   0.198   4.127  1.1280  1.4134  1.2779
  442DG      H610149   4.621   0.676   3.805  0.0042 -0.8637  1.2909
  442DG      H710150   4.518   0.581   3.698 -1.4522 -1.7969  1.8915
  442DG      H810151   4.441   0.664   3.820 -2.5864 -0.7930  0.6897
  442DG      O910152   4.887   0.232   4.054  0.5034 -0.0572  0.0926
  442DG     O1010153   4.554   0.508   3.894  0.1221  0.0821  0.7780
  442DG     C1110154   4.804   0.113   4.051 -0.0067  0.1287  0.2595
  442DG     C1210155   4.469   0.389   3.875  0.1655  0.7349 -0.0033
  442DG     H1310156   4.850   0.036   4.115  0.9871 -0.3139 -0.3884
  442DG     H1410157   4.802   0.073   3.956 -1.7514 -1.4628  0.6739
  442DG     H1510158   4.483   0.337   3.780 -0.7411 -1.8905  0.7257
  442DG     H1610159   4.363   0.424   3.872 -0.6065  3.1325 -1.0199
  442DG     C1710160   4.664   0.150   4.094 -0.1804  0.2638 -0.0638
  442DG     C1810161   4.491   0.296   3.995 -0.2707 -0.6036 -0.5757
  442DG     O1910162   4.623   0.239   3.987  0.3213 -0.4661 -0.2898
  442DG     H2010163   4.651   0.184   4.198 -3.8358 -0.2634  2.2297
  442DG     H2110164   4.595   0.060   4.083  0.0794 -1.5028 -0.3913
  442DG     H2210165   4.477   0.346   4.093  0.1191  0.6770 -1.6342
  442DG     H2310166   4.416   0.212   4.002 -0.1641  0.8957  0.1342
  443DG      C110167   0.459   0.422   3.581 -1.2208 -0.7063  0.1128
  443DG      C210168   1.321   0.609   3.768  0.4765 -0.1947  0.1516
  443DG      H310169   0.484   0.380   3.478  1.0073  1.9518 -1.7100
  443DG      H410170   0.435   0.521   3.547 -0.9568  0.6926 -3.0630
  443DG      H510171   0.388   0.367   3.637 -0.0040 -0.0943  2.3638
  443DG      H610172   1.321   0.706   3.717 -1.7613 -1.1042 -1.3963
  443DG      H710173   1.356   0.636   3.873  3.2688  0.7202 -2.5412
  443DG      H810174   1.390   0.539   3.728  0.2161  0.3850 -1.4969
  443DG      O910175   0.572   0.410   3.666 -0.1726 -0.7490  0.6046
  443DG     O1010176   1.190   0.561   3.758 -0.0172 -0.0603  0.0759
  443DG     C1110177   0.695   0.451   3.602  0.4614  0.5788 -0.7118
  443DG     C1210178   1.145   0.516   3.631  0.5657 -0.1830  0.0798
  443DG     H1310179   0.680   0.552   3.560  2.6161  1.2847 -0.2067
  443DG     H1410180   0.728   0.380   3.529  3.2903 -0.6480 -0.1083
  443DG     H1510181   1.219   0.454   3.586 -1.0876  1.0966  1.1212
  443DG     H1610182   1.132   0.602   3.567  1.9054  0.5906 -1.0401
  443DG     C1710183   0.790   0.464   3.720  0.9329 -0.4099  0.4639
  443DG     C1810184   1.014   0.445   3.631 -0.3288 -0.2347  0.4443
  443DG     O1910185   0.916   0.529   3.691 -0.1355  0.4682  0.0954
  443DG     H2010186   0.811   0.362   3.743  0.4394 -0.7320  0.9382
  443DG     H2110187   0.744   0.505   3.812 -3.0944  1.7517 -1.7805
  443DG     H2210188   0.985   0.417   3.522  0.3920  1.9723 -1.5602
  443DG     H2310189   1.028   0.348   3.685  0.0916 -1.8308  2.2985
  444DG      C110190   0.694   0.700   4.516  0.3823  0.1983 -0.2185
  444DG      C210191   0.151   0.161   4.377 -0.0741  0.0305  0.1087
  444DG      H310192   0.799   0.707   4.510 -1.6515  0.8960  0.2630
  444DG      H410193   0.650   0.738   4.601 -0.7468 -0.0320 -1.4329
  444DG      H510194   0.662   0.777   4.450  2.6182  0.2345  0.6380
  444DG      H610195   0.195   0.163   4.285 -0.2037 -0.4622  2.0550
  444DG      H710196   0.130   0.056   4.415 -0.8406  0.3874 -1.1864
  444DG      H810197   0.056   0.217   4.368  0.1204 -1.0902  1.2901
  444DG      O910198   0.645   0.575   4.483 -0.1452  0.0898  0.2685
  444DG     O1010199   0.247   0.230   4.459  0.1667 -0.0091 -0.1183
  444DG     C1110200   0.682   0.464   4.564  0.0891 -0.1853 -0.6874
  444DG     C1210201   0.357   0.146   4.475  0.1059  0.3398  0.4661
  444DG     H1310202   0.625   0.461   4.653  0.1756  2.8533 -0.6877
  444DG     H1410203   0.779   0.479   4.594  1.7206  0.4209 -0.5687
  444DG     H1510204   0.404   0.124   4.381  1.2436 -1.0458  1.6677
  444DG     H1610205   0.338   0.057   4.536 -1.8379 -2.3147  0.8481
  444DG     C1710206   0.662   0.334   4.489 -0.7839 -0.3726 -0.1164
  444DG     C1810207   0.473   0.211   4.556  0.0059  0.2280  0.0461
  444DG     O1910208   0.528   0.315   4.472  0.1332 -0.5694  0.2909
  444DG     H2010209   0.710   0.247   4.530 -2.3690 -0.4010 -2.0924
  444DG     H2110210   0.715   0.329   4.389 -0.1104  0.1266 -0.4946
  444DG     H2210211   0.443   0.266   4.643  0.0653  0.1271 -0.1277
  444DG     H2310212   0.555   0.144   4.577 -2.7107 -0.4986 -0.5855
  445DG      C110213   0.116   1.266   4.462  0.0684  0.9484 -0.2374
  445DG      C210214   0.262   1.837   4.269 -0.3404 -0.2595  0.4727
  445DG      H310215   0.147   1.359   4.433 -0.7359  0.4344  2.5542
  445DG      H410216   0.090   1.275   4.569  3.7194 -0.4998  0.8644
  445DG      H510217   0.021   1.258   4.412  0.1368 -2.2724  0.4592
  445DG      H610218   0.355   1.892   4.268 -0.9817 -0.5236 -1.8174
  445DG      H710219   0.210   1.854   4.176  3.2926  2.4197 -0.7028
  445DG      H810220   0.199   1.879   4.352 -2.8196  2.2356  1.2290
  445DG      O910221   0.215   1.166   4.436 -0.2163  0.0001 -0.3253
  445DG     O1010222   0.283   1.698   4.292 -0.1685 -0.0595 -0.1965
  445DG     C1110223   0.269   1.167   4.303 -0.5116  0.5734  0.0453
  445DG     C1210224   0.377   1.651   4.191 -0.2145  0.4660  0.5891
  445DG     H1310225   0.202   1.172   4.220 -0.9569  3.9499  1.1720
  445DG     H1410226   0.325   1.069   4.305  1.5272  1.5362 -0.8545
  445DG     H1510227   0.455   1.729   4.170  0.2038  0.2293 -2.1733
  445DG     H1610228   0.319   1.645   4.101  1.0576  1.1179 -2.6770
  445DG     C1710229   0.375   1.282   4.283  0.4534 -0.6433  0.6134
  445DG     C1810230   0.428   1.505   4.214 -0.6808 -0.9633  0.0668
  445DG     O1910231   0.322   1.411   4.252  0.3455 -0.4008 -0.2925
  445DG     H2010232   0.425   1.245   4.195  0.8709 -0.2854 -1.9340
  445DG     H2110233   0.443   1.290   4.370 -1.1868  0.3127  0.2595
  445DG     H2210234   0.469   1.467   4.121  0.5778  0.7776  2.8956
  445DG     H2310235   0.511   1.493   4.290  0.0397 -0.3250  2.6186
  446DG      C110236   0.384   2.612   0.719  0.0874  0.0442  0.8653
  446DG      C210237   0.489   3.079   0.171  0.7937  0.3673 -0.3582
  446DG      H310238   0.448   2.570   0.801  4.8275  0.0471 -1.2344
  446DG      H410239   0.345   2.530   0.672 -0.1686  0.4001  0.2595
  446DG      H510240   0.300   2.672   0.751 -0.0066 -1.2093 -1.0106
  446DG      H610241   0.382   3.094   0.202 -0.3715  0.2011 -0.8726
  446DG      H710242   0.539   3.171   0.201 -0.0938  1.8162  1.1346
  446DG      H810243   0.500   3.062   0.066  0.3163 -0.4842  0.4242
  446DG      O910244   0.466   2.677   0.635  0.2858 -0.3251 -0.2707
  446DG     O1010245   0.536   2.979   0.255  0.4228  0.6207 -1.2559
  446DG     C1110246   0.563   2.756   0.701  0.0770  0.5053  0.2346
  446DG     C1210247   0.676   2.977   0.282 -0.1773 -0.0665  0.3948
  446DG     H1310248   0.613   2.693   0.774  0.4957  0.0046 -2.0989
  446DG     H1410249   0.518   2.840   0.757 -1.9637 -0.1769  0.3574
  446DG     H1510250   0.700   3.072   0.326 -1.8418 -0.6144 -0.7444
  446DG     H1610251   0.739   2.968   0.195 -2.4496 -1.5394  1.6620
  446DG     C1710252   0.680   2.801   0.611  0.7245 -0.1468  0.3470
  446DG     C1810253   0.729   2.879   0.388 -1.3200 -0.1626  0.3528
  446DG     O1910254   0.628   2.866   0.495 -0.6084 -0.2062 -0.2330
  446DG     H2010255   0.721   2.705   0.576  1.0718  1.8781 -0.4012
  446DG     H2110256   0.760   2.856   0.663  0.4916 -0.7199 -0.4659
  446DG     H2210257   0.759   2.784   0.340 -0.4639 -0.7143  0.5947
  446DG     H2310258   0.820   2.921   0.417 -0.8272 -0.9363 -0.7415
  447DG      C110259   1.311   2.591   2.896 -0.1976  0.1657  0.0303
  447DG      C210260   0.876   2.013   3.103  0.0035 -0.0720  0.4464
  447DG      H310261   1.281   2.675   2.836 -0.4259  0.2379  1.1947
  447DG      H410262   1.296   2.510   2.824 -1.9380 -0.4717 -0.5764
  447DG      H510263   1.413   2.604   2.928  2.0493 -0.1621  0.0752
  447DG      H610264   0.947   1.940   3.056 -1.0265  0.2456  0.2198
  447DG      H710265   0.838   1.967   3.195  1.7742  0.6981  1.3550
  447DG      H810266   0.798   2.032   3.031  0.1506 -1.7018 -0.6342
  447DG      O910267   1.221   2.576   2.995 -0.4095  0.0415 -0.2523
  447DG     O1010268   0.951   2.120   3.148 -0.1438 -0.9316 -0.0339
  447DG     C1110269   1.266   2.489   3.099 -0.3297  0.8768 -0.2160
  447DG     C1210270   0.873   2.234   3.196  0.2628  0.0355 -0.5666
  447DG     H1310271   1.344   2.545   3.149  0.7148 -0.1699 -0.9362
  447DG     H1410272   1.322   2.399   3.067 -0.4830  1.2210 -1.7650
  447DG     H1510273   0.805   2.199   3.272 -2.9258 -1.8982  1.9704
  447DG     H1610274   0.824   2.255   3.101 -0.2279 -0.0130  0.0837
  447DG     C1710275   1.160   2.461   3.204 -0.6516 -0.2794 -0.3828
  447DG     C1810276   0.967   2.336   3.254 -0.7394  0.2600 -0.4619
  447DG     O1910277   1.055   2.378   3.153 -0.0014  0.0631  0.1986
  447DG     H2010278   1.117   2.551   3.236  1.2944  0.5365  2.2616
  447DG     H2110279   1.208   2.416   3.295  1.0886 -0.7800  0.0698
  447DG     H2210280   0.919   2.422   3.293  0.7570 -1.1725 -2.2549
  447DG     H2310281   1.015   2.288   3.337 -3.3133  0.1816  0.1161
  448DG      C110282   0.151   3.086   4.067 -0.1170  0.4284  0.6761
  448DG      C210283   0.672   3.518   3.652  0.0229  0.6760 -0.2780
  448DG      H310284   0.064   3.109   4.130  2.3424 -2.2078  2.5143
  448DG      H410285   0.228   3.048   4.132 -1.2716  2.3538 -0.5795
  448DG      H510286   0.122   3.008   3.996  2.1558  0.2131  0.6682
  448DG      H610287   0.749   3.450   3.679 -0.8478  1.2775  1.1064
  448DG      H710288   0.657   3.490   3.552 -0.2322  1.2015 -1.3527
  448DG      H810289   0.709   3.623   3.657  0.4430  0.9153 -3.0124
  448DG      O910290   0.209   3.200   4.007 -0.2078 -0.0940 -0.7272
  448DG     O1010291   0.554   3.492   3.719 -0.5369  0.0528 -0.2710
  448DG     C1110292   0.128   3.269   3.912  1.0872  0.1859 -0.5494
  448DG     C1210293   0.546   3.354   3.759 -0.6854  0.2203  0.2171
  448DG     H1310294   0.026   3.275   3.948  1.1735 -0.4150 -0.4214
  448DG     H1410295   0.115   3.205   3.827  0.3409  0.9231  3.2656
  448DG     H1510296   0.627   3.328   3.828  0.4461  0.7296  1.1008
  448DG     H1610297   0.543   3.287   3.681  0.4079  1.0123  3.7268
  448DG     C1710298   0.197   3.395   3.872 -0.5947  0.3797 -0.3000
  448DG     C1810299   0.426   3.326   3.856  0.1249 -0.2956  0.4651
  448DG     O1910300   0.307   3.370   3.790  1.0172  0.0546  0.4818
  448DG     H2010301   0.226   3.437   3.962 -2.2288  2.3244 -1.0089
  448DG     H2110302   0.127   3.467   3.824  0.4326  0.5035 -0.6506
  448DG     H2210303   0.427   3.224   3.902 -2.8587 -3.4705 -0.5138
  448DG     H2310304   0.445   3.388   3.945 -2.7272  2.4824 -1.5392
  449DG      C110305   3.257   2.256   3.918  0.3400 -0.3007 -0.5638
  449DG      C210306   3.344   2.560   3.645 -0.0131 -0.2435 -0.7083
  449DG      H310307   3.271   2.271   4.031 -1.1661  2.7630 -2.6720
  449DG      H410308   3.271   2.337   3.855 -1.2097  2.1705 -0.0984
  449DG      H510309   3.326   2.170   3.884  2.3779 -1.3081 -1.4396
  449DG      H610310   3.371   2.658   3.619 -0.6852 -1.3225  1.0826
  449DG      H710311   3.349   2.550   3.757  0.8955 -1.3873  0.9435
  449DG      H810312   3.398   2.481   3.600  0.0090  0.9971  0.1910
  449DG      O910313   3.123   2.202   3.903 -0.9771  0.4247 -0.3454
  449DG     O1010314   3.209   2.547   3.602 -0.1843  0.4176  0.3637
  449DG     C1110315   3.017   2.277   3.963 -0.2022 -0.5616  0.3083
  449DG     C1210316   3.124   2.643   3.656 -0.9589 -0.0750  0.4144
  449DG     H1310317   3.009   2.254   4.069 -0.8486 -4.7449 -0.8721
  449DG     H1410318   2.921   2.242   3.915 -2.1365 -1.9648 -0.4917
  449DG     H1510319   3.040   2.651   3.585  1.1496  2.2224 -1.6434
  449DG     H1610320   3.178   2.741   3.651  1.4275  2.7104 -1.9083
  449DG     C1710321   3.026   2.431   3.937 -0.6833  0.5870 -0.1269
  449DG     C1810322   3.089   2.606   3.799 -0.4520 -0.4271  0.5130
  449DG     O1910323   3.051   2.469   3.810  0.7570 -0.0576  0.1915
  449DG     H2010324   3.100   2.467   4.011  0.4260  0.7930  1.1028
  449DG     H2110325   2.930   2.477   3.972  0.5478 -0.9798  1.0949
  449DG     H2210326   3.179   2.626   3.870  0.4989  0.2360  1.7209
  449DG     H2310327   3.003   2.671   3.824 -1.8165  1.6614 -0.2826
  450DG      C110328   3.934   4.862   4.125 -0.0896 -0.4166  0.3297
  450DG      C210329   3.822   4.667   4.718 -0.2989 -0.1404 -0.1968
  450DG      H310330   3.837   4.819   4.137  0.4702 -0.7482 -0.4564
  450DG      H410331   3.993   4.811   4.054 -1.1950  1.3700  1.5964
  450DG      H510332   3.922   4.963   4.102  0.1667 -0.4562  1.2351
  450DG      H610333   3.760   4.606   4.650  0.3624 -1.4102 -1.2500
  450DG      H710334   3.816   4.610   4.816  1.9165 -4.3186  0.3108
  450DG      H810335   3.770   4.761   4.726  2.6749 -1.1722 -1.4288
  450DG      O910336   4.004   4.854   4.244 -0.2487  0.0508 -0.2517
  450DG     O1010337   3.947   4.692   4.664 -0.2966  0.6936  0.3179
  450DG     C1110338   4.006   4.723   4.292 -0.9191  1.1109  0.2516
  450DG     C1210339   4.039   4.783   4.722  0.4007 -0.3305 -0.2121
  450DG     H1310340   4.025   4.652   4.218 -3.7243  0.9109 -0.1802
  450DG     H1410341   3.913   4.691   4.338 -0.9724 -2.6589 -0.5722
  450DG     H1510342   4.077   4.734   4.818 -1.7301 -3.5100  0.3455
  450DG     H1610343   3.995   4.871   4.746  1.0559 -2.6834 -1.5432
  450DG     C1710344   4.112   4.714   4.405  1.1578 -0.1452 -0.5624
  450DG     C1810345   4.158   4.793   4.625 -0.5408 -0.3611 -0.6712
  450DG     O1910346   4.103   4.814   4.505  0.0403 -0.5060  0.2835
  450DG     H2010347   4.211   4.721   4.369  1.4797 -1.2533  1.4458
  450DG     H2110348   4.102   4.618   4.457 -1.8934  0.0417  1.1473
  450DG     H2210349   4.232   4.866   4.650  0.4176  3.4970 -2.8900
  450DG     H2310350   4.201   4.693   4.629  0.1594 -1.3697 -0.4547
  451DG      C110351   0.094   0.473   3.062 -0.4005  0.5368  0.4615
  451DG      C210352  -0.575   0.263   3.271 -1.0793  0.1631  0.9826
  451DG      H310353   0.179   0.485   2.990  1.2212  0.0300  2.0048
  451DG      H410354   0.109   0.381   3.108  1.4544  0.0783 -0.8043
  451DG      H510355   0.104   0.548   3.138 -0.3553 -1.1535  1.2337
  451DG      H610356  -0.545   0.213   3.356 -0.1254  0.5608 -0.8191
  451DG      H710357  -0.669   0.228   3.243  2.7116 -0.1842  1.0856
  451DG      H810358  -0.496   0.238   3.195 -0.7097 -0.0103  3.0001
  451DG      O910359  -0.034   0.483   2.997 -0.1760 -0.0020  0.0997
  451DG     O1010360  -0.577   0.395   3.292 -0.2603 -0.0480 -0.0327
  451DG     C1110361  -0.139   0.508   3.086  0.1475  0.7335 -0.3870
  451DG     C1210362  -0.620   0.478   3.186 -0.2610 -0.3403 -0.6557
  451DG     H1310363  -0.118   0.597   3.138  1.0182  0.2045 -0.6015
  451DG     H1410364  -0.129   0.436   3.163 -1.7919  1.5515  0.8848
  451DG     H1510365  -0.640   0.578   3.212  1.7814  0.2289 -1.2334
  451DG     H1610366  -0.712   0.451   3.139 -0.8063  3.4433  0.4533
  451DG     C1710367  -0.279   0.497   3.036  0.4096  0.2134  0.1959
  451DG     C1810368  -0.514   0.484   3.072 -0.2666 -0.1524 -0.3403
  451DG     O1910369  -0.390   0.520   3.128 -0.0943  0.0728 -0.3183
  451DG     H2010370  -0.283   0.392   3.006 -0.6983 -1.1177  0.2856
  451DG     H2110371  -0.292   0.560   2.946  2.3803 -3.2870 -0.2979
  451DG     H2210372  -0.518   0.384   3.018  0.5363  0.0181 -1.8585
  451DG     H2310373  -0.532   0.545   2.987  0.4965 -2.2671 -0.6701
  452DG      C110374   1.958   4.380   2.619  0.2977 -0.7190 -0.3285
  452DG      C210375   1.917   4.739   3.210  0.1041 -0.7424  0.0820
  452DG      H310376   1.932   4.300   2.558  3.2092  0.1807  0.4065
  452DG      H410377   1.974   4.345   2.726 -0.0269  0.9787 -0.4179
  452DG      H510378   2.059   4.407   2.594 -1.0155  1.5303 -1.3754
  452DG      H610379   2.010   4.699   3.256  0.2956  2.2780  1.8630
  452DG      H710380   1.947   4.839   3.185  1.3892  0.4536 -1.4039
  452DG      H810381   1.841   4.743   3.294 -0.4017  0.4140  0.9222
  452DG      O910382   1.881   4.502   2.617  0.6498 -0.2325 -0.1371
  452DG     O1010383   1.868   4.669   3.099 -0.1220  0.3991 -0.2821
  452DG     C1110384   1.743   4.467   2.633  0.0398  0.6335  0.1909
  452DG     C1210385   1.842   4.530   3.127  0.2503  0.1114 -0.4858
  452DG     H1310386   1.703   4.385   2.568 -0.1809 -2.1258 -1.5419
  452DG     H1410387   1.683   4.551   2.601 -0.8601 -1.9840 -3.4112
  452DG     H1510388   1.800   4.515   3.231 -0.1636 -2.7305 -3.5186
  452DG     H1610389   1.942   4.474   3.134 -1.2108 -1.0731 -0.0667
  452DG     C1710390   1.698   4.445   2.786 -0.1881 -0.7045 -0.3777
  452DG     C1810391   1.744   4.469   3.016  0.2952  0.2922 -0.4087
  452DG     O1910392   1.775   4.517   2.885  0.5955  0.6234  0.2727
  452DG     H2010393   1.690   4.341   2.810 -3.5326  0.6688  0.7167
  452DG     H2110394   1.602   4.494   2.798  2.1344  1.6685  0.3796
  452DG     H2210395   1.751   4.362   3.025 -0.5107  1.1713  0.9977
  452DG     H2310396   1.643   4.494   3.035  1.7170  0.0756  1.1278
  453DG      C110397   2.897   1.722   5.395  0.8844 -0.2459 -0.2065
  453DG      C210398   2.381   2.077   5.310  0.1993 -0.2209 -0.0538
  453DG      H310399   2.946   1.809   5.439  2.4914  0.1471  1.8724
  453DG      H410400   2.953   1.631   5.375 -5.2850  1.3439  0.2599
  453DG      H510401   2.825   1.693   5.469 -2.1247 -0.7883 -0.4645
  453DG      H610402   2.439   2.147   5.362 -0.3605 -0.6257 -0.9958
  453DG      H710403   2.286   2.114   5.265 -0.0775  2.0606 -0.0451
  453DG      H810404   2.346   2.004   5.387  0.5544  1.3646 -1.6996
  453DG      O910405   2.816   1.753   5.280 -0.1346 -0.2308 -0.0448
  453DG     O1010406   2.461   2.007   5.220 -0.5484 -0.5747 -0.1265
  453DG     C1110407   2.898   1.812   5.178 -0.5518 -0.2644 -0.6764
  453DG     C1210408   2.537   2.103   5.137 -0.0677  0.4380  0.1695
  453DG     H1310409   2.976   1.736   5.150  3.4278  3.0566  0.8857
  453DG     H1410410   2.954   1.898   5.209  1.4588  1.2003  1.1956
  453DG     H1510411   2.588   2.171   5.203 -4.1575  1.1914  0.0172
  453DG     H1610412   2.466   2.157   5.072  0.6867 -0.5604  2.6190
  453DG     C1710413   2.804   1.855   5.066  0.6206 -0.8377  0.4290
  453DG     C1810414   2.650   2.040   5.050  1.3744  0.5352  0.4375
  453DG     O1910415   2.713   1.943   5.130  0.0806  0.1568 -0.3903
  453DG     H2010416   2.741   1.765   5.043 -1.2581 -2.7455  1.1100
  453DG     H2110417   2.860   1.900   4.984 -1.9237 -0.2818 -0.6957
  453DG     H2210418   2.605   1.999   4.958 -1.9250  1.2321  0.0234
  453DG     H2310419   2.713   2.121   5.018 -1.2219  0.1535  2.1729
  454DG      C110420   2.985   0.367   4.669  0.0628  0.1866  0.4911
  454DG      C210421   2.721   0.504   5.149  0.3022  0.1416 -0.1352
  454DG      H310422   3.065   0.336   4.736  2.8975  0.3304  0.2630
  454DG      H410423   2.993   0.287   4.592 -0.4707 -1.7296 -1.4762
  454DG      H510424   2.883   0.355   4.714  0.8789  2.3475  1.1043
  454DG      H610425   2.798   0.482   5.225 -0.6476  1.7221  2.6734
  454DG      H710426   2.654   0.565   5.211  0.8948  0.2008 -1.7641
  454DG      H810427   2.673   0.411   5.123 -0.8636  0.5104 -0.0946
  454DG      O910428   3.012   0.497   4.618  0.0278 -0.3318  0.2654
  454DG     O1010429   2.744   0.559   5.021  0.0939 -0.6031 -0.6397
  454DG     C1110430   2.906   0.572   4.557 -0.3918  0.4358 -0.3484
  454DG     C1210431   2.818   0.676   5.022 -0.1604 -0.5524  0.0701
  454DG     H1310432   2.835   0.494   4.525  0.5532  0.9033  0.0123
  454DG     H1410433   2.940   0.637   4.477  1.1219 -1.1162 -0.8333
  454DG     H1510434   2.922   0.652   5.043  1.2055 -0.3831  3.2863
  454DG     H1610435   2.764   0.745   5.083  2.2816 -1.2901 -1.5663
  454DG     C1710436   2.852   0.678   4.656 -0.6647 -0.1579  0.2805
  454DG     C1810437   2.796   0.726   4.881  0.0662  0.6062  0.4477
  454DG     O1910438   2.828   0.624   4.787 -0.2650  0.1658 -0.6548
  454DG     H2010439   2.765   0.729   4.613 -0.1044 -3.4812 -1.8601
  454DG     H2110440   2.932   0.755   4.662 -2.5657 -0.7629 -0.9542
  454DG     H2210441   2.700   0.764   4.871  1.0003 -0.7683 -2.3790
  454DG     H2310442   2.860   0.814   4.862 -1.7770 -0.3576  0.2609
  455DG      C110443   5.305   2.238   0.286  0.1417  0.2408 -0.5630
  455DG      C210444   5.305   1.573   0.018  0.5880 -0.2337 -0.1891
  455DG      H310445   5.328   2.312   0.205 -0.3607 -0.4930  0.0003
  455DG      H410446   5.259   2.298   0.369  2.5605  0.6689 -1.8731
  455DG      H510447   5.226   2.175   0.236  3.5186  0.0300  2.4831
  455DG      H610448   5.325   1.471   0.069 -2.4645  3.4235  0.4945
  455DG      H710449   5.205   1.562  -0.022 -1.2238  2.6150 -3.7312
  455DG      H810450   5.376   1.583  -0.068  0.6559  1.7042  1.1158
  455DG      O910451   5.417   2.157   0.323  0.1206 -0.5113  0.8577
  455DG     O1010452   5.323   1.668   0.122  0.6895  0.1257  0.2061
  455DG     C1110453   5.389   2.057   0.422 -0.2717 -0.1725 -0.0832
  455DG     C1210454   5.451   1.728   0.111  0.2106 -0.6832  0.1536
  455DG     H1310455   5.332   2.093   0.500  1.3747 -2.4297 -0.9318
  455DG     H1410456   5.476   2.042   0.480 -1.0548  0.5771  1.4911
  455DG     H1510457   5.475   1.755   0.009  2.2466 -1.2573 -0.0400
  455DG     H1610458   5.532   1.664   0.148 -1.4778  0.5360 -0.7570
  455DG     C1710459   5.319   1.925   0.378 -0.9554 -0.8001 -0.2591
  455DG     C1810460   5.451   1.861   0.181 -0.0246  0.4918  0.1874
  455DG     O1910461   5.411   1.832   0.315  0.3017  0.0895  0.2215
  455DG     H2010462   5.243   1.949   0.307 -1.6020  1.4998  0.1917
  455DG     H2110463   5.269   1.869   0.456  0.8475 -0.3088  1.1162
  455DG     H2210464   5.554   1.904   0.177 -4.0612  1.7854 -3.6257
  455DG     H2310465   5.383   1.930   0.135 -2.2377 -1.4282 -0.1885
  456DG      C110466   3.181   2.709   4.203  0.2124 -0.1059  1.0355
  456DG      C210467   3.919   2.528   3.860  0.0299  0.1566  0.4455
  456DG      H310468   3.240   2.698   4.295  2.1158 -0.8320 -0.5803
  456DG      H410469   3.135   2.607   4.183  0.4465  0.6258  1.7595
  456DG      H510470   3.092   2.777   4.214  0.3361  0.0225 -1.8059
  456DG      H610471   3.877   2.437   3.818  1.5423 -1.1851 -0.6784
  456DG      H710472   3.998   2.564   3.787  2.3002 -2.5388 -2.9591
  456DG      H810473   3.967   2.509   3.954  3.9730 -0.1059  0.3701
  456DG      O910474   3.245   2.759   4.091  0.3028 -0.1534  0.2275
  456DG     O1010475   3.816   2.624   3.889 -0.0072 -0.6132 -0.5562
  456DG     C1110476   3.379   2.709   4.067 -0.0504  0.2284  1.1695
  456DG     C1210477   3.757   2.679   3.778  0.3864 -0.0586 -0.1602
  456DG     H1310478   3.374   2.598   4.043  0.7838 -1.5795 -1.1896
  456DG     H1410479   3.433   2.700   4.167  4.6793  2.5370 -1.8504
  456DG     H1510480   3.703   2.600   3.721  0.1343 -2.6114 -0.8376
  456DG     H1610481   3.833   2.714   3.715 -1.8352  2.0289 -1.2524
  456DG     C1710482   3.465   2.807   3.973 -0.4879  0.4930 -0.0950
  456DG     C1810483   3.658   2.793   3.836 -0.9126 -0.1603  0.1467
  456DG     O1910484   3.588   2.739   3.946 -0.2355  0.0147  0.0805
  456DG     H2010485   3.492   2.898   4.026  2.6669  2.2898 -1.1744
  456DG     H2110486   3.398   2.828   3.890  0.7393 -1.2689 -0.7044
  456DG     H2210487   3.714   2.886   3.865  0.2088 -1.0551 -1.0857
  456DG     H2310488   3.580   2.811   3.758 -1.5655 -0.6827  1.0231
  457DG      C110489   3.379   2.839   5.401 -0.0218  0.4507  0.1342
  457DG      C210490   2.848   2.685   5.887 -0.4701  0.1770  0.2128
  457DG      H310491   3.417   2.840   5.299 -0.5986  0.5706 -0.4111
  457DG      H410492   3.423   2.755   5.458 -3.6676 -2.8037  0.9282
  457DG      H510493   3.412   2.934   5.446  0.2368 -1.2492 -1.7302
  457DG      H610494   2.829   2.586   5.913 -0.8482  2.6986  1.0881
  457DG      H710495   2.940   2.709   5.944  1.1205 -0.9993 -2.1170
  457DG      H810496   2.760   2.744   5.926  1.7070 -1.4709  1.5283
  457DG      O910497   3.237   2.854   5.416 -0.2817 -0.4764 -0.0030
  457DG     O1010498   2.865   2.693   5.749 -0.4409  0.1834  0.0143
  457DG     C1110499   3.166   2.740   5.375  0.0374  0.2039 -0.1099
  457DG     C1210500   2.838   2.829   5.712  0.3115 -0.1537  0.0824
  457DG     H1310501   3.194   2.656   5.438 -0.4925  2.0084  0.8525
  457DG     H1410502   3.197   2.730   5.271  0.3895 -1.1875 -2.0671
  457DG     H1510503   2.897   2.898   5.780  0.9176  1.8854 -0.4580
  457DG     H1610504   2.732   2.852   5.730 -2.0003  0.5973  0.0335
  457DG     C1710505   3.019   2.769   5.394  0.2413  0.0078  0.5260
  457DG     C1810506   2.869   2.856   5.560  0.3555 -0.2893  0.0824
  457DG     O1910507   2.999   2.796   5.531 -0.6754  0.2895 -0.3063
  457DG     H2010508   2.962   2.679   5.383 -0.2065  1.5542 -0.3162
  457DG     H2110509   2.973   2.841   5.323 -1.0289  2.1898  0.7743
  457DG     H2210510   2.791   2.809   5.490 -1.6523 -0.0504 -0.4012
  457DG     H2310511   2.879   2.957   5.527 -4.8687 -0.4362  0.7769
  458DG      C110512   0.468   1.440   4.632 -0.6625  0.5357 -0.0619
  458DG      C210513   1.136   1.174   4.935  0.2430  0.2467  0.2951
  458DG      H310514   0.420   1.449   4.534 -0.2651  1.0675 -0.0968
  458DG      H410515   0.421   1.527   4.682  0.8562  1.3716  1.9606
  458DG      H510516   0.434   1.345   4.676 -1.3262  0.8136 -1.0316
  458DG      H610517   1.241   1.192   4.940  2.3778  0.2353  3.2804
  458DG      H710518   1.126   1.065   4.948 -0.9301 -1.8237 -0.3827
  458DG      H810519   1.113   1.191   4.828 -1.2502 -1.5189  1.2803
  458DG      O910520   0.607   1.462   4.622 -0.4767  0.6742 -0.2385
  458DG     O1010521   1.041   1.242   5.011  0.7002  0.5965  0.0767
  458DG     C1110522   0.666   1.432   4.751 -0.5425  0.2647 -0.7260
  458DG     C1210523   1.067   1.384   5.018 -0.3892 -0.3637  0.2114
  458DG     H1310524   0.650   1.329   4.791  1.1185 -0.5662 -1.3677
  458DG     H1410525   0.621   1.500   4.821  2.0443  0.4902  0.4799
  458DG     H1510526   1.176   1.392   5.031 -2.1468 -0.4316 -1.6969
  458DG     H1610527   1.018   1.416   5.108  0.6774  0.6470  1.3407
  458DG     C1710528   0.821   1.449   4.754 -0.2981  0.4659  0.3990
  458DG     C1810529   1.006   1.458   4.898 -0.3650  0.2888 -0.2178
  458DG     O1910530   0.871   1.405   4.881 -0.0759 -0.1785  0.3739
  458DG     H2010531   0.850   1.550   4.723 -2.3435  2.0083 -0.0960
  458DG     H2110532   0.847   1.382   4.680 -0.3617  0.4009 -1.3504
  458DG     H2210533   1.010   1.559   4.941  0.9763 -2.0671  2.3313
  458DG     H2310534   1.061   1.450   4.802 -1.5587  1.1113  2.5936
  459DG      C110535   1.707   3.208   0.156 -0.4074  0.0749 -0.0426
  459DG      C210536   1.761   3.114   0.987  0.1530  0.1060 -0.3842
  459DG      H310537   1.704   3.213   0.048  0.5842  0.0537  2.0244
  459DG      H410538   1.759   3.114   0.186 -1.4521 -0.9690  0.0850
  459DG      H510539   1.757   3.293   0.196  0.4335 -2.9907  2.6787
  459DG      H610540   1.816   3.016   1.003  1.6821 -3.0400  1.0836
  459DG      H710541   1.826   3.193   1.030 -0.6763  0.5991 -0.3393
  459DG      H810542   1.662   3.116   1.035  0.0361 -4.1535  2.5346
  459DG      O910543   1.569   3.220   0.211 -0.8660  0.3922 -0.4804
  459DG     O1010544   1.741   3.129   0.839  0.8145  0.0618 -0.1026
  459DG     C1110545   1.554   3.183   0.347  0.6235 -0.6829 -0.3871
  459DG     C1210546   1.684   3.257   0.812  0.2320 -0.2709 -0.9854
  459DG     H1310547   1.578   3.078   0.359 -1.7672 -1.3083  0.5031
  459DG     H1410548   1.449   3.200   0.358 -1.7421 -1.7837 -1.0192
  459DG     H1510549   1.733   3.334   0.873 -0.8635 -2.0544  1.2656
  459DG     H1610550   1.584   3.258   0.838  2.1918  2.2586  1.5278
  459DG     C1710551   1.630   3.274   0.446  0.7992  0.0117  0.0401
  459DG     C1810552   1.699   3.299   0.665 -0.0639 -0.1275 -0.3489
  459DG     O1910553   1.619   3.222   0.582  0.0091 -0.5301  0.0064
  459DG     H2010554   1.576   3.367   0.462  1.0975 -0.9827 -0.7894
  459DG     H2110555   1.733   3.299   0.416  2.5502 -0.7748 -1.1416
  459DG     H2210556   1.668   3.397   0.672  1.5823 -1.0489 -0.5779
  459DG     H2310557   1.808   3.289   0.639  0.2253  1.9050 -0.9207
  460DG      C110558   0.753   4.110   1.866 -0.5503 -0.1272 -0.1531
  460DG      C210559   0.490   3.732   1.357 -0.0615 -0.0486  0.5756
  460DG      H310560   0.736   4.209   1.832  3.2349  1.2789 -1.2210
  460DG      H410561   0.828   4.126   1.946  1.7544 -0.7977  0.4063
  460DG      H510562   0.673   4.075   1.930 -0.0773  0.7926  1.0198
  460DG      H610563   0.508   3.640   1.298 -0.3134  1.1650  1.7736
  460DG      H710564   0.424   3.700   1.433  0.9438 -1.1943  0.6930
  460DG      H810565   0.444   3.810   1.292  0.4957  0.8311  0.7926
  460DG      O910566   0.787   4.018   1.761  0.3561 -0.2886  0.3929
  460DG     O1010567   0.603   3.793   1.411  0.1202  0.2899 -0.1069
  460DG     C1110568   0.911   4.044   1.696  0.4504  0.1986 -0.1120
  460DG     C1210569   0.676   3.864   1.303  0.8558 -0.1614  0.1057
  460DG     H1310570   0.992   4.022   1.772  3.6143 -1.2160 -0.3455
  460DG     H1410571   0.919   4.145   1.663 -2.6855 -2.0060 -1.6841
  460DG     H1510572   0.625   3.961   1.272 -0.8083  2.7317  0.3078
  460DG     H1610573   0.675   3.809   1.210  0.2195  0.7365 -0.1942
  460DG     C1710574   0.922   3.955   1.573 -0.3036  0.7601 -0.1396
  460DG     C1810575   0.817   3.892   1.370  0.2258  0.3646  0.3815
  460DG     O1910576   0.806   3.971   1.492  0.0788  0.0263 -0.4959
  460DG     H2010577   0.926   3.845   1.597  1.6184  1.7873  0.8127
  460DG     H2110578   1.014   3.970   1.521 -0.0621  0.0493 -0.3240
  460DG     H2210579   0.861   3.793   1.398 -1.2356 -1.7078  0.2930
  460DG     H2310580   0.877   3.946   1.298  0.8096  0.0272  0.4612
  461DG      C110581   1.538   0.686   4.101  0.3169  0.5109 -0.6013
  461DG      C210582   2.321   0.650   4.469  0.2060  0.3959  0.2192
  461DG      H310583   1.492   0.746   4.031 -0.5842  0.0511  2.0298
  461DG      H410584   1.516   0.716   4.200 -0.7613  0.4435  0.5755
  461DG      H510585   1.500   0.583   4.080  0.9628 -0.8611  1.0049
  461DG      H610586   2.430   0.640   4.464  0.1034  1.0340 -0.1311
  461DG      H710587   2.293   0.715   4.560 -0.3701  0.9063  0.9112
  461DG      H810588   2.278   0.550   4.481 -0.4389  1.6327 -2.5230
  461DG      O910589   1.679   0.682   4.085  0.5675 -0.1027  0.1439
  461DG     O1010590   2.283   0.688   4.340  0.2702  0.1004  0.1087
  461DG     C1110591   1.727   0.818   4.075 -0.0534 -0.1672  0.1687
  461DG     C1210592   2.136   0.688   4.324 -0.3944  0.3274  0.3546
  461DG     H1310593   1.698   0.880   4.160  1.1584  2.0678  0.2576
  461DG     H1410594   1.685   0.857   3.983  1.4781 -2.3876  0.4871
  461DG     H1510595   2.090   0.730   4.414  2.5890 -1.6048  0.6363
  461DG     H1610596   2.109   0.587   4.308 -0.4035  0.3697  0.5792
  461DG     C1710597   1.878   0.810   4.077  0.0104 -0.2536 -0.2602
  461DG     C1810598   2.082   0.762   4.197 -0.1402 -0.0864 -0.1495
  461DG     O1910599   1.943   0.749   4.188  0.0346 -0.4270 -0.2052
  461DG     H2010600   1.910   0.911   4.071  0.1717 -3.8616 -1.6974
  461DG     H2110601   1.911   0.749   4.000  2.2393 -1.1964  3.8917
  461DG     H2210602   2.109   0.870   4.203 -1.1116  0.7025  2.2481
  461DG     H2310603   2.128   0.723   4.109 -0.9293 -0.0803  3.2823
  462DG      C110604   2.014   3.676   2.200 -0.3262  0.1352  0.8008
  462DG      C210605   2.482   4.150   1.972  0.4351  0.3253 -0.2812
  462DG      H310606   1.964   3.642   2.109  3.4050 -2.0768 -1.7141
  462DG      H410607   1.958   3.761   2.239 -2.1173  3.5252 -2.2823
  462DG      H510608   2.013   3.588   2.267  1.5650 -0.1370  1.3140
  462DG      H610609   2.537   4.183   1.883  0.4639 -0.3568 -0.5024
  462DG      H710610   2.394   4.213   1.963  0.7520  0.0584  0.3300
  462DG      H810611   2.558   4.176   2.054 -0.0986  0.5697 -2.2958
  462DG      O910612   2.157   3.695   2.169 -0.5625 -0.4773 -0.2776
  462DG     O1010613   2.439   4.014   1.975 -0.2673  0.5398 -0.7978
  462DG     C1110614   2.217   3.585   2.104  0.8307  0.0417 -0.0484
  462DG     C1210615   2.537   3.916   1.946  0.2820 -0.5235 -0.2191
  462DG     H1310616   2.172   3.585   2.009  0.5811 -0.8257  2.9571
  462DG     H1410617   2.181   3.488   2.145 -2.2567 -1.9720 -0.3722
  462DG     H1510618   2.634   3.940   1.980 -1.0174  0.2869 -1.1126
  462DG     H1610619   2.513   3.906   1.841 -3.6902 -1.7952  0.2465
  462DG     C1710620   2.369   3.609   2.079  0.5359  0.3691 -0.3843
  462DG     C1810621   2.515   3.781   2.020 -0.1010 -0.7148 -0.0645
  462DG     O1910622   2.381   3.739   2.023 -0.3099 -0.3638 -0.2814
  462DG     H2010623   2.407   3.539   2.004  0.1489  1.3316 -0.2100
  462DG     H2110624   2.425   3.595   2.171  0.5644 -0.4927  2.5348
  462DG     H2210625   2.573   3.710   1.965 -0.9458 -3.1425  0.4488
  462DG     H2310626   2.565   3.785   2.115  0.8861  1.7569 -1.8560
  463DG      C110627   4.092   1.010   4.878 -0.0714 -0.4340  0.1430
  463DG      C210628   3.355   1.043   5.271 -0.3095 -0.0030 -0.0071
  463DG      H310629   4.094   1.117   4.836 -1.1599 -0.8320 -0.7626
  463DG      H410630   4.136   0.949   4.804  0.2338  0.2098 -0.0333
  463DG      H510631   4.169   0.998   4.952 -2.2483  0.0615  2.2825
  463DG      H610632   3.256   1.077   5.243 -0.0678 -2.1229  1.2339
  463DG      H710633   3.349   0.991   5.356  3.5894  0.5037  0.5679
  463DG      H810634   3.399   1.140   5.297 -1.9376 -1.9850 -2.6186
  463DG      O910635   3.958   0.972   4.905  0.2231  0.3102  0.0565
  463DG     O1010636   3.435   0.977   5.171  0.5640 -0.4065  0.0971
  463DG     C1110637   3.873   0.960   4.791 -0.0110 -0.9037 -0.3122
  463DG     C1210638   3.495   1.058   5.075  0.2829 -0.8436  0.4837
  463DG     H1310639   3.917   0.886   4.717 -0.1424  1.1211 -2.6295
  463DG     H1410640   3.869   1.065   4.750  1.5494  1.8767 -1.0345
  463DG     H1510641   3.568   1.126   5.114 -2.3972  2.1493 -1.5860
  463DG     H1610642   3.425   1.118   5.018 -1.6846 -2.3813  1.6218
  463DG     C1710643   3.735   0.906   4.820 -0.0178  0.1923 -0.0161
  463DG     C1810644   3.549   0.966   4.965  0.0319 -0.4486  0.4867
  463DG     O1910645   3.675   1.013   4.911 -0.2799  0.7275 -0.1974
  463DG     H2010646   3.748   0.811   4.875  1.1547  0.9897 -2.1638
  463DG     H2110647   3.676   0.903   4.736 -0.8491 -0.2830  1.3192
  463DG     H2210648   3.556   0.862   4.996 -0.6935  0.0562 -1.2435
  463DG     H2310649   3.481   0.964   4.877  0.8755  1.0877  2.7723
  464DG      C110650   0.277   3.077   2.304  0.8738  0.8089  0.5720
  464DG      C210651   0.081   2.891   1.524  0.8186 -0.6139 -0.3528
  464DG      H310652   0.350   3.161   2.312 -1.7746  1.8702  1.0492
  464DG      H410653   0.316   2.988   2.355 -1.5195  0.4452 -1.6456
  464DG      H510654   0.197   3.100   2.376  2.7924  2.4144 -0.9479
  464DG      H610655   0.186   2.904   1.562  0.9647  0.8530  3.2171
  464DG      H710656   0.053   2.782   1.535 -0.6418 -1.1006  0.8570
  464DG      H810657   0.070   2.927   1.415 -1.3784  2.5736 -1.8564
  464DG      O910658   0.240   3.030   2.178  0.3701  0.4711 -0.0490
  464DG     O1010659  -0.010   2.960   1.608  0.6053  0.1895 -0.2153
  464DG     C1110660   0.144   2.924   2.167  0.1916 -0.2965  0.1952
  464DG     C1210661   0.009   2.922   1.745 -0.2828 -0.0721 -0.0337
  464DG     H1310662   0.044   2.946   2.208 -3.6837 -0.0129 -0.8797
  464DG     H1410663   0.176   2.823   2.213 -0.0639 -1.7743 -0.0310
  464DG     H1510664   0.024   2.817   1.751 -1.4976  0.3095 -0.3059
  464DG     H1610665  -0.083   2.933   1.797  0.8038  1.0059  1.7079
  464DG     C1710666   0.136   2.897   2.014  0.8631  0.2840  0.0161
  464DG     C1810667   0.122   3.005   1.809  0.8291  0.4092 -0.0560
  464DG     O1910668   0.109   3.022   1.949 -0.1057  0.1052  0.5642
  464DG     H2010669   0.055   2.823   1.999 -0.0634  1.9056  0.2532
  464DG     H2110670   0.230   2.847   1.989  0.2455  1.8471 -0.3101
  464DG     H2210671   0.225   2.977   1.776 -0.0344 -1.2521 -3.1092
  464DG     H2310672   0.100   3.108   1.770  0.9251 -1.1656 -0.0342
  465DG      C110673   5.349   1.457   4.766 -0.5643 -0.4805  0.2119
  465DG      C210674   5.332   2.125   4.919  0.7283  0.5030 -0.4368
  465DG      H310675   5.336   1.355   4.733  1.3141  1.2584  0.1381
  465DG      H410676   5.379   1.516   4.686 -0.6960 -1.6345 -0.7698
  465DG      H510677   5.246   1.471   4.789  0.6648 -1.1569  1.6671
  465DG      H610678   5.430   2.109   4.963 -0.4143 -0.0518 -1.4384
  465DG      H710679   5.356   2.171   4.818  3.0076  0.5520 -1.3181
  465DG      H810680   5.284   2.205   4.974  0.5310 -0.7689  1.3188
  465DG      O910681   5.421   1.469   4.889 -0.3266 -0.4617  0.3997
  465DG     O1010682   5.259   2.007   4.894 -0.1854  0.1143 -0.0176
  465DG     C1110683   5.352   1.445   5.010  0.3882 -1.1508  0.4311
  465DG     C1210684   5.329   1.893   4.962 -0.5085  0.2261  0.1115
  465DG     H1310685   5.430   1.449   5.091 -0.5732  4.5512 -1.1847
  465DG     H1410686   5.300   1.348   5.007  0.1451 -0.2551  1.6963
  465DG     H1510687   5.346   1.931   5.065 -0.2959  0.3587  2.4274
  465DG     H1610688   5.425   1.874   4.911  0.6507  0.3871 -0.8515
  465DG     C1710689   5.244   1.555   5.055  0.0326 -0.1688 -0.6396
  465DG     C1810690   5.247   1.766   4.958 -0.4818 -0.8525 -0.1908
  465DG     O1910691   5.298   1.682   5.055  0.3088  0.5821 -0.0245
  465DG     H2010692   5.212   1.545   5.160  2.4794 -0.6080  2.0451
  465DG     H2110693   5.155   1.556   4.986  2.4259 -0.1364  0.0838
  465DG     H2210694   5.142   1.795   4.974  1.0663 -2.2646 -0.9261
  465DG     H2310695   5.254   1.729   4.850 -1.2791 -1.9762 -2.6722
  466DG      C110696   1.370   4.991   0.884 -0.3053 -0.0897 -0.2287
  466DG      C210697   1.020   5.473   1.212  0.8260 -0.6394  0.7877
  466DG      H310698   1.291   4.993   0.812  1.3634  1.7991  0.5618
  466DG      H410699   1.344   4.917   0.958  2.8557  0.6182 -1.7230
  466DG      H510700   1.454   4.951   0.830  0.6361  0.6820 -0.1835
  466DG      H610701   0.995   5.434   1.308 -1.0703 -0.6234  0.1329
  466DG      H710702   1.000   5.581   1.216  1.5403  0.7544  3.1268
  466DG      H810703   0.958   5.427   1.134  1.4390  2.5702 -1.9032
  466DG      O910704   1.386   5.122   0.939 -0.0842  0.1973 -0.0165
  466DG     O1010705   1.148   5.451   1.175 -0.2234 -0.3382  0.8269
  466DG     C1110706   1.481   5.127   1.042 -0.1862 -0.1660 -0.0846
  466DG     C1210707   1.245   5.477   1.269 -0.8820 -0.7432 -0.2336
  466DG     H1310708   1.572   5.089   0.994 -2.4654  0.7946 -3.5481
  466DG     H1410709   1.459   5.059   1.119  0.6409  1.9077  3.5988
  466DG     H1510710   1.214   5.434   1.368 -1.3097  0.4605  1.4656
  466DG     H1610711   1.240   5.583   1.288 -0.4640  1.1234  0.1117
  466DG     C1710712   1.513   5.267   1.100  0.3090 -0.7916 -0.1673
  466DG     C1810713   1.385   5.440   1.212  0.2811  0.1157 -0.2011
  466DG     O1910714   1.390   5.308   1.161  0.1489 -0.3466  0.6193
  466DG     H2010715   1.523   5.333   1.020 -0.6356  0.2809  0.0974
  466DG     H2110716   1.599   5.258   1.168  0.1620  2.0176  0.1472
  466DG     H2210717   1.395   5.520   1.131  0.2700  0.3887  1.0312
  466DG     H2310718   1.453   5.458   1.292 -1.5370 -1.6817  0.7930
  467DG      C110719   5.487   1.945   2.127 -0.2832  0.1490  0.8608
  467DG      C210720   5.951   2.283   1.576  0.2679 -0.7273  0.0817
  467DG      H310721   5.428   1.957   2.039 -2.2513  1.8886  0.6498
  467DG      H410722   5.459   2.021   2.209 -2.5590  0.1485 -0.2935
  467DG      H510723   5.488   1.840   2.164 -0.3056 -1.2982  2.2883
  467DG      H610724   5.955   2.394   1.569 -0.6773 -2.6411  0.1200
  467DG      H710725   6.022   2.238   1.503 -3.3295 -0.2524 -2.1841
  467DG      H810726   5.857   2.261   1.527  1.6090 -1.5891 -3.4111
  467DG      O910727   5.625   1.974   2.094 -0.5081  0.0627  0.3428
  467DG     O1010728   5.959   2.208   1.696 -0.1808 -0.6595  0.2106
  467DG     C1110729   5.645   2.106   2.062  0.4466 -0.1270 -0.6006
  467DG     C1210730   5.931   2.069   1.690 -0.0875  0.1755  0.1234
  467DG     H1310731   5.638   2.183   2.133  1.8841 -0.8291 -0.6293
  467DG     H1410732   5.573   2.134   1.984  0.4327  0.5464 -1.9600
  467DG     H1510733   6.015   2.028   1.650  0.3380 -2.3378 -0.5535
  467DG     H1610734   5.836   2.039   1.644 -0.4545 -1.0124 -0.9163
  467DG     C1710735   5.786   2.113   2.010  0.7826 -0.3292  0.3704
  467DG     C1810736   5.932   2.027   1.836  0.5377 -0.1548  0.2413
  467DG     O1910737   5.800   2.026   1.892 -0.0625  0.1715 -0.1700
  467DG     H2010738   5.864   2.080   2.078 -1.1117 -0.4142  0.1970
  467DG     H2110739   5.807   2.216   1.983 -3.4756 -0.7430  3.2463
  467DG     H2210740   5.965   1.926   1.852 -0.5329  0.7029  1.1333
  467DG     H2310741   6.008   2.087   1.899 -1.6427  1.6060  0.4431
  468DG      C110742   3.303   2.495   4.625  0.5585  0.5502  0.3660
  468DG      C210743   3.600   2.342   3.924  0.2528  0.6807  0.0966
  468DG      H310744   3.378   2.452   4.688 -2.0335 -3.4746 -3.1100
  468DG      H410745   3.208   2.475   4.675 -0.7289  0.7433  1.8187
  468DG      H510746   3.317   2.603   4.619 -0.2974  0.7878  0.2099
  468DG      H610747   3.635   2.444   3.920  4.2041  1.2904  0.0494
  468DG      H710748   3.685   2.274   3.922 -0.3233  0.1009 -0.8407
  468DG      H810749   3.550   2.329   3.822 -0.6517  2.4741 -1.8018
  468DG      O910750   3.306   2.448   4.489  0.4988  0.3074 -0.3869
  468DG     O1010751   3.514   2.320   4.033  0.2309 -0.8987 -0.1670
  468DG     C1110752   3.272   2.310   4.478 -0.1883 -0.0358 -0.4139
  468DG     C1210753   3.577   2.356   4.156 -0.6294  0.0912 -0.2890
  468DG     H1310754   3.165   2.302   4.511  0.9025 -0.7789  0.0471
  468DG     H1410755   3.331   2.243   4.545 -1.6198  0.5775 -0.7404
  468DG     H1510756   3.638   2.445   4.140 -1.2448  1.2757  2.2021
  468DG     H1610757   3.640   2.272   4.183 -0.6904 -0.3061 -0.5383
  468DG     C1710758   3.285   2.270   4.336 -0.1784 -0.6793  0.6624
  468DG     C1810759   3.473   2.390   4.270 -0.1568 -0.2791 -0.2017
  468DG     O1910760   3.414   2.265   4.286 -0.2661  0.1805 -0.3370
  468DG     H2010761   3.224   2.335   4.265 -1.4084 -0.8355 -2.2013
  468DG     H2110762   3.238   2.177   4.323  1.6257  0.4096 -1.7257
  468DG     H2210763   3.515   2.423   4.365  3.3137 -1.0225  2.2077
  468DG     H2310764   3.409   2.476   4.239 -0.4476  0.3546  0.9711
  469DG      C110765   1.937   2.159   1.034 -1.1653 -0.7856  0.0675
  469DG      C210766   2.542   2.611   1.130 -0.8305  0.4958  0.3475
  469DG      H310767   1.919   2.164   1.137  4.3508  3.9130 -1.2580
  469DG      H410768   1.945   2.055   0.998  0.1180  0.9870  0.2219
  469DG      H510769   1.856   2.205   0.977 -0.1183 -2.1337  1.5122
  469DG      H610770   2.530   2.704   1.074 -0.1839 -0.9540 -0.4476
  469DG      H710771   2.479   2.631   1.219 -2.2699  2.6402  0.5767
  469DG      H810772   2.644   2.605   1.152  2.8163 -1.9739 -1.4769
  469DG      O910773   2.064   2.221   1.007 -0.0313 -0.6422  0.1985
  469DG     O1010774   2.498   2.500   1.052 -0.5024  0.3620  0.0633
  469DG     C1110775   2.095   2.333   1.089 -0.6763  0.0986  0.1897
  469DG     C1210776   2.541   2.374   1.106  0.2823 -0.2375  0.5444
  469DG     H1310777   2.095   2.312   1.189  0.2832 -1.7656  0.5055
  469DG     H1410778   2.029   2.416   1.063  0.6539 -2.6513  1.4565
  469DG     H1510779   2.546   2.378   1.219  0.9670 -2.6453  3.0926
  469DG     H1610780   2.640   2.355   1.067 -3.0216  1.8277 -1.0356
  469DG     C1710781   2.236   2.384   1.058 -0.3017  0.5655  0.1611
  469DG     C1810782   2.453   2.264   1.052  0.3195  0.4412  0.7824
  469DG     O1910783   2.318   2.277   1.102  0.7717 -0.2654 -0.5029
  469DG     H2010784   2.260   2.474   1.112  2.4019 -1.5389 -0.3122
  469DG     H2110785   2.257   2.402   0.958  0.1178 -1.5659  0.0250
  469DG     H2210786   2.452   2.281   0.943  1.5783  0.5815  3.4439
  469DG     H2310787   2.506   2.175   1.067  3.6573 -0.0347 -0.4043
  470DG      C110788   4.907   3.889   0.947  0.0881 -0.9927  0.5780
  470DG      C210789   5.033   3.945   0.189  0.1319  0.3487 -0.2798
  470DG      H310790   4.799   3.897   0.963  1.0978 -1.4860 -1.2050
  470DG      H410791   4.952   3.991   0.955  2.4548 -0.1814  0.4900
  470DG      H510792   4.946   3.826   1.026  1.7418 -1.2330 -0.8301
  470DG      H610793   5.060   3.849   0.151  0.2016  1.5939  0.0358
  470DG      H710794   4.927   3.959   0.160 -1.7510 -1.4737  3.4384
  470DG      H810795   5.094   4.017   0.140 -1.8815 -0.4107  4.5549
  470DG      O910796   4.929   3.808   0.829 -0.4698  0.2380  0.3800
  470DG     O1010797   5.041   3.954   0.331  0.0037  0.4242 -0.1474
  470DG     C1110798   4.863   3.858   0.712  0.0487  0.2432 -0.3813
  470DG     C1210799   5.031   4.084   0.379 -0.2515 -0.0359  0.2776
  470DG     H1310800   4.759   3.867   0.736  0.2920  0.7517 -0.1628
  470DG     H1410801   4.856   3.778   0.643 -2.0403 -1.0725  1.8097
  470DG     H1510802   4.927   4.131   0.362 -2.4831  1.0633 -0.8306
  470DG     H1610803   5.097   4.148   0.317  0.6744  1.6920 -1.6429
  470DG     C1710804   4.912   3.987   0.649 -0.8492  0.1972  0.6542
  470DG     C1810805   5.090   4.085   0.517  0.1098 -0.0219 -0.3511
  470DG     O1910806   5.042   3.972   0.593 -0.4858  0.3040  0.4494
  470DG     H2010807   4.911   4.069   0.722 -1.1543  1.5825 -1.8509
  470DG     H2110808   4.849   3.994   0.560 -1.4789 -1.0447 -1.0228
  470DG     H2210809   5.191   4.072   0.505 -0.1787 -3.7310 -0.7710
  470DG     H2310810   5.092   4.176   0.578  2.4796  1.0561  2.1213
  471DG      C110811   1.210   2.877   1.196  0.4345 -0.1333 -0.1441
  471DG      C210812   1.658   3.033   1.698 -0.1966 -1.3814 -0.5359
  471DG      H310813   1.166   2.888   1.099  1.1217  1.0734 -2.0345
  471DG      H410814   1.177   2.969   1.244  4.4910  0.4544 -0.4594
  471DG      H510815   1.183   2.791   1.257 -0.0705 -2.6818 -0.6439
  471DG      H610816   1.725   3.125   1.702 -1.4082  1.6597  0.8994
  471DG      H710817   1.560   3.072   1.728  0.5508  0.0627  2.1930
  471DG      H810818   1.695   2.954   1.764  0.7048 -2.6372  0.0697
  471DG      O910819   1.354   2.889   1.191  0.4084 -0.3428 -0.2763
  471DG     O1010820   1.630   2.986   1.569  0.7750  0.2773 -0.0573
  471DG     C1110821   1.420   2.764   1.153 -0.3807  1.1011 -0.1012
  471DG     C1210822   1.699   2.873   1.525 -0.7056  0.5573  0.3793
  471DG     H1310823   1.398   2.755   1.050  1.8495  2.5039 -1.2864
  471DG     H1410824   1.389   2.679   1.211 -1.7371  0.2081  3.2138
  471DG     H1510825   1.660   2.785   1.580  2.2937 -0.4436 -1.1431
  471DG     H1610826   1.810   2.883   1.552  1.3054  2.2630 -0.2595
  471DG     C1710827   1.573   2.764   1.180 -0.0167  0.6465 -0.3284
  471DG     C1810828   1.708   2.853   1.370 -0.0681 -0.6464  0.0277
  471DG     O1910829   1.585   2.808   1.314  0.3678 -0.0298 -0.2026
  471DG     H2010830   1.621   2.836   1.112 -1.1993  0.9529  0.6152
  471DG     H2110831   1.613   2.660   1.178 -0.3430 -0.0910 -1.5486
  471DG     H2210832   1.736   2.937   1.321 -0.2865 -3.1395  0.0912
  471DG     H2310833   1.785   2.772   1.353  0.6793 -2.2961 -1.4196
  472DG      C110834   3.006   0.260   2.116 -0.0748 -0.3436  0.1277
  472DG      C210835   3.673  -0.063   2.468  0.2962  0.0013 -0.2325
  472DG      H310836   2.916   0.214   2.157  0.0430  0.6755  0.7657
  472DG      H410837   2.994   0.237   2.006 -2.1217  1.8233 -2.1525
  472DG      H510838   2.984   0.363   2.114  1.9748 -0.2380  1.5726
  472DG      H610839   3.703   0.042   2.454 -1.0241 -1.4832 -1.0204
  472DG      H710840   3.751  -0.121   2.521 -1.0739 -0.8546  2.6787
  472DG      H810841   3.646  -0.100   2.366 -1.1877  2.2874  1.1145
  472DG      O910842   3.122   0.230   2.181  0.1405 -0.0798  0.0559
  472DG     O1010843   3.541  -0.070   2.539 -0.4030 -0.1560 -0.3506
  472DG     C1110844   3.159   0.092   2.173 -0.3344 -0.3238 -0.9398
  472DG     C1210845   3.429  -0.040   2.469  0.1451  0.1770  0.6598
  472DG     H1310846   3.145   0.046   2.072 -1.8856  1.7727 -0.6281
  472DG     H1410847   3.100   0.037   2.243  0.2211 -1.3682  0.3437
  472DG     H1510848   3.352  -0.042   2.548 -1.2934  1.1987  1.1297
  472DG     H1610849   3.416  -0.121   2.399 -1.6507  0.4376  0.5932
  472DG     C1710850   3.302   0.081   2.221  0.7049 -0.4116 -1.1760
  472DG     C1810851   3.440   0.102   2.406  0.1404 -0.6299 -0.1379
  472DG     O1910852   3.313   0.144   2.348  0.0179 -0.3645  0.4008
  472DG     H2010853   3.354   0.140   2.150  0.2972 -2.9402  4.6364
  472DG     H2110854   3.330  -0.023   2.228  0.3599 -2.8169  1.6689
  472DG     H2210855   3.472   0.177   2.478  0.5295  0.2491 -1.1792
  472DG     H2310856   3.506   0.102   2.326 -3.2969 -1.5099 -0.8563
  473DG      C110857   1.583   3.231   1.383  0.5155 -0.5719 -0.3553
  473DG      C210858   1.351   2.680   1.580  0.3403 -0.4263 -0.3870
  473DG      H310859   1.567   3.329   1.341 -4.1375  0.5104 -0.5833
  473DG      H410860   1.626   3.160   1.311 -2.7533  2.1677  0.1850
  473DG      H510861   1.641   3.252   1.479  0.3613  1.3675  4.7598
  473DG      H610862   1.425   2.640   1.510 -0.0612 -2.9901  0.1846
  473DG      H710863   1.395   2.704   1.675 -1.2183  2.3056  0.9433
  473DG      H810864   1.285   2.603   1.617 -1.5501  0.6881 -0.9811
  473DG      O910865   1.454   3.184   1.404  0.1317  0.2228 -0.0176
  473DG     O1010866   1.281   2.793   1.522 -0.5907 -0.7938 -0.6279
  473DG     C1110867   1.369   3.267   1.489 -0.0757  0.1657  0.7832
  473DG     C1210868   1.175   2.844   1.606  0.5718  0.0104 -0.5425
  473DG     H1310869   1.359   3.365   1.447 -0.1898  1.0172 -1.0201
  473DG     H1410870   1.425   3.275   1.579 -0.6475 -2.3289 -0.6639
  473DG     H1510871   1.209   2.839   1.711 -2.1907  0.0169  0.9826
  473DG     H1610872   1.097   2.762   1.606 -0.9272 -0.9531 -2.7296
  473DG     C1710873   1.240   3.195   1.513  0.3845  0.0492  0.8205
  473DG     C1810874   1.138   2.985   1.583 -0.3142 -0.3840  0.2992
  473DG     O1910875   1.261   3.060   1.550  0.0532  0.0552 -0.5163
  473DG     H2010876   1.176   3.205   1.425  1.8033  3.7569  1.0710
  473DG     H2110877   1.181   3.254   1.596 -0.0877 -1.3518  5.0340
  473DG     H2210878   1.063   2.990   1.499  0.6071  1.2853  0.5115
  473DG     H2310879   1.092   3.029   1.673  1.1127  2.3436 -1.4451
  474DG      C110880   1.639   1.414   0.190  0.2769 -0.6420 -0.6325
  474DG      C210881   1.493   0.790   0.529 -0.5987  0.2511  0.1310
  474DG      H310882   1.591   1.454   0.271  2.5680 -3.0330 -1.3657
  474DG      H410883   1.580   1.410   0.106  0.6276  0.9728  2.9410
  474DG      H510884   1.723   1.484   0.158 -0.3974 -2.0783  0.3684
  474DG      H610885   1.421   0.749   0.454 -0.8879 -2.0990 -0.9883
  474DG      H710886   1.519   0.704   0.588  1.1257  0.4886 -0.9930
  474DG      H810887   1.448   0.880   0.589  0.7194  2.2624 -0.0960
  474DG      O910888   1.687   1.279   0.212 -0.1355  0.0957 -0.0271
  474DG     O1010889   1.606   0.843   0.468  0.3996 -0.1168  0.1463
  474DG     C1110890   1.803   1.277   0.290  0.2752 -0.5614  0.4132
  474DG     C1210891   1.704   0.892   0.559 -0.4528 -0.9435  0.1766
  474DG     H1310892   1.782   1.323   0.391 -0.1039  1.3559 -0.7386
  474DG     H1410893   1.883   1.338   0.234 -0.6455 -1.6436 -1.1505
  474DG     H1510894   1.754   0.815   0.627 -0.5650 -0.4535  0.2765
  474DG     H1610895   1.649   0.964   0.622 -4.2268 -1.5434 -1.0763
  474DG     C1710896   1.857   1.136   0.326 -0.2927  0.3655 -0.6926
  474DG     C1810897   1.822   0.954   0.481 -0.4584 -0.1971  0.1242
  474DG     O1910898   1.771   1.056   0.401 -0.0426 -0.4443  0.1207
  474DG     H2010899   1.954   1.142   0.388  2.4726 -0.2812  0.5472
  474DG     H2110900   1.872   1.078   0.228 -2.8981 -3.7704 -2.4037
  474DG     H2210901   1.906   0.993   0.545  0.6126 -0.9652 -0.5316
  474DG     H2310902   1.858   0.882   0.415 -2.2621 -0.1096  0.8988
  475DG      C110903   3.440   2.210   1.547  0.6749 -0.4136  0.0935
  475DG      C210904   3.122   1.517   1.457 -0.6321  0.2927 -0.6243
  475DG      H310905   3.502   2.188   1.461  0.4385  1.2499  0.1918
  475DG      H410906   3.480   2.190   1.642  0.2714  2.1924 -1.0594
  475DG      H510907   3.425   2.317   1.533  2.0865  0.9477  1.0470
  475DG      H610908   3.050   1.452   1.507 -1.0227  0.4587  0.6821
  475DG      H710909   3.133   1.499   1.352  2.6456  0.4686  2.4637
  475DG      H810910   3.222   1.510   1.488 -0.3764 -1.9028  0.5294
  475DG      O910911   3.322   2.140   1.557  0.1922 -0.1825 -0.3925
  475DG     O1010912   3.073   1.654   1.450  0.2980 -0.4202 -0.1840
  475DG     C1110913   3.241   2.141   1.436 -0.7779 -0.4052 -0.3796
  475DG     C1210914   3.056   1.703   1.579  0.1708  0.4033  0.2457
  475DG     H1310915   3.299   2.114   1.344  2.0009 -0.0923  2.1271
  475DG     H1410916   3.200   2.246   1.418 -0.4101  0.7505  2.8679
  475DG     H1510917   3.155   1.699   1.628 -0.5853 -2.3463  1.8879
  475DG     H1610918   2.980   1.649   1.638  1.0629 -0.0704 -0.4644
  475DG     C1710919   3.114   2.049   1.457  0.0200  0.2587 -0.6341
  475DG     C1810920   3.027   1.853   1.556 -0.0486  0.3116 -0.4104
  475DG     O1910921   3.129   1.911   1.479 -0.1099  0.0402 -0.4597
  475DG     H2010922   3.050   2.068   1.373  0.2927 -0.0534  2.3044
  475DG     H2110923   3.051   2.085   1.538  0.2508 -1.5645 -1.3345
  475DG     H2210924   2.939   1.865   1.498  0.7857 -0.5040  0.9170
  475DG     H2310925   3.017   1.903   1.654  1.7669 -0.6282  0.6444
  476DG      C110926   5.369   1.068   4.905  0.7360 -0.0760  0.2453
  476DG      C210927   5.864   0.701   5.046 -0.1164 -0.4100 -0.5342
  476DG      H310928   5.293   1.126   4.853  2.4458 -0.9518  0.4654
  476DG      H410929   5.450   1.133   4.920  0.6662  1.4398  2.4035
  476DG      H510930   5.346   1.039   5.013  0.5390  0.4137  2.1934
  476DG      H610931   5.894   0.597   5.055  0.4446  2.9420 -1.1039
  476DG      H710932   5.923   0.746   4.964  2.5087 -0.6253  0.5589
  476DG      H810933   5.889   0.756   5.139  1.8887 -0.4947 -2.6268
  476DG      O910934   5.425   0.964   4.825 -0.1233 -0.3565  0.4160
  476DG     O1010935   5.732   0.720   5.011 -0.0988  0.2842 -0.5717
  476DG     C1110936   5.340   0.857   4.806  0.1224 -0.4889 -0.7057
  476DG     C1210937   5.638   0.657   5.112  0.1822  0.3606 -0.1429
  476DG     H1310938   5.372   0.813   4.711  0.4439 -2.2741  0.7761
  476DG     H1410939   5.235   0.882   4.779 -2.8902 -1.7208 -1.0377
  476DG     H1510940   5.666   0.690   5.211  0.2736 -0.8139  0.7811
  476DG     H1610941   5.650   0.554   5.120  0.3642  0.2469  0.4191
  476DG     C1710942   5.336   0.743   4.915 -0.1565  0.2315  0.0730
  476DG     C1810943   5.492   0.686   5.084 -0.1707 -0.2349  0.6037
  476DG     O1910944   5.470   0.704   4.951 -0.4461  0.1931  0.6871
  476DG     H2010945   5.297   0.649   4.872 -2.0054  1.6012  1.7715
  476DG     H2110946   5.277   0.765   5.005  0.2286 -1.0797 -0.3711
  476DG     H2210947   5.435   0.598   5.114  3.4407 -2.9677 -0.4978
  476DG     H2310948   5.462   0.780   5.132 -0.9132  1.8684  0.7071
  477DG      C110949   1.965   5.321   1.929  0.5842 -0.6169 -0.2450
  477DG      C210950   1.958   4.690   1.861 -0.1965  0.2937 -0.2346
  477DG      H310951   1.861   5.361   1.950 -0.5933  1.3026  1.3408
  477DG      H410952   1.988   5.314   1.822  2.3437 -0.0789 -1.0483
  477DG      H510953   2.036   5.386   1.969 -3.0210  0.2238 -2.5451
  477DG      H610954   1.964   4.704   1.758 -0.3807  0.9603  1.6582
  477DG      H710955   2.027   4.769   1.903 -1.0937  2.4278 -1.2727
  477DG      H810956   2.001   4.590   1.882  0.6365 -1.3571  0.7578
  477DG      O910957   1.980   5.196   1.982  0.5356  0.2038 -0.3192
  477DG     O1010958   1.826   4.706   1.913 -0.2132 -0.1351  0.1499
  477DG     C1110959   1.922   5.174   2.111  0.4113  0.5380  0.2514
  477DG     C1210960   1.783   4.834   1.876 -0.0108 -0.0521 -0.4291
  477DG     H1310961   1.829   5.222   2.112 -0.4116 -2.3359  3.4516
  477DG     H1410962   1.971   5.238   2.183  2.3030  1.8077 -0.8091
  477DG     H1510963   1.682   4.824   1.833 -1.2607 -1.5649  1.0250
  477DG     H1610964   1.847   4.889   1.803  2.6814 -0.5306 -1.1182
  477DG     C1710965   1.912   5.031   2.161  0.6635  0.1354 -0.8229
  477DG     C1810966   1.770   4.925   2.005  0.3086  1.2469  0.8092
  477DG     O1910967   1.903   4.940   2.049 -0.2119 -0.1945 -0.4472
  477DG     H2010968   1.838   5.004   2.236  1.5191 -1.1684 -2.4826
  477DG     H2110969   1.999   4.995   2.218 -2.3187  0.8525 -2.2481
  477DG     H2210970   1.729   5.024   1.975 -1.9268  2.7505  0.2136
  477DG     H2310971   1.709   4.887   2.083 -0.4356  2.0327 -0.5389
  478DG      C110972   1.558   4.691   0.072  0.4656 -0.1585 -0.2952
  478DG      C210973   1.655   5.043  -0.719  0.4073 -0.4261  0.7493
  478DG      H310974   1.613   4.687   0.170  0.5741 -1.2280 -0.8273
  478DG      H410975   1.568   4.588   0.022 -0.2645 -1.5919 -4.4010
  478DG      H510976   1.455   4.719   0.081  2.9227  0.0584 -2.4616
  478DG      H610977   1.749   5.079  -0.753  1.0254  1.1087  0.2406
  478DG      H710978   1.649   4.934  -0.746  2.7153 -1.4777 -0.4264
  478DG      H810979   1.580   5.107  -0.765 -0.8026 -1.2210 -0.1674
  478DG      O910980   1.615   4.796  -0.009 -0.0122  0.4646  0.6239
  478DG     O1010981   1.640   5.064  -0.585  0.2774 -0.5110 -0.3687
  478DG     C1110982   1.552   4.823  -0.136  0.3463  0.4133 -0.5952
  478DG     C1210983   1.508   5.028  -0.532 -0.4389 -1.0294 -0.3029
  478DG     H1310984   1.453   4.864  -0.126 -0.7515  1.7134 -1.0185
  478DG     H1410985   1.554   4.735  -0.202  0.9214  0.3112 -1.4829
  478DG     H1510986   1.470   4.933  -0.559 -2.3458  0.9838  2.1510
  478DG     H1610987   1.427   5.092  -0.569 -2.7826  1.7820 -0.2986
  478DG     C1710988   1.636   4.937  -0.191 -0.1853 -0.2447 -0.4357
  478DG     C1810989   1.527   5.027  -0.380 -0.5051  0.7617  0.0348
  478DG     O1910990   1.629   4.938  -0.333 -0.3012 -0.2612 -0.0124
  478DG     H2010991   1.739   4.914  -0.166 -2.2742 -0.8876  0.1693
  478DG     H2110992   1.599   5.028  -0.147  0.6021  0.4064  0.6144
  478DG     H2210993   1.550   5.130  -0.343 -0.5262  0.3740  1.2971
  478DG     H2310994   1.430   4.996  -0.336 -1.0837  1.5457  0.3260
  479DG      C110995   1.582   3.539   3.250 -0.1433  0.3591 -0.0198
  479DG      C210996   1.450   2.939   3.036  0.0865  0.1680  0.0015
  479DG      H310997   1.474   3.515   3.255 -0.3334 -1.0913 -1.8842
  479DG      H410998   1.608   3.600   3.164 -2.1801  0.7103 -0.1269
  479DG      H510999   1.618   3.586   3.340 -1.2758  1.1199 -0.6586
  479DG      H611000   1.456   2.830   3.024 -0.9923 -1.2410  2.0039
  479DG      H711001   1.372   2.937   3.111  1.4870 -0.1584  1.8653
  479DG      H811002   1.405   2.975   2.951 -1.2887 -0.4585  0.3337
  479DG      O911003   1.646   3.411   3.234 -0.3998  0.4644  0.0907
  479DG     O1011004   1.564   3.003   3.090  0.5812 -0.7396  0.3668
  479DG     C1111005   1.773   3.429   3.176 -0.2715  0.7824 -0.0617
  479DG     C1211006   1.696   2.961   3.039 -0.1630 -0.3560  0.1991
  479DG     H1311007   1.827   3.507   3.230  0.3075  0.0524  0.5386
  479DG     H1411008   1.758   3.472   3.082 -1.7244  1.7020  2.3793
  479DG     H1511009   1.699   2.972   2.930 -2.8423 -3.0767  0.4538
  479DG     H1611010   1.714   2.855   3.062 -1.5214 -0.6981  0.1629
  479DG     C1711011   1.845   3.290   3.177 -0.4562  0.3424  0.4585
  479DG     C1811012   1.807   3.056   3.104 -0.0518 -0.0368  0.6834
  479DG     O1911013   1.756   3.199   3.111  0.3848  0.2682  0.5060
  479DG     H2011014   1.879   3.254   3.280 -0.3253 -2.3285  0.0538
  479DG     H2111015   1.928   3.316   3.106  1.4697  0.5947  0.9842
  479DG     H2211016   1.822   3.031   3.210 -3.5059 -3.5640 -0.3502
  479DG     H2311017   1.904   3.044   3.053  1.8152 -1.2793 -0.0873
  480DG      C111018   2.681   5.060   4.132 -0.0772  1.1627 -0.1769
  480DG      C211019   2.512   4.485   4.438  0.2950 -0.2987 -0.1639
  480DG      H311020   2.778   5.105   4.110 -0.3122  0.2735 -0.6256
  480DG      H411021   2.636   5.095   4.221  2.1502 -0.7381  0.4579
  480DG      H511022   2.611   5.089   4.058  2.9356 -0.0049  2.2452
  480DG      H611023   2.503   4.539   4.533 -0.5416 -2.3141  0.8630
  480DG      H711024   2.438   4.519   4.362 -1.3585 -0.3364  0.6605
  480DG      H811025   2.499   4.384   4.454 -1.4373  0.8242 -0.7652
  480DG      O911026   2.700   4.916   4.143  0.1434  0.8434 -0.6979
  480DG     O1011027   2.645   4.515   4.386  0.0742 -0.4335 -0.3227
  480DG     C1111028   2.775   4.865   4.035 -0.2385 -0.4373 -0.6222
  480DG     C1211029   2.663   4.459   4.262  0.2772 -0.1388  0.2921
  480DG     H1311030   2.847   4.937   4.009  1.4910  0.1477  2.3177
  480DG     H1411031   2.708   4.872   3.948 -0.3991  1.1140  0.6028
  480DG     H1511032   2.576   4.466   4.194  1.9740 -1.0598  1.5772
  480DG     H1611033   2.680   4.347   4.270 -0.3695 -1.1805  0.9871
  480DG     C1711034   2.817   4.723   4.064  0.3091  0.5973 -0.1938
  480DG     C1811035   2.766   4.522   4.174 -0.5934 -0.5683  0.8270
  480DG     O1911036   2.730   4.660   4.156 -0.2664 -0.0924  0.3207
  480DG     H2011037   2.913   4.729   4.108  0.1501  2.5379  2.7333
  480DG     H2111038   2.836   4.667   3.968  1.1417 -0.6574 -1.9779
  480DG     H2211039   2.860   4.515   4.234  4.1387  0.3498 -0.5611
  480DG     H2311040   2.775   4.459   4.086  1.0041 -1.8211 -1.5586
  481DG      C111041   1.554   0.834   0.108 -0.6638 -0.0330  0.3024
  481DG      C211042   1.530   1.286   0.542  0.5185 -0.2132 -0.3825
  481DG      H311043   1.638   0.805   0.176 -0.0047  2.5030 -0.1055
  481DG      H411044   1.581   0.911   0.029  0.5644 -1.1991 -2.0395
  481DG      H511045   1.535   0.742   0.051 -0.1207 -0.6126 -1.0452
  481DG      H611046   1.490   1.327   0.633  0.7839 -1.5543  4.2166
  481DG      H711047   1.625   1.246   0.576 -1.5725  0.2307  3.5508
  481DG      H811048   1.560   1.372   0.481 -0.6471 -1.4044 -2.8704
  481DG      O911049   1.450   0.883   0.190 -0.2912  0.2518 -0.3976
  481DG     O1011050   1.440   1.195   0.479 -0.3385 -0.1422 -0.6245
  481DG     C1111051   1.326   0.893   0.122  0.4157 -0.4874  0.3837
  481DG     C1211052   1.320   1.250   0.432 -0.1674  0.8162  0.2233
  481DG     H1311053   1.286   0.804   0.086  0.2521  0.2486 -0.7301
  481DG     H1411054   1.337   0.961   0.040 -1.6155 -0.7243 -0.5891
  481DG     H1511055   1.347   1.329   0.364  0.7049  1.7349  0.6627
  481DG     H1611056   1.266   1.304   0.513  0.1831 -1.1105 -3.9544
  481DG     C1711057   1.228   0.964   0.215 -0.0223 -0.7398 -0.5476
  481DG     C1811058   1.230   1.139   0.376 -0.4040 -0.0835 -0.1112
  481DG     O1911059   1.296   1.086   0.261  0.5182  0.0914 -0.5281
  481DG     H2011060   1.199   0.905   0.301  1.0282  1.0895 -0.8930
  481DG     H2111061   1.134   0.987   0.158 -0.1605 -0.0463  0.0519
  481DG     H2211062   1.212   1.072   0.467  1.3711 -0.1829  2.8642
  481DG     H2311063   1.136   1.182   0.354  1.9074  0.4310 -1.0130
  482DG      C111064   3.976   2.314   0.378 -0.0855 -0.0440 -0.1918
  482DG      C211065   3.650   2.878   0.644  0.3871  0.0600 -0.7709
  482DG      H311066   4.020   2.376   0.309 -1.4933  1.0996  0.6671
  482DG      H411067   3.966   2.211   0.327 -0.6048 -0.5086  0.8745
  482DG      H511068   4.037   2.302   0.465 -0.7455  0.4360 -0.1641
  482DG      H611069   3.712   2.933   0.565  0.2142  1.4230  1.2706
  482DG      H711070   3.558   2.927   0.669  0.4821 -2.2873  1.4968
  482DG      H811071   3.708   2.886   0.735 -0.7980 -0.5276  2.2423
  482DG      O911072   3.850   2.367   0.410  0.4092  0.2061 -0.0714
  482DG     O1011073   3.640   2.746   0.608 -0.1011 -0.3293 -0.2491
  482DG     C1111074   3.765   2.281   0.491 -0.3296 -0.4460 -0.2410
  482DG     C1211075   3.568   2.667   0.706  0.3653 -0.3157 -0.1143
  482DG     H1311076   3.811   2.237   0.582  0.9902 -2.8505 -0.8969
  482DG     H1411077   3.743   2.200   0.429  1.3096 -1.0532 -1.4871
  482DG     H1511078   3.478   2.725   0.739  3.0311 -0.7795  1.1334
  482DG     H1611079   3.627   2.657   0.793 -0.5833  0.8987 -0.0443
  482DG     C1711080   3.629   2.354   0.524  0.2219 -0.8443  0.2446
  482DG     C1811081   3.539   2.530   0.645 -0.2993 -1.1044  0.0711
  482DG     O1911082   3.655   2.467   0.599  0.7479 -0.7954  0.2533
  482DG     H2011083   3.577   2.286   0.590  1.5141 -2.1062 -0.6398
  482DG     H2111084   3.559   2.358   0.442 -0.4683  1.2544  2.9595
  482DG     H2211085   3.490   2.471   0.728 -3.4243  0.2848 -1.9002
  482DG     H2311086   3.457   2.538   0.574  1.8477 -1.6939  0.1509
  483DG      C111087   5.415   4.421   0.919  0.3992 -0.0034  0.2143
  483DG      C211088   5.877   4.507   0.400  0.4772 -0.4614  0.3352
  483DG      H311089   5.415   4.320   0.862 -1.1472 -1.6563 -1.1049
  483DG      H411090   5.340   4.483   0.867 -0.3825 -0.3298  0.0052
  483DG      H511091   5.380   4.393   1.019 -1.5109  0.2430  1.7793
  483DG      H611092   5.777   4.504   0.353 -1.0678 -1.7765 -2.5932
  483DG      H711093   5.920   4.605   0.389  1.1123  0.7100 -1.3012
  483DG      H811094   5.953   4.443   0.356 -0.7654  1.7002  0.3127
  483DG      O911095   5.545   4.482   0.906  0.1692  0.2696  0.5816
  483DG     O1011096   5.861   4.459   0.532  0.2532 -0.6297 -0.0888
  483DG     C1111097   5.644   4.402   0.980 -0.3948  0.4259  0.1687
  483DG     C1211098   5.979   4.438   0.612 -0.0817  0.2413 -0.4841
  483DG     H1311099   5.630   4.296   0.954 -0.3923  1.4382 -1.8315
  483DG     H1411100   5.621   4.425   1.084  0.3505  0.4977 -0.0828
  483DG     H1511101   6.053   4.507   0.584  0.6556 -1.7250 -1.0261
  483DG     H1611102   6.018   4.340   0.580  4.2380  0.8904  2.5132
  483DG     C1711103   5.790   4.448   0.941  0.8459  0.2881 -0.1722
  483DG     C1811104   5.953   4.460   0.763  0.1049 -0.1578  0.6917
  483DG     O1911105   5.816   4.436   0.802  0.6664 -0.6193 -0.4070
  483DG     H2011106   5.858   4.387   0.995 -0.9755 -0.9136  1.6732
  483DG     H2111107   5.805   4.555   0.982  0.1584  1.1535  1.7856
  483DG     H2211108   6.012   4.405   0.824 -0.8608  0.8096 -1.6786
  483DG     H2311109   5.975   4.562   0.805 -1.0239 -0.7912 -0.8671
  484DG      C111110   1.691   1.901   1.005  0.4309  0.3355  0.8978
  484DG      C211111   1.882   2.266   1.410  0.4732 -0.0315  0.8426
  484DG      H311112   1.693   1.944   0.907 -0.0398 -0.1608  0.6764
  484DG      H411113   1.623   1.820   1.007 -1.7334  1.8074  2.2752
  484DG      H511114   1.786   1.855   1.019 -0.2121 -1.6007  1.0283
  484DG      H611115   1.873   2.318   1.508  0.3875  2.2892  0.6121
  484DG      H711116   1.842   2.166   1.422 -0.6457  1.5354  2.2756
  484DG      H811117   1.992   2.250   1.395  1.2121 -0.5892 -0.2525
  484DG      O911118   1.670   1.991   1.115 -0.6558  0.3203 -0.3994
  484DG     O1011119   1.834   2.356   1.317  0.1618  0.1145  0.0549
  484DG     C1111120   1.536   2.051   1.111  0.1471  0.1385  0.1477
  484DG     C1211121   1.711   2.419   1.350 -0.7109  0.1697  0.8551
  484DG     H1311122   1.471   1.965   1.102  3.9828 -1.2624  1.4438
  484DG     H1411123   1.533   2.101   1.019  0.4312 -1.7651  4.5411
  484DG     H1511124   1.701   2.495   1.273 -0.2057  0.8349 -0.4703
  484DG     H1611125   1.718   2.463   1.449 -1.0565  1.1619 -3.0266
  484DG     C1711126   1.494   2.145   1.230  0.2847 -0.0617 -0.2041
  484DG     C1811127   1.596   2.326   1.366 -0.5513  0.3016 -0.3376
  484DG     O1911128   1.584   2.250   1.244 -0.0013  0.3796 -0.1505
  484DG     H2011129   1.493   2.090   1.328 -3.7662 -0.8898  1.0412
  484DG     H2111130   1.396   2.191   1.211 -0.7090  1.2219  1.9791
  484DG     H2211131   1.612   2.262   1.452  0.9570 -0.3652 -1.0577
  484DG     H2311132   1.512   2.388   1.387 -1.2831 -0.4658 -0.6102
  485DG      C111133   1.130   3.691   3.665  0.7204  0.4513 -0.3303
  485DG      C211134   1.064   3.877   2.885 -0.4584 -0.3022  0.8167
  485DG      H311135   1.166   3.587   3.681  1.0623 -1.3270  0.6423
  485DG      H411136   1.037   3.681   3.608 -0.0464  0.4348 -2.9586
  485DG      H511137   1.117   3.720   3.770 -1.6225 -0.2086  2.0861
  485DG      H611138   1.071   3.895   2.773  1.3468  1.2339  2.0750
  485DG      H711139   1.014   3.778   2.909 -0.4279  0.2097  0.6017
  485DG      H811140   1.003   3.953   2.934  1.3868 -1.8755 -0.7225
  485DG      O911141   1.222   3.771   3.591 -0.0980  0.6375 -0.1860
  485DG     O1011142   1.201   3.884   2.934 -0.0908  0.2316  0.3726
  485DG     C1111143   1.237   3.726   3.456  0.5151  0.9323  0.0835
  485DG     C1211144   1.197   3.867   3.071 -0.4186  0.4559 -0.3418
  485DG     H1311145   1.141   3.708   3.409  2.4126  3.4027  0.0705
  485DG     H1411146   1.274   3.626   3.458  1.4018  0.2764  2.1984
  485DG     H1511147   1.140   3.780   3.097 -0.0464  2.3880 -0.6944
  485DG     H1611148   1.154   3.966   3.109  1.4067  1.7641 -0.5763
  485DG     C1711149   1.327   3.816   3.369 -0.5889  0.2018  0.1864
  485DG     C1811150   1.338   3.840   3.128  0.0883  0.1342 -0.0218
  485DG     O1911151   1.325   3.756   3.244  0.1268  0.3718 -0.3887
  485DG     H2011152   1.426   3.810   3.408  0.4540  0.0070  3.2207
  485DG     H2111153   1.307   3.923   3.373  0.5915  0.0861  2.7564
  485DG     H2211154   1.388   3.779   3.056  0.0428  1.5252 -1.9228
  485DG     H2311155   1.377   3.941   3.152 -1.8765 -0.4563  2.9940
  486DG      C111156   0.402   3.687   0.866 -0.6988 -0.3963  1.4681
  486DG      C211157   0.851   3.244   0.677  0.3388 -0.6083 -0.0910
  486DG      H311158   0.500   3.710   0.906 -0.8356 -2.0050 -0.6004
  486DG      H411159   0.358   3.610   0.927 -0.3177 -3.0634  0.3979
  486DG      H511160   0.343   3.779   0.858 -2.3322 -3.5285  0.5504
  486DG      H611161   0.906   3.201   0.591 -2.0730 -2.8639 -2.8268
  486DG      H711162   0.917   3.319   0.720  0.1008  0.5481 -0.5661
  486DG      H811163   0.849   3.160   0.756  1.0093 -0.8085  3.0916
  486DG      O911164   0.435   3.623   0.740 -0.4261 -0.3264  0.2319
  486DG     O1011165   0.732   3.301   0.632 -0.1706 -0.3241 -0.0101
  486DG     C1111166   0.329   3.559   0.675 -0.8640 -0.0303 -0.3545
  486DG     C1211167   0.636   3.201   0.596  0.1201  0.6030  0.5369
  486DG     H1311168   0.258   3.631   0.627 -0.6634 -1.8536 -0.2388
  486DG     H1411169   0.263   3.498   0.738 -1.3340  0.0927  1.9326
  486DG     H1511170   0.612   3.138   0.683 -1.6917 -1.1584  1.5833
  486DG     H1611171   0.682   3.137   0.517  1.3831 -1.9316 -3.9049
  486DG     C1711172   0.380   3.472   0.559 -0.8496  0.0032 -0.0970
  486DG     C1811173   0.514   3.278   0.543  0.1596 -0.3805  0.1372
  486DG     O1911174   0.470   3.385   0.624  0.4638  0.5047 -0.4008
  486DG     H2011175   0.433   3.532   0.485  1.4820 -0.2306 -0.5667
  486DG     H2111176   0.287   3.435   0.512 -1.4829  2.4866 -0.8934
  486DG     H2211177   0.551   3.325   0.460 -2.3440 -1.6354  2.5175
  486DG     H2311178   0.426   3.216   0.506 -0.2229 -4.8624  0.6983
  487DG      C111179   2.593   3.073   3.177 -0.1408 -0.0717  0.1347
  487DG      C211180   2.237   3.184   2.591  0.2396 -0.0761  0.3836
  487DG      H311181   2.549   3.150   3.245  0.5678 -0.6308 -0.8533
  487DG      H411182   2.653   3.009   3.246 -1.0079  0.8972  0.1623
  487DG      H511183   2.508   3.017   3.147  1.8936  1.7946  0.8349
  487DG      H611184   2.211   3.290   2.586  3.1765 -1.2617  0.7081
  487DG      H711185   2.238   3.143   2.495  0.2590  0.2257 -0.1509
  487DG      H811186   2.162   3.126   2.639  2.0715 -0.3280 -1.2616
  487DG      O911187   2.662   3.137   3.064 -0.2155 -0.4153  0.0381
  487DG     O1011188   2.368   3.164   2.651 -0.2750 -0.1385 -0.2182
  487DG     C1111189   2.742   3.056   2.986 -0.0052  0.5010 -0.2899
  487DG     C1211190   2.419   3.034   2.632  0.9616  0.0631  0.5407
  487DG     H1311191   2.722   2.949   3.019 -3.2102 -1.0497  2.2562
  487DG     H1411192   2.846   3.076   3.012  3.1710  1.4819 -0.3853
  487DG     H1511193   2.409   3.000   2.524  1.9127  1.2343  0.2708
  487DG     H1611194   2.372   2.965   2.697 -0.5810 -1.8961  1.0936
  487DG     C1711195   2.720   3.073   2.831  0.4085 -0.0401 -0.0287
  487DG     C1811196   2.570   3.014   2.663  0.1174 -0.2285  0.1225
  487DG     O1911197   2.594   3.044   2.799 -1.0221 -0.0956 -0.8620
  487DG     H2011198   2.795   3.013   2.780  1.1673  3.1425 -0.8588
  487DG     H2111199   2.747   3.176   2.808 -1.4323  0.1185  2.9025
  487DG     H2211200   2.616   2.922   2.650  0.4057 -1.1225  3.4501
  487DG     H2311201   2.619   3.091   2.608 -1.0378 -2.4727  0.9967
  488DG      C111202   1.567   3.429   2.487  0.2639  0.0165  0.9372
  488DG      C211203   1.965   3.550   1.803 -0.2675  0.6202 -0.7993
  488DG      H311204   1.613   3.482   2.577  1.5531 -0.5818 -3.9813
  488DG      H411205   1.537   3.329   2.505  2.7567  0.9823 -2.2644
  488DG      H511206   1.475   3.489   2.462  0.4530 -2.2655  0.8100
  488DG      H611207   2.058   3.590   1.840 -2.8500 -0.5313 -1.3391
  488DG      H711208   1.993   3.472   1.728  1.7846  0.3027 -0.1537
  488DG      H811209   1.897   3.625   1.761  0.0664 -1.5083  2.3268
  488DG      O911210   1.656   3.434   2.376 -0.5139  0.1743  0.4460
  488DG     O1011211   1.901   3.493   1.911 -0.4356 -0.4684  0.1512
  488DG     C1111212   1.791   3.404   2.398  0.1724 -0.0454 -0.1393
  488DG     C1211213   1.960   3.368   1.952 -0.3414 -0.1731  0.1348
  488DG     H1311214   1.815   3.350   2.493  1.0588  1.0769 -0.7432
  488DG     H1411215   1.856   3.498   2.394  0.8456  0.0454 -0.2386
  488DG     H1511216   2.056   3.388   1.999 -3.8623 -1.9684  1.4169
  488DG     H1611217   1.973   3.299   1.876  1.2818 -0.1110  0.5972
  488DG     C1711218   1.841   3.312   2.295  0.0116  0.6565  0.2694
  488DG     C1811219   1.872   3.307   2.058 -0.5991  0.2007  0.6013
  488DG     O1911220   1.881   3.383   2.182  0.2288 -0.0316 -0.2470
  488DG     H2011221   1.763   3.240   2.265  1.0716 -3.6797 -0.6813
  488DG     H2111222   1.933   3.262   2.326 -3.2826 -1.5321 -4.5413
  488DG     H2211223   1.773   3.310   2.019  0.1773 -0.0680 -0.5091
  488DG     H2311224   1.897   3.198   2.076 -0.0057 -0.0080 -2.0488
  489DG      C111225   5.402   0.700   2.585  0.3917 -0.1235 -0.7514
  489DG      C211226   5.922   1.163   2.423 -0.3687 -0.4703  0.0612
  489DG      H311227   5.401   0.672   2.480  0.1612  0.7686 -0.8669
  489DG      H411228   5.317   0.696   2.647  0.5840  0.6217  2.5004
  489DG      H511229   5.482   0.640   2.634  1.1945 -0.9034  1.3634
  489DG      H611230   5.904   1.191   2.326  1.0743 -3.5862  3.1692
  489DG      H711231   6.003   1.235   2.471  0.7754  2.1422 -1.4952
  489DG      H811232   5.969   1.068   2.408 -0.3020  0.7302  1.6746
  489DG      O911233   5.452   0.833   2.594 -0.1680 -0.5109  0.1015
  489DG     O1011234   5.818   1.132   2.519  0.5728  0.6202 -0.4738
  489DG     C1111235   5.370   0.927   2.537 -0.0604 -0.0991  0.2332
  489DG     C1211236   5.731   1.242   2.520  0.0735  0.5739  0.4417
  489DG     H1311237   5.268   0.914   2.547 -1.1707  0.6543 -0.2888
  489DG     H1411238   5.382   0.917   2.423  1.7349  0.6378 -1.4166
  489DG     H1511239   5.695   1.270   2.422 -1.0000  0.4142 -3.9445
  489DG     H1611240   5.784   1.319   2.567 -0.0302 -2.1465 -1.0042
  489DG     C1711241   5.413   1.066   2.586  0.5796  0.6693 -0.6735
  489DG     C1811242   5.601   1.206   2.594  0.1186  0.8484  0.2152
  489DG     O1911243   5.547   1.095   2.536  0.0459 -0.1030 -0.0003
  489DG     H2011244   5.398   1.068   2.694  3.1947 -1.6339  2.2605
  489DG     H2111245   5.350   1.142   2.545 -0.8444  1.9510 -0.1205
  489DG     H2211246   5.610   1.188   2.702  1.9749  0.3504  0.6479
  489DG     H2311247   5.539   1.291   2.579  0.2401  0.3754  1.4350
  490DG      C111248   2.323   5.000   1.742  0.6755 -0.1955  0.3617
  490DG      C211249   2.721   5.470   2.058  0.1718 -0.0308  0.0545
  490DG      H311250   2.332   5.003   1.632 -0.5724 -0.0481 -1.9512
  490DG      H411251   2.246   5.067   1.770 -0.1172 -0.0815  0.4320
  490DG      H511252   2.284   4.911   1.778  1.0367  0.5689  2.3088
  490DG      H611253   2.779   5.466   2.154  1.0288 -1.2864 -1.3154
  490DG      H711254   2.767   5.550   1.999 -1.9708 -1.0236  0.1982
  490DG      H811255   2.629   5.510   2.107 -0.5484  3.6240 -1.1112
  490DG      O911256   2.446   5.034   1.796 -0.0063  0.3592  0.3246
  490DG     O1011257   2.709   5.335   2.013 -0.1294  0.3456  0.0720
  490DG     C1111258   2.561   4.967   1.744  0.4138 -0.2600 -0.3813
  490DG     C1211259   2.836   5.288   1.959 -0.4259  0.0746  0.0450
  490DG     H1311260   2.574   5.033   1.659 -1.1210  2.9499  0.3196
  490DG     H1411261   2.555   4.872   1.703  2.9782  1.4542 -1.4228
  490DG     H1511262   2.924   5.308   2.017  0.9737  0.7510 -0.3001
  490DG     H1611263   2.864   5.340   1.871  0.0188  0.0782  1.7287
  490DG     C1711264   2.691   4.974   1.832 -0.0358 -0.5404  0.3834
  490DG     C1811265   2.835   5.137   1.926  0.7499  0.4164  0.7619
  490DG     O1911266   2.710   5.119   1.859  0.0528  0.2249  0.0621
  490DG     H2011267   2.771   4.922   1.787  0.5403  0.0188 -2.1033
  490DG     H2111268   2.669   4.925   1.926 -3.5641 -1.7511  1.5214
  490DG     H2211269   2.920   5.111   1.866  0.0625 -2.1020 -0.8383
  490DG     H2311270   2.827   5.080   2.019 -1.9323  0.8757 -1.2840
  491DG      C111271   2.121   1.885   3.788 -0.1124  0.2072  0.2699
  491DG      C211272   2.680   2.090   4.189 -0.4104  0.3691  0.0816
  491DG      H311273   2.039   1.901   3.722 -1.7590  1.0458  0.9558
  491DG      H411274   2.100   1.823   3.877  0.4626 -0.3443  2.6860
  491DG      H511275   2.192   1.825   3.730 -1.0846  1.0724 -1.4260
  491DG      H611276   2.631   2.114   4.288 -1.3846  2.6185 -1.1093
  491DG      H711277   2.710   1.981   4.180 -0.3105  1.8023 -0.0702
  491DG      H811278   2.771   2.152   4.180 -0.6597 -2.1909  1.5670
  491DG      O911279   2.162   2.013   3.837 -0.3906 -0.1129  0.3489
  491DG     O1011280   2.579   2.125   4.099  0.0243  0.1211  0.2947
  491DG     C1111281   2.214   2.106   3.743 -0.1170 -0.3279  0.2139
  491DG     C1211282   2.607   2.213   3.991 -1.0866  0.1369 -0.5224
  491DG     H1311283   2.128   2.155   3.691 -3.3147 -0.9017 -1.6583
  491DG     H1411284   2.284   2.067   3.672 -0.9145  2.7156  0.6084
  491DG     H1511285   2.664   2.162   3.908  3.2547 -0.9457  0.1965
  491DG     H1611286   2.685   2.291   4.026  0.3425  0.7072  3.4105
  491DG     C1711287   2.294   2.227   3.804 -0.3419  0.2365  0.2324
  491DG     C1811288   2.492   2.282   3.926  0.8598  0.3607 -0.4926
  491DG     O1911289   2.402   2.177   3.881 -0.1987  0.1138  0.6482
  491DG     H2011290   2.233   2.279   3.875  0.0650  0.7947 -3.6460
  491DG     H2111291   2.331   2.300   3.722  1.6012 -1.1768 -2.6048
  491DG     H2211292   2.441   2.342   4.000 -1.5909  0.4313 -0.8560
  491DG     H2311293   2.520   2.336   3.840 -1.7495 -1.7756 -2.3439
  492DG      C111294   0.621   2.513   0.152  0.1376  0.8090  0.1721
  492DG      C211295   0.268   2.951   0.486 -1.1543  0.8117  0.2891
  492DG      H311296   0.611   2.560   0.053  1.3687  0.8488  1.4660
  492DG      H411297   0.655   2.403   0.146 -1.0947  0.6224 -0.3092
  492DG      H511298   0.702   2.553   0.211  0.3316 -2.2285 -1.4783
  492DG      H611299   0.189   2.988   0.552 -2.7055  0.9797  0.0108
  492DG      H711300   0.360   2.956   0.542 -4.1635 -1.0973  1.0904
  492DG      H811301   0.290   3.015   0.399  1.4154 -0.6163 -0.0476
  492DG      O911302   0.503   2.542   0.231  0.1980  0.0271 -0.1170
  492DG     O1011303   0.258   2.810   0.456  0.3515 -0.1440 -0.2535
  492DG     C1111304   0.392   2.461   0.191  0.5016 -0.1188  0.5580
  492DG     C1211305   0.136   2.780   0.398 -0.0730  0.3589  0.4766
  492DG     H1311306   0.425   2.358   0.171  0.1520 -2.6113  0.3782
  492DG     H1411307   0.364   2.503   0.090 -0.7220  0.9192 -1.8246
  492DG     H1511308   0.113   2.839   0.307  1.1974 -0.4400  0.2187
  492DG     H1611309   0.060   2.802   0.472 -1.8575 -0.4088  0.3748
  492DG     C1711310   0.280   2.468   0.295  0.5331 -0.2520  0.3418
  492DG     C1811311   0.129   2.634   0.355 -0.7814 -0.0197  0.1326
  492DG     O1911312   0.255   2.606   0.295 -0.5189  0.5160  0.1675
  492DG     H2011313   0.310   2.436   0.394  1.3473 -0.6944 -0.2243
  492DG     H2111314   0.193   2.411   0.257 -2.7572 -1.9437  0.1094
  492DG     H2211315   0.110   2.567   0.444 -0.9481 -1.8892  1.4869
  492DG     H2311316   0.045   2.624   0.283  2.9739 -0.1638 -0.7173
  493DG      C111317   4.111   1.943   0.725  0.1977 -0.0425 -0.8466
  493DG      C211318   4.680   2.067   0.767 -0.4181 -0.3765  0.2376
  493DG      H311319   4.061   1.929   0.814  1.3192  1.5266 -1.3579
  493DG      H411320   4.154   1.848   0.683  1.7443 -0.4520 -1.3072
  493DG      H511321   4.038   1.989   0.648  2.0201 -0.3090  1.0016
  493DG      H611322   4.660   2.030   0.667  1.9057 -0.3084  0.1282
  493DG      H711323   4.782   2.096   0.769 -0.0609  0.7074 -6.2437
  493DG      H811324   4.661   1.991   0.843  1.7325 -1.7162  0.2268
  493DG      O911325   4.218   2.042   0.745  0.5353 -0.8131 -0.3974
  493DG     O1011326   4.586   2.176   0.778  0.0277  0.1610  0.0690
  493DG     C1111327   4.159   2.157   0.811 -0.8088 -0.2332  0.4382
  493DG     C1211328   4.567   2.259   0.661  0.0939 -0.1479 -0.3448
  493DG     H1311329   4.122   2.131   0.909  1.1364  2.0388 -1.9620
  493DG     H1411330   4.084   2.206   0.749  1.1744 -1.7928 -3.3518
  493DG     H1511331   4.582   2.202   0.568  0.1934 -1.7799 -1.3602
  493DG     H1611332   4.658   2.318   0.659  0.8673 -1.4533  1.4138
  493DG     C1711333   4.286   2.248   0.832  0.2878  0.4517  0.4600
  493DG     C1811334   4.445   2.356   0.674 -0.3027  0.0962 -0.0052
  493DG     O1911335   4.322   2.279   0.697  0.2047  0.4205  0.0461
  493DG     H2011336   4.375   2.215   0.884 -0.0917  1.2171  2.3079
  493DG     H2111337   4.251   2.337   0.880 -0.0637  1.8489  0.0287
  493DG     H2211338   4.455   2.428   0.766 -2.1632 -1.2981  1.0114
  493DG     H2311339   4.431   2.413   0.580 -0.1743 -0.9493 -1.0441
  494DG      C111340   2.083   4.129   3.076  0.4060 -0.8207  0.3455
  494DG      C211341   2.498   4.287   2.388  0.1910  0.2282 -0.5895
  494DG      H311342   2.170   4.102   3.128  0.0512  2.2868 -0.3139
  494DG      H411343   2.008   4.052   3.094  1.4583  0.9144 -0.2731
  494DG      H511344   2.053   4.235   3.105  0.0897  2.4787  0.4859
  494DG      H611345   2.611   4.281   2.402  2.1998 -2.4387  0.9002
  494DG      H711346   2.486   4.220   2.303 -2.1143 -1.4093 -0.9024
  494DG      H811347   2.449   4.390   2.374 -0.4104 -0.9720 -3.1504
  494DG      O911348   2.103   4.133   2.930 -0.2438 -0.1190 -0.2682
  494DG     O1011349   2.429   4.210   2.488  0.6256 -0.3826 -0.4779
  494DG     C1111350   2.151   4.004   2.877  0.7483 -0.2005 -0.5540
  494DG     C1211351   2.432   4.263   2.620  0.3088  0.5856 -0.3181
  494DG     H1311352   2.078   3.934   2.898 -0.9001  1.6314  2.7441
  494DG     H1411353   2.236   3.959   2.930  0.7186 -0.5859 -3.2822
  494DG     H1511354   2.369   4.357   2.636  1.5367 -1.0247 -2.9039
  494DG     H1611355   2.535   4.292   2.642 -0.5042 -0.9105 -1.2538
  494DG     C1711356   2.177   4.015   2.724  0.5850  0.2544 -0.0236
  494DG     C1811357   2.378   4.166   2.718  0.3392  0.7083  0.5264
  494DG     O1911358   2.245   4.129   2.675 -0.2374  0.1899 -0.4340
  494DG     H2011359   2.085   4.000   2.674  3.2884 -1.4224  1.8958
  494DG     H2111360   2.239   3.925   2.702  0.9102  0.0662 -0.5146
  494DG     H2211361   2.441   4.080   2.702 -1.2985  0.8139 -4.0139
  494DG     H2311362   2.372   4.205   2.818  2.3545 -0.7810 -0.6940
  495DG      C111363   3.765   0.007   4.970  0.2322 -0.3735  0.8342
  495DG      C211364   3.186  -0.054   4.862 -0.1418  0.7530 -0.1683
  495DG      H311365   3.864  -0.011   4.928  0.8290  1.0148  0.1348
  495DG      H411366   3.736  -0.076   5.041 -2.3377  1.4630  0.0248
  495DG      H511367   3.758   0.107   5.021 -0.7728 -1.6973  0.8003
  495DG      H611368   3.075  -0.076   4.878 -0.8389 -2.7029  0.6491
  495DG      H711369   3.246  -0.137   4.815 -2.3549  0.4375  3.0779
  495DG      H811370   3.223  -0.057   4.964  1.8340 -1.4791 -0.7039
  495DG      O911371   3.680  -0.021   4.865  0.0829  0.0055  0.3550
  495DG     O1011372   3.207   0.075   4.807  0.2783 -0.3188 -0.6047
  495DG     C1111373   3.708   0.057   4.747  0.3177  0.0047 -0.2076
  495DG     C1211374   3.233   0.076   4.667 -0.0106 -0.2570 -0.0955
  495DG     H1311375   3.809   0.036   4.705 -2.5525 -3.0230  0.2175
  495DG     H1411376   3.696   0.162   4.763  1.8930  0.4632 -2.6048
  495DG     H1511377   3.228   0.181   4.648  1.4432 -4.8892 -0.4242
  495DG     H1611378   3.150   0.029   4.610 -0.2334 -0.1346 -0.9632
  495DG     C1711379   3.606   0.015   4.647  0.1019  0.1692  0.2865
  495DG     C1811380   3.361   0.011   4.614 -0.8222 -0.0151 -0.4155
  495DG     O1911381   3.474   0.055   4.689 -0.0574 -0.6137 -0.3831
  495DG     H2011382   3.617  -0.084   4.635  0.0543  1.5349  0.0015
  495DG     H2111383   3.630   0.065   4.550  2.4009 -1.1190  0.1264
  495DG     H2211384   3.355  -0.096   4.627  0.2676 -0.0477  2.3215
  495DG     H2311385   3.382   0.023   4.509 -1.2692  1.1925  1.1054
  496DG      C111386   2.405   1.260   1.453 -0.8390  0.6214  0.5789
  496DG      C211387   1.976   1.549   2.184 -0.0303  1.2697 -0.2739
  496DG      H311388   2.407   1.212   1.355 -2.6095 -0.6865  0.9593
  496DG      H411389   2.496   1.229   1.504 -0.7892 -0.0403  0.6579
  496DG      H511390   2.424   1.366   1.425  1.3248 -0.4868  0.7072
  496DG      H611391   1.925   1.646   2.162  0.7445 -2.4153 -0.6114
  496DG      H711392   1.923   1.486   2.253 -2.4805  1.7714  2.2514
  496DG      H811393   2.075   1.557   2.222 -0.8870 -0.2164 -0.6320
  496DG      O911394   2.282   1.234   1.519 -0.1801 -0.0211  0.6283
  496DG     O1011395   1.980   1.483   2.060 -0.1961  0.3351 -0.4310
  496DG     C1111396   2.266   1.308   1.638 -0.3918 -0.5207  0.0753
  496DG     C1211397   2.033   1.348   2.060  0.4168 -0.2499  0.1350
  496DG     H1311398   2.283   1.415   1.617 -0.2136  2.8193 -0.0251
  496DG     H1411399   2.339   1.265   1.715  0.1215 -1.4941  2.2477
  496DG     H1511400   1.959   1.285   2.109 -0.2846 -0.1886 -1.9149
  496DG     H1611401   2.131   1.351   2.103  0.4440  1.1518 -0.0182
  496DG     C1711402   2.126   1.287   1.699  0.6593  0.2053 -0.4521
  496DG     C1811403   2.035   1.285   1.915  0.0332 -0.5123  1.0301
  496DG     O1911404   2.136   1.333   1.834  0.4053  0.7003 -0.0508
  496DG     H2011405   2.089   1.188   1.693 -1.9914  0.9075 -1.5279
  496DG     H2111406   2.053   1.351   1.647 -2.5463 -3.3451 -0.4280
  496DG     H2211407   2.056   1.180   1.930 -0.8297  0.4917  3.3617
  496DG     H2311408   1.941   1.291   1.870  0.1294  1.0488  0.0083
  497DG      C111409   5.481   0.858   0.433 -0.1152 -1.0890  0.0275
  497DG      C211410   5.235   1.485   0.486  0.4473  1.1069  0.1088
  497DG      H311411   5.536   0.852   0.532  2.4076  0.1600  1.7068
  497DG      H411412   5.508   0.770   0.373 -1.8512 -0.8009  3.7119
  497DG      H511413   5.368   0.844   0.454 -0.7136 -3.3985  0.4359
  497DG      H611414   5.136   1.432   0.468 -0.5105 -2.0027 -0.2249
  497DG      H711415   5.262   1.495   0.589  2.4471  2.0354  0.9852
  497DG      H811416   5.217   1.589   0.450  1.1241  0.1665 -1.5403
  497DG      O911417   5.501   0.983   0.362 -0.0811 -0.1397  0.9332
  497DG     O1011418   5.331   1.420   0.410  0.1578  0.1138  0.8283
  497DG     C1111419   5.632   1.030   0.375  0.1162 -0.5872  0.6261
  497DG     C1211420   5.465   1.461   0.449  0.0884 -0.1873  0.1576
  497DG     H1311421   5.712   0.961   0.345  0.8970 -1.7125 -0.1765
  497DG     H1411422   5.655   1.040   0.481 -0.4562 -3.9001  0.0296
  497DG     H1511423   5.484   1.429   0.544  0.7162 -0.1891  0.4014
  497DG     H1611424   5.463   1.563   0.449 -2.6206 -4.7334 -1.5665
  497DG     C1711425   5.652   1.172   0.312  0.3254  0.4086 -0.9103
  497DG     C1811426   5.566   1.399   0.350  0.2291 -0.0272 -0.0724
  497DG     O1911427   5.554   1.260   0.375  0.3021 -0.1109 -0.4163
  497DG     H2011428   5.658   1.180   0.205  1.2675  2.6480  0.6577
  497DG     H2111429   5.756   1.192   0.352  2.9675 -1.9261  1.9117
  497DG     H2211430   5.545   1.422   0.242  1.2721 -0.1698 -1.4857
  497DG     H2311431   5.669   1.429   0.379  0.0059 -1.6609  1.2106
  498DG      C111432   3.887   2.512   0.796  0.9352 -0.1484  0.5055
  498DG      C211433   3.734   2.905   0.287 -0.3545 -0.1033 -0.2751
  498DG      H311434   3.871   2.607   0.856  0.7037  3.3935 -0.1444
  498DG      H411435   3.959   2.450   0.845 -1.1648 -2.1376 -1.2704
  498DG      H511436   3.791   2.455   0.784  1.2154 -1.2915 -2.3105
  498DG      H611437   3.762   3.005   0.319  1.5043 -1.1226 -0.9204
  498DG      H711438   3.736   2.898   0.180  0.6840 -0.7480 -1.7767
  498DG      H811439   3.632   2.876   0.316 -0.0000  2.0737 -2.1179
  498DG      O911440   3.950   2.534   0.669 -0.6132  0.4320 -0.8620
  498DG     O1011441   3.838   2.822   0.330  0.1345 -0.0597 -0.5546
  498DG     C1111442   4.074   2.594   0.679  0.1342  0.6873 -0.3834
  498DG     C1211443   3.970   2.872   0.316 -0.4635 -0.2406  0.1266
  498DG     H1311444   4.146   2.513   0.709 -0.2546  0.9549 -1.1525
  498DG     H1411445   4.082   2.680   0.752  1.2675  1.1593  2.1872
  498DG     H1511446   3.983   2.958   0.383  0.6424  0.2007 -1.1995
  498DG     H1611447   3.985   2.903   0.210  0.7466  0.0455  1.4016
  498DG     C1711448   4.130   2.630   0.537 -0.5675 -1.0882 -0.0105
  498DG     C1811449   4.074   2.768   0.352  0.4739  0.1352 -0.2712
  498DG     O1911450   4.030   2.714   0.475 -0.1230 -0.2130 -0.1341
  498DG     H2011451   4.137   2.543   0.470 -1.1727 -1.6084 -2.0848
  498DG     H2111452   4.226   2.682   0.541 -2.2226 -1.5280 -3.3318
  498DG     H2211453   4.073   2.677   0.290 -2.6765  1.5531 -1.1629
  498DG     H2311454   4.172   2.809   0.355 -2.7640 -2.1071  0.3719
  499DG      C111455   4.858   0.156   5.029 -0.2843  0.3282  0.3500
  499DG      C211456   5.156  -0.422   5.197  0.2130  0.2846 -1.1191
  499DG      H311457   4.880   0.247   5.083 -0.0277 -0.9872  0.8335
  499DG      H411458   4.777   0.110   5.087  2.0368  0.1067  1.7146
  499DG      H511459   4.815   0.175   4.928  0.2935 -2.4049  0.0069
  499DG      H611460   5.217  -0.412   5.291 -0.3763  0.6247 -0.9602
  499DG      H711461   5.053  -0.412   5.221  2.2185  1.0655  2.7522
  499DG      H811462   5.176  -0.523   5.164 -0.8422 -1.7090  0.7569
  499DG      O911463   4.962   0.061   5.023 -0.3886  0.0991 -0.1276
  499DG     O1011464   5.204  -0.316   5.113 -0.6480  0.2430  0.1583
  499DG     C1111465   5.064   0.112   4.933 -0.9250  0.9028 -0.2380
  499DG     C1211466   5.180  -0.334   4.971 -0.3752 -0.3019  0.4256
  499DG     H1311467   5.096   0.208   4.973 -2.1913  0.3878 -2.5525
  499DG     H1411468   5.034   0.129   4.832  0.0913  0.0005 -0.4979
  499DG     H1511469   5.081  -0.357   4.949  1.6435 -2.1279 -0.3293
  499DG     H1611470   5.248  -0.416   4.939  0.5248  0.3593  1.4116
  499DG     C1711471   5.193   0.033   4.921  0.5117  0.0945 -0.5981
  499DG     C1811472   5.229  -0.205   4.911  0.8231 -0.0964 -0.1448
  499DG     O1911473   5.144  -0.097   4.956  0.0866 -0.0896  0.2843
  499DG     H2011474   5.268   0.061   5.001  0.2828  0.6024  3.1337
  499DG     H2111475   5.229   0.032   4.820  1.0808  0.2845  1.9237
  499DG     H2211476   5.329  -0.179   4.950  1.9935  0.6850  0.5977
  499DG     H2311477   5.237  -0.201   4.801  2.4160  0.6653  2.5547
  500DG      C111478   4.807   0.223   0.144 -0.2215  0.6571  0.0147
  500DG      C211479   5.374  -0.381   0.232  0.2971 -0.0000 -0.0791
  500DG      H311480   4.796   0.233   0.037 -0.4308  1.1850 -1.6375
  500DG      H411481   4.884   0.298   0.176 -0.6554  0.7349 -0.6365
  500DG      H511482   4.723   0.276   0.185 -1.0122 -2.1502 -0.2724
  500DG      H611483   5.470  -0.389   0.190 -0.3435  0.6200  1.6857
  500DG      H711484   5.353  -0.431   0.328 -0.6676  2.5950 -1.1198
  500DG      H811485   5.302  -0.431   0.164 -1.6178 -0.2346 -2.0326
  500DG      O911486   4.823   0.086   0.197  0.3979  0.1025 -0.1099
  500DG     O1011487   5.335  -0.246   0.251 -0.2100  0.6463  0.1603
  500DG     C1111488   4.836   0.077   0.340 -0.1304  0.5445  0.0619
  500DG     C1211489   5.201  -0.235   0.291 -0.7911  0.6029  0.1509
  500DG     H1311490   4.785  -0.012   0.373 -0.1004 -1.3864  0.3327
  500DG     H1411491   4.793   0.161   0.387 -0.5120 -1.0471 -0.6945
  500DG     H1511492   5.180  -0.309   0.367  0.8180 -1.3807  0.2630
  500DG     H1611493   5.132  -0.243   0.201  0.1492  1.1168 -1.3888
  500DG     C1711494   4.986   0.059   0.379  0.2392  0.1689  0.6765
  500DG     C1811495   5.172  -0.085   0.337 -0.3822  0.2866  0.4188
  500DG     O1911496   5.031  -0.065   0.325 -0.1267 -0.1976  0.6375
  500DG     H2011497   4.997   0.053   0.485 -1.8313 -0.4984 -1.4064
  500DG     H2111498   5.045   0.144   0.364 -0.1599 -2.5053 -2.3731
  500DG     H2211499   5.204  -0.066   0.437  1.0043  0.0083 -1.5701
  500DG     H2311500   5.239  -0.030   0.271  2.8144  0.3214  1.4510
  501DG      C111501   3.225   4.748   2.338  0.0447 -0.3492  0.0593
  501DG      C211502   2.762   4.898   2.834  0.9226  0.1865  0.0177
  501DG      H311503   3.243   4.834   2.393 -0.2520 -0.2527  0.8163
  501DG      H411504   3.215   4.767   2.231 -1.0049  1.5807  0.6265
  501DG      H511505   3.302   4.678   2.351  2.6920 -1.4650 -0.7661
  501DG      H611506   2.845   4.830   2.852 -3.0111  0.3649 -1.0785
  501DG      H711507   2.810   4.995   2.835  0.6189  1.3935  0.8774
  501DG      H811508   2.702   4.891   2.922  2.2799  0.8304 -3.2538
  501DG      O911509   3.101   4.693   2.384 -0.4711 -0.0831  0.0808
  501DG     O1011510   2.699   4.887   2.709 -0.2236 -0.7009  0.0952
  501DG     C1111511   2.989   4.784   2.385 -0.2008 -0.3041 -0.2702
  501DG     C1211512   2.656   4.758   2.679  0.4127 -0.3101  0.1174
  501DG     H1311513   2.967   4.811   2.281 -1.0381  0.7237  0.1919
  501DG     H1411514   3.016   4.879   2.441 -0.4677 -2.4629  0.4798
  501DG     H1511515   2.604   4.762   2.586 -0.8654 -0.2674  2.8996
  501DG     H1611516   2.590   4.719   2.758 -1.8069  1.0962  0.3054
  501DG     C1711517   2.868   4.720   2.451 -0.0308  0.6103  1.1276
  501DG     C1811518   2.771   4.652   2.659 -0.4942 -0.3154  0.0891
  501DG     O1911519   2.880   4.696   2.585  0.0265 -0.6052 -0.4850
  501DG     H2011520   2.833   4.625   2.417  0.1088  2.4838 -0.6553
  501DG     H2111521   2.784   4.790   2.436 -0.2066  1.2726 -3.2999
  501DG     H2211522   2.812   4.622   2.761  0.5120 -2.1181  2.5215
  501DG     H2311523   2.730   4.562   2.608  0.2202  0.7382 -1.0542
  502DG      C111524   3.344   1.327   3.781  0.0253 -0.2786 -0.5133
  502DG      C211525   3.500   0.661   3.803  0.0134  0.5808 -0.5263
  502DG      H311526   3.412   1.351   3.862 -0.1931  0.1749  0.4013
  502DG      H411527   3.254   1.312   3.841 -0.4004  0.1020  1.5099
  502DG      H511528   3.335   1.413   3.708 -2.5895 -0.9382 -1.6623
  502DG      H611529   3.417   0.607   3.837  2.0225  0.6781 -3.5321
  502DG      H711530   3.574   0.595   3.744  0.0560  1.6069  2.0349
  502DG      H811531   3.556   0.694   3.887 -0.6698  1.2942 -0.2950
  502DG      O911532   3.411   1.215   3.714  0.1743 -0.0676 -0.0506
  502DG     O1011533   3.453   0.774   3.734 -0.2763 -0.2847 -0.0018
  502DG     C1111534   3.350   1.184   3.591 -0.5799 -0.4305 -0.4450
  502DG     C1211535   3.377   0.740   3.621 -0.7111  0.1372 -0.2941
  502DG     H1311536   3.424   1.140   3.521 -2.4400  1.4085  0.3279
  502DG     H1411537   3.321   1.282   3.538 -1.1416 -0.9592  2.2176
  502DG     H1511538   3.288   0.689   3.649  2.6720  3.2931  3.5699
  502DG     H1611539   3.433   0.687   3.550  1.3885  2.3157  3.3491
  502DG     C1711540   3.229   1.087   3.613 -0.6026 -0.3134 -0.6049
  502DG     C1811541   3.331   0.877   3.559  0.4124  0.2395 -0.4084
  502DG     O1911542   3.273   0.956   3.663 -0.1870  0.3442  0.0680
  502DG     H2011543   3.161   1.074   3.524 -2.3981 -0.8985  0.5466
  502DG     H2111544   3.168   1.135   3.687 -1.4510  0.5367 -1.1638
  502DG     H2211545   3.411   0.933   3.509 -0.3950  1.6175  0.4150
  502DG     H2311546   3.255   0.857   3.490 -0.2869 -0.0502  3.7969
  503THF     O111547   1.182   3.768   1.399 -0.3760  0.1508 -0.0292
  503THF     C211548   1.236   3.883   1.334 -0.4113  0.1851  0.1996
  503THF     C311549   1.156   3.676   1.301 -0.1332 -0.0662 -0.9035
  503THF     H411550   1.338   3.873   1.308  0.5808  1.8316 -1.1232
  503THF     H511551   1.224   3.970   1.397  2.1912  0.1147  1.0091
  503THF     H611552   1.247   3.631   1.257  0.9840  1.9139  0.8572
  503THF     H711553   1.092   3.588   1.335 -1.4952 -2.3542  2.0614
  503THF     C811554   1.085   3.759   1.191 -0.4290  0.1633 -0.4333
  503THF     C911555   1.156   3.890   1.208  0.0597 -0.0309 -0.2452
  503THF    H1011556   0.976   3.767   1.207 -3.6663  3.5438  0.4224
  503THF    H1111557   1.109   3.727   1.091  0.3818 -2.0633  1.4939
  503THF    H1211558   1.235   3.904   1.125  3.7674  0.9511  2.1089
  503THF    H1311559   1.082   3.970   1.193 -1.3001  1.2644 -2.3795
  504THF     O111560   4.055   4.883   2.674 -0.3579 -0.3312 -0.0683
  504THF     C211561   3.969   4.950   2.584  0.6083 -0.0979 -0.7045
  504THF     C311562   4.163   4.843   2.591  0.1440 -0.5136  0.1136
  504THF     H411563   4.022   5.048   2.558  1.0335  0.0569 -0.0094
  504THF     H511564   3.863   4.976   2.617 -1.2741  2.0806 -0.1708
  504THF     H611565   4.228   4.930   2.563 -1.4931 -0.8483 -1.2093
  504THF     H711566   4.218   4.779   2.652 -1.0357 -2.8118 -1.1234
  504THF     C811567   4.098   4.790   2.458 -0.3312 -0.7840 -0.2424
  504THF     C911568   3.961   4.854   2.464  0.3434  0.2044  0.2402
  504THF    H1011569   4.091   4.682   2.457 -0.3572 -1.5076 -2.2486
  504THF    H1111570   4.146   4.810   2.363  1.0905 -4.1567  3.0864
  504THF    H1211571   3.930   4.897   2.378  1.9725 -1.1551  3.0286
  504THF    H1311572   3.896   4.764   2.478  0.2002  1.7705  0.7063
  505THF     O111573   4.390   5.081   4.118  0.0502  0.2352 -0.4089
  505THF     C211574   4.507   5.028   4.075 -0.0222 -1.3712 -0.1844
  505THF     C311575   4.282   4.991   4.074 -0.1317 -0.1385 -0.2353
  505THF     H411576   4.578   5.077   4.134  2.3562  0.8183 -0.3815
  505THF     H511577   4.535   5.054   3.972 -0.6414 -0.4628  1.9776
  505THF     H611578   4.191   4.999   4.136  1.5984 -0.4828 -0.0421
  505THF     H711579   4.258   5.003   3.969 -0.3442 -2.3658 -1.9554
  505THF     C811580   4.352   4.852   4.096 -0.2095 -0.1538 -0.0085
  505THF     C911581   4.503   4.876   4.091  0.6886  0.4468  0.1442
  505THF    H1011582   4.313   4.787   4.018  0.1828 -0.7970 -3.0404
  505THF    H1111583   4.315   4.812   4.193  0.2664 -0.4828  1.3043
  505THF    H1211584   4.546   4.855   4.186  0.0548  0.0728 -0.2335
  505THF    H1311585   4.537   4.814   4.004 -3.2279 -1.9143  0.4929
  506THF     O111586   2.691   5.170   3.770 -0.1660 -0.0310  0.4048
  506THF     C211587   2.743   5.271   3.857  0.0817 -0.8084 -0.2260
  506THF     C311588   2.617   5.234   3.675  0.4384  0.5629  0.3018
  506THF     H411589   2.823   5.244   3.923 -0.3742  0.0612 -1.4330
  506THF     H511590   2.650   5.295   3.914 -1.6151  0.3003 -1.0051
  506THF     H611591   2.593   5.176   3.588  1.8610 -0.8131 -2.9866
  506THF     H711592   2.518   5.264   3.711 -0.3470 -1.7358 -0.0010
  506THF     C811593   2.687   5.362   3.638  0.0458  0.2457  0.4975
  506THF     C911594   2.769   5.390   3.767 -0.1298 -0.2550  0.5469
  506THF    H1011595   2.624   5.440   3.614  1.1039  0.9865  0.6907
  506THF    H1111596   2.753   5.335   3.549  3.0371 -0.3257 -1.0056
  506THF    H1211597   2.873   5.384   3.744 -1.3584 -1.0873  1.4811
  506THF    H1311598   2.729   5.479   3.809  0.4415 -1.3788 -1.8778
  507THF     O111599   0.100   5.312   2.647 -0.2708  0.2537 -0.8221
  507THF     C211600   0.070   5.185   2.595  0.0617 -0.0993 -0.3171
  507THF     C311601   0.031   5.400   2.554 -0.8370 -0.0966 -0.2251
  507THF     H411602  -0.032   5.164   2.616  0.3233  1.0308 -2.1398
  507THF     H511603   0.140   5.117   2.645 -2.0856  1.3977 -1.9014
  507THF     H611604  -0.074   5.403   2.577 -0.9247  0.2182  0.1950
  507THF     H711605   0.074   5.502   2.566  3.2073  1.5567  0.9576
  507THF     C811606   0.056   5.346   2.420  0.3966  0.6020  0.1401
  507THF     C911607   0.099   5.196   2.448  0.0366  0.3362  0.1266
  507THF    H1011608   0.140   5.399   2.376 -0.5951  2.0597  1.6387
  507THF    H1111609  -0.041   5.364   2.366 -0.0629  1.3808 -0.7431
  507THF    H1211610   0.044   5.123   2.386 -3.0362 -0.5529  0.7692
  507THF    H1311611   0.207   5.184   2.427 -1.1863  1.5731 -1.4173
  508THF     O111612   5.031   4.581   1.658  0.0897  0.2914 -0.2712
  508THF     C211613   5.079   4.716   1.643  0.7566 -0.4667 -0.3741
  508THF     C311614   5.126   4.491   1.608  0.2588 -0.2447 -0.0841
  508THF     H411615   5.101   4.755   1.739  0.8013 -1.3945 -0.1068
  508THF     H511616   5.005   4.766   1.584  2.2717 -0.6958 -0.3075
  508THF     H611617   5.193   4.474   1.694  2.2555  2.7615 -0.6135
  508THF     H711618   5.090   4.386   1.590 -1.0823 -1.8865 -0.1057
  508THF     C811619   5.200   4.573   1.506  0.3771 -0.0712  0.5219
  508THF     C911620   5.211   4.705   1.567  0.3559  0.2347  0.0811
  508THF    H1011621   5.142   4.575   1.410  0.9953  2.0209  2.1216
  508THF    H1111622   5.290   4.512   1.494 -2.5718 -1.7712  2.9561
  508THF    H1211623   5.298   4.705   1.632  0.2852 -0.3293  2.3890
  508THF    H1311624   5.229   4.796   1.505 -0.9441  1.1913  0.6045
  509THF     O111625   4.482   4.504   1.659 -0.1907 -0.3012  0.0630
  509THF     C211626   4.593   4.585   1.643 -0.3864 -0.2685 -0.3480
  509THF     C311627   4.443   4.453   1.531 -0.5775 -0.8623 -0.0257
  509THF     H411628   4.677   4.512   1.669  1.4365  0.8513  2.9767
  509THF     H511629   4.594   4.665   1.721  0.5872  0.3963  2.6593
  509THF     H611630   4.520   4.367   1.506  2.1972 -0.4227  2.9056
  509THF     H711631   4.344   4.421   1.539 -1.1116  0.0147 -2.0367
  509THF     C811632   4.468   4.566   1.442  0.1233 -0.4710  1.2759
  509THF     C911633   4.596   4.627   1.499 -0.9490  0.2490  0.9475
  509THF    H1011634   4.382   4.620   1.436 -0.2630 -0.1142 -1.4211
  509THF    H1111635   4.477   4.532   1.335 -1.4163  0.0299 -1.4694
  509THF    H1211636   4.690   4.592   1.459  0.0131  0.0256 -0.2212
  509THF    H1311637   4.588   4.733   1.484  0.3405 -0.1350  0.8894
  510THF     O111638   4.526   2.153   3.326  0.4903  0.2924 -0.2789
  510THF     C211639   4.451   2.140   3.208  0.2339 -0.1118  0.4173
  510THF     C311640   4.471   2.256   3.407 -0.0231 -0.1747  0.8063
  510THF     H411641   4.457   2.041   3.163 -3.0643  0.5122  0.2722
  510THF     H511642   4.488   2.212   3.137  0.4008 -0.8140  0.8728
  510THF     H611643   4.517   2.264   3.506 -1.3775 -0.0874  0.1468
  510THF     H711644   4.491   2.351   3.362 -0.2157  1.8196 -0.0338
  510THF     C811645   4.320   2.227   3.391  0.4800  0.8437  0.8355
  510THF     C911646   4.304   2.159   3.253  0.8612 -0.6538  0.2761
  510THF    H1011647   4.255   2.316   3.407 -0.9652 -0.0774  1.2646
  510THF    H1111648   4.293   2.156   3.466 -0.2991  1.0520  2.1831
  510THF    H1211649   4.251   2.066   3.271  0.2014  0.2958  1.0644
  510THF    H1311650   4.241   2.212   3.181 -0.6054  4.3949  0.2380
  511THF     O111651   4.239   4.885   4.928  0.2628  0.4205 -0.6171
  511THF     C211652   4.373   4.925   4.961  0.9232 -0.3694  0.7460
  511THF     C311653   4.150   4.939   5.020  0.4276  0.0927  0.2745
  511THF     H411654   4.437   4.919   4.872  0.6350  2.2349 -1.2085
  511THF     H511655   4.410   4.869   5.042 -0.4858 -2.3497  1.3313
  511THF     H611656   4.052   4.928   4.986 -0.8902 -0.1748 -1.4160
  511THF     H711657   4.152   4.889   5.113  3.4263  1.0754  0.3881
  511THF     C811658   4.203   5.079   5.042  0.1871 -0.4008 -0.0370
  511THF     C911659   4.345   5.073   4.990  0.0880  0.1760 -0.1223
  511THF    H1011660   4.189   5.127   5.143  2.4147 -0.4687  3.0835
  511THF    H1111661   4.144   5.144   4.970 -1.4124  0.0744  1.2340
  511THF    H1211662   4.359   5.124   4.897  0.7505  0.2282 -0.8590
  511THF    H1311663   4.417   5.112   5.062 -0.6810  1.9765  1.9102
  512THF     O111664   4.528   1.659   0.714  0.3408 -0.0114 -0.3632
  512THF     C211665   4.414   1.658   0.802 -0.4121  0.0281  0.3004
  512THF     C311666   4.636   1.669   0.801  0.1557  0.9734 -0.3925
  512THF     H411667   4.312   1.646   0.762  2.1533  0.9995  2.2176
  512THF     H511668   4.406   1.746   0.867 -3.5560 -1.1339  1.3940
  512THF     H611669   4.722   1.648   0.738  0.1448 -1.1052 -0.8673
  512THF     H711670   4.646   1.763   0.857  1.7728  2.2941  1.0210
  512THF     C811671   4.605   1.553   0.899 -0.4492 -0.4007  0.2841
  512THF     C911672   4.447   1.546   0.897 -0.1569  0.0831  0.3067
  512THF    H1011673   4.639   1.568   1.008  2.0726  1.2510  3.4219
  512THF    H1111674   4.647   1.465   0.852  0.9161  0.5250  1.4878
  512THF    H1211675   4.415   1.453   0.848 -0.0445 -2.2915  0.3918
  512THF    H1311676   4.400   1.551   0.993 -1.3218 -1.3289 -0.2844
  513THF     O111677   4.881   5.300   3.977  0.0557 -0.2259 -0.2752
  513THF     C211678   4.996   5.316   3.899 -0.0540  0.2970 -0.4141
  513THF     C311679   4.845   5.161   3.976  0.3617  0.2596  0.0273
  513THF     H411680   5.057   5.399   3.931  2.2390  1.8045  1.4926
  513THF     H511681   4.964   5.328   3.796  1.1087 -1.7604 -1.7026
  513THF     H611682   4.781   5.143   4.066 -0.2255 -2.8036  2.3185
  513THF     H711683   4.781   5.135   3.890 -2.2512  2.1869  3.5236
  513THF     C811684   4.973   5.084   3.970  0.0501 -0.4669 -0.2875
  513THF     C911685   5.073   5.189   3.906 -0.1752 -0.0067 -0.2888
  513THF    H1011686   4.963   4.998   3.911  1.2564 -0.4903  2.1071
  513THF    H1111687   5.012   5.061   4.072 -0.2231 -2.3028 -1.0880
  513THF    H1211688   5.159   5.198   3.958 -1.7680 -0.6068 -2.1240
  513THF    H1311689   5.102   5.153   3.803 -1.6411 -0.6415 -1.7438
  514THF     O111690   2.328   5.122   5.430 -0.4944  0.0888 -0.0710
  514THF     C211691   2.372   5.049   5.542 -0.1159 -0.3445 -0.7122
  514THF     C311692   2.335   5.266   5.459 -0.2749 -0.2149  0.1280
  514THF     H411693   2.473   5.029   5.534  0.3445 -1.2784 -2.4815
  514THF     H511694   2.316   4.957   5.557  1.7162 -0.6588  2.5112
  514THF     H611695   2.416   5.311   5.402 -0.7702  2.4732  0.6564
  514THF     H711696   2.252   5.327   5.434 -2.9456 -0.4308  2.2676
  514THF     C811697   2.365   5.279   5.612 -0.7479  0.4077  0.6080
  514THF     C911698   2.351   5.138   5.665  0.2103  0.2248 -0.2095
  514THF    H1011699   2.293   5.346   5.659  1.2636 -0.6614  0.5283
  514THF    H1111700   2.461   5.325   5.633 -1.7061 -0.4571  1.0407
  514THF    H1211701   2.411   5.104   5.749 -2.5068  0.5239  0.6588
  514THF    H1311702   2.242   5.128   5.695 -1.1505 -0.1241 -2.1986
  515THF     O111703   3.293   2.200   4.954 -0.1947  0.2253 -0.3529
  515THF     C211704   3.266   2.106   4.850 -0.4685  0.1538 -0.1266
  515THF     C311705   3.182   2.209   5.046 -0.2062  0.5378 -0.0559
  515THF     H411706   3.354   2.077   4.788 -4.3229 -0.5382 -1.9337
  515THF     H511707   3.181   2.137   4.790 -0.3886 -1.1318 -2.6102
  515THF     H611708   3.214   2.255   5.143 -0.0633 -1.4049  1.7193
  515THF     H711709   3.115   2.281   5.003  1.3901 -3.0729  0.6909
  515THF     C811710   3.135   2.066   5.047 -0.0031  0.4093 -0.7995
  515THF     C911711   3.213   1.993   4.938 -0.3071  0.0635 -0.0576
  515THF    H1011712   3.032   2.058   5.025  2.0054 -0.2804 -0.8812
  515THF    H1111713   3.155   2.005   5.138 -2.2500 -1.3299  1.1348
  515THF    H1211714   3.283   1.932   4.988 -1.6646  0.9968 -2.5609
  515THF    H1311715   3.147   1.925   4.880  0.0303 -0.7157  2.7086
  516THF     O111716   4.537   1.334   3.206 -0.0604  0.2358  0.0011
  516THF     C211717   4.416   1.283   3.258  0.1208 -0.4515 -0.1681
  516THF     C311718   4.509   1.463   3.158 -0.0627 -0.2211 -0.1418
  516THF     H411719   4.411   1.320   3.356  1.3073 -0.7929  0.0125
  516THF     H511720   4.411   1.181   3.260  2.2630  0.2401  1.3103
  516THF     H611721   4.498   1.534   3.246 -2.2376 -1.0993 -0.4505
  516THF     H711722   4.587   1.507   3.096 -2.1627 -0.4157  1.3613
  516THF     C811723   4.372   1.468   3.100 -0.3290 -0.7318 -1.1964
  516THF     C911724   4.311   1.343   3.168  0.5417 -0.1924  0.1849
  516THF    H1011725   4.364   1.461   2.986 -2.2416 -1.5641  0.0578
  516THF    H1111726   4.312   1.556   3.124 -1.1089  2.4912 -1.4909
  516THF    H1211727   4.211   1.370   3.206  1.4885 -2.1502 -1.4428
  516THF    H1311728   4.281   1.275   3.087  1.0912  3.3133 -0.4215
  517THF     O111729   3.717   2.537   0.190  0.2767 -0.4260 -0.1288
  517THF     C211730   3.643   2.611   0.096 -0.4525  0.7919  0.3187
  517THF     C311731   3.717   2.407   0.136  0.5821  0.0321 -0.5885
  517THF     H411732   3.708   2.663   0.027  0.7996  0.8516  0.7401
  517THF     H511733   3.595   2.685   0.157  1.2434 -2.7332  3.3127
  517THF     H611734   3.805   2.391   0.068 -0.3382  1.9800 -0.5994
  517THF     H711735   3.710   2.330   0.213  2.2862  1.4885 -1.4851
  517THF     C811736   3.588   2.388   0.061 -0.1195 -0.8211  0.1312
  517THF     C911737   3.542   2.525   0.022 -0.1828  0.1248 -0.7456
  517THF    H1011738   3.516   2.350   0.131  1.1735 -1.3185  1.6967
  517THF    H1111739   3.602   2.316  -0.023  2.3127 -0.0284 -2.3106
  517THF    H1211740   3.550   2.542  -0.082 -1.1678  0.8878  2.1911
  517THF    H1311741   3.440   2.549   0.051 -0.8785  0.6818  1.3640
  518THF     O111742   3.280   5.007   4.407  0.0027  0.1305 -0.3004
  518THF     C211743   3.231   5.010   4.542 -0.4543 -0.5131  0.0694
  518THF     C311744   3.203   5.097   4.325 -0.1868 -0.0733  0.3830
  518THF     H411745   3.297   4.972   4.626  1.7322 -2.8664  0.2689
  518THF     H511746   3.142   4.952   4.535 -1.0944  1.3816 -0.2882
  518THF     H611747   3.249   5.135   4.233  2.0676  0.8423 -0.4855
  518THF     H711748   3.108   5.047   4.291  1.1776 -2.9204 -1.7601
  518THF     C811749   3.167   5.198   4.433  0.6198 -0.0713  0.6689
  518THF     C911750   3.207   5.153   4.576 -0.4410 -0.3261 -0.1313
  518THF    H1011751   3.065   5.240   4.412 -0.4584  1.7585 -1.1316
  518THF    H1111752   3.229   5.281   4.420 -0.6289 -0.5661 -1.8660
  518THF    H1211753   3.295   5.204   4.608 -0.2533 -1.7996  1.1542
  518THF    H1311754   3.132   5.174   4.643  0.5049  0.3454  3.5807
  519THF     O111755   4.728   4.167   1.213  0.6436  0.2088 -0.1710
  519THF     C211756   4.838   4.248   1.245 -0.7049  0.3215 -0.0689
  519THF     C311757   4.747   4.041   1.279  0.1895  0.9195 -0.4856
  519THF     H411758   4.806   4.347   1.237  1.0817 -2.2110 -1.9871
  519THF     H511759   4.913   4.224   1.177 -0.3814 -0.5184 -0.8193
  519THF     H611760   4.666   3.987   1.316  0.7995  1.9116  3.0051
  519THF     H711761   4.804   3.973   1.215  0.4109  0.7658 -3.6255
  519THF     C811762   4.827   4.068   1.408  0.1117  0.0974  0.2691
  519THF     C911763   4.879   4.207   1.392 -0.2941  0.7493 -0.5579
  519THF    H1011764   4.914   4.007   1.423 -2.7159 -0.3103  3.7353
  519THF    H1111765   4.773   4.065   1.503 -0.1918  0.1258 -1.7922
  519THF    H1211766   4.832   4.270   1.462  1.4298 -1.0212 -1.0645
  519THF    H1311767   4.980   4.215   1.427  1.0842  4.9935 -2.5231
  520THF     O111768   0.762   2.359   0.384 -0.0609 -0.5250 -0.1033
  520THF     C211769   0.758   2.408   0.519 -0.3105 -0.3416  0.1332
  520THF     C311770   0.848   2.244   0.369 -0.3673  0.4097 -0.4112
  520THF     H411771   0.667   2.463   0.543  1.0372  3.0470 -2.2348
  520THF     H511772   0.842   2.470   0.533 -1.9154  1.9149  1.2656
  520THF     H611773   0.826   2.175   0.285  0.8976 -0.9804 -1.2792
  520THF     H711774   0.953   2.268   0.378  1.0420 -0.7372 -1.3210
  520THF     C811775   0.806   2.169   0.498 -0.3357  0.3483  0.6820
  520THF     C911776   0.770   2.279   0.598 -0.2316 -0.0259  0.0199
  520THF    H1011777   0.876   2.097   0.534 -2.0258 -2.1666  0.3672
  520THF    H1111778   0.721   2.099   0.481  2.0572 -2.7676 -2.0952
  520THF    H1211779   0.683   2.259   0.660 -0.6511 -0.5391 -1.1738
  520THF    H1311780   0.848   2.301   0.670 -2.3737  1.7810 -0.6982
  521THF     O111781   1.154   4.830   1.769  0.8087  0.0148 -1.0116
  521THF     C211782   1.287   4.782   1.752 -0.4371  0.3926  0.6108
  521THF     C311783   1.165   4.967   1.813 -0.1848  0.5026 -0.4334
  521THF     H411784   1.317   4.807   1.650 -0.3770 -0.6978  2.6254
  521THF     H511785   1.294   4.677   1.751 -0.7328 -1.8429  1.2609
  521THF     H611786   1.189   5.031   1.728 -2.5061 -1.0057  1.2713
  521THF     H711787   1.074   4.993   1.859 -1.9625 -2.5078 -2.2752
  521THF     C811788   1.274   4.965   1.924 -0.2197  0.2460  0.2548
  521THF     C911789   1.368   4.856   1.860  0.4665 -0.2646  1.1755
  521THF    H1011790   1.243   4.925   2.020 -0.9221  1.8103 -0.9914
  521THF    H1111791   1.309   5.066   1.933  0.6330 -0.8581 -2.3391
  521THF    H1211792   1.452   4.906   1.810  0.8657 -2.0242  0.4159
  521THF    H1311793   1.409   4.793   1.937  0.7351  2.5171 -0.0871
  522THF     O111794   1.766   0.419   0.825 -0.3292 -0.6734 -0.9008
  522THF     C211795   1.848   0.522   0.779 -0.4779 -0.1233  0.0678
  522THF     C311796   1.750   0.331   0.723 -0.3748 -0.0336 -0.0858
  522THF     H411797   1.881   0.593   0.850 -0.0198 -1.0641 -2.3436
  522THF     H511798   1.795   0.585   0.705  0.2805 -0.4866  0.2790
  522THF     H611799   1.709   0.234   0.756 -0.9917 -1.7392 -0.3232
  522THF     H711800   1.680   0.361   0.652 -0.2644 -0.3857 -2.2221
  522THF     C811801   1.881   0.336   0.646 -0.4458  0.8939  0.1071
  522THF     C911802   1.963   0.448   0.705 -0.4874 -0.0562 -0.4610
  522THF    H1011803   1.869   0.349   0.538 -3.0605  0.9012 -0.0076
  522THF    H1111804   1.945   0.245   0.659  0.9065 -1.0730  3.7908
  522THF    H1211805   2.042   0.427   0.776  2.2786  1.9083 -1.2750
  522THF    H1311806   2.008   0.500   0.628 -0.2994 -1.3937  0.9110
  523THF     O111807   1.580   1.988   2.996 -0.2809 -0.2302  0.9137
  523THF     C211808   1.480   2.001   3.100  0.9437  0.5898  0.0755
  523THF     C311809   1.638   1.859   2.998 -0.2835  0.1779 -1.0872
  523THF     H411810   1.402   2.076   3.086 -0.3957 -1.3565  1.0787
  523THF     H511811   1.527   2.027   3.194  0.2777 -2.4769 -1.6397
  523THF     H611812   1.672   1.818   2.908  2.5280  1.1099  0.4942
  523THF     H711813   1.722   1.884   3.064 -4.3789  0.2088 -0.9121
  523THF     C811814   1.545   1.764   3.067 -0.0776 -0.4391  0.0559
  523THF     C911815   1.422   1.854   3.092  0.1532 -0.1386 -0.5958
  523THF    H1011816   1.582   1.740   3.166  1.1898  0.4593  1.0280
  523THF    H1111817   1.524   1.677   3.011  1.3907 -0.3331  0.4374
  523THF    H1211818   1.351   1.838   3.019 -2.3254  1.1204 -3.2379
  523THF    H1311819   1.378   1.832   3.184 -1.1203  1.8505 -2.2087
  524THF     O111820   0.652   2.092   1.109  0.0117  0.2807 -0.7423
  524THF     C211821   0.566   2.206   1.112  0.8807 -0.3000  0.1447
  524THF     C311822   0.619   2.011   0.996 -0.6563  0.8396 -0.4117
  524THF     H411823   0.620   2.304   1.094  1.0042  0.8707 -1.1682
  524THF     H511824   0.519   2.213   1.210 -2.0939  0.4466  0.1804
  524THF     H611825   0.680   2.047   0.914 -0.7847 -0.4890 -0.1803
  524THF     H711826   0.646   1.903   1.015 -2.0081 -1.3099  2.0837
  524THF     C811827   0.474   2.029   0.974  0.7750  0.0626 -0.5746
  524THF     C911828   0.447   2.180   1.012 -0.0473 -0.3983  0.0881
  524THF    H1011829   0.403   1.956   1.024 -0.4021 -0.3366 -0.3503
  524THF    H1111830   0.453   2.010   0.872 -0.0910  1.9594  0.2837
  524THF    H1211831   0.447   2.243   0.922 -1.3983  4.3864 -1.4575
  524THF    H1311832   0.348   2.192   1.048 -1.2424  0.9529 -1.6990
  525THF     O111833   1.299   1.192   2.008 -0.0914  0.2855  0.0601
  525THF     C211834   1.260   1.064   2.050  0.1452 -0.0128  0.2632
  525THF     C311835   1.321   1.186   1.866 -0.0504  0.9613  0.4534
  525THF     H411836   1.151   1.049   2.045 -1.2583 -1.1969  0.4397
  525THF     H511837   1.284   1.053   2.157  1.6905  0.6715  0.2131
  525THF     H611838   1.229   1.195   1.815  2.1952 -0.5579 -1.6447
  525THF     H711839   1.375   1.272   1.827  1.0675 -0.5215  2.5687
  525THF     C811840   1.373   1.045   1.833 -0.0864  0.0616  0.3444
  525THF     C911841   1.330   0.960   1.956 -0.5536 -0.5684  0.3866
  525THF    H1011842   1.478   1.041   1.850 -1.5508  0.8049  0.6946
  525THF    H1111843   1.351   0.991   1.743  1.7869  1.8069  2.9432
  525THF    H1211844   1.273   0.868   1.933  2.5476 -0.5177 -0.7518
  525THF    H1311845   1.412   0.915   2.008 -1.1819  0.9227  1.1459
  526THF     O111846   5.218   3.028   3.780  0.2513  0.2806  0.2330
  526THF     C211847   5.351   3.043   3.724  0.3348  0.2287  0.4642
  526THF     C311848   5.150   2.934   3.700  0.0680 -0.5387  0.1521
  526THF     H411849   5.407   3.096   3.792  1.2336 -1.9347  0.4363
  526THF     H511850   5.350   3.113   3.638 -2.5691 -0.8986 -1.0704
  526THF     H611851   5.054   2.894   3.739  0.4082 -0.4726 -0.8503
  526THF     H711852   5.123   2.980   3.607  0.0875  0.0301  1.5972
  526THF     C811853   5.260   2.833   3.675 -0.0717  0.0454  0.5201
  526THF     C911854   5.385   2.909   3.674  0.6667  0.0647 -0.2907
  526THF    H1011855   5.246   2.757   3.595 -0.2797 -0.9985 -0.7304
  526THF    H1111856   5.269   2.782   3.763  0.6913  1.2520 -3.4029
  526THF    H1211857   5.466   2.863   3.738  1.3857  1.5127 -0.4726
  526THF    H1311858   5.419   2.920   3.571  2.4370 -0.1152  1.3894
  527THF     O111859   5.085   1.171   1.221 -0.0213  0.7325 -0.4237
  527THF     C211860   5.075   1.300   1.170  0.1268 -0.2865  0.3632
  527THF     C311861   5.024   1.176   1.349 -0.7641 -0.1294  0.6665
  527THF     H411862   4.975   1.332   1.133 -0.9375  1.9554  0.4665
  527THF     H511863   5.136   1.327   1.079  1.3805 -1.4234  0.2810
  527THF     H611864   4.916   1.185   1.346 -2.4281  0.2196  3.1581
  527THF     H711865   5.048   1.084   1.404 -0.8527  0.6569 -1.7838
  527THF     C811866   5.081   1.300   1.405  0.0821 -0.4167  0.6671
  527THF     C911867   5.133   1.384   1.281 -0.3463  0.1432 -0.2783
  527THF    H1011868   5.169   1.283   1.465 -1.9168 -0.9809  0.1859
  527THF    H1111869   4.998   1.347   1.459 -2.7298 -0.0656  0.4313
  527THF    H1211870   5.099   1.487   1.271 -0.6351 -0.3289  1.8608
  527THF    H1311871   5.239   1.373   1.257  3.6760  3.4992 -0.2580
  528THF     O111872   0.466   4.455   4.633  0.2016 -0.6542 -0.3924
  528THF     C211873   0.514   4.474   4.765  0.0774  0.1288 -0.3985
  528THF     C311874   0.561   4.473   4.538  0.2216 -0.2591 -0.7279
  528THF     H411875   0.543   4.371   4.811  1.9634 -2.1176 -1.5962
  528THF     H511876   0.441   4.539   4.819 -1.1126  1.7701 -1.7544
  528THF     H611877   0.629   4.385   4.528 -1.4278  0.8212  0.1455
  528THF     H711878   0.523   4.496   4.436 -2.4775 -2.4429 -2.4454
  528THF     C811879   0.641   4.589   4.593 -0.4348 -0.4753 -0.2619
  528THF     C911880   0.635   4.554   4.739 -0.1852  0.4296  0.5354
  528THF    H1011881   0.575   4.672   4.575  0.7614 -0.2309 -0.1437
  528THF    H1111882   0.746   4.606   4.550  3.2228  0.3136  0.0283
  528THF    H1211883   0.720   4.484   4.746  1.8921 -1.4974 -0.6676
  528THF    H1311884   0.639   4.628   4.809  1.7303  0.3843 -2.5212
  529THF     O111885   2.410   0.811   2.555  0.0040  0.0683  0.0969
  529THF     C211886   2.487   0.850   2.440 -0.1209 -0.2753 -0.0068
  529THF     C311887   2.308   0.713   2.515  0.6333  0.1305 -0.2520
  529THF     H411888   2.591   0.835   2.468 -1.3017 -1.3652  0.5564
  529THF     H511889   2.476   0.955   2.414 -2.1158  1.7772  0.1119
  529THF     H611890   2.346   0.618   2.560 -0.4426 -1.1136 -1.1295
  529THF     H711891   2.215   0.741   2.573 -1.1391  1.0377  1.4551
  529THF     C811892   2.313   0.721   2.356  0.0452 -0.3309 -0.2466
  529THF     C911893   2.458   0.754   2.325  0.7092 -0.6361 -0.0327
  529THF    H1011894   2.250   0.809   2.321 -1.5917  0.4232  0.6111
  529THF    H1111895   2.271   0.633   2.306  1.4750  1.9977 -1.7092
  529THF    H1211896   2.518   0.667   2.343  2.8393  0.0355  0.8579
  529THF    H1311897   2.475   0.793   2.230 -0.9741  1.0537 -0.2438
  530THF     O111898   4.537   3.027   2.552  0.4610 -0.5606 -0.3258
  530THF     C211899   4.424   2.949   2.594  0.0441  0.4308 -0.1304
  530THF     C311900   4.554   3.127   2.657  0.3099 -0.3496 -0.3338
  530THF     H411901   4.456   2.885   2.675 -1.2617  0.3627 -1.2419
  530THF     H511902   4.371   2.883   2.517 -0.4722 -0.4195 -0.7674
  530THF     H611903   4.610   3.093   2.740 -0.0813  0.9497  0.3198
  530THF     H711904   4.599   3.215   2.626 -0.6504  0.2129  0.2084
  530THF     C811905   4.406   3.164   2.697 -0.1566  0.0423 -0.2804
  530THF     C911906   4.326   3.050   2.648  0.4326  0.0508 -0.0980
  530THF    H1011907   4.366   3.250   2.652 -1.3505 -0.3514  0.0957
  530THF    H1111908   4.383   3.175   2.804 -0.9083  1.6267  0.6109
  530THF    H1211909   4.264   3.003   2.718  3.1974  1.8374 -0.9050
  530THF    H1311910   4.258   3.095   2.573 -1.3961 -1.4143 -0.0904
  531THF     O111911   3.761   1.587   4.940  0.0725  0.3436  0.5432
  531THF     C211912   3.739   1.520   5.059  0.8867 -0.2228 -0.2095
  531THF     C311913   3.714   1.505   4.829 -0.1066 -0.3645 -0.1595
  531THF     H411914   3.723   1.590   5.143  0.8254 -1.0136  1.1646
  531THF     H511915   3.818   1.449   5.076  0.9424  3.1786  0.4926
  531THF     H611916   3.672   1.564   4.753  1.1245 -0.5198 -0.8660
  531THF     H711917   3.795   1.436   4.796 -0.1134 -0.9430  1.8713
  531THF     C811918   3.603   1.425   4.890  0.7259  0.0418  0.4264
  531THF     C911919   3.606   1.439   5.037 -0.2739  0.0598 -0.3560
  531THF    H1011920   3.592   1.318   4.863 -0.2709  1.2934 -2.2781
  531THF    H1111921   3.508   1.456   4.851 -0.2965 -2.8486 -1.2177
  531THF    H1211922   3.518   1.486   5.071 -0.2109  0.7003  0.4548
  531THF    H1311923   3.614   1.338   5.085 -2.4579 -2.3104 -1.8600
  532THF     O111924   0.593   1.764   3.215 -0.5980 -0.6801 -0.3525
  532THF     C211925   0.697   1.686   3.173 -0.3260 -0.6704 -0.8258
  532THF     C311926   0.516   1.690   3.304 -0.2285  0.2194 -0.2542
  532THF     H411927   0.786   1.747   3.145 -0.5623 -4.2280 -0.8789
  532THF     H511928   0.674   1.642   3.082 -1.9517  0.1500 -1.1926
  532THF     H611929   0.464   1.760   3.368 -0.8901 -0.0445  0.5055
  532THF     H711930   0.447   1.628   3.247 -0.9172 -2.3111  1.0920
  532THF     C811931   0.611   1.597   3.374 -0.4840 -0.7936 -0.5840
  532THF     C911932   0.729   1.592   3.288  0.4145  0.2888 -0.3018
  532THF    H1011933   0.568   1.493   3.392 -0.3767 -0.6408 -0.0378
  532THF    H1111934   0.644   1.634   3.472  0.7182 -2.8127  0.8949
  532THF    H1211935   0.821   1.622   3.331  0.6404  0.2393  0.4660
  532THF    H1311936   0.733   1.492   3.251  0.9389  1.9287 -0.3827
  533THF     O111937   4.058   4.985   3.484  0.4606  0.5502 -0.0470
  533THF     C211938   4.026   5.120   3.475 -0.0656  0.2368  1.2205
  533THF     C311939   4.085   4.955   3.619  0.0401  0.7727  0.9301
  533THF     H411940   3.982   5.135   3.379 -1.7269 -0.2286 -0.2557
  533THF     H511941   4.107   5.196   3.487  0.4977  2.3446  3.8057
  533THF     H611942   4.083   4.850   3.647 -1.0302  0.3515 -1.1175
  533THF     H711943   4.182   4.979   3.642 -4.0947 -1.4838  0.7795
  533THF     C811944   3.997   5.040   3.703  0.2399  0.1097 -0.0109
  533THF     C911945   3.930   5.133   3.598 -0.0917 -0.1998 -0.5120
  533THF    H1011946   4.058   5.091   3.776 -0.4100  0.2184 -1.2049
  533THF    H1111947   3.923   4.977   3.746  0.9501  2.8689 -1.6150
  533THF    H1211948   3.829   5.083   3.560 -2.5202  1.2275 -2.0908
  533THF    H1311949   3.927   5.241   3.626  1.4176 -2.3936 -1.8036
  534THF     O111950   2.033   1.993   0.045 -0.2291  0.4489 -0.5871
  534THF     C211951   2.085   1.871   0.090  0.3197 -0.0584 -0.2784
  534THF     C311952   1.978   1.970  -0.083 -0.1613  0.4928  0.2790
  534THF     H411953   2.091   1.852   0.196  1.4475  4.5983  0.0167
  534THF     H511954   2.185   1.865   0.040 -0.8199 -2.9278 -0.8467
  534THF     H611955   1.905   2.039  -0.117  1.5420  0.1731  1.0944
  534THF     H711956   2.048   1.957  -0.163  1.0609  1.4667  3.1033
  534THF     C811957   1.919   1.832  -0.081 -0.1511 -0.0876 -0.5859
  534THF     C911958   2.000   1.760   0.026  0.0866  0.8322  0.2616
  534THF    H1011959   1.913   1.786  -0.178  0.1160 -1.8263  1.8991
  534THF    H1111960   1.820   1.836  -0.036  1.1834  2.6210  1.3260
  534THF    H1211961   1.933   1.715   0.102 -0.8474 -2.1022  3.4925
  534THF    H1311962   2.074   1.698  -0.024 -0.1954  0.1576  2.7378
  535THF     O111963   1.960   2.015   3.321 -0.1994  0.3694 -0.2164
  535THF     C211964   1.946   2.096   3.430  0.5991 -0.5268 -0.0502
  535THF     C311965   1.911   1.886   3.365 -0.2198  0.0666  0.7105
  535THF     H411966   1.961   2.203   3.399 -3.7434  1.8674  2.3006
  535THF     H511967   2.021   2.080   3.506  0.0856 -0.7483  1.3553
  535THF     H611968   1.902   1.812   3.281  1.5563  0.5345  3.4128
  535THF     H711969   1.975   1.845   3.444  1.4268 -1.7926 -0.2297
  535THF     C811970   1.778   1.920   3.422 -0.2076 -0.0478  0.5975
  535THF     C911971   1.797   2.060   3.471 -0.2906  0.1488  0.1350
  535THF    H1011972   1.737   1.866   3.510  1.7491 -0.2592  2.9174
  535THF    H1111973   1.706   1.936   3.336  1.2717  1.4545  3.6944
  535THF    H1211974   1.738   2.131   3.419  1.3005 -1.0987 -0.1256
  535THF    H1311975   1.772   2.071   3.579  1.5712  0.5303  0.9248
  536THF     O111976   4.829   2.970   5.015 -0.0759  0.0048  0.1578
  536THF     C211977   4.687   2.967   5.005  0.0159 -0.0095  0.6897
  536THF     C311978   4.856   2.984   5.149  0.5026 -0.9433  0.0101
  536THF     H411979   4.648   2.905   4.917 -1.7200  0.3331 -4.2537
  536THF     H511980   4.646   3.068   4.996  1.5374  0.3135  1.2044
  536THF     H611981   4.956   2.943   5.180  3.3116 -2.1719  2.3341
  536THF     H711982   4.846   3.086   5.176  1.1410 -1.1294 -2.1524
  536THF     C811983   4.747   2.911   5.223 -0.2108 -0.2649  0.5868
  536THF     C911984   4.630   2.903   5.124 -0.2922  0.2876 -0.0237
  536THF    H1011985   4.709   2.962   5.313 -0.1962  1.1292  1.8763
  536THF    H1111986   4.789   2.814   5.239 -1.8903  2.9121  0.3361
  536THF    H1211987   4.605   2.802   5.107  1.2447  2.9821  2.3823
  536THF    H1311988   4.540   2.958   5.150 -0.8245 -0.5482  2.3898
  537THF     O111989   4.474   2.302   3.861  0.1811  0.1183  0.0656
  537THF     C211990   4.416   2.400   3.781  0.8148  0.9782 -0.2309
  537THF     C311991   4.390   2.291   3.977 -0.4297  0.2494 -0.0285
  537THF     H411992   4.454   2.392   3.685  1.0341 -1.0761 -0.6260
  537THF     H511993   4.444   2.497   3.820 -0.1593  2.3604 -1.4307
  537THF     H611994   4.407   2.191   4.017  0.8378 -1.3513  1.2771
  537THF     H711995   4.434   2.361   4.047 -0.8895 -0.3441  0.3173
  537THF     C811996   4.251   2.333   3.937  0.0951  0.0954  0.2073
  537THF     C911997   4.265   2.372   3.791  0.4469 -0.5615 -0.2843
  537THF    H1011998   4.237   2.418   3.996 -0.0518 -2.4162 -0.1611
  537THF    H1111999   4.163   2.272   3.975 -3.3617  0.6407  1.1579
  537THF    H1212000   4.243   2.286   3.730  0.7159  2.3634  1.1128
  537THF    H1312001   4.203   2.458   3.758 -1.2403 -0.9609  0.5839
  538THF     O112002   5.486   3.369   2.797 -0.6066 -0.0567 -0.4246
  538THF     C212003   5.517   3.293   2.913  0.1484  0.2067 -0.3270
  538THF     C312004   5.506   3.280   2.682  0.0471 -0.4074  0.0014
  538THF     H412005   5.455   3.327   2.999  1.0000  1.8867  0.1377
  538THF     H512006   5.624   3.292   2.934  0.6050  1.1778  0.2409
  538THF     H612007   5.459   3.314   2.587  1.1463  0.2402 -1.1944
  538THF     H712008   5.613   3.269   2.648  0.0959 -0.4938  0.6867
  538THF     C812009   5.449   3.145   2.736 -0.2609 -0.7857  0.2848
  538THF     C912010   5.468   3.147   2.889 -0.3134 -0.2682 -0.8599
  538THF    H1012011   5.500   3.053   2.700  1.2055  0.1365 -0.9294
  538THF    H1112012   5.343   3.134   2.724  1.0602 -2.2911 -1.6676
  538THF    H1212013   5.369   3.130   2.940 -1.0015  0.9606  2.3937
  538THF    H1312014   5.544   3.076   2.916 -1.6768  3.1460  0.2918
  539THF     O112015   2.422   3.444   1.489  0.3080  0.4637  0.0585
  539THF     C212016   2.394   3.402   1.624 -0.7647  0.7652 -0.6724
  539THF     C312017   2.471   3.576   1.499  0.0339  0.3054  0.1807
  539THF     H412018   2.496   3.379   1.658  2.5608  0.0443 -0.2121
  539THF     H512019   2.326   3.311   1.640  0.6868 -2.4516  1.8751
  539THF     H612020   2.569   3.578   1.537  1.0035 -0.9888 -2.4471
  539THF     H712021   2.467   3.617   1.396 -0.7730 -0.2186 -1.4536
  539THF     C812022   2.379   3.640   1.594  0.8589  0.4408  0.2899
  539THF     C912023   2.323   3.524   1.679  0.1181 -0.6521 -0.1123
  539THF    H1012024   2.296   3.694   1.546  1.6412 -2.1874  0.4600
  539THF    H1112025   2.431   3.707   1.657  0.7618  0.3892 -2.3671
  539THF    H1212026   2.349   3.528   1.781  0.4737 -2.3969  0.2219
  539THF    H1312027   2.216   3.519   1.665  0.4142  5.2601 -2.5836
  540THF     O112028   2.564   3.409   2.752  0.4586  0.3301 -0.7378
  540THF     C212029   2.682   3.467   2.717 -0.1238 -0.7989 -0.3383
  540THF     C312030   2.451   3.492   2.737  0.2682 -0.4388  0.0919
  540THF     H412031   2.705   3.451   2.615  0.5326 -1.6726  0.4864
  540THF     H512032   2.762   3.433   2.785  0.8265 -0.2800 -1.6317
  540THF     H612033   2.389   3.451   2.657  0.5755 -0.2021  0.9331
  540THF     H712034   2.384   3.495   2.825  1.0370  1.6203 -0.0481
  540THF     C812035   2.513   3.623   2.697  0.1496  0.0921  0.1588
  540THF     C912036   2.655   3.614   2.750  0.0051  0.3173  0.3622
  540THF    H1012037   2.468   3.705   2.740 -2.1883 -0.5612  0.3942
  540THF    H1112038   2.515   3.650   2.594 -1.0658 -0.0162 -1.7663
  540THF    H1212039   2.729   3.684   2.712 -0.0619  1.2615  1.2380
  540THF    H1312040   2.654   3.620   2.861 -2.4665 -2.0953  1.2389
  541THF     O112041   1.513   0.565   0.285  0.1927 -0.3168 -0.3474
  541THF     C212042   1.576   0.461   0.349 -0.4234 -0.4353  0.0418
  541THF     C312043   1.454   0.509   0.170  0.2437 -0.2089  0.6512
  541THF     H412044   1.604   0.483   0.451 -0.1131  0.2181 -1.0544
  541THF     H512045   1.670   0.459   0.301  0.8150  0.4158 -2.2324
  541THF     H612046   1.372   0.574   0.134 -0.4433  0.3842 -2.0019
  541THF     H712047   1.519   0.486   0.085  1.4918  1.3339 -1.3779
  541THF     C812048   1.395   0.381   0.231 -0.1642 -0.4482  0.0381
  541THF     C912049   1.495   0.334   0.338  0.0576 -0.3113  0.0083
  541THF    H1012050   1.375   0.301   0.155  1.1484  0.7750 -0.0272
  541THF    H1112051   1.300   0.413   0.273  0.6145 -0.7713 -0.4491
  541THF    H1212052   1.439   0.294   0.427 -0.7553  1.6634 -2.1356
  541THF    H1312053   1.565   0.254   0.307  0.3040  1.8683 -2.0830
  542THF     O112054   1.862   5.283   5.312 -0.2458 -0.2706  0.4966
  542THF     C212055   1.952   5.206   5.231  0.3312 -0.3271  0.5493
  542THF     C312056   1.913   5.271   5.441  0.5682 -0.0291 -0.0779
  542THF     H412057   2.043   5.268   5.216  0.3978  0.5813  1.8145
  542THF     H512058   1.905   5.166   5.135 -2.3603  3.1337 -1.0244
  542THF     H612059   1.998   5.334   5.456 -0.4211  0.3956  1.9728
  542THF     H712060   1.860   5.286   5.535  4.4537 -0.5086  0.8003
  542THF     C812061   1.951   5.125   5.453 -0.1407  0.3619  0.2400
  542THF     C912062   1.981   5.087   5.310  0.1775  0.1275 -0.4714
  542THF    H1012063   1.864   5.067   5.483 -2.1921 -2.0535 -0.2635
  542THF    H1112064   2.028   5.112   5.517  0.4218  1.1386 -2.3047
  542THF    H1212065   2.085   5.062   5.302 -0.8468 -0.9029 -0.8840
  542THF    H1312066   1.923   5.001   5.280 -0.3365 -0.2888  1.9529
  543THF     O112067   2.915   3.968   1.029  0.3758  0.6328 -0.0322
  543THF     C212068   2.919   4.023   0.898 -0.3800 -0.0443 -0.1257
  543THF     C312069   2.789   3.985   1.094  0.4065  0.4013  0.2126
  543THF     H412070   2.885   3.958   0.820 -1.2128  0.0576  1.3515
  543THF     H512071   3.024   4.046   0.874  0.0269  1.9989 -1.4259
  543THF     H612072   2.721   3.896   1.103 -2.4414  0.1348  0.3344
  543THF     H712073   2.807   4.024   1.194  1.1372  2.6018 -1.6880
  543THF     C812074   2.710   4.088   1.009  0.0369  0.4070 -0.2733
  543THF     C912075   2.816   4.142   0.905  0.3867 -0.3626  0.7425
  543THF    H1012076   2.680   4.172   1.066  0.3627 -0.3336 -1.7786
  543THF    H1112077   2.634   4.033   0.961 -1.5808  0.8824 -0.0635
  543THF    H1212078   2.780   4.155   0.805  0.8992 -0.8288  1.3929
  543THF    H1312079   2.856   4.231   0.930 -0.8723 -0.1275 -0.2197
  544THF     O112080   2.393   3.955   3.248  0.8564 -0.0404  0.2902
  544THF     C212081   2.420   3.831   3.193  0.2515  0.3014  0.0216
  544THF     C312082   2.453   4.058   3.161  0.3689 -0.2308 -0.1182
  544THF     H412083   2.343   3.805   3.121  1.7809 -0.0762  1.9668
  544THF     H512084   2.423   3.753   3.274  0.7773 -2.1880 -1.7194
  544THF     H612085   2.393   4.082   3.068 -1.5982  1.1827 -0.0197
  544THF     H712086   2.467   4.147   3.218  1.0953  0.6151  1.6011
  544THF     C812087   2.581   3.994   3.126  0.7383 -0.5586 -0.2354
  544THF     C912088   2.548   3.846   3.120  0.3636 -0.1244 -0.7093
  544THF    H1012089   2.642   3.998   3.214  0.2159  1.7146  1.3810
  544THF    H1112090   2.642   4.041   3.051  0.7466  0.4546  1.1467
  544THF    H1212091   2.544   3.801   3.019  0.0536  1.1450  1.3992
  544THF    H1312092   2.632   3.786   3.163 -0.2242  0.7346  0.8020
  545THF     O112093   0.545   0.140   0.227 -0.0840 -0.4885 -0.0553
  545THF     C212094   0.526   0.254   0.140  0.0265  0.3342  0.4801
  545THF     C312095   0.647   0.180   0.326  0.4602 -0.3824  0.3621
  545THF     H412096   0.461   0.319   0.193  2.4701 -0.3010  0.9352
  545THF     H512097   0.470   0.227   0.050 -2.0665 -0.9536  0.8784
  545THF     H612098   0.593   0.225   0.406 -0.1140  0.9120 -0.6259
  545THF     H712099   0.699   0.086   0.354 -1.2901 -0.3514  4.7496
  545THF     C812100   0.728   0.282   0.247  0.0717 -0.0347 -0.1986
  545THF     C912101   0.661   0.307   0.113 -0.4538  0.7528  0.4445
  545THF    H1012102   0.833   0.252   0.235  0.1443 -0.2351 -0.3913
  545THF    H1112103   0.732   0.374   0.308  2.7912 -0.8179  2.1634
  545THF    H1212104   0.672   0.405   0.071 -0.6603 -1.6255 -0.4425
  545THF    H1312105   0.721   0.244   0.047  3.7115  0.0169  2.8465
  546THF     O112106   1.273   4.425   1.385 -0.1930  0.2144  0.4040
  546THF     C212107   1.195   4.326   1.450  0.1679 -0.7605 -0.1417
  546THF     C312108   1.335   4.499   1.487 -0.3501  0.4012  0.5709
  546THF     H412109   1.142   4.255   1.394  1.5191 -0.7486  2.2663
  546THF     H512110   1.114   4.377   1.505 -0.0968 -1.6690  2.0706
  546THF     H612111   1.414   4.554   1.438 -0.3539 -1.0483 -3.8975
  546THF     H712112   1.255   4.558   1.524  1.5560  2.1288 -2.7794
  546THF     C812113   1.380   4.391   1.595  0.5389 -0.5736  0.5882
  546THF     C912114   1.293   4.270   1.554 -0.1650  0.1167  0.4559
  546THF    H1012115   1.360   4.422   1.700  1.0941 -0.3043 -2.4889
  546THF    H1112116   1.481   4.375   1.570  1.9108 -0.9231 -0.5361
  546THF    H1212117   1.357   4.192   1.516  0.3577  1.6796  1.0196
  546THF    H1312118   1.246   4.238   1.638  3.4831  0.7582 -0.7557
  547THF     O112119   0.485   0.503   0.460 -0.3175  0.7255 -0.0918
  547THF     C212120   0.504   0.610   0.556 -0.1765 -0.5154  0.0235
  547THF     C312121   0.474   0.565   0.334  0.8311 -0.1490 -0.9667
  547THF     H412122   0.603   0.643   0.558  0.9234 -1.4957  3.4171
  547THF     H512123   0.482   0.581   0.659 -1.1647  0.7081 -0.1808
  547THF     H612124   0.568   0.599   0.298 -2.5052  0.6027 -1.8048
  547THF     H712125   0.436   0.494   0.271  0.3643 -0.5824 -0.8463
  547THF     C812126   0.388   0.690   0.356  0.1145 -0.6077 -0.1187
  547THF     C912127   0.411   0.718   0.502  0.0784  0.5685  0.1360
  547THF    H1012128   0.282   0.679   0.328 -0.1106  1.5381  2.3707
  547THF    H1112129   0.426   0.774   0.293  1.8404  0.1479 -1.0304
  547THF    H1212130   0.442   0.823   0.518  1.4600  0.5510  0.3480
  547THF    H1312131   0.314   0.693   0.554 -2.1157  2.4328 -1.0739
  548THF     O112132   4.408   2.457   5.096 -0.3255 -0.6449 -0.4039
  548THF     C212133   4.523   2.417   5.027 -0.1858 -0.6979 -0.1103
  548THF     C312134   4.439   2.511   5.225  0.4909 -0.9392  0.0971
  548THF     H412135   4.521   2.443   4.921  0.5304 -1.4329 -1.0729
  548THF     H512136   4.521   2.310   5.032  0.6745  0.8026  1.6012
  548THF     H612137   4.424   2.616   5.215 -1.2000  0.3797 -1.0253
  548THF     H712138   4.368   2.466   5.298  1.4620 -0.4271  1.2549
  548THF     C812139   4.585   2.488   5.249  0.0140  1.1154  0.0119
  548THF     C912140   4.639   2.471   5.112  0.6325 -0.3082 -0.0545
  548THF    H1012141   4.597   2.391   5.307 -0.0764 -2.0424 -2.0127
  548THF    H1112142   4.630   2.577   5.298  2.9710  1.5076 -1.0130
  548THF    H1212143   4.675   2.565   5.064 -0.7055 -0.3784 -0.8231
  548THF    H1312144   4.724   2.400   5.106  0.4008 -2.1940 -0.1933
  549THF     O112145   3.974   5.464   2.298 -0.4766 -0.4217 -0.1874
  549THF     C212146   4.066   5.557   2.353 -0.3453  0.2411  0.0548
  549THF     C312147   3.894   5.531   2.203 -0.5250  0.4235  0.0766
  549THF     H412148   4.150   5.504   2.400 -0.9127 -0.1342 -1.7990
  549THF     H512149   4.012   5.619   2.431  1.1336 -0.1046  0.2620
  549THF     H612150   3.888   5.460   2.120  0.9561 -0.3367  2.3750
  549THF     H712151   3.795   5.555   2.238  0.9662  0.0865  0.7523
  549THF     C812152   3.983   5.656   2.158 -0.1323 -0.7395 -0.0828
  549THF     C912153   4.111   5.637   2.233  0.2575  1.1341 -0.1971
  549THF    H1012154   3.941   5.760   2.168 -0.2907  2.4934  0.5616
  549THF    H1112155   3.991   5.637   2.053  3.6264  0.8703 -3.4143
  549THF    H1212156   4.173   5.577   2.164  0.4360  0.1397  1.3553
  549THF    H1312157   4.155   5.735   2.262 -1.5387  3.6260  0.3476
  550THF     O112158   0.528   5.357   0.761 -0.7591 -0.4457 -0.5664
  550THF     C212159   0.523   5.220   0.804 -0.0226 -0.0471  0.1140
  550THF     C312160   0.457   5.442   0.851 -0.2421  0.4577 -0.8544
  550THF     H412161   0.623   5.175   0.788  1.7687  1.8235  1.7035
  550THF     H512162   0.442   5.175   0.740  0.9675 -3.0735 -0.5870
  550THF     H612163   0.521   5.530   0.878 -0.8081 -1.7364  0.7791
  550THF     H712164   0.375   5.481   0.797  0.4365  1.9467 -2.0424
  550THF     C812165   0.421   5.355   0.975 -0.4759  0.2192  0.2577
  550THF     C912166   0.495   5.226   0.955  0.1484 -0.3143  0.4450
  550THF    H1012167   0.317   5.329   0.976  0.5822  1.8492 -1.0170
  550THF    H1112168   0.444   5.409   1.065  1.3478 -2.8925 -1.4522
  550THF    H1212169   0.589   5.217   1.000  0.0571 -0.4643  2.5550
  550THF    H1312170   0.439   5.143   0.984 -1.6139  2.0808  0.4412
  551THF     O112171   5.020   2.717   3.349 -0.0832 -0.5105  0.0754
  551THF     C212172   5.065   2.593   3.295  0.5661 -0.4221 -0.2553
  551THF     C312173   4.883   2.711   3.402 -0.0458  0.1598  0.3242
  551THF     H412174   5.173   2.579   3.303 -0.0020 -2.8114  0.8627
  551THF     H512175   5.038   2.585   3.189 -1.8274  0.3002  0.8804
  551THF     H612176   4.872   2.750   3.498 -2.6132  1.7690 -0.6090
  551THF     H712177   4.821   2.775   3.341  1.2698 -1.8026 -4.0142
  551THF     C812178   4.853   2.560   3.389 -0.0707  0.2332  0.6278
  551THF     C912179   4.987   2.498   3.384  0.4094  0.3381 -0.8989
  551THF    H1012180   4.808   2.537   3.295  1.1185 -1.3857  1.7971
  551THF    H1112181   4.793   2.536   3.475  1.7149  0.4364 -3.0658
  551THF    H1212182   5.034   2.480   3.476 -1.0687  0.8958 -0.5296
  551THF    H1312183   4.979   2.401   3.338  0.5361  0.7792  1.2019
  552THF     O112184   3.995   0.280   5.028  0.1859  0.3353 -0.5794
  552THF     C212185   4.060   0.253   4.906 -0.4451  0.1333  0.0712
  552THF     C312186   4.049   0.399   5.083  0.5527  0.2697  0.7488
  552THF     H412187   3.982   0.235   4.837  0.8829  0.9039  4.2729
  552THF     H512188   4.096   0.157   4.925  1.5601  0.4726  0.7066
  552THF     H612189   3.999   0.485   5.050 -0.7275 -0.2652 -0.8857
  552THF     H712190   4.034   0.396   5.194  2.2725  1.5646  0.3903
  552THF     C812191   4.191   0.403   5.027  0.0999  0.0825 -0.3312
  552THF     C912192   4.171   0.354   4.885  0.0272 -0.2710  0.2704
  552THF    H1012193   4.255   0.330   5.083 -1.1873 -0.9678  1.3649
  552THF    H1112194   4.226   0.504   5.032 -1.4174 -1.3667 -1.2298
  552THF    H1212195   4.121   0.428   4.825 -3.1250  0.6733 -0.0817
  552THF    H1312196   4.253   0.324   4.816  0.4142  0.5410 -0.0915
  553THF     O112197   0.742   0.552   3.265 -0.1208 -0.3345  0.4331
  553THF     C212198   0.616   0.580   3.216  0.3175 -0.0981 -0.1733
  553THF     C312199   0.828   0.666   3.254 -1.0948  0.1473 -0.2483
  553THF     H412200   0.529   0.529   3.257  0.9875 -0.3076  0.0270
  553THF     H512201   0.613   0.555   3.108  1.4009  0.9720 -1.3399
  553THF     H612202   0.908   0.660   3.328 -1.2649 -0.8144  0.7894
  553THF     H712203   0.873   0.676   3.158  0.5134  0.8626  3.1524
  553THF     C812204   0.734   0.779   3.297 -0.8616 -0.4255 -0.3788
  553THF     C912205   0.599   0.732   3.242 -0.4848 -0.0114  0.1489
  553THF    H1012206   0.766   0.876   3.254 -1.3289  1.7264  0.0231
  553THF    H1112207   0.731   0.783   3.401 -0.3314  1.6183 -1.1843
  553THF    H1212208   0.511   0.758   3.309 -0.0981  0.8246 -1.1158
  553THF    H1312209   0.564   0.780   3.148 -1.8099  2.7334 -2.1860
  554THF     O112210   2.257   4.895   3.958  0.1446 -0.3278  0.1508
  554THF     C212211   2.172   4.857   3.853 -0.0863  0.1240 -0.1583
  554THF     C312212   2.366   4.968   3.899  0.0030 -0.3833 -0.0194
  554THF     H412213   2.076   4.822   3.890 -2.3443 -1.0464 -1.4997
  554THF     H512214   2.209   4.766   3.797 -0.1573 -3.3737 -2.6470
  554THF     H612215   2.406   5.055   3.959 -0.1996  2.0756  1.3334
  554THF     H712216   2.449   4.898   3.873 -1.4584 -1.4698  0.7691
  554THF     C812217   2.313   5.033   3.775  0.6028 -0.5196 -0.1590
  554THF     C912218   2.168   4.977   3.764 -0.8715 -0.8793  0.0471
  554THF    H1012219   2.378   4.998   3.690  1.0955 -1.3601 -1.2784
  554THF    H1112220   2.328   5.139   3.785  1.8938 -1.5084  1.1133
  554THF    H1212221   2.089   5.045   3.791 -0.8671  1.0572  1.9621
  554THF    H1312222   2.145   4.949   3.659  2.6638 -0.9545 -2.1753
  555THF     O112223   4.066   3.523   1.825  0.5991 -0.1965 -0.2756
  555THF     C212224   4.093   3.421   1.929 -0.0581 -0.1296 -0.3778
  555THF     C312225   4.000   3.638   1.884  0.1916  0.3761  0.0202
  555THF     H412226   4.182   3.437   1.979 -0.3148  0.8530 -1.4314
  555THF     H512227   4.095   3.318   1.890  1.5752 -1.1908  0.6238
  555THF     H612228   4.071   3.718   1.916  1.0878  0.9726 -1.2779
  555THF     H712229   3.935   3.685   1.811  2.0764  2.0520 -0.6893
  555THF     C812230   3.923   3.591   2.005  0.0691 -0.2534  0.1829
  555THF     C912231   3.963   3.444   2.007 -0.1369  0.7338 -0.2406
  555THF    H1012232   3.819   3.577   1.990  1.4313 -1.0189  0.4738
  555THF    H1112233   3.925   3.652   2.099  0.3770  2.1579  0.2034
  555THF    H1212234   3.960   3.390   2.102 -0.7078  2.0184 -1.6485
  555THF    H1312235   3.887   3.387   1.955 -0.5170 -1.5756 -0.7953
  556THF     O112236   4.324   0.847   2.525  0.2303  0.4219 -0.0807
  556THF     C212237   4.336   0.938   2.416  0.2247 -0.2791  0.2012
  556THF     C312238   4.454   0.836   2.580 -0.1311 -0.3235 -0.7003
  556THF     H412239   4.234   0.981   2.397 -1.1919 -4.1760 -2.1809
  556THF     H512240   4.361   0.883   2.323  2.8704  2.3078  1.3356
  556THF     H612241   4.447   0.825   2.690 -0.2469 -0.8145 -0.2884
  556THF     H712242   4.510   0.751   2.542  1.7606  1.0699  0.3560
  556THF     C812243   4.531   0.954   2.534 -0.3263 -0.7141 -0.1369
  556THF     C912244   4.429   1.041   2.456 -0.2937 -0.0420 -0.4056
  556THF    H1012245   4.615   0.927   2.475 -0.6579 -0.7019  3.6758
  556THF    H1112246   4.561   1.013   2.618  0.6280 -0.0363 -2.8805
  556THF    H1212247   4.391   1.121   2.519 -1.1589 -1.2296 -0.3889
  556THF    H1312248   4.464   1.094   2.366 -2.1451  2.1561  1.6376
  557THF     O112249   3.118   3.671   4.567  0.1497 -0.3533  0.0813
  557THF     C212250   3.050   3.777   4.630  0.0887 -0.6665 -0.2172
  557THF     C312251   3.145   3.576   4.666  0.1803  0.0592 -0.1031
  557THF     H412252   2.939   3.780   4.628 -1.4682 -1.5794  1.5801
  557THF     H512253   3.076   3.869   4.583  1.0991 -0.5112  2.8343
  557THF     H612254   3.055   3.529   4.702 -1.3345  0.8886 -0.6251
  557THF     H712255   3.217   3.506   4.633 -1.6493  0.7301  0.8150
  557THF     C812256   3.203   3.666   4.777 -0.5749 -0.6310  0.1329
  557THF     C912257   3.092   3.779   4.778 -0.4364 -0.2182  0.1214
  557THF    H1012258   3.300   3.704   4.744  0.5078  0.0027  0.2779
  557THF    H1112259   3.232   3.620   4.869 -0.2498  1.1162 -2.2157
  557THF    H1212260   3.017   3.752   4.850  1.7839 -0.5229 -0.5759
  557THF    H1312261   3.147   3.873   4.800  2.2574 -1.4517  0.6964
  558THF     O112262   0.729   4.947   0.355 -0.7419  0.0638 -0.5815
  558THF     C212263   0.687   5.005   0.480  0.8020  0.9370  0.1857
  558THF     C312264   0.796   4.823   0.378  0.2294  0.7032 -0.2000
  558THF     H412265   0.576   4.998   0.477 -0.6641 -2.3024 -1.1694
  558THF     H512266   0.703   5.103   0.500 -0.7063  3.3074 -0.0232
  558THF     H612267   0.731   4.739   0.373  1.4664  2.9259 -1.7891
  558THF     H712268   0.878   4.806   0.314  2.1769  0.0613  0.8151
  558THF     C812269   0.851   4.837   0.513 -0.1835  0.0938  0.8925
  558THF     C912270   0.739   4.909   0.587  0.2725 -0.5570 -0.6739
  558THF    H1012271   0.935   4.906   0.519  2.8901  0.1082 -0.3074
  558THF    H1112272   0.884   4.752   0.561 -0.0341  0.5127  3.2449
  558THF    H1212273   0.668   4.840   0.617 -0.2179  0.3173 -1.8464
  558THF    H1312274   0.787   4.960   0.668  0.5251 -1.7904 -2.3594
  559THF     O112275   4.746   3.156   3.085 -0.1027  0.2478  0.5822
  559THF     C212276   4.617   3.217   3.109 -0.6497  0.4036  0.2680
  559THF     C312277   4.754   3.038   3.171 -0.0656 -0.4697 -0.3191
  559THF     H412278   4.586   3.269   3.017 -3.5522 -0.8982 -1.2239
  559THF     H512279   4.630   3.286   3.190  3.3969 -0.1907  0.0968
  559THF     H612280   4.825   2.958   3.150 -2.7560 -1.4546  3.5388
  559THF     H712281   4.749   3.060   3.277  3.2063 -3.9073 -1.0010
  559THF     C812282   4.616   2.982   3.139  0.3629  0.1824  0.6497
  559THF     C912283   4.525   3.101   3.140 -0.1527  1.0810  0.4138
  559THF    H1012284   4.590   2.901   3.203  2.0737 -2.0786  0.7002
  559THF    H1112285   4.631   2.933   3.040  3.2359 -1.8629 -1.6748
  559THF    H1212286   4.445   3.100   3.065  0.2601  0.2195 -3.4350
  559THF    H1312287   4.478   3.090   3.236  0.3333 -2.4994 -0.9445
  560THF     O112288   2.053   4.695   2.544  0.2089 -0.2909 -0.3237
  560THF     C212289   2.187   4.677   2.494 -0.5864  0.0053 -0.2112
  560THF     C312290   1.970   4.727   2.432 -0.6328 -0.1516  0.8550
  560THF     H412291   2.213   4.577   2.533 -1.2527 -1.8204 -1.5334
  560THF     H512292   2.257   4.747   2.537 -3.6609  1.9764 -3.2541
  560THF     H612293   1.867   4.689   2.451  2.5089  1.1290  0.4316
  560THF     H712294   1.955   4.834   2.420 -0.4457 -1.4517  0.0210
  560THF     C812295   2.034   4.664   2.313  0.2941  0.4467  0.5105
  560THF     C912296   2.189   4.682   2.339 -0.4277  0.4433 -0.4143
  560THF    H1012297   1.993   4.715   2.224 -1.7881 -1.2564  2.0462
  560THF    H1112298   2.011   4.554   2.315  0.8526  0.3323 -0.9051
  560THF    H1212299   2.240   4.601   2.284  1.3673  0.8462 -4.4503
  560THF    H1312300   2.230   4.777   2.292  0.7753  2.6341 -1.3276
  561THF     O112301   1.726   2.563   2.374 -0.1779 -0.3849 -0.2236
  561THF     C212302   1.601   2.495   2.377 -0.3588  0.4083 -0.5366
  561THF     C312303   1.823   2.472   2.323  0.2614  0.6705  0.1132
  561THF     H412304   1.516   2.563   2.400 -0.6097  0.2339  0.4529
  561THF     H512305   1.595   2.402   2.437 -0.3965 -1.4372 -0.0459
  561THF     H612306   1.928   2.517   2.304  0.1579  0.1542 -0.8788
  561THF     H712307   1.843   2.401   2.397 -4.4404 -0.4863  0.5483
  561THF     C812308   1.746   2.404   2.211  0.0676  0.4664 -0.9460
  561THF     C912309   1.600   2.440   2.235  0.0561 -0.6865  0.3175
  561THF    H1012310   1.769   2.293   2.211 -0.3545  2.9716  0.2282
  561THF    H1112311   1.764   2.445   2.107 -3.7280  2.3429 -2.0896
  561THF    H1212312   1.575   2.523   2.159 -1.0845  0.5841  0.8119
  561THF    H1312313   1.534   2.355   2.220 -1.9585  0.1297  1.1287
  562THF     O112314   5.292   0.763   5.356  0.3658  0.0914  0.2998
  562THF     C212315   5.265   0.695   5.477 -0.1191  0.2316 -0.4045
  562THF     C312316   5.166   0.819   5.310  0.6574  0.7351  0.3963
  562THF     H412317   5.356   0.701   5.536 -3.2595 -2.7182  0.7202
  562THF     H512318   5.235   0.587   5.466 -1.1380 -2.3359 -1.1475
  562THF     H612319   5.175   0.904   5.248  0.5112  2.2387 -2.5960
  562THF     H712320   5.112   0.741   5.249 -1.2738 -1.7170  1.7270
  562THF     C812321   5.092   0.853   5.436 -0.0471 -0.6618  0.2192
  562THF     C912322   5.152   0.769   5.546 -0.7283  0.8217  0.7418
  562THF    H1012323   4.987   0.829   5.440 -1.7916 -2.5182 -1.4163
  562THF    H1112324   5.118   0.955   5.466 -0.6415 -0.0163  0.3716
  562THF    H1212325   5.200   0.827   5.622  1.5221 -0.6093  1.1341
  562THF    H1312326   5.082   0.696   5.590  0.0345  3.0757 -1.0726
  563THF     O112327   2.770   3.668   3.453 -0.3969  0.6095 -0.0305
  563THF     C212328   2.893   3.597   3.477 -0.2539 -0.0867  0.1912
  563THF     C312329   2.802   3.806   3.437 -0.2583 -0.3155 -0.1769
  563THF     H412330   2.951   3.602   3.382 -0.6475  0.8547 -0.0089
  563THF     H512331   2.884   3.499   3.516 -3.1439  0.4256  0.4594
  563THF     H612332   2.833   3.818   3.336 -1.7728 -1.9683  1.4405
  563THF     H712333   2.724   3.875   3.465 -1.1270  0.1258 -0.8259
  563THF     C812334   2.932   3.829   3.531  0.5557 -0.7080 -0.0296
  563THF     C912335   2.971   3.687   3.566  0.2585  1.0080 -0.3292
  563THF    H1012336   2.913   3.872   3.628  0.3643  0.5254 -0.5011
  563THF    H1112337   3.013   3.874   3.475  0.0534 -2.7953 -2.7285
  563THF    H1212338   3.076   3.661   3.556 -2.7360 -1.2283  1.0637
  563THF    H1312339   2.946   3.660   3.667  2.0893  0.3811 -0.7619
  564THF     O112340   0.714   1.524   2.520  0.2473 -0.4630 -0.0836
  564THF     C212341   0.738   1.580   2.386 -0.1233  0.9894 -0.0756
  564THF     C312342   0.805   1.417   2.537 -0.5881  0.2021 -0.4990
  564THF     H412343   0.825   1.649   2.389  2.6514  3.1379 -0.4868
  564THF     H512344   0.658   1.648   2.350  1.0180 -0.2128  2.4405
  564THF     H612345   0.905   1.460   2.576  1.5334  1.1708  1.5376
  564THF     H712346   0.758   1.342   2.603  4.8706  0.9194  1.6028
  564THF     C812347   0.818   1.353   2.397  0.5929  0.6932 -0.0049
  564THF     C912348   0.770   1.461   2.300 -0.0259 -0.2382  0.3151
  564THF    H1012349   0.761   1.264   2.399 -2.5940  0.2040  2.7830
  564THF    H1112350   0.914   1.313   2.376 -1.7470 -1.5130 -1.1736
  564THF    H1212351   0.854   1.492   2.229 -0.7017  0.3190  1.0238
  564THF    H1312352   0.674   1.437   2.249  2.7375 -1.8075 -1.5431
  565THF     O112353   1.593   2.919   3.895  0.3935 -0.1925 -0.2574
  565THF     C212354   1.468   2.952   3.838  0.1205 -0.1292  0.2280
  565THF     C312355   1.582   2.783   3.928 -0.2344  0.2187  0.2206
  565THF     H412356   1.476   3.046   3.775 -2.7982 -0.4244 -0.1267
  565THF     H512357   1.402   2.969   3.924  0.6312 -1.1035  0.4193
  565THF     H612358   1.678   2.746   3.956  0.4285  2.4551  0.9141
  565THF     H712359   1.507   2.749   4.003  0.7811 -1.6041  1.0178
  565THF     C812360   1.542   2.729   3.792  0.1894 -0.7772 -0.8191
  565THF     C912361   1.441   2.830   3.746  0.5316 -0.2209 -0.1782
  565THF    H1012362   1.504   2.630   3.777 -1.8179 -0.8785 -0.0667
  565THF    H1112363   1.631   2.730   3.736 -0.8646 -1.8762  0.4056
  565THF    H1212364   1.476   2.846   3.645  0.1463  1.2798  2.7954
  565THF    H1312365   1.338   2.807   3.754 -0.9703  1.3759 -1.6885
  566THF     O112366   5.099   2.818   4.253 -0.0789 -0.0130 -0.3997
  566THF     C212367   5.166   2.867   4.136 -0.3715  0.9036 -0.5933
  566THF     C312368   5.178   2.696   4.291 -0.4836 -0.1815  0.1936
  566THF     H412369   5.151   2.972   4.123 -1.2300  0.5248  2.1559
  566THF     H512370   5.136   2.822   4.045 -1.3653  0.0914 -0.1608
  566THF     H612371   5.153   2.662   4.392 -1.7165  0.5889  1.9041
  566THF     H712372   5.156   2.607   4.236 -1.5604 -0.7466  0.9690
  566THF     C812373   5.318   2.727   4.268 -0.6119 -0.3422  0.0038
  566THF     C912374   5.326   2.833   4.156  0.1604 -0.3866 -0.4246
  566THF    H1012375   5.385   2.645   4.254 -3.5269 -0.9278  0.7486
  566THF    H1112376   5.354   2.778   4.359  0.4761  0.5042  0.3550
  566THF    H1212377   5.382   2.918   4.189 -2.2077 -3.1677  1.3442
  566THF    H1312378   5.374   2.798   4.061 -0.1987 -1.4953 -0.2177
  567THF     O112379   1.456   2.771   3.376 -0.3791 -0.3355 -0.1593
  567THF     C212380   1.575   2.721   3.320  0.1896  0.1458 -0.1809
  567THF     C312381   1.366   2.668   3.408  0.7410  0.2205 -0.1171
  567THF     H412382   1.658   2.788   3.336  0.4959  1.7623 -0.5559
  567THF     H512383   1.561   2.713   3.211 -2.7501  1.6954 -0.0102
  567THF     H612384   1.310   2.695   3.500  0.2743  0.4297 -0.1166
  567THF     H712385   1.298   2.664   3.323 -2.1182 -0.9510 -2.0456
  567THF     C812386   1.456   2.554   3.444 -0.2311  0.1974 -0.0677
  567THF     C912387   1.600   2.592   3.393 -0.5908  1.3382 -0.2720
  567THF    H1012388   1.421   2.448   3.420  2.6757 -5.9678 -0.8096
  567THF    H1112389   1.469   2.552   3.554  1.6716 -1.4474 -1.6113
  567THF    H1212390   1.677   2.618   3.465 -0.4175 -1.8186 -1.3486
  567THF    H1312391   1.652   2.520   3.333  0.1920  0.2419  0.4990
  568THF     O112392   2.344   1.116   5.041 -0.0135  0.0319  0.4952
  568THF     C212393   2.303   1.247   5.021 -0.5583  0.9919  0.5914
  568THF     C312394   2.225   1.056   5.079 -0.0594  0.8721 -0.0564
  568THF     H412395   2.233   1.267   4.940  0.7804  0.0909 -2.2604
  568THF     H512396   2.390   1.311   5.008 -1.5590 -1.0123 -0.1035
  568THF     H612397   2.140   1.043   5.010 -1.0752  0.1609  1.6276
  568THF     H712398   2.253   0.956   5.117  0.6449  2.3383 -0.0323
  568THF     C812399   2.168   1.148   5.187  0.3118 -0.7734 -0.3395
  568THF     C912400   2.241   1.272   5.155 -1.0887 -0.1789  0.1251
  568THF    H1012401   2.187   1.121   5.289  3.0958 -1.4779  0.7833
  568THF    H1112402   2.062   1.151   5.177  1.3863  0.0070  3.0764
  568THF    H1212403   2.178   1.359   5.163  1.9039  0.7103 -2.0981
  568THF    H1312404   2.316   1.279   5.236  0.9791  0.6544  0.2770
  569THF     O112405   0.336   0.953   2.731 -0.2689 -0.3935  0.3814
  569THF     C212406   0.469   0.903   2.750 -0.5241  0.1464  0.0860
  569THF     C312407   0.275   0.992   2.852  0.8937  0.2478 -0.0258
  569THF     H412408   0.547   0.932   2.672 -1.0221 -0.1331  0.9404
  569THF     H512409   0.471   0.798   2.750 -1.8282  0.0903 -1.3734
  569THF     H612410   0.278   1.100   2.849  0.7417 -1.2078 -0.4378
  569THF     H712411   0.169   0.965   2.860 -0.9802 -0.8834 -2.9240
  569THF     C812412   0.370   0.939   2.956 -0.3595 -0.2989 -0.1268
  569THF     C912413   0.504   0.945   2.887  0.5256 -0.2179 -0.2517
  569THF    H1012414   0.359   0.832   2.978 -1.2019 -0.9392 -0.2101
  569THF    H1112415   0.356   0.997   3.051 -1.7390  1.4773 -1.3592
  569THF    H1212416   0.553   1.046   2.886  3.1478 -1.0767  2.7805
  569THF    H1312417   0.571   0.869   2.929 -0.0368  0.3751 -0.4515
  570THF     O112418   2.084   4.219   3.518  0.2431  0.0874  0.0898
  570THF     C212419   1.984   4.175   3.600 -0.1169  0.6404 -0.8088
  570THF     C312420   2.027   4.251   3.392  0.0919  0.7051 -0.3814
  570THF     H412421   2.018   4.149   3.701 -0.7699 -2.3968  1.6967
  570THF     H512422   1.956   4.078   3.574 -0.1431 -1.0506  0.3034
  570THF     H612423   2.090   4.312   3.325  0.5935 -0.5374 -1.2612
  570THF     H712424   2.015   4.158   3.344  1.6381 -0.7771  0.2239
  570THF     C812425   1.894   4.319   3.430  0.0042  0.7878 -0.2273
  570THF     C912426   1.874   4.282   3.586 -0.9352  0.6202  0.0500
  570THF    H1012427   1.822   4.265   3.369  0.9722 -0.6835  2.3647
  570THF    H1112428   1.885   4.422   3.415  1.6670  1.2721  0.2875
  570THF    H1212429   1.907   4.370   3.634  1.9480  0.8284 -0.3400
  570THF    H1312430   1.779   4.248   3.616 -0.6423  1.0310  0.5160
  571THF     O112431   5.024   5.199   0.787  0.0310  0.5692  0.1604
  571THF     C212432   4.942   5.245   0.676 -0.0451  0.0808 -0.2401
  571THF     C312433   5.073   5.069   0.757 -0.4124  0.3594  0.0817
  571THF     H412434   4.999   5.301   0.604 -0.6023 -0.6799  1.2599
  571THF     H512435   4.863   5.309   0.713  0.1090  0.1248  0.0767
  571THF     H612436   5.181   5.063   0.748 -0.6464  0.0042  2.0794
  571THF     H712437   5.039   5.004   0.835 -1.0382 -2.0364 -1.8846
  571THF     C812438   5.002   5.022   0.632 -0.5100 -0.4767  0.4755
  571THF     C912439   4.885   5.113   0.623 -0.0648 -0.6825 -0.1377
  571THF    H1012440   4.969   4.918   0.643 -0.9013  1.1306  1.7098
  571THF    H1112441   5.073   5.022   0.549  1.1778 -3.4218  0.0411
  571THF    H1212442   4.853   5.124   0.520 -0.0646 -2.3604 -1.5430
  571THF    H1312443   4.797   5.080   0.688 -2.6950  1.2029  0.7782
  572THF     O112444   5.250   4.695   2.967  0.1808 -0.0034 -0.6805
  572THF     C212445   5.123   4.746   3.002  0.3132  0.5168 -0.6234
  572THF     C312446   5.257   4.673   2.831 -0.2447  0.6172 -0.2772
  572THF     H412447   5.124   4.851   2.998  0.7085 -0.3312  0.3444
  572THF     H512448   5.106   4.719   3.104  2.0668  2.4477  0.6534
  572THF     H612449   5.264   4.767   2.779  1.3045 -1.8414  1.6987
  572THF     H712450   5.332   4.607   2.807  0.2991 -2.8818  1.2290
  572THF     C812451   5.116   4.628   2.796 -0.2215 -0.5382 -0.0172
  572THF     C912452   5.022   4.696   2.902 -0.4436 -0.2938  0.1157
  572THF    H1012453   5.118   4.518   2.832  0.4088 -0.9219 -0.5980
  572THF    H1112454   5.071   4.641   2.695 -2.9526  0.0050 -0.9700
  572THF    H1212455   4.968   4.778   2.849  0.5837  0.1783  1.0359
  572THF    H1312456   4.951   4.631   2.951 -1.8729  0.0065  1.4598
  573THF     O112457   4.400   1.831   0.230  0.4321 -0.2695  1.0534
  573THF     C212458   4.331   1.956   0.208 -0.8238 -0.5655 -0.4904
  573THF     C312459   4.428   1.828   0.370  0.8008 -0.5831 -0.4147
  573THF     H412460   4.302   1.955   0.104  0.0086 -2.9193  1.2921
  573THF     H512461   4.403   2.043   0.221  1.2099  1.3902 -2.8018
  573THF     H612462   4.458   1.725   0.405 -2.3716 -1.3098  1.6411
  573THF     H712463   4.521   1.886   0.387 -0.1676  0.5233 -0.1545
  573THF     C812464   4.298   1.887   0.428 -0.0652  0.5204 -0.0691
  573THF     C912465   4.223   1.954   0.311 -0.1219 -0.2525 -0.9499
  573THF    H1012466   4.313   1.963   0.518 -1.8992 -1.8193  0.9985
  573THF    H1112467   4.248   1.796   0.460  0.0609 -1.3164  0.5666
  573THF    H1212468   4.130   1.895   0.281 -0.4550 -0.0347 -0.1718
  573THF    H1312469   4.190   2.057   0.322  0.0596  1.2670  1.0808
  574THF     O112470   2.732   1.065   1.535 -0.4241 -0.0686 -0.6033
  574THF     C212471   2.718   0.961   1.440 -0.5127 -1.0260  0.2157
  574THF     C312472   2.809   1.030   1.645 -0.7270 -0.3411  0.2691
  574THF     H412473   2.782   0.985   1.352  0.2200  1.9013 -2.9402
  574THF     H512474   2.619   0.943   1.401 -1.7736 -1.5317 -1.8146
  574THF     H612475   2.868   1.125   1.657  0.2962  1.8010  0.6424
  574THF     H712476   2.744   1.010   1.726 -1.8431 -2.3272 -4.7477
  574THF     C812477   2.884   0.912   1.589  0.1305  1.0992 -0.1297
  574THF     C912478   2.770   0.838   1.519  0.1182 -0.4208  0.7879
  574THF    H1012479   2.928   0.846   1.665  0.0416 -1.5638 -0.3369
  574THF    H1112480   2.970   0.941   1.527 -0.9713  1.8103 -0.1908
  574THF    H1212481   2.813   0.762   1.448  0.9450  1.7022 -1.7876
  574THF    H1312482   2.693   0.791   1.579  0.0364 -2.7591 -1.0725
  575THF     O112483   4.576   1.271   2.759  0.0543 -0.1662 -0.4505
  575THF     C212484   4.712   1.251   2.707 -0.6710  0.7674  0.2988
  575THF     C312485   4.542   1.407   2.741 -0.1739  0.8827 -0.9810
  575THF     H412486   4.727   1.172   2.632  2.5737  0.2475  0.8808
  575THF     H512487   4.784   1.239   2.783 -0.8352  0.9775  0.5912
  575THF     H612488   4.461   1.427   2.673 -1.5494  4.7069  3.2038
  575THF     H712489   4.515   1.459   2.836 -0.3599  3.2435  0.3151
  575THF     C812490   4.663   1.485   2.683 -0.1227 -0.4056  0.2601
  575THF     C912491   4.743   1.377   2.614 -0.1590 -0.2976 -0.3973
  575THF    H1012492   4.717   1.519   2.765 -1.0895 -0.0445  3.4704
  575THF    H1112493   4.640   1.569   2.618 -2.3594  1.6737 -0.8670
  575THF    H1212494   4.701   1.361   2.518 -0.4480 -0.7197  0.2214
  575THF    H1312495   4.849   1.401   2.603 -0.5033 -2.7059 -1.9570
  576THF     O112496   2.122   1.192   2.667 -0.1119 -0.4667  0.3026
  576THF     C212497   2.037   1.264   2.576  0.1717 -0.4387 -0.1954
  576THF     C312498   2.225   1.141   2.591  0.8686 -0.0890  0.0637
  576THF     H412499   2.031   1.366   2.618  0.4030  0.7967 -0.3247
  576THF     H512500   1.937   1.219   2.558  0.5360  2.4457 -1.4152
  576THF     H612501   2.311   1.124   2.660  0.1360 -2.8244  1.3938
  576THF     H712502   2.191   1.043   2.553  1.4818 -0.1579  0.0943
  576THF     C812503   2.248   1.228   2.472 -0.5122 -0.1282 -0.0977
  576THF     C912504   2.110   1.272   2.441  0.5132  0.2421 -0.5225
  576THF    H1012505   2.284   1.173   2.379 -1.2797 -2.9679 -1.7638
  576THF    H1112506   2.314   1.310   2.488 -0.7244  2.0842 -0.6975
  576THF    H1212507   2.107   1.376   2.398 -1.3403 -0.3508 -0.9432
  576THF    H1312508   2.057   1.198   2.372  2.3904 -2.4428  0.7561
  577THF     O112509   0.860   1.560   4.013  0.3034  0.1531  0.0532
  577THF     C212510   0.819   1.616   4.142  0.0362 -0.2858  0.0916
  577THF     C312511   0.878   1.419   4.020 -0.4336 -0.2887  0.3764
  577THF     H412512   0.719   1.659   4.127 -1.4700 -1.3077  1.0287
  577THF     H512513   0.889   1.693   4.173  2.4367 -1.7403 -1.6819
  577THF     H612514   0.781   1.364   4.012  1.7424 -1.2092 -2.3181
  577THF     H712515   0.948   1.373   3.944  0.9839 -0.4521  1.9670
  577THF     C812516   0.928   1.400   4.162 -0.5172 -0.2673  0.0911
  577THF     C912517   0.830   1.489   4.235  0.2122 -0.4227 -0.1503
  577THF    H1012518   1.030   1.433   4.187 -0.6798  0.6910  0.3882
  577THF    H1112519   0.920   1.305   4.205 -1.1298 -0.2073 -0.6721
  577THF    H1212520   0.733   1.432   4.250 -2.3032 -0.6186 -1.4305
  577THF    H1312521   0.878   1.522   4.326 -0.7202  0.2736 -1.0361
  578THF     O112522   0.589   1.793   3.674 -0.2009  0.0765  0.0814
  578THF     C212523   0.478   1.701   3.699 -0.4643  0.1719 -0.0455
  578THF     C312524   0.645   1.834   3.794 -0.4509 -0.2969 -0.0102
  578THF     H412525   0.489   1.591   3.676  0.7430 -2.5315 -1.3763
  578THF     H512526   0.397   1.733   3.639  0.8553  2.1822 -1.1875
  578THF     H612527   0.751   1.808   3.799  0.7752  1.3817 -0.2631
  578THF     H712528   0.627   1.938   3.816 -1.2078 -1.6813  0.7072
  578THF     C812529   0.568   1.767   3.909 -0.3876  0.7559 -0.0416
  578THF     C912530   0.440   1.720   3.849 -0.1676 -0.0566 -0.1568
  578THF    H1012531   0.565   1.827   4.001 -0.5396 -3.9158  0.8099
  578THF    H1112532   0.636   1.684   3.928  0.6417  0.3027  3.6995
  578THF    H1212533   0.404   1.630   3.894  3.7538 -2.6151 -1.6253
  578THF    H1312534   0.367   1.798   3.864 -1.8208 -2.0874 -4.0831
  579THF     O112535   1.030   2.369   1.379 -0.5762  0.0179  0.2180
  579THF     C212536   0.994   2.237   1.420 -0.8968  0.2309  0.3125
  579THF     C312537   0.909   2.445   1.361 -0.1728  0.1945  0.0960
  579THF     H412538   1.069   2.188   1.473 -0.0554 -1.2580 -1.5953
  579THF     H512539   0.979   2.171   1.338  0.1487  0.4570  2.4375
  579THF     H612540   0.919   2.552   1.361 -0.6860  3.3862 -3.2247
  579THF     H712541   0.874   2.421   1.261 -1.2464 -1.9474 -1.4601
  579THF     C812542   0.812   2.388   1.462  0.1184 -0.8512  0.2298
  579THF     C912543   0.868   2.254   1.505 -0.6296  0.5575 -0.4096
  579THF    H1012544   0.716   2.375   1.418  1.9629  0.2717 -0.8636
  579THF    H1112545   0.794   2.445   1.558 -0.0149 -1.0651  1.6798
  579THF    H1212546   0.885   2.263   1.615  0.0387 -3.5297  0.1757
  579THF    H1312547   0.788   2.180   1.505 -1.3416  2.8036 -3.0502
  580THF     O112548   4.522   3.295   5.142 -0.1327 -0.2847  0.0523
  580THF     C212549   4.556   3.431   5.132 -0.3785 -0.1036  0.3929
  580THF     C312550   4.473   3.285   5.274 -0.6729 -0.3131 -0.6615
  580THF     H412551   4.462   3.463   5.100  1.4369  0.5151  0.0338
  580THF     H512552   4.626   3.455   5.051  1.6635 -0.1565  0.4970
  580THF     H612553   4.374   3.248   5.255  0.1528 -2.3796 -1.5995
  580THF     H712554   4.534   3.199   5.304  1.2416  1.4856  2.6492
  580THF     C812555   4.491   3.419   5.347 -0.3622  0.1373 -0.1231
  580THF     C912556   4.594   3.492   5.265 -0.5807 -0.1001  0.4816
  580THF    H1012557   4.518   3.410   5.449 -0.6640  1.4895 -2.0521
  580THF    H1112558   4.400   3.484   5.351  1.7265 -0.4968  0.1739
  580THF    H1212559   4.586   3.605   5.264  1.1869  0.2386 -2.7144
  580THF    H1312560   4.693   3.443   5.291  1.5599 -2.2855  0.2036
  581THF     O112561   4.778   0.807   4.624 -0.0121 -0.5511  0.1276
  581THF     C212562   4.859   0.922   4.620  0.0579  0.5119 -0.4077
  581THF     C312563   4.806   0.737   4.505 -0.5314  0.1349 -0.2850
  581THF     H412564   4.853   0.977   4.718 -1.3707 -0.5626  2.6151
  581THF     H512565   4.824   0.996   4.550 -3.3724  0.5045 -2.3357
  581THF     H612566   4.764   0.636   4.500  0.8620 -1.9786 -1.2060
  581THF     H712567   4.763   0.790   4.418 -1.7100 -0.3088 -1.4019
  581THF     C812568   4.958   0.744   4.491 -0.0680 -0.6550 -0.0571
  581THF     C912569   4.991   0.861   4.590 -0.1072 -0.2979  0.0407
  581THF    H1012570   4.998   0.759   4.388 -0.4319 -1.9145  0.7802
  581THF    H1112571   5.012   0.664   4.544  0.3264 -2.1422 -1.8166
  581THF    H1212572   5.042   0.827   4.678  1.4031  2.7990 -1.9255
  581THF    H1312573   5.061   0.932   4.548 -3.1465 -2.5290 -0.9017
  582THF     O112574   0.514   2.823   1.700 -0.6430 -0.6605  0.3354
  582THF     C212575   0.493   2.725   1.592  1.0523  0.0496  0.5691
  582THF     C312576   0.589   2.931   1.653  0.5705  0.4935  0.2350
  582THF     H412577   0.403   2.758   1.532 -2.9428 -0.0842  0.9963
  582THF     H512578   0.477   2.632   1.635  3.6646 -0.9935  3.4341
  582THF     H612579   0.521   3.009   1.620  0.2988 -1.6833  1.9187
  582THF     H712580   0.652   2.956   1.738  2.2795 -2.1949 -1.5482
  582THF     C812581   0.673   2.875   1.541  0.8839  0.1446 -0.2445
  582THF     C912582   0.623   2.731   1.513 -0.2126  0.0160 -0.3046
  582THF    H1012583   0.776   2.875   1.575 -0.0161 -3.0105  0.0155
  582THF    H1112584   0.666   2.935   1.451 -0.7828 -1.2780  0.9548
  582THF    H1212585   0.617   2.702   1.408 -1.8484  1.8319  2.3101
  582THF    H1312586   0.680   2.661   1.582 -0.4113 -3.0153  1.4194
  583THF     O112587   2.341   1.698   2.783  0.7559  0.3567  0.4672
  583THF     C212588   2.290   1.572   2.735 -0.4321  0.4121  0.5013
  583THF     C312589   2.444   1.665   2.869 -0.4310 -0.7833 -0.1637
  583THF     H412590   2.361   1.522   2.664  0.6774 -0.0559  2.3847
  583THF     H512591   2.194   1.583   2.678  0.4163  0.4616 -0.5315
  583THF     H612592   2.537   1.650   2.812 -1.4065 -0.1057  1.5656
  583THF     H712593   2.466   1.743   2.940  1.5353 -1.2184  0.1672
  583THF     C812594   2.391   1.548   2.945 -0.2563  0.2719  0.1965
  583THF     C912595   2.283   1.490   2.857  0.0301  0.2798 -0.6806
  583THF    H1012596   2.361   1.580   3.047  2.0063  0.0040  0.8338
  583THF    H1112597   2.466   1.475   2.966 -0.6244 -2.1782 -1.7060
  583THF    H1212598   2.300   1.383   2.843 -0.8287  0.2112  0.8180
  583THF    H1312599   2.186   1.508   2.904 -0.9498  2.0226  0.1972
  584THF     O112600   0.364   3.366   3.034 -0.4672  0.9864  0.3389
  584THF     C212601   0.446   3.358   3.149 -0.1104  0.0932  0.4540
  584THF     C312602   0.376   3.500   2.997 -0.4818 -0.3290  0.2567
  584THF     H412603   0.544   3.323   3.124 -0.2131 -0.1557 -0.7700
  584THF     H512604   0.404   3.285   3.225 -2.5123  0.7875  0.4067
  584THF     H612605   0.476   3.535   2.951  1.9637  0.1922 -2.2515
  584THF     H712606   0.309   3.529   2.919  3.1363  1.3759 -1.3732
  584THF     C812607   0.355   3.574   3.129  0.2640  0.6455  0.0307
  584THF     C912608   0.438   3.487   3.223  0.1275 -0.3212  0.3713
  584THF    H1012609   0.248   3.569   3.153 -0.1843 -1.9914  1.4876
  584THF    H1112610   0.387   3.674   3.141  0.4984  0.8011  1.7232
  584THF    H1212611   0.541   3.525   3.252 -1.4069 -0.5487  1.8479
  584THF    H1312612   0.394   3.467   3.318  2.8403  1.2186  2.0215
  585THF     O112613   1.717   2.337   2.870 -0.0399 -0.4687  0.6595
  585THF     C212614   1.590   2.344   2.927  0.6453 -0.4926  0.1061
  585THF     C312615   1.790   2.251   2.949 -0.8891 -0.1678 -0.2506
  585THF     H412616   1.524   2.264   2.906  0.2090  0.6858 -1.1592
  585THF     H512617   1.539   2.431   2.887  0.9173 -2.5324  2.7432
  585THF     H612618   1.776   2.155   2.910  4.6592 -0.0088  1.5088
  585THF     H712619   1.897   2.267   2.938  0.4242 -0.7585  0.9674
  585THF     C812620   1.742   2.265   3.094 -0.4042  0.0776 -0.4747
  585THF     C912621   1.616   2.352   3.069 -0.5691  0.4846  0.5283
  585THF    H1012622   1.816   2.298   3.177  1.3101 -0.2263 -1.9173
  585THF    H1112623   1.721   2.164   3.126  0.7413 -0.5516  1.3860
  585THF    H1212624   1.518   2.337   3.117  2.2632  2.7493 -2.7026
  585THF    H1312625   1.654   2.451   3.087  0.3229 -0.2035  2.0045
  586THF     O112626   0.979   0.217   2.826 -0.2782 -0.4244 -0.3566
  586THF     C212627   1.067   0.266   2.927  1.0085  0.2365  0.2239
  586THF     C312628   0.854   0.194   2.882 -0.3471 -0.6420 -0.0091
  586THF     H412629   1.166   0.305   2.906  3.0159  0.0496 -0.1208
  586THF     H512630   1.080   0.194   3.010  0.1754 -1.6495 -0.3726
  586THF     H612631   0.774   0.174   2.813 -0.3440 -1.9778  0.5179
  586THF     H712632   0.860   0.127   2.958  3.2716  3.0524 -0.7045
  586THF     C812633   0.833   0.330   2.942  0.4919  0.0583  0.2321
  586THF     C912634   0.979   0.383   2.971  0.2453 -0.4654 -0.3732
  586THF    H1012635   0.762   0.316   3.024 -3.3521 -0.6239 -1.9118
  586THF    H1112636   0.777   0.399   2.878 -1.6047 -0.6232  0.3863
  586THF    H1212637   0.998   0.476   2.917  1.3256 -1.6589 -0.6840
  586THF    H1312638   1.002   0.410   3.078 -2.3158  1.0390  0.9088
  587THF     O112639   3.552   1.799   4.660 -0.3419 -0.4824 -0.0370
  587THF     C212640   3.487   1.725   4.553 -0.3328  0.9270  0.3916
  587THF     C312641   3.491   1.770   4.787  0.5938 -0.1664  0.2770
  587THF     H412642   3.568   1.681   4.492 -0.3428 -0.1139 -1.4517
  587THF     H512643   3.445   1.796   4.484 -0.2273 -1.6144  0.8448
  587THF     H612644   3.552   1.724   4.859 -0.2667  3.4803  0.6572
  587THF     H712645   3.459   1.860   4.838  1.1152  1.4332  3.1623
  587THF     C812646   3.362   1.689   4.756 -0.2869  0.5642  0.6399
  587THF     C912647   3.395   1.622   4.620 -0.7489  0.1785  0.5047
  587THF    H1012648   3.284   1.761   4.731  2.0239  0.2268  1.1091
  587THF    H1112649   3.329   1.621   4.839 -2.7548  0.2536  1.0639
  587THF    H1212650   3.455   1.533   4.629  1.2972 -0.9822 -1.2595
  587THF    H1312651   3.300   1.600   4.570  2.4450  2.3982 -0.7628
  588THF     O112652   1.764   1.732   3.885  0.4318  0.1311 -0.1338
  588THF     C212653   1.716   1.736   4.018 -0.5994 -0.6213  0.1328
  588THF     C312654   1.766   1.868   3.839 -0.6315 -0.2076  0.0170
  588THF     H412655   1.736   1.646   4.070 -2.6732  1.7192  1.0371
  588THF     H512656   1.606   1.753   4.032  0.0843  0.8450  0.9045
  588THF     H612657   1.837   1.878   3.757  0.0102 -2.6802  1.2327
  588THF     H712658   1.675   1.912   3.790 -3.7770 -2.6552  0.7966
  588THF     C812659   1.808   1.960   3.963  0.5599  0.7961 -0.7190
  588THF     C912660   1.802   1.854   4.072 -0.5454  0.5293  0.2363
  588THF    H1012661   1.736   2.034   3.972  1.6235  1.7717 -0.8704
  588THF    H1112662   1.906   2.009   3.952 -0.8283 -0.4257 -2.5109
  588THF    H1212663   1.897   1.805   4.089  0.0390  0.1794 -3.3568
  588THF    H1312664   1.770   1.898   4.164  2.9270  2.4382  0.3808
  589THF     O112665   3.948   3.173   0.744 -0.3706  0.0615  0.3099
  589THF     C212666   4.042   3.165   0.844 -0.6795  0.6044  0.2027
  589THF     C312667   3.975   3.059   0.653 -0.2273  0.3317 -0.9670
  589THF     H412668   4.008   3.097   0.921  2.4008 -0.1393 -2.0200
  589THF     H512669   4.055   3.265   0.894  1.9523  0.2665 -2.9980
  589THF     H612670   3.953   2.964   0.703 -1.0237 -2.5030 -3.1821
  589THF     H712671   3.919   3.076   0.562  3.6790 -2.4014  0.8379
  589THF     C812672   4.129   3.069   0.642  0.6031 -0.5585 -0.7070
  589THF     C912673   4.173   3.123   0.774  0.5249  0.1832  0.4163
  589THF    H1012674   4.158   3.137   0.564 -2.1701  2.1967  0.7594
  589THF    H1112675   4.184   2.982   0.618 -0.0756  2.5236  0.9770
  589THF    H1212676   4.222   3.044   0.834  2.0606  1.2265 -0.2114
  589THF    H1312677   4.248   3.200   0.756 -1.7236 -0.1487  1.9622
  590THF     O112678   1.510   1.299   5.413  0.7613 -0.0136 -0.3618
  590THF     C212679   1.528   1.341   5.280  0.0030  0.2624  0.5186
  590THF     C312680   1.366   1.299   5.445 -0.3163 -0.0645 -0.2634
  590THF     H412681   1.573   1.260   5.226 -3.4885 -2.3901  0.3056
  590THF     H512682   1.596   1.431   5.278  1.3818  1.1469  1.3422
  590THF     H612683   1.346   1.210   5.502 -0.6051  0.6480  0.5206
  590THF     H712684   1.333   1.390   5.497 -0.1557  0.4838  1.0067
  590THF     C812685   1.296   1.292   5.313 -0.5407  0.1984 -0.5779
  590THF     C912686   1.392   1.369   5.218 -0.5890  0.7884 -0.3301
  590THF    H1012687   1.198   1.328   5.305 -1.9652  1.0612 -0.5101
  590THF    H1112688   1.279   1.190   5.283 -0.6282  1.5555 -1.6142
  590THF    H1212689   1.385   1.339   5.115 -1.5553  1.6061 -1.1630
  590THF    H1312690   1.362   1.473   5.222  1.3782 -0.4210  1.5454
  591THF     O112691   0.912   1.265   3.015  0.1327  0.8556 -0.3777
  591THF     C212692   0.978   1.238   3.142 -0.3184 -1.0878 -0.0878
  591THF     C312693   0.806   1.182   2.996  1.1294 -0.4950 -0.0714
  591THF     H412694   0.977   1.320   3.216  0.1383  2.0505 -0.0915
  591THF     H512695   1.082   1.213   3.128  0.7578  0.3294  1.5833
  591THF     H612696   0.710   1.223   3.026  1.6583  1.3899 -0.2081
  591THF     H712697   0.784   1.165   2.888  0.1899  1.4928  0.5850
  591THF     C812698   0.848   1.058   3.076 -0.2644 -0.0625  0.1903
  591THF     C912699   0.903   1.117   3.200 -1.0278  0.3939  0.3352
  591THF    H1012700   0.927   1.013   3.017  2.2517 -2.3655  0.0600
  591THF    H1112701   0.764   0.991   3.084 -0.4388 -0.8373  1.6385
  591THF    H1212702   0.820   1.156   3.263 -0.9353  4.6420 -0.8443
  591THF    H1312703   0.959   1.048   3.260 -0.1119  4.1128 -3.7235
  592THF     O112704   4.588   2.842   3.476  0.0913  0.0626  0.1263
  592THF     C212705   4.466   2.913   3.479  0.8301 -0.4066 -0.2082
  592THF     C312706   4.576   2.752   3.576 -0.7742  0.3284 -0.1545
  592THF     H412707   4.415   2.907   3.382  0.7807  0.3501 -1.0352
  592THF     H512708   4.490   3.019   3.485  0.1055  0.6411  2.7666
  592THF     H612709   4.541   2.658   3.542 -0.6607  1.7500 -0.5249
  592THF     H712710   4.670   2.728   3.619 -1.5768  0.0811  1.1214
  592THF     C812711   4.482   2.801   3.684 -0.0470 -0.6688 -0.1748
  592THF     C912712   4.383   2.877   3.603  0.1453  0.0693 -0.5960
  592THF    H1012713   4.539   2.866   3.750  0.0470  1.1936 -2.8106
  592THF    H1112714   4.445   2.714   3.736 -0.8729 -2.8035 -0.2477
  592THF    H1212715   4.302   2.804   3.579 -1.0188 -2.7153 -2.2573
  592THF    H1312716   4.329   2.958   3.651  0.5490 -0.0032 -0.2379
  593THF     O112717   0.375   1.053   1.939 -0.1440  0.1440  0.3549
  593THF     C212718   0.394   1.192   1.915  0.4189 -0.0756  0.3390
  593THF     C312719   0.433   0.987   1.825  0.9405  0.3787 -0.1289
  593THF     H412720   0.363   1.246   2.004  2.6180 -0.5765  2.5637
  593THF     H512721   0.330   1.226   1.827  1.0631 -1.2701 -1.7145
  593THF     H612722   0.442   0.884   1.848 -1.6435 -0.8523  0.2634
  593THF     H712723   0.385   1.004   1.730 -2.0867 -2.2369 -1.1590
  593THF     C812724   0.565   1.058   1.818 -0.7185  0.4999  0.1284
  593THF     C912725   0.546   1.191   1.882  0.0252  0.1158 -0.5326
  593THF    H1012726   0.589   1.057   1.711  0.7290 -1.3481  1.3961
  593THF    H1112727   0.640   1.010   1.874 -1.9328  1.6400 -1.3732
  593THF    H1212728   0.591   1.194   1.984  0.9873 -2.5193  2.1944
  593THF    H1312729   0.578   1.282   1.831 -1.1982  0.7885 -1.6807
  594THF     O112730   4.473   0.434   0.504 -0.5535 -0.5010 -0.5726
  594THF     C212731   4.592   0.495   0.483 -0.3810  0.2807  0.3968
  594THF     C312732   4.498   0.302   0.547  0.0292  0.9438  0.1598
  594THF     H412733   4.581   0.605   0.478  1.1575  0.0252 -0.1222
  594THF     H512734   4.621   0.466   0.382  1.1453 -2.8897 -1.0091
  594THF     H612735   4.401   0.265   0.583 -1.4277  3.2484  1.6215
  594THF     H712736   4.526   0.231   0.468  3.0905  1.7753  0.3903
  594THF     C812737   4.593   0.324   0.659  0.7544  0.2488  0.0112
  594THF     C912738   4.677   0.441   0.591  0.9851 -0.1929 -0.0806
  594THF    H1012739   4.648   0.231   0.676  1.3264  1.7772  1.0906
  594THF    H1112740   4.549   0.378   0.742  0.0390  2.9451  2.3326
  594THF    H1212741   4.709   0.524   0.652  0.3259 -1.4244  0.1301
  594THF    H1312742   4.771   0.407   0.546 -0.4958 -2.4997  0.3559
  595THF     O112743   2.405   1.098   0.190  0.1370 -0.4675  0.6358
  595THF     C212744   2.268   1.135   0.220 -0.2371 -0.2682  0.0685
  595THF     C312745   2.477   1.026   0.291  0.3323  0.1281  0.0631
  595THF     H412746   2.191   1.096   0.143 -1.7176  0.7438 -1.1147
  595THF     H512747   2.250   1.242   0.212 -1.5500 -2.2506  0.2436
  595THF     H612748   2.503   0.928   0.265 -0.6332 -0.2936  0.0508
  595THF     H712749   2.562   1.080   0.324  0.2693  1.4392  1.0657
  595THF     C812750   2.382   1.036   0.408 -0.4484  0.1987  0.6954
  595THF     C912751   2.246   1.065   0.354 -0.2914  0.2691  1.2118
  595THF    H1012752   2.413   1.114   0.477 -1.0855 -2.8924  0.5480
  595THF    H1112753   2.373   0.943   0.463 -1.0851 -4.5595  0.2626
  595THF    H1212754   2.188   0.974   0.340 -1.3030  2.2172 -0.1748
  595THF    H1312755   2.191   1.117   0.432 -0.1986 -1.4279  0.4185
  596THF     O112756   1.700   0.238   1.572  0.4729  0.0454 -0.1414
  596THF     C212757   1.634   0.123   1.529  0.9672  0.6915  0.0728
  596THF     C312758   1.614   0.311   1.652  0.1154 -0.6534  0.6372
  596THF     H412759   1.664   0.038   1.581 -1.5969  3.8376  0.9367
  596THF     H512760   1.668   0.105   1.426 -2.5597  1.0516 -0.7816
  596THF     H612761   1.609   0.272   1.754  3.4167  0.5539  1.7893
  596THF     H712762   1.653   0.413   1.656 -0.9990 -2.3078  0.5441
  596THF     C812763   1.480   0.302   1.574  0.4764  0.2199 -0.1029
  596THF     C912764   1.485   0.151   1.537 -0.3094 -0.9132 -0.4928
  596THF    H1012765   1.485   0.361   1.479 -3.2762 -2.7097 -1.1031
  596THF    H1112766   1.390   0.327   1.632 -1.0746 -3.1055 -0.1134
  596THF    H1212767   1.428   0.094   1.607 -1.6857 -0.2511 -1.9584
  596THF    H1312768   1.435   0.126   1.445  0.0343 -1.3451 -1.3996
  597THF     O112769   3.696   2.160   1.266  0.1737 -0.4638 -0.2724
  597THF     C212770   3.697   2.063   1.175  0.5377  0.4068  0.1160
  597THF     C312771   3.792   2.264   1.245  0.0614  0.3701 -0.9769
  597THF     H412772   3.601   2.068   1.123  3.2142 -0.5857 -0.4969
  597THF     H512773   3.702   1.960   1.224  1.8865 -2.1377  1.3864
  597THF     H612774   3.745   2.363   1.271 -1.0068 -0.2655 -0.0098
  597THF     H712775   3.876   2.248   1.312  2.0489  0.5192  1.2007
  597THF     C812776   3.837   2.248   1.098  0.6868 -0.1689  0.4407
  597THF     C912777   3.815   2.096   1.080  0.4561 -0.8836 -0.5056
  597THF    H1012778   3.940   2.273   1.087  0.6863 -1.7597  1.9492
  597THF    H1112779   3.781   2.311   1.018 -3.2659  1.8905 -2.7071
  597THF    H1212780   3.808   2.062   0.977  1.9775 -0.2678 -2.2699
  597THF    H1312781   3.905   2.039   1.122  1.9971  0.1291  2.3024
  598THF     O112782   1.535   4.388   4.446 -0.5900 -0.8375 -0.3121
  598THF     C212783   1.611   4.392   4.564  0.3069  0.5869  0.3052
  598THF     C312784   1.619   4.310   4.357  0.5686  0.8804  0.1258
  598THF     H412785   1.542   4.438   4.635 -0.7729  2.9422  0.5403
  598THF     H512786   1.695   4.467   4.567 -0.1622  0.3141  0.8084
  598THF     H612787   1.572   4.259   4.281 -0.2128  0.7958 -0.4006
  598THF     H712788   1.692   4.376   4.308  0.4336 -2.0324  1.9534
  598THF     C812789   1.703   4.218   4.451 -0.3834  0.0401 -0.1040
  598THF     C912790   1.656   4.249   4.590 -1.6857  0.1928 -0.0839
  598THF    H1012791   1.808   4.242   4.445 -1.2789 -0.2809 -0.3693
  598THF    H1112792   1.681   4.109   4.433 -1.5154 -3.3550  4.0977
  598THF    H1212793   1.567   4.184   4.613 -0.0966  3.6606 -3.6795
  598THF    H1312794   1.727   4.246   4.668  1.1193  0.6366  1.5153
  599THF     O112795   0.088   5.210   4.541 -0.0742 -0.0665 -0.2602
  599THF     C212796   0.129   5.280   4.653 -0.0352  0.1496 -0.2435
  599THF     C312797   0.135   5.076   4.548  0.3977  0.5083  0.1485
  599THF     H412798   0.068   5.365   4.677 -0.3770 -1.0305 -1.9774
  599THF     H512799   0.230   5.320   4.644  0.6666  1.3544 -0.4044
  599THF     H612800   0.044   5.014   4.536  2.5970 -1.4332 -2.4855
  599THF     H712801   0.215   5.054   4.476  0.0489  2.2450 -0.7769
  599THF     C812802   0.202   5.057   4.688  0.4354  1.2453  0.2759
  599THF     C912803   0.153   5.177   4.764 -0.0316 -0.1766 -0.4760
  599THF    H1012804   0.311   5.063   4.675 -0.9883 -1.1111 -1.5666
  599THF    H1112805   0.173   4.958   4.728  1.7207 -2.7007 -2.3267
  599THF    H1212806   0.057   5.151   4.809  0.6660  1.9945 -1.7053
  599THF    H1312807   0.221   5.225   4.838  0.3473 -0.6259 -1.8412
  600THF     O112808   5.245   5.449   4.465  0.0394  0.0631  0.6679
  600THF     C212809   5.348   5.360   4.425  0.4859  1.0968  0.0747
  600THF     C312810   5.248   5.532   4.347 -0.3597  0.2594  0.3293
  600THF     H412811   5.334   5.280   4.498  0.1493 -1.4350  2.0932
  600THF     H512812   5.443   5.412   4.433  0.5221  0.3983 -2.1148
  600THF     H612813   5.160   5.587   4.336 -2.4756 -2.1625 -1.4595
  600THF     H712814   5.340   5.595   4.347  3.2898 -0.5933  0.6165
  600THF     C812815   5.257   5.438   4.225  0.2433  0.0357 -0.8407
  600THF     C912816   5.324   5.311   4.278  1.0644 -0.2802 -0.1915
  600THF    H1012817   5.314   5.478   4.150  0.3089 -0.5689  3.4434
  600THF    H1112818   5.164   5.407   4.172 -0.2485 -0.8588 -0.3188
  600THF    H1212819   5.262   5.220   4.272  1.6253  0.6804  2.6944
  600THF    H1312820   5.413   5.295   4.220  0.4160  1.9074 -2.7963
  601THF     O112821   0.297   1.530   3.433  0.4610 -0.0560  0.0977
  601THF     C212822   0.233   1.457   3.539  0.5275 -0.5036  0.3251
  601THF     C312823   0.193   1.623   3.388 -0.5674 -0.2634  0.4570
  601THF     H412824   0.288   1.404   3.612 -1.1757  1.6580  0.7219
  601THF     H512825   0.164   1.381   3.495 -0.0037 -0.1764  3.5076
  601THF     H612826   0.226   1.714   3.327 -1.2308 -2.7283 -0.8872
  601THF     H712827   0.130   1.579   3.312 -0.5046 -0.0799 -1.6145
  601THF     C812828   0.135   1.667   3.515  0.8013  0.3913  0.6543
  601THF     C912829   0.150   1.560   3.616  1.0412  0.4158 -0.6336
  601THF    H1012830   0.035   1.714   3.508  1.6896 -3.2182 -0.4295
  601THF    H1112831   0.196   1.748   3.551  0.1746 -0.8314  3.5790
  601THF    H1212832   0.198   1.600   3.705  3.1373 -0.8388 -1.0210
  601THF    H1312833   0.055   1.511   3.652 -3.0965  1.2744  2.1341
  602THF     O112834   4.669   0.396   3.626  0.5798 -0.4476 -0.4273
  602THF     C212835   4.652   0.467   3.505 -0.6942 -0.5425 -0.4616
  602THF     C312836   4.651   0.260   3.596  0.2642 -0.9094 -0.2597
  602THF     H412837   4.750   0.464   3.458  0.1706  1.7484 -1.4859
  602THF     H512838   4.626   0.566   3.523 -1.9482 -0.8451 -2.3521
  602THF     H612839   4.737   0.237   3.538  2.6124 -0.0464  1.4119
  602THF     H712840   4.659   0.191   3.678 -0.6887 -0.6730 -1.1777
  602THF     C812841   4.533   0.252   3.493 -0.0222 -0.1966  0.2973
  602THF     C912842   4.549   0.389   3.426  0.4505  0.6497  0.1564
  602THF    H1012843   4.434   0.245   3.537  0.8627 -0.7633 -2.7593
  602THF    H1112844   4.544   0.173   3.420  0.1509 -1.7589  1.7983
  602THF    H1212845   4.575   0.377   3.321  0.5306  0.5186  0.9798
  602THF    H1312846   4.449   0.445   3.415 -2.1513  0.7000  0.1332
  603THF     O112847   3.763   2.185   1.729  0.4033  0.1464 -0.2837
  603THF     C212848   3.836   2.257   1.637  0.2205  0.3278  0.2920
  603THF     C312849   3.693   2.275   1.814  0.4449  0.5201  0.1111
  603THF     H412850   3.880   2.201   1.559 -1.5224  1.9834 -1.8377
  603THF     H512851   3.922   2.288   1.693  1.5919  2.8712 -0.8173
  603THF     H612852   3.591   2.246   1.831  1.9952 -0.6689  3.4251
  603THF     H712853   3.732   2.282   1.913 -1.8589 -0.4342 -1.7967
  603THF     C812854   3.696   2.416   1.741 -0.1035 -0.3538  0.1311
  603THF     C912855   3.743   2.376   1.604 -0.6505 -0.2417 -0.6465
  603THF    H1012856   3.768   2.482   1.791 -3.9182  0.6290  2.2857
  603THF    H1112857   3.595   2.472   1.738  0.3416 -0.0152 -0.0764
  603THF    H1212858   3.670   2.344   1.531 -2.1650  1.0210  3.1710
  603THF    H1312859   3.800   2.456   1.555 -1.4149  1.3381  2.3128
  604THF     O112860   1.592   3.970   2.524  0.2117 -0.8980 -0.2836
  604THF     C212861   1.639   4.057   2.420 -0.2202 -0.2893 -0.0510
  604THF     C312862   1.701   3.901   2.584 -0.3796  0.0989  0.5834
  604THF     H412863   1.643   4.156   2.463  0.0718  2.0205 -1.3249
  604THF     H512864   1.579   4.057   2.325 -0.2889 -0.0111  0.8880
  604THF     H612865   1.753   3.953   2.664 -0.6107  1.1194 -2.6932
  604THF     H712866   1.665   3.808   2.607  0.5760 -1.9946  0.9837
  604THF     C812867   1.800   3.889   2.460  0.2091 -0.1943  0.3254
  604THF     C912868   1.777   4.015   2.378 -0.4269  0.0288 -0.3690
  604THF    H1012869   1.799   3.798   2.404  0.8806  1.7796 -1.7296
  604THF    H1112870   1.906   3.888   2.495  3.2771 -1.0164  0.6800
  604THF    H1212871   1.853   4.092   2.393  0.3117 -2.1009 -0.7374
  604THF    H1312872   1.778   4.007   2.272 -0.5884 -0.3219 -2.0788
  605THF     O112873   1.951   1.869   5.080 -0.2340  0.4227  0.5531
  605THF     C212874   1.935   1.775   4.971 -1.2145 -0.2104 -0.4356
  605THF     C312875   1.838   1.958   5.088 -0.2431  0.4807  0.1236
  605THF     H412876   1.977   1.676   5.003 -0.2860 -0.3097  1.1781
  605THF     H512877   1.985   1.802   4.878 -3.3859  1.3058  0.0135
  605THF     H612878   1.778   1.932   5.175 -1.0725  0.9347  1.4486
  605THF     H712879   1.849   2.067   5.080 -0.1106 -2.0131 -0.3595
  605THF     C812880   1.739   1.920   4.976 -0.6006 -1.0501  0.2238
  605THF     C912881   1.782   1.777   4.941 -0.6786 -0.6798 -1.1637
  605THF    H1012882   1.741   1.987   4.892 -0.5015 -1.3854 -0.1016
  605THF    H1112883   1.635   1.914   5.002  3.3801 -2.2356 -1.3008
  605THF    H1212884   1.727   1.719   5.013  0.3567  0.5653 -2.8507
  605THF    H1312885   1.766   1.749   4.838 -1.3028 -0.5851 -0.6968
  606THF     O112886   3.460   0.625   3.288 -0.0632 -0.1258 -0.6217
  606THF     C212887   3.504   0.745   3.212 -0.2277 -0.0577  0.5998
  606THF     C312888   3.376   0.554   3.197 -0.0789  0.8049  0.0212
  606THF     H412889   3.596   0.794   3.239  2.8605 -0.9299  1.0654
  606THF     H512890   3.443   0.825   3.245  0.3368  0.0546 -2.1493
  606THF     H612891   3.422   0.453   3.187  0.0415  0.5702  2.6662
  606THF     H712892   3.274   0.543   3.241 -1.0891 -1.2201  1.1263
  606THF     C812893   3.379   0.609   3.048 -0.0262 -0.4199 -0.4158
  606THF     C912894   3.495   0.709   3.060 -0.1425 -0.1478  0.5663
  606THF    H1012895   3.278   0.654   3.038  0.6073 -1.2125  2.8453
  606THF    H1112896   3.388   0.537   2.965 -1.0582 -0.6768  2.0515
  606THF    H1212897   3.595   0.669   3.029 -1.9591  1.4206  3.4957
  606THF    H1312898   3.475   0.799   3.006 -0.0651 -0.2449  1.6455
  607THF     O112899   1.115   2.748   4.630 -0.3929 -0.1176 -0.4666
  607THF     C212900   1.190   2.851   4.697 -0.0719 -0.5727  0.5124
  607THF     C312901   1.039   2.692   4.740 -0.3901  0.8000 -0.1416
  607THF     H412902   1.133   2.944   4.714 -4.8739  1.8580  2.3693
  607THF     H512903   1.281   2.878   4.644 -2.1554 -1.5166  0.2117
  607THF     H612904   0.951   2.754   4.773  3.4288 -1.9363 -0.2510
  607THF     H712905   0.995   2.596   4.711 -0.6746  2.1491  1.7700
  607THF     C812906   1.144   2.673   4.851 -0.0273 -0.3321 -0.1595
  607THF     C912907   1.227   2.797   4.838 -0.1831 -0.2754 -0.1882
  607THF    H1012908   1.197   2.576   4.826 -2.2651  0.8015 -1.4930
  607THF    H1112909   1.103   2.671   4.951  0.9150  0.3471  0.5595
  607THF    H1212910   1.207   2.874   4.920  0.5716  0.7621 -0.2065
  607THF    H1312911   1.331   2.771   4.847  3.3988  3.2957 -1.2661
  608THF     O112912   0.817   2.064   1.975 -0.8018 -0.3276 -0.2732
  608THF     C212913   0.940   2.034   1.909 -0.3002  1.1417 -0.2852
  608THF     C312914   0.780   2.198   1.940 -0.2785 -0.4665 -0.2375
  608THF     H412915   0.911   1.991   1.813 -0.4047  0.9168  0.8217
  608THF     H512916   1.006   1.959   1.948 -2.2978  1.8211  2.7504
  608THF     H612917   0.722   2.200   1.848 -0.2395  0.2461 -2.3161
  608THF     H712918   0.706   2.236   2.011  0.0266 -1.4463  1.6392
  608THF     C812919   0.909   2.275   1.937 -0.2493 -0.0658  0.5973
  608THF     C912920   1.009   2.165   1.906  0.8060  0.1338  0.3499
  608THF    H1012921   0.933   2.327   2.032  1.2243 -0.1563  1.8107
  608THF    H1112922   0.919   2.345   1.857 -0.4773 -2.0966  2.0824
  608THF    H1212923   1.055   2.167   1.808  4.7214 -0.4549  1.4192
  608THF    H1312924   1.081   2.169   1.980 -0.2962  0.0846 -1.8913
  609THF     O112925   4.769   5.466   4.569 -0.1450 -0.2256  0.0676
  609THF     C212926   4.883   5.375   4.565 -0.1968 -0.3056 -0.3544
  609THF     C312927   4.664   5.422   4.477  0.3687  0.3916  0.1062
  609THF     H412928   4.957   5.374   4.648  0.6415 -0.4747  1.6966
  609THF     H512929   4.946   5.412   4.476  1.5738  2.0492 -1.1876
  609THF     H612930   4.577   5.386   4.543 -2.2344  2.8613 -0.9161
  609THF     H712931   4.622   5.490   4.404  1.5516 -3.1412 -0.4346
  609THF     C812932   4.721   5.287   4.423  0.2691  0.4058  0.3783
  609THF     C912933   4.813   5.250   4.534 -0.8544  0.9419  0.1479
  609THF    H1012934   4.770   5.303   4.332  0.0827  1.8142  1.2470
  609THF    H1112935   4.628   5.227   4.419  0.0126 -3.2346  3.5053
  609THF    H1212936   4.767   5.223   4.629 -0.9712 -0.5210 -2.9265
  609THF    H1312937   4.897   5.186   4.503 -0.6014  0.9052 -2.8166
  610THF     O112938   0.785   2.680   2.857  0.3879 -0.0175 -0.3977
  610THF     C212939   0.735   2.614   2.739 -0.3724 -0.3019  0.1081
  610THF     C312940   0.808   2.580   2.954 -0.6166 -0.1299 -0.0547
  610THF     H412941   0.763   2.661   2.644  0.8155  0.1361 -1.2991
  610THF     H512942   0.623   2.611   2.750 -1.1237 -0.3804 -1.2913
  610THF     H612943   0.918   2.588   2.982  0.6612 -2.7471  1.0621
  610THF     H712944   0.751   2.595   3.049  2.4623  0.6335 -1.1505
  610THF     C812945   0.780   2.440   2.891  0.0469  0.0873  0.3272
  610THF     C912946   0.779   2.477   2.748 -0.4001 -0.2219 -0.0027
  610THF    H1012947   0.689   2.391   2.923  0.7667  0.4726 -1.6762
  610THF    H1112948   0.857   2.366   2.918  0.9868  0.6079 -1.1254
  610THF    H1212949   0.882   2.466   2.713  0.4031  0.3018 -2.5651
  610THF    H1312950   0.717   2.402   2.702 -0.8380 -2.4719  2.1775
  611THF     O112951   3.809   0.642   3.722 -0.8685  0.3677 -0.3239
  611THF     C212952   3.931   0.669   3.791  0.1531  0.8513 -0.4075
  611THF     C312953   3.850   0.604   3.596  0.3408 -0.5254  1.1664
  611THF     H412954   3.973   0.574   3.830 -0.3995 -0.8308  1.9386
  611THF     H512955   3.918   0.732   3.878  1.3963  0.6781 -0.3401
  611THF     H612956   3.856   0.492   3.579  0.2769 -1.2893 -3.3779
  611THF     H712957   3.786   0.647   3.519  0.9006  2.2533 -1.7439
  611THF     C812958   3.989   0.651   3.563  0.1894 -0.0849  0.1559
  611THF     C912959   4.016   0.734   3.684 -1.1946  0.1508  0.1420
  611THF    H1012960   4.005   0.713   3.467  1.2431 -0.9003 -0.4854
  611THF    H1112961   4.061   0.578   3.555  2.2459  2.1188 -1.4030
  611THF    H1212962   4.124   0.750   3.697  0.2268  0.9281 -0.4269
  611THF    H1312963   3.980   0.834   3.668  0.4601 -0.8886  2.4136
  612THF     O112964   0.239   2.132   0.374  0.5851  0.1344  0.2004
  612THF     C212965   0.321   2.049   0.291 -0.6284 -0.1687  0.0634
  612THF     C312966   0.276   2.114   0.507  0.4537  0.6238 -0.7539
  612THF     H412967   0.389   2.126   0.261  1.3118  0.0336 -1.5969
  612THF     H512968   0.266   2.008   0.207 -1.7979 -2.2476  0.5600
  612THF     H612969   0.305   2.218   0.557 -0.3305  0.0466 -0.6479
  612THF     H712970   0.186   2.082   0.559 -0.0906  1.1551  0.9214
  612THF     C812971   0.389   2.016   0.512 -0.1496 -0.0062  0.2245
  612THF     C912972   0.378   1.937   0.383  0.3403  0.3116 -0.0273
  612THF    H1012973   0.383   1.958   0.607  1.3907 -0.7237 -3.8972
  612THF    H1112974   0.489   2.060   0.515  0.2681 -2.9288 -1.1333
  612THF    H1212975   0.465   1.897   0.332 -4.4222 -2.0287 -2.0522
  612THF    H1312976   0.302   1.861   0.393 -0.0858  0.6309 -0.0900
  613THF     O112977   0.872   0.735   4.849 -0.4141  0.1344 -0.3054
  613THF     C212978   0.774   0.817   4.923 -0.1279  0.7748  0.4401
  613THF     C312979   0.859   0.597   4.888  0.7743 -0.2243  0.8212
  613THF     H412980   0.696   0.840   4.847 -1.1255 -2.0011  4.0440
  613THF     H512981   0.823   0.912   4.958  0.1400 -1.1479 -0.8392
  613THF     H612982   0.843   0.532   4.800 -4.0024  3.0521  1.5137
  613THF     H712983   0.942   0.571   4.948 -1.9473 -0.5221  0.7811
  613THF     C812984   0.735   0.594   4.976 -0.2647  0.2179  0.1448
  613THF     C912985   0.732   0.730   5.039  0.2127  0.3877 -0.1822
  613THF    H1012986   0.730   0.517   5.057 -0.6369 -0.3250  3.3958
  613THF    H1112987   0.642   0.580   4.927  0.2561  1.6462 -2.2161
  613THF    H1212988   0.635   0.765   5.081  0.6380  1.5857 -3.4190
  613THF    H1312989   0.810   0.740   5.114  1.6347 -1.4273 -1.5942
  614THF     O112990   2.659   5.013   5.080  0.1350 -0.0399  0.2061
  614THF     C212991   2.609   5.101   5.183  0.3919  0.0990  0.3804
  614THF     C312992   2.642   5.086   4.956 -0.6142  0.5279  0.6588
  614THF     H412993   2.683   5.178   5.215 -2.9424 -0.3667  0.1366
  614THF     H512994   2.586   5.046   5.281 -0.1674  0.9314  3.0368
  614THF     H612995   2.740   5.144   4.938  1.4660  0.8980  1.2648
  614THF     H712996   2.624   5.015   4.877  0.4211 -0.3014  0.6280
  614THF     C812997   2.518   5.175   4.970  0.1119 -0.1687 -0.0314
  614THF     C912998   2.489   5.172   5.120  0.0183 -0.2095 -0.7702
  614THF    H1012999   2.432   5.137   4.919  0.4802 -0.0316  0.0221
  614THF    H1113000   2.545   5.269   4.942 -2.2503 -1.2298 -1.2794
  614THF    H1213001   2.488   5.275   5.153 -1.7874  0.8509 -0.1313
  614THF    H1313002   2.397   5.118   5.140 -5.4067  3.0325 -0.1275
  615THF     O113003   1.114   4.869   3.673  0.9991 -0.7292  0.1959
  615THF     C213004   1.258   4.891   3.672 -0.5076  0.0600  0.3456
  615THF     C313005   1.069   4.898   3.806  0.5581 -0.1580 -0.4286
  615THF     H413006   1.269   4.989   3.616 -1.6619  1.7973 -1.1846
  615THF     H513007   1.308   4.817   3.611 -0.7902 -0.7681 -0.1590
  615THF     H613008   1.057   5.004   3.818 -0.1258 -0.7587  1.8839
  615THF     H713009   0.979   4.844   3.822  0.7187  3.1993  1.2702
  615THF     C813010   1.177   4.842   3.893  0.1724  0.0911  0.0235
  615THF     C913011   1.304   4.884   3.824 -0.1020 -0.0172  0.0417
  615THF    H1013012   1.180   4.736   3.908  1.2667  2.2317 -2.1178
  615THF    H1113013   1.181   4.867   4.003  0.8962 -0.2605  0.2504
  615THF    H1213014   1.347   4.971   3.869  3.1895 -0.5936  0.3757
  615THF    H1313015   1.377   4.801   3.834 -0.5081  2.9000  2.2920
  616THF     O113016   5.284   2.724   0.219 -0.1662 -0.0817 -0.2499
  616THF     C213017   5.232   2.725   0.350 -0.9283 -0.6610  0.7204
  616THF     C313018   5.329   2.856   0.185 -0.9971 -0.2239 -0.4159
  616THF     H413019   5.307   2.712   0.427 -0.6409 -0.2663  0.0920
  616THF     H513020   5.148   2.650   0.368 -1.1206 -0.7541  0.6176
  616THF     H613021   5.422   2.882   0.231 -1.3864  2.1750  1.6111
  616THF     H713022   5.349   2.871   0.080  1.0918  1.8605  2.9483
  616THF     C813023   5.224   2.947   0.247 -0.6434 -0.4027 -0.1793
  616THF     C913024   5.168   2.865   0.363  0.2080  1.2049  0.8080
  616THF    H1013025   5.152   2.983   0.174 -1.8751  1.8112 -1.0897
  616THF    H1113026   5.268   3.039   0.288  2.0937 -0.6705 -0.0526
  616THF    H1213027   5.195   2.907   0.467 -1.6143  1.5983  0.6946
  616THF    H1313028   5.062   2.855   0.349  0.3122  1.5392  2.7917
  617THF     O113029   3.051   3.419   0.854 -0.0960 -0.0439 -0.2370
  617THF     C213030   2.965   3.521   0.899 -1.1909 -0.7019 -0.0803
  617THF     C313031   3.184   3.450   0.891  0.1173 -0.5517  0.0901
  617THF     H413032   2.925   3.487   0.997 -1.0977 -1.4706  1.1783
  617THF     H513033   2.870   3.532   0.844 -0.9631  1.0289  0.6829
  617THF     H613034   3.209   3.414   0.990  1.2944 -4.5713 -1.2150
  617THF     H713035   3.252   3.395   0.833  1.1538 -0.8219  2.4820
  617THF     C813036   3.191   3.603   0.878 -0.0762  0.9377 -0.0043
  617THF     C913037   3.055   3.647   0.913  0.3359 -0.5599  0.2156
  617THF    H1013038   3.199   3.623   0.767 -1.0891 -0.5297 -3.3157
  617THF    H1113039   3.278   3.648   0.928 -1.4961 -1.0900  0.4818
  617THF    H1213040   3.052   3.675   1.019  0.0168  0.1019 -3.7075
  617THF    H1313041   3.040   3.735   0.850  0.7538 -1.3232 -0.7609
  618THF     O113042   4.897   2.488   4.018 -0.4064 -0.3756  0.2876
  618THF     C213043   4.866   2.626   4.001 -0.6223 -0.0944  0.3335
  618THF     C313044   4.872   2.404   3.899 -0.0562  0.1006 -0.4640
  618THF     H413045   4.942   2.693   4.037  0.7866 -0.8475  0.9335
  618THF     H513046   4.777   2.639   4.060  2.5582 -0.3461 -0.7368
  618THF     H613047   4.951   2.382   3.829 -0.2171 -0.9022  0.9760
  618THF     H713048   4.829   2.306   3.919 -1.5896 -0.1898  1.3115
  618THF     C813049   4.787   2.501   3.814  0.2034  0.2022  0.0680
  618THF     C913050   4.831   2.648   3.855 -0.1036  0.7388 -0.1189
  618THF    H1013051   4.684   2.497   3.856  1.1569 -0.5582  1.6726
  618THF    H1113052   4.793   2.479   3.706 -1.9137 -0.0283  0.3874
  618THF    H1213053   4.914   2.675   3.791  1.7007 -0.7685  1.1614
  618THF    H1313054   4.757   2.722   3.838  0.6988 -1.3841  0.7618
  619THF     O113055   2.294   4.863   4.853 -0.3420  0.2470  0.0044
  619THF     C213056   2.358   4.816   4.971  0.2372 -0.7527  0.0536
  619THF     C313057   2.177   4.938   4.892 -0.9415  0.3190 -0.5914
  619THF     H413058   2.392   4.905   5.028  2.0893 -2.2181  1.9863
  619THF     H513059   2.442   4.747   4.945  1.2381 -3.5760  0.8579
  619THF     H613060   2.214   5.037   4.920 -2.1013  0.4700 -0.7904
  619THF     H713061   2.109   4.949   4.807  1.9319 -1.4128  1.0733
  619THF     C813062   2.116   4.845   5.003  0.3957  0.1247 -0.0356
  619THF     C913063   2.236   4.752   5.035  0.4996 -0.1295  0.1789
  619THF    H1013064   2.026   4.792   4.978  2.8645  0.5592 -0.0449
  619THF    H1113065   2.084   4.915   5.083  2.7650  1.9270 -1.3510
  619THF    H1213066   2.243   4.742   5.146  2.9870  0.6223  1.3429
  619THF    H1313067   2.220   4.648   5.015  2.7917  0.7617 -1.5009
  620THF     O113068   2.759   3.101   4.220  0.6546 -1.1456 -0.6666
  620THF     C213069   2.879   3.133   4.291  0.4900 -0.0563 -0.2865
  620THF     C313070   2.675   3.024   4.303  0.2243 -0.6395  0.7418
  620THF     H413071   2.864   3.230   4.348  1.3325  1.8950 -0.5728
  620THF     H513072   2.957   3.140   4.215  1.0233 -0.3453 -0.2405
  620THF     H613073   2.621   3.094   4.361  0.4024 -0.5384  0.8828
  620THF     H713074   2.606   2.962   4.250  0.7432 -0.5571 -2.7462
  620THF     C813075   2.769   2.952   4.407  0.1190  0.5761 -0.3479
  620THF     C913076   2.906   3.011   4.374 -0.5318  0.4787  0.0170
  620THF    H1013077   2.759   2.845   4.395 -1.6365 -0.5339 -1.1711
  620THF    H1113078   2.746   2.981   4.509  3.6935  0.1785  1.5328
  620THF    H1213079   2.960   3.049   4.464 -1.1207  0.6176 -0.6378
  620THF    H1313080   2.954   2.929   4.322 -0.1982 -0.7600  1.0132
  621THF     O113081   1.916   1.010   4.822  0.3434  0.0553 -0.4319
  621THF     C213082   2.021   1.060   4.740  0.3846  0.2049 -0.0927
  621THF     C313083   1.908   0.874   4.812  0.0742  0.5940  0.7296
  621THF     H413084   2.107   1.090   4.803 -2.5964 -0.6640 -0.6189
  621THF     H513085   1.995   1.152   4.694 -1.3444  1.8244  0.5235
  621THF     H613086   1.902   0.823   4.909 -0.6249 -0.4410 -0.9948
  621THF     H713087   1.806   0.860   4.769  0.7806 -0.2394 -0.9312
  621THF     C813088   2.032   0.825   4.730 -0.0819  0.2643  0.9862
  621THF     C913089   2.067   0.944   4.641 -0.7873  0.2813  0.0070
  621THF    H1013090   1.991   0.736   4.673 -0.7535 -1.0007  0.9586
  621THF    H1113091   2.108   0.804   4.795 -0.1909  1.4619 -2.4090
  621THF    H1213092   2.176   0.944   4.624 -0.1293  2.5945  0.4513
  621THF    H1313093   2.004   0.958   4.547  0.4233 -1.8289 -1.4706
  622THF     O113094   4.721   0.616   2.265 -0.6658 -0.5821 -0.7754
  622THF     C213095   4.802   0.730   2.284  0.0153  0.0964 -0.0696
  622THF     C313096   4.601   0.659   2.204 -0.5232 -0.3389 -0.1405
  622THF     H413097   4.908   0.713   2.294  1.4350  1.1234  0.3536
  622THF     H513098   4.771   0.784   2.375 -0.0846 -0.2925  0.6800
  622THF     H613099   4.571   0.583   2.132  1.1921 -2.1010  0.2730
  622THF     H713100   4.525   0.657   2.271 -1.2447 -2.3318 -2.6968
  622THF     C813101   4.625   0.796   2.151  0.0522  0.2376  0.2973
  622THF     C913102   4.775   0.818   2.166  0.4268 -0.4670 -0.0165
  622THF    H1013103   4.578   0.870   2.220 -0.6724  1.9714  1.1730
  622THF    H1113104   4.579   0.801   2.052  0.4078  1.8165 -1.3947
  622THF    H1213105   4.829   0.773   2.081 -0.4967 -0.3875  1.1780
  622THF    H1313106   4.803   0.921   2.169  2.4217  0.3153 -1.9677
  623THF     O113107   3.125   2.228   1.014 -0.1258 -0.1627  0.1879
  623THF     C213108   3.261   2.194   0.971  0.6147  0.0809  0.8383
  623THF     C313109   3.032   2.132   0.973  0.3761  0.5637 -0.1294
  623THF     H413110   3.306   2.118   1.036 -1.0485 -0.9824 -1.0453
  623THF     H513111   3.326   2.285   0.962  2.1720 -3.0771  2.5055
  623THF     H613112   3.021   2.050   1.048  1.1197 -0.5906 -0.9798
  623THF     H713113   2.936   2.181   0.947  2.3899 -1.2191  0.9111
  623THF     C813114   3.085   2.081   0.839  0.6531  0.1009  0.6590
  623THF     C913115   3.225   2.137   0.831 -0.4501 -0.3200  0.0584
  623THF    H1013116   3.018   2.101   0.751  1.9327 -2.6117 -1.0997
  623THF    H1113117   3.111   1.971   0.841 -0.5560 -1.0411 -1.9914
  623THF    H1213118   3.305   2.066   0.794  3.5892  0.7610  0.1201
  623THF    H1313119   3.220   2.223   0.764  0.2420  0.7844  0.3340
  624THF     O113120   0.918   4.580   1.514  0.3872 -0.7543 -0.1299
  624THF     C213121   0.940   4.539   1.649 -0.0694 -1.0917  0.5836
  624THF     C313122   0.927   4.722   1.510 -0.6697 -0.1112  0.2018
  624THF     H413123   1.048   4.549   1.671  0.5446 -1.8950 -3.1373
  624THF     H513124   0.904   4.436   1.664  1.0366 -1.5832 -0.4564
  624THF     H613125   1.027   4.747   1.534 -2.9124 -2.4438 -0.7337
  624THF     H713126   0.895   4.775   1.414 -0.0913 -0.3652  1.0532
  624THF     C813127   0.855   4.769   1.642 -0.2953  0.8133 -0.2908
  624THF     C913128   0.878   4.650   1.736  0.0529  0.1104 -0.0551
  624THF    H1013129   0.744   4.772   1.626  0.5085 -0.3881  0.2114
  624THF    H1113130   0.890   4.864   1.677 -0.7838 -0.1892  0.3371
  624THF    H1213131   0.958   4.669   1.812  3.2946 -2.8736  1.2068
  624THF    H1313132   0.785   4.619   1.783 -1.4532 -0.2277 -1.5091
  625THF     O113133   0.811   4.753   1.035  0.2769  0.3517  0.1339
  625THF     C213134   0.720   4.793   1.133  0.4505 -0.1270 -0.0245
  625THF     C313135   0.743   4.731   0.904 -0.8509  0.4161 -0.2933
  625THF     H413136   0.777   4.840   1.212  1.4389 -1.5465  1.0760
  625THF     H513137   0.688   4.693   1.166  0.6224  1.7003  0.0749
  625THF     H613138   0.806   4.748   0.814 -0.2281  2.0792 -0.6572
  625THF     H713139   0.708   4.628   0.909 -1.2527 -1.3596  2.3437
  625THF     C813140   0.623   4.826   0.904  0.0949 -0.5022 -0.3193
  625THF     C913141   0.619   4.877   1.047  0.0439 -0.4411 -0.5682
  625THF    H1013142   0.534   4.780   0.864 -1.4879  1.7856  2.5836
  625THF    H1113143   0.636   4.904   0.831  0.3535  0.0985 -1.4151
  625THF    H1213144   0.651   4.976   1.046  1.0093  1.0876 -2.0379
  625THF    H1313145   0.521   4.882   1.091 -0.9469  0.6890  1.5307
  626THF     O113146   0.547   4.991   1.367 -0.4128  0.4248 -0.2939
  626THF     C213147   0.403   4.980   1.359  0.0614  1.0984 -0.6309
  626THF     C313148   0.585   5.081   1.469  0.0691 -0.3915  0.0382
  626THF     H413149   0.371   4.904   1.430  0.3498  2.2207 -0.0155
  626THF     H513150   0.383   4.930   1.264  2.5778  0.0623 -0.8300
  626THF     H613151   0.603   5.036   1.570 -0.8823 -0.5901  1.2765
  626THF     H713152   0.675   5.127   1.428 -1.4054 -1.0097  1.9085
  626THF     C813153   0.467   5.177   1.468 -1.0927 -0.2242 -0.3837
  626THF     C913154   0.360   5.123   1.375 -0.1407  0.1106  0.8088
  626THF    H1013155   0.508   5.274   1.437 -0.3133  1.0484 -1.6072
  626THF    H1113156   0.423   5.202   1.571 -0.6515 -1.1076 -0.3246
  626THF    H1213157   0.260   5.117   1.402  1.0378 -0.3200 -0.6954
  626THF    H1313158   0.366   5.169   1.279  1.7157  0.2538  0.2315
  627THF     O113159   4.067   4.118   5.239  0.3930 -0.0211  0.2833
  627THF     C213160   4.056   4.035   5.120  0.4089 -1.1868  0.2308
  627THF     C313161   3.968   4.213   5.221  0.0107 -0.0805  0.0381
  627THF     H413162   3.966   3.968   5.129 -3.2379  1.4508  1.1781
  627THF     H513163   4.148   3.976   5.104 -1.9960  2.5296 -1.3944
  627THF     H613164   3.881   4.155   5.218  1.3267  2.0133 -1.1433
  627THF     H713165   3.966   4.282   5.303 -0.3989 -1.9440 -0.0625
  627THF     C813166   3.979   4.262   5.079 -0.4461 -0.0608  0.0110
  627THF     C913167   4.021   4.134   5.009 -0.4580 -0.3385  0.0848
  627THF    H1013168   4.058   4.331   5.068  1.1466  0.0484  0.4807
  627THF    H1113169   3.887   4.304   5.045 -1.4647  2.0753 -1.2209
  627THF    H1213170   3.933   4.106   4.947  0.2838 -0.6418  0.1859
  627THF    H1313171   4.099   4.153   4.941 -1.8999  1.9290  2.1806
  628THF     O113172   5.254   0.770   3.829  0.5178 -0.1799  0.1752
  628THF     C213173   5.347   0.684   3.890  1.2232  0.4386 -0.0894
  628THF     C313174   5.267   0.904   3.878  0.0171 -0.1734  0.4222
  628THF     H413175   5.442   0.698   3.854 -2.8803 -1.9974  0.0924
  628THF     H513176   5.330   0.579   3.875  2.4945  1.6179  0.9767
  628THF     H613177   5.337   0.962   3.819  0.2784 -3.1210  0.0645
  628THF     H713178   5.164   0.949   3.868  0.3799 -0.8968 -1.5114
  628THF     C813179   5.308   0.886   4.019 -0.1372 -0.3274 -0.3126
  628THF     C913180   5.337   0.738   4.033 -0.3755 -0.2615  0.4636
  628THF    H1013181   5.231   0.914   4.087  1.1519  1.5683  0.3508
  628THF    H1113182   5.396   0.941   4.048 -0.8266  0.1067  5.4543
  628THF    H1213183   5.431   0.739   4.101  2.9343  3.3959 -0.1186
  628THF    H1313184   5.265   0.686   4.085  0.2972  1.4727  1.9716
  629THF     O113185   1.728   4.447   4.923 -0.1279  0.1014  0.1393
  629THF     C213186   1.656   4.458   5.043  0.0329  0.2136 -0.4126
  629THF     C313187   1.804   4.559   4.891  0.7216  0.1805  0.5072
  629THF     H413188   1.614   4.359   5.079  0.9114  0.8921  0.0912
  629THF     H513189   1.574   4.527   5.023 -2.5939 -0.5626 -0.3677
  629THF     H613190   1.882   4.530   4.813  1.2777 -2.5928 -0.5039
  629THF     H713191   1.723   4.631   4.866 -1.2956 -2.1779 -2.5088
  629THF     C813192   1.862   4.587   5.024 -0.1833  0.1224 -0.0200
  629THF     C913193   1.773   4.511   5.125  0.2782 -0.3388 -0.0743
  629THF    H1013194   1.851   4.694   5.048 -2.6635  0.3513  2.8756
  629THF    H1113195   1.974   4.564   5.027 -0.1754  0.1595 -0.2193
  629THF    H1213196   1.842   4.426   5.161 -0.5408 -0.7069 -1.0714
  629THF    H1313197   1.747   4.570   5.215 -2.6080  0.1375 -0.8628
  630THF     O113198   4.961   5.190   1.492 -0.4171  0.2224  0.5787
  630THF     C213199   5.003   5.302   1.575  0.8016  0.0559 -0.1846
  630THF     C313200   4.985   5.071   1.560  0.3791  0.6234 -0.1692
  630THF     H413201   4.939   5.392   1.551 -1.2515  2.0304 -0.0631
  630THF     H513202   5.112   5.313   1.560 -2.6806  0.4994 -1.1612
  630THF     H613203   4.935   4.981   1.516 -0.7918 -0.3873 -0.7013
  630THF     H713204   5.090   5.055   1.555 -0.1035 -0.2465  2.3283
  630THF     C813205   4.953   5.104   1.708 -0.6276 -0.2431 -0.5327
  630THF     C913206   4.962   5.256   1.716  0.1900  0.3837 -0.6538
  630THF    H1013207   5.030   5.067   1.776  1.6055  2.0954  2.7334
  630THF    H1113208   4.846   5.074   1.730 -1.0158  1.6479  0.6496
  630THF    H1213209   4.857   5.300   1.732 -0.6430  1.1409  1.5579
  630THF    H1313210   5.025   5.285   1.801  0.8208 -0.1824 -0.3226
  631THF     O113211   2.936   0.419   3.808  0.4326 -0.1825 -0.2339
  631THF     C213212   2.814   0.449   3.882  0.1372 -0.1995 -0.4647
  631THF     C313213   2.978   0.281   3.836 -0.1268 -0.2371  0.2881
  631THF     H413214   2.733   0.470   3.809 -1.5776 -1.0352  0.1896
  631THF     H513215   2.840   0.538   3.933  3.1103 -0.5252 -0.2150
  631THF     H613216   2.925   0.213   3.765  1.6877  0.1447 -3.3522
  631THF     H713217   3.084   0.269   3.821 -1.9312  0.1811 -0.4638
  631THF     C813218   2.926   0.260   3.977  0.1613 -0.1584 -0.5688
  631THF     C913219   2.789   0.329   3.967 -0.4567  0.0804 -0.1071
  631THF    H1013220   2.985   0.320   4.049  0.9643  0.6482  1.4168
  631THF    H1113221   2.930   0.153   4.009  1.3001  2.0794 -1.2775
  631THF    H1213222   2.719   0.262   3.916  2.8615 -1.0310  1.0232
  631THF    H1313223   2.765   0.347   4.070  1.3537  0.1083 -0.6199
  632THF     O113224   3.414   5.356   2.997  0.1331  0.7971 -0.3051
  632THF     C213225   3.366   5.392   2.871  0.1982  0.2392 -0.1824
  632THF     C313226   3.350   5.231   3.036  0.2661 -0.8882 -0.2366
  632THF     H413227   3.424   5.474   2.824  0.5682  1.5070 -1.4442
  632THF     H513228   3.259   5.421   2.869  2.0754  0.3329  0.2797
  632THF     H613229   3.393   5.186   3.120 -0.1891 -0.9651  0.4021
  632THF     H713230   3.239   5.245   3.060 -2.3889 -1.1983 -1.8146
  632THF     C813231   3.362   5.149   2.909 -0.4199  0.0781  0.1056
  632THF     C913232   3.375   5.253   2.796 -0.0716 -0.6703  0.0500
  632THF    H1013233   3.269   5.095   2.895  3.7004  1.7635  0.5241
  632THF    H1113234   3.453   5.087   2.919  1.4802 -0.4927  0.7504
  632THF    H1213235   3.476   5.251   2.764  0.8386  0.8938  1.7583
  632THF    H1313236   3.316   5.235   2.702 -3.1389  1.7439 -2.2531
  633THF     O113237   5.314   1.308   2.002 -0.2801 -0.1504 -0.1486
  633THF     C213238   5.397   1.400   1.928  0.2945 -0.0825 -0.2953
  633THF     C313239   5.236   1.385   2.091  0.2799  0.5068 -0.5775
  633THF     H413240   5.429   1.345   1.845  2.7855  0.9142 -3.0607
  633THF     H513241   5.482   1.416   1.993  0.1691 -0.3653 -0.5338
  633THF     H613242   5.147   1.323   2.117 -0.4593  0.3547 -1.8270
  633THF     H713243   5.300   1.394   2.183 -0.2763  1.5528  1.7312
  633THF     C813244   5.206   1.511   2.019 -0.0798 -0.4903  0.3350
  633THF     C913245   5.312   1.525   1.911  0.1943 -0.2297 -0.8957
  633THF    H1013246   5.209   1.594   2.094  1.4401 -1.8145 -0.0483
  633THF    H1113247   5.108   1.499   1.973 -0.9529 -0.0176  4.2665
  633THF    H1213248   5.268   1.515   1.813  0.2980 -2.7709  3.1637
  633THF    H1313249   5.367   1.620   1.918 -2.0769  2.0116  0.9222
  634THF     O113250   1.706   2.499   3.818 -0.3554 -0.4591  0.3149
  634THF     C213251   1.797   2.486   3.925 -0.8727 -0.4911  0.1181
  634THF     C313252   1.736   2.391   3.723 -0.1708 -0.0739 -0.2793
  634THF     H413253   1.752   2.425   4.005  1.2971 -2.2482  0.4954
  634THF     H513254   1.822   2.582   3.972  0.4381  1.3157 -2.1895
  634THF     H613255   1.697   2.294   3.762 -2.4204 -0.1006 -0.8914
  634THF     H713256   1.685   2.426   3.635 -0.1980  1.1280  0.0936
  634THF     C813257   1.886   2.391   3.723 -0.2544 -0.4794 -0.1030
  634THF     C913258   1.918   2.417   3.873  0.1813  0.9323 -0.2708
  634THF    H1013259   1.930   2.461   3.659 -0.8909 -2.1777  0.3343
  634THF    H1113260   1.935   2.301   3.694  2.4966 -0.7794  0.0173
  634THF    H1213261   1.946   2.326   3.926  2.0298  3.3071 -3.1833
  634THF    H1313262   2.004   2.472   3.869 -0.0462 -0.6903 -0.8387
  635THF     O113263   0.043   1.283   3.966  0.1512  0.2231 -0.1232
  635THF     C213264   0.096   1.394   4.035 -0.0439 -0.2814  0.0026
  635THF     C313265  -0.101   1.304   3.944 -0.0911 -0.0715 -0.1208
  635THF     H413266   0.206   1.403   3.999  0.9760 -1.3776 -1.2008
  635THF     H513267   0.090   1.364   4.136 -0.0113  0.9710 -1.0342
  635THF     H613268  -0.137   1.251   3.855 -2.3008 -1.7063 -2.2439
  635THF     H713269  -0.179   1.289   4.023 -2.0827 -3.1476  0.4570
  635THF     C813270  -0.103   1.461   3.924  0.2520 -0.5105  0.4428
  635THF     C913271   0.020   1.520   3.991  0.2316  0.0351  0.0651
  635THF    H1013272  -0.190   1.497   3.976 -0.0210 -2.1287  0.8849
  635THF    H1113273  -0.122   1.483   3.825 -3.8261  0.9411 -0.2333
  635THF    H1213274   0.072   1.578   3.916  2.0452  0.5376 -0.0971
  635THF    H1313275   0.000   1.587   4.074 -0.5355 -1.4974 -0.5229
  636THF     O113276   3.736   4.003   2.159 -0.2810  0.4295 -0.3014
  636THF     C213277   3.682   3.942   2.279 -0.6647 -0.0605 -0.3851
  636THF     C313278   3.852   4.084   2.182  0.5321  0.1096  0.2402
  636THF     H413279   3.646   3.840   2.269  0.5876  1.8127  4.4244
  636THF     H513280   3.595   4.005   2.314 -1.3657 -0.9480  0.9863
  636THF     H613281   3.942   4.049   2.127 -0.9740 -0.8664 -2.2306
  636THF     H713282   3.830   4.184   2.153  1.8598  0.5973 -0.1388
  636THF     C813283   3.866   4.085   2.336 -0.7570  0.1255 -0.5401
  636THF     C913284   3.797   3.960   2.380  0.2960  0.0795 -0.3042
  636THF    H1013285   3.809   4.170   2.378 -2.0105  2.4775  1.0180
  636THF    H1113286   3.970   4.088   2.370  0.1384  0.9289 -2.0230
  636THF    H1213287   3.855   3.870   2.379 -3.4693  0.1920  0.1284
  636THF    H1313288   3.763   3.974   2.482  1.1031 -0.6080 -1.7029
  637THF     O113289   4.110   4.142   1.635  0.9257  0.1361 -0.2029
  637THF     C213290   4.116   4.001   1.653 -0.4512 -0.0376  0.4943
  637THF     C313291   4.152   4.208   1.753  0.2169  0.3106 -0.1480
  637THF     H413292   4.221   3.973   1.623 -1.7070 -1.9368  1.0233
  637THF     H513293   4.047   3.943   1.598 -1.5773 -1.8494  3.1780
  637THF     H613294   4.258   4.243   1.739  0.5610  0.0066 -0.1247
  637THF     H713295   4.093   4.299   1.765 -1.4720 -1.4105 -0.5114
  637THF     C813296   4.139   4.111   1.868  0.2077 -0.8844  0.3784
  637THF     C913297   4.100   3.976   1.800 -0.2622 -0.1839  0.6138
  637THF    H1013298   4.056   4.147   1.932 -0.4917  0.5810  0.3641
  637THF    H1113299   4.228   4.115   1.932  0.1780  1.6491 -1.5190
  637THF    H1213300   4.167   3.903   1.840 -0.5261 -0.7331  0.7507
  637THF    H1313301   4.005   3.931   1.829 -0.5836 -0.9976 -0.2141
  638THF     O113302   3.836   1.236   1.506 -0.5839 -0.2586  0.2898
  638THF     C213303   3.763   1.261   1.385 -0.0216 -0.4083  0.2582
  638THF     C313304   3.768   1.312   1.604  0.6078  0.3060 -0.2650
  638THF     H413305   3.671   1.198   1.379  2.1997 -1.4157  2.1726
  638THF     H513306   3.830   1.230   1.297 -0.3903 -0.1034  0.9760
  638THF     H613307   3.670   1.277   1.643  0.3745  2.0538  2.3693
  638THF     H713308   3.832   1.336   1.687 -0.4484 -0.4153 -0.8029
  638THF     C813309   3.738   1.441   1.528 -0.0813 -0.2990  0.0298
  638THF     C913310   3.726   1.404   1.382  0.5367 -0.4075  0.1855
  638THF    H1013311   3.811   1.525   1.550  1.5562  1.7213  2.2312
  638THF    H1113312   3.644   1.479   1.569 -3.4641  0.3377  0.4119
  638THF    H1213313   3.632   1.439   1.338  0.7598  0.5086  1.0781
  638THF    H1313314   3.808   1.447   1.331 -1.3167 -0.1530  4.5759
  639THF     O113315   1.741   0.006   0.422 -0.2637  0.8596  0.1555
  639THF     C213316   1.786  -0.014   0.298  0.2602 -0.1627 -0.4753
  639THF     C313317   1.860  -0.000   0.506  0.3515  0.2435 -0.0287
  639THF     H413318   1.826   0.068   0.243  2.2450  0.4468  0.9055
  639THF     H513319   1.704  -0.063   0.245 -1.1797 -2.3604 -0.3140
  639THF     H613320   1.920   0.092   0.491  0.4001  0.9115 -1.6187
  639THF     H713321   1.825   0.000   0.615 -0.4223 -0.1649 -2.2729
  639THF     C813322   1.947  -0.118   0.454  0.0497 -0.2336 -0.1107
  639THF     C913323   1.894  -0.133   0.313 -0.4546  0.1570 -0.1098
  639THF    H1013324   1.926  -0.209   0.507  0.0831  0.3671 -0.9564
  639THF    H1113325   2.055  -0.106   0.451 -2.5019 -0.1152 -0.9411
  639THF    H1213326   1.979  -0.114   0.252  2.0459  4.3158 -0.7771
  639THF    H1313327   1.860  -0.237   0.297  1.5868 -0.1215 -1.4553
  640THF     O113328   4.402   4.751   1.934  0.3548  0.0692 -0.0819
  640THF     C213329   4.262   4.742   1.952 -0.7344 -0.4754  0.5672
  640THF     C313330   4.445   4.630   2.000  0.5688  0.2013 -0.0877
  640THF     H413331   4.207   4.825   1.903 -0.4486  0.0741  1.4009
  640THF     H513332   4.245   4.751   2.058  1.4876 -0.5862  0.4857
  640THF     H613333   4.540   4.598   1.950  0.6523  2.7359 -2.0537
  640THF     H713334   4.451   4.631   2.109 -3.7187 -3.6783  1.8306
  640THF     C813335   4.352   4.526   1.955  0.4043  0.2852  0.0881
  640THF     C913336   4.236   4.601   1.902  0.3841 -0.2263 -0.3618
  640THF    H1013337   4.317   4.463   2.044 -1.1583 -2.3990  2.6504
  640THF    H1113338   4.377   4.463   1.874 -1.4969 -0.5982  1.3079
  640THF    H1213339   4.241   4.608   1.790  1.0472 -0.3712 -0.2748
  640THF    H1313340   4.137   4.558   1.943  1.5926  1.6704  0.5274
  641THF     O113341   4.502   2.509   0.338  0.1790  0.0814  0.0619
  641THF     C213342   4.425   2.390   0.296 -0.2697  0.1822  0.1123
  641THF     C313343   4.592   2.545   0.231 -0.5917 -0.4102 -0.3950
  641THF     H413344   4.333   2.383   0.358  1.4640 -0.3101  0.6657
  641THF     H513345   4.484   2.296   0.321  0.7887  0.0173 -0.3153
  641THF     H613346   4.600   2.653   0.244  1.8504  0.7280  2.0570
  641THF     H713347   4.689   2.511   0.243  0.9107  2.0315 -1.4459
  641THF     C813348   4.530   2.495   0.107 -0.4722 -0.3828  0.1245
  641THF     C913349   4.401   2.419   0.147 -0.7015 -0.2945 -0.3312
  641THF    H1013350   4.597   2.431   0.058  0.2541 -0.7161 -1.6331
  641THF    H1113351   4.509   2.581   0.047 -0.8407 -0.2431  1.3407
  641THF    H1213352   4.312   2.489   0.140  1.2500  0.8944 -0.0706
  641THF    H1313353   4.378   2.339   0.090 -0.8286  2.4711  0.0456
  642THF     O113354   0.293   4.647   1.253  0.6089  0.3455  0.2335
  642THF     C213355   0.280   4.620   1.394 -0.4990  0.4871  0.2838
  642THF     C313356   0.167   4.711   1.200  0.2747  0.3118 -0.7781
  642THF     H413357   0.339   4.690   1.452 -0.7999 -0.3615 -0.4946
  642THF     H513358   0.308   4.513   1.421  1.0007 -0.7405 -2.7303
  642THF     H613359   0.167   4.809   1.153  0.8318 -0.6701 -2.5564
  642THF     H713360   0.114   4.643   1.127  0.8922  2.2726 -0.9992
  642THF     C813361   0.089   4.739   1.329 -0.2219 -0.7227  0.1643
  642THF     C913362   0.134   4.636   1.429 -0.4551 -0.3063 -0.7331
  642THF    H1013363  -0.015   4.755   1.322 -1.7638 -0.2862  1.0584
  642THF    H1113364   0.126   4.836   1.361  0.8191 -0.0794 -1.0182
  642THF    H1213365   0.106   4.665   1.530  0.2009 -0.7009 -0.9889
  642THF    H1313366   0.091   4.540   1.399 -0.8023 -0.6145  1.3023
  643THF     O113367   2.066   4.794   1.249 -0.3653  0.2216 -0.4034
  643THF     C213368   2.034   4.892   1.352  0.0141  0.6740  0.3625
  643THF     C313369   2.141   4.692   1.318  0.5443  0.9183  0.6759
  643THF     H413370   1.928   4.891   1.363 -1.0691  0.9035 -1.0772
  643THF     H513371   2.067   4.994   1.319 -1.2108 -0.9163  1.4993
  643THF     H613372   2.057   4.625   1.348 -2.3273  1.1029 -1.6874
  643THF     H713373   2.198   4.625   1.252  3.6534 -3.4184  1.3565
  643THF     C813374   2.215   4.764   1.436 -0.2178  0.3743  0.2955
  643THF     C913375   2.108   4.857   1.480 -0.4386 -0.4162 -0.7583
  643THF    H1013376   2.302   4.818   1.404  0.5883 -2.3555  0.7792
  643THF    H1113377   2.236   4.699   1.523  0.3872 -1.4365  0.7798
  643THF    H1213378   2.033   4.812   1.552 -1.3274  1.0343 -0.0723
  643THF    H1313379   2.135   4.948   1.530 -1.6307  1.6242 -0.0543
  644THF     O113380   1.814   0.857   3.047 -0.2846 -0.2576 -0.2452
  644THF     C213381   1.750   0.735   3.044 -0.6933 -0.0250 -0.2095
  644THF     C313382   1.735   0.971   3.063  0.1066  0.0602  0.0492
  644THF     H413383   1.776   0.674   3.125  0.6463  1.4685 -1.4894
  644THF     H513384   1.771   0.694   2.949 -0.7496 -0.2106 -0.1892
  644THF     H613385   1.782   1.053   3.112 -2.6157 -1.3664 -0.4027
  644THF     H713386   1.712   1.011   2.961 -0.0950  1.8568 -2.0645
  644THF     C813387   1.615   0.910   3.137  0.2651 -0.4675  0.1001
  644THF     C913388   1.599   0.776   3.066 -0.0901 -0.4110 -0.1949
  644THF    H1013389   1.530   0.976   3.133 -1.4292 -0.9574 -0.1186
  644THF    H1113390   1.659   0.891   3.239 -1.2788  0.7293 -0.1478
  644THF    H1213391   1.544   0.699   3.122 -1.6129 -0.6677  1.5602
  644THF    H1313392   1.555   0.792   2.963 -1.5196  1.5337 -2.5659
  645THF     O113393   1.112   4.701   4.611  0.5516 -0.1042 -0.7198
  645THF     C213394   1.020   4.613   4.544  0.6239  1.0198 -0.0763
  645THF     C313395   1.228   4.626   4.632  0.4592 -0.2366 -0.7588
  645THF     H413396   0.962   4.670   4.475  0.3773  1.2609  0.1660
  645THF     H513397   0.969   4.550   4.613 -1.7197  2.8040  1.7150
  645THF     H613398   1.320   4.683   4.600  0.8209 -2.2504 -1.2043
  645THF     H713399   1.238   4.614   4.742  2.3506 -1.9791 -0.9686
  645THF     C813400   1.219   4.494   4.568  0.3866  0.1176 -0.6693
  645THF     C913401   1.105   4.508   4.469 -0.7865  0.0554  0.1091
  645THF    H1013402   1.204   4.406   4.626  1.1690 -1.5982 -1.5420
  645THF    H1113403   1.304   4.485   4.503 -0.5959  0.0842  1.3365
  645THF    H1213404   1.131   4.558   4.373 -1.3359  1.4208 -0.9852
  645THF    H1313405   1.047   4.422   4.437 -2.7923 -1.1178  1.2339
  646THF     O113406   0.056   2.694   3.251  0.2465 -0.6700 -0.4894
  646THF     C213407   0.043   2.551   3.227 -0.4446  0.2012  0.9303
  646THF     C313408   0.094   2.704   3.386  0.3320 -0.3961 -0.4586
  646THF     H413409   0.139   2.507   3.201  2.1694  0.0026  3.4715
  646THF     H513410  -0.025   2.532   3.148 -0.9867 -1.3877  1.4420
  646THF     H613411   0.187   2.663   3.416 -1.4307  0.5560 -0.2249
  646THF     H713412   0.095   2.809   3.423  2.3666  0.4875  2.3425
  646THF     C813413  -0.015   2.613   3.448 -0.6420  1.0406  0.0439
  646THF     C913414  -0.021   2.494   3.355 -0.0243  0.0450  0.6041
  646THF    H1013415  -0.113   2.662   3.431  0.6951  0.9594 -1.6783
  646THF    H1113416  -0.004   2.578   3.554  1.6812 -0.1321  1.8505
  646THF    H1213417   0.035   2.410   3.400 -1.3826 -0.3647 -1.7629
  646THF    H1313418  -0.128   2.465   3.340 -1.4333  1.0857  3.4454
  647THF     O113419   4.044   0.898   1.890  0.0118  0.2747  0.1119
  647THF     C213420   4.041   1.022   1.823 -0.0672 -0.2375  0.6288
  647THF     C313421   4.015   0.922   2.031 -0.3336 -0.3285 -0.3193
  647THF     H413422   4.002   1.008   1.717 -0.2917 -0.7521 -2.4526
  647THF     H513423   4.143   1.069   1.815 -2.1539  2.4390  0.8668
  647THF     H613424   3.941   0.855   2.069  1.5229  0.1675  2.4896
  647THF     H713425   4.113   0.899   2.084  1.9867 -1.5258  0.2633
  647THF     C813426   3.981   1.070   2.050 -0.7157 -0.3139  0.9035
  647THF     C913427   3.952   1.122   1.900  0.3632  0.5832 -0.6505
  647THF    H1013428   4.063   1.116   2.099 -1.9365  0.7787  0.4313
  647THF    H1113429   3.893   1.074   2.110 -1.8663 -1.5879 -1.8592
  647THF    H1213430   3.848   1.112   1.872 -0.8820  0.4046  0.6772
  647THF    H1313431   3.976   1.229   1.886  0.8716  0.0254 -0.8163
  648THF     O113432   2.803   2.975   5.195  0.5331 -0.3551 -0.2547
  648THF     C213433   2.689   3.023   5.256  0.2517  0.3954 -0.5857
  648THF     C313434   2.771   2.842   5.143  0.2750  0.4721 -0.4322
  648THF     H413435   2.710   3.130   5.270 -1.6561  1.4830  1.0050
  648THF     H513436   2.681   2.977   5.359 -2.1871  1.5622 -0.5751
  648THF     H613437   2.831   2.824   5.054 -0.9853  0.4300 -0.3130
  648THF     H713438   2.777   2.759   5.220  0.7833 -0.0275  0.2575
  648THF     C813439   2.625   2.866   5.091  0.1828  0.5971  0.1645
  648THF     C913440   2.566   2.981   5.168  0.2297  0.0239 -0.0821
  648THF    H1013441   2.557   2.784   5.113 -1.4632  0.7337  1.1472
  648THF    H1113442   2.615   2.876   4.982  1.7062 -1.3373 -0.3434
  648THF    H1213443   2.530   3.065   5.108 -0.1754  0.0286 -1.3966
  648THF    H1313444   2.479   2.946   5.225  0.3049 -0.1161  1.3109
  649THF     O113445   0.811   1.661   0.797  0.2167  0.0072 -0.1946
  649THF     C213446   0.828   1.791   0.735 -0.1968  0.4304 -0.7482
  649THF     C313447   0.756   1.565   0.710  0.0013 -0.5470 -0.0993
  649THF     H413448   0.934   1.792   0.687  0.8855 -0.1047 -0.0101
  649THF     H513449   0.835   1.868   0.822  0.1905  1.4555  0.1315
  649THF     H613450   0.829   1.540   0.629  0.4572  0.5600  1.0441
  649THF     H713451   0.725   1.471   0.761 -0.3165 -1.5434 -1.6364
  649THF     C813452   0.641   1.647   0.650 -0.2084  0.8138 -0.0173
  649THF     C913453   0.703   1.788   0.646  0.6339  0.3714  0.2951
  649THF    H1013454   0.547   1.636   0.710 -2.5731  0.0573  0.5351
  649THF    H1113455   0.605   1.616   0.553  1.6574 -1.4454  0.7257
  649THF    H1213456   0.728   1.818   0.546 -1.3695  0.5552 -0.8959
  649THF    H1313457   0.628   1.857   0.688  2.0890 -1.3929 -0.3134
  650THF     O113458   4.135   3.235   0.303 -0.3255  0.5471 -0.5658
  650THF     C213459   4.065   3.237   0.185 -0.0909  0.5820 -0.2324
  650THF     C313460   4.277   3.235   0.281 -1.3375 -0.5256 -0.9623
  650THF     H413461   3.963   3.273   0.201  2.5536 -0.7703 -2.3202
  650THF     H513462   4.050   3.135   0.141  0.5476 -1.5303  1.6996
  650THF     H613463   4.329   3.294   0.344  0.4951 -0.4209  1.3110
  650THF     H713464   4.332   3.138   0.293  0.5640  0.1269 -0.9491
  650THF     C813465   4.289   3.292   0.137  0.4068  0.7877  0.0756
  650THF     C913466   4.148   3.326   0.092 -0.0651 -0.4032 -0.0571
  650THF    H1013467   4.316   3.213   0.076 -3.6005  1.3420  0.4255
  650THF    H1113468   4.355   3.379   0.115  1.2450  1.4960  2.4155
  650THF    H1213469   4.120   3.429   0.106 -1.6322 -1.0840 -0.8298
  650THF    H1313470   4.132   3.302  -0.015  1.8916  1.3212 -3.5108
  651THF     O113471   2.560   3.997   3.675  0.1700  0.3290 -0.2602
  651THF     C213472   2.482   4.009   3.559 -0.6289 -0.8416  0.1137
  651THF     C313473   2.468   4.010   3.782  0.3765 -0.2342  0.3937
  651THF     H413474   2.425   3.925   3.547  3.8534  0.3153  1.8529
  651THF     H513475   2.546   4.029   3.478 -1.7553  0.3220  1.6263
  651THF     H613476   2.407   3.923   3.785 -0.3870 -0.5842 -1.2139
  651THF     H713477   2.530   4.029   3.873 -2.2320  2.1987 -0.6660
  651THF     C813478   2.395   4.138   3.754  0.1545 -0.5382 -0.6166
  651THF     C913479   2.395   4.129   3.602 -0.5293  0.3398 -0.6625
  651THF    H1013480   2.447   4.230   3.792  0.4888 -0.5364  1.1769
  651THF    H1113481   2.296   4.124   3.801 -0.6372  0.6569 -0.1588
  651THF    H1213482   2.300   4.120   3.565  3.7295  0.4843  0.1232
  651THF    H1313483   2.429   4.232   3.564  0.8320 -1.7769 -0.8156
  652THF     O113484   3.961   0.999   5.355  0.5192 -0.5041 -0.3399
  652THF     C213485   3.844   1.051   5.284  0.3314  0.3116  0.1854
  652THF     C313486   3.966   0.857   5.354 -0.6637 -0.9197  0.2715
  652THF     H413487   3.878   1.093   5.186 -0.7615  0.7835  0.6035
  652THF     H513488   3.794   1.136   5.335 -0.6918  0.2026 -4.0677
  652THF     H613489   4.016   0.825   5.266  3.4896 -0.8864 -0.3758
  652THF     H713490   4.003   0.818   5.454 -0.8237 -2.3766 -0.5427
  652THF     C813491   3.821   0.816   5.341 -0.0619  0.4935  0.1725
  652THF     C913492   3.746   0.939   5.275 -0.1819 -0.2828  0.7719
  652THF    H1013493   3.797   0.808   5.440  0.1225  0.9692  0.9815
  652THF    H1113494   3.815   0.727   5.283 -2.0693  2.4634 -0.9112
  652THF    H1213495   3.725   0.932   5.170 -1.0018  1.8459 -1.0025
  652THF    H1313496   3.647   0.961   5.321 -0.8270  0.5911  3.0012
  653THF     O113497   3.595   1.498   5.364  0.1191 -0.3126 -0.5077
  653THF     C213498   3.494   1.396   5.372 -0.0735 -0.3570  0.4681
  653THF     C313499   3.647   1.523   5.493  0.1009 -0.1713  0.6681
  653THF     H413500   3.490   1.342   5.279  1.4826  0.2043  1.4057
  653THF     H513501   3.388   1.432   5.394 -1.9501 -1.5823 -1.4120
  653THF     H613502   3.752   1.551   5.477  1.6084  3.0075  0.3315
  653THF     H713503   3.588   1.607   5.538 -1.5491  0.8608  0.7580
  653THF     C813504   3.628   1.399   5.575 -0.7687  0.0752 -0.0794
  653THF     C913505   3.530   1.313   5.490  0.1118 -0.3844  0.5573
  653THF    H1013506   3.597   1.400   5.682  1.0446 -0.5110  0.9197
  653THF    H1113507   3.730   1.354   5.570 -3.1817  0.9519  0.2826
  653THF    H1213508   3.580   1.218   5.458 -1.1799 -0.8642 -2.3618
  653THF    H1313509   3.439   1.282   5.541  2.3722 -1.2179 -0.9980
  654THF     O113510   4.820   1.971   3.712 -0.0276 -0.6274 -0.1664
  654THF     C213511   4.949   2.032   3.740  0.4594  1.0716  0.1792
  654THF     C313512   4.749   2.067   3.636 -0.0070  0.1841 -0.0899
  654THF     H413513   5.028   1.973   3.788 -0.4128 -1.8897 -0.2165
  654THF     H513514   4.930   2.117   3.805 -1.3326  1.4959  0.8924
  654THF     H613515   4.666   2.025   3.581 -1.2481  1.8187  2.8832
  654THF     H713516   4.714   2.147   3.705  1.8963  0.7001  1.1878
  654THF     C813517   4.859   2.122   3.543  0.5806  0.3671  0.1929
  654THF     C913518   4.989   2.075   3.604 -0.3837 -1.0697 -0.4585
  654THF    H1013519   4.835   2.226   3.527 -1.5236 -0.7654  0.7525
  654THF    H1113520   4.840   2.076   3.442  2.4510 -2.0343  0.7269
  654THF    H1213521   5.017   1.995   3.542  0.9466  0.4064 -1.2269
  654THF    H1313522   5.056   2.163   3.601 -0.8486 -2.8413 -1.2166
  655THF     O113523   3.314   0.772   4.078  0.4516 -0.1633 -0.5022
  655THF     C213524   3.200   0.683   4.107  0.1300  0.4867  0.3919
  655THF     C313525   3.371   0.793   4.208  0.1869  0.1453 -0.6101
  655THF     H413526   3.165   0.626   4.023 -1.3176  0.4447  2.0009
  655THF     H513527   3.107   0.740   4.130 -0.3950 -2.4472  2.7089
  655THF     H613528   3.467   0.841   4.188  2.1157  2.2129 -1.8813
  655THF     H713529   3.303   0.857   4.261 -1.2238  0.4040 -0.1419
  655THF     C813530   3.391   0.648   4.247  0.9743 -0.8649 -0.3852
  655THF     C913531   3.247   0.596   4.223 -0.4365 -0.3583  1.0185
  655THF    H1013532   3.409   0.631   4.351 -1.1425  1.1209  0.3694
  655THF    H1113533   3.458   0.586   4.194  2.8359 -1.9279  3.2220
  655THF    H1213534   3.246   0.487   4.199 -0.3383 -2.2627  1.0847
  655THF    H1313535   3.179   0.610   4.306 -0.8475  2.8073  2.0531
  656THF     O113536   2.299   3.360   4.329  0.0310 -0.2156  0.0287
  656THF     C213537   2.272   3.499   4.354 -0.0739  1.2182 -0.4777
  656THF     C313538   2.308   3.289   4.448  0.7653  0.7970 -0.1825
  656THF     H413539   2.161   3.520   4.340 -0.5419  0.8675 -1.1175
  656THF     H513540   2.315   3.552   4.270 -1.6992 -1.4113 -1.3830
  656THF     H613541   2.222   3.219   4.452  2.0385  0.1655  0.6022
  656THF     H713542   2.394   3.225   4.440 -1.1080  2.0920 -1.8748
  656THF     C813543   2.321   3.398   4.564  0.8392  0.8828 -0.9414
  656THF     C913544   2.329   3.527   4.495 -0.0587  0.4872  0.0065
  656THF    H1013545   2.414   3.369   4.615 -1.2781 -0.5233 -0.9262
  656THF    H1113546   2.230   3.395   4.623 -1.4480  0.7984 -0.4778
  656THF    H1213547   2.281   3.606   4.537  1.5489  0.8742 -2.2908
  656THF    H1313548   2.435   3.553   4.476  0.0475 -0.6627 -1.5378
  657THF     O113549   3.283   0.387   3.619 -0.3372  0.4270 -0.3755
  657THF     C213550   3.353   0.293   3.695 -0.1000  0.0747 -0.0850
  657THF     C313551   3.302   0.360   3.488  1.3011  0.3981 -0.4381
  657THF     H413552   3.311   0.202   3.717  1.0147 -0.7909  1.3437
  657THF     H513553   3.389   0.323   3.794  1.4566 -0.6703  0.6200
  657THF     H613554   3.251   0.275   3.448 -1.5807  1.1351  0.1578
  657THF     H713555   3.271   0.451   3.438  2.8295  0.0014 -1.3743
  657THF     C813556   3.459   0.343   3.493  0.4538 -0.0513  0.7631
  657THF     C913557   3.478   0.256   3.619  0.3689 -0.5431 -0.5866
  657THF    H1013558   3.501   0.438   3.503  0.2662 -0.3368  1.4250
  657THF    H1113559   3.505   0.296   3.405 -0.0316 -1.0774 -0.5514
  657THF    H1213560   3.493   0.147   3.607 -1.0969  0.0843  0.9867
  657THF    H1313561   3.567   0.290   3.682  0.3225 -0.1068 -1.5731
  658THF     O113562   1.831   0.963   5.465 -0.3337  0.0647  0.7352
  658THF     C213563   1.780   1.076   5.400 -0.3567  0.5132 -0.8657
  658THF     C313564   1.869   0.864   5.367 -0.0518 -0.3063  0.0268
  658THF     H413565   1.852   1.148   5.361 -2.3533  1.6628  0.2900
  658THF     H513566   1.712   1.142   5.461 -1.9615  1.2509  1.2277
  658THF     H613567   1.975   0.844   5.362 -0.9208 -0.7192 -3.0729
  658THF     H713568   1.823   0.773   5.398  0.4014 -1.7340  0.3206
  658THF     C813569   1.813   0.915   5.235 -0.0520 -0.5453  0.3412
  658THF     C913570   1.707   1.017   5.281 -0.3390  0.4238  0.2807
  658THF    H1013571   1.778   0.847   5.157  0.2927  0.7951  1.3060
  658THF    H1113572   1.894   0.975   5.193  1.6116 -3.9114  3.3259
  658THF    H1213573   1.678   1.074   5.192  0.3146 -2.0564 -1.1147
  658THF    H1313574   1.618   0.961   5.314 -0.4589 -1.9968 -2.6129
  659THF     O113575   1.874   1.955   2.669 -0.3706 -0.0122 -0.2440
  659THF     C213576   1.753   2.000   2.616 -0.0208 -0.5601  0.2045
  659THF     C313577   1.966   2.059   2.664 -0.5343 -0.2884  0.8723
  659THF     H413578   1.684   2.008   2.701  0.1754  0.4930 -1.0834
  659THF     H513579   1.725   1.920   2.547  0.1198 -1.0937  0.8153
  659THF     H613580   1.954   2.129   2.751  1.3308 -0.3492 -0.2853
  659THF     H713581   2.069   2.020   2.661  1.7250 -1.4468  1.7375
  659THF     C813582   1.936   2.136   2.538  0.1214 -0.0817  0.0322
  659THF     C913583   1.786   2.138   2.543  0.7806 -0.0508 -0.5835
  659THF    H1013584   1.972   2.070   2.461  0.9502 -1.8522  0.0221
  659THF    H1113585   1.983   2.238   2.539 -2.5743  2.0885  2.7099
  659THF    H1213586   1.760   2.222   2.603 -0.5243 -0.1765  0.7861
  659THF    H1313587   1.735   2.149   2.445  2.4700 -1.1227  0.2538
  660THF     O113588   1.241   0.927   3.916  0.1087  0.3163  0.3102
  660THF     C213589   1.144   1.011   3.979  0.1737 -0.1505  0.9046
  660THF     C313590   1.342   1.005   3.852  0.0815 -0.3126  0.5802
  660THF     H413591   1.131   0.995   4.092 -1.6906 -1.8451  0.0903
  660THF     H513592   1.049   0.992   3.956  2.6178  0.8902  0.3660
  660THF     H613593   1.441   1.020   3.902 -0.2618  2.3674 -0.6897
  660THF     H713594   1.378   0.952   3.763 -0.1296 -2.7259 -3.6917
  660THF     C813595   1.283   1.140   3.837  0.3978 -0.2366 -0.2170
  660THF     C913596   1.193   1.149   3.958  0.2564 -0.0037 -0.1752
  660THF    H1013597   1.217   1.159   3.754 -0.7046  1.0100  0.5737
  660THF    H1113598   1.359   1.210   3.835 -1.9234 -0.7843 -0.7290
  660THF    H1213599   1.236   1.205   4.040  1.7829 -1.1726 -1.7805
  660THF    H1313600   1.093   1.200   3.928  0.4295 -0.3315 -3.5489
  661THF     O113601   2.956   4.428   5.263  0.5459  0.0723  0.1693
  661THF     C213602   3.012   4.305   5.234 -0.0403 -0.6113  1.3213
  661THF     C313603   2.815   4.410   5.260  0.5131  0.1378  0.3558
  661THF     H413604   3.018   4.265   5.339 -0.8108 -0.9839  2.1871
  661THF     H513605   3.105   4.305   5.180 -0.1775 -0.7927  0.0148
  661THF     H613606   2.774   4.357   5.347 -0.8584  2.3145 -1.2737
  661THF     H713607   2.759   4.507   5.246  1.5532  0.5489 -1.1822
  661THF     C813608   2.797   4.325   5.135  0.1069  0.4575 -0.1317
  661THF     C913609   2.905   4.224   5.153  0.3772 -0.4073  0.9108
  661THF    H1013610   2.805   4.395   5.054 -2.2391 -0.9239 -0.3182
  661THF    H1113611   2.703   4.275   5.144 -0.0776  2.3175  1.3967
  661THF    H1213612   2.875   4.135   5.207  0.0387 -0.9656 -0.9165
  661THF    H1313613   2.943   4.202   5.057 -0.0652  3.2674 -0.4421
  662THF     O113614   1.259   4.041   4.744  0.5356 -0.0130 -0.0326
  662THF     C213615   1.308   3.970   4.863  0.2361 -0.3047  0.5290
  662THF     C313616   1.243   4.180   4.768  0.1116  0.3290  0.6712
  662THF     H413617   1.386   3.901   4.841  0.8228  0.9836 -1.0585
  662THF     H513618   1.227   3.914   4.924 -4.1148 -0.2118 -0.3639
  662THF     H613619   1.314   4.237   4.716 -1.4460  0.1587  1.4869
  662THF     H713620   1.143   4.220   4.741 -0.6418 -0.6712  1.1911
  662THF     C813621   1.271   4.200   4.913  0.4932 -0.3858 -0.0389
  662THF     C913622   1.360   4.085   4.953 -0.5720 -0.8312  0.7109
  662THF    H1013623   1.172   4.185   4.954  0.5342  0.9808  0.1906
  662THF    H1113624   1.313   4.296   4.948 -1.0921 -1.6124 -0.1369
  662THF    H1213625   1.465   4.118   4.923  2.6889 -1.8831  2.3653
  662THF    H1313626   1.359   4.067   5.056  1.4417 -0.5881 -1.7831
  663THF     O113627   3.303   2.064   5.345 -0.9010  0.3699  0.0621
  663THF     C213628   3.181   2.013   5.409  0.1520  0.2880  0.3109
  663THF     C313629   3.332   2.177   5.412 -0.8422  0.0667 -0.2336
  663THF     H413630   3.208   1.951   5.497  0.0827  0.3508  1.7895
  663THF     H513631   3.120   1.947   5.351  0.8588 -1.9260  1.6471
  663THF     H613632   3.379   2.165   5.510  3.2510 -0.7584  1.2694
  663THF     H713633   3.401   2.243   5.357 -1.0091  0.3943 -2.7551
  663THF     C813634   3.204   2.251   5.438  0.5800 -0.1395 -0.2706
  663THF     C913635   3.100   2.131   5.462 -0.2134  0.5147 -0.5599
  663THF    H1013636   3.171   2.311   5.353 -0.3121  1.7049 -0.1964
  663THF    H1113637   3.217   2.313   5.530 -0.4139 -2.3240  4.2365
  663THF    H1213638   3.070   2.122   5.567  1.7205 -1.5285 -1.7475
  663THF    H1313639   3.011   2.147   5.409  0.5153  0.3272  2.6466
  664THF     O113640   4.997   3.873   5.325  0.2711  0.2686  0.2254
  664THF     C213641   5.108   3.789   5.316  1.0147 -0.1366  0.3982
  664THF     C313642   4.885   3.798   5.368  0.7816 -0.4750  0.4255
  664THF     H413643   5.196   3.825   5.369 -2.4586  1.2550 -0.2452
  664THF     H513644   5.149   3.778   5.214 -0.9603  3.8515 -0.2093
  664THF     H613645   4.880   3.811   5.478 -1.7671 -2.4493  0.3034
  664THF     H713646   4.795   3.832   5.317 -1.6875 -0.0969  2.7469
  664THF     C813647   4.920   3.655   5.345  0.3932  1.0282 -0.4320
  664THF     C913648   5.068   3.656   5.373 -0.0653  0.6003 -0.3648
  664THF    H1013649   4.897   3.635   5.242 -1.5526 -0.5966  3.4304
  664THF    H1113650   4.867   3.580   5.406  0.9755 -1.2582  0.8607
  664THF    H1213651   5.076   3.653   5.481  2.1341 -0.1383 -1.4863
  664THF    H1313652   5.128   3.571   5.335  5.0787 -0.5835  0.3889
  665THF     O113653   0.031   0.790   4.524  0.0251  0.2771  0.2545
  665THF     C213654  -0.054   0.736   4.429  0.1068  0.2297 -0.4720
  665THF     C313655   0.019   0.932   4.498  0.0796  0.5321  0.1221
  665THF     H413656  -0.098   0.635   4.460 -1.4510 -3.0339 -2.0872
  665THF     H513657  -0.001   0.721   4.330  0.2871  1.3513  0.9147
  665THF     H613658   0.042   0.984   4.594  0.1063 -2.4837 -1.6680
  665THF     H713659   0.096   0.962   4.427 -1.0118  0.7473  1.1649
  665THF     C813660  -0.132   0.958   4.453 -0.3118 -0.4607  0.1020
  665THF     C913661  -0.185   0.818   4.431 -0.1682  0.2584  0.0256
  665THF    H1013662  -0.139   1.015   4.365  0.4957 -0.4992  1.2486
  665THF    H1113663  -0.180   1.007   4.536  2.9976  2.9960  0.3788
  665THF    H1213664  -0.254   0.790   4.505 -2.2127  3.3442 -1.1630
  665THF    H1313665  -0.231   0.807   4.331  1.7699 -1.9847 -1.9049
  666THF     O113666   0.192   4.851   5.126  0.4536  0.1792 -0.0415
  666THF     C213667   0.109   4.828   5.247  0.2692 -1.0152  0.1282
  666THF     C313668   0.280   4.949   5.165 -0.1037  0.2916  0.0082
  666THF     H413669   0.163   4.799   5.334 -0.2788 -1.9819  0.0837
  666THF     H513670   0.030   4.751   5.236  1.4795  2.9734 -1.7360
  666THF     H613671   0.357   4.910   5.238  0.4212 -3.0868  0.9371
  666THF     H713672   0.340   4.984   5.079  0.8758 -1.5738  1.2467
  666THF     C813673   0.185   5.053   5.227  0.4820  0.8925  0.2472
  666THF     C913674   0.059   4.973   5.278  0.1503  0.2381  0.1190
  666THF    H1013675   0.153   5.138   5.154  0.7118 -0.3515 -1.0262
  666THF    H1113676   0.231   5.108   5.304 -1.7075  0.5836 -1.7082
  666THF    H1213677   0.032   4.984   5.386  0.3378  0.3666 -0.6933
  666THF    H1313678  -0.029   4.996   5.212  0.0048 -1.9592  0.1548
  667THF     O113679   4.633   1.120   2.030 -0.1429  0.2470 -0.1487
  667THF     C213680   4.530   1.104   1.933 -0.8269 -0.5041 -0.1913
  667THF     C313681   4.602   1.235   2.110  0.3046 -0.6920  0.8657
  667THF     H413682   4.525   1.001   1.913  0.2313  0.2635  1.0104
  667THF     H513683   4.557   1.167   1.852  0.1793 -0.7959 -0.4138
  667THF     H613684   4.640   1.221   2.212 -0.5292  0.5620 -0.6562
  667THF     H713685   4.667   1.311   2.077 -0.5840  1.0981 -0.5851
  667THF     C813686   4.454   1.271   2.091 -0.4998 -1.2224  0.4441
  667THF     C913687   4.404   1.158   2.001  0.8311  1.1634 -0.3434
  667THF    H1013688   4.439   1.372   2.050  1.3351 -0.7118 -1.4128
  667THF    H1113689   4.400   1.291   2.184  1.0196 -3.1822  2.6835
  667THF    H1213690   4.366   1.082   2.073 -0.3736  0.3438  0.9871
  667THF    H1313691   4.328   1.175   1.927 -2.5052  2.4887  1.8709
  668THF     O113692   4.877   2.604   2.781 -0.5066 -0.1346  0.5492
  668THF     C213693   4.847   2.576   2.919  0.4128  0.5755  0.3914
  668THF     C313694   4.746   2.636   2.730  0.1622  0.2592  0.3957
  668THF     H413695   4.948   2.567   2.967 -1.7261  2.3440 -0.1009
  668THF     H513696   4.785   2.494   2.943  0.5878 -1.7838  1.7715
  668THF     H613697   4.742   2.699   2.643 -0.8691  0.0902  0.4779
  668THF     H713698   4.696   2.545   2.709 -1.6544  0.4027  0.3658
  668THF     C813699   4.682   2.723   2.834  0.6053  0.8537  0.1184
  668THF     C913700   4.763   2.690   2.960  0.0654  0.2140 -1.4298
  668THF    H1013701   4.579   2.700   2.851  0.5737 -0.2901 -0.0552
  668THF    H1113702   4.708   2.823   2.812  1.6762  1.6345  0.5560
  668THF    H1213703   4.829   2.775   2.977  0.5956  0.7926 -0.4529
  668THF    H1313704   4.704   2.675   3.048  2.4945 -0.2389 -0.9048
  669THF     O113705   0.686   2.983   0.936  0.1376  1.0762  0.4607
  669THF     C213706   0.647   2.876   1.013  0.0892  0.1990 -0.7469
  669THF     C313707   0.676   3.092   1.022 -0.0917 -0.1936  0.2629
  669THF     H413708   0.691   2.793   0.956  0.4633  2.4349 -1.9944
  669THF     H513709   0.535   2.881   1.007 -2.3665 -0.4925  2.6553
  669THF     H613710   0.721   3.184   0.976  1.4633 -0.1602 -0.0797
  669THF     H713711   0.571   3.114   1.036  1.1127  1.1773 -0.9085
  669THF     C813712   0.753   3.035   1.147 -0.1386 -0.0615 -0.0276
  669THF     C913713   0.706   2.892   1.151  0.0244 -0.0920 -0.0387
  669THF    H1013714   0.708   3.086   1.238 -0.8084 -2.1372 -1.2173
  669THF    H1113715   0.859   3.035   1.129  1.0201  0.4139 -0.5852
  669THF    H1213716   0.791   2.830   1.179 -2.5733  2.2310 -0.2329
  669THF    H1313717   0.633   2.878   1.226  3.0923 -1.0052 -1.0361
  670THF     O113718   1.842   3.435   5.038  0.1248 -0.0905  0.1552
  670THF     C213719   1.949   3.434   4.940  0.4105 -0.4916  0.0686
  670THF     C313720   1.747   3.342   5.001 -0.1344 -0.0177 -0.1326
  670THF     H413721   2.021   3.353   4.961 -2.0961 -0.2895  0.4959
  670THF     H513722   1.999   3.535   4.935  1.8122  0.6510 -2.0766
  670THF     H613723   1.783   3.246   5.033  0.1992 -0.5294 -1.6515
  670THF     H713724   1.657   3.370   5.058 -0.8928  2.8386 -0.2730
  670THF     C813725   1.744   3.354   4.850 -0.4173  0.2376 -0.1112
  670THF     C913726   1.876   3.416   4.806 -0.0408 -0.5265  0.6361
  670THF    H1013727   1.659   3.418   4.831 -0.0113  0.3709  1.4687
  670THF    H1113728   1.722   3.260   4.809  0.8809  0.4544  1.4702
  670THF    H1213729   1.935   3.347   4.742  1.4579  1.8373 -1.9870
  670THF    H1313730   1.862   3.519   4.761 -0.9889  0.9930  1.3060
  671THF     O113731   2.630   3.189   0.461 -0.8118  0.3678 -1.2469
  671THF     C213732   2.627   3.147   0.597  0.0609 -0.1201  0.0869
  671THF     C313733   2.515   3.137   0.390 -0.2535  0.4798  0.0153
  671THF     H413734   2.648   3.224   0.668  1.1473 -1.1480 -0.0707
  671THF     H513735   2.706   3.076   0.614  0.9596  3.0876  1.2778
  671THF     H613736   2.440   3.222   0.394  4.1502  1.0611  1.0027
  671THF     H713737   2.526   3.114   0.282 -0.4808  1.6911 -0.1567
  671THF     C813738   2.464   3.024   0.474  0.0416 -0.2851 -0.2888
  671THF     C913739   2.491   3.082   0.612  1.1638 -0.2146  0.0021
  671THF    H1013740   2.521   2.936   0.475 -1.5967  2.0403  2.3572
  671THF    H1113741   2.355   2.997   0.452 -1.3492  0.1238 -0.7761
  671THF    H1213742   2.417   3.147   0.631 -2.5920 -1.8639 -0.7782
  671THF    H1313743   2.485   3.012   0.691  0.2326  3.1772 -2.1944
  672THF     O113744   1.732   1.524   4.635 -0.4333  0.1356 -0.4813
  672THF     C213745   1.868   1.499   4.607  1.2440 -0.3891 -0.3234
  672THF     C313746   1.661   1.574   4.522  0.0143 -0.1999 -0.9719
  672THF     H413747   1.888   1.391   4.587 -0.6825 -1.4922  2.4760
  672THF     H513748   1.930   1.525   4.694 -0.6231 -0.7407 -3.2579
  672THF     H613749   1.641   1.508   4.443  0.2244  1.2411  3.1594
  672THF     H713750   1.576   1.639   4.557  2.9261 -0.6301 -2.0764
  672THF     C813751   1.765   1.677   4.480 -0.1160 -0.1191 -0.3960
  672THF     C913752   1.894   1.597   4.488 -0.0193  0.3271  0.9405
  672THF    H1013753   1.777   1.755   4.558  0.1859  0.7295 -1.4214
  672THF    H1113754   1.735   1.725   4.384 -1.1200 -0.7770 -1.7097
  672THF    H1213755   1.904   1.530   4.399  1.3206 -0.4178 -2.6446
  672THF    H1313756   1.982   1.660   4.498 -0.2402 -1.2179 -0.0666
  673THF     O113757   2.048   3.617   3.392  0.0017 -0.4841 -0.3025
  673THF     C213758   2.080   3.721   3.304 -0.0850  0.1874  0.4130
  673THF     C313759   2.123   3.658   3.512 -0.4779 -0.7548  0.3053
  673THF     H413760   2.017   3.725   3.217  0.3633 -0.5290 -0.7159
  673THF     H513761   2.179   3.708   3.262 -3.5529 -2.7899 -2.4087
  673THF     H613762   2.096   3.610   3.608  1.1525 -1.1451  1.6136
  673THF     H713763   2.231   3.656   3.510 -1.9155  2.5486 -0.3609
  673THF     C813764   2.098   3.807   3.536 -0.6867 -0.5964  0.0420
  673THF     C913765   2.069   3.851   3.389  0.0043  0.2632 -0.4894
  673THF    H1013766   2.178   3.860   3.594 -0.3380 -0.4542 -1.0291
  673THF    H1113767   2.009   3.819   3.600 -2.5808  0.8866 -0.3035
  673THF    H1213768   1.965   3.889   3.394  0.4820  0.8458  0.8430
  673THF    H1313769   2.137   3.924   3.345  2.0202 -2.6251 -1.3398
  674THF     O113770   1.625   4.115   3.069 -0.3451 -0.2163  0.3047
  674THF     C213771   1.671   4.074   2.939 -0.2537 -0.1955 -0.4939
  674THF     C313772   1.684   4.025   3.168  0.1124 -0.7915 -0.0408
  674THF     H413773   1.777   4.104   2.914 -0.6706  2.1059  0.0486
  674THF     H513774   1.612   4.111   2.860 -1.1221 -3.6708 -0.2523
  674THF     H613775   1.780   4.067   3.204  2.4466  0.5639 -0.8123
  674THF     H713776   1.627   4.009   3.260  3.4606 -2.5103  1.0123
  674THF     C813777   1.702   3.894   3.093 -0.1651 -0.2785 -0.6270
  674THF     C913778   1.668   3.917   2.949  0.0838  0.0105 -0.6422
  674THF    H1013779   1.656   3.806   3.144 -0.0241 -0.3559  0.0544
  674THF    H1113780   1.816   3.877   3.094  2.0572 -3.4354  0.4583
  674THF    H1213781   1.731   3.861   2.883 -1.6682  0.3360  1.3886
  674THF    H1313782   1.569   3.888   2.924  0.2906  0.0370 -0.8326
  675THF     O113783   1.462   2.253   3.679  0.4258  0.3459  0.3042
  675THF     C213784   1.404   2.305   3.800  0.2778 -0.2953 -0.1403
  675THF     C313785   1.414   2.121   3.650  0.3985 -0.0446 -0.7298
  675THF     H413786   1.416   2.413   3.790  0.6398  0.1322 -5.3324
  675THF     H513787   1.457   2.271   3.888  0.3978 -3.1600 -1.9208
  675THF     H613788   1.399   2.113   3.543  0.5717  2.0688  1.3476
  675THF     H713789   1.496   2.055   3.677  0.7764  0.5009  2.3263
  675THF     C813790   1.282   2.105   3.731  0.2851  0.3690  0.1540
  675THF     C913791   1.267   2.241   3.792  0.1389  0.3243 -0.1681
  675THF    H1013792   1.276   2.034   3.816 -0.9336 -0.6164  1.0987
  675THF    H1113793   1.196   2.079   3.667  2.3790  0.7343  0.6681
  675THF    H1213794   1.201   2.296   3.726 -0.8735 -1.3217 -2.4615
  675THF    H1313795   1.215   2.239   3.890 -1.4335 -0.5822  3.2124
  676THF     O113796   5.160   4.283   2.547 -0.3608  0.0081 -0.2819
  676THF     C213797   5.283   4.231   2.494  0.4524  1.1745 -0.0403
  676THF     C313798   5.136   4.404   2.479  0.5672 -0.2096  0.7415
  676THF     H413799   5.277   4.145   2.430  3.1379 -1.0040 -0.5402
  676THF     H513800   5.331   4.188   2.591  0.8623  0.5526 -0.1514
  676THF     H613801   5.095   4.387   2.378  3.2532 -0.8448  0.1046
  676THF     H713802   5.061   4.458   2.537  0.6907 -0.3514 -0.4592
  676THF     C813803   5.272   4.469   2.475 -0.5903  0.6252 -0.6572
  676THF     C913804   5.358   4.348   2.430 -0.3467  0.0032  0.1438
  676THF    H1013805   5.296   4.511   2.576 -2.2164 -2.4650  2.1582
  676THF    H1113806   5.272   4.562   2.412 -2.6382 -0.3014  0.5934
  676THF    H1213807   5.353   4.341   2.320 -2.4893  0.8892 -2.9640
  676THF    H1313808   5.464   4.362   2.451 -0.5041 -1.3568 -1.6922
  677THF     O113809   4.219   1.598   4.103 -0.4513 -0.2292 -0.2726
  677THF     C213810   4.122   1.499   4.149  0.6182 -0.0051  0.5791
  677THF     C313811   4.346   1.547   4.142  0.5514  0.0319  0.1704
  677THF     H413812   4.030   1.504   4.085  2.0138  0.9049  0.8695
  677THF     H513813   4.099   1.521   4.248 -1.9953  2.1966  2.9028
  677THF     H613814   4.440   1.581   4.101  0.0836 -0.0098  0.0525
  677THF     H713815   4.371   1.559   4.248 -3.1862 -1.1281  0.6824
  677THF     C813816   4.328   1.403   4.104 -0.9767  0.1396 -0.6372
  677THF     C913817   4.185   1.366   4.137 -0.4400 -0.2669 -0.5431
  677THF    H1013818   4.401   1.341   4.150 -0.3013  1.2493 -0.5195
  677THF    H1113819   4.349   1.382   4.003  0.7399  2.1204  1.7289
  677THF    H1213820   4.143   1.300   4.063  0.4675  0.5836  0.1431
  677THF    H1313821   4.186   1.313   4.230 -1.7524  0.2749 -2.8592
  678THF     O113822   0.463   3.794   5.491  0.2608 -0.4988  0.1044
  678THF     C213823   0.375   3.901   5.479 -0.2103  0.0832  0.1132
  678THF     C313824   0.468   3.722   5.366 -0.1865  0.6716 -0.3452
  678THF     H413825   0.440   3.986   5.445 -0.5508  0.5912 -1.0166
  678THF     H513826   0.315   3.935   5.574  1.7319 -1.2742  2.0753
  678THF     H613827   0.549   3.753   5.302 -2.5345 -1.8250 -0.0499
  678THF     H713828   0.476   3.618   5.389  1.4672 -0.5975  3.7697
  678THF     C813829   0.336   3.743   5.294  0.1679 -0.1436 -0.5234
  678THF     C913830   0.265   3.843   5.379  0.3232  0.2654 -1.0102
  678THF    H1013831   0.274   3.648   5.287 -1.1749  2.8083  2.0063
  678THF    H1113832   0.346   3.765   5.184  2.6244  0.5173 -0.2409
  678THF    H1213833   0.209   3.917   5.313 -0.4371  3.3357 -3.1946
  678THF    H1313834   0.189   3.784   5.429 -0.7806 -0.7789 -0.7329
  679THF     O113835   0.223   4.032   4.566  0.1096  0.1225  0.0920
  679THF     C213836   0.226   4.173   4.545 -0.1548  0.9701  0.2384
  679THF     C313837   0.246   3.976   4.438  0.0533  1.1672  0.1674
  679THF     H413838   0.228   4.237   4.629  0.9604 -0.2512 -2.1637
  679THF     H513839   0.152   4.212   4.478  4.0177 -0.8246  3.4535
  679THF     H613840   0.260   3.861   4.444 -0.7048 -0.4696 -0.3234
  679THF     H713841   0.168   3.991   4.366  1.2501 -2.6846  0.7350
  679THF     C813842   0.375   4.042   4.392 -0.0049 -0.4591  0.0604
  679THF     C913843   0.365   4.172   4.469 -0.3395 -0.8956 -0.2026
  679THF    H1013844   0.375   4.056   4.286  1.3306  1.3172 -0.6596
  679THF    H1113845   0.460   3.991   4.421  0.0824  3.5085  1.9714
  679THF    H1213846   0.450   4.182   4.535 -0.4425  0.7532 -0.6212
  679THF    H1313847   0.369   4.264   4.416  1.6096  0.8301 -1.3825
  680THF     O113848   2.457   1.295   4.259  0.3704  0.2794  0.2475
  680THF     C213849   2.510   1.172   4.209  0.4611 -0.2421  0.3316
  680THF     C313850   2.393   1.276   4.384 -0.6660 -0.1487  0.7841
  680THF     H413851   2.615   1.158   4.218 -2.9989  1.5775 -3.3518
  680THF     H513852   2.473   1.166   4.104  0.2032  0.5311 -0.3717
  680THF     H613853   2.456   1.272   4.472  0.8722 -0.1366  1.9446
  680THF     H713854   2.311   1.340   4.412  0.3229 -2.2923  1.3137
  680THF     C813855   2.328   1.134   4.358  0.2720 -0.8254 -0.3156
  680THF     C913856   2.429   1.058   4.274 -0.0287  0.3212 -0.0418
  680THF    H1013857   2.237   1.145   4.290  0.7193 -0.4008 -3.9926
  680THF    H1113858   2.311   1.080   4.450 -2.8793 -1.5124  2.5073
  680THF    H1213859   2.495   0.995   4.329 -0.0838 -0.7054  0.7764
  680THF    H1313860   2.368   0.991   4.204  1.0201 -1.7148 -0.4061
  681THF     O113861   0.970   0.436   1.384 -0.6189  0.0220  0.8117
  681THF     C213862   0.961   0.332   1.472 -0.2085  0.1161  0.1577
  681THF     C313863   1.034   0.543   1.455 -0.3623 -0.1521 -0.3499
  681THF     H413864   0.928   0.243   1.427 -0.7307  0.8082  4.2319
  681THF     H513865   0.903   0.351   1.556  0.2979  2.5193 -1.5616
  681THF     H613866   1.071   0.623   1.394  3.2972 -1.1624 -0.5462
  681THF     H713867   0.971   0.583   1.537 -0.2158  0.7347  2.3088
  681THF     C813868   1.154   0.467   1.521 -0.4104  0.2789 -0.1098
  681THF     C913869   1.108   0.325   1.508  0.0634 -0.4880 -0.3712
  681THF    H1013870   1.155   0.505   1.626  2.9481  0.5491 -1.9640
  681THF    H1113871   1.248   0.483   1.458  4.0150  1.1179 -1.7776
  681THF    H1213872   1.164   0.270   1.431 -0.3219  1.0911  0.3074
  681THF    H1313873   1.117   0.271   1.606 -1.8938 -3.1340  1.0039
  682THF     O113874   4.749   4.066   2.371 -0.6179 -0.6279 -0.2923
  682THF     C213875   4.871   4.127   2.420  0.2393  0.1154 -0.1137
  682THF     C313876   4.795   3.947   2.300 -0.1103 -0.5438  0.2774
  682THF     H413877   4.889   4.088   2.516  1.4040 -0.2333 -0.5522
  682THF     H513878   4.857   4.230   2.410  3.3385  1.4607 -0.9668
  682THF     H613879   4.836   3.864   2.366 -1.0338 -2.3698 -0.0247
  682THF     H713880   4.736   3.913   2.212 -1.0307 -1.0234 -4.2645
  682THF     C813881   4.904   4.017   2.216  0.0578 -0.5719 -0.1145
  682THF     C913882   4.976   4.086   2.318 -0.5632 -0.3564  0.1624
  682THF    H1013883   4.867   4.095   2.136 -0.6507  0.1274 -2.3221
  682THF    H1113884   4.963   3.949   2.166  0.7096  1.7719  0.9212
  682THF    H1213885   5.069   4.034   2.352  0.5440 -1.6748  0.7437
  682THF    H1313886   5.029   4.176   2.281 -0.0132  1.8958  3.1238
  683THF     O113887   0.909   1.801   0.327 -0.0787 -0.2658  0.3903
  683THF     C213888   0.868   1.670   0.307 -0.6016 -0.2576 -0.8023
  683THF     C313889   1.044   1.803   0.354  0.1120  0.2104 -0.3451
  683THF     H413890   0.858   1.661   0.207 -2.0989  1.2326  0.2032
  683THF     H513891   0.769   1.664   0.340 -0.7583 -0.4512 -1.4003
  683THF     H613892   1.087   1.809   0.261 -2.0866 -1.0489  1.7721
  683THF     H713893   1.073   1.891   0.413 -0.6281  0.8830 -0.3698
  683THF     C813894   1.071   1.671   0.420  0.4101 -0.2764 -0.5583
  683THF     C913895   0.972   1.574   0.355 -0.2370  0.4962  0.1276
  683THF    H1013896   1.040   1.667   0.524  1.7169  0.9334 -2.5655
  683THF    H1113897   1.183   1.646   0.407  3.1551  0.3981 -0.4271
  683THF    H1213898   1.032   1.530   0.280  1.0076 -2.3590 -2.3818
  683THF    H1313899   0.932   1.499   0.429 -0.5608 -2.1097  0.8239
  684THF     O113900   1.436   0.212   3.957 -0.0668  0.2521 -0.7965
  684THF     C213901   1.336   0.301   4.002  0.0118 -0.0859 -0.3407
  684THF     C313902   1.399   0.166   3.830 -0.0015  0.1492 -0.2703
  684THF     H413903   1.328   0.385   3.940  0.0541 -1.5449  0.0741
  684THF     H513904   1.351   0.355   4.100 -0.4362 -1.8313 -1.9443
  684THF     H613905   1.428   0.239   3.760 -1.2098 -1.5927 -1.3822
  684THF     H713906   1.454   0.076   3.800  1.5421  1.1898 -1.6105
  684THF     C813907   1.251   0.151   3.841  0.1833  0.6238  0.0330
  684THF     C913908   1.207   0.214   3.972  0.1165  0.0118  0.0427
  684THF    H1013909   1.209   0.046   3.830  1.9077  1.6104  3.4638
  684THF    H1113910   1.204   0.218   3.767  0.4706 -0.1924  0.8570
  684THF    H1213911   1.114   0.268   3.959 -2.3411 -1.9869  0.3643
  684THF    H1313912   1.191   0.141   4.047 -1.6177  1.9899 -2.2512
  685THF     O113913   1.683   3.519   1.521 -0.3183 -0.6425 -1.2402
  685THF     C213914   1.620   3.584   1.633 -0.5445  0.0623  0.1163
  685THF     C313915   1.722   3.624   1.437  1.0756 -0.4920  0.2050
  685THF     H413916   1.693   3.631   1.695  1.7074  0.3362 -1.9470
  685THF     H513917   1.574   3.504   1.687  2.0923  1.9964 -1.8973
  685THF     H613918   1.825   3.655   1.445 -1.5773 -2.5422  0.0163
  685THF     H713919   1.708   3.599   1.333 -0.1158 -0.6294  1.4580
  685THF     C813920   1.617   3.734   1.454 -0.8021 -0.2934 -0.3129
  685THF     C913921   1.521   3.683   1.561 -0.2346 -0.0108 -0.2615
  685THF    H1013922   1.567   3.748   1.360  0.5171 -0.3668 -1.1923
  685THF    H1113923   1.663   3.825   1.488  1.5460 -1.4378  2.5398
  685THF    H1213924   1.499   3.774   1.625  2.5479 -3.2013  0.4578
  685THF    H1313925   1.432   3.638   1.522  2.1208 -2.3014  4.2360
  686THF     O113926   4.928   2.337   3.088 -0.4640 -0.3882 -0.3322
  686THF     C213927   4.817   2.244   3.078  0.4753  0.1497  0.0033
  686THF     C313928   5.052   2.264   3.089  0.0876 -0.4940 -0.8263
  686THF     H413929   4.790   2.240   2.972  0.8591  0.1028  1.0312
  686THF     H513930   4.732   2.278   3.137 -3.0472  0.5275 -1.5797
  686THF     H613931   5.079   2.251   2.983 -1.5754  3.1660 -0.9047
  686THF     H713932   5.135   2.316   3.132 -1.8939  1.3620 -1.9235
  686THF     C813933   5.018   2.138   3.167  0.2112 -0.0397 -0.1780
  686THF     C913934   4.877   2.103   3.132  0.6057  0.2539 -0.4073
  686THF    H1013935   5.033   2.152   3.275 -0.8398  2.1125  0.9530
  686THF    H1113936   5.078   2.056   3.137  0.3655 -2.7755  2.4790
  686THF    H1213937   4.875   2.028   3.047  2.8953 -2.7887 -0.7119
  686THF    H1313938   4.834   2.056   3.226 -0.3029 -1.5406  1.3250
  687THF     O113939   1.853   0.241   0.067  0.3343  0.3373 -0.7493
  687THF     C213940   1.943   0.330   0.138 -0.1409 -0.4877 -0.6574
  687THF     C313941   1.921   0.178  -0.039 -0.1968 -0.1616 -0.4087
  687THF     H413942   1.923   0.325   0.247  3.2264 -0.5953  1.6847
  687THF     H513943   1.924   0.437   0.110 -0.8201  0.3680  1.8334
  687THF     H613944   1.866   0.089  -0.064 -0.6308  1.1355  2.3612
  687THF     H713945   1.937   0.240  -0.127 -0.2080  0.2387 -1.1402
  687THF     C813946   2.054   0.153   0.026  0.3427 -0.3795  0.7122
  687THF     C913947   2.083   0.275   0.116  0.1633 -0.5055  0.1130
  687THF    H1013948   2.132   0.144  -0.049 -1.2493  0.8390 -0.0628
  687THF    H1113949   2.059   0.065   0.086  0.8236  1.2363 -2.4195
  687THF    H1213950   2.134   0.244   0.206  0.9677  1.5917  0.8050
  687THF    H1313951   2.140   0.349   0.063  2.4680 -0.7314 -0.1111
  688THF     O113952   0.187   0.100   2.000  0.1227 -0.7012 -0.1505
  688THF     C213953   0.182  -0.034   1.960  0.9761 -0.1408 -1.0912
  688THF     C313954   0.272   0.177   1.915  0.9649 -0.3079  0.3864
  688THF     H413955   0.070  -0.054   1.964 -1.0712 -0.9977 -0.8688
  688THF     H513956   0.233  -0.086   2.042 -3.4014 -0.4383  0.3682
  688THF     H613957   0.214   0.277   1.913  1.8914 -2.3700 -0.4674
  688THF     H713958   0.376   0.182   1.941 -0.3957 -2.2610  0.8267
  688THF     C813959   0.258   0.096   1.784  0.6956  0.2768  0.0581
  688THF     C913960   0.247  -0.048   1.822  0.6905 -0.6499 -0.2691
  688THF    H1013961   0.330   0.120   1.705 -1.2253 -1.2010  1.5321
  688THF    H1113962   0.164   0.140   1.738 -2.0501  0.2005 -0.8405
  688THF    H1213963   0.171  -0.098   1.754 -0.6865 -0.8720  0.2818
  688THF    H1313964   0.343  -0.099   1.824 -2.0033 -1.3670  0.0698
  689THF     O113965   3.995   3.683   3.530  0.7353 -0.6045  0.1764
  689THF     C213966   4.087   3.600   3.598  0.1091  0.0268 -0.6056
  689THF     C313967   3.927   3.756   3.634  0.2336 -0.2133 -0.9158
  689THF     H413968   4.182   3.588   3.543  0.4675  0.2536  0.4738
  689THF     H513969   4.040   3.501   3.607 -0.2834  0.3289  0.1031
  689THF     H613970   3.884   3.847   3.585 -1.3721  2.0765 -0.7897
  689THF     H713971   3.855   3.687   3.672  0.3070 -3.0963 -0.4019
  689THF     C813972   4.037   3.786   3.736  0.1627 -0.4353 -0.0470
  689THF     C913973   4.125   3.661   3.730  0.2095 -0.9315  0.3829
  689THF    H1013974   3.991   3.799   3.831 -0.5330 -0.6793 -1.6694
  689THF    H1113975   4.103   3.871   3.718 -0.3856 -1.5289 -1.9210
  689THF    H1213976   4.227   3.690   3.738 -2.1167 -0.5764 -0.3686
  689THF    H1313977   4.103   3.593   3.817 -5.0967 -0.5000 -1.1552
  690THF     O113978   4.319   1.396   5.065 -0.4571 -0.2655  0.1998
  690THF     C213979   4.215   1.304   5.106  0.9342 -0.0764  0.6357
  690THF     C313980   4.252   1.489   4.985 -0.1472  0.3062 -0.6207
  690THF     H413981   4.256   1.241   5.181 -1.0065  1.4214 -1.7947
  690THF     H513982   4.174   1.247   5.022  2.8422 -0.5950  1.6969
  690THF     H613983   4.301   1.587   4.965  0.9084 -1.3177 -2.4875
  690THF     H713984   4.231   1.435   4.899  0.9288 -0.7238  1.3689
  690THF     C813985   4.128   1.522   5.072  0.7235 -0.0040  0.0425
  690THF     C913986   4.105   1.395   5.159 -0.5262 -0.3772  0.2368
  690THF    H1013987   4.041   1.545   5.010 -1.0457  1.6446 -0.1520
  690THF    H1113988   4.158   1.604   5.136  1.6201  0.8962  1.5420
  690THF    H1213989   4.133   1.418   5.266 -0.0588  0.5594 -1.3833
  690THF    H1313990   4.008   1.349   5.148 -2.7934  1.2457 -2.9758
  691THF     O113991   4.232   3.328   4.362 -0.3972 -0.3028  0.2115
  691THF     C213992   4.328   3.410   4.296 -0.8314  0.2156 -0.0213
  691THF     C313993   4.145   3.288   4.256  0.1613 -0.2965  0.1317
  691THF     H413994   4.425   3.406   4.343 -2.8767 -1.6795  2.8386
  691THF     H513995   4.288   3.516   4.298  2.4744 -0.2471 -3.5528
  691THF     H613996   4.094   3.203   4.283  0.6299 -1.4791  0.0621
  691THF     H713997   4.063   3.356   4.228  2.2753  0.6768 -0.7854
  691THF     C813998   4.224   3.270   4.134 -0.0807  0.3403  0.3772
  691THF     C913999   4.345   3.359   4.158 -0.4240  0.6023  0.4709
  691THF    H1014000   4.158   3.289   4.055  1.1485  1.0333  1.3840
  691THF    H1114001   4.264   3.170   4.117  3.9936  3.3519 -0.4703
  691THF    H1214002   4.438   3.301   4.137 -1.6345  0.2422 -2.2668
  691THF    H1314003   4.340   3.443   4.089  0.3920  0.1647 -1.5972
  692THF     O114004   0.399   3.422   1.950 -0.3895 -0.7427 -0.2801
  692THF     C214005   0.388   3.317   2.043  0.6261  0.3005 -0.5331
  692THF     C314006   0.339   3.370   1.824 -0.1176 -0.3041 -0.9259
  692THF     H414007   0.286   3.324   2.084  2.1507  0.6439  0.0678
  692THF     H514008   0.460   3.343   2.124  0.3357 -0.1253 -0.9376
  692THF     H614009   0.234   3.365   1.827 -1.0886  1.3001 -3.1856
  692THF     H714010   0.364   3.431   1.744  1.6588  0.9035 -0.1563
  692THF     C814011   0.421   3.234   1.817  0.0943 -0.1544 -0.1844
  692THF     C914012   0.420   3.186   1.965  0.5234 -0.3955  0.0664
  692THF    H1014013   0.522   3.250   1.774  0.3674 -0.3366 -0.8988
  692THF    H1114014   0.376   3.163   1.741 -0.2668  0.3098 -2.0831
  692THF    H1214015   0.339   3.118   1.979 -2.4032 -0.9940  0.5225
  692THF    H1314016   0.513   3.135   1.986  1.5240 -2.8269 -0.6703
  693THF     O114017   1.376   2.180   2.532 -0.6605  0.2306  0.3016
  693THF     C214018   1.381   2.247   2.655 -0.1601  0.3179  0.2972
  693THF     C314019   1.266   2.235   2.453  0.3641 -0.6225 -0.1382
  693THF     H414020   1.439   2.332   2.655 -0.5826  0.2548 -1.1596
  693THF     H514021   1.421   2.180   2.729 -0.8839 -4.2370 -0.9171
  693THF     H614022   1.290   2.336   2.416  0.1007 -1.0999  0.2071
  693THF     H714023   1.250   2.170   2.369 -1.4727 -0.8525 -1.6449
  693THF     C814024   1.148   2.239   2.556 -0.8413 -0.1403 -0.4315
  693THF     C914025   1.229   2.271   2.686 -0.4160 -0.6658 -0.5135
  693THF    H1014026   1.098   2.141   2.550  1.8978  3.8186  1.4386
  693THF    H1114027   1.083   2.317   2.518  0.8942  0.6062 -1.3300
  693THF    H1214028   1.206   2.376   2.697 -0.6640  0.4615 -1.7447
  693THF    H1314029   1.187   2.207   2.766  0.2598 -1.8964 -0.8549
  694THF     O114030   5.051   3.326   4.094  0.2206 -0.3128  0.5255
  694THF     C214031   5.174   3.259   4.085  0.3476  0.1158 -0.3215
  694THF     C314032   5.069   3.446   4.167  0.4804 -0.0026 -0.6197
  694THF     H414033   5.176   3.170   4.018 -0.6925  1.6051  3.4306
  694THF     H514034   5.188   3.222   4.184  1.2233 -0.0129  1.5536
  694THF     H614035   4.997   3.523   4.147 -1.0483 -2.3959 -0.1229
  694THF     H714036   5.070   3.432   4.278  3.3447  0.4779  1.3554
  694THF     C814037   5.204   3.496   4.126  0.1642 -0.9616 -0.6747
  694THF     C914038   5.266   3.378   4.049  0.0720  0.1757 -0.2506
  694THF    H1014039   5.257   3.525   4.214 -3.2336  2.4394 -1.0098
  694THF    H1114040   5.175   3.578   4.055 -0.8001  0.9045 -0.3151
  694THF    H1214041   5.261   3.402   3.947 -2.6908  1.8373 -0.1332
  694THF    H1314042   5.373   3.354   4.075  2.5666 -0.8972  0.4636
  695THF     O114043   3.129   5.279   1.103  0.1223 -0.0691  0.3254
  695THF     C214044   3.255   5.247   1.157  0.3818 -0.1022  0.2361
  695THF     C314045   3.083   5.155   1.063 -0.1555  0.7142 -0.0381
  695THF     H414046   3.306   5.340   1.191  0.0960  2.0012 -0.3760
  695THF     H514047   3.313   5.201   1.078  0.4140  2.0390  1.4012
  695THF     H614048   2.971   5.150   1.063 -0.9823 -3.5052  1.7075
  695THF     H714049   3.120   5.125   0.970 -1.3068 -2.0810  1.0288
  695THF     C814050   3.132   5.061   1.179  0.7515  0.2220  0.4299
  695THF     C914051   3.232   5.142   1.258  0.9600  0.0986 -0.2047
  695THF    H1014052   3.162   4.960   1.133 -3.2968 -0.9670  0.4811
  695THF    H1114053   3.051   5.030   1.239  1.6115 -1.3276 -5.1722
  695THF    H1214054   3.191   5.181   1.350  2.8249 -0.1198  2.3001
  695THF    H1314055   3.320   5.089   1.289 -1.6865  2.2879  2.7104
  696THF     O114056   3.679   4.421   0.589 -0.6608  0.3421  0.6314
  696THF     C214057   3.760   4.539   0.585  0.1101  0.3091 -0.1222
  696THF     C314058   3.735   4.329   0.684 -0.6739  0.2050 -0.1335
  696THF     H414059   3.709   4.629   0.611  3.2349  1.1296 -2.2241
  696THF     H514060   3.807   4.547   0.486  1.2123 -0.3708  0.3805
  696THF     H614061   3.678   4.347   0.780  1.9671  1.5759  0.6973
  696THF     H714062   3.717   4.228   0.645 -0.4947  2.3260 -1.4782
  696THF     C814063   3.880   4.364   0.695  0.0935 -0.2475  0.0346
  696THF     C914064   3.867   4.515   0.686 -0.2913 -0.2720 -0.7228
  696THF    H1014065   3.951   4.323   0.623 -1.4528  1.2720 -1.5340
  696THF    H1114066   3.915   4.345   0.805 -1.3654  2.3802  1.4068
  696THF    H1214067   3.844   4.559   0.786  2.1544 -3.0849  0.2138
  696THF    H1314068   3.957   4.573   0.648  1.0059 -1.3846 -0.0611
  697THF     O114069   3.575   5.270   1.878 -0.1583 -0.2527  0.3496
  697THF     C214070   3.691   5.187   1.881  0.1117 -0.0925  0.1899
  697THF     C314071   3.531   5.294   2.004 -0.4989  0.1638  0.9763
  697THF     H414072   3.756   5.197   1.795  0.9748 -0.6698 -1.2014
  697THF     H514073   3.667   5.079   1.872  2.3787 -1.7544 -3.0079
  697THF     H614074   3.496   5.398   1.998  0.5510  0.5718  0.8860
  697THF     H714075   3.449   5.216   2.032 -1.3864 -0.0253  0.6059
  697THF     C814076   3.650   5.275   2.100 -0.6043  0.4244 -0.3006
  697THF     C914077   3.761   5.216   2.017  0.3181  0.1529  0.2382
  697THF    H1014078   3.616   5.204   2.176  3.3856 -2.1120 -2.1076
  697THF    H1114079   3.688   5.368   2.143  0.4640  0.0159  0.9047
  697THF    H1214080   3.843   5.286   2.006 -1.7888  2.7723  0.5471
  697THF    H1314081   3.807   5.119   2.053  1.6596  2.1797 -1.1305
  698THF     O114082   0.564   2.448   4.683  0.4082  0.3564 -0.0371
  698THF     C214083   0.442   2.371   4.665 -0.3915  0.2147  0.2707
  698THF     C314084   0.523   2.580   4.714  0.6646 -0.8368 -0.0953
  698THF     H414085   0.479   2.271   4.650  0.4058 -0.8280 -2.5390
  698THF     H514086   0.380   2.390   4.577  0.9275  1.0676 -1.5385
  698THF     H614087   0.605   2.620   4.768  0.1610 -1.6346  0.8793
  698THF     H714088   0.503   2.639   4.628  2.1204  0.0846 -1.6096
  698THF     C814089   0.386   2.573   4.787 -0.0395 -0.2070  0.5816
  698THF     C914090   0.364   2.415   4.787  0.2246 -0.0894 -1.5038
  698THF    H1014091   0.310   2.630   4.736 -1.1429  1.4792 -1.4743
  698THF    H1114092   0.389   2.625   4.884 -0.7413 -1.0910 -0.0240
  698THF    H1214093   0.412   2.371   4.875 -0.2205 -0.4810 -1.6407
  698THF    H1314094   0.264   2.380   4.790 -2.1904 -0.1517  1.0528
  699THF     O114095   1.267   3.019   4.381  0.8647 -0.1749  0.2087
  699THF     C214096   1.330   2.984   4.259  0.1649  0.5662 -0.1801
  699THF     C314097   1.310   3.151   4.420 -0.4432  0.4650 -0.5810
  699THF     H414098   1.288   3.045   4.187 -0.1308  1.0743  2.1160
  699THF     H514099   1.330   2.884   4.222  0.3748  1.3745  0.4562
  699THF     H614100   1.235   3.218   4.377  1.4197 -0.5102 -1.7510
  699THF     H714101   1.315   3.163   4.525  0.2844 -0.0266 -3.0790
  699THF     C814102   1.442   3.172   4.339 -0.7128  0.4806  0.0660
  699THF     C914103   1.470   3.033   4.282  0.9720 -0.2078 -0.2177
  699THF    H1014104   1.522   3.214   4.396 -5.1082 -0.6042  3.1870
  699THF    H1114105   1.406   3.241   4.262  1.7821 -1.0990  3.2789
  699THF    H1214106   1.521   3.043   4.178  0.0615 -1.0211 -1.8803
  699THF    H1314107   1.534   2.974   4.351  0.5629  0.3672  2.3256
  700THF     O114108   0.324   4.712   0.061 -0.5078  0.5966 -0.6030
  700THF     C214109   0.435   4.691  -0.018  0.0715  0.2383 -0.9492
  700THF     C314110   0.344   4.832   0.133 -0.1127  0.3264 -0.6624
  700THF     H414111   0.446   4.770  -0.095  1.2084 -0.9994 -0.1469
  700THF     H514112   0.446   4.602  -0.075  1.1698  0.4467  4.2826
  700THF     H614113   0.333   4.916   0.064  3.1172 -1.8186 -0.7914
  700THF     H714114   0.283   4.851   0.218 -0.0667  0.7688 -0.8031
  700THF     C814115   0.485   4.822   0.181  0.6123 -0.4291  0.2666
  700THF     C914116   0.542   4.714   0.093  0.1548 -0.4923  0.3749
  700THF    H1014117   0.498   4.792   0.287  1.1396 -0.1979 -1.2321
  700THF    H1114118   0.537   4.921   0.160 -1.1239  4.0464  1.5251
  700THF    H1214119   0.643   4.734   0.055 -1.1486  1.4988  0.0952
  700THF    H1314120   0.556   4.611   0.145  0.2422  0.5363  0.1699
  701THF     O114121   5.325   3.782   0.642 -0.8314 -0.2539 -0.7888
  701THF     C214122   5.341   3.872   0.758  0.1024  0.7553 -0.4485
  701THF     C314123   5.459   3.733   0.602 -0.9852  0.4137  0.0721
  701THF     H414124   5.299   3.827   0.845  0.0201 -1.5221 -1.7158
  701THF     H514125   5.300   3.969   0.740  0.4561 -0.1104  0.1454
  701THF     H614126   5.469   3.640   0.657  1.4688  1.2830  1.4342
  701THF     H714127   5.465   3.708   0.498 -0.3829 -0.2074  1.7492
  701THF     C814128   5.551   3.844   0.641 -0.7297  0.5054  0.0571
  701THF     C914129   5.489   3.884   0.776 -0.1277  0.5552 -0.2235
  701THF    H1014130   5.547   3.920   0.571 -0.2351 -0.3890  0.3398
  701THF    H1114131   5.657   3.804   0.657  1.7864 -1.0411  0.0798
  701THF    H1214132   5.534   3.814   0.845 -0.4653 -0.7902  1.9254
  701THF    H1314133   5.516   3.987   0.803 -1.0582 -0.3481  1.8301
  702THF     O114134   5.052   4.461   0.841 -0.6513  0.2821 -0.3333
  702THF     C214135   4.959   4.568   0.808  0.3342  0.0083  0.1708
  702THF     C314136   5.076   4.487   0.982  0.1749 -0.9629 -0.2086
  702THF     H414137   4.879   4.531   0.746  0.6748  1.1129  0.4595
  702THF     H514138   5.021   4.643   0.752 -3.0718 -0.0108 -0.6961
  702THF     H614139   5.129   4.410   1.033 -0.8973  0.9365  0.0621
  702THF     H714140   5.144   4.571   0.998  0.7125 -0.0862  0.8883
  702THF     C814141   4.945   4.523   1.039  0.0440 -0.0416  0.1675
  702THF     C914142   4.895   4.620   0.941  0.2654  0.2723  0.1857
  702THF    H1014143   4.950   4.561   1.142 -1.3193 -2.4345  0.3422
  702THF    H1114144   4.880   4.435   1.029  0.0070 -2.4334  1.6904
  702THF    H1214145   4.788   4.629   0.933  3.1305  1.5782 -0.8004
  702THF    H1314146   4.937   4.714   0.971 -0.4188 -2.7321  1.8135
  703THF     O114147   0.143   2.041   3.636 -0.3744 -0.6570  0.1996
  703THF     C214148   0.063   2.135   3.569 -0.5091 -0.0141 -0.6153
  703THF     C314149   0.263   2.036   3.560  0.6596 -0.0957  0.0095
  703THF     H414150   0.120   2.228   3.565 -1.2949  0.7219  0.0921
  703THF     H514151  -0.042   2.139   3.609 -1.1378 -0.9547 -0.3509
  703THF     H614152   0.333   2.118   3.587  0.2234 -1.3695 -1.0118
  703THF     H714153   0.322   1.947   3.570 -1.0311 -0.3013 -3.5644
  703THF     C814154   0.218   2.045   3.416 -0.1379 -0.7282  0.4047
  703THF     C914155   0.070   2.075   3.424  0.5079 -0.1139 -0.2877
  703THF    H1014156   0.223   1.956   3.358  0.3766  1.5388  0.9503
  703THF    H1114157   0.275   2.122   3.369 -0.3148 -3.4497  0.9858
  703THF    H1214158   0.039   2.162   3.355  0.3372  1.1470  1.9537
  703THF    H1314159   0.010   1.986   3.404  0.8670 -0.8468  4.2920
  704THF     O114160   3.843   1.959   5.228  0.1201  0.3030  0.1096
  704THF     C214161   3.770   2.075   5.259  0.5838  0.3101 -0.5096
  704THF     C314162   3.796   1.856   5.307  0.0296  0.4847  0.0319
  704THF     H414163   3.707   2.100   5.171  0.5470 -0.8973 -1.3932
  704THF     H514164   3.839   2.159   5.280  1.0500 -0.5741 -1.6549
  704THF     H614165   3.791   1.765   5.247  1.1761  0.7387 -0.8000
  704THF     H714166   3.865   1.842   5.389 -4.4870  1.2575 -1.0285
  704THF     C814167   3.666   1.897   5.369 -0.0006  0.6187 -0.4656
  704THF     C914168   3.685   2.047   5.375 -1.0259 -0.3509  1.1423
  704THF    H1014169   3.657   1.856   5.471  3.2550 -4.1651 -0.6262
  704THF    H1114170   3.576   1.885   5.311  0.4177 -0.7210  3.4636
  704THF    H1214171   3.586   2.092   5.381  4.3609 -1.2878  1.4722
  704THF    H1314172   3.750   2.073   5.456 -0.2201 -2.4834 -0.0930
  705THF     O114173   2.956   2.427   2.911  0.0049  0.3038  0.3204
  705THF     C214174   3.024   2.524   2.998 -0.2530  0.5995  0.4560
  705THF     C314175   2.871   2.491   2.816  0.2187 -0.6260 -0.1571
  705THF     H414176   3.133   2.504   3.003 -0.3587 -1.4605 -0.0184
  705THF     H514177   2.982   2.530   3.091 -1.2789 -2.3087 -1.7632
  705THF     H614178   2.860   2.422   2.728 -2.6277 -2.8985 -0.1898
  705THF     H714179   2.772   2.517   2.856 -0.1945  0.6381 -0.4456
  705THF     C814180   2.949   2.624   2.787  1.5008  0.1201  0.2838
  705THF     C914181   3.002   2.662   2.928 -0.0702  0.6723  0.6170
  705THF    H1014182   2.892   2.700   2.726  0.0215  1.2194  1.1831
  705THF    H1114183   3.034   2.602   2.730 -0.3901  0.6591 -0.5879
  705THF    H1214184   3.072   2.744   2.923 -0.6309 -0.4833 -0.9309
  705THF    H1314185   2.924   2.715   2.974 -0.3615  1.7809 -1.8187
  706THF     O114186   0.714   3.305   5.452  0.1669  0.0809 -0.7183
  706THF     C214187   0.699   3.359   5.322  0.0704  0.1976 -1.0212
  706THF     C314188   0.816   3.207   5.451 -0.0476 -0.4599 -0.4894
  706THF     H414189   0.779   3.423   5.309  1.2600 -0.9150  3.6019
  706THF     H514190   0.606   3.413   5.308  0.3175  1.7939 -1.5885
  706THF     H614191   0.912   3.252   5.433 -1.3348  0.3060  1.0745
  706THF     H714192   0.830   3.144   5.539  3.1360  2.1979  3.1271
  706THF     C814193   0.770   3.129   5.327  0.2241  0.1032 -0.2143
  706THF     C914194   0.715   3.234   5.237 -0.4655  0.1822 -0.3695
  706THF    H1014195   0.681   3.070   5.359 -1.5146  0.4402 -1.3679
  706THF    H1114196   0.852   3.063   5.292 -0.6923  1.1450  2.2301
  706THF    H1214197   0.790   3.260   5.160  2.8549  0.3458  2.2196
  706THF    H1314198   0.630   3.203   5.189 -0.5713 -0.6863  0.1392
  707THF     O114199   2.026   3.033   3.652 -0.4668 -0.4400  0.1038
  707THF     C214200   2.072   2.908   3.696  0.0320  0.0430  0.5417
  707THF     C314201   1.921   3.010   3.564 -0.2798  0.5843  0.2845
  707THF     H414202   2.134   2.902   3.789 -1.4369 -4.0014  0.5278
  707THF     H514203   2.144   2.872   3.621 -0.1173  0.3704 -0.1783
  707THF     H614204   1.852   3.089   3.567  0.1845 -2.1378 -2.5151
  707THF     H714205   1.964   3.013   3.467  2.3475  0.1280  0.2695
  707THF     C814206   1.858   2.875   3.593 -0.4482  0.0874 -0.2830
  707THF     C914207   1.959   2.807   3.685 -0.3220  0.0020 -0.3330
  707THF    H1014208   1.854   2.813   3.506  2.2907 -1.4761 -0.9107
  707THF    H1114209   1.761   2.886   3.633 -1.8112 -0.6270 -1.5983
  707THF    H1214210   1.919   2.794   3.786  1.3425  1.6129  2.6794
  707THF    H1314211   2.004   2.713   3.644  1.5543  0.2829  0.4194
  708THF     O114212   0.371   2.777   0.026  0.5669  0.4309  0.5206
  708THF     C214213   0.468   2.797  -0.082 -0.0194  0.2212  0.2108
  708THF     C314214   0.264   2.862   0.002  0.8114  0.3262  0.7255
  708THF     H414215   0.520   2.703  -0.098  1.7220  1.6294 -1.0159
  708THF     H514216   0.549   2.856  -0.040  0.5154 -1.3516  2.1005
  708THF     H614217   0.179   2.831   0.060 -0.9178 -1.9937  0.2460
  708THF     H714218   0.298   2.960   0.039  0.4662  2.5936 -0.9891
  708THF     C814219   0.247   2.872  -0.146  0.2163 -0.3746  0.0925
  708THF     C914220   0.390   2.852  -0.202 -0.0177  0.2095  0.3565
  708THF    H1014221   0.202   2.962  -0.183 -1.8792 -1.8892 -0.0233
  708THF    H1114222   0.187   2.795  -0.186 -3.0527  2.7205  1.0925
  708THF    H1214223   0.379   2.786  -0.290  2.6866  1.5832 -2.3258
  708THF    H1314224   0.440   2.946  -0.245  2.4483 -2.5455 -0.7845
  709THF     O114225   1.026   2.363   0.841  0.2579  0.0500  0.4596
  709THF     C214226   1.135   2.288   0.822  0.4931 -0.0692 -0.5891
  709THF     C314227   0.982   2.346   0.978 -0.8758  0.0409 -0.0029
  709THF     H414228   1.227   2.341   0.856 -0.7286  0.7469  1.7870
  709THF     H514229   1.132   2.262   0.718  0.0695 -0.0228 -2.9450
  709THF     H614230   1.055   2.406   1.037  0.5978  2.3992  1.0127
  709THF     H714231   0.878   2.373   0.982  2.9929  1.1963  1.9786
  709THF     C814232   0.990   2.195   1.005  0.0464  0.0012  0.1846
  709THF     C914233   1.107   2.165   0.906 -0.6301 -0.3049 -0.2844
  709THF    H1014234   0.906   2.126   1.002 -2.6644  0.8735  0.4588
  709THF    H1114235   1.038   2.174   1.107 -0.1615 -0.8822  1.3823
  709THF    H1214236   1.188   2.131   0.960 -0.2823  2.2776 -1.3856
  709THF    H1314237   1.065   2.079   0.844 -1.3456 -2.8818  1.0736
  710THF     O114238   3.107   0.378   2.912  1.0172  0.2423  0.7142
  710THF     C214239   3.035   0.463   2.996  0.7860 -0.6931 -0.1234
  710THF     C314240   3.050   0.249   2.927  0.3871  0.0922  0.6832
  710THF     H414241   3.019   0.562   2.955  0.0116 -0.6669 -1.1180
  710THF     H514242   3.078   0.463   3.096 -1.3666  0.6991 -0.3939
  710THF     H614243   3.070   0.182   2.839  1.3091 -2.0966  1.8360
  710THF     H714244   3.091   0.205   3.022 -0.4952 -0.7082 -1.6349
  710THF     C814245   2.902   0.280   2.929  0.1329  0.2301  0.0116
  710THF     C914246   2.894   0.411   3.007  0.3149  0.1067 -0.3501
  710THF    H1014247   2.845   0.205   2.982  0.9028  1.9138  1.0643
  710THF    H1114248   2.863   0.295   2.833  2.4355  2.4995 -2.7961
  710THF    H1214249   2.819   0.481   2.972  0.5871 -1.1128 -0.7198
  710THF    H1314250   2.868   0.403   3.116 -0.2050 -0.2622 -0.2633
  711THF     O114251   1.985   0.967   1.178  0.3201  0.3434  0.4126
  711THF     C214252   1.911   1.075   1.241 -0.4986 -0.6264 -0.5604
  711THF     C314253   2.058   1.025   1.068  0.1534 -0.5785 -0.9372
  711THF     H414254   1.889   1.051   1.343  0.3632 -1.3346 -2.8964
  711THF     H514255   1.817   1.086   1.188 -0.1422 -2.2255 -1.0339
  711THF     H614256   2.135   0.957   1.033  0.1668 -0.3921 -0.7774
  711THF     H714257   1.987   1.031   0.987  1.1287 -2.3183  0.7666
  711THF     C814258   2.112   1.156   1.119  0.1484  0.3726 -0.4385
  711THF     C914259   2.006   1.197   1.227  0.2077 -0.3205 -1.1414
  711THF    H1014260   2.115   1.232   1.037  3.1543  0.1356 -0.0513
  711THF    H1114261   2.211   1.146   1.167  0.8867  0.7378  0.1348
  711THF    H1214262   2.040   1.215   1.327  0.1153 -1.2451  0.3228
  711THF    H1314263   1.951   1.286   1.203 -0.2988 -0.1098 -2.1096
  712THF     O114264   5.244   2.408   4.051  0.1102  0.2102  0.1150
  712THF     C214265   5.249   2.280   3.986  0.3937 -0.2166  0.3038
  712THF     C314266   5.291   2.496   3.950 -0.4524  0.1595 -0.2953
  712THF     H414267   5.161   2.267   3.925 -0.4030  1.6905  0.8449
  712THF     H514268   5.245   2.198   4.057  4.2442 -1.1759 -1.3156
  712THF     H614269   5.202   2.495   3.892  2.0350 -2.7261  3.5589
  712THF     H714270   5.318   2.598   3.982 -1.0327  0.2841 -0.7020
  712THF     C814271   5.403   2.423   3.879 -0.1409 -0.4404 -0.4262
  712THF     C914272   5.382   2.281   3.917  0.3553 -0.4572 -0.0878
  712THF    H1014273   5.505   2.463   3.889 -2.3685  1.4368 -2.3948
  712THF    H1114274   5.389   2.430   3.770 -2.4719 -1.7376  2.8435
  712THF    H1214275   5.384   2.211   3.837  1.1773 -0.0278  0.2763
  712THF    H1314276   5.456   2.240   3.984  2.0022 -0.0134 -0.9464
  713THF     O114277   3.514   5.459   5.498 -0.7612  0.4445  0.3894
  713THF     C214278   3.462   5.458   5.369 -0.3431 -0.7262 -0.7850
  713THF     C314279   3.637   5.532   5.498  0.3148  0.5073  0.0972
  713THF     H414280   3.355   5.458   5.384 -0.0657 -2.0035  1.1610
  713THF     H514281   3.495   5.370   5.314 -0.6026  1.0714  1.8241
  713THF     H614282   3.628   5.619   5.571  1.2810 -1.8844  3.4305
  713THF     H714283   3.731   5.477   5.544  1.0018 -1.2761 -0.4819
  713THF     C814284   3.639   5.602   5.360  0.0877  0.8729  0.2271
  713THF     C914285   3.506   5.586   5.304 -0.4764  0.5977  0.0027
  713THF    H1014286   3.708   5.549   5.294 -0.7051  0.1973  1.3529
  713THF    H1114287   3.676   5.702   5.359 -1.9679 -0.7865  0.3138
  713THF    H1214288   3.442   5.670   5.327 -0.8628 -0.9495 -1.9566
  713THF    H1314289   3.503   5.574   5.191  0.9474  0.0711  3.5176
  714THF     O114290   2.481   0.190   0.551  0.0224 -0.2687  0.0328
  714THF     C214291   2.436   0.293   0.464  0.2563 -0.5617 -0.5574
  714THF     C314292   2.475   0.063   0.501 -0.2186 -1.0330  0.4078
  714THF     H414293   2.524   0.332   0.407  2.9418  2.0406  1.5329
  714THF     H514294   2.390   0.376   0.520 -0.6350  2.0329 -0.3808
  714THF     H614295   2.577   0.023   0.501 -0.6180 -0.5993 -2.2664
  714THF     H714296   2.403   0.006   0.553 -2.0756  0.0701 -1.4820
  714THF     C814297   2.426   0.090   0.357  0.1084  0.1588 -0.2087
  714THF     C914298   2.346   0.220   0.367 -0.3233  0.2150 -0.4401
  714THF    H1014299   2.363   0.018   0.309 -0.5893  0.7493  0.1820
  714THF    H1114300   2.513   0.104   0.296  1.9504  1.0226  0.1025
  714THF    H1214301   2.330   0.277   0.282  0.4900 -0.4073  2.5347
  714THF    H1314302   2.252   0.208   0.421 -2.4811  1.6311 -0.6927
  715THF     O114303   0.819   5.298   3.134  0.4866  0.4435  0.1135
  715THF     C214304   0.801   5.157   3.157 -0.0918 -0.2886  0.4323
  715THF     C314305   0.747   5.329   3.014  0.3231 -0.7603  0.1594
  715THF     H414306   0.805   5.123   3.259  0.3409  2.2235  0.8159
  715THF     H514307   0.864   5.093   3.092 -1.2737 -1.6599  0.5671
  715THF     H614308   0.707   5.434   3.023  0.5290  1.5165  0.1808
  715THF     H714309   0.820   5.332   2.934 -0.9959 -0.1075 -1.5508
  715THF     C814310   0.632   5.232   3.005 -0.2766 -0.5581  1.0577
  715THF     C914311   0.655   5.140   3.120  0.1232  0.0994  0.2106
  715THF    H1014312   0.641   5.180   2.907 -0.4022  0.1196  1.7665
  715THF    H1114313   0.535   5.276   3.004  0.5552  1.1849 -0.9681
  715THF    H1214314   0.594   5.160   3.211 -2.1812  0.2307  2.5232
  715THF    H1314315   0.626   5.039   3.086 -0.4344 -0.1019 -0.3718
  716THF     O114316   3.788   4.618   3.738 -0.2167  0.0381  0.3101
  716THF     C214317   3.809   4.515   3.640 -0.4696  0.1084 -0.5154
  716THF     C314318   3.719   4.732   3.677  0.5955 -0.1321  0.2379
  716THF     H414319   3.719   4.458   3.628  0.3722 -1.6054 -0.4768
  716THF     H514320   3.895   4.448   3.672  0.0156  0.5374  1.3373
  716THF     H614321   3.608   4.734   3.678  0.6164  1.5837 -0.9712
  716THF     H714322   3.753   4.829   3.713  1.3548  1.1542  1.0856
  716THF     C814323   3.738   4.711   3.525 -0.8320  0.6889  0.0092
  716THF     C914324   3.844   4.604   3.522 -0.3914 -0.1626 -0.0425
  716THF    H1014325   3.776   4.790   3.462 -1.1655 -1.0930  1.3566
  716THF    H1114326   3.647   4.679   3.479  2.6443 -1.0815  1.5551
  716THF    H1214327   3.866   4.548   3.425  0.5747  1.4837  1.5912
  716THF    H1314328   3.938   4.666   3.540  1.3934  1.7412 -2.0619
  717THF     O114329   1.511   2.238   4.814  0.6037 -0.7394 -0.3929
  717THF     C214330   1.505   2.238   4.956  0.0692  0.3418 -0.2339
  717THF     C314331   1.444   2.127   4.757  0.0871  0.2285  0.1185
  717THF     H414332   1.507   2.333   5.005  1.8459 -1.3722  2.0999
  717THF     H514333   1.591   2.182   5.002  0.6319  0.8701  0.1237
  717THF     H614334   1.432   2.155   4.653 -1.4097 -1.2194 -0.4769
  717THF     H714335   1.501   2.040   4.767 -3.0247  0.4556 -1.8524
  717THF     C814336   1.322   2.128   4.848  0.1592  0.0246 -0.7838
  717THF     C914337   1.372   2.176   4.984  0.6510  0.0691 -0.2131
  717THF    H1014338   1.259   2.039   4.863  0.4312 -1.0052  0.7203
  717THF    H1114339   1.256   2.204   4.806  1.8882  0.5880  0.9391
  717THF    H1214340   1.298   2.248   5.031 -3.0133 -0.7895 -0.8570
  717THF    H1314341   1.383   2.095   5.055  2.3024  1.7561  1.0466
  718THF     O114342   1.404   0.582   1.736  0.2131 -0.2997  0.0533
  718THF     C214343   1.423   0.707   1.676  0.1342  0.0968 -0.3694
  718THF     C314344   1.462   0.589   1.867  0.2739  0.0002 -0.7127
  718THF     H414345   1.346   0.782   1.710 -2.3392  3.1805  0.5157
  718THF     H514346   1.400   0.718   1.566  0.9277  0.1464 -1.4740
  718THF     H614347   1.378   0.611   1.937  1.0592  2.8978  1.5690
  718THF     H714348   1.498   0.489   1.896  0.6564  1.7744  1.7823
  718THF     C814349   1.571   0.695   1.865  0.6517 -0.1954  0.6648
  718THF     C914350   1.562   0.754   1.724 -0.3390  0.2804  0.1334
  718THF    H1014351   1.666   0.650   1.890  0.0095  3.9103 -0.3830
  718THF    H1114352   1.541   0.771   1.943  0.1026  1.3907 -2.1122
  718THF    H1214353   1.571   0.862   1.716  0.4948 -2.7945 -2.8616
  718THF    H1314354   1.637   0.713   1.659 -0.3014 -0.0802 -0.2136
  719THF     O114355   5.295   5.274   1.146  0.2079  0.4489 -0.6067
  719THF     C214356   5.309   5.191   1.259  0.6046  0.3680 -0.1023
  719THF     C314357   5.328   5.205   1.026  0.1466 -0.3291 -0.1542
  719THF     H414358   5.212   5.143   1.287  0.9227 -1.6134  1.5060
  719THF     H514359   5.335   5.254   1.345 -0.1372  0.2311 -0.7235
  719THF     H614360   5.242   5.183   0.962 -2.3726  1.6296 -0.3782
  719THF     H714361   5.388   5.278   0.979  1.8603 -2.1941 -0.1376
  719THF     C814362   5.397   5.075   1.076  0.0541  0.1075 -1.0572
  719THF     C914363   5.418   5.084   1.225  0.1673 -0.3144 -0.3324
  719THF    H1014364   5.480   5.073   1.014  0.3628  2.1846  0.7290
  719THF    H1114365   5.331   4.989   1.046  1.4209 -0.1502 -0.7029
  719THF    H1214366   5.390   4.992   1.283  1.4676  0.0168 -0.2459
  719THF    H1314367   5.513   5.126   1.247  1.8969  1.0562  1.1110
  720THF     O114368   1.253   4.700   1.096  0.6074 -0.4458 -0.7488
  720THF     C214369   1.262   4.672   0.952 -0.1715  0.7387  0.4563
  720THF     C314370   1.133   4.643   1.142  0.7313 -0.6330  0.1401
  720THF     H414371   1.361   4.675   0.921 -0.8154  1.2793  0.6705
  720THF     H514372   1.196   4.743   0.903  0.3234  0.2483 -1.3272
  720THF     H614373   1.133   4.650   1.249 -1.8148 -1.2386 -1.7501
  720THF     H714374   1.059   4.714   1.103  1.0074  1.9160  0.3697
  720THF     C814375   1.137   4.513   1.080 -0.5607  0.8614 -0.1591
  720THF     C914376   1.222   4.524   0.952 -0.3156 -0.4250 -0.0854
  720THF    H1014377   1.036   4.485   1.051 -0.6924 -0.6312 -1.3568
  720THF    H1114378   1.173   4.430   1.150 -0.9685 -2.9818 -0.7395
  720THF    H1214379   1.306   4.464   0.970 -1.4899 -0.3768  0.0844
  720THF    H1314380   1.167   4.501   0.860  0.1117  1.6451 -1.0311
  721THF     O114381   4.230   5.080   2.017 -0.0507  0.3969  0.3213
  721THF     C214382   4.313   5.052   2.130 -0.9183 -0.2160 -0.0643
  721THF     C314383   4.117   5.157   2.052  0.1225  0.0957 -0.2922
  721THF     H414384   4.414   5.056   2.102 -0.5798  1.1286  0.4744
  721THF     H514385   4.300   4.950   2.162 -0.5665 -0.7772  1.9901
  721THF     H614386   4.120   5.259   2.025 -1.0649 -0.5798 -0.4488
  721THF     H714387   4.024   5.115   2.017  0.7501  0.2131 -0.0771
  721THF     C814388   4.118   5.150   2.206 -0.4520  0.3856 -0.3717
  721THF     C914389   4.273   5.152   2.233  0.0796  0.0331 -0.2561
  721THF    H1014390   4.066   5.062   2.244  0.2204  2.4648  0.2380
  721THF    H1114391   4.070   5.230   2.265  2.0296  2.7527  2.2526
  721THF    H1214392   4.308   5.254   2.203 -0.6451 -0.9705  0.1625
  721THF    H1314393   4.309   5.136   2.339  0.7762  2.1299  2.1348
  722THF     O114394   3.017   4.098   4.724 -0.0873 -0.2392 -0.2644
  722THF     C214395   3.128   4.176   4.765  0.2713  0.3514 -0.1405
  722THF     C314396   2.974   4.137   4.596 -0.7575 -0.0527  0.1549
  722THF     H414397   3.207   4.132   4.707 -0.3704 -0.6267 -1.6233
  722THF     H514398   3.160   4.177   4.866 -1.1393  2.1131  0.5008
  722THF     H614399   3.014   4.072   4.522  0.7267 -3.4010  2.6481
  722THF     H714400   2.865   4.129   4.590  0.1397 -1.0951 -0.5511
  722THF     C814401   3.024   4.285   4.578 -0.2056 -0.0790  0.2379
  722THF     C914402   3.089   4.317   4.709  0.1747  0.0043 -0.3267
  722THF    H1014403   2.952   4.349   4.532 -0.6226  2.0257  1.3138
  722THF    H1114404   3.107   4.278   4.506  2.2417 -0.2316  0.1813
  722THF    H1214405   3.178   4.386   4.716 -1.2546  0.4600  0.6118
  722THF    H1314406   3.020   4.367   4.781 -1.2871  0.5064  4.6545
  723THF     O114407   4.291   3.981   2.249  0.4918  0.6809  0.2322
  723THF     C214408   4.369   3.901   2.340 -0.0306 -0.1682  0.3562
  723THF     C314409   4.178   3.907   2.213 -0.3943 -0.1383  0.1314
  723THF     H414410   4.320   3.908   2.439 -2.8157 -0.0094 -1.4426
  723THF     H514411   4.477   3.932   2.357  0.9991  3.4522 -1.7766
  723THF     H614412   4.107   3.899   2.298 -1.7540 -0.6797 -0.4662
  723THF     H714413   4.140   3.941   2.122  4.4059  0.6878  1.1922
  723THF     C814414   4.234   3.764   2.196 -1.0276  0.5296 -0.4143
  723THF     C914415   4.359   3.765   2.277 -0.2740 -0.2700 -0.1784
  723THF    H1014416   4.244   3.735   2.099 -1.0917  0.4924  1.9357
  723THF    H1114417   4.167   3.691   2.239  0.5551  1.2412  1.4071
  723THF    H1214418   4.347   3.697   2.353  0.5454  0.4606 -0.1689
  723THF    H1314419   4.453   3.734   2.230  0.9637  1.1951  1.0525
  724THF     O114420   4.375   4.109   3.662 -0.0497 -0.3499  1.0417
  724THF     C214421   4.287   4.102   3.546 -0.0936 -0.5160  0.1334
  724THF     C314422   4.391   3.986   3.729 -0.0401  0.7123 -0.1809
  724THF     H414423   4.332   4.169   3.469  0.1277  0.1992  2.3527
  724THF     H514424   4.181   4.129   3.569  0.0018 -0.9009  2.4949
  724THF     H614425   4.480   3.984   3.788 -1.7565 -0.6563  1.0822
  724THF     H714426   4.300   3.959   3.784 -0.3283 -2.1688 -3.8608
  724THF     C814427   4.401   3.900   3.606 -0.3784  0.4404  0.0032
  724THF     C914428   4.288   3.952   3.517 -0.7266 -0.4662 -0.0681
  724THF    H1014429   4.394   3.791   3.631  1.4970  0.8478 -0.1663
  724THF    H1114430   4.502   3.921   3.569  0.3947  2.8945 -0.7803
  724THF    H1214431   4.303   3.941   3.410  1.9462  0.6133  0.9917
  724THF    H1314432   4.196   3.898   3.541 -1.0359 -0.6483 -1.2207
  725THF     O114433   0.195   0.070   1.087  0.2193  0.2716 -0.1953
  725THF     C214434   0.245   0.124   1.211  0.0709  0.1471 -0.1320
  725THF     C314435   0.075   0.005   1.112 -0.4426 -0.3029  0.2889
  725THF     H414436   0.189   0.209   1.252  2.4577  2.9810  0.8312
  725THF     H514437   0.350   0.151   1.203 -1.5447 -0.4116 -2.2834
  725THF     H614438  -0.009   0.074   1.123 -0.3871 -1.8039 -0.8936
  725THF     H714439   0.053  -0.073   1.028 -0.4976 -0.7915 -0.5108
  725THF     C814440   0.103  -0.065   1.254 -0.0861  0.0349 -0.0756
  725THF     C914441   0.226   0.012   1.309 -0.1035 -0.1432 -0.2345
  725THF    H1014442   0.123  -0.170   1.241 -1.6133 -0.0330 -0.4258
  725THF    H1114443   0.013  -0.047   1.321  0.7528 -1.2471 -2.3653
  725THF    H1214444   0.221   0.041   1.414 -2.9981 -0.2228 -0.9176
  725THF    H1314445   0.309  -0.056   1.288  1.9050  2.4831  1.3172
  726THF     O114446   0.394   1.690   0.186 -0.3863 -0.1774  0.0210
  726THF     C214447   0.426   1.552   0.175  0.7167 -0.6889 -0.3154
  726THF     C314448   0.381   1.755   0.062 -0.2042 -0.0962  1.3814
  726THF     H414449   0.338   1.496   0.139  3.2206 -0.9127  1.5633
  726THF     H514450   0.472   1.509   0.263  0.7380 -1.1248  1.5440
  726THF     H614451   0.275   1.767   0.021 -1.7224 -0.6889  0.2408
  726THF     H714452   0.438   1.847   0.076 -0.7267 -0.2676 -0.4498
  726THF     C814453   0.458   1.662  -0.033  0.3346 -0.5554  0.0436
  726THF     C914454   0.515   1.555   0.053 -0.7923  0.5054  0.8511
  726THF    H1014455   0.540   1.708  -0.085 -0.1180 -2.0258  0.7765
  726THF    H1114456   0.395   1.625  -0.115 -0.5692  2.0879  1.4737
  726THF    H1214457   0.542   1.458   0.013  0.4685 -0.9186 -0.4484
  726THF    H1314458   0.613   1.595   0.085 -2.2831  2.3738 -3.2614
  727THF     O114459   5.234   3.060   2.150  0.2864  0.1245  0.8903
  727THF     C214460   5.345   3.146   2.179  0.3791  0.1921 -0.0595
  727THF     C314461   5.131   3.147   2.105 -0.1511 -0.2092 -1.0730
  727THF     H414462   5.401   3.168   2.089  2.5521  0.2651 -2.8653
  727THF     H514463   5.396   3.088   2.265 -1.1232 -0.7089 -0.8613
  727THF     H614464   5.164   3.175   2.004  1.1995 -0.3316 -0.3500
  727THF     H714465   5.034   3.099   2.100 -1.2941 -2.2069  1.2440
  727THF     C814466   5.138   3.275   2.199 -0.4640 -0.1363  0.1136
  727THF     C914467   5.285   3.282   2.233  0.3870  0.1221  0.2894
  727THF    H1014468   5.086   3.261   2.293  0.8685  0.7903 -1.4521
  727THF    H1114469   5.101   3.367   2.155 -0.6289  1.8878 -0.9167
  727THF    H1214470   5.333   3.356   2.171  0.9033  1.2094 -0.2108
  727THF    H1314471   5.308   3.304   2.336  1.4479  0.9828  0.2611
  728THF     O114472   3.808   5.068   0.242 -0.2255 -0.0573 -0.4875
  728THF     C214473   3.751   5.178   0.172  0.9162 -0.2471  0.0772
  728THF     C314474   3.838   5.106   0.375 -0.2267 -0.2599  1.0083
  728THF     H414475   3.680   5.165   0.094 -2.5691 -0.7174 -0.6369
  728THF     H514476   3.831   5.235   0.122  2.6511 -1.3250  0.0964
  728THF     H614477   3.792   5.044   0.450 -2.1961 -1.4152 -0.1207
  728THF     H714478   3.945   5.087   0.404 -0.1590 -0.4306 -0.1816
  728THF     C814479   3.797   5.248   0.384  0.8850 -0.1014 -0.0715
  728THF     C914480   3.686   5.256   0.287 -0.1653 -0.0206 -0.1580
  728THF    H1014481   3.873   5.317   0.345  1.8142 -1.2930  1.0969
  728THF    H1114482   3.756   5.276   0.474 -0.9324 -3.5012 -2.3112
  728THF    H1214483   3.598   5.201   0.327 -1.0455 -1.5117 -1.0811
  728THF    H1314484   3.656   5.354   0.254  1.3489 -1.1325 -2.2072
  729THF     O114485   1.244   3.904   0.776  0.1230  0.6715  0.0223
  729THF     C214486   1.347   3.999   0.795 -0.0652  0.2537 -0.2695
  729THF     C314487   1.114   3.960   0.746 -0.9692  0.0592  0.2395
  729THF     H414488   1.443   3.982   0.745 -2.2063 -0.2888  0.4219
  729THF     H514489   1.365   4.011   0.907  0.0009 -1.9459  1.0465
  729THF     H614490   1.097   3.934   0.645 -3.3087  0.4917 -1.1103
  729THF     H714491   1.044   3.919   0.818 -1.9431  0.3237  1.8075
  729THF     C814492   1.140   4.105   0.764  0.5035  0.3900  0.3312
  729THF     C914493   1.286   4.123   0.740  0.1392 -0.0672 -0.3803
  729THF    H1014494   1.114   4.139   0.866 -0.6345 -0.4263 -1.4030
  729THF    H1114495   1.071   4.152   0.697  2.3287  1.2191  1.6174
  729THF    H1214496   1.301   4.129   0.634  0.0094 -1.1644  0.5738
  729THF    H1314497   1.316   4.221   0.778 -1.6331 -0.6676 -1.7062
  730THF     O114498   2.870   1.941   1.860  0.4523  0.2066 -0.4031
  730THF     C214499   2.797   2.046   1.802  0.0444  0.2385  0.1924
  730THF     C314500   2.814   1.819   1.810  0.5452  0.3875 -0.4611
  730THF     H414501   2.845   2.090   1.707 -0.0871  0.2518  0.6896
  730THF     H514502   2.796   2.126   1.877 -1.4832 -0.0160  1.6554
  730THF     H614503   2.826   1.794   1.710  1.8849 -3.5974  0.8041
  730THF     H714504   2.837   1.743   1.885 -0.1419  0.8624  0.7633
  730THF     C814505   2.666   1.846   1.816  0.5346 -0.0444 -0.1608
  730THF     C914506   2.658   1.990   1.768 -0.7348  0.9439  0.0533
  730THF    H1014507   2.618   1.846   1.910 -1.9491 -1.0942 -0.4249
  730THF    H1114508   2.617   1.768   1.748  0.2919 -2.4962 -0.1728
  730THF    H1214509   2.632   1.999   1.664  1.4909 -1.3479 -0.3743
  730THF    H1314510   2.587   2.039   1.831 -1.0500  0.7248  1.2765
  731THF     O114511   2.056   3.966   4.971  0.3227  0.6789  0.1766
  731THF     C214512   2.050   3.978   4.828 -0.8548  0.5009  0.1444
  731THF     C314513   2.086   4.102   5.013  0.4278 -0.1418 -0.3999
  731THF     H414514   1.997   3.900   4.786  1.3147  0.3508 -0.5164
  731THF     H514515   2.150   3.970   4.786  2.1500  1.2063 -0.2949
  731THF     H614516   2.095   4.110   5.124 -1.0934  2.1773  2.6323
  731THF     H714517   2.186   4.119   4.983  0.0644 -0.1816  0.6140
  731THF     C814518   1.988   4.186   4.930 -0.0968 -0.1322 -0.2279
  731THF     C914519   1.988   4.115   4.799  0.2068 -0.0357  0.5958
  731THF    H1014520   2.015   4.294   4.935 -0.8454  0.8961  0.1394
  731THF    H1114521   1.886   4.176   4.971 -0.0730  1.7470 -0.4019
  731THF    H1214522   1.885   4.100   4.773  0.0723  3.6685  0.1878
  731THF    H1314523   2.051   4.165   4.718  2.5432  0.7686 -0.6645
  732THF     O114524   4.281   1.281   1.659  0.0478 -0.6067  0.4263
  732THF     C214525   4.168   1.224   1.600 -0.9882 -0.1848 -0.2226
  732THF     C314526   4.347   1.358   1.560 -0.5231 -0.4872 -0.2428
  732THF     H414527   4.084   1.249   1.662 -0.2398  1.8989  0.6190
  732THF     H514528   4.161   1.116   1.592 -0.0955 -2.8560 -1.2146
  732THF     H614529   4.342   1.466   1.577  0.4536 -1.5200  1.6719
  732THF     H714530   4.455   1.346   1.569 -1.0110  0.0642  1.9257
  732THF     C814531   4.286   1.330   1.421 -0.0127 -0.7207  0.1358
  732THF     C914532   4.143   1.294   1.467  0.1585 -0.1008 -0.0474
  732THF    H1014533   4.328   1.235   1.381 -0.7580  0.4243  0.5563
  732THF    H1114534   4.308   1.409   1.358  2.2928 -1.3468  0.2704
  732THF    H1214535   4.078   1.379   1.468 -0.4087  0.3533 -0.5434
  732THF    H1314536   4.112   1.223   1.392  0.8687 -0.7288 -1.3204
  733THF     O114537   3.976   4.637   3.144 -0.4182  0.9237  0.2796
  733THF     C214538   4.043   4.608   3.021 -0.3412  0.6298 -0.3415
  733THF     C314539   4.050   4.742   3.208  0.2446  0.7250 -0.5258
  733THF     H414540   3.974   4.568   2.946 -0.4688 -0.8654 -0.0867
  733THF     H514541   4.114   4.535   3.045 -0.6401  0.8873  0.3179
  733THF     H614542   3.967   4.816   3.219 -2.1834  1.9120 -3.6430
  733THF     H714543   4.104   4.725   3.309  1.0496 -1.4577 -1.0460
  733THF     C814544   4.159   4.782   3.103 -0.1272 -0.5338 -0.7193
  733THF     C914545   4.110   4.738   2.966 -0.3477 -0.4075 -0.0236
  733THF    H1014546   4.253   4.741   3.122 -2.3675  2.4758 -1.2235
  733THF    H1114547   4.174   4.891   3.101 -2.3790  0.1291 -0.1289
  733THF    H1214548   4.038   4.807   2.917 -0.6684  3.6772 -0.3194
  733THF    H1314549   4.197   4.722   2.896  0.4280  1.3459  2.0698
  734THF     O114550   5.307   0.412   1.761  0.4826 -0.2094  0.2112
  734THF     C214551   5.379   0.307   1.821  0.1286  0.3897  0.3250
  734THF     C314552   5.245   0.352   1.640  0.1970  0.7654 -0.9725
  734THF     H414553   5.405   0.317   1.924 -1.4427 -2.5022 -0.6118
  734THF     H514554   5.462   0.280   1.758 -0.4348 -1.7533  0.5109
  734THF     H614555   5.152   0.406   1.622 -3.4080  3.5075 -0.5568
  734THF     H714556   5.323   0.358   1.564  2.2623  1.6473  0.2241
  734THF     C814557   5.207   0.206   1.667  0.0446  0.6836  0.4100
  734THF     C914558   5.275   0.189   1.809  0.2563  0.6809  0.1808
  734THF    H1014559   5.254   0.132   1.596  0.9097 -3.0013 -0.7233
  734THF    H1114560   5.099   0.182   1.673  2.0469 -0.6643  0.8438
  734THF    H1214561   5.194   0.185   1.877 -0.4797  0.4873 -2.0846
  734THF    H1314562   5.321   0.092   1.824  0.6933 -1.0588 -0.2637
  735THF     O114563   5.050   3.853   1.746 -0.4127 -0.2305  0.5618
  735THF     C214564   5.186   3.817   1.715 -0.3454 -0.5928 -0.3230
  735THF     C314565   5.038   3.990   1.757 -0.3512 -0.0986 -0.1728
  735THF     H414566   5.196   3.719   1.670  0.6912  1.0137  1.7491
  735THF     H514567   5.251   3.819   1.802  1.9821 -0.5530 -1.0451
  735THF     H614568   4.942   4.032   1.713 -0.1447  0.8414  0.9919
  735THF     H714569   5.045   4.020   1.865  1.8763  0.7333 -1.2714
  735THF     C814570   5.159   4.054   1.687 -0.4159 -0.0572 -0.5911
  735THF     C914571   5.226   3.936   1.624 -0.6603  0.1545  0.6790
  735THF    H1014572   5.215   4.115   1.759  2.0573  1.7064  1.8649
  735THF    H1114573   5.142   4.117   1.600  2.5467 -1.4915 -0.2867
  735THF    H1214574   5.205   3.916   1.522 -0.6384  0.5046  1.7613
  735THF    H1314575   5.334   3.939   1.620 -2.7435  0.6937 -2.8227
  736THF     O114576   5.013   2.053   2.647  0.8858 -0.0867 -0.4964
  736THF     C214577   5.002   1.971   2.766 -0.1450  0.2710 -0.0405
  736THF     C314578   4.892   2.124   2.632  0.2622 -0.0711 -0.5726
  736THF     H414579   5.024   2.035   2.852  0.7058  0.2011  2.2072
  736THF     H514580   5.065   1.878   2.764 -1.5921  0.7455 -0.6796
  736THF     H614581   4.909   2.216   2.691 -0.2871  1.7221  2.0357
  736THF     H714582   4.860   2.161   2.529 -0.3979 -1.9716  1.6525
  736THF     C814583   4.780   2.046   2.707  0.5730 -0.2416 -0.6217
  736THF     C914584   4.858   1.930   2.756  0.0411 -0.1751  0.5477
  736THF    H1014585   4.693   2.022   2.647  1.1660 -0.8961  0.3891
  736THF    H1114586   4.746   2.108   2.788 -2.3069 -0.6317 -1.2736
  736THF    H1214587   4.806   1.880   2.850 -3.0710 -0.8230  3.1518
  736THF    H1314588   4.858   1.859   2.686  2.3718  2.0104  2.5519
  737THF     O114589   1.402   3.209   1.835  0.0541 -0.0414  0.0875
  737THF     C214590   1.431   3.170   1.966 -0.1028  0.2574 -0.2915
  737THF     C314591   1.280   3.288   1.852 -0.7269 -0.4895 -0.7173
  737THF     H414592   1.536   3.146   1.971  1.1776  1.5536  0.0168
  737THF     H514593   1.380   3.088   2.016 -0.7376  0.9797  1.4801
  737THF     H614594   1.259   3.359   1.768  1.0298  1.9871  1.2001
  737THF     H714595   1.196   3.223   1.867 -0.4188  2.9581 -2.5245
  737THF     C814596   1.305   3.373   1.978  0.1660 -0.1278 -0.0054
  737THF     C914597   1.412   3.293   2.057  0.4931  0.2060  0.2591
  737THF    H1014598   1.223   3.395   2.046 -1.0587  3.1169 -0.3225
  737THF    H1114599   1.342   3.466   1.944 -0.1259  2.9361  0.6831
  737THF    H1214600   1.511   3.338   2.067  1.7909 -0.9477 -0.7868
  737THF    H1314601   1.384   3.251   2.155  1.7695  0.5501  1.4453
  738THF     O114602   4.577   4.023   1.757  0.0618  0.3025  0.0114
  738THF     C214603   4.554   4.156   1.708 -0.0643 -0.3928  0.1343
  738THF     C314604   4.573   4.036   1.909  0.0685  0.0314  0.1026
  738THF     H414605   4.457   4.187   1.718  2.5797 -0.0692 -0.2465
  738THF     H514606   4.569   4.154   1.595  0.1936 -1.7316 -1.3963
  738THF     H614607   4.477   4.050   1.953  1.7421  0.6232  0.4203
  738THF     H714608   4.622   3.951   1.956  0.5869  2.9391 -1.4795
  738THF     C814609   4.665   4.151   1.924  0.2175  0.8460  0.0393
  738THF     C914610   4.644   4.239   1.798 -0.1447  0.4933  0.4997
  738THF    H1014611   4.767   4.122   1.948 -0.4009 -0.5135  1.8435
  738THF    H1114612   4.644   4.200   2.018  0.0042 -0.1077  0.1238
  738THF    H1214613   4.602   4.337   1.819  2.8124  0.1466  0.4750
  738THF    H1314614   4.742   4.254   1.755 -0.7028  0.6688 -1.7359
  739THF     O114615   0.730   4.211   1.192  0.1109 -0.0964 -0.1736
  739THF     C214616   0.834   4.309   1.161  0.2922 -0.0248  0.2445
  739THF     C314617   0.604   4.277   1.158  0.1873 -0.8789 -0.5666
  739THF     H414618   0.844   4.327   1.049  1.0487 -2.3855  0.3399
  739THF     H514619   0.916   4.258   1.203 -2.6238 -0.6927 -0.0199
  739THF     H614620   0.580   4.281   1.053 -0.5690 -3.2781 -0.3969
  739THF     H714621   0.521   4.240   1.223  1.3244 -2.5889 -3.1353
  739THF     C814622   0.631   4.423   1.198 -0.7572  0.1994  0.0087
  739THF     C914623   0.784   4.434   1.234 -0.2336 -0.3347 -0.5790
  739THF    H1014624   0.571   4.454   1.276  0.5226 -0.5046  0.3830
  739THF    H1114625   0.604   4.495   1.114 -0.7579  2.3180 -0.1590
  739THF    H1214626   0.835   4.519   1.202  0.9358 -0.9938  1.4857
  739THF    H1314627   0.795   4.418   1.341  2.5190  3.4767 -1.4689
  740THF     O114628   2.933   1.514   3.570 -0.5427  0.0235  0.2022
  740THF     C214629   3.038   1.422   3.545  0.2252  0.4263 -0.6005
  740THF     C314630   2.861   1.541   3.450 -0.1632 -0.3225  0.1814
  740THF     H414631   3.010   1.323   3.591  1.8521  0.5213  3.8557
  740THF     H514632   3.120   1.464   3.600 -0.7872  0.5627  2.0387
  740THF     H614633   2.793   1.462   3.436 -0.1927 -1.6102  0.7670
  740THF     H714634   2.813   1.639   3.457  0.5842 -0.6497 -0.7884
  740THF     C814635   2.977   1.541   3.348  0.2092 -0.5221 -0.5373
  740THF     C914636   3.059   1.423   3.398  0.3158 -0.7321 -0.2704
  740THF    H1014637   3.010   1.642   3.356  1.0805 -0.6957 -3.6468
  740THF    H1114638   2.944   1.528   3.245 -1.2955 -1.2740  0.2203
  740THF    H1214639   3.018   1.332   3.361  0.5468 -1.4660  0.2329
  740THF    H1314640   3.156   1.428   3.364  1.0926 -1.3516 -0.6090
  741THF     O114641   1.487   5.295   2.986 -0.4875  0.1612  0.5252
  741THF     C214642   1.528   5.433   3.024 -0.0182 -0.2123  0.4318
  741THF     C314643   1.552   5.250   2.868  0.6054  0.1003 -0.3574
  741THF     H414644   1.517   5.444   3.134 -2.5260  1.3714  0.9480
  741THF     H514645   1.454   5.495   2.973  3.1693 -0.6592  0.5535
  741THF     H614646   1.565   5.137   2.855  0.6612 -0.2483 -1.7567
  741THF     H714647   1.490   5.278   2.779 -1.9526  0.7507 -1.6225
  741THF     C814648   1.687   5.307   2.880  0.3972 -0.6363  0.3797
  741THF     C914649   1.669   5.437   2.954 -0.2723  0.1615 -0.4475
  741THF    H1014650   1.721   5.329   2.781  2.4321  0.5855  0.7207
  741THF    H1114651   1.776   5.244   2.906 -1.3616  0.5661  0.9487
  741THF    H1214652   1.741   5.449   3.035  0.6233  2.0056 -2.3618
  741THF    H1314653   1.669   5.522   2.882  1.0755  1.2694 -1.7303
  742THF     O114654   0.617   0.244   1.279  0.0635  0.0360  0.1275
  742THF     C214655   0.668   0.310   1.165 -0.6866  0.6611 -0.4890
  742THF     C314656   0.574   0.347   1.367 -0.3417  0.5715 -0.6643
  742THF     H414657   0.700   0.247   1.081  3.1554 -0.9434  0.3782
  742THF     H514658   0.756   0.374   1.196  2.7336  1.1857 -4.2704
  742THF     H614659   0.497   0.309   1.439 -0.0446  1.9451 -0.2998
  742THF     H714660   0.657   0.391   1.422  3.1255 -0.9009  1.0461
  742THF     C814661   0.500   0.441   1.270  0.1499 -1.0667  0.6002
  742THF     C914662   0.557   0.409   1.134  0.7783 -0.3070 -0.0282
  742THF    H1014663   0.518   0.542   1.296  4.3708 -0.3628  2.7958
  742THF    H1114664   0.393   0.427   1.268  0.9025 -0.2564  0.6253
  742THF    H1214665   0.490   0.373   1.056  1.0097  0.3080 -1.3495
  742THF    H1314666   0.618   0.496   1.100 -1.7385 -4.5366 -0.7008
  743THF     O114667   4.294   4.653   3.779  0.4965 -0.7226  0.1110
  743THF     C214668   4.391   4.568   3.834 -0.0245  0.7999 -0.5670
  743THF     C314669   4.171   4.613   3.830  0.7384  0.3146 -0.1433
  743THF     H414670   4.404   4.569   3.941  0.7199  1.9329  0.6412
  743THF     H514671   4.485   4.576   3.777 -0.3191 -2.1391 -0.5071
  743THF     H614672   4.155   4.635   3.934  0.1086  1.0842 -1.0165
  743THF     H714673   4.080   4.632   3.776 -0.8205  0.5147 -2.2194
  743THF     C814674   4.175   4.456   3.808  0.0010  0.3566 -0.0762
  743THF     C914675   4.329   4.428   3.794 -1.2624 -0.0241 -0.1811
  743THF    H1014676   4.135   4.416   3.708 -2.2907 -4.1610  1.4586
  743THF    H1114677   4.120   4.412   3.890  1.9351  1.0557 -0.0731
  743THF    H1214678   4.375   4.361   3.865  1.9172  2.3793  1.4405
  743THF    H1314679   4.349   4.384   3.691 -0.4821 -2.7436 -2.4113
  744THF     O114680   4.082   4.225   0.396  0.3789 -0.1525 -0.3425
  744THF     C214681   4.176   4.158   0.310  0.4602  0.4312  0.1088
  744THF     C314682   3.963   4.247   0.322  0.4576 -0.0350  0.4007
  744THF     H414683   4.225   4.072   0.365 -3.9572  1.4587 -2.6671
  744THF     H514684   4.251   4.223   0.264 -0.9859 -2.3192 -0.8459
  744THF     H614685   3.881   4.189   0.372  1.3581 -0.2290 -2.4192
  744THF     H714686   3.919   4.351   0.325  0.0762 -2.1989  0.7048
  744THF     C814687   3.997   4.208   0.174 -0.2943 -0.2533  0.8075
  744THF     C914688   4.090   4.093   0.197 -0.3656  0.0570  0.1768
  744THF    H1014689   4.048   4.285   0.115 -1.1538 -4.2692 -0.1731
  744THF    H1114690   3.913   4.184   0.104 -0.4973 -2.1212 -1.2684
  744THF    H1214691   4.028   4.011   0.232 -1.4667 -0.3339  0.3188
  744THF    H1314692   4.144   4.061   0.109  0.4682  2.3441  0.8112
  745THF     O114693   5.022   4.547   0.366  0.7901  0.4253  0.4416
  745THF     C214694   4.973   4.676   0.348  0.2012 -0.6372  0.6172
  745THF     C314695   4.905   4.464   0.385 -0.1005  0.6388 -0.0229
  745THF     H414696   4.929   4.693   0.255  0.9804  1.6007  1.8198
  745THF     H514697   5.053   4.744   0.359 -1.6604 -1.1793 -3.1619
  745THF     H614698   4.871   4.417   0.292  0.0983 -1.0916 -0.9225
  745THF     H714699   4.922   4.383   0.451  0.6835 -2.0795 -2.3104
  745THF     C814700   4.799   4.556   0.445 -0.8499 -0.3682 -0.7080
  745THF     C914701   4.867   4.686   0.456 -0.6412 -0.7145 -0.4174
  745THF    H1014702   4.749   4.510   0.536 -1.3403 -3.6885 -3.1187
  745THF    H1114703   4.719   4.555   0.377  0.0844 -0.5451  0.5173
  745THF    H1214704   4.796   4.770   0.452  1.2093  0.5068  0.0023
  745THF    H1314705   4.918   4.704   0.552  1.5416 -0.7410 -1.7489
  746THF     O114706   5.468   2.417   4.752 -0.5620  0.2040  0.2278
  746THF     C214707   5.504   2.480   4.637 -0.4058 -0.1970 -1.2081
  746THF     C314708   5.368   2.498   4.820  0.2500 -0.4222  0.1476
  746THF     H414709   5.552   2.419   4.560 -0.9096  0.0343  0.4840
  746THF     H514710   5.565   2.567   4.647  0.8872 -1.4031  1.3118
  746THF     H614711   5.303   2.425   4.869 -2.2531 -1.8345  1.7817
  746THF     H714712   5.411   2.574   4.894  0.3778 -1.3969  0.3926
  746THF     C814713   5.297   2.565   4.706 -0.0489  0.1131  0.1924
  746THF     C914714   5.372   2.525   4.581  0.0526 -0.0306 -0.2495
  746THF    H1014715   5.302   2.673   4.706  1.0059  1.5624  1.0853
  746THF    H1114716   5.193   2.535   4.702 -0.9271 -0.3303  0.7089
  746THF    H1214717   5.315   2.442   4.539  1.6984  1.2694  1.1906
  746THF    H1314718   5.370   2.606   4.509 -0.6035 -2.2726  0.2373
  747THF     O114719   1.657   3.561   0.917 -0.2672 -0.1287 -0.3395
  747THF     C214720   1.523   3.575   0.861 -0.1108  0.7243  0.2926
  747THF     C314721   1.636   3.573   1.057 -0.0478  0.0956  0.7658
  747THF     H414722   1.459   3.491   0.899 -0.5063 -3.8851  1.0725
  747THF     H514723   1.523   3.560   0.759  1.4031 -0.1815  2.4891
  747THF     H614724   1.595   3.483   1.106 -2.7544 -0.7981 -1.2705
  747THF     H714725   1.733   3.586   1.100  1.3971  3.2576 -1.7949
  747THF     C814726   1.536   3.681   1.070 -0.2400  0.6872  0.4770
  747THF     C914727   1.470   3.691   0.933 -0.2641 -0.6898  0.8718
  747THF    H1014728   1.587   3.772   1.091  0.7268 -0.2380 -0.4016
  747THF    H1114729   1.467   3.662   1.152  2.8365 -1.6597 -0.2815
  747THF    H1214730   1.362   3.691   0.943  0.6992  2.5335  2.7569
  747THF    H1314731   1.485   3.788   0.879  2.1389  0.1598 -0.1387
  748THF     O114732   1.417   4.080   1.157  0.3303  0.3302 -0.3055
  748THF     C214733   1.550   4.060   1.209 -0.4133  0.5119  0.0002
  748THF     C314734   1.405   4.208   1.096 -0.5608 -0.1325  0.3926
  748THF     H414735   1.621   4.050   1.131  0.3791 -0.2394 -2.8971
  748THF     H514736   1.560   3.973   1.271 -0.0474  0.5958  2.7806
  748THF     H614737   1.442   4.192   0.993  3.3980 -1.6046 -0.9419
  748THF     H714738   1.296   4.236   1.095 -2.4175 -0.9784  1.3935
  748THF     C814739   1.502   4.288   1.185  0.1752 -0.1159 -0.0061
  748THF     C914740   1.571   4.195   1.279 -0.6218 -0.1246 -0.6790
  748THF    H1014741   1.452   4.371   1.237 -0.8502  1.8383 -0.0415
  748THF    H1114742   1.581   4.320   1.113 -1.6559 -2.6244 -1.2376
  748THF    H1214743   1.678   4.228   1.283 -1.2811  1.0035 -1.3481
  748THF    H1314744   1.533   4.197   1.379 -0.1995  0.7563 -1.1775
  749THF     O114745   4.932   4.338   2.026  0.0989 -0.1502 -0.2719
  749THF     C214746   5.070   4.319   2.005  0.2056 -0.3002  0.0160
  749THF     C314747   4.903   4.446   1.946 -0.2832 -0.2763 -0.2246
  749THF     H414748   5.078   4.265   1.904  0.1570  0.5056 -1.5432
  749THF     H514749   5.109   4.269   2.089  1.6310  0.8978 -0.6044
  749THF     H614750   4.903   4.429   1.840 -1.6569 -0.9075 -0.8191
  749THF     H714751   4.798   4.473   1.967  0.6845  0.7406 -2.5343
  749THF     C814752   5.008   4.551   1.983 -0.6718  0.2634 -0.6723
  749THF     C914753   5.139   4.464   1.997 -0.1851 -0.5603  0.2408
  749THF    H1014754   4.990   4.587   2.093 -2.9629 -0.6366  2.5525
  749THF    H1114755   5.011   4.643   1.932  2.7057  1.7032 -1.7796
  749THF    H1214756   5.206   4.467   1.917 -2.9181 -0.5417  1.1448
  749THF    H1314757   5.182   4.483   2.096  0.9957 -2.4469 -1.0022
  750THF     O114758   0.107   2.139   4.356 -0.4190  0.3395  0.2211
  750THF     C214759  -0.008   2.171   4.426 -0.0227 -0.1941 -0.6442
  750THF     C314760   0.183   2.259   4.325 -0.0906  0.4539 -0.4214
  750THF     H414761   0.026   2.206   4.525  0.1485 -0.0702  1.3740
  750THF     H514762  -0.075   2.085   4.442  0.6089 -0.4096  0.8021
  750THF     H614763   0.238   2.286   4.416  2.5578  0.1512  0.8155
  750THF     H714764   0.242   2.245   4.238 -0.4911  0.9123 -1.0518
  750THF     C814765   0.070   2.358   4.296 -0.1489 -0.0121  0.0382
  750THF     C914766  -0.056   2.283   4.329 -0.1478  0.3711  0.3671
  750THF    H1014767   0.079   2.403   4.192  1.5306 -0.4809 -4.4889
  750THF    H1114768   0.083   2.440   4.363 -0.8813  1.1053 -0.1423
  750THF    H1214769  -0.131   2.341   4.375  1.4831 -1.0326 -0.2654
  750THF    H1314770  -0.087   2.234   4.235 -1.3131 -1.2023  1.0551
  751THF     O114771   4.559   3.536   1.144 -0.0072  0.2604  0.0464
  751THF     C214772   4.689   3.551   1.079  0.1556 -0.2670 -0.4719
  751THF     C314773   4.471   3.635   1.083 -0.1453  0.7034  0.0207
  751THF     H414774   4.742   3.451   1.080 -2.3315 -0.4218  0.7019
  751THF     H514775   4.751   3.618   1.137 -1.0987 -0.1512  2.5149
  751THF     H614776   4.369   3.597   1.069 -2.0613  0.2169 -0.4466
  751THF     H714777   4.467   3.721   1.151  1.2425  0.8505 -1.4381
  751THF     C814778   4.529   3.677   0.947  0.5168  1.0046 -0.1530
  751THF     C914779   4.644   3.579   0.933  0.2725  0.5022 -0.1184
  751THF    H1014780   4.556   3.782   0.918  1.2486 -0.2303  0.7006
  751THF    H1114781   4.463   3.646   0.859  1.6842 -1.7403 -2.0878
  751THF    H1214782   4.620   3.488   0.879 -2.1654 -1.3301 -1.5424
  751THF    H1314783   4.725   3.627   0.878 -0.0007  1.6146 -1.8372
  752THF     O114784   4.037   3.664   0.517 -0.0855 -0.1159 -0.3876
  752THF     C214785   4.004   3.621   0.647  0.5435 -0.3240 -0.8139
  752THF     C314786   4.078   3.557   0.431 -0.3338  0.2098  0.0036
  752THF     H414787   3.900   3.603   0.657  0.5825 -0.0881 -1.0325
  752THF     H514788   4.023   3.705   0.725 -0.3760  2.2592  2.2276
  752THF     H614789   4.014   3.538   0.337 -1.2181  2.6160 -1.7347
  752THF     H714790   4.179   3.584   0.399  0.2347  2.6342  1.4200
  752THF     C814791   4.083   3.437   0.532  0.6202  1.1051  0.2654
  752THF     C914792   4.081   3.494   0.672  0.5256 -0.2897  0.4396
  752THF    H1014793   4.168   3.369   0.526 -2.0721 -0.4397 -0.4988
  752THF    H1114794   3.994   3.381   0.513  0.6419  1.5210 -0.2612
  752THF    H1214795   4.035   3.425   0.738  0.3073  0.9135 -2.8792
  752THF    H1314796   4.184   3.521   0.697  1.0667  2.7555  2.9210
  753THF     O114797   1.747   1.491   1.019  0.1298  0.1341  0.6454
  753THF     C214798   1.672   1.448   0.900  0.1234 -0.9594  0.1198
  753THF     C314799   1.874   1.534   0.986 -0.2507  0.3213 -0.1514
  753THF     H414800   1.569   1.427   0.916  1.5475 -0.4123 -2.1582
  753THF     H514801   1.714   1.359   0.865 -0.6046 -0.0505 -2.3869
  753THF     H614802   1.918   1.601   1.059  1.4278 -3.1604  1.8466
  753THF     H714803   1.937   1.446   0.975 -1.1606  0.7234  0.6991
  753THF     C814804   1.854   1.597   0.836 -0.0415 -0.6335 -0.2248
  753THF     C914805   1.704   1.569   0.815 -0.2700 -0.0840  0.3208
  753THF    H1014806   1.909   1.536   0.763 -0.3926  0.2909 -1.7721
  753THF    H1114807   1.881   1.700   0.828 -1.5999  0.4031 -2.5916
  753THF    H1214808   1.645   1.665   0.836 -0.2195  0.7846  1.2683
  753THF    H1314809   1.681   1.552   0.713 -0.8062 -0.8825  1.1434
  754PF6-    P114810   2.347   3.148   2.031  0.1034 -0.0572  0.1485
  754PF6-    F214811   2.385   3.301   2.055  0.1982 -0.6752 -0.0946
  754PF6-    F314812   2.308   2.992   2.002 -0.5070 -0.0880 -0.1069
  754PF6-    F414813   2.341   3.179   1.881 -0.1252 -0.0655 -0.1878
  754PF6-    F514814   2.358   3.114   2.186 -0.3690  0.6862  0.2678
  754PF6-    F614815   2.192   3.185   2.049 -0.1455 -0.1526 -0.2308
  754PF6-    F714816   2.501   3.114   2.013 -0.1507  0.1677  0.2432
  755PF6-    P114817   1.828   3.664   0.396  0.1459  0.3869  0.2269
  755PF6-    F214818   1.704   3.580   0.336  0.0747  0.6271  0.5861
  755PF6-    F314819   1.958   3.735   0.457  0.1815 -0.0963  0.3421
  755PF6-    F414820   1.928   3.569   0.315  0.0136  0.1506  0.1444
  755PF6-    F514821   1.730   3.752   0.489 -0.1101 -0.0512  0.1614
  755PF6-    F614822   1.834   3.565   0.523  0.1594 -0.2358  0.4702
  755PF6-    F714823   1.831   3.766   0.276 -0.0811  0.2812  0.4418
  756PF6-    P114824   3.711   4.139   3.445 -0.2846  0.0863  0.0858
  756PF6-    F214825   3.665   4.160   3.598 -0.1994 -0.3101 -0.2182
  756PF6-    F314826   3.752   4.114   3.289  0.1608  0.0603  0.0443
  756PF6-    F414827   3.864   4.136   3.484  0.6449  0.1775  0.4961
  756PF6-    F514828   3.555   4.142   3.407  0.3146 -0.3443 -0.1380
  756PF6-    F614829   3.720   4.295   3.416 -0.2555 -0.1984 -0.0710
  756PF6-    F714830   3.705   3.986   3.468  0.3560  0.2710 -0.0691
  757PF6-    P114831   3.136   3.757   0.416 -0.3001  0.0820  0.0328
  757PF6-    F214832   3.133   3.877   0.296 -0.2260 -0.4000 -0.4422
  757PF6-    F314833   3.141   3.636   0.519  0.3305  0.1124 -0.4036
  757PF6-    F414834   2.980   3.765   0.417  0.2459  0.5731 -0.7485
  757PF6-    F514835   3.297   3.751   0.414  0.4058  0.1761  0.1583
  757PF6-    F614836   3.146   3.864   0.533  0.1268  0.1416  0.3027
  757PF6-    F714837   3.130   3.652   0.300  0.5505  0.0106  0.4831
  758PF6-    P114838   3.204   4.364   4.136  0.1946 -0.2655  0.4822
  758PF6-    F214839   3.251   4.265   4.023 -0.0444 -0.0959  0.4808
  758PF6-    F314840   3.147   4.460   4.248  0.4720 -0.2093 -0.3568
  758PF6-    F414841   3.265   4.493   4.058  0.0131 -0.1068 -0.4350
  758PF6-    F514842   3.149   4.241   4.221  0.1872  0.0454 -0.1112
  758PF6-    F614843   3.344   4.349   4.215  0.0617 -0.4555 -0.1589
  758PF6-    F714844   3.060   4.374   4.059 -0.5925  0.2678  0.2183
  759PF6-    P114845   5.215   0.439   0.377 -0.6738  0.1240  0.0385
  759PF6-    F214846   5.226   0.334   0.264  0.1440 -0.7107 -0.2814
  759PF6-    F314847   5.206   0.551   0.485  0.1175  0.1192 -0.0454
  759PF6-    F414848   5.368   0.477   0.350  0.3128 -0.2015 -0.1598
  759PF6-    F514849   5.061   0.395   0.413  0.0437  0.0730 -0.7498
  759PF6-    F614850   5.268   0.338   0.493  0.2011  0.2472  0.5607
  759PF6-    F714851   5.167   0.548   0.273 -0.0194 -0.4787 -0.1017
  760PF6-    P114852   3.165   5.127   2.206  0.3473 -0.3518 -0.1276
  760PF6-    F214853   3.150   5.078   2.360 -0.1417  0.2208 -0.3498
  760PF6-    F314854   3.184   5.169   2.049  0.2180  0.0585  0.5337
  760PF6-    F414855   3.041   5.223   2.213 -0.2603  0.4713 -0.0010
  760PF6-    F514856   3.297   5.035   2.210 -0.0566 -0.0326  0.0960
  760PF6-    F614857   3.070   5.005   2.153 -0.0912 -0.0301 -0.5421
  760PF6-    F714858   3.257   5.249   2.253  0.1209 -0.0368  0.4595
  761PF6-    P114859   2.117   1.498   0.499  0.0345 -0.1382 -0.3885
  761PF6-    F214860   1.967   1.530   0.475  0.1498  0.1266 -0.1994
  761PF6-    F314861   2.274   1.466   0.532  0.5102 -0.1197  0.0523
  761PF6-    F414862   2.075   1.410   0.621  0.1188 -0.0485  0.3598
  761PF6-    F514863   2.162   1.584   0.374  0.1414  0.2701  0.1389
  761PF6-    F614864   2.125   1.629   0.589  0.2247 -0.5222 -0.4589
  761PF6-    F714865   2.104   1.372   0.407  0.1303 -0.1406 -0.1469
  762PF6-    P114866   3.215   1.074   3.146  0.0961  0.3844 -0.0297
  762PF6-    F214867   3.344   1.037   3.233  0.0579  0.0124 -0.0355
  762PF6-    F314868   3.091   1.111   3.059 -0.0102 -0.1228  0.2873
  762PF6-    F414869   3.265   1.225   3.137 -0.2696  0.3560  0.2398
  762PF6-    F514870   3.173   0.920   3.142  0.4273 -0.4650  0.4173
  762PF6-    F614871   3.130   1.102   3.277 -0.1202 -0.1615 -0.1339
  762PF6-    F714872   3.298   1.040   3.011 -0.2307  0.3094  0.2459
  763PF6-    P114873   3.590   4.410   2.562  0.0755  0.0306 -0.0467
  763PF6-    F214874   3.675   4.545   2.558 -0.1428  0.3074 -0.7084
  763PF6-    F314875   3.504   4.273   2.561  0.2051  0.2466 -0.7983
  763PF6-    F414876   3.709   4.320   2.633  0.2030 -0.1133  0.7330
  763PF6-    F514877   3.470   4.491   2.502 -0.0397 -0.0735  0.3865
  763PF6-    F614878   3.642   4.374   2.418  0.4490  0.1845  0.4516
  763PF6-    F714879   3.538   4.437   2.714  0.2407  0.1647 -0.1369
  764PF6-    P114880   3.817   0.445   0.107  0.3826  0.4040 -0.6735
  764PF6-    F214881   3.799   0.586   0.181  0.0166 -0.5268 -0.4483
  764PF6-    F314882   3.842   0.303   0.035  0.3640 -0.2178  0.0900
  764PF6-    F414883   3.710   0.380   0.206  0.2381  0.3017 -0.1744
  764PF6-    F514884   3.925   0.510   0.011 -0.0769  0.2779 -0.4472
  764PF6-    F614885   3.940   0.410   0.215 -0.0823  0.1508  0.0720
  764PF6-    F714886   3.701   0.486   0.002  0.0797  0.5944 -0.3052
  765PF6-    P114887   4.064   2.584   1.225 -0.1350 -0.2423 -0.0308
  765PF6-    F214888   4.217   2.615   1.235 -0.3996  0.3800 -0.3546
  765PF6-    F314889   3.910   2.560   1.228  0.2519  0.0268  0.1574
  765PF6-    F414890   4.092   2.461   1.328 -0.4632  0.0607  0.2188
  765PF6-    F514891   4.041   2.708   1.125 -0.1620 -0.2606  0.5263
  765PF6-    F614892   4.087   2.482   1.106  0.3069 -0.2323 -0.3716
  765PF6-    F714893   4.033   2.679   1.355  0.3336 -0.1672  0.6915
  766PF6-    P114894   4.048   3.089   3.420 -0.1166  0.2232 -0.3563
  766PF6-    F214895   4.148   3.165   3.323 -0.0298  0.2579  0.3668
  766PF6-    F314896   3.953   3.009   3.524  0.4571  0.1790  0.3802
  766PF6-    F414897   4.130   3.146   3.547  0.8416 -0.5608 -0.6500
  766PF6-    F514898   3.960   3.034   3.294  0.0785  0.1766 -0.0607
  766PF6-    F614899   4.143   2.959   3.406 -0.3625 -0.7334  0.2193
  766PF6-    F714900   3.959   3.220   3.425  0.5813  0.0407 -0.5392
  767PF6-    P114901   1.718   4.917   3.834  0.3925  0.1097 -0.3380
  767PF6-    F214902   1.590   5.002   3.869  0.4395  0.1197  0.2434
  767PF6-    F314903   1.844   4.829   3.795 -0.1635  0.0841 -0.5132
  767PF6-    F414904   1.742   4.890   3.988 -0.0132  0.1383  0.1915
  767PF6-    F514905   1.698   4.937   3.679  0.2134  0.2381 -0.0808
  767PF6-    F614906   1.811   5.049   3.835  0.0114  0.1609 -0.2412
  767PF6-    F714907   1.615   4.785   3.829  0.2976  0.2734  0.4165
  768PF6-    P114908   0.278   4.858   0.609 -0.2803 -0.2160 -0.3354
  768PF6-    F214909   0.421   4.800   0.566  0.0349  0.5930  0.3358
  768PF6-    F314910   0.132   4.915   0.638  0.5365 -0.1742 -0.0348
  768PF6-    F414911   0.214   4.771   0.490  0.1530 -0.0589 -0.2538
  768PF6-    F514912   0.348   4.949   0.723  0.1880  0.3610  0.0598
  768PF6-    F614913   0.299   4.976   0.501  0.0865  0.3564 -0.1502
  768PF6-    F714914   0.256   4.741   0.718  0.1911 -0.1744  0.5479
  769PF6-    P114915   0.833   3.296   1.469 -0.3799 -0.2953 -0.1654
  769PF6-    F214916   0.705   3.213   1.506  0.3123 -0.0057 -0.3178
  769PF6-    F314917   0.973   3.370   1.435 -0.2731  0.1725  0.0219
  769PF6-    F414918   0.896   3.170   1.396 -0.5215  0.4859 -0.1311
  769PF6-    F514919   0.771   3.429   1.538 -0.3251  0.1701 -0.1204
  769PF6-    F614920   0.893   3.247   1.613 -0.0129 -0.0640 -0.0022
  769PF6-    F714921   0.772   3.345   1.330  0.6506  0.0951 -0.3667
  770PF6-    P114922   0.770   3.677   5.011  0.0291 -0.2138  0.3138
  770PF6-    F214923   0.764   3.825   5.074 -0.2081  0.3522  0.1025
  770PF6-    F314924   0.780   3.529   4.945  0.5823 -0.0846  0.1834
  770PF6-    F414925   0.708   3.733   4.872 -0.0031  0.1573  0.0548
  770PF6-    F514926   0.823   3.623   5.152  0.2762 -0.3951  0.5665
  770PF6-    F614927   0.623   3.636   5.059  0.2136  0.3391  0.5351
  770PF6-    F714928   0.918   3.708   4.954  0.2259  0.1577 -0.0038
  771PF6-    P114929   1.922   5.393   1.007 -0.2751  0.3863 -0.0261
  771PF6-    F214930   1.992   5.325   0.872 -0.8333 -0.3132 -0.5326
  771PF6-    F314931   1.849   5.461   1.136 -0.2188 -0.1262 -0.1531
  771PF6-    F414932   2.063   5.443   1.060  0.2995 -0.3087  0.8386
  771PF6-    F514933   1.776   5.332   0.958  0.0475 -0.4492 -0.1318
  771PF6-    F614934   1.940   5.255   1.084  0.3171 -0.3398  0.2591
  771PF6-    F714935   1.898   5.520   0.925  0.0597 -0.3200 -0.1980
  772PF6-    P114936   0.927   2.766   5.482  0.5394 -0.0006  0.0384
  772PF6-    F214937   0.969   2.759   5.324  0.1655  0.6145 -0.0352
  772PF6-    F314938   0.878   2.774   5.634  0.3870 -0.3108 -0.5435
  772PF6-    F414939   1.069   2.725   5.527  0.3799 -0.2354 -0.3565
  772PF6-    F514940   0.786   2.827   5.436  0.3164  0.5341 -0.0650
  772PF6-    F614941   0.876   2.611   5.463 -0.3143  0.1621 -0.0919
  772PF6-    F714942   0.983   2.914   5.495 -0.0304 -0.4570  0.4712
  773PF6-    P114943   0.359   0.131   2.967  0.0281 -0.0230 -0.1999
  773PF6-    F214944   0.516   0.149   2.940 -0.1762  0.2710 -0.0967
  773PF6-    F314945   0.197   0.108   2.984  0.3849 -0.2201  0.2453
  773PF6-    F414946   0.336   0.275   2.900 -0.0712 -0.1122  0.1177
  773PF6-    F514947   0.392  -0.009   3.025  0.8824 -0.7218  0.2587
  773PF6-    F614948   0.365   0.200   3.113  0.4193 -0.6185  0.3674
  773PF6-    F714949   0.342   0.065   2.823 -0.1933  0.0180 -0.0656
  774PF6-    P114950   4.762   3.246   0.138 -0.1062  0.0108  0.3171
  774PF6-    F214951   4.691   3.387   0.161  0.4045 -0.4060 -0.3733
  774PF6-    F314952   4.828   3.102   0.115  0.0653 -0.2184  0.0404
  774PF6-    F414953   4.885   3.288   0.230 -0.5769 -0.3315  0.1915
  774PF6-    F514954   4.640   3.190   0.042  0.2802  0.3054 -0.7065
  774PF6-    F614955   4.838   3.304   0.012  0.1308 -0.4650 -0.1494
  774PF6-    F714956   4.680   3.187   0.265  0.5099  0.2803  0.0051
  775PF6-    P114957   4.818   4.793   5.100 -0.2040 -0.3140 -0.0366
  775PF6-    F214958   4.862   4.923   5.025 -0.4870  0.0504 -0.4286
  775PF6-    F314959   4.773   4.656   5.167  0.2596  0.2176  0.2964
  775PF6-    F414960   4.850   4.852   5.246  0.2533  0.2955 -0.0714
  775PF6-    F514961   4.794   4.736   4.955  0.1568  0.4818 -0.0938
  775PF6-    F614962   4.965   4.737   5.092  0.0007  0.5747 -0.0689
  775PF6-    F714963   4.667   4.849   5.111  0.1151  0.0430 -0.3071
  776PF6-    P114964   5.460   5.075   1.651 -0.2986 -0.1333  0.1208
  776PF6-    F214965   5.423   5.001   1.787 -0.3038 -0.2296  0.3638
  776PF6-    F314966   5.484   5.151   1.510  0.5434  0.6033 -0.6115
  776PF6-    F414967   5.566   5.167   1.727 -0.1448 -0.5673 -0.0736
  776PF6-    F514968   5.359   4.978   1.579  0.1044  0.1444 -0.1293
  776PF6-    F614969   5.349   5.185   1.681 -0.2499  0.4234  0.0979
  776PF6-    F714970   5.568   4.964   1.625 -0.9417  0.4955  0.2994
  777PF6-    P114971   4.473   3.601   2.777 -0.0587 -0.1808  0.1100
  777PF6-    F214972   4.540   3.649   2.637 -0.3824 -0.0382 -0.2714
  777PF6-    F314973   4.404   3.552   2.914 -0.0395  0.0026 -0.1300
  777PF6-    F414974   4.356   3.531   2.688 -0.8240 -0.3656  0.0291
  777PF6-    F514975   4.583   3.676   2.867 -0.1621 -0.2769  0.0455
  777PF6-    F614976   4.390   3.739   2.779 -0.1188  0.0597 -0.0879
  777PF6-    F714977   4.555   3.467   2.773  0.0378 -0.2689  0.0303
  778PF6-    P114978   3.043   3.722   3.029 -0.3630  0.2913  0.2912
  778PF6-    F214979   2.954   3.855   3.001  0.1834  0.0632  0.0225
  778PF6-    F314980   3.119   3.589   3.065  0.0224 -0.4535 -0.3029
  778PF6-    F414981   2.980   3.653   2.897 -0.2349  0.0134 -0.1456
  778PF6-    F514982   3.100   3.793   3.159  0.2634 -0.1722 -0.3824
  778PF6-    F614983   2.927   3.672   3.120  0.5555 -0.6954 -1.1255
  778PF6-    F714984   3.166   3.777   2.939  0.3683  0.1983 -0.1814
  779PF6-    P114985   1.113   3.194   3.818  0.1841  0.3048  0.1554
  779PF6-    F214986   0.965   3.138   3.855 -0.2174  0.9269  0.2142
  779PF6-    F314987   1.265   3.243   3.795 -0.4051  0.0349  1.2438
  779PF6-    F414988   1.170   3.054   3.877  0.2829 -0.0729 -0.1372
  779PF6-    F514989   1.053   3.330   3.760 -0.4793  0.3676 -0.2053
  779PF6-    F614990   1.118   3.262   3.966  0.1398  0.8564 -0.3106
  779PF6-    F714991   1.108   3.128   3.670 -0.3710 -0.6967  0.3092
  780PF6-    P114992   3.631   2.022   2.208 -0.2363 -0.3173  0.1891
  780PF6-    F214993   3.540   1.892   2.206 -0.2883 -0.4062 -0.2227
  780PF6-    F314994   3.722   2.157   2.212 -0.2067  0.6499  0.7304
  780PF6-    F414995   3.504   2.114   2.233  0.6323 -0.2920  0.3200
  780PF6-    F514996   3.759   1.931   2.175 -0.1670  0.0420 -0.1672
  780PF6-    F614997   3.606   2.044   2.049 -0.1063  0.0543  0.1136
  780PF6-    F714998   3.652   2.003   2.366 -0.1000 -0.2648  0.2936
  781PF6-    P114999   3.750   3.151   5.323  0.2442 -0.5948 -0.0456
  781PF6-    F215000   3.839   3.081   5.440 -0.3227 -0.2106 -0.1867
  781PF6-    F315001   3.662   3.221   5.212 -0.3805 -0.5423 -0.3665
  781PF6-    F415002   3.776   3.294   5.397 -0.1258  0.1382  0.4294
  781PF6-    F515003   3.723   3.010   5.256  0.4114 -0.1329 -0.3073
  781PF6-    F615004   3.610   3.141   5.413 -0.2543  0.1386 -0.0056
  781PF6-    F715005   3.886   3.167   5.237 -0.3083 -0.0610  0.2512
  782PF6-    P115006   2.255   1.570   4.730 -0.0288  0.3427  0.0964
  782PF6-    F215007   2.156   1.476   4.814  0.2908 -0.0487  0.1692
  782PF6-    F315008   2.358   1.663   4.642  0.2870 -0.2568  0.1104
  782PF6-    F415009   2.135   1.675   4.700 -0.0076 -0.2691 -0.0874
  782PF6-    F515010   2.381   1.467   4.757  0.2127 -0.3780 -0.1148
  782PF6-    F615011   2.213   1.494   4.593  0.2988 -0.6013  0.0448
  782PF6-    F715012   2.291   1.654   4.860 -0.0672 -0.5862  0.0649
  783PF6-    P115013   5.445   2.134   3.036 -0.0032 -0.0611 -0.2308
  783PF6-    F215014   5.511   2.153   2.896 -0.0769 -0.2988  0.3471
  783PF6-    F315015   5.370   2.114   3.181 -0.5261 -0.0332  0.2306
  783PF6-    F415016   5.399   2.286   3.028  0.0146 -0.0580 -0.0182
  783PF6-    F515017   5.507   1.986   3.045  0.3222  0.0247 -0.0474
  783PF6-    F615018   5.588   2.189   3.103  0.0249 -0.2203 -0.2034
  783PF6-    F715019   5.306   2.091   2.964 -0.3475  0.3858 -0.1786
  784PF6-    P115020   3.348   1.121   1.393  0.1746 -0.3137 -0.1320
  784PF6-    F215021   3.457   1.138   1.280  0.3356 -0.0446  0.0918
  784PF6-    F315022   3.239   1.101   1.499  0.2867  0.7317  0.4453
  784PF6-    F415023   3.345   1.283   1.412 -0.2864  0.9643 -0.6900
  784PF6-    F515024   3.349   0.964   1.373 -0.0233  0.4527  0.3023
  784PF6-    F615025   3.473   1.105   1.502  0.0181  0.1611  0.3341
  784PF6-    F715026   3.234   1.124   1.286 -0.4267  0.2084  0.1566
  785PF6-    P115027   4.251   2.895   1.913 -0.3809  0.1487 -0.1357
  785PF6-    F215028   4.131   2.998   1.900 -0.3550 -0.1434  0.0764
  785PF6-    F315029   4.363   2.781   1.926  0.1522 -0.0334  0.1764
  785PF6-    F415030   4.360   3.003   1.867  0.0552 -0.5013 -0.0080
  785PF6-    F515031   4.139   2.792   1.957 -0.4056  0.0455  0.1352
  785PF6-    F615032   4.228   2.855   1.759  0.1447 -0.0740 -0.0761
  785PF6-    F715033   4.271   2.945   2.060  0.1490 -0.1020  0.3494
  786PF6-    P115034   1.423   1.284   3.225 -0.0874 -0.2586  0.5436
  786PF6-    F215035   1.519   1.201   3.323  0.5347  0.0817 -0.7193
  786PF6-    F315036   1.321   1.364   3.133  0.1297  0.1639  0.0466
  786PF6-    F415037   1.533   1.285   3.103  0.3178  0.7212  0.2237
  786PF6-    F515038   1.310   1.288   3.337  0.0172  0.7457 -0.1726
  786PF6-    F615039   1.477   1.421   3.287  0.1459  0.1593  0.7243
  786PF6-    F715040   1.358   1.155   3.169  0.1808  0.1988 -0.5188
  787PF6-    P115041   5.062   5.354   3.449 -0.3158 -0.0943 -0.4492
  787PF6-    F215042   5.146   5.435   3.567  0.1262  0.2647  0.5177
  787PF6-    F315043   4.983   5.277   3.335 -0.1114  0.6303  0.3425
  787PF6-    F415044   4.928   5.354   3.539 -0.2782  0.1077  0.1242
  787PF6-    F515045   5.197   5.342   3.357  0.3007  0.3831  0.2573
  787PF6-    F615046   5.099   5.215   3.517 -0.0223 -0.0159 -0.0841
  787PF6-    F715047   5.017   5.489   3.387  0.3762  0.1859 -0.1021
  788PF6-    P115048   3.695   4.503   5.421 -0.2430  0.6161 -0.1820
  788PF6-    F215049   3.607   4.513   5.559  0.1525  0.2155  0.4655
  788PF6-    F315050   3.780   4.495   5.289  0.5097  0.0063 -0.2635
  788PF6-    F415051   3.568   4.556   5.339 -0.5982 -0.6176 -0.6081
  788PF6-    F515052   3.821   4.444   5.506 -0.0795  0.0291  0.3104
  788PF6-    F615053   3.642   4.353   5.400 -0.5059  0.0839 -0.0786
  788PF6-    F715054   3.753   4.650   5.443 -0.9457  0.7018 -0.0869
  789PF6-    P115055   4.480   5.377   0.584  0.4634  0.0629 -0.1831
  789PF6-    F215056   4.493   5.418   0.429 -0.1304  0.0822 -0.2891
  789PF6-    F315057   4.477   5.339   0.739 -0.0378 -0.1218  0.3107
  789PF6-    F415058   4.591   5.486   0.620 -0.2942  0.1308  0.0947
  789PF6-    F515059   4.362   5.264   0.545  0.2203  0.4904 -0.0604
  789PF6-    F615060   4.599   5.261   0.563  0.0739 -0.1073 -0.0205
  789PF6-    F715061   4.360   5.487   0.613 -0.4615 -0.2413 -0.2601
  790PF6-    P115062   1.393   1.961   0.648 -0.3058 -0.2593 -0.0110
  790PF6-    F215063   1.485   1.843   0.710  0.2473 -0.1100 -0.5190
  790PF6-    F315064   1.298   2.068   0.573 -0.2659  0.0643  0.0554
  790PF6-    F415065   1.442   1.923   0.501  0.2723 -0.2978 -0.2705
  790PF6-    F515066   1.340   2.007   0.793 -0.5542 -0.0036  0.0906
  790PF6-    F615067   1.509   2.069   0.672 -0.0972 -0.4423  0.2585
  790PF6-    F715068   1.272   1.859   0.627 -0.0391 -0.0671  0.0021
  791PF6-    P115069   1.274   5.350   4.730  0.3786  0.0965 -0.4273
  791PF6-    F215070   1.254   5.192   4.738 -0.1425 -0.4960  0.3692
  791PF6-    F315071   1.289   5.504   4.718  0.2053 -0.2482 -0.0065
  791PF6-    F415072   1.302   5.334   4.571  0.0462 -0.5094  0.3752
  791PF6-    F515073   1.253   5.368   4.887  0.0868  0.7035 -0.4590
  791PF6-    F615074   1.433   5.348   4.758  0.0612  0.3379 -0.0664
  791PF6-    F715075   1.115   5.366   4.712 -0.1785 -0.5832  0.2213
  792PF6-    P115076   3.036   0.324   1.165  0.1252 -0.2373 -0.4894
  792PF6-    F215077   2.924   0.215   1.188  0.0918 -0.4227 -0.3125
  792PF6-    F315078   3.148   0.440   1.139  0.0491  0.1877 -0.2026
  792PF6-    F415079   3.093   0.286   1.309  0.2505  0.4558 -0.6907
  792PF6-    F515080   2.975   0.355   1.021 -0.3498  0.1011  0.0727
  792PF6-    F615081   2.943   0.429   1.236  0.1917  0.0183  0.0418
  792PF6-    F715082   3.132   0.215   1.099  0.2819 -0.1565  0.4533
  793PF6-    P115083   0.201   4.011   1.186  0.0734 -0.0782 -0.1908
  793PF6-    F215084   0.173   4.166   1.219 -0.3810  0.2369  0.2505
  793PF6-    F315085   0.242   3.854   1.151 -0.1900  0.3090 -0.0660
  793PF6-    F415086   0.056   3.972   1.238 -0.1856 -0.0522 -1.0151
  793PF6-    F515087   0.350   4.051   1.138  0.0725 -0.3250 -0.3871
  793PF6-    F615088   0.256   3.991   1.337 -0.1593  0.2891 -0.2957
  793PF6-    F715089   0.144   4.031   1.040  0.1920 -0.2268 -0.4550
  794PF6-    P115090   1.293   5.471   1.914 -0.0026  0.0411 -0.0401
  794PF6-    F215091   1.346   5.621   1.899 -0.3259 -0.0769  0.1552
  794PF6-    F315092   1.238   5.325   1.932 -0.2055 -0.2482  0.0256
  794PF6-    F415093   1.260   5.464   1.757  0.3880  0.4150  0.3578
  794PF6-    F515094   1.325   5.481   2.071 -0.1924  0.4010 -0.2682
  794PF6-    F615095   1.151   5.536   1.948 -0.0281 -0.4662 -0.4558
  794PF6-    F715096   1.433   5.405   1.879 -0.1517  0.1911  0.0501
  795PF6-    P115097   2.372   2.677   3.955  0.4082 -0.2259  0.1609
  795PF6-    F215098   2.487   2.774   4.006 -0.3996  0.6730  0.4375
  795PF6-    F315099   2.257   2.583   3.905 -0.5758 -0.3418  0.0148
  795PF6-    F415100   2.396   2.588   4.082  0.6309  0.1487  0.0010
  795PF6-    F515101   2.350   2.773   3.830  0.3103 -0.0968  0.2105
  795PF6-    F615102   2.479   2.590   3.871  0.1634  0.0765  0.2828
  795PF6-    F715103   2.267   2.766   4.038  0.0651 -0.1942  0.2872
  796PF6-    P115104   1.967   3.940   1.352 -0.4778 -0.2573  0.3687
  796PF6-    F215105   2.030   3.801   1.381 -0.3071  0.2960  0.4754
  796PF6-    F315106   1.894   4.075   1.312  0.0913  0.1816 -0.2721
  796PF6-    F415107   2.048   3.942   1.211 -0.2317  0.6421 -0.0719
  796PF6-    F515108   1.883   3.931   1.489  0.3561  0.0336  0.0777
  796PF6-    F615109   2.085   4.027   1.426  0.3231 -0.3056 -0.1006
  796PF6-    F715110   1.851   3.859   1.281 -0.0018  0.3396  0.0340
  797PF6-    P115111   1.421   2.042   4.285 -0.1752  0.0482  0.2992
  797PF6-    F215112   1.374   2.179   4.349 -0.3877 -0.3512  0.3678
  797PF6-    F315113   1.467   1.897   4.224  0.4475 -0.2540 -0.0856
  797PF6-    F415114   1.350   2.076   4.140  0.2431 -0.3142  0.6717
  797PF6-    F515115   1.490   1.997   4.418  0.7611  0.4043  0.4606
  797PF6-    F615116   1.279   1.974   4.333 -0.2038  0.1496 -0.2690
  797PF6-    F715117   1.557   2.112   4.228 -0.4306  0.0256  0.3154
  798PF6-    P115118   2.387   5.353   4.299 -0.2545  0.0987  0.0727
  798PF6-    F215119   2.533   5.356   4.237 -0.3037 -0.3613 -0.2702
  798PF6-    F315120   2.233   5.348   4.361  0.0274 -0.0190  0.1663
  798PF6-    F415121   2.458   5.397   4.437 -0.1087 -0.8146  0.2792
  798PF6-    F515122   2.327   5.296   4.164 -0.1526  0.2506 -0.1898
  798PF6-    F615123   2.409   5.199   4.344  0.4911  0.0496 -0.4765
  798PF6-    F715124   2.370   5.507   4.252 -0.2234 -0.1680  0.1491
  799PF6-    P115125   4.392   1.832   2.916  0.2575  0.0357  0.0261
  799PF6-    F215126   4.314   1.954   2.997  0.1411  0.1926 -0.5033
  799PF6-    F315127   4.467   1.711   2.839 -0.3550  0.2664  0.0718
  799PF6-    F415128   4.266   1.731   2.937 -0.0709 -0.0892  0.3930
  799PF6-    F515129   4.521   1.929   2.889 -0.6434  0.4896  0.5163
  799PF6-    F615130   4.454   1.774   3.059  0.3906 -0.0516  0.0555
  799PF6-    F715131   4.328   1.889   2.781 -0.0342  0.0228  0.7482
  800PF6-    P115132   4.893   1.122   4.164 -0.1139  0.1064  0.3950
  800PF6-    F215133   4.865   1.260   4.220 -0.2660 -0.2780 -0.7265
  800PF6-    F315134   4.926   0.985   4.096  0.2974 -0.4547 -0.0564
  800PF6-    F415135   4.739   1.108   4.115 -0.2148  0.2279  0.2521
  800PF6-    F515136   5.046   1.137   4.213  0.6697 -0.1873  0.0098
  800PF6-    F615137   4.853   1.053   4.304  0.2337  0.2690  0.9285
  800PF6-    F715138   4.921   1.187   4.025  0.0726  0.1595  0.2318
  801PF6-    P115139   1.305   4.615   0.480  0.2089  0.0751  0.0435
  801PF6-    F215140   1.173   4.690   0.529  0.2419 -0.3570 -0.3716
  801PF6-    F315141   1.434   4.535   0.422  0.0490 -0.3213 -0.2605
  801PF6-    F415142   1.241   4.613   0.329  0.2554 -0.0253  0.0990
  801PF6-    F515143   1.373   4.616   0.632  0.2435 -0.7016 -0.3886
  801PF6-    F615144   1.234   4.471   0.508 -0.4845  0.3527 -0.1788
  801PF6-    F715145   1.374   4.754   0.450 -0.2648  0.1346  0.2363
  802PF6-    P115146   2.650   4.476   3.123  0.3927 -0.1235  0.3584
  802PF6-    F215147   2.515   4.565   3.148  0.3300  0.1633  0.4406
  802PF6-    F315148   2.776   4.381   3.092 -0.0346 -0.2329 -0.4024
  802PF6-    F415149   2.640   4.506   2.961 -0.3436 -0.0060 -0.3268
  802PF6-    F515150   2.660   4.445   3.279  0.2772  0.6910  0.5536
  802PF6-    F615151   2.556   4.344   3.104 -0.3381 -0.0856  0.2882
  802PF6-    F715152   2.743   4.605   3.144  0.1601  0.2593 -0.2488
  803PF6-    P115153   0.330   2.683   4.262 -0.3584  0.5677  0.4571
  803PF6-    F215154   0.251   2.588   4.168  0.0710  0.1036 -0.0548
  803PF6-    F315155   0.411   2.782   4.363  0.2268 -0.2564  1.3649
  803PF6-    F415156   0.366   2.560   4.360 -0.1632 -0.0662  0.3829
  803PF6-    F515157   0.304   2.808   4.156  0.6544  0.3670  0.2006
  803PF6-    F615158   0.200   2.716   4.345 -0.4749  0.4405  0.4163
  803PF6-    F715159   0.464   2.665   4.180 -0.6891  0.0646 -0.0299
  804PF6-    P115160   2.808   5.289   0.213 -0.2241  0.5687 -0.0694
  804PF6-    F215161   2.803   5.148   0.285 -0.4277 -0.1476 -0.0107
  804PF6-    F315162   2.821   5.433   0.134  0.3846 -0.7491  0.1229
  804PF6-    F415163   2.894   5.346   0.338  0.0740 -0.1957 -0.3188
  804PF6-    F515164   2.731   5.224   0.091  0.2073 -0.2315  0.2886
  804PF6-    F615165   2.663   5.328   0.285  0.8755  0.1657  0.5921
  804PF6-    F715166   2.950   5.242   0.143  0.1034  0.1703  0.0513
  805PF6-    P115167   2.662   0.398   1.905  0.0954  0.1643  0.1075
  805PF6-    F215168   2.745   0.308   1.806 -0.0273  0.3083  0.3409
  805PF6-    F315169   2.583   0.502   1.995  0.2285  0.3414 -0.5533
  805PF6-    F415170   2.785   0.497   1.918  0.1075  0.2706  0.1994
  805PF6-    F515171   2.537   0.290   1.898 -0.0713  0.0947 -0.2901
  805PF6-    F615172   2.723   0.312   2.027 -0.2207  0.0645 -0.9004
  805PF6-    F715173   2.603   0.472   1.777 -0.2613  0.0726 -0.4824
  806PF6-    P115174   2.081   5.319   2.554  0.1846  0.0003  0.1975
  806PF6-    F215175   2.032   5.429   2.450 -0.1625 -0.5275  0.0002
  806PF6-    F315176   2.135   5.197   2.648  0.2632  0.3202  0.1209
  806PF6-    F415177   1.996   5.204   2.474 -0.4413 -0.0782  0.1360
  806PF6-    F515178   2.158   5.434   2.640  0.0624 -0.6996  0.3628
  806PF6-    F615179   1.953   5.339   2.648 -0.2344 -0.7553 -1.0555
  806PF6-    F715180   2.211   5.298   2.463  0.0804 -0.4577  0.2670
  807PF6-    P115181   3.774   0.402   2.459  0.0660 -0.1054 -0.5607
  807PF6-    F215182   3.688   0.322   2.354 -0.3723  0.0387 -0.3265
  807PF6-    F315183   3.868   0.466   2.572  0.2286 -0.3000 -0.0714
  807PF6-    F415184   3.738   0.545   2.393 -0.0403 -0.0528  0.2688
  807PF6-    F515185   3.808   0.260   2.518 -0.3486  0.2817  0.1439
  807PF6-    F615186   3.902   0.388   2.368  0.1197  0.2402 -0.1856
  807PF6-    F715187   3.645   0.409   2.557 -0.1425  0.4038  0.2459
  808PF6-    P115188   4.506   1.141   1.070 -0.0364 -0.1705 -0.2258
  808PF6-    F215189   4.534   0.982   1.083  0.0119  0.2777  0.4770
  808PF6-    F315190   4.475   1.298   1.062 -0.6743  0.3720  0.3772
  808PF6-    F415191   4.569   1.152   1.218 -0.1584 -0.0058  0.4326
  808PF6-    F515192   4.443   1.121   0.922  0.4656  0.3703  0.4623
  808PF6-    F615193   4.362   1.120   1.131 -0.0673  0.0272 -0.2070
  808PF6-    F715194   4.650   1.155   0.999 -0.1373 -0.4291 -0.1271
  809PF6-    P115195   0.023   4.071   2.071  0.0728 -0.0824 -0.4636
  809PF6-    F215196   0.027   4.153   2.210  0.7430  0.1359 -0.1670
  809PF6-    F315197   0.015   3.993   1.932  0.4352  0.3477  0.0340
  809PF6-    F415198   0.146   4.163   2.021  0.3456  0.1591 -0.3934
  809PF6-    F515199  -0.088   3.977   2.134  0.2424  0.5194  0.5828
  809PF6-    F615200  -0.088   4.179   2.016  0.7027  0.6120 -0.1652
  809PF6-    F715201   0.129   3.962   2.134 -0.3261  0.2392  0.0788
  810PF6-    P115202   1.989   2.671   3.154  0.2403 -0.0952 -0.4640
  810PF6-    F215203   1.999   2.746   3.013  0.4636 -0.0825 -0.1363
  810PF6-    F315204   1.984   2.586   3.292 -0.9286 -0.1118  0.0932
  810PF6-    F415205   1.833   2.633   3.132  0.0105 -0.0178  0.1997
  810PF6-    F515206   2.143   2.706   3.189 -0.2663 -0.0097 -0.1075
  810PF6-    F615207   1.943   2.807   3.226  0.3407  0.0222  0.7168
  810PF6-    F715208   2.031   2.531   3.088 -0.0744 -0.2001  0.2666
  811PF6-    P115209   0.003   3.278   0.416  0.3651  0.2454 -0.3946
  811PF6-    F215210   0.076   3.372   0.308  0.0230 -0.3481  0.1007
  811PF6-    F315211  -0.062   3.178   0.522 -0.1692  0.3772  0.2079
  811PF6-    F415212   0.027   3.145   0.324  0.0252 -0.4322  0.4582
  811PF6-    F515213  -0.018   3.399   0.515  0.2430  0.7766 -0.1247
  811PF6-    F615214  -0.136   3.306   0.351  0.2592 -0.2011 -0.7334
  811PF6-    F715215   0.147   3.255   0.488 -0.3477  0.4503  0.4586
  812PF6-    P115216   4.953   1.170   5.131  0.2762  0.3981 -0.3717
  812PF6-    F215217   4.972   1.322   5.069  0.2052 -0.3039  0.4193
  812PF6-    F315218   4.920   1.021   5.183 -0.1542  0.4053  0.2918
  812PF6-    F415219   4.795   1.205   5.146  0.1706 -0.6338  0.6297
  812PF6-    F515220   5.103   1.134   5.109 -0.7894 -0.0002 -0.4852
  812PF6-    F615221   4.982   1.222   5.282  0.4959 -0.1499  0.0329
  812PF6-    F715222   4.913   1.119   4.983  0.0600 -0.2113  0.0467
  813PF6-    P115223   1.625   1.196   1.541  0.2656  0.3192 -0.0583
  813PF6-    F215224   1.554   1.341   1.538  0.1765  0.0589 -0.1151
  813PF6-    F315225   1.693   1.049   1.544 -0.0982  0.2446 -0.5772
  813PF6-    F415226   1.638   1.203   1.379  0.3066 -0.3175 -0.1927
  813PF6-    F515227   1.609   1.196   1.700 -0.2183 -0.1430  0.0771
  813PF6-    F615228   1.483   1.132   1.527  0.3127 -0.1146  0.6602
  813PF6-    F715229   1.769   1.265   1.559  0.2904  0.0652  0.0260
  814PF6-    P115230   5.123   2.314   2.040  0.2469  0.2807 -0.1452
  814PF6-    F215231   5.226   2.218   1.954  0.1368  0.2130  0.3290
  814PF6-    F315232   5.018   2.399   2.111  0.0079  0.2809 -0.7825
  814PF6-    F415233   5.132   2.216   2.163 -0.2790  0.3704 -0.2884
  814PF6-    F515234   5.110   2.418   1.913 -0.5841  0.3550 -0.4255
  814PF6-    F615235   5.002   2.233   1.974 -0.2677 -0.1953  0.0923
  814PF6-    F715236   5.250   2.392   2.095  0.1024 -0.2719  0.3877
  815PF6-    P115237   3.909   2.169   3.578  0.0110 -0.5315  0.1662
  815PF6-    F215238   4.057   2.119   3.570 -0.1469 -0.6806 -0.1572
  815PF6-    F315239   3.757   2.222   3.582 -0.0955  0.4095  0.0177
  815PF6-    F415240   3.919   2.197   3.420  0.5362  0.5735  0.1359
  815PF6-    F515241   3.906   2.143   3.734  0.5625  1.1603  0.2384
  815PF6-    F615242   3.966   2.323   3.602 -0.0549  0.3186  0.3854
  815PF6-    F715243   3.860   2.025   3.548  0.5648 -0.0748 -0.0600
  816PF6-    P115244   2.682   4.850   1.310  0.2242 -0.1286  0.1615
  816PF6-    F215245   2.569   4.742   1.259  0.2964  0.3555  0.0023
  816PF6-    F315246   2.786   4.956   1.365  0.1947  0.1655 -0.4740
  816PF6-    F415247   2.789   4.786   1.211 -0.2242 -0.3384  0.1125
  816PF6-    F515248   2.572   4.925   1.403  0.3357 -0.0208 -0.0141
  816PF6-    F615249   2.728   4.758   1.428 -1.0679  0.0463 -0.0533
  816PF6-    F715250   2.645   4.958   1.198 -0.2888 -0.4406 -0.3646
  817PF6-    P115251   2.470   4.556   2.069 -0.4463 -0.3245  0.1186
  817PF6-    F215252   2.547   4.694   2.016 -0.0652  0.4913  0.0801
  817PF6-    F315253   2.396   4.421   2.117 -0.0594 -0.1935  0.5085
  817PF6-    F415254   2.330   4.618   2.031  0.4296 -0.5420  0.3042
  817PF6-    F515255   2.613   4.490   2.105  0.5410 -0.0315 -0.2125
  817PF6-    F615256   2.464   4.612   2.217 -0.4338  0.5442 -0.1770
  817PF6-    F715257   2.486   4.502   1.916  0.4375 -0.4528 -0.0845
  818PF6-    P115258   2.555   1.832   3.331 -0.2740 -0.0178 -0.2382
  818PF6-    F215259   2.403   1.803   3.380 -0.4059 -0.7766  0.3419
  818PF6-    F315260   2.711   1.853   3.283 -0.3769  0.0118  0.0016
  818PF6-    F415261   2.586   1.891   3.475  0.1094  0.9828 -0.1197
  818PF6-    F515262   2.520   1.772   3.190  0.0846  0.1539  0.2611
  818PF6-    F615263   2.518   1.979   3.287 -0.1959 -0.5375  0.1031
  818PF6-    F715264   2.596   1.683   3.385 -0.2237 -0.5730 -0.2082
  819PF6-    P115265   2.267   4.406   5.332  0.4430  0.0875 -0.0538
  819PF6-    F215266   2.389   4.388   5.431  0.0452  0.7028  0.0161
  819PF6-    F315267   2.142   4.411   5.232  0.3752 -0.6690 -0.4342
  819PF6-    F415268   2.305   4.564   5.315  0.1922 -0.5996 -0.3077
  819PF6-    F515269   2.242   4.253   5.353  0.0851  0.4024 -0.2737
  819PF6-    F615270   2.176   4.443   5.460 -0.6476 -0.4215  0.3685
  819PF6-    F715271   2.357   4.363   5.209  0.1900 -0.0233  0.2869
  820PF6-    P115272   0.304   2.608   1.199 -0.0260 -0.2533 -0.5228
  820PF6-    F215273   0.432   2.690   1.249 -0.0932 -0.2323 -0.5046
  820PF6-    F315274   0.173   2.526   1.150 -0.2453  0.4731  0.5800
  820PF6-    F415275   0.364   2.476   1.263  0.2173 -0.2980  0.0157
  820PF6-    F515276   0.252   2.740   1.131  0.1103 -0.1387 -0.5453
  820PF6-    F615277   0.381   2.575   1.060 -0.4318  0.6244 -0.3162
  820PF6-    F715278   0.231   2.641   1.344  0.2418 -0.1541 -0.5745
  821PF6-    P115279   2.070   3.868   4.358  0.0960  0.3215 -0.1624
  821PF6-    F215280   2.020   3.747   4.451  0.3108 -0.0058 -0.4886
  821PF6-    F315281   2.114   3.987   4.263  0.2808 -0.5043  0.1166
  821PF6-    F415282   2.216   3.821   4.368 -0.0231 -0.2525 -0.0462
  821PF6-    F515283   1.917   3.914   4.339  0.4817 -0.0880 -0.5266
  821PF6-    F615284   2.084   3.961   4.486  0.1883 -0.3846  0.0960
  821PF6-    F715285   2.060   3.773   4.225  0.1224  0.1374 -0.2369
  822PF6-    P115286   2.407   2.527   5.297 -0.2271  0.4590  0.2852
  822PF6-    F215287   2.476   2.408   5.376 -0.0936 -0.7273  0.1084
  822PF6-    F315288   2.329   2.638   5.208 -0.1311  0.1446 -0.6847
  822PF6-    F415289   2.283   2.431   5.280  0.0358  0.4551 -0.1474
  822PF6-    F515290   2.535   2.625   5.313  0.3803  0.3869 -0.2657
  822PF6-    F615291   2.467   2.471   5.158 -0.3134  0.6404  0.0504
  822PF6-    F715292   2.347   2.580   5.430  0.1871  0.1269 -0.0742
  823PF6-    P115293   2.911   5.357   3.155 -0.0368 -0.1482 -0.2373
  823PF6-    F215294   2.757   5.362   3.112  0.1602 -0.1585  0.1421
  823PF6-    F315295   3.062   5.351   3.192  0.1302 -0.2116  0.1123
  823PF6-    F415296   2.941   5.485   3.058 -0.7676  0.4845 -0.1631
  823PF6-    F515297   2.883   5.234   3.247 -0.5010  0.2038 -0.3321
  823PF6-    F615298   2.939   5.257   3.034  0.6579  0.7552 -0.2080
  823PF6-    F715299   2.876   5.454   3.273 -0.6807 -0.3546  0.2320
  824PF6-    P115300   2.533   2.594   2.630 -0.3911  0.0550 -0.1518
  824PF6-    F215301   2.395   2.576   2.716  0.0804  0.1935 -0.6148
  824PF6-    F315302   2.674   2.608   2.549 -0.4896 -0.0924  0.2165
  824PF6-    F415303   2.603   2.672   2.755  0.1524  0.7600  0.2867
  824PF6-    F515304   2.468   2.506   2.509 -0.3912 -0.8755 -0.0607
  824PF6-    F615305   2.480   2.726   2.566  0.2240 -0.0442 -0.2413
  824PF6-    F715306   2.585   2.457   2.683  0.5966  0.1452 -0.2546
  825PF6-    P115307   0.116   4.769   2.656 -0.2477 -0.2408  0.1850
  825PF6-    F215308   0.039   4.647   2.589 -0.1397 -0.0582 -0.1982
  825PF6-    F315309   0.195   4.887   2.725  0.1159 -0.3899 -0.5769
  825PF6-    F415310  -0.020   4.843   2.685 -0.0220 -0.1887  0.5256
  825PF6-    F515311   0.251   4.692   2.627 -0.0641 -0.3285  0.4393
  825PF6-    F615312   0.135   4.847   2.512  0.2977  0.0635  0.0501
  825PF6-    F715313   0.106   4.691   2.794  0.1995  0.3742 -0.0954
  826PF6-    P115314   0.105   3.569   4.297 -0.3133  0.2219 -0.0366
  826PF6-    F215315   0.052   3.699   4.372 -0.2356 -0.2356 -0.1678
  826PF6-    F315316   0.155   3.439   4.215 -0.0251 -0.0650 -0.2180
  826PF6-    F415317  -0.005   3.598   4.182 -0.0280  0.3574  0.3184
  826PF6-    F515318   0.218   3.544   4.410 -0.1469  0.2739 -0.4416
  826PF6-    F615319  -0.004   3.475   4.375  0.3278  0.2606  0.0910
  826PF6-    F715320   0.214   3.663   4.220  0.5406  0.2303  0.1472
  827PF6-    P115321   5.080   3.997   3.376 -0.0034  0.4315  0.0832
  827PF6-    F215322   5.221   3.929   3.337 -0.7474 -0.2051 -0.0426
  827PF6-    F315323   4.938   4.065   3.415 -0.5079 -0.0730  0.0401
  827PF6-    F415324   5.127   4.142   3.325  0.1101 -0.5276  0.6174
  827PF6-    F515325   5.027   3.855   3.421 -0.1959  0.4516  0.2087
  827PF6-    F615326   5.137   4.034   3.524 -0.2001  0.6429  0.0277
  827PF6-    F715327   5.027   3.966   3.227  0.3577 -0.4595  0.4226
  828PF6-    P115328   0.749   1.469   1.515  0.1797 -0.0446  0.0149
  828PF6-    F215329   0.813   1.327   1.497 -0.1257 -0.1142  0.1061
  828PF6-    F315330   0.680   1.610   1.526 -0.1070  0.1818  0.1800
  828PF6-    F415331   0.888   1.538   1.481 -0.0072  0.0117 -0.1756
  828PF6-    F515332   0.606   1.409   1.556 -0.1998 -0.5265 -0.0593
  828PF6-    F615333   0.792   1.466   1.675 -0.6382  0.4431 -0.3120
  828PF6-    F715334   0.710   1.474   1.361  0.6842  0.1403  0.1779
  829PF6-    P115335   2.461   1.599   2.145  0.0602  0.4846 -0.3099
  829PF6-    F215336   2.603   1.605   2.066 -0.5119 -0.1486  0.1474
  829PF6-    F315337   2.321   1.594   2.217  0.4248 -0.4116 -0.0553
  829PF6-    F415338   2.434   1.750   2.095  0.2426 -0.1064 -0.4671
  829PF6-    F515339   2.489   1.447   2.187  0.3395  0.3938  0.6379
  829PF6-    F615340   2.538   1.649   2.278  0.0615  0.5965 -0.1299
  829PF6-    F715341   2.389   1.546   2.010 -0.1430  0.4376 -0.3674
  830PF6-    P115342   3.780   1.702   0.441 -0.2767  0.0972 -0.2282
  830PF6-    F215343   3.627   1.734   0.475 -0.6180 -0.1020  0.2065
  830PF6-    F315344   3.931   1.670   0.403 -0.0660  1.0960  0.0109
  830PF6-    F415345   3.814   1.856   0.479 -0.0587  0.3445  0.3195
  830PF6-    F515346   3.748   1.547   0.398  0.5133 -0.0423  0.2898
  830PF6-    F615347   3.759   1.745   0.289  0.1034  0.3121 -0.2954
  830PF6-    F715348   3.800   1.647   0.592  0.2703 -0.0452  0.5928
  831PF6-    P115349   0.575   1.185   0.476  0.0245  0.0434  0.1706
  831PF6-    F215350   0.723   1.228   0.433  0.3861  0.2246  0.0279
  831PF6-    F315351   0.427   1.145   0.520 -0.0644  0.1430  0.0313
  831PF6-    F415352   0.631   1.181   0.631  0.4995  0.2275  0.3276
  831PF6-    F515353   0.527   1.193   0.327 -0.4277  0.0474 -0.5070
  831PF6-    F615354   0.609   1.026   0.461 -0.1052 -0.5352 -0.6698
  831PF6-    F715355   0.532   1.341   0.501 -0.0456  0.6221 -0.5008
  832PF6-    P115356   4.475   3.835   4.139 -0.1232 -0.3964  0.5810
  832PF6-    F215357   4.582   3.710   4.115 -0.3174 -0.6634  0.5473
  832PF6-    F315358   4.368   3.955   4.173  0.5491  0.6101 -0.1671
  832PF6-    F415359   4.575   3.937   4.066  0.1335  0.4279 -0.2069
  832PF6-    F515360   4.374   3.726   4.196  0.0750  0.4006  0.5952
  832PF6-    F615361   4.546   3.861   4.281 -0.2911  0.1775  0.2497
  832PF6-    F715362   4.410   3.816   3.994  0.1818  0.1947 -0.7656
  833PF6-    P115363   1.457   0.330   3.095  0.0203  0.0723  0.0935
  833PF6-    F215364   1.356   0.210   3.079 -0.0090  0.2290  0.8521
  833PF6-    F315365   1.558   0.447   3.114  0.8058 -0.5757  0.1954
  833PF6-    F415366   1.511   0.301   2.949  0.0934  0.5327 -0.1890
  833PF6-    F515367   1.398   0.353   3.249 -0.0995 -0.7001 -0.1573
  833PF6-    F615368   1.571   0.223   3.151  0.1111  0.2052 -0.1076
  833PF6-    F715369   1.348   0.429   3.040 -0.0315 -0.1934  0.1029
  834PF6-    P115370   0.452   0.200   5.061  0.1191 -0.3991 -0.2241
  834PF6-    F215371   0.549   0.187   5.193 -0.0641 -0.1754 -0.4249
  834PF6-    F315372   0.367   0.227   4.927 -0.1760 -0.0246 -0.2116
  834PF6-    F415373   0.366   0.064   5.094 -0.1450 -0.5847 -0.1348
  834PF6-    F515374   0.534   0.339   5.026  0.7233  0.2426 -0.3927
  834PF6-    F615375   0.557   0.113   4.978  0.2176 -0.6386  0.5797
  834PF6-    F715376   0.340   0.288   5.146 -0.0387 -0.4049 -0.0313
  835PF6-    P115377   0.134   4.300   5.476 -0.3111 -0.3749 -0.3358
  835PF6-    F215378  -0.019   4.250   5.462  0.1365  0.6048 -0.5801
  835PF6-    F315379   0.291   4.343   5.496 -0.1936 -0.0459 -0.2000
  835PF6-    F415380   0.100   4.449   5.428 -0.0666 -0.4746 -0.3990
  835PF6-    F515381   0.179   4.157   5.522  0.4118 -0.8515 -0.1399
  835PF6-    F615382   0.165   4.260   5.329  0.1604  0.3270 -0.1161
  835PF6-    F715383   0.111   4.349   5.627 -0.7548 -0.1887  0.2103
  836PF6-    P115384   2.155   1.071   3.851 -0.0396 -0.0331 -0.0179
  836PF6-    F215385   2.156   1.067   3.693  0.1849  0.3912 -0.0445
  836PF6-    F315386   2.152   1.066   4.009  0.0158  0.2520 -0.4231
  836PF6-    F415387   2.101   0.922   3.854 -0.2494 -0.1881 -0.1426
  836PF6-    F515388   2.203   1.225   3.852  0.2731 -0.1762  0.1871
  836PF6-    F615389   1.998   1.114   3.848  0.0518 -0.5937 -0.3763
  836PF6-    F715390   2.308   1.022   3.851  0.6228  0.0953 -0.2122
  837PF6-    P115391   2.943   3.670   1.934 -0.1490  0.0649  0.1427
  837PF6-    F215392   3.022   3.532   1.949 -0.2480 -0.1740  0.0045
  837PF6-    F315393   2.862   3.808   1.926  0.1281 -0.1290  0.1545
  837PF6-    F415394   2.901   3.664   2.095 -0.0069 -0.1283 -0.3369
  837PF6-    F515395   2.987   3.686   1.786 -0.4605 -0.4641 -0.4326
  837PF6-    F615396   2.816   3.584   1.893  0.3648 -0.0007 -0.7967
  837PF6-    F715397   3.073   3.756   1.979  0.4470  0.0236  0.1928
  838PF6-    P115398   1.212   3.140   2.712  0.0763  0.1437  0.4254
  838PF6-    F215399   1.232   3.168   2.551  0.0353  0.2051  0.1166
  838PF6-    F315400   1.204   3.116   2.868  0.3832 -0.1825 -0.2041
  838PF6-    F415401   1.214   2.984   2.686 -0.3653 -0.5023  0.2082
  838PF6-    F515402   1.215   3.300   2.735  0.1554  0.3043  0.1214
  838PF6-    F615403   1.052   3.145   2.692  0.0587 -0.4804 -0.4769
  838PF6-    F715404   1.371   3.128   2.726 -0.2626 -0.0430 -0.6060
  839PF6-    P115405   0.456   4.011   2.879  0.3451 -0.1859  0.5425
  839PF6-    F215406   0.621   4.018   2.872  0.5849 -0.0138  1.0366
  839PF6-    F315407   0.296   3.998   2.891 -0.2182  0.3501  0.2237
  839PF6-    F415408   0.444   4.027   2.721 -0.4475  0.0310 -0.2214
  839PF6-    F515409   0.467   4.001   3.035 -0.6110 -0.6308 -0.3127
  839PF6-    F615410   0.443   4.167   2.890  0.0287  0.2338  0.4554
  839PF6-    F715411   0.469   3.847   2.863  0.5962  0.1147  0.7349
  840PF6-    P115412   1.306   4.446   2.483 -0.2317  0.3711 -0.4940
  840PF6-    F215413   1.461   4.487   2.479 -0.2661 -0.6789  0.2638
  840PF6-    F315414   1.153   4.396   2.485  0.3772 -0.1139  0.7396
  840PF6-    F415415   1.344   4.325   2.576 -0.4123 -0.3222  0.3886
  840PF6-    F515416   1.263   4.561   2.377 -0.2334 -0.1594 -0.2403
  840PF6-    F615417   1.336   4.350   2.358  0.3713 -0.2455  0.0608
  840PF6-    F715418   1.289   4.538   2.611  0.3801  0.6658  0.0456
  841PF6-    P115419   0.322   5.437   3.875  0.5703 -0.4234 -0.2510
  841PF6-    F215420   0.423   5.519   3.783  0.2820  0.2921  0.4778
  841PF6-    F315421   0.212   5.370   3.972  0.7575  0.1292 -0.3054
  841PF6-    F415422   0.296   5.332   3.753 -0.7778 -0.1457 -0.5765
  841PF6-    F515423   0.364   5.538   3.987  0.4035  0.5176 -0.4519
  841PF6-    F615424   0.208   5.536   3.826 -0.0332  0.1993 -0.0516
  841PF6-    F715425   0.437   5.340   3.925 -0.2919 -0.0113  0.5138
  842PF6-    P115426   2.948   1.982   4.515  0.1513 -0.3661  0.4697
  842PF6-    F215427   2.790   1.975   4.482  0.3434 -0.0350  0.0897
  842PF6-    F315428   3.098   1.973   4.555  0.0864  0.2294  0.1028
  842PF6-    F415429   2.983   2.059   4.378  0.4488 -0.6706  0.0729
  842PF6-    F515430   2.919   1.906   4.654  0.1279 -0.2835 -0.1897
  842PF6-    F615431   2.958   1.837   4.440  0.2633  0.3868 -0.3571
  842PF6-    F715432   2.934   2.120   4.585 -0.6092  0.3110  0.2060
  843PF6-    P115433   0.517   4.462   4.021  0.1756 -0.2279  0.1090
  843PF6-    F215434   0.673   4.425   3.983  0.4732 -0.3218 -0.2987
  843PF6-    F315435   0.370   4.510   4.069 -0.5806 -0.2512 -0.0270
  843PF6-    F415436   0.552   4.604   3.951 -0.0293 -0.0415 -0.1096
  843PF6-    F515437   0.491   4.321   4.084 -0.3442 -0.9138  0.2173
  843PF6-    F615438   0.576   4.511   4.161  0.1293 -0.2793 -0.4701
  843PF6-    F715439   0.464   4.404   3.880 -0.1659 -0.0212 -0.3648
  844PF6-    P115440   0.295   2.781   2.647 -0.2348  0.1602 -0.0784
  844PF6-    F215441   0.223   2.837   2.782 -0.4863 -0.6068 -0.1489
  844PF6-    F315442   0.365   2.723   2.514  0.6264  0.1732  0.1586
  844PF6-    F415443   0.214   2.642   2.665  0.2989 -0.0248 -0.3119
  844PF6-    F515444   0.374   2.926   2.625  0.5678  0.1467  0.0476
  844PF6-    F615445   0.420   2.731   2.735  0.1107 -0.6087  0.3211
  844PF6-    F715446   0.172   2.839   2.559 -0.0017 -0.0495  0.1735
  845PF6-    P115447   1.964   3.545   2.791 -0.1241  0.1519 -0.0530
  845PF6-    F215448   1.935   3.686   2.720 -0.2419  0.0411 -0.1230
  845PF6-    F315449   1.984   3.401   2.864  0.5728 -0.1690  0.1790
  845PF6-    F415450   1.939   3.617   2.937 -0.1709 -0.3681 -0.0825
  845PF6-    F515451   1.995   3.478   2.646 -0.3174  0.3276  0.0807
  845PF6-    F615452   2.119   3.582   2.804  0.0966 -0.5949  0.0576
  845PF6-    F715453   1.810   3.510   2.780  0.0564  0.0022  0.9283
  846PF6-    P115454   1.225   2.616   2.003  0.1830 -0.3697  0.0501
  846PF6-    F215455   1.191   2.580   1.850 -0.2342 -0.0544 -0.3764
  846PF6-    F315456   1.253   2.642   2.159 -0.2280 -0.0683  0.0787
  846PF6-    F415457   1.363   2.534   1.997  0.0513 -0.1704  0.4990
  846PF6-    F515458   1.086   2.700   2.021 -0.3275  0.0306 -0.1745
  846PF6-    F615459   1.151   2.480   2.048 -0.0586 -0.5582  0.5218
  846PF6-    F715460   1.296   2.753   1.960  0.3599 -0.6748  0.1813
  847PF6-    P115461   2.183   0.531   5.191  0.3459  0.5525 -0.1297
  847PF6-    F215462   2.181   0.420   5.313  0.9395 -0.1346  0.0374
  847PF6-    F315463   2.183   0.636   5.072  0.0703 -0.2918 -0.4059
  847PF6-    F415464   2.096   0.432   5.101  0.4012  0.1452 -0.1803
  847PF6-    F515465   2.270   0.632   5.279 -0.0657  0.0914  0.3750
  847PF6-    F615466   2.319   0.466   5.138  0.1734 -0.4883  0.3447
  847PF6-    F715467   2.048   0.586   5.245 -0.2859  0.4645  0.1244
  848PF6-    P115468   0.193   1.543   2.199 -0.3772  0.3111 -0.5194
  848PF6-    F215469   0.165   1.547   2.358 -0.4137  0.0174  0.2954
  848PF6-    F315470   0.229   1.541   2.045  0.6158  0.2460  0.5423
  848PF6-    F415471   0.043   1.588   2.166 -0.0593 -0.6284  0.5002
  848PF6-    F515472   0.344   1.492   2.228  0.1449 -0.5496 -0.2403
  848PF6-    F615473   0.147   1.388   2.186 -0.0365  0.0968  0.0153
  848PF6-    F715474   0.237   1.695   2.211 -0.0861 -0.1045 -0.0542
  849PF6-    P115475   3.052   1.285   0.060  0.2471  0.2888 -0.0039
  849PF6-    F215476   2.976   1.341   0.181  0.4803  0.3291 -0.6527
  849PF6-    F315477   3.130   1.236  -0.074 -0.0973  0.0069 -0.3586
  849PF6-    F415478   2.970   1.393  -0.030  0.0084 -0.0551 -0.4817
  849PF6-    F515479   3.123   1.177   0.151  0.0492  0.0117 -0.0964
  849PF6-    F615480   2.924   1.179   0.038 -0.0464 -0.4509 -0.0341
  849PF6-    F715481   3.165   1.385   0.084 -0.2735 -0.2670 -0.5534
  850PF6-    P115482   4.760   0.253   1.420 -0.0881 -0.0872  0.4411
  850PF6-    F215483   4.793   0.101   1.395  0.1726  0.6350  0.2734
  850PF6-    F315484   4.722   0.405   1.446  0.0934  0.0264 -0.3114
  850PF6-    F415485   4.603   0.220   1.407  0.4200 -0.0775  0.3701
  850PF6-    F515486   4.913   0.288   1.431  0.1738 -0.2382 -0.3912
  850PF6-    F615487   4.771   0.293   1.265 -0.0503  0.0593 -0.2646
  850PF6-    F715488   4.753   0.220   1.577 -0.2528  0.2654 -0.2224
  851PF6-    P115489   2.938   1.101   4.431 -0.0189 -0.0913 -0.2204
  851PF6-    F215490   2.801   1.033   4.477 -0.0569 -0.0817  0.0712
  851PF6-    F315491   3.075   1.168   4.384 -0.5289  0.2587  0.5618
  851PF6-    F415492   3.000   1.050   4.567 -0.1688 -0.2818 -0.5963
  851PF6-    F515493   2.868   1.147   4.297 -0.1858  0.0302 -0.4639
  851PF6-    F615494   2.894   1.243   4.505 -0.3884 -0.2562  0.1270
  851PF6-    F715495   2.989   0.966   4.357 -0.7937 -0.0201 -0.3172
  852PF6-    P115496   1.611   0.725   2.338 -0.3281 -0.1975  0.2352
  852PF6-    F215497   1.548   0.842   2.434 -0.1153 -0.0337  0.3390
  852PF6-    F315498   1.678   0.609   2.247  0.5621  0.2309 -0.2588
  852PF6-    F415499   1.757   0.788   2.357 -0.4433 -0.3040  0.2286
  852PF6-    F515500   1.469   0.661   2.307 -0.5379 -0.1211 -0.2246
  852PF6-    F615501   1.592   0.815   2.201  0.0294  0.2866 -0.0208
  852PF6-    F715502   1.629   0.638   2.473  0.5343 -0.3261 -0.1941
  853PF6-    P115503   3.862   5.338   4.270  0.2618 -0.2724 -0.0224
  853PF6-    F215504   3.863   5.245   4.143  0.2002  0.0831 -0.2325
  853PF6-    F315505   3.861   5.429   4.396  0.1538  0.2194 -0.1722
  853PF6-    F415506   4.003   5.273   4.316  0.1989  0.0115  0.0917
  853PF6-    F515507   3.719   5.398   4.225 -0.3240  0.3870 -0.0190
  853PF6-    F615508   3.798   5.217   4.356  0.2760  0.1502  0.0316
  853PF6-    F715509   3.937   5.447   4.178 -0.0559 -0.1327 -0.1141
  854Na+     N115510   2.180   2.194   4.533 -0.7537  0.0779 -0.1007
  855Na+     N115511   2.029   1.767   1.559 -0.1095 -0.4026 -0.4440
  856Na+     N115512   3.061   0.801   2.405 -0.4638  0.0291  0.0863
  857Na+     N115513   2.134   4.044   0.967  0.0826  0.4132  0.2802
  858Na+     N115514   0.129   1.087   1.473 -0.3165 -0.1218  0.0477
  859Na+     N115515   3.561   3.859   0.100  0.3664 -0.0503  0.3848
  860Na+     N115516   0.981   5.277   4.945  0.1846 -0.1179  0.0363
  861Na+     N115517   2.238   3.932   2.083 -0.0784 -0.5272 -0.2733
  862Na+     N115518   0.597   3.958   1.619 -0.2730  0.1566 -0.1211
  863Na+     N115519   4.996   2.266   1.391  0.1027  0.0149  0.0042
  864Na+     N115520   2.593   1.815   5.335 -0.1786 -0.0905  0.1795
  865Na+     N115521   0.165   3.287   1.131  0.3328  0.4408 -0.2088
  866Na+     N115522   1.516   3.230   3.133  0.3892 -0.1080 -0.0525
  867Na+     N115523   4.695   3.509   3.586  0.0915  0.0482  0.4437
  868Na+     N115524   2.050   3.261   3.735  0.0536  0.2133 -0.0342
  869Na+     N115525   3.781   2.609   0.458 -0.4572 -0.6350 -0.4288
  870Na+     N115526   4.640   3.475   1.673 -0.3299 -0.3027  0.5961
  871Na+     N115527   1.769   3.910   0.067  0.3095 -0.1809 -0.0557
  872Na+     N115528   4.750   0.392   3.856 -0.2490 -0.2663  0.3044
  873Na+     N115529   0.983   3.768   2.391  0.3904  0.4348  0.0781
  874Na+     N115530   0.300   4.741   2.044  0.4441 -0.4921  0.1485
  875Na+     N115531   3.071   5.425   0.482 -0.2824  0.4563 -0.1950
  876Na+     N115532   1.398   2.729   0.425  0.0320  0.4922 -0.2746
  877Na+     N115533   1.091   1.647   1.378  0.3168  0.0846  0.1997
  878Na+     N115534   5.374   5.362   3.190  0.3664 -0.6866 -0.4086
  879Na+     N115535   2.994   3.020   1.534 -0.4372  0.4136 -0.0904
  880Na+     N115536   4.521   4.306   2.987  0.0400 -0.1654 -0.0471
  881Na+     N115537   3.486   0.545   1.743 -0.2104  0.1470 -0.0784
  882Na+     N115538   1.985   2.093   0.314 -0.2982  0.1975  0.4506
  883Na+     N115539   2.527   5.493   1.255  0.2944  0.0372 -0.3140
  884Na+     N115540   4.722   1.706   3.666  0.5415  0.0413  0.4299
  885Na+     N115541   2.703   5.334   2.592 -0.1903  0.2673  0.2327
  886Na+     N115542   4.196   1.136   0.314  0.0100 -0.3125  0.0015
  887Na+     N115543   0.054   4.021   2.822 -0.0173  0.2115  0.2987
  888Na+     N115544   1.079   4.504   3.085 -0.2251 -0.4534  0.4976
  889Na+     N115545   0.304   0.063   0.281 -0.4878 -0.1980 -0.2502
  890Na+     N115546   2.940   4.623   5.484 -0.0282  0.1473  0.1935
  891Na+     N115547   2.347   4.917   0.704  0.4100  0.0535 -0.6423
  892Na+     N115548   5.157   4.164   4.907  0.6261 -0.0896  0.2611
  893Na+     N115549   0.109   4.528   0.667 -0.1230  0.1645 -0.0738
  894Na+     N115550   2.146   0.257   3.876  0.0166  0.0666  0.1245
  895Na+     N115551   1.826   2.749   2.484 -0.1369  0.0567 -0.2635
  896Na+     N115552   0.827   3.786   4.244 -0.4273  0.2619  0.0151
  897Na+     N115553   3.747   2.299   3.059  0.0930 -0.5167 -0.0776
  898Na+     N115554   1.428   2.954   1.437 -0.0917 -0.3114  0.0472
  899Na+     N115555   0.259   1.802   1.998  0.2803 -0.1549  0.1351
  900Na+     N115556   3.330   0.380   5.267  0.1714 -0.3079 -0.1754
  901Na+     N115557   4.004   5.029   4.454  0.3928  0.3645  0.2224
  902Na+     N115558   3.252   1.856   2.262 -0.1748  0.6976  0.4646
  903Na+     N115559   2.549   1.536   4.056  0.2929  0.0158 -0.3093
  904Na+     N115560   0.334   4.086   3.655 -0.1659  0.3148  0.2841
  905Na+     N115561   2.699   4.751   4.382 -0.0156  0.5079  0.0538
  906Na+     N115562   0.906   5.428   3.305  0.1117  0.1835 -0.2169
  907Na+     N115563   2.977   4.084   2.539  0.1093  0.0705  0.4191
  908Na+     N115564   0.876   2.752   2.130  0.2743 -0.4620  0.2716
  909Na+     N115565   1.382   0.843   2.612  0.6705  0.1466 -0.0321
  910Na+     N115566   2.605   1.065   5.086  0.2809  0.6058 -0.1167
  911Na+     N115567   3.459   4.586   2.888  0.0794 -0.1536  0.0452
  912Na+     N115568   3.072   4.336   3.526 -0.4224  0.6861  0.2223
  913Na+     N115569   0.332   3.249   4.765 -0.1246  0.2102  0.1743
  914Na+     N115570   1.768   4.893   4.238  0.0080  0.1253  0.7794
  915Na+     N115571   1.360   0.015   2.293  0.3197 -0.3310  0.0042
  916Na+     N115572   1.645   1.526   3.815  0.1367 -0.2777 -0.3449
  917Na+     N115573   4.290   4.801   0.089  0.3304  0.0263 -0.0618
  918Na+     N115574   0.715   2.827   3.185  0.4316 -0.0834  0.4447
  919Na+     N115575   4.148   3.193   4.552 -0.7374 -0.5614  0.3361
  920Na+     N115576   4.241   2.257   2.022 -0.0410 -0.4878 -0.0521
  921Na+     N115577   4.957   0.221   1.104  0.7244 -0.1699  0.0019
  922Na+     N115578   1.965   4.651   2.806 -0.2595 -0.1264  0.1753
  923Na+     N115579   2.539   2.460   3.393 -0.0363 -0.1058  0.2871
  924Na+     N115580   1.079   2.671   4.377 -0.1110 -0.2678 -0.3859
  925Na+     N115581   4.732   1.574   4.629 -0.0869 -0.0227 -0.0550
  926Na+     N115582   5.157   3.809   0.470 -0.9962 -0.2619 -0.1737
  927Na+     N115583   2.858   3.629   4.018 -0.9664 -0.0713  0.0170
  928Na+     N115584   3.776   3.543   3.052 -0.3124 -0.2680 -0.0195
  929Na+     N115585   2.011   0.909   3.154  0.3589 -0.2892 -0.0629
  930Na+     N115586   0.171   2.023   2.749 -0.1097 -0.2266  0.3051
  931Na+     N115587   3.203   3.392   0.341 -0.1192 -0.0968  0.3183
  932Na+     N115588   3.350   0.953   3.894 -0.1052  0.2517  0.5692
  933Na+     N115589   0.056   4.891   3.860  0.0331 -0.1866  0.1386
  934Na+     N115590   3.610   5.453   3.109  0.7319  0.4241 -0.5534
  935Na+     N115591   3.415   1.227   0.758 -0.6001  0.5840 -0.0119
  936Na+     N115592   0.149   0.812   4.815  0.0688 -0.1488  0.0317
  937Na+     N115593   3.183   1.961   3.811  0.3313  0.7987  0.0975
  938Na+     N115594   5.366   1.171   0.472  0.3907 -0.5017  0.2319
  939Na+     N115595   0.452   2.759   0.339 -0.2174  0.2839 -0.1227
  940Na+     N115596   0.212   0.907   2.534  0.3308 -0.4583 -0.3470
  941Na+     N115597   1.567   1.071   0.299 -0.0181  0.0940  0.6682
  942Na+     N115598   1.221   5.326   0.973  0.0047  0.2844  0.0142
  943Na+     N115599   5.026   5.340   5.147 -0.3943  0.0442 -0.3990
  944Na+     N115600   2.474   3.225   2.886  0.2334  0.3111  0.1448
  945Na+     N115601   3.097   4.418   1.841  0.4548 -0.4027  0.1955
  946Na+     N115602   2.516   5.199   1.952  0.2076 -0.3508 -0.1078
  947Na+     N115603   4.379   5.267   1.582  0.1998 -0.3010 -0.6160
  948Na+     N115604   2.097   0.771   1.772 -0.2305  0.3848 -0.2119
  949Na+     N115605   1.916   0.104   4.713 -0.3368 -0.0240  0.0285
  950Na+     N115606   4.217   0.374   1.058  0.1064 -0.4317  0.3425
  951Na+     N115607   5.102   2.707   2.655 -0.5543  0.7538  0.3108
  952Na+     N115608   0.628   3.786   0.204 -0.4802 -0.3185  0.7571
  953Na+     N115609   2.327   1.939   2.758 -0.3757  0.2027  0.2510
   5.49883   5.49883   5.49883
