DG-THF-PF6-Na    Amber RESP
15609
    1DG      C1    1   4.363   3.444   2.225 -0.0823  0.0479 -0.1872
    1DG      C2    2   3.832   3.703   2.685 -0.3453 -0.9868 -0.3373
    1DG      H3    3   4.264   3.462   2.184 -1.3261 -1.2104  2.0753
    1DG      H4    4   4.397   3.350   2.183 -1.9492 -0.1428 -1.3871
    1DG      H5    5   4.431   3.525   2.199  0.4789  0.5325  2.4615
    1DG      H6    6   3.846   3.749   2.782 -2.1511  1.9096 -1.3165
    1DG      H7    7   3.854   3.765   2.598 -1.2548 -0.6858 -0.3631
    1DG      H8    8   3.726   3.685   2.669 -0.5943 -1.1463  1.3854
    1DG      O9    9   4.348   3.412   2.362 -0.4040  0.0195  0.1202
    1DG     O10   10   3.896   3.579   2.679 -0.1501  0.1834  0.1033
    1DG     C11   11   4.244   3.323   2.374 -0.6071  0.1113 -0.6643
    1DG     C12   12   4.023   3.573   2.729  0.6502  0.0553  0.9372
    1DG     H13   13   4.283   3.227   2.341 -0.5947 -0.6220  1.3430
    1DG     H14   14   4.156   3.344   2.313  0.2103  3.4610 -0.8663
    1DG     H15   15   4.019   3.586   2.837 -0.9519 -2.4084  1.2431
    1DG     H16   16   4.087   3.648   2.682 -1.0671  0.9249 -0.1058
    1DG     C17   17   4.197   3.320   2.524 -0.6712 -0.0840  0.5039
    1DG     C18   18   4.102   3.444   2.698  0.1789 -0.2482  0.9220
    1DG     O19   19   4.129   3.438   2.561  0.4995 -0.5939 -0.6465
    1DG     H20   20   4.288   3.316   2.583 -1.1524 -0.5239  1.2369
    1DG     H21   21   4.132   3.237   2.549 -0.4101 -0.5218 -0.2533
    1DG     H22   22   4.201   3.450   2.743  0.3020 -1.0935  0.7693
    1DG     H23   23   4.053   3.357   2.740  0.8754 -0.9251  0.3578
    2DG      C1   24   5.310   1.343   0.945  0.6998 -0.0197 -0.3288
    2DG      C2   25   4.822   1.136   0.951 -0.1370 -0.4987 -0.1070
    2DG      H3   26   5.292   1.408   1.031  0.1284  1.6701 -1.6581
    2DG      H4   27   5.214   1.308   0.907  0.9831 -1.8554  0.5692
    2DG      H5   28   5.367   1.391   0.866 -0.2646  1.1028 -0.3720
    2DG      H6   29   4.761   1.168   0.867 -1.1226  0.6589  0.9933
    2DG      H7   30   4.747   1.075   1.002 -1.5429 -0.6478 -2.2440
    2DG      H8   31   4.858   1.223   1.006  0.2643  1.0534 -2.7027
    2DG      O9   32   5.388   1.235   0.995 -0.3532  0.2730 -0.1810
    2DG     O10   33   4.937   1.054   0.924  0.6456  0.4260 -0.3123
    2DG     C11   34   5.420   1.125   0.913 -0.1789 -0.3129  0.4603
    2DG     C12   35   4.993   0.990   1.039 -0.1226 -0.9750  0.2803
    2DG     H13   36   5.525   1.103   0.929 -0.4386 -3.1684 -1.1770
    2DG     H14   37   5.419   1.156   0.808 -0.0394 -0.0622  0.5327
    2DG     H15   38   4.927   0.920   1.090 -0.2160  0.4316  2.1651
    2DG     H16   39   5.026   1.062   1.114  2.2005 -2.4082  0.7339
    2DG     C17   40   5.329   1.007   0.935 -0.0464 -0.3265 -0.2577
    2DG     C18   41   5.121   0.938   0.983 -0.2062  0.0415  0.7991
    2DG     O19   42   5.203   1.047   0.963 -0.0838  0.7518  0.3386
    2DG     H20   43   5.370   0.942   1.012 -0.1349 -1.6203 -1.2664
    2DG     H21   44   5.327   0.944   0.847 -1.4681  0.0366 -0.5198
    2DG     H22   45   5.169   0.878   1.060  2.0664  0.7507  0.0191
    2DG     H23   46   5.098   0.891   0.887 -0.0289  1.1558  0.1930
    3DG      C1   47   4.222   2.335   2.629  0.8274 -0.3905  0.5604
    3DG      C2   48   4.134   2.376   3.298  0.5029 -0.3928  0.4974
    3DG      H3   49   4.259   2.236   2.655  0.6640 -0.6432 -0.1775
    3DG      H4   50   4.305   2.378   2.573  0.7429  0.4623  1.0620
    3DG      H5   51   4.135   2.334   2.564  1.2663  2.4947 -0.2061
    3DG      H6   52   4.229   2.322   3.294  0.5352 -0.2925 -0.1891
    3DG      H7   53   4.122   2.438   3.386  0.6308  0.7654 -0.2754
    3DG      H8   54   4.061   2.294   3.299  0.1923 -0.1264  0.1082
    3DG      O9   55   4.200   2.386   2.757 -0.1650  0.3374 -0.0687
    3DG     O10   56   4.121   2.454   3.172 -0.1062 -0.0772  0.2084
    3DG     C11   57   4.227   2.523   2.764 -0.1157 -0.6092  0.1520
    3DG     C12   58   4.009   2.540   3.171 -0.9694 -0.2300 -0.2297
    3DG     H13   59   4.181   2.585   2.686 -0.6153 -1.3426 -0.1529
    3DG     H14   60   4.332   2.544   2.747 -0.2495 -0.7360 -0.8843
    3DG     H15   61   3.999   2.586   3.269 -2.5652 -0.9453 -0.0287
    3DG     H16   62   3.928   2.478   3.132  1.4306 -2.0983 -2.5753
    3DG     C17   63   4.208   2.580   2.908 -0.1922 -0.7180  0.1163
    3DG     C18   64   4.032   2.643   3.061 -0.2222 -0.4053  1.0928
    3DG     O19   65   4.068   2.582   2.940  0.1663 -0.1037  0.3681
    3DG     H20   66   4.248   2.680   2.919  3.2989 -1.8488 -0.9966
    3DG     H21   67   4.261   2.515   2.978 -0.2447 -0.0979  0.7447
    3DG     H22   68   3.939   2.693   3.037 -0.3461 -2.3411 -3.4599
    3DG     H23   69   4.111   2.715   3.083  0.6138 -1.1481  0.5897
    4DG      C1   70   2.382   3.481   0.272 -0.4614  0.1636 -0.2995
    4DG      C2   71   2.695   3.337   0.863 -0.4419 -0.8317  0.5256
    4DG      H3   72   2.392   3.588   0.290  1.3399  0.2126 -1.3547
    4DG      H4   73   2.286   3.454   0.227 -0.5528 -1.0054  0.5627
    4DG      H5   74   2.459   3.453   0.200  1.4702  0.7811  1.4212
    4DG      H6   75   2.779   3.269   0.867  0.3951  0.2000  0.8756
    4DG      H7   76   2.737   3.436   0.845  1.6495 -1.6676  0.5816
    4DG      H8   77   2.645   3.332   0.960  0.8251 -3.5545  1.1235
    4DG      O9   78   2.404   3.399   0.388 -1.0042 -0.6751 -0.0645
    4DG     O10   79   2.587   3.306   0.780  0.0342  0.5415 -0.0396
    4DG     C11   80   2.376   3.259   0.362  0.0527 -0.0366  0.1190
    4DG     C12   81   2.519   3.182   0.809  0.1935 -0.8277  0.1433
    4DG     H13   82   2.473   3.218   0.332 -0.6033 -1.7315  0.2293
    4DG     H14   83   2.302   3.242   0.284 -0.0079 -0.1905  0.2098
    4DG     H15   84   2.519   3.167   0.917  1.4176  0.0869  0.2952
    4DG     H16   85   2.584   3.099   0.783  2.2982  0.3022  1.4832
    4DG     C17   86   2.330   3.204   0.497 -0.0024  0.0572 -0.0789
    4DG     C18   87   2.392   3.184   0.725  0.6853 -0.3827 -0.5229
    4DG     O19   88   2.428   3.233   0.595  0.1100  0.2655  0.3327
    4DG     H20   89   2.312   3.097   0.494  1.0461 -0.1959  1.4126
    4DG     H21   90   2.245   3.266   0.527  1.0803  1.2274  0.6626
    4DG     H22   91   2.339   3.089   0.711 -0.4924  0.1561  0.0882
    4DG     H23   92   2.316   3.240   0.780 -1.5829 -1.6258 -2.1987
    5DG      C1   93   0.468   2.282   1.304  0.3676  0.8345  0.3236
    5DG      C2   94   0.441   2.953   1.109  0.4813  0.4494  0.6887
    5DG      H3   95   0.365   2.301   1.335 -0.5112 -0.5178 -1.5224
    5DG      H4   96   0.523   2.254   1.394 -0.8351 -1.6665  0.3919
    5DG      H5   97   0.471   2.193   1.241  2.3494  1.3160 -0.3338
    5DG      H6   98   0.473   3.019   1.029 -0.6952  0.8633  0.5471
    5DG      H7   99   0.336   2.924   1.115  0.4649  0.6025  1.1930
    5DG      H8  100   0.463   3.010   1.199 -0.5046 -3.0391  3.3818
    5DG      O9  101   0.526   2.396   1.246 -0.2468  0.0352  0.0183
    5DG     O10  102   0.513   2.837   1.140 -1.2000  0.6438 -0.1581
    5DG     C11  103   0.665   2.377   1.227 -0.5019  0.1243  0.0975
    5DG     C12  104   0.652   2.853   1.191 -0.1402 -0.1882  1.0636
    5DG     H13  105   0.691   2.285   1.173 -1.9711 -1.2934  1.7004
    5DG     H14  106   0.715   2.387   1.323 -1.1927  0.9397  0.3843
    5DG     H15  107   0.657   2.876   1.297  0.3073 -0.1883  1.0455
    5DG     H16  108   0.699   2.941   1.146 -0.4403 -0.1377  0.8388
    5DG     C17  109   0.719   2.491   1.148 -0.0697 -0.0136  0.0069
    5DG     C18  110   0.725   2.725   1.152  0.4509 -0.5489  0.2299
    5DG     O19  111   0.678   2.612   1.216 -0.0132  0.2813 -0.0523
    5DG     H20  112   0.674   2.495   1.049  1.5807  1.6118 -0.7336
    5DG     H21  113   0.828   2.496   1.143 -0.1461  1.6113 -0.5848
    5DG     H22  114   0.728   2.708   1.045  2.6901  0.1111  0.1356
    5DG     H23  115   0.829   2.746   1.178  0.1347  1.0000  0.3709
    6DG      C1  116   4.591   2.126   1.076 -0.0230 -0.3631  0.3241
    6DG      C2  117   3.913   1.862   0.982 -0.1328  0.2062  0.4714
    6DG      H3  118   4.557   2.229   1.082 -0.9571 -0.7291  1.8275
    6DG      H4  119   4.610   2.105   0.971  1.8417  1.9319  0.1118
    6DG      H5  120   4.682   2.114   1.135 -0.0642 -0.8161  0.2980
    6DG      H6  121   3.868   1.961   0.976 -0.2023  0.1282 -0.3340
    6DG      H7  122   3.917   1.830   0.878 -1.6735 -0.8924  0.7063
    6DG      H8  123   3.843   1.799   1.037 -0.6134  0.5916  0.3079
    6DG      O9  124   4.486   2.044   1.137 -0.0793 -0.1244  0.1787
    6DG     O10  125   4.041   1.862   1.039  0.5741 -0.3053 -0.3343
    6DG     C11  126   4.519   1.910   1.141  0.3946  0.2598 -0.6691
    6DG     C12  127   4.072   1.735   1.106  0.1893 -0.1580  0.1045
    6DG     H13  128   4.621   1.886   1.173 -0.2906  0.3832  1.8475
    6DG     H14  129   4.517   1.875   1.038  1.1592  1.0294 -0.9616
    6DG     H15  130   4.104   1.662   1.032  0.8382 -0.5716  0.7710
    6DG     H16  131   3.984   1.696   1.158  0.6097 -0.7906  0.3641
    6DG     C17  132   4.414   1.842   1.223  0.1466  0.2457  0.0185
    6DG     C18  133   4.190   1.760   1.205 -0.6264 -1.2562  0.2418
    6DG     O19  134   4.302   1.818   1.142  0.1058  0.4563 -0.3944
    6DG     H20  135   4.390   1.885   1.321  0.1823  0.4375 -0.0569
    6DG     H21  136   4.458   1.745   1.248 -0.7163 -0.5289 -1.3974
    6DG     H22  137   4.157   1.822   1.289  0.0745  0.4691 -0.6885
    6DG     H23  138   4.226   1.666   1.248  1.2182 -0.2906  0.9566
    7DG      C1  139   1.860   4.131   1.214 -0.0026 -0.1400 -0.6592
    7DG      C2  140   2.280   4.315   1.684  0.9409 -0.3353 -0.9940
    7DG      H3  141   1.872   4.051   1.141 -1.5857  0.0445 -1.1642
    7DG      H4  142   1.787   4.193   1.160  2.2869  1.4879 -2.0580
    7DG      H5  143   1.819   4.103   1.311  0.1709  0.5896 -0.3679
    7DG      H6  144   2.213   4.391   1.726  2.7295  1.2620 -0.8809
    7DG      H7  145   2.260   4.224   1.740  1.9195  0.0888  0.0824
    7DG      H8  146   2.380   4.330   1.726  0.3723 -0.7977  0.6046
    7DG      O9  147   1.972   4.210   1.245 -0.4796  0.5836 -0.2148
    7DG     O10  148   2.268   4.313   1.544 -0.2723  0.5266 -0.0580
    7DG     C11  149   2.022   4.275   1.131 -0.0745  0.3387 -0.3713
    7DG     C12  150   2.314   4.431   1.481  0.2994 -0.4327 -0.1105
    7DG     H13  151   1.956   4.356   1.102 -1.5103 -1.6225 -2.9751
    7DG     H14  152   2.010   4.209   1.046 -1.2047 -1.5265  1.1489
    7DG     H15  153   2.414   4.459   1.514  0.0802 -0.3586  0.5037
    7DG     H16  154   2.240   4.508   1.499  0.6940  0.0084 -0.3567
    7DG     C17  155   2.174   4.312   1.156  0.4641 -0.3446 -0.4495
    7DG     C18  156   2.314   4.405   1.334 -0.4616 -0.0081 -0.2436
    7DG     O19  157   2.183   4.358   1.294 -0.4078  0.5822  0.0899
    7DG     H20  158   2.190   4.395   1.087 -0.0158 -0.3779 -0.6003
    7DG     H21  159   2.236   4.223   1.157 -1.1062 -1.4653  0.4976
    7DG     H22  160   2.331   4.494   1.272  0.2466  0.4737  0.6138
    7DG     H23  161   2.390   4.332   1.306  0.5410  0.5746  0.8862
    8DG      C1  162   3.639   4.875   4.733  0.3607 -0.2903 -1.0059
    8DG      C2  163   3.888   5.581   4.614  0.5209 -0.0730  0.4129
    8DG      H3  164   3.717   4.843   4.664  1.1089  0.2829 -0.4375
    8DG      H4  165   3.555   4.880   4.664  0.8631  0.7403 -1.5673
    8DG      H5  166   3.614   4.807   4.815 -0.5715  0.6546 -0.4875
    8DG      H6  167   3.792   5.583   4.563  1.1977  1.2071 -0.9076
    8DG      H7  168   3.908   5.677   4.662  1.4976  0.4323 -0.9101
    8DG      H8  169   3.962   5.579   4.534 -2.3177  1.8112 -2.5462
    8DG      O9  170   3.674   5.003   4.776  0.3830  0.2378 -0.0324
    8DG     O10  171   3.890   5.470   4.697  0.0146  0.1106  0.4163
    8DG     C11  172   3.798   4.993   4.837 -0.7453 -0.0036 -0.1277
    8DG     C12  173   3.781   5.471   4.789  0.5453  0.1686 -0.4003
    8DG     H13  174   3.877   4.973   4.765  0.2601 -2.2030  1.4782
    8DG     H14  175   3.811   4.912   4.909 -0.1762  0.1794 -0.0248
    8DG     H15  176   3.687   5.483   4.736  1.5386  3.0124 -1.6710
    8DG     H16  177   3.798   5.554   4.858  1.2985  1.4063 -2.0331
    8DG     C17  178   3.825   5.126   4.907  0.0443 -0.4470 -0.1026
    8DG     C18  179   3.788   5.357   4.885 -0.4133  0.7471  0.1744
    8DG     O19  180   3.782   5.233   4.823 -0.5600 -0.1822 -0.5746
    8DG     H20  181   3.928   5.129   4.940  0.0975 -1.5297 -0.1338
    8DG     H21  182   3.758   5.130   4.993  2.5220  0.4048  1.9093
    8DG     H22  183   3.885   5.353   4.934 -1.1372 -2.7266  1.5928
    8DG     H23  184   3.713   5.360   4.964  0.1380 -0.5310  0.7728
    9DG      C1  185   4.069   1.698   2.963 -0.0184 -0.3646 -0.5192
    9DG      C2  186   3.375   1.854   2.966  0.0224  0.1368 -0.1917
    9DG      H3  187   4.132   1.680   3.050 -0.1251 -1.8329 -0.7217
    9DG      H4  188   4.078   1.802   2.931  1.1831 -0.2323  0.1844
    9DG      H5  189   4.114   1.637   2.884  0.1957 -0.4110 -0.3623
    9DG      H6  190   3.350   1.810   2.870  0.8795 -0.7385 -0.0396
    9DG      H7  191   3.282   1.847   3.023  0.3832 -2.1277  0.2301
    9DG      H8  192   3.400   1.959   2.953  0.5666 -0.2639 -2.8904
    9DG      O9  193   3.931   1.674   2.984 -0.2386  0.4698 -0.1052
    9DG     O10  194   3.470   1.780   3.041 -0.1206  0.1688 -0.0355
    9DG     C11  195   3.915   1.538   3.010  0.3786  0.4527  0.0394
    9DG     C12  196   3.440   1.650   3.057  0.2706  0.1147  0.0908
    9DG     H13  197   3.995   1.496   3.072 -0.8645 -1.2700  0.5702
    9DG     H14  198   3.913   1.491   2.912  0.8499 -1.0846  0.7292
    9DG     H15  199   3.407   1.599   2.966  1.0612 -2.2008  1.0348
    9DG     H16  200   3.354   1.654   3.125 -0.3832  1.7344 -0.7552
    9DG     C17  201   3.787   1.513   3.095  0.6495  0.4358  0.1990
    9DG     C18  202   3.558   1.572   3.114  0.2212 -0.3672  0.2925
    9DG     O19  203   3.679   1.589   3.042 -0.3533 -0.2983 -0.5325
    9DG     H20  204   3.806   1.532   3.200  0.2223  0.1469  0.3301
    9DG     H21  205   3.763   1.407   3.083  0.1721  0.7357 -2.0810
    9DG     H22  206   3.574   1.621   3.210  0.2972  1.6521 -0.7173
    9DG     H23  207   3.543   1.466   3.138  3.0517 -0.9946 -0.3444
   10DG      C1  208   0.405   3.142   1.535 -0.0511 -0.0183 -0.1914
   10DG      C2  209   1.021   2.787   1.555 -0.0334 -0.0259 -0.4740
   10DG      H3  210   0.361   3.053   1.580 -1.9295  0.9670  0.0249
   10DG      H4  211   0.348   3.141   1.442 -0.3675  0.1251 -0.0032
   10DG      H5  212   0.375   3.227   1.598  1.0320  1.1955 -1.2434
   10DG      H6  213   0.962   2.714   1.610 -0.0961  0.5829  0.2898
   10DG      H7  214   1.081   2.724   1.489 -1.7916 -4.3016  1.6094
   10DG      H8  215   1.076   2.857   1.618 -1.4977 -0.7555  1.7396
   10DG      O9  216   0.546   3.143   1.523 -0.2495  0.4318 -0.5500
   10DG     O10  217   0.921   2.862   1.494 -0.1011  0.4689  0.3624
   10DG     C11  218   0.599   3.233   1.426 -0.0067  0.1730 -0.5992
   10DG     C12  219   0.973   2.949   1.399  0.1114  0.5356  0.2821
   10DG     H13  220   0.560   3.333   1.446  3.3104  1.9093 -1.9679
   10DG     H14  221   0.563   3.216   1.324 -0.2017 -0.4706 -0.4269
   10DG     H15  222   0.936   2.917   1.301  1.0222 -1.0072  0.4057
   10DG     H16  223   1.081   2.944   1.382 -0.1612 -0.5172 -1.4808
   10DG     C17  224   0.744   3.235   1.446 -0.4811 -0.1552 -0.0900
   10DG     C18  225   0.934   3.096   1.422  0.5537  0.8380  0.5052
   10DG     O19  226   0.791   3.109   1.413 -0.2088  0.4490 -0.1240
   10DG     H20  227   0.768   3.269   1.547 -2.2134 -0.3878  0.4470
   10DG     H21  228   0.794   3.302   1.377  0.2302  1.2825  1.7505
   10DG     H22  229   0.969   3.134   1.518  0.8174  3.0167 -0.3884
   10DG     H23  230   0.989   3.156   1.350 -2.5963  1.8414 -1.2506
   11DG      C1  231   1.973   3.212   3.697 -0.0534  0.3553 -0.2717
   11DG      C2  232   1.597   3.217   4.257  0.1083 -0.2126  0.1357
   11DG      H3  233   2.053   3.153   3.742  0.0679  1.1135  0.5381
   11DG      H4  234   2.018   3.244   3.603 -1.8913 -2.1792 -2.1698
   11DG      H5  235   1.896   3.139   3.671 -0.5003  0.1156  1.5561
   11DG      H6  236   1.548   3.255   4.347 -0.0802 -1.8341  0.7583
   11DG      H7  237   1.519   3.188   4.187  0.4891 -0.0265 -0.3649
   11DG      H8  238   1.657   3.134   4.294  0.8482 -1.1612 -2.9282
   11DG      O9  239   1.920   3.312   3.786  0.9587 -0.7762 -0.1046
   11DG     O10  240   1.673   3.319   4.187  0.0738  0.1451  0.0672
   11DG     C11  241   2.011   3.417   3.825 -0.0096  0.2903 -0.4119
   11DG     C12  242   1.772   3.381   4.265  0.4149 -0.0730 -0.0139
   11DG     H13  243   2.024   3.492   3.746  2.3179  0.3634 -0.0286
   11DG     H14  244   2.106   3.371   3.851 -1.1677 -1.3953  1.0545
   11DG     H15  245   1.842   3.300   4.286  3.8403  2.2451 -1.5933
   11DG     H16  246   1.725   3.419   4.356 -0.1840 -1.1993  0.1527
   11DG     C17  247   1.952   3.499   3.943  0.3897  0.5816 -0.4944
   11DG     C18  248   1.857   3.472   4.167  0.9624  0.0925  0.8943
   11DG     O19  249   1.891   3.410   4.042  0.1376  0.5553  0.2123
   11DG     H20  250   1.870   3.556   3.900  0.7111  2.0613  0.7670
   11DG     H21  251   2.034   3.561   3.982  0.8505 -0.1152 -0.3347
   11DG     H22  252   1.795   3.555   4.135 -1.5342 -1.9593  0.0355
   11DG     H23  253   1.944   3.518   4.214  1.2288 -1.0107  1.5362
   12DG      C1  254   2.469   3.390   4.802  0.4968 -0.0107 -0.0840
   12DG      C2  255   3.017   3.706   4.406  0.1066  0.1211  0.3789
   12DG      H3  256   2.380   3.382   4.740 -0.8169  1.5680  1.4835
   12DG      H4  257   2.455   3.454   4.889 -0.4353  0.5511 -0.6258
   12DG      H5  258   2.507   3.288   4.810  0.4089 -0.0519 -0.1823
   12DG      H6  259   3.042   3.773   4.488 -1.6392  1.6932 -0.2952
   12DG      H7  260   3.091   3.627   4.392  0.1022  0.1691  0.0772
   12DG      H8  261   3.034   3.750   4.307  0.0040  0.1857  0.3903
   12DG      O9  262   2.558   3.454   4.714 -0.4812  0.1016  0.4431
   12DG     O10  263   2.884   3.661   4.409 -0.0574 -0.0131  0.3397
   12DG     C11  264   2.553   3.419   4.578  0.6809  0.0675 -0.0922
   12DG     C12  265   2.787   3.766   4.393  0.5495  0.1603 -0.8332
   12DG     H13  266   2.453   3.432   4.536  0.1741 -1.1097  0.6713
   12DG     H14  267   2.572   3.313   4.561  0.4090  0.2753 -1.8591
   12DG     H15  268   2.803   3.817   4.298 -0.3434 -1.3723 -1.8532
   12DG     H16  269   2.806   3.841   4.470 -0.4483 -0.1828 -0.2387
   12DG     C17  270   2.658   3.491   4.494  0.0099  0.3634 -0.5137
   12DG     C18  271   2.647   3.706   4.397  0.2749  0.8747 -0.0509
   12DG     O19  272   2.628   3.627   4.506  0.6710 -0.1318  0.0601
   12DG     H20  273   2.660   3.446   4.395 -1.9452  0.7406 -0.7665
   12DG     H21  274   2.754   3.461   4.538 -0.5311  0.6314  0.9163
   12DG     H22  275   2.572   3.785   4.404  1.9086  2.3526  1.9744
   12DG     H23  276   2.634   3.646   4.306 -0.7438 -0.0069  0.6459
   13DG      C1  277   1.156   4.610   0.194  0.1094 -0.2341  0.4986
   13DG      C2  278   1.318   4.193  -0.337 -0.6932 -0.0772  0.2693
   13DG      H3  279   1.062   4.605   0.248 -1.0548  2.1200 -1.1494
   13DG      H4  280   1.171   4.716   0.175  0.6932  0.0390  2.2797
   13DG      H5  281   1.234   4.570   0.259  1.3963  0.2785 -0.6869
   13DG      H6  282   1.366   4.275  -0.391 -1.8328  0.0528 -0.5866
   13DG      H7  283   1.392   4.136  -0.282 -0.7054  1.5345  2.0401
   13DG      H8  284   1.287   4.133  -0.423  1.1812  0.2787 -0.7087
   13DG      O9  285   1.159   4.540   0.066 -0.0390  0.3745 -0.0850
   13DG     O10  286   1.208   4.229  -0.257  0.7513 -0.2161 -0.5871
   13DG     C11  287   1.087   4.617  -0.026  0.3586  0.0269  0.1030
   13DG     C12  288   1.094   4.288  -0.330 -0.6956 -0.0309  0.4524
   13DG     H13  289   1.135   4.711  -0.052 -0.4717  0.4877  0.1788
   13DG     H14  290   0.988   4.639   0.013  0.9745 -0.5033  2.0575
   13DG     H15  291   1.073   4.217  -0.409  0.0056  1.3368 -1.0171
   13DG     H16  292   1.122   4.380  -0.381 -0.7147 -0.4991 -0.4200
   13DG     C17  293   1.061   4.531  -0.151  0.9200 -1.0400 -0.5248
   13DG     C18  294   0.975   4.327  -0.241 -0.5021  0.0534 -0.1006
   13DG     O19  295   1.021   4.394  -0.122 -0.4754 -0.2067  0.3357
   13DG     H20  296   1.156   4.523  -0.204 -0.5008 -0.9185 -3.2808
   13DG     H21  297   0.987   4.582  -0.213 -0.9634 -2.8259  0.1252
   13DG     H22  298   0.904   4.382  -0.302  1.6366 -0.3686 -3.2140
   13DG     H23  299   0.918   4.246  -0.195 -0.2414  0.3676  0.7934
   14DG      C1  300   4.573   1.958   5.398 -0.0169 -0.2371  0.6176
   14DG      C2  301   4.739   2.233   4.761  0.5130 -0.0328 -0.4225
   14DG      H3  302   4.562   1.873   5.465  0.0058 -0.6551  0.0933
   14DG      H4  303   4.475   2.006   5.394 -0.0110 -0.2902 -1.2864
   14DG      H5  304   4.640   2.031   5.444 -1.1646  0.7513  0.7612
   14DG      H6  305   4.822   2.203   4.697  0.5291 -0.0591 -0.3894
   14DG      H7  306   4.649   2.246   4.700 -0.2191 -2.2854  0.0816
   14DG      H8  307   4.742   2.321   4.825 -0.5925  0.0983 -0.5222
   14DG      O9  308   4.620   1.927   5.269  0.0559 -0.0903 -0.1470
   14DG     O10  309   4.700   2.125   4.852 -0.4314 -0.1800  0.0940
   14DG     C11  310   4.539   1.830   5.202 -0.3212  0.3437  0.0687
   14DG     C12  311   4.672   2.007   4.780 -0.2775  0.3188 -0.0840
   14DG     H13  312   4.433   1.854   5.208 -0.2719  0.4458  0.5857
   14DG     H14  313   4.551   1.741   5.264  2.7134  0.3387 -0.3854
   14DG     H15  314   4.737   1.992   4.694  2.6252  0.5591  1.9200
   14DG     H16  315   4.567   2.017   4.752 -0.2119  2.6286  0.3110
   14DG     C17  316   4.596   1.799   5.064 -0.0359 -0.0872  0.1317
   14DG     C18  317   4.686   1.886   4.870  0.3263  0.4069  0.1883
   14DG     O19  318   4.599   1.913   4.983 -0.2042 -0.0896  0.3871
   14DG     H20  319   4.524   1.726   5.027 -0.5805  0.9718 -0.9766
   14DG     H21  320   4.689   1.742   5.069  0.2023 -0.1521 -2.8179
   14DG     H22  321   4.655   1.800   4.811 -0.1695  0.2393  0.6872
   14DG     H23  322   4.789   1.870   4.901  0.0527 -1.4634  0.2587
   15DG      C1  323   4.813   4.938   1.157  0.2939  0.1050 -0.6434
   15DG      C2  324   4.358   4.838   1.734 -0.1930  0.2324  0.5234
   15DG      H3  325   4.921   4.951   1.160  0.2627  0.2902  2.3137
   15DG      H4  326   4.776   5.004   1.078 -1.9159  0.7028  0.7808
   15DG      H5  327   4.785   4.835   1.136 -2.7881  0.1572  2.2529
   15DG      H6  328   4.340   4.735   1.702  0.8011 -0.6079  2.4411
   15DG      H7  329   4.411   4.823   1.829  2.2618 -2.0504 -1.0402
   15DG      H8  330   4.261   4.884   1.750  0.1623  1.6391 -1.1053
   15DG      O9  331   4.762   4.979   1.289  0.1302  0.2262 -0.4160
   15DG     O10  332   4.431   4.909   1.632 -0.2360 -0.2431  0.0422
   15DG     C11  333   4.727   5.115   1.292  0.7939 -0.4301 -0.1653
   15DG     C12  334   4.408   5.047   1.644 -0.2017 -0.3156 -0.1330
   15DG     H13  335   4.646   5.141   1.224  1.9012  0.0670 -1.3078
   15DG     H14  336   4.815   5.173   1.268  0.4373  0.0327 -0.3593
   15DG     H15  337   4.417   5.070   1.750 -1.1392  0.0033 -0.1152
   15DG     H16  338   4.305   5.080   1.627 -0.1147  1.7359  2.6478
   15DG     C17  339   4.686   5.149   1.432 -0.9941 -0.2771 -0.1953
   15DG     C18  340   4.511   5.138   1.583  1.0211  0.4836 -0.4265
   15DG     O19  341   4.564   5.083   1.463  0.4892 -0.2166 -0.1422
   15DG     H20  342   4.672   5.255   1.452 -0.3321 -0.1897 -0.1809
   15DG     H21  343   4.764   5.118   1.501 -0.0831  2.7994  0.3187
   15DG     H22  344   4.481   5.243   1.586  0.4500  0.3477  3.2441
   15DG     H23  345   4.595   5.135   1.652  0.6773  1.7914  0.0832
   16DG      C1  346   1.721   1.487   3.233 -0.3036  0.3758 -0.1354
   16DG      C2  347   1.090   1.611   3.473  0.2587 -0.0731 -0.6377
   16DG      H3  348   1.812   1.547   3.238 -0.3330  0.6660 -2.2981
   16DG      H4  349   1.670   1.514   3.140 -0.9403  0.0922  0.1277
   16DG      H5  350   1.753   1.383   3.236 -0.9014  0.1283  4.0284
   16DG      H6  351   1.068   1.558   3.381 -0.7596 -0.4046 -0.2205
   16DG      H7  352   0.995   1.606   3.526 -0.8225  0.5705 -2.4054
   16DG      H8  353   1.116   1.716   3.456  2.8827 -0.6003 -0.2716
   16DG      O9  354   1.638   1.516   3.342 -0.3779  0.7271  0.4523
   16DG     O10  355   1.202   1.558   3.536 -0.1631 -0.6401 -0.5881
   16DG     C11  356   1.528   1.428   3.347  0.2172  0.3636  0.4265
   16DG     C12  357   1.172   1.437   3.600 -0.5971  0.1837  0.4833
   16DG     H13  358   1.539   1.329   3.302 -0.6256  1.1964 -1.7336
   16DG     H14  359   1.448   1.469   3.286 -0.5249  0.1556  1.2285
   16DG     H15  360   1.118   1.372   3.531 -1.7985  0.3527  1.2323
   16DG     H16  361   1.114   1.442   3.692 -0.9440  1.6086  0.2092
   16DG     C17  362   1.464   1.438   3.483  0.3818  0.4234 -0.0002
   16DG     C18  363   1.296   1.364   3.616 -0.4366  0.5746  0.8291
   16DG     O19  364   1.361   1.345   3.494 -0.2654  0.2562 -0.0420
   16DG     H20  365   1.431   1.540   3.500  4.5505  2.1865 -1.3462
   16DG     H21  366   1.531   1.411   3.564 -2.1588 -2.4376  1.3576
   16DG     H22  367   1.358   1.402   3.698  0.8192  1.2815 -0.4183
   16DG     H23  368   1.276   1.262   3.648  2.0419 -0.0300  0.6103
   17DG      C1  369   2.577   1.111   2.552  0.2503 -0.2707 -0.1346
   17DG      C2  370   2.906   1.158   3.230  0.0479  0.1207  0.6142
   17DG      H3  371   2.538   1.022   2.602  0.6216 -0.8436 -0.8352
   17DG      H4  372   2.675   1.075   2.523  0.7583  0.0911  1.0988
   17DG      H5  373   2.509   1.135   2.470 -1.0465  1.1884  1.2783
   17DG      H6  374   2.995   1.212   3.198 -0.5987 -0.4789 -2.5209
   17DG      H7  375   2.870   1.184   3.330 -0.0694 -2.7180  1.3885
   17DG      H8  376   2.947   1.057   3.230  0.7357  0.3740 -0.7106
   17DG      O9  377   2.567   1.224   2.636  0.0352  0.4336 -0.3459
   17DG     O10  378   2.801   1.177   3.140 -1.1136 -0.2762 -0.0478
   17DG     C11  379   2.625   1.212   2.766 -0.4618  0.3672  0.3131
   17DG     C12  380   2.736   1.295   3.169 -0.2450  0.0577 -0.0116
   17DG     H13  381   2.729   1.180   2.758 -0.3686  0.0817  2.3092
   17DG     H14  382   2.569   1.143   2.829 -0.5925 -0.0954 -0.2975
   17DG     H15  383   2.799   1.384   3.169  0.8323 -0.6343 -2.0128
   17DG     H16  384   2.684   1.289   3.264 -1.8362  2.4728 -0.6438
   17DG     C17  385   2.620   1.351   2.827 -0.1586 -0.3124  0.2722
   17DG     C18  386   2.625   1.315   3.064  0.3534 -0.5356 -0.4387
   17DG     O19  387   2.697   1.346   2.947 -0.0237  0.0993  0.1914
   17DG     H20  388   2.520   1.393   2.838 -0.5785 -0.3078 -2.7017
   17DG     H21  389   2.659   1.412   2.745 -0.1748  0.3017  0.7168
   17DG     H22  390   2.573   1.220   3.055  0.2071 -0.4557 -0.4402
   17DG     H23  391   2.555   1.391   3.098 -0.4268 -1.5665  0.3052
   18DG      C1  392   4.642   2.646   4.179 -0.0255 -0.1344  0.4762
   18DG      C2  393   5.484   2.680   3.855  0.3849  0.1305  0.2208
   18DG      H3  394   4.718   2.695   4.240 -0.9164 -1.4671  2.7770
   18DG      H4  395   4.566   2.592   4.236  0.2586 -1.2567 -0.1710
   18DG      H5  396   4.583   2.726   4.134  1.1018  0.8263  0.6569
   18DG      H6  397   5.476   2.785   3.826 -1.9101 -0.2521 -0.7789
   18DG      H7  398   5.577   2.645   3.900  0.3615  1.4546  1.3451
   18DG      H8  399   5.472   2.618   3.766  1.5045 -0.8602  0.7397
   18DG      O9  400   4.690   2.563   4.078 -0.1173 -0.3173 -0.6391
   18DG     O10  401   5.378   2.653   3.937  0.3164 -0.0586  0.3893
   18DG     C11  402   4.791   2.634   4.001 -0.6406  0.0702 -0.2235
   18DG     C12  403   5.255   2.719   3.905  0.2216  0.2489  0.5227
   18DG     H13  404   4.758   2.736   3.982 -0.6871  0.8468  3.2864
   18DG     H14  405   4.791   2.588   3.902  3.0518 -1.3766  0.2635
   18DG     H15  406   5.229   2.692   3.803 -0.7462  0.6025  0.6662
   18DG     H16  407   5.270   2.827   3.912  0.5644  0.2992 -0.7014
   18DG     C17  408   4.933   2.624   4.061  0.5995 -0.2112 -0.5548
   18DG     C18  409   5.159   2.659   4.008 -0.1078  0.3635 -0.4971
   18DG     O19  410   5.024   2.686   3.971  0.1874  0.5038 -0.2253
   18DG     H20  411   4.951   2.519   4.084  2.6499  0.0286 -0.9454
   18DG     H21  412   4.933   2.685   4.151 -2.1621 -0.0018 -0.5846
   18DG     H22  413   5.176   2.552   3.993 -0.8155  0.3220 -1.0519
   18DG     H23  414   5.191   2.695   4.106 -1.4978 -0.6272  0.3522
   19DG      C1  415   5.432   4.725   3.672  0.0326 -0.5682  0.8728
   19DG      C2  416   5.691   4.034   3.711 -0.0511 -0.2822  0.1215
   19DG      H3  417   5.452   4.781   3.764  2.5828 -0.3310  0.2409
   19DG      H4  418   5.381   4.789   3.600  1.3754 -0.5618 -0.1057
   19DG      H5  419   5.525   4.689   3.628 -0.6114  0.1573 -1.2061
   19DG      H6  420   5.745   4.095   3.784 -0.0145  1.1650 -1.0499
   19DG      H7  421   5.679   3.932   3.746  2.4484 -0.6184  0.1431
   19DG      H8  422   5.762   4.034   3.628  1.3817  2.9454  1.1745
   19DG      O9  423   5.351   4.614   3.702  0.2586  0.2622 -0.5229
   19DG     O10  424   5.566   4.095   3.669  0.3693 -0.0242  0.2666
   19DG     C11  425   5.293   4.543   3.585  0.7432 -0.1014 -0.2880
   19DG     C12  426   5.470   4.129   3.768  0.5170 -0.1427  0.1050
   19DG     H13  427   5.366   4.544   3.504 -0.9180 -0.2271 -1.8295
   19DG     H14  428   5.204   4.592   3.548 -0.5518 -2.8543 -1.0827
   19DG     H15  429   5.506   4.192   3.849 -1.8192  0.1727  0.9622
   19DG     H16  430   5.438   4.035   3.811 -1.1754  0.9661  1.3776
   19DG     C17  431   5.252   4.398   3.612 -0.7895 -0.0573 -0.1861
   19DG     C18  432   5.337   4.196   3.714  0.0705 -0.6863  0.3096
   19DG     O19  433   5.356   4.335   3.686  0.2108  0.0675  0.0120
   19DG     H20  434   5.233   4.349   3.516 -0.2229  1.6450 -1.2192
   19DG     H21  435   5.164   4.395   3.676  0.4854 -0.6616  1.6129
   19DG     H22  436   5.296   4.157   3.620  0.8029 -0.8060  0.0313
   19DG     H23  437   5.258   4.189   3.789 -0.9780  2.3097 -0.3503
   20DG      C1  438   2.175   0.648   3.487  0.2182 -0.4998  0.4221
   20DG      C2  439   1.672   1.031   3.733 -0.4792 -0.0237  0.2374
   20DG      H3  440   2.182   0.584   3.575 -1.0907  0.8169  1.5270
   20DG      H4  441   2.279   0.656   3.455 -0.2109  0.7542 -0.7662
   20DG      H5  442   2.117   0.599   3.408  1.9338 -1.4457 -0.3034
   20DG      H6  443   1.600   1.011   3.654  0.5128 -3.2335  0.0271
   20DG      H7  444   1.678   0.944   3.797  1.5538 -1.3648 -1.6202
   20DG      H8  445   1.635   1.121   3.782  0.2037  1.3485 -1.6129
   20DG      O9  446   2.141   0.780   3.520 -0.0668 -0.8013 -0.0985
   20DG     O10  447   1.802   1.058   3.682  0.0298  0.5438 -0.3301
   20DG     C11  448   2.148   0.861   3.404  0.2661  0.4556  0.0972
   20DG     C12  449   1.782   1.121   3.556 -0.2557  0.1120  0.4280
   20DG     H13  450   2.085   0.823   3.323 -0.9445  1.8155  0.3518
   20DG     H14  451   2.249   0.867   3.365  0.6049  3.0088  1.1765
   20DG     H15  452   1.741   1.220   3.579 -0.7466  0.0634 -0.2027
   20DG     H16  453   1.723   1.070   3.479  0.0389 -1.2791  1.0990
   20DG     C17  454   2.105   0.994   3.432  0.9113 -0.6884  0.3684
   20DG     C18  455   1.926   1.134   3.495  0.0096  0.9529 -0.3336
   20DG     O19  456   1.969   0.996   3.474 -0.3779  0.1176 -0.3536
   20DG     H20  457   2.125   1.063   3.350  0.2753 -2.1477 -1.0651
   20DG     H21  458   2.161   1.034   3.517 -2.0006 -0.9011  2.5573
   20DG     H22  459   1.924   1.193   3.404  0.3723 -0.8133 -1.5472
   20DG     H23  460   1.991   1.189   3.562  1.3160 -0.8806 -0.0016
   21DG      C1  461   5.128   3.275   1.097 -0.2243 -0.1165  0.4918
   21DG      C2  462   4.642   2.810   1.449  0.5949  0.2681  0.4719
   21DG      H3  463   5.109   3.311   0.995  0.6918  2.5125  1.1591
   21DG      H4  464   5.171   3.176   1.108 -0.0714 -0.0714  0.3138
   21DG      H5  465   5.200   3.345   1.139 -0.8368  1.0872 -0.3844
   21DG      H6  466   4.564   2.819   1.373  2.4623 -1.8291 -1.8756
   21DG      H7  467   4.698   2.727   1.407 -0.0643 -1.2718  2.4949
   21DG      H8  468   4.603   2.788   1.548 -1.5757 -1.1024 -0.6262
   21DG      O9  469   5.011   3.298   1.175 -0.0007  0.4359 -0.0118
   21DG     O10  470   4.723   2.925   1.448 -0.5780  0.8805 -0.3490
   21DG     C11  471   4.903   3.218   1.136 -0.1711 -0.6421  0.6949
   21DG     C12  472   4.674   3.050   1.482 -0.0095  0.4022  1.2548
   21DG     H13  473   4.929   3.117   1.106 -1.4941 -0.9909  0.6324
   21DG     H14  474   4.847   3.256   1.050  0.1103  0.3918  0.9506
   21DG     H15  475   4.619   3.070   1.574 -2.1706  3.1906 -0.4760
   21DG     H16  476   4.600   3.059   1.403  0.2008 -1.1007  0.8440
   21DG     C17  477   4.803   3.204   1.247 -0.2278 -0.2704  0.8255
   21DG     C18  478   4.801   3.139   1.470 -0.0228 -0.2328 -0.1981
   21DG     O19  479   4.868   3.133   1.346  0.4183  0.5196 -0.2557
   21DG     H20  480   4.709   3.155   1.223 -0.8593  0.6651  1.3440
   21DG     H21  481   4.788   3.309   1.272  1.4519  0.3530 -0.5731
   21DG     H22  482   4.777   3.241   1.502 -1.6398 -1.7077  4.0204
   21DG     H23  483   4.870   3.102   1.546  0.4186  1.0452  0.0614
   22DG      C1  484   3.923   3.964   5.382  0.5127 -0.2910  0.1592
   22DG      C2  485   3.492   3.409   5.582  0.0156  0.0880  0.3110
   22DG      H3  486   3.895   4.005   5.285 -0.1520 -0.6188  0.2022
   22DG      H4  487   4.014   4.011   5.418  2.0760 -2.6984 -0.3729
   22DG      H5  488   3.837   3.973   5.449  0.5106 -4.5079  1.0371
   22DG      H6  489   3.406   3.440   5.522 -0.6958 -2.3905 -0.0636
   22DG      H7  490   3.484   3.300   5.580 -0.4753  0.1285 -1.8506
   22DG      H8  491   3.477   3.438   5.686 -0.5090  0.3022  0.1832
   22DG      O9  492   3.948   3.825   5.372 -0.1250  0.0344 -0.0188
   22DG     O10  493   3.617   3.449   5.522  0.1773 -0.6290 -0.2129
   22DG     C11  494   3.964   3.767   5.503  0.2750  0.2303 -0.6158
   22DG     C12  495   3.735   3.403   5.586 -0.6661 -0.0857 -0.3987
   22DG     H13  496   3.890   3.799   5.576 -0.2762 -1.2299 -0.5059
   22DG     H14  497   4.067   3.791   5.529  0.6373 -2.8547  1.3269
   22DG     H15  498   3.738   3.300   5.620 -2.0789 -0.8301 -2.3570
   22DG     H16  499   3.749   3.468   5.673  3.6588 -1.9454  0.5301
   22DG     C17  500   3.963   3.611   5.503  0.9730  0.0209  0.0112
   22DG     C18  501   3.846   3.415   5.480 -0.2473 -0.3745 -0.6793
   22DG     O19  502   3.851   3.546   5.446 -0.2786 -0.3229 -0.5940
   22DG     H20  503   3.972   3.576   5.606  2.1113 -0.6140 -0.2937
   22DG     H21  504   4.049   3.576   5.446  0.6508  0.4788 -0.7630
   22DG     H22  505   3.943   3.382   5.520 -0.6143  0.0355  0.5956
   22DG     H23  506   3.819   3.350   5.397  0.5253 -0.4086 -0.9151
   23DG      C1  507   3.360   4.726   3.133  0.8467  0.0863  0.3030
   23DG      C2  508   3.870   4.410   3.401 -0.6047  0.1719 -0.3182
   23DG      H3  509   3.406   4.814   3.177 -2.1634  1.8617  0.2474
   23DG      H4  510   3.256   4.719   3.167 -0.1529  0.8213 -2.3003
   23DG      H5  511   3.358   4.748   3.026 -1.7151  0.0064  0.2714
   23DG      H6  512   3.960   4.449   3.353 -0.2026 -1.6979 -1.1454
   23DG      H7  513   3.816   4.485   3.459  0.8703 -0.2076  1.6635
   23DG      H8  514   3.906   4.341   3.477 -2.2600  0.5919  0.9087
   23DG      O9  515   3.424   4.604   3.171 -0.1000  0.4396  0.2889
   23DG     O10  516   3.788   4.343   3.311 -0.3317 -0.1901  0.1376
   23DG     C11  517   3.361   4.489   3.129 -0.1917 -0.6136 -0.2177
   23DG     C12  518   3.702   4.249   3.373  0.9057 -0.0005  0.0970
   23DG     H13  519   3.320   4.496   3.028 -1.1326 -1.8629  0.0559
   23DG     H14  520   3.271   4.483   3.190 -0.6973  1.1414 -0.7038
   23DG     H15  521   3.670   4.269   3.475 -0.9407 -3.2711  0.2992
   23DG     H16  522   3.748   4.150   3.379 -0.2705 -0.5475  0.4803
   23DG     C17  523   3.440   4.365   3.128 -0.7160  0.0064 -0.2775
   23DG     C18  524   3.579   4.240   3.274 -0.1050  0.1086  0.4209
   23DG     O19  525   3.507   4.360   3.259 -0.1749 -0.4752 -0.3155
   23DG     H20  526   3.507   4.347   3.044  0.0215 -0.7598  0.4556
   23DG     H21  527   3.364   4.286   3.125 -0.3648 -0.4160  1.0767
   23DG     H22  528   3.621   4.220   3.175 -0.1169 -0.8927  0.6059
   23DG     H23  529   3.514   4.155   3.292 -0.4522  0.9703  3.7357
   24DG      C1  530   1.783   3.490   2.955 -0.2665 -0.1355  0.5231
   24DG      C2  531   2.026   3.967   2.505 -0.7132 -0.4364 -0.9639
   24DG      H3  532   1.856   3.543   3.017 -0.9810  0.4036  0.9250
   24DG      H4  533   1.830   3.410   2.899 -2.0096  0.4828 -2.0009
   24DG      H5  534   1.716   3.445   3.029 -0.3978 -1.6044 -0.4500
   24DG      H6  535   2.094   3.901   2.452  1.5070 -0.6909  1.9201
   24DG      H7  536   1.999   4.047   2.437  1.2100  0.5996 -0.5617
   24DG      H8  537   2.089   4.009   2.584  0.0221 -2.9587 -0.0956
   24DG      O9  538   1.729   3.595   2.880  0.3303 -0.5095  0.7777
   24DG     O10  539   1.915   3.897   2.557 -0.2971 -0.5215  0.3213
   24DG     C11  540   1.624   3.556   2.799 -0.5171 -0.1292 -0.1322
   24DG     C12  541   1.846   3.826   2.454  0.5227  0.1544 -0.1188
   24DG     H13  542   1.538   3.523   2.858  0.2768  2.4278  2.7305
   24DG     H14  543   1.663   3.471   2.742 -1.7887  0.6909 -2.3487
   24DG     H15  544   1.914   3.752   2.411  2.1869  1.0714  0.8423
   24DG     H16  545   1.822   3.890   2.369 -3.6969  1.4026  1.7478
   24DG     C17  546   1.596   3.666   2.687  0.2559  0.4847 -0.3805
   24DG     C18  547   1.709   3.768   2.508 -0.2491  0.1326  0.1468
   24DG     O19  548   1.724   3.692   2.625 -0.6983  0.2029 -0.0140
   24DG     H20  549   1.551   3.758   2.723  0.8078  0.4400  0.4585
   24DG     H21  550   1.523   3.637   2.612  0.0930  0.6646 -0.2925
   24DG     H22  551   1.642   3.850   2.532 -0.1165  0.2740  0.0363
   24DG     H23  552   1.648   3.716   2.433  0.2014 -0.7928  0.4026
   25DG      C1  553   0.345   5.156   3.005 -0.5316 -0.0150 -0.5173
   25DG      C2  554   0.114   5.576   2.523  0.4349 -0.4394 -0.5657
   25DG      H3  555   0.258   5.104   2.965 -0.3284 -1.2700  0.6046
   25DG      H4  556   0.353   5.142   3.112  1.0847 -1.2588 -0.7481
   25DG      H5  557   0.427   5.107   2.952  0.0736  1.5281 -1.0601
   25DG      H6  558   0.097   5.680   2.496  2.1801  0.3719  1.1866
   25DG      H7  559   0.176   5.519   2.454  1.2891 -1.0696  0.6828
   25DG      H8  560   0.019   5.524   2.531 -0.7857  1.5181 -1.4446
   25DG      O9  561   0.343   5.292   2.968 -0.6524 -0.1019 -0.1289
   25DG     O10  562   0.175   5.575   2.653  0.1851  0.5723 -0.2925
   25DG     C11  563   0.478   5.342   2.978 -0.7624  0.4818  0.6989
   25DG     C12  564   0.299   5.637   2.656 -0.2586 -0.6499  0.2097
   25DG     H13  565   0.552   5.284   2.924  1.3011  3.6391 -0.1018
   25DG     H14  566   0.504   5.341   3.084 -2.4060 -1.9795  1.1455
   25DG     H15  567   0.283   5.741   2.626  1.1485 -1.0488 -2.1640
   25DG     H16  568   0.363   5.600   2.576 -0.9675  1.8469 -1.6416
   25DG     C17  569   0.482   5.490   2.933  0.0909 -0.2354  0.0939
   25DG     C18  570   0.361   5.631   2.793 -0.1446  0.8555 -0.1933
   25DG     O19  571   0.405   5.499   2.815 -0.0840  0.5799 -0.1344
   25DG     H20  572   0.582   5.532   2.919 -0.2518  0.7503  0.5179
   25DG     H21  573   0.447   5.558   3.011  0.2740  0.5723 -0.5066
   25DG     H22  574   0.447   5.695   2.815  1.6238 -2.2874  2.9332
   25DG     H23  575   0.294   5.653   2.876  0.3010  1.6114 -0.0205
   26DG      C1  576   5.370   3.397   4.025 -0.1142 -0.0322 -0.6125
   26DG      C2  577   5.426   3.369   3.379  0.4088 -0.4196 -0.3913
   26DG      H3  578   5.431   3.397   4.116 -0.4467 -0.2281 -0.3847
   26DG      H4  579   5.333   3.295   4.031  2.1561 -0.8811 -0.2487
   26DG      H5  580   5.283   3.462   4.038 -0.6939 -0.5810 -1.6292
   26DG      H6  581   5.365   3.280   3.397 -0.4324 -0.1991 -1.9548
   26DG      H7  582   5.349   3.445   3.364 -0.9799 -1.9620 -1.4812
   26DG      H8  583   5.483   3.357   3.287 -0.3033 -0.0478 -0.8905
   26DG      O9  584   5.468   3.425   3.927  0.7477 -0.1226 -0.5317
   26DG     O10  585   5.510   3.386   3.489 -0.2434  0.3586 -0.0259
   26DG     C11  586   5.525   3.558   3.941 -0.1105  0.6151  0.0566
   26DG     C12  587   5.581   3.505   3.485  0.0242 -0.2027  0.3628
   26DG     H13  588   5.571   3.572   4.039 -0.6748  0.5278  0.3358
   26DG     H14  589   5.468   3.650   3.926 -0.5672  0.6497  1.8029
   26DG     H15  590   5.516   3.592   3.475  0.8664  0.3857 -0.0363
   26DG     H16  591   5.651   3.488   3.403 -0.7812  1.2880 -0.6835
   26DG     C17  592   5.637   3.575   3.840 -0.2800  0.2143 -0.1979
   26DG     C18  593   5.661   3.524   3.617 -0.3034 -0.1353 -0.0755
   26DG     O19  594   5.569   3.554   3.720  0.2692 -0.2865 -0.3905
   26DG     H20  595   5.708   3.493   3.844 -0.6874 -0.1931 -1.0452
   26DG     H21  596   5.682   3.672   3.858 -2.1918  1.1734 -0.3082
   26DG     H22  597   5.723   3.435   3.634 -1.2628 -1.4017 -2.6036
   26DG     H23  598   5.725   3.611   3.604 -0.1080  0.1731  2.5390
   27DG      C1  599   2.497   3.024   4.764  0.0934  0.2454 -0.1289
   27DG      C2  600   2.212   3.166   5.031 -0.2183  0.3420  0.0941
   27DG      H3  601   2.528   3.034   4.868 -0.5624  0.3621  0.0568
   27DG      H4  602   2.406   3.080   4.743 -1.5339 -2.2114  0.0958
   27DG      H5  603   2.572   3.071   4.700 -1.0001  1.2128 -0.7270
   27DG      H6  604   2.317   3.170   5.004 -0.5226  0.8044 -1.1075
   27DG      H7  605   2.162   3.104   4.957 -0.2435 -0.2792  0.6234
   27DG      H8  606   2.177   3.269   5.019  0.1819  0.4297 -0.3368
   27DG      O9  607   2.485   2.885   4.734 -0.1331 -0.2121 -0.3399
   27DG     O10  608   2.186   3.101   5.153  0.3574  0.0896 -0.4415
   27DG     C11  609   2.402   2.799   4.808 -0.3673 -0.0177  0.3379
   27DG     C12  610   2.300   3.039   5.218 -0.0633  0.3631  0.1192
   27DG     H13  611   2.416   2.699   4.767  0.3257 -0.2969  1.2187
   27DG     H14  612   2.302   2.839   4.789 -0.3785  0.2462  0.9433
   27DG     H15  613   2.276   3.029   5.324  0.7720  0.4773  0.3274
   27DG     H16  614   2.384   3.107   5.205  0.5154 -0.2208  0.6982
   27DG     C17  615   2.414   2.801   4.960  0.2296  0.2675  0.1544
   27DG     C18  616   2.325   2.903   5.160  0.4856  0.5709 -0.3027
   27DG     O19  617   2.360   2.918   5.024 -0.0424 -0.1863  0.2474
   27DG     H20  618   2.517   2.769   4.977  0.3349  1.0707  1.0845
   27DG     H21  619   2.365   2.711   4.998  0.2047  0.1940 -0.0497
   27DG     H22  620   2.413   2.868   5.213  0.5947  2.2521  0.7194
   27DG     H23  621   2.239   2.836   5.163  1.1050 -0.2755  3.4680
   28DG      C1  622   1.829   2.649   2.636  0.3199  0.2720 -0.4758
   28DG      C2  623   1.475   2.338   3.262 -0.3999  0.2483  0.1213
   28DG      H3  624   1.788   2.746   2.665 -1.6461 -0.2430 -1.3257
   28DG      H4  625   1.821   2.643   2.527  0.2470 -1.2935 -0.4119
   28DG      H5  626   1.933   2.642   2.666 -0.0784 -1.2357  0.6886
   28DG      H6  627   1.366   2.347   3.261 -0.4090  2.2197  3.3611
   28DG      H7  628   1.498   2.261   3.336  0.9793  0.7821  0.2810
   28DG      H8  629   1.521   2.429   3.302  0.7510  0.6422 -1.9863
   28DG      O9  630   1.757   2.540   2.696 -0.2746 -0.6116 -0.0206
   28DG     O10  631   1.523   2.294   3.141  0.1249 -0.5245 -0.1199
   28DG     C11  632   1.820   2.419   2.686 -0.1643 -0.0803  0.0864
   28DG     C12  633   1.516   2.402   3.048 -0.0793  0.3474 -0.4143
   28DG     H13  634   1.915   2.410   2.738  0.9721 -0.9065 -1.9995
   28DG     H14  635   1.847   2.396   2.583  2.2655  0.5431  0.5235
   28DG     H15  636   1.586   2.484   3.065  0.2178 -0.1787  1.0723
   28DG     H16  637   1.414   2.440   3.043  0.0260  0.5118 -4.0507
   28DG     C17  638   1.727   2.307   2.746 -0.4318 -0.6223  0.1815
   28DG     C18  639   1.550   2.360   2.909 -0.2099  0.4944 -0.0477
   28DG     O19  640   1.689   2.345   2.882  0.3745  0.6162  0.4436
   28DG     H20  641   1.780   2.212   2.743 -1.0029 -0.9406 -2.0890
   28DG     H21  642   1.642   2.275   2.685  0.4129 -2.5402 -0.0698
   28DG     H22  643   1.486   2.277   2.880  0.5790 -0.3660  0.6405
   28DG     H23  644   1.523   2.447   2.849  1.2508  0.4653 -0.7775
   29DG      C1  645   2.430   5.259   4.341 -0.5163 -0.4418 -0.0823
   29DG      C2  646   2.817   5.587   4.772 -0.1121 -0.1411  0.3235
   29DG      H3  647   2.358   5.233   4.263 -1.1970  2.7511 -0.6664
   29DG      H4  648   2.465   5.183   4.411  0.2367 -1.1650 -1.2088
   29DG      H5  649   2.517   5.278   4.278 -0.4964 -0.7044 -0.1344
   29DG      H6  650   2.771   5.686   4.763  1.4463  0.6061  0.2531
   29DG      H7  651   2.856   5.572   4.873  1.0451  0.1506 -0.0710
   29DG      H8  652   2.910   5.584   4.715  0.3515 -0.0037  1.0635
   29DG      O9  653   2.388   5.382   4.389 -0.1349  0.4165  0.0531
   29DG     O10  654   2.717   5.503   4.728  0.3472 -0.0412 -0.3406
   29DG     C11  655   2.298   5.374   4.501  0.0627  0.2223  0.5512
   29DG     C12  656   2.606   5.477   4.819  0.8307 -0.7763  0.2642
   29DG     H13  657   2.320   5.284   4.558 -0.0840  0.5807  1.1865
   29DG     H14  658   2.192   5.357   4.478  0.2815  0.3910 -0.6484
   29DG     H15  659   2.575   5.566   4.875 -2.1482 -0.6901 -1.3216
   29DG     H16  660   2.623   5.408   4.901  0.2839 -0.0764  0.9828
   29DG     C17  661   2.311   5.502   4.586 -0.4311  0.3798 -0.2370
   29DG     C18  662   2.496   5.424   4.729 -0.3504  0.2599 -0.0011
   29DG     O19  663   2.445   5.525   4.638 -0.2097 -0.4134  0.1337
   29DG     H20  664   2.240   5.502   4.669 -0.0336  0.9674  0.1124
   29DG     H21  665   2.291   5.596   4.535  0.9704  0.4485 -0.7057
   29DG     H22  666   2.540   5.344   4.669  1.5353 -1.2195  3.1033
   29DG     H23  667   2.426   5.365   4.789  0.0937 -1.0945 -0.7673
   30DG      C1  668   2.549   4.036   4.553  0.4671  0.7685  0.5886
   30DG      C2  669   2.820   3.457   4.864 -0.1518 -0.5268 -0.1961
   30DG      H3  670   2.630   4.048   4.481  0.0315  0.5897  0.0531
   30DG      H4  671   2.505   4.134   4.572  0.4903  0.9744 -0.3581
   30DG      H5  672   2.478   3.984   4.488  2.0030 -1.4342  0.5695
   30DG      H6  673   2.815   3.398   4.773  0.8044 -0.0798 -0.5499
   30DG      H7  674   2.912   3.429   4.917  0.1876  1.1687  0.1756
   30DG      H8  675   2.732   3.429   4.922 -0.6464 -1.2280 -1.2611
   30DG      O9  676   2.564   3.969   4.673 -0.2048  0.1129 -0.3074
   30DG     O10  677   2.820   3.596   4.842  0.1201 -0.0946  0.1194
   30DG     C11  678   2.666   4.024   4.761  0.0531 -0.0422  0.4636
   30DG     C12  679   2.945   3.638   4.779  0.7150  0.8729  0.0009
   30DG     H13  680   2.635   4.007   4.864 -0.7582  3.4699  0.9339
   30DG     H14  681   2.655   4.132   4.752  0.9258 -0.0273 -0.5734
   30DG     H15  682   2.952   3.621   4.672  1.5224 -0.3462  0.2281
   30DG     H16  683   3.035   3.599   4.828 -0.9316 -3.5003  0.0119
   30DG     C17  684   2.808   3.986   4.731  0.0224 -0.1055 -0.4500
   30DG     C18  685   2.954   3.795   4.786 -0.3861 -0.0356 -0.2432
   30DG     O19  686   2.826   3.841   4.734 -0.1129  0.1731 -0.1368
   30DG     H20  687   2.873   4.032   4.806 -0.1725 -1.2324  0.4512
   30DG     H21  688   2.831   4.028   4.633 -2.9365  0.0827 -1.1517
   30DG     H22  689   2.961   3.820   4.892 -1.2038 -3.1541  0.6406
   30DG     H23  690   3.038   3.842   4.735  0.3073  1.0656  1.8048
   31DG      C1  691   4.081   3.777   4.516 -0.0879  0.9546  0.5720
   31DG      C2  692   4.754   3.592   4.230  0.3736 -0.2025 -1.1980
   31DG      H3  693   4.102   3.775   4.623  0.1197 -2.5233  0.5690
   31DG      H4  694   3.975   3.803   4.514  0.5905  4.1358  0.9064
   31DG      H5  695   4.146   3.853   4.473  0.0111  0.7867  0.4243
   31DG      H6  696   4.850   3.622   4.187  0.6099 -0.2801 -0.7381
   31DG      H7  697   4.772   3.616   4.335 -0.6266  3.2930 -1.6777
   31DG      H8  698   4.751   3.483   4.228 -0.3315 -0.3228  1.6134
   31DG      O9  699   4.102   3.650   4.460 -0.0033 -0.4144  0.0833
   31DG     O10  700   4.633   3.648   4.174 -0.3639  0.5828 -0.0045
   31DG     C11  701   4.053   3.638   4.333 -0.3540  0.0356  0.2981
   31DG     C12  702   4.514   3.615   4.240  0.1487  0.3140 -0.0466
   31DG     H13  703   3.959   3.692   4.320 -1.3934 -1.5925  0.6869
   31DG     H14  704   4.036   3.530   4.329  2.8862 -0.6117  1.3891
   31DG     H15  705   4.538   3.640   4.343  3.3143  2.3841 -1.1437
   31DG     H16  706   4.511   3.506   4.234  2.2885  0.2716 -1.1673
   31DG     C17  707   4.158   3.679   4.225 -0.6217  0.0603  0.0691
   31DG     C18  708   4.391   3.682   4.194 -0.5320  0.4162 -0.5137
   31DG     O19  709   4.286   3.629   4.270 -0.0025 -0.7419  0.1810
   31DG     H20  710   4.162   3.787   4.219 -0.0861  0.0091 -0.6857
   31DG     H21  711   4.133   3.630   4.130 -0.6113 -1.5987  0.8840
   31DG     H22  712   4.401   3.790   4.205 -0.7525  0.2561  2.0832
   31DG     H23  713   4.385   3.655   4.089  1.5314  1.1046 -0.8527
   32DG      C1  714   0.270   1.489   1.377 -0.0330  0.7152  0.4852
   32DG      C2  715   0.903   1.733   1.061  0.4267 -0.0591 -0.5934
   32DG      H3  716   0.189   1.421   1.402  0.6230  0.6797  2.6706
   32DG      H4  717   0.228   1.579   1.332 -0.3407 -0.0432 -0.7854
   32DG      H5  718   0.314   1.518   1.472  0.6246 -1.4493  0.8868
   32DG      H6  719   0.970   1.788   1.127 -1.1965  2.1300 -0.6410
   32DG      H7  720   0.942   1.699   0.965 -1.4698 -2.3727 -0.6307
   32DG      H8  721   0.812   1.792   1.044 -0.9484 -2.1466 -0.7839
   32DG      O9  722   0.378   1.441   1.292  0.2279 -0.1793  0.7468
   32DG     O10  723   0.861   1.611   1.128  0.1014 -0.3137  0.4528
   32DG     C11  724   0.467   1.362   1.357 -0.2596  0.0719  0.7846
   32DG     C12  725   0.797   1.641   1.242  0.4915 -0.2336 -0.4202
   32DG     H13  726   0.435   1.264   1.394 -0.0655 -0.3011 -0.0101
   32DG     H14  727   0.498   1.412   1.449  0.8256  1.5367 -0.3380
   32DG     H15  728   0.702   1.692   1.225 -0.3254 -1.3143  0.6367
   32DG     H16  729   0.845   1.690   1.327 -0.0491  0.5755 -0.5719
   32DG     C17  730   0.590   1.330   1.274 -0.0779  0.4703  0.1843
   32DG     C18  731   0.738   1.515   1.312 -0.2998  0.4032  0.0258
   32DG     O19  732   0.657   1.445   1.216 -0.4099  0.3193  0.2088
   32DG     H20  733   0.561   1.266   1.190  0.0199 -1.6234  1.6765
   32DG     H21  734   0.664   1.266   1.322  1.2002 -0.1918 -2.4436
   32DG     H22  735   0.820   1.462   1.358  0.0840  0.3044 -0.7541
   32DG     H23  736   0.679   1.560   1.392 -1.5383 -0.0678 -0.5846
   33DG      C1  737   2.454   1.651   2.973  0.1705  0.6208 -0.4942
   33DG      C2  738   1.905   2.140   3.118 -0.0325  0.4541  0.3229
   33DG      H3  739   2.401   1.564   2.936  0.8571  0.2663 -0.6748
   33DG      H4  740   2.445   1.648   3.081  0.5956 -0.0927 -0.4699
   33DG      H5  741   2.551   1.611   2.941 -0.5122 -0.7107 -0.9791
   33DG      H6  742   1.924   2.168   3.222  0.3628 -1.3292  0.7682
   33DG      H7  743   1.841   2.212   3.067 -1.8284 -0.8751  0.6067
   33DG      H8  744   1.863   2.040   3.104 -0.7547  0.7720  0.1902
   33DG      O9  745   2.406   1.767   2.910 -0.3514 -0.3277  0.4203
   33DG     O10  746   2.033   2.140   3.052  0.2833  0.1086 -0.2661
   33DG     C11  747   2.458   1.890   2.971 -0.0634  0.4868  0.7376
   33DG     C12  748   2.034   2.099   2.920  0.5834 -0.0478  0.6073
   33DG     H13  749   2.567   1.887   2.968 -0.1045 -1.5197 -0.0207
   33DG     H14  750   2.433   1.909   3.075  0.5481  2.6106  0.5461
   33DG     H15  751   1.983   2.181   2.871 -1.6612 -0.7134  1.6772
   33DG     H16  752   1.987   2.003   2.898 -0.0068  0.6006 -1.0658
   33DG     C17  753   2.397   1.999   2.886 -0.3027 -0.7372  0.5782
   33DG     C18  754   2.174   2.094   2.866 -0.1256  0.7631  0.6262
   33DG     O19  755   2.273   2.014   2.940 -0.5561  0.3595  0.0374
   33DG     H20  756   2.382   1.988   2.779  1.2555  0.6452  0.1732
   33DG     H21  757   2.448   2.095   2.898  1.7933 -1.6601 -0.3948
   33DG     H22  758   2.162   2.046   2.769  1.7216  0.7766  0.3491
   33DG     H23  759   2.211   2.195   2.845  0.8256  0.5176  1.0806
   34DG      C1  760   3.689   1.884   4.888 -0.7776 -0.3422 -0.1109
   34DG      C2  761   3.462   1.411   5.508  0.1884  0.3621  0.3844
   34DG      H3  762   3.603   1.943   4.919 -0.4562  0.2999 -0.4262
   34DG      H4  763   3.668   1.833   4.794  1.2087 -0.1101 -0.7267
   34DG      H5  764   3.770   1.952   4.859 -0.1668 -1.3275 -0.7716
   34DG      H6  765   3.504   1.344   5.584  1.4942  0.4675 -0.2014
   34DG      H7  766   3.405   1.493   5.549 -1.7917 -0.2264 -1.0499
   34DG      H8  767   3.383   1.357   5.456  0.7613  0.3822 -0.5325
   34DG      O9  768   3.730   1.794   4.989  1.0444  0.2017  0.8960
   34DG     O10  769   3.562   1.464   5.423 -0.3224  0.0540 -0.3463
   34DG     C11  770   3.633   1.691   5.037 -0.5275  0.6906 -0.2612
   34DG     C12  771   3.657   1.543   5.486 -0.7472  0.3974  0.5038
   34DG     H13  772   3.573   1.641   4.961 -3.0875  2.6003  0.3803
   34DG     H14  773   3.558   1.750   5.090 -2.3437  0.5985 -2.5775
   34DG     H15  774   3.702   1.484   5.566 -1.1376  0.0684  0.4882
   34DG     H16  775   3.614   1.633   5.529  0.8936  0.4013  2.2663
   34DG     C17  776   3.694   1.596   5.143  0.2472 -0.1861  0.2907
   34DG     C18  777   3.760   1.571   5.376  0.6362 -0.2343 -0.4566
   34DG     O19  778   3.698   1.655   5.276 -0.0975  0.0558  0.6408
   34DG     H20  779   3.793   1.571   5.104  0.2029 -0.1092  0.1261
   34DG     H21  780   3.628   1.509   5.151 -1.3529  0.7030 -1.9541
   34DG     H22  781   3.855   1.602   5.420  1.3452 -1.5770 -1.0021
   34DG     H23  782   3.784   1.473   5.334  1.5975  0.1621 -0.8674
   35DG      C1  783   3.769   4.002   2.890 -0.7051 -0.3829  0.5831
   35DG      C2  784   4.132   3.764   2.407 -0.3964 -0.2182  0.1352
   35DG      H3  785   3.710   4.086   2.926  1.0674  0.4736  1.6676
   35DG      H4  786   3.833   3.959   2.967  0.1367  0.2652  0.2588
   35DG      H5  787   3.701   3.926   2.852  0.0432 -0.6338 -0.2992
   35DG      H6  788   4.177   3.775   2.506  2.3851 -0.3889 -1.0183
   35DG      H7  789   4.109   3.658   2.404  0.4049 -0.3976  0.0008
   35DG      H8  790   4.213   3.775   2.335  0.6445 -0.5309  1.2176
   35DG      O9  791   3.862   4.044   2.788 -0.5857 -0.0912 -0.1544
   35DG     O10  792   4.012   3.835   2.371 -0.1069 -0.2176 -0.1576
   35DG     C11  793   3.802   4.064   2.661 -0.0071 -0.5032  0.4850
   35DG     C12  794   4.031   3.970   2.334 -0.7446 -1.0057 -0.2722
   35DG     H13  795   3.719   4.135   2.673  0.8345  0.6316 -0.2097
   35DG     H14  796   3.755   3.977   2.615 -0.8486  0.0422  0.2863
   35DG     H15  797   3.935   4.019   2.319 -0.2791  0.2900  0.7074
   35DG     H16  798   4.092   3.982   2.245 -2.3255  2.5956 -1.0698
   35DG     C17  799   3.901   4.133   2.566  0.2300 -0.2997  0.4817
   35DG     C18  800   4.093   4.062   2.439 -1.3553 -0.6905  0.1929
   35DG     O19  801   4.020   4.051   2.561  0.2068  0.4462 -0.0247
   35DG     H20  802   3.914   4.239   2.588  1.3841 -0.5210  0.9431
   35DG     H21  803   3.865   4.146   2.464  0.2851 -1.8296  0.2405
   35DG     H22  804   4.193   4.027   2.465 -1.7908 -3.3031 -1.2835
   35DG     H23  805   4.107   4.167   2.416  2.1095 -0.3486  3.0185
   36DG      C1  806   2.263   1.606   1.957 -0.1189  0.1310 -0.1652
   36DG      C2  807   1.943   1.067   2.268  0.0514 -0.1361 -0.9891
   36DG      H3  808   2.355   1.656   1.927 -0.6813  1.4141  0.1576
   36DG      H4  809   2.211   1.665   2.033 -0.3252  0.2691 -0.4111
   36DG      H5  810   2.192   1.607   1.874 -0.6282 -0.5365  0.2516
   36DG      H6  811   1.899   1.108   2.177 -2.5064 -0.4011  0.0474
   36DG      H7  812   1.937   0.958   2.267  1.6814 -0.2656 -0.0282
   36DG      H8  813   1.881   1.103   2.349  2.3792 -1.7398  1.6986
   36DG      O9  814   2.292   1.476   1.998 -0.9219 -0.1535 -0.6076
   36DG     O10  815   2.080   1.110   2.275 -0.3232 -0.4812 -0.4310
   36DG     C11  816   2.365   1.476   2.128  0.3135 -0.5372 -0.4255
   36DG     C12  817   2.170   1.038   2.186  0.3253 -0.4343  0.0317
   36DG     H13  818   2.289   1.513   2.197 -0.2023 -0.5563 -0.9746
   36DG     H14  819   2.457   1.534   2.122  0.9010 -1.4307 -0.3249
   36DG     H15  820   2.121   1.044   2.089 -1.6737  0.0795  1.0057
   36DG     H16  821   2.174   0.933   2.212  1.0946 -0.9406 -1.9815
   36DG     C17  822   2.399   1.328   2.161 -0.0096  0.2631 -0.1954
   36DG     C18  823   2.305   1.111   2.183 -0.0591 -0.4200 -0.4416
   36DG     O19  824   2.278   1.255   2.169  0.0694  0.1106 -0.1232
   36DG     H20  825   2.449   1.324   2.258 -0.8528  1.0873  0.2850
   36DG     H21  826   2.466   1.288   2.084  0.6672  2.7419 -0.9682
   36DG     H22  827   2.364   1.082   2.269  3.4792  1.4974 -2.0292
   36DG     H23  828   2.371   1.091   2.099  0.7330  2.9564 -0.7469
   37DG      C1  829   4.010   1.748   5.119  0.5760  0.1024 -0.6714
   37DG      C2  830   3.886   2.321   5.322 -0.6634  1.0941 -0.4223
   37DG      H3  831   4.020   1.640   5.127  2.6225  0.3040  0.0459
   37DG      H4  832   3.972   1.771   5.020 -0.9721 -0.1518 -0.1598
   37DG      H5  833   3.940   1.779   5.196  0.9441 -0.5276 -0.0680
   37DG      H6  834   3.783   2.327   5.356 -0.4533  0.0943  0.4522
   37DG      H7  835   3.895   2.405   5.254 -3.0944  1.2475 -0.6333
   37DG      H8  836   3.907   2.226   5.272  0.2784  0.7942  0.5002
   37DG      O9  837   4.137   1.811   5.157  0.0029 -0.2942  0.2021
   37DG     O10  838   3.985   2.334   5.428  0.3105  0.1808 -0.0237
   37DG     C11  839   4.111   1.949   5.153  0.0618 -0.8374  0.5484
   37DG     C12  840   4.117   2.363   5.387  0.6152  0.1647 -0.4209
   37DG     H13  841   4.005   1.973   5.158  0.3375  0.3387  0.9779
   37DG     H14  842   4.151   1.984   5.058  0.8395 -1.3693  0.6681
   37DG     H15  843   4.164   2.428   5.460 -0.8699  0.5384  0.2315
   37DG     H16  844   4.107   2.408   5.288  1.3250  0.3228 -0.4265
   37DG     C17  845   4.168   2.022   5.271 -0.1355 -0.1111 -0.5499
   37DG     C18  846   4.190   2.228   5.376 -0.5316 -1.2113  0.0494
   37DG     O19  847   4.146   2.157   5.258  0.5019 -0.6407  0.2072
   37DG     H20  848   4.274   2.001   5.286 -0.3406 -0.3281  0.6724
   37DG     H21  849   4.123   1.978   5.360 -0.0252  0.8276 -0.0229
   37DG     H22  850   4.298   2.227   5.392 -0.4556  0.5861 -0.0888
   37DG     H23  851   4.154   2.179   5.466 -0.8698  0.7469  1.0401
   38DG      C1  852   3.933   2.978   2.061  0.2572 -0.4715  0.0328
   38DG      C2  853   3.705   3.063   1.418  0.1287  0.0024 -0.0952
   38DG      H3  854   4.025   2.926   2.088  2.0373  2.3721 -0.1815
   38DG      H4  855   3.845   2.913   2.059 -0.6504  0.6932  0.7477
   38DG      H5  856   3.924   3.045   2.147 -0.1019 -1.6644  0.9444
   38DG      H6  857   3.621   3.129   1.396 -1.7114 -1.6145  1.6450
   38DG      H7  858   3.768   3.044   1.331 -0.1322 -1.8190  0.0833
   38DG      H8  859   3.676   2.961   1.441  3.3028 -0.4318  2.7979
   38DG      O9  860   3.965   3.037   1.933 -0.2526  0.2113 -0.7034
   38DG     O10  861   3.800   3.110   1.519  0.6244  0.3708 -0.1595
   38DG     C11  862   4.031   3.163   1.946  0.5043  0.0744 -0.1106
   38DG     C12  863   3.824   3.250   1.532  0.1146  0.8614 -0.0707
   38DG     H13  864   4.120   3.152   2.008  1.6566  0.3225 -1.6432
   38DG     H14  865   3.960   3.215   2.010 -0.6218  2.1661 -2.8511
   38DG     H15  866   3.736   3.288   1.584 -1.5401 -0.6293 -1.5881
   38DG     H16  867   3.828   3.299   1.435  1.0126 -0.0540 -0.5144
   38DG     C17  868   4.047   3.233   1.819  0.5145 -0.0266  0.0585
   38DG     C18  869   3.948   3.279   1.616  0.0024  0.2859 -0.1760
   38DG     O19  870   3.951   3.195   1.728 -0.5556 -0.1565 -0.2307
   38DG     H20  871   4.136   3.184   1.780  0.0000 -0.0346 -1.1554
   38DG     H21  872   4.055   3.341   1.833  0.3232  0.1104 -0.8261
   38DG     H22  873   4.032   3.261   1.549  1.0414 -0.0067  1.1504
   38DG     H23  874   3.951   3.386   1.640  0.1472  0.6570 -1.7319
   39DG      C1  875   3.451   1.972   3.775 -0.3919 -0.1799  0.5051
   39DG      C2  876   3.258   1.468   3.421 -0.1324  0.4628 -0.4076
   39DG      H3  877   3.399   1.925   3.858 -0.1277 -1.9789 -0.3082
   39DG      H4  878   3.373   2.013   3.711 -1.0789  0.1358  1.5175
   39DG      H5  879   3.517   2.053   3.808  1.5588 -1.9704  1.2127
   39DG      H6  880   3.186   1.540   3.384 -1.0128  0.1113  0.5973
   39DG      H7  881   3.262   1.396   3.339  1.1659 -0.0891  0.1000
   39DG      H8  882   3.217   1.416   3.507 -1.3563 -1.9626 -2.3332
   39DG      O9  883   3.514   1.861   3.719 -0.5767  0.0361 -0.1976
   39DG     O10  884   3.388   1.512   3.444  0.1335  1.1737  0.3094
   39DG     C11  885   3.596   1.773   3.794 -0.0064  0.2587  0.3421
   39DG     C12  886   3.485   1.419   3.484  0.0287  0.0413 -0.3161
   39DG     H13  887   3.544   1.719   3.874  1.6457  0.4997  1.6424
   39DG     H14  888   3.668   1.838   3.845 -0.9655 -0.0280  2.1597
   39DG     H15  889   3.512   1.364   3.393  1.5295 -0.5009  0.4293
   39DG     H16  890   3.439   1.350   3.555  1.2310  0.4518  0.8905
   39DG     C17  891   3.657   1.666   3.699 -0.2945 -0.2822 -0.0967
   39DG     C18  892   3.600   1.497   3.546  0.3253 -0.2957 -0.2425
   39DG     O19  893   3.558   1.582   3.650  1.1272  0.0488  0.5001
   39DG     H20  894   3.740   1.606   3.735  0.9227  0.5441 -1.3871
   39DG     H21  895   3.698   1.726   3.618  0.6723 -0.0994  0.5128
   39DG     H22  896   3.672   1.426   3.588 -1.1255 -0.6290  1.8458
   39DG     H23  897   3.649   1.551   3.465  2.1533 -1.8421 -0.2259
   40DG      C1  898   4.216   2.716   3.533 -0.5419  0.6183 -0.2468
   40DG      C2  899   3.725   3.106   4.123 -0.0696 -0.4553  0.2610
   40DG      H3  900   4.289   2.796   3.526  0.5964 -0.5284 -2.8913
   40DG      H4  901   4.187   2.684   3.433 -1.2597 -1.2087  0.5032
   40DG      H5  902   4.277   2.636   3.576 -0.3712  1.5749  1.3462
   40DG      H6  903   3.705   3.185   4.051  3.3215 -0.0099 -0.3580
   40DG      H7  904   3.656   3.113   4.207  1.5237  0.9614  1.5025
   40DG      H8  905   3.823   3.111   4.169 -0.7275 -0.2343  1.6768
   40DG      O9  906   4.114   2.755   3.627 -0.5016 -0.1847  0.4841
   40DG     O10  907   3.708   2.977   4.054 -0.1321 -0.3180  0.0268
   40DG     C11  908   3.977   2.725   3.577 -0.5436  0.0979 -0.3036
   40DG     C12  909   3.794   2.976   3.939  0.5533  0.2152  0.6183
   40DG     H13  910   3.981   2.627   3.529  0.5054 -0.6228  1.1438
   40DG     H14  911   3.950   2.799   3.502 -0.6303 -1.6311 -2.0412
   40DG     H15  912   3.899   3.001   3.960  0.8402 -0.5048  0.0733
   40DG     H16  913   3.758   3.042   3.860 -2.4728 -4.2474 -2.2069
   40DG     C17  914   3.870   2.733   3.682  0.7770  0.0035 -0.2245
   40DG     C18  915   3.783   2.838   3.872  0.3918  0.5474  0.5541
   40DG     O19  916   3.877   2.853   3.761 -0.3232  0.3975 -0.9633
   40DG     H20  917   3.889   2.649   3.748 -1.4473  0.0678  0.5874
   40DG     H21  918   3.768   2.724   3.644  0.4161 -0.1519  0.7522
   40DG     H22  919   3.818   2.758   3.937  2.6939  0.4479 -0.6860
   40DG     H23  920   3.678   2.825   3.848  0.7369 -1.8052  0.0692
   41DG      C1  921   0.600   0.574   2.977  0.3626 -0.6532  0.1020
   41DG      C2  922   0.215   1.071   2.441  0.2009  0.0711 -0.9628
   41DG      H3  923   0.703   0.549   3.004  0.3588  0.9489  1.8467
   41DG      H4  924   0.554   0.481   2.944 -0.0140 -0.3337 -0.2827
   41DG      H5  925   0.542   0.595   3.067 -2.8831 -1.9241 -1.5268
   41DG      H6  926   0.241   1.171   2.406 -1.8648  1.5340  1.3496
   41DG      H7  927   0.188   1.008   2.356 -0.4551 -3.3310  1.5594
   41DG      H8  928   0.126   1.078   2.504  0.6640 -2.3652  0.0675
   41DG      O9  929   0.600   0.677   2.880 -0.1625 -0.4655  0.1882
   41DG     O10  930   0.331   1.018   2.513  0.4751  0.0758  0.0599
   41DG     C11  931   0.467   0.706   2.837  0.0886 -0.5441  0.7757
   41DG     C12  932   0.378   1.089   2.629  0.1989  0.0353 -0.1257
   41DG     H13  933   0.399   0.747   2.912 -0.9753  0.2072 -0.5533
   41DG     H14  934   0.424   0.618   2.788 -2.6839  1.5092 -0.7416
   41DG     H15  935   0.307   1.092   2.712  0.4870 -2.1335  0.2516
   41DG     H16  936   0.393   1.193   2.601 -1.3798 -0.2757 -2.4140
   41DG     C17  937   0.470   0.807   2.720  0.4302 -0.1878 -0.4301
   41DG     C18  938   0.518   1.039   2.674 -0.2924 -0.0613  0.0148
   41DG     O19  939   0.505   0.936   2.768 -0.2081 -0.4629  0.2542
   41DG     H20  940   0.379   0.798   2.660  2.3786 -0.5611 -3.5708
   41DG     H21  941   0.553   0.783   2.654  1.1362  2.1860 -0.4711
   41DG     H22  942   0.582   1.021   2.588  0.5472  0.1907  0.5814
   41DG     H23  943   0.567   1.123   2.723 -0.4693  1.2097 -1.8778
   42DG      C1  944   2.350   5.340   0.668  0.5745 -0.3985 -0.4566
   42DG      C2  945   2.679   5.655   1.276 -0.1957 -0.4795  0.0424
   42DG      H3  946   2.444   5.289   0.648 -0.1558 -2.3073  0.7736
   42DG      H4  947   2.287   5.369   0.584  0.3678  0.7012  0.0643
   42DG      H5  948   2.283   5.276   0.724 -0.4007  2.1342  1.4965
   42DG      H6  949   2.726   5.744   1.317 -2.3355  0.8438 -0.2116
   42DG      H7  950   2.623   5.612   1.359 -1.0017 -0.6279 -0.5570
   42DG      H8  951   2.748   5.588   1.223 -1.2827 -1.1981 -0.5220
   42DG      O9  952   2.365   5.453   0.747  0.6573 -0.4285  0.2323
   42DG     O10  953   2.586   5.699   1.177 -0.6477 -0.5681 -0.0793
   42DG     C11  954   2.462   5.543   0.685  0.5731  0.2748 -0.2293
   42DG     C12  955   2.631   5.787   1.075  0.0165  0.3851 -0.3035
   42DG     H13  956   2.427   5.565   0.584 -0.7706 -0.0288  0.1499
   42DG     H14  957   2.558   5.494   0.673  1.0805  1.6455 -2.2221
   42DG     H15  958   2.727   5.747   1.044 -0.4954 -2.0543  1.0686
   42DG     H16  959   2.658   5.888   1.105  0.3891  0.4016 -0.6934
   42DG     C17  960   2.460   5.677   0.765  0.2455 -0.5970  0.0692
   42DG     C18  961   2.548   5.794   0.951 -0.0162 -0.5307  0.0908
   42DG     O19  962   2.538   5.671   0.879  0.2789  0.5605 -0.2984
   42DG     H20  963   2.364   5.721   0.794  2.2340  2.7005  2.2719
   42DG     H21  964   2.516   5.751   0.708  1.1876 -1.0205  0.4367
   42DG     H22  965   2.453   5.828   0.991  1.0168  2.5005  0.2843
   42DG     H23  966   2.594   5.878   0.897  0.2613 -0.3232  0.6408
   43DG      C1  967   2.844   1.135   5.317  0.0655  0.2939  0.2141
   43DG      C2  968   3.357   1.696   5.313 -0.8455  0.2829  0.6478
   43DG      H3  969   2.878   1.169   5.219  1.4310 -0.3654  0.4396
   43DG      H4  970   2.738   1.106   5.314  0.4791 -1.2560 -0.9098
   43DG      H5  971   2.901   1.043   5.331 -0.0442 -0.0199 -1.2316
   43DG      H6  972   3.327   1.774   5.243  3.2367  0.4311 -1.2553
   43DG      H7  973   3.412   1.747   5.392  1.1934 -2.2725  1.0061
   43DG      H8  974   3.429   1.633   5.261 -1.0536 -0.8858  1.7389
   43DG      O9  975   2.883   1.234   5.409  0.2389 -0.9308 -0.4352
   43DG     O10  976   3.246   1.614   5.358  0.7497 -0.2694  0.2345
   43DG     C11  977   2.804   1.359   5.403 -0.4350 -0.4923 -0.3643
   43DG     C12  978   3.176   1.541   5.257  0.0158  0.5226 -0.7983
   43DG     H13  979   2.706   1.355   5.452 -0.5553  2.4284 -0.1750
   43DG     H14  980   2.773   1.386   5.302  0.8056  1.5181 -0.2737
   43DG     H15  981   3.241   1.480   5.193  0.6480  0.5416 -0.1859
   43DG     H16  982   3.122   1.605   5.187 -0.7814  0.5273 -0.1811
   43DG     C17  983   2.881   1.472   5.479  0.0302  0.8027 -0.0643
   43DG     C18  984   3.070   1.462   5.333  0.0054 -0.5032 -0.0741
   43DG     O19  985   2.973   1.540   5.399 -0.2159 -0.3341 -0.5274
   43DG     H20  986   2.929   1.436   5.570  1.0589  0.2404 -0.8226
   43DG     H21  987   2.808   1.544   5.516  0.3109 -0.7786  4.0720
   43DG     H22  988   3.020   1.399   5.260  1.0729  0.3882 -1.6160
   43DG     H23  989   3.121   1.392   5.400 -0.3646  0.7771  1.6137
   44DG      C1  990   3.494   2.881   4.313  0.3493  0.2531 -0.0177
   44DG      C2  991   3.078   2.413   4.652 -0.1119  0.4049 -0.5492
   44DG      H3  992   3.435   2.944   4.380 -1.4363 -1.9909  0.6776
   44DG      H4  993   3.431   2.859   4.227  0.2139 -0.8049  0.3315
   44DG      H5  994   3.585   2.931   4.281  1.0477 -0.6063  0.5762
   44DG      H6  995   3.099   2.484   4.732  0.6136  1.3050 -1.5139
   44DG      H7  996   3.005   2.474   4.598  1.3715  1.6042 -1.2406
   44DG      H8  997   3.041   2.315   4.685  0.5374  0.6640  1.0325
   44DG      O9  998   3.524   2.770   4.395 -0.1040 -0.1797  0.6972
   44DG     O10  999   3.180   2.412   4.558 -0.6130  0.1725 -0.2263
   44DG     C11 1000   3.588   2.654   4.332 -0.0045 -0.7798  0.4116
   44DG     C12 1001   3.306   2.435   4.615 -0.3890  0.6036  0.3253
   44DG     H13 1002   3.665   2.680   4.260 -1.3445 -0.1329 -0.8445
   44DG     H14 1003   3.513   2.614   4.263  1.8512 -1.1661 -1.4878
   44DG     H15 1004   3.335   2.355   4.683 -2.8063 -0.4954  0.1601
   44DG     H16 1005   3.304   2.515   4.690  0.1113 -0.6356  1.7111
   44DG     C17 1006   3.628   2.537   4.430 -0.1511  0.3024  1.1087
   44DG     C18 1007   3.405   2.466   4.495  0.1589  0.4279 -0.2849
   44DG     O19 1008   3.533   2.511   4.535 -0.2516 -0.2032 -0.2734
   44DG     H20 1009   3.726   2.565   4.469  0.6932  0.9789 -1.3102
   44DG     H21 1010   3.652   2.447   4.374 -0.5310  0.4128  0.7600
   44DG     H22 1011   3.408   2.382   4.425 -1.9826 -0.2825  0.3784
   44DG     H23 1012   3.359   2.541   4.432  0.6187 -1.5277 -3.1323
   45DG      C1 1013   3.009   2.365   2.366 -0.1701  0.5017 -0.7225
   45DG      C2 1014   2.927   1.853   2.074  0.3694  0.4527 -0.0010
   45DG      H3 1015   3.026   2.272   2.313  0.6801  1.9124 -3.0646
   45DG      H4 1016   2.908   2.356   2.406 -1.0674 -2.0431 -3.2603
   45DG      H5 1017   3.076   2.374   2.451 -1.7172  1.4479  0.4585
   45DG      H6 1018   2.944   1.831   1.969  0.1042  1.3835 -0.2472
   45DG      H7 1019   2.992   1.789   2.135  1.4674  0.7599 -0.8125
   45DG      H8 1020   2.826   1.819   2.097  1.5092 -2.8842  0.5974
   45DG      O9 1021   3.039   2.471   2.281 -0.1296  0.5213 -0.3411
   45DG     O10 1022   2.952   1.991   2.082  0.4982 -0.0353  0.0709
   45DG     C11 1023   2.953   2.494   2.173 -0.3770  0.4574 -0.4901
   45DG     C12 1024   2.864   2.056   2.163  0.2357  0.2369  0.1004
   45DG     H13 1025   2.980   2.596   2.144  0.8146  0.4446  0.4796
   45DG     H14 1026   2.852   2.485   2.213  0.1411 -0.3301  0.6917
   45DG     H15 1027   2.910   2.048   2.262  0.9229 -2.5178 -0.3614
   45DG     H16 1028   2.766   2.009   2.161  1.0341 -1.5027 -2.2001
   45DG     C17 1029   2.986   2.403   2.056  0.7159  0.0314 -0.4924
   45DG     C18 1030   2.851   2.209   2.128  0.6160  0.2590  0.2033
   45DG     O19 1031   2.977   2.259   2.089  0.7854 -0.2732  0.3954
   45DG     H20 1032   3.094   2.409   2.045  0.7240 -0.3097 -0.6297
   45DG     H21 1033   2.929   2.433   1.967  0.5548 -0.2964 -0.5019
   45DG     H22 1034   2.797   2.217   2.035  0.3978  0.8473  0.3792
   45DG     H23 1035   2.789   2.267   2.197 -1.2592  1.6890 -2.5406
   46DG      C1 1036   3.897   1.719   4.511 -0.3316 -0.3231 -0.3038
   46DG      C2 1037   4.244   1.159   4.655 -0.2448 -0.7230 -0.2814
   46DG      H3 1038   3.831   1.684   4.431  0.2919 -1.9258 -0.1492
   46DG      H4 1039   3.987   1.755   4.461  1.4597 -2.0654  1.5093
   46DG      H5 1040   3.851   1.809   4.554  3.3819  1.9640 -0.6751
   46DG      H6 1041   4.329   1.159   4.723 -2.1444  0.6513  2.2793
   46DG      H7 1042   4.237   1.055   4.623 -0.0975 -0.5702 -0.8164
   46DG      H8 1043   4.262   1.232   4.576 -0.2181  0.8171  1.0889
   46DG      O9 1044   3.918   1.610   4.605 -0.4955 -0.0666  0.3288
   46DG     O10 1045   4.124   1.203   4.720  0.1918  0.9038  0.4524
   46DG     C11 1046   3.793   1.568   4.669 -0.0015 -0.2336  0.5562
   46DG     C12 1047   4.001   1.152   4.669 -0.3590 -0.0821 -0.5501
   46DG     H13 1048   3.728   1.542   4.586  2.2086 -1.3234 -0.9428
   46DG     H14 1049   3.751   1.653   4.722  0.0204  0.4618 -0.5003
   46DG     H15 1050   3.990   1.044   4.681 -1.0575  0.0330 -0.1039
   46DG     H16 1051   3.987   1.166   4.561  1.6879  0.9306 -0.7230
   46DG     C17 1052   3.817   1.454   4.761 -0.3961  0.1482 -0.0974
   46DG     C18 1053   3.893   1.227   4.746 -0.5568  0.0412 -0.3038
   46DG     O19 1054   3.901   1.363   4.701 -0.6423  0.6271 -0.2092
   46DG     H20 1055   3.729   1.398   4.793 -0.8130  0.2952 -0.9359
   46DG     H21 1056   3.877   1.483   4.847  0.5106 -0.2330 -0.5869
   46DG     H22 1057   3.794   1.186   4.726 -0.9294  1.5229 -1.7640
   46DG     H23 1058   3.921   1.217   4.851  1.8533  0.8359 -0.8078
   47DG      C1 1059   4.510   1.088   1.950  0.4781 -0.1059 -0.9557
   47DG      C2 1060   4.654   0.437   2.049  1.0202 -0.1026  0.0534
   47DG      H3 1061   4.475   1.055   1.853 -0.1484  0.6621 -0.9993
   47DG      H4 1062   4.606   1.138   1.933  0.2971  0.7853  0.4888
   47DG      H5 1063   4.437   1.161   1.984  1.0347 -1.6484  4.6956
   47DG      H6 1064   4.757   0.456   2.020  0.8083 -0.0037 -0.6582
   47DG      H7 1065   4.644   0.351   2.114  0.9611  0.3597  0.6678
   47DG      H8 1066   4.608   0.406   1.955  1.8627 -1.7425  0.1617
   47DG      O9 1067   4.511   0.984   2.044 -0.2563  0.2779 -0.0037
   47DG     O10 1068   4.587   0.546   2.118 -0.0184  0.0753  0.4040
   47DG     C11 1069   4.551   1.016   2.172  0.0373 -0.2886 -0.0004
   47DG     C12 1070   4.660   0.569   2.241  0.4148 -0.8460  0.5193
   47DG     H13 1071   4.500   1.107   2.201  2.0949  1.1660 -0.7144
   47DG     H14 1072   4.657   1.040   2.163 -0.1205  0.7310  0.7799
   47DG     H15 1073   4.760   0.594   2.206  0.3604 -0.1841  0.8260
   47DG     H16 1074   4.668   0.483   2.308  0.7608 -0.6272  0.7610
   47DG     C17 1075   4.518   0.901   2.269 -0.0524  0.3365  0.4329
   47DG     C18 1076   4.594   0.688   2.316  0.2127 -0.1872  0.4691
   47DG     O19 1077   4.605   0.798   2.232 -0.6959  0.2633 -0.0630
   47DG     H20 1078   4.414   0.871   2.258 -0.0202  0.4441 -0.2081
   47DG     H21 1079   4.531   0.919   2.376  1.9220 -3.3863  0.9882
   47DG     H22 1080   4.494   0.648   2.334  0.4720 -2.2015 -1.9154
   47DG     H23 1081   4.644   0.703   2.411  0.1496 -0.0657  0.4839
   48DG      C1 1082   4.986   5.402   1.090  0.1986 -0.0607 -0.1041
   48DG      C2 1083   5.333   5.771   0.715 -0.1118  0.4922 -0.1768
   48DG      H3 1084   5.011   5.465   1.176  1.0595 -1.1554  0.4680
   48DG      H4 1085   4.972   5.314   1.153  1.3276 -0.1105  0.1057
   48DG      H5 1086   4.885   5.420   1.056 -0.6934 -1.9712  1.3280
   48DG      H6 1087   5.257   5.842   0.746 -0.4806  0.0883 -0.1512
   48DG      H7 1088   5.421   5.816   0.762 -0.8365  2.9939 -1.0097
   48DG      H8 1089   5.361   5.796   0.612  0.4979  1.5844  0.2340
   48DG      O9 1090   5.091   5.393   0.995  0.0328  0.8545  0.3063
   48DG     O10 1091   5.307   5.638   0.750  0.0973  0.6982 -0.5071
   48DG     C11 1092   5.196   5.311   1.024 -1.3551 -0.9005  0.4516
   48DG     C12 1093   5.423   5.557   0.737 -0.6441 -0.1066 -0.0946
   48DG     H13 1094   5.155   5.220   0.980 -2.6953  1.0869 -2.7441
   48DG     H14 1095   5.232   5.301   1.126 -0.9885 -0.8257  0.3334
   48DG     H15 1096   5.489   5.584   0.819  1.0430 -2.7322 -0.4889
   48DG     H16 1097   5.470   5.590   0.644  0.1828 -0.7029  0.1050
   48DG     C17 1098   5.322   5.358   0.950  0.3122  0.5608 -0.2474
   48DG     C18 1099   5.409   5.409   0.736  0.6280  0.1795 -0.2430
   48DG     O19 1100   5.296   5.365   0.808  0.4836 -0.1350 -0.3268
   48DG     H20 1101   5.402   5.285   0.961 -0.4807 -0.4578 -0.9687
   48DG     H21 1102   5.354   5.454   0.988 -1.2209  1.1800 -0.4417
   48DG     H22 1103   5.379   5.370   0.639  1.5574 -1.2186  0.0007
   48DG     H23 1104   5.499   5.351   0.756  1.3919  0.7461 -1.9039
   49DG      C1 1105   2.287   2.225   3.255  0.7017 -0.7339 -0.6259
   49DG      C2 1106   2.121   2.862   3.222 -0.1919  0.1259  0.1573
   49DG      H3 1107   2.229   2.141   3.291 -1.6795  0.7682 -0.7680
   49DG      H4 1108   2.393   2.203   3.273  1.3691  1.8850 -0.9603
   49DG      H5 1109   2.277   2.223   3.146  0.0431  1.7222 -0.6621
   49DG      H6 1110   2.077   2.839   3.125 -1.3678  0.0252  0.6947
   49DG      H7 1111   2.047   2.822   3.291 -1.6359  2.8610  0.3117
   49DG      H8 1112   2.118   2.971   3.230  0.0798  0.1375  0.1112
   49DG      O9 1113   2.254   2.352   3.306 -0.0140 -0.0463 -0.4070
   49DG     O10 1114   2.247   2.802   3.242 -0.4809  0.5713  0.3124
   49DG     C11 1115   2.292   2.365   3.439 -0.6087  0.3739 -1.1333
   49DG     C12 1116   2.305   2.834   3.365  0.0846 -0.3245 -0.1977
   49DG     H13 1117   2.400   2.360   3.451 -0.5230  3.5815  0.5002
   49DG     H14 1118   2.251   2.288   3.505  0.0834  0.2796 -0.8053
   49DG     H15 1119   2.284   2.937   3.395 -0.7282 -0.0140 -1.7198
   49DG     H16 1120   2.414   2.834   3.367  0.0730 -0.9675  1.7892
   49DG     C17 1121   2.252   2.502   3.497 -0.0520  0.0070 -0.1950
   49DG     C18 1122   2.270   2.734   3.470  0.2204  0.4386  0.8065
   49DG     O19 1123   2.301   2.606   3.415 -0.7264  0.3156 -0.4326
   49DG     H20 1124   2.289   2.501   3.600 -0.8792  0.6488  0.1220
   49DG     H21 1125   2.143   2.510   3.502 -0.1844 -0.9595 -1.2582
   49DG     H22 1126   2.330   2.763   3.556  0.7149 -1.5065  1.1796
   49DG     H23 1127   2.163   2.745   3.485  0.2330  0.2339  1.0527
   50DG      C1 1128   1.404   3.309   3.044  0.7419 -0.7371  0.1354
   50DG      C2 1129   1.463   2.698   2.683 -0.6918  0.1024  0.1903
   50DG      H3 1130   1.429   3.243   3.127  1.2449 -0.4304  0.2308
   50DG      H4 1131   1.299   3.335   3.055  0.5169 -2.4865  3.2671
   50DG      H5 1132   1.463   3.400   3.055  1.3803 -0.9484 -1.2245
   50DG      H6 1133   1.566   2.728   2.704 -0.3600 -0.8541 -0.0372
   50DG      H7 1134   1.436   2.610   2.741  0.6321 -0.8338 -0.5715
   50DG      H8 1135   1.467   2.659   2.581 -0.5949  0.9247 -0.1276
   50DG      O9 1136   1.420   3.250   2.917 -0.8265 -0.0310  0.4496
   50DG     O10 1137   1.359   2.796   2.684 -0.5506  0.1278 -0.3517
   50DG     C11 1138   1.554   3.194   2.910 -0.8022  0.3731 -0.1531
   50DG     C12 1139   1.368   2.898   2.585  0.8169  0.4302  0.3220
   50DG     H13 1140   1.548   3.117   2.987 -3.2407 -0.4951 -1.1110
   50DG     H14 1141   1.641   3.257   2.929  1.1664 -1.6746 -1.7846
   50DG     H15 1142   1.274   2.953   2.580 -0.2074 -1.1640  1.0093
   50DG     H16 1143   1.376   2.845   2.490 -0.8800 -0.8646  0.8448
   50DG     C17 1144   1.579   3.130   2.777 -0.5245 -1.0941  0.3353
   50DG     C18 1145   1.482   2.992   2.612 -0.1579  0.2550 -0.7127
   50DG     O19 1146   1.466   3.050   2.740 -0.2592  0.3208  0.4526
   50DG     H20 1147   1.665   3.063   2.775  0.9941  0.7581 -2.4721
   50DG     H21 1148   1.594   3.207   2.703 -0.1271  0.8071  2.3007
   50DG     H22 1149   1.570   2.927   2.606 -1.3905 -1.7602  1.4435
   50DG     H23 1150   1.476   3.059   2.526 -1.0795 -1.8039 -2.3421
   51DG      C1 1151   4.474   1.240   4.025 -0.0548  0.1241 -0.6413
   51DG      C2 1152   4.462   0.983   3.467  0.3501 -0.2688 -0.4576
   51DG      H3 1153   4.396   1.164   4.015  0.0051 -0.0915  0.4174
   51DG      H4 1154   4.455   1.283   4.123 -2.3837 -0.0737 -0.9506
   51DG      H5 1155   4.575   1.202   4.038 -0.3253  0.1191  2.1028
   51DG      H6 1156   4.560   0.952   3.503  0.1305  1.1319  1.5269
   51DG      H7 1157   4.407   0.902   3.421 -1.6423 -1.0548  2.9048
   51DG      H8 1158   4.494   1.051   3.388 -0.4674  0.4951 -0.1451
   51DG      O9 1159   4.453   1.345   3.935  0.6382  0.6293  0.1694
   51DG     O10 1160   4.400   1.056   3.573  0.0530 -0.5802  0.2709
   51DG     C11 1161   4.315   1.386   3.929 -0.4377  0.4513 -0.2334
   51DG     C12 1162   4.293   1.141   3.534  0.1533  0.1167  0.3342
   51DG     H13 1163   4.292   1.477   3.875 -0.7280  0.4671 -0.0815
   51DG     H14 1164   4.269   1.400   4.027 -0.2259  2.5022 -0.3903
   51DG     H15 1165   4.237   1.101   3.449  0.9875  1.0594 -0.7030
   51DG     H16 1166   4.345   1.230   3.498  0.7393  0.4221  1.8649
   51DG     C17 1167   4.230   1.276   3.861 -0.4423  0.3593  0.3679
   51DG     C18 1168   4.206   1.175   3.650  0.2683 -0.1177 -0.1219
   51DG     O19 1169   4.296   1.235   3.740  0.2304 -0.4175 -0.3221
   51DG     H20 1170   4.134   1.321   3.835  0.6566  0.8520 -3.5290
   51DG     H21 1171   4.199   1.190   3.920  0.7732  1.6174  3.0063
   51DG     H22 1172   4.121   1.237   3.622  0.2386 -0.6276 -1.1875
   51DG     H23 1173   4.164   1.086   3.696 -0.2488 -0.7272 -1.7230
   52DG      C1 1174   4.695   4.601   0.990 -0.4093  0.0362  0.6221
   52DG      C2 1175   5.321   4.230   0.830  0.0589  0.6816 -0.7006
   52DG      H3 1176   4.644   4.504   0.994  1.5492 -1.1971 -1.6875
   52DG      H4 1177   4.685   4.633   0.886 -3.9492  0.5311  0.9908
   52DG      H5 1178   4.630   4.668   1.046 -3.0325 -1.7070 -0.1344
   52DG      H6 1179   5.335   4.122   0.822  0.4805  0.7711 -1.2169
   52DG      H7 1180   5.274   4.264   0.738 -0.1376  0.8173 -0.5492
   52DG      H8 1181   5.421   4.273   0.829  0.6238 -0.5782 -1.3169
   52DG      O9 1182   4.835   4.581   1.025  0.5969  0.3481  0.5312
   52DG     O10 1183   5.246   4.266   0.950 -0.2971 -0.1155 -0.4661
   52DG     C11 1184   4.852   4.552   1.160  0.3770  0.6009  0.5833
   52DG     C12 1185   5.270   4.403   0.986  0.7364 -0.5339  0.0454
   52DG     H13 1186   4.800   4.459   1.178 -1.7435  1.6945  0.4496
   52DG     H14 1187   4.801   4.633   1.212 -3.1662  0.0156 -1.6324
   52DG     H15 1188   5.264   4.475   0.905  1.1673  0.0168  0.4960
   52DG     H16 1189   5.376   4.404   1.010  0.3645 -1.1679  1.8635
   52DG     C17 1190   4.997   4.535   1.190 -0.5262 -0.1848  0.3228
   52DG     C18 1191   5.196   4.456   1.109  0.4965 -0.0148  0.4279
   52DG     O19 1192   5.055   4.467   1.088  0.3600  0.5528  0.2340
   52DG     H20 1193   5.018   4.487   1.285  0.3672 -0.8901 -0.2164
   52DG     H21 1194   5.045   4.633   1.197 -0.8374  0.0362 -0.5086
   52DG     H22 1195   5.222   4.400   1.199 -0.7010 -0.1025  0.7309
   52DG     H23 1196   5.231   4.558   1.125  0.5842  0.0935 -0.4297
   53DG      C1 1197   2.624   2.773   2.216 -0.3893 -0.4441 -0.3535
   53DG      C2 1198   1.981   2.956   2.260 -0.3857 -0.4024  0.5033
   53DG      H3 1199   2.688   2.859   2.199  0.2004 -0.9433 -0.6896
   53DG      H4 1200   2.580   2.742   2.121  1.3958  0.2488 -1.4622
   53DG      H5 1201   2.696   2.696   2.242  1.7319  1.3298 -0.6662
   53DG      H6 1202   2.011   3.014   2.173  0.7939 -0.5062  0.8231
   53DG      H7 1203   1.924   2.875   2.216 -0.0095  0.4371 -1.6633
   53DG      H8 1204   1.921   3.026   2.317  1.0958  1.0689  0.3361
   53DG      O9 1205   2.526   2.796   2.319  0.1446 -0.0956 -0.0510
   53DG     O10 1206   2.091   2.895   2.335  0.6538  0.1486 -0.2368
   53DG     C11 1207   2.487   2.672   2.375 -0.0753  0.4811  0.1266
   53DG     C12 1208   2.051   2.798   2.435 -0.5358  0.5402 -0.4747
   53DG     H13 1209   2.568   2.613   2.419 -0.9259 -0.8787 -0.0566
   53DG     H14 1210   2.439   2.614   2.296  1.5783  0.1384 -0.6736
   53DG     H15 1211   2.021   2.706   2.385 -0.4811  0.2935 -0.0638
   53DG     H16 1212   1.967   2.833   2.494 -0.0936  1.3888 -0.3303
   53DG     C17 1213   2.397   2.703   2.487  0.4639  1.0565  0.3997
   53DG     C18 1214   2.177   2.770   2.518  0.2939 -0.1095 -0.4258
   53DG     O19 1215   2.282   2.753   2.424  0.0500 -0.3340 -0.0045
   53DG     H20 1216   2.424   2.781   2.557 -2.3471  2.3059  0.2311
   53DG     H21 1217   2.376   2.613   2.545  2.4889  1.0157  1.1148
   53DG     H22 1218   2.193   2.863   2.573 -0.8942  0.9034 -1.7111
   53DG     H23 1219   2.168   2.701   2.602  1.0556  1.2635  0.8391
   54DG      C1 1220   0.202   2.393   1.598  0.0359  0.7199  1.0941
   54DG      C2 1221  -0.510   2.807   1.267  0.1072  0.0395  0.2895
   54DG      H3 1222   0.224   2.345   1.502  0.2218  0.3948  1.2957
   54DG      H4 1223   0.217   2.321   1.678 -1.7650 -2.5238 -1.2389
   54DG      H5 1224   0.276   2.473   1.600  1.0484 -0.0842 -0.8789
   54DG      H6 1225  -0.474   2.849   1.173  0.9210 -0.3893  0.4011
   54DG      H7 1226  -0.587   2.730   1.258  0.8201 -0.5227 -1.3518
   54DG      H8 1227  -0.548   2.889   1.327  2.0030 -0.3809  2.2027
   54DG      O9 1228   0.073   2.450   1.620  0.1876  0.2370 -0.3166
   54DG     O10 1229  -0.397   2.744   1.332  0.3753 -0.0360  0.2197
   54DG     C11 1230   0.031   2.514   1.503  0.1514  0.1453 -0.3668
   54DG     C12 1231  -0.296   2.679   1.251  0.6701 -1.0978 -0.3175
   54DG     H13 1232   0.015   2.444   1.421  0.8004  0.2774 -0.6069
   54DG     H14 1233   0.090   2.600   1.472 -0.9316  1.0431 -0.0109
   54DG     H15 1234  -0.225   2.757   1.221  1.1151 -1.8628 -1.3380
   54DG     H16 1235  -0.348   2.636   1.165 -3.0930 -0.1918  1.2856
   54DG     C17 1236  -0.108   2.552   1.537 -0.2110  0.3081  0.0121
   54DG     C18 1237  -0.221   2.583   1.338 -0.5082  0.0726  0.4235
   54DG     O19 1238  -0.158   2.652   1.445  0.3501  0.6444  0.4932
   54DG     H20 1239  -0.120   2.613   1.627 -2.5615 -2.8682  2.1001
   54DG     H21 1240  -0.172   2.470   1.569  1.2818 -0.7107  0.4849
   54DG     H22 1241  -0.286   2.502   1.372 -0.9816  0.9818  1.7428
   54DG     H23 1242  -0.158   2.515   1.280 -1.6096 -0.1564 -0.5346
   55DG      C1 1243   4.533   2.460   1.703 -0.2764  0.0934  0.4359
   55DG      C2 1244   4.377   2.920   2.341 -0.6380  0.0765 -0.7603
   55DG      H3 1245   4.483   2.385   1.764 -0.8779 -0.6625 -0.9368
   55DG      H4 1246   4.639   2.435   1.694 -0.3791  0.3719 -2.8030
   55DG      H5 1247   4.480   2.465   1.608 -3.6758  1.0022  2.2216
   55DG      H6 1248   4.441   3.008   2.351 -0.9566  0.3380 -1.0097
   55DG      H7 1249   4.276   2.961   2.347 -0.2116  1.1824 -0.8735
   55DG      H8 1250   4.384   2.858   2.431 -0.4583 -0.5105 -1.1732
   55DG      O9 1251   4.522   2.591   1.751 -0.7468  0.3904 -0.1488
   55DG     O10 1252   4.414   2.857   2.222 -0.2954  0.1298  0.6621
   55DG     C11 1253   4.607   2.634   1.860  0.5096 -0.2972 -0.1347
   55DG     C12 1254   4.418   2.944   2.114 -0.0320  0.7861 -0.1454
   55DG     H13 1255   4.709   2.641   1.824  0.2428  1.5676 -0.6298
   55DG     H14 1256   4.605   2.550   1.930  1.4786  0.6956  1.1303
   55DG     H15 1257   4.523   2.969   2.101  0.7940 -2.3060 -0.1706
   55DG     H16 1258   4.351   3.030   2.128 -2.4670 -0.7713 -1.4500
   55DG     C17 1259   4.566   2.761   1.934 -0.5282 -0.5593 -0.4219
   55DG     C18 1260   4.368   2.869   1.992  0.0919 -0.3799 -0.1501
   55DG     O19 1261   4.434   2.746   1.974  0.0057  0.1521 -0.2785
   55DG     H20 1262   4.560   2.841   1.860 -0.6342 -0.4049 -0.2461
   55DG     H21 1263   4.638   2.784   2.012  0.5120 -2.6591 -0.6885
   55DG     H22 1264   4.266   2.842   2.019 -0.7680  2.5038 -0.2768
   55DG     H23 1265   4.364   2.917   1.894  2.0492  0.2587  0.0310
   56DG      C1 1266   2.659   1.603   3.780 -0.1315  0.1070  0.7531
   56DG      C2 1267   2.924   2.254   3.413  0.1168  0.0535 -0.2882
   56DG      H3 1268   2.709   1.541   3.854  2.4539  1.6985  0.4908
   56DG      H4 1269   2.671   1.567   3.678  0.4296  0.3088  0.7443
   56DG      H5 1270   2.552   1.612   3.802 -0.5510 -1.3073 -0.5862
   56DG      H6 1271   2.841   2.278   3.347  1.2896 -0.1728 -1.9305
   56DG      H7 1272   2.952   2.353   3.449 -0.5099  0.3742 -0.6859
   56DG      H8 1273   3.002   2.209   3.351  0.2258  0.5740 -0.5283
   56DG      O9 1274   2.725   1.733   3.767  0.3075  0.5815 -1.5856
   56DG     O10 1275   2.892   2.173   3.526 -0.3094  0.0500  0.1319
   56DG     C11 1276   2.699   1.835   3.866  0.0063  0.0538  0.5537
   56DG     C12 1277   2.749   2.153   3.549 -0.0563  0.2184  0.3609
   56DG     H13 1278   2.715   1.786   3.963  0.9535 -0.6654  0.0444
   56DG     H14 1279   2.592   1.853   3.873  0.2261  1.2361  1.0866
   56DG     H15 1280   2.703   2.080   3.482  1.2254  1.4926 -2.0278
   56DG     H16 1281   2.691   2.245   3.542  1.3474  1.1785  1.0944
   56DG     C17 1282   2.782   1.958   3.861  0.3131 -0.0375  0.5410
   56DG     C18 1283   2.727   2.113   3.699 -0.1240  0.6472  0.1615
   56DG     O19 1284   2.800   1.993   3.728  0.3773 -0.2892  0.0144
   56DG     H20 1285   2.877   1.923   3.901  0.4938 -0.7628 -0.4855
   56DG     H21 1286   2.754   2.039   3.928  0.1038  0.0929  0.2979
   56DG     H22 1287   2.756   2.201   3.756  0.3351  1.7824 -1.7507
   56DG     H23 1288   2.619   2.111   3.717  0.0776 -1.3560  1.4442
   57DG      C1 1289   1.989   2.551   1.104 -0.3205 -0.3350 -1.4608
   57DG      C2 1290   1.492   1.962   0.879  0.3688  0.5388  0.0051
   57DG      H3 1291   2.014   2.623   1.183 -0.6830  1.0381 -2.5516
   57DG      H4 1292   2.046   2.587   1.019  0.3223 -0.4344 -1.0735
   57DG      H5 1293   2.034   2.457   1.136  1.3122  0.7652 -0.3797
   57DG      H6 1294   1.396   1.955   0.829 -0.4066 -2.7416  1.6572
   57DG      H7 1295   1.573   1.974   0.807 -2.0258  0.5899 -2.8722
   57DG      H8 1296   1.505   1.870   0.936 -2.2772  0.1897  0.1800
   57DG      O9 1297   1.853   2.531   1.067  0.5375 -0.1875 -0.1452
   57DG     O10 1298   1.500   2.082   0.969  0.2166  0.1674  0.1693
   57DG     C11 1299   1.769   2.484   1.179 -0.0194  0.0648  0.3786
   57DG     C12 1300   1.477   2.206   0.907  0.2869 -0.0569  0.1056
   57DG     H13 1301   1.757   2.558   1.258 -1.7000  0.0736  0.1437
   57DG     H14 1302   1.800   2.393   1.230 -2.0126 -0.2541  1.1261
   57DG     H15 1303   1.376   2.210   0.864  0.5672  0.7668 -0.5189
   57DG     H16 1304   1.549   2.212   0.825 -0.1813  0.7488 -0.2604
   57DG     C17 1305   1.630   2.463   1.132 -0.6789  0.3281  0.6196
   57DG     C18 1306   1.496   2.316   1.009 -0.2931 -0.1876  0.0645
   57DG     O19 1307   1.630   2.351   1.047 -0.3798 -0.6330 -0.0249
   57DG     H20 1308   1.614   2.554   1.075  0.7648 -0.9330 -2.0056
   57DG     H21 1309   1.563   2.456   1.218 -0.8260  2.8635  0.7675
   57DG     H22 1310   1.450   2.400   0.956 -0.3857  0.5682  1.3129
   57DG     H23 1311   1.429   2.311   1.095 -0.4536  1.9159  0.1168
   58DG      C1 1312   5.422   1.941   2.140 -0.6706 -0.5686  0.1093
   58DG      C2 1313   5.734   1.396   1.784  1.5708  1.3391 -0.7273
   58DG      H3 1314   5.336   1.939   2.207  0.4642  1.9631  1.8080
   58DG      H4 1315   5.435   2.032   2.082  0.1276 -0.6433  0.1633
   58DG      H5 1316   5.511   1.943   2.202 -0.2789  1.9518 -0.4586
   58DG      H6 1317   5.799   1.445   1.712  1.6787 -1.4852 -2.7117
   58DG      H7 1318   5.793   1.381   1.874  0.0117  1.1342  0.3008
   58DG      H8 1319   5.693   1.304   1.741 -0.9571  2.5154 -1.0260
   58DG      O9 1320   5.424   1.823   2.066 -0.3100  0.4155  0.4916
   58DG     O10 1321   5.624   1.469   1.831 -0.8427  0.3867  0.2572
   58DG     C11 1322   5.308   1.810   1.989 -0.0839 -0.1258  0.1344
   58DG     C12 1323   5.532   1.493   1.731 -0.3633 -0.2841 -0.6608
   58DG     H13 1324   5.335   1.865   1.899  0.0821  2.8321  1.8365
   58DG     H14 1325   5.215   1.847   2.033  0.2909  2.7734 -1.2335
   58DG     H15 1326   5.520   1.407   1.664 -0.1138 -1.1371  0.3650
   58DG     H16 1327   5.572   1.579   1.679 -0.5709  0.9219  1.1055
   58DG     C17 1328   5.282   1.661   1.940  0.1431 -0.2183  0.1755
   58DG     C18 1329   5.394   1.524   1.783  0.0480  0.4651 -0.0667
   58DG     O19 1330   5.399   1.619   1.886  0.5618  0.3978  0.2451
   58DG     H20 1331   5.198   1.661   1.870 -1.6361  0.7007  2.2295
   58DG     H21 1332   5.249   1.607   2.029  0.1071  1.2521  1.0766
   58DG     H22 1333   5.348   1.569   1.694  0.5940  3.1740  0.9135
   58DG     H23 1334   5.355   1.427   1.814 -1.1783  1.3246  1.1977
   59DG      C1 1335   3.609   2.198   3.103  0.4143  0.5426  0.3461
   59DG      C2 1336   3.583   1.715   2.690  0.4908  0.5544  0.3769
   59DG      H3 1337   3.664   2.268   3.166 -0.1091  1.9483 -0.6974
   59DG      H4 1338   3.528   2.147   3.156  2.6855 -2.2739  1.3465
   59DG      H5 1339   3.572   2.254   3.017  0.0401  0.8595  0.7076
   59DG      H6 1340   3.648   1.629   2.671 -0.4064  0.1223 -0.8497
   59DG      H7 1341   3.499   1.673   2.746  0.3871 -0.9746 -0.8490
   59DG      H8 1342   3.548   1.752   2.594  0.1010  0.1432  0.3549
   59DG      O9 1343   3.701   2.095   3.057 -0.6786 -0.1448  0.3421
   59DG     O10 1344   3.649   1.808   2.758  0.2429 -0.6045 -0.1512
   59DG     C11 1345   3.815   2.162   2.998 -0.0016  0.2394  0.2967
   59DG     C12 1346   3.752   1.873   2.678 -0.7022 -0.2975  0.3365
   59DG     H13 1347   3.850   2.227   3.078 -0.0574 -2.0741  2.2989
   59DG     H14 1348   3.782   2.228   2.917 -0.1389  1.8051  1.5859
   59DG     H15 1349   3.719   1.888   2.575  1.9845  3.1790 -0.1849
   59DG     H16 1350   3.829   1.796   2.673 -0.1957  0.3013 -1.8534
   59DG     C17 1351   3.914   2.057   2.944 -0.0956 -0.0203 -0.2755
   59DG     C18 1352   3.806   2.002   2.744  0.5554 -0.0886 -0.8551
   59DG     O19 1353   3.857   1.954   2.867  0.2592 -0.1177 -0.2810
   59DG     H20 1354   3.982   2.016   3.018  1.8286  1.4938 -1.0943
   59DG     H21 1355   3.984   2.107   2.877 -0.8511  0.9442 -0.3579
   59DG     H22 1356   3.884   2.053   2.689  0.8759  0.3424 -0.0154
   59DG     H23 1357   3.721   2.066   2.769  1.3515  0.6780 -0.0668
   60DG      C1 1358   1.139   2.107   0.183 -0.6185 -0.2164  0.4401
   60DG      C2 1359   0.676   1.741  -0.027  1.4861  0.0694  0.3744
   60DG      H3 1360   1.127   2.031   0.261 -1.2594 -1.8779 -1.2099
   60DG      H4 1361   1.119   2.203   0.231 -2.1551 -0.3102  0.0489
   60DG      H5 1362   1.241   2.115   0.146  0.2035  0.6237  2.6948
   60DG      H6 1363   0.670   1.827   0.040 -0.4401 -0.0021  0.3339
   60DG      H7 1364   0.584   1.728  -0.083 -0.2880  3.3366  2.2112
   60DG      H8 1365   0.686   1.653   0.037  1.2883 -0.3956 -0.2225
   60DG      O9 1366   1.040   2.090   0.086  0.1443  0.5131 -0.2933
   60DG     O10 1367   0.786   1.757  -0.119  0.5103 -0.4277  0.3321
   60DG     C11 1368   1.041   2.192  -0.012  0.2055 -0.0023 -0.3870
   60DG     C12 1369   0.771   1.840  -0.226 -0.3449  0.1163  0.6144
   60DG     H13 1370   1.137   2.167  -0.058  1.6428 -0.0443  2.4392
   60DG     H14 1371   1.034   2.285   0.043  1.2321  1.4386 -2.5392
   60DG     H15 1372   0.676   1.829  -0.277 -0.5306  0.5474  0.8601
   60DG     H16 1373   0.844   1.811  -0.301 -0.0093 -1.9088  1.6402
   60DG     C17 1374   0.938   2.160  -0.119 -0.6674  0.2906  0.1837
   60DG     C18 1375   0.793   1.988  -0.202 -0.6579 -0.4104  0.0117
   60DG     O19 1376   0.924   2.022  -0.136  0.5746  0.9808  0.2284
   60DG     H20 1377   0.950   2.226  -0.205 -0.7454  0.6682  0.4580
   60DG     H21 1378   0.849   2.198  -0.068 -2.7160 -3.0893 -0.6011
   60DG     H22 1379   0.788   2.034  -0.301 -0.5783  0.3914  0.3771
   60DG     H23 1380   0.713   2.014  -0.134  0.4365 -0.2746  1.2813
   61DG      C1 1381   2.733   5.440   0.977 -0.3092 -0.7996  0.2092
   61DG      C2 1382   2.841   4.837   1.259 -0.4472 -0.4249 -0.5426
   61DG      H3 1383   2.777   5.537   0.953 -0.0200 -1.0305 -0.2066
   61DG      H4 1384   2.692   5.441   1.078 -0.8584 -0.9284 -0.0098
   61DG      H5 1385   2.644   5.418   0.918 -0.2346  0.5558 -0.4473
   61DG      H6 1386   2.756   4.772   1.240 -2.6811  1.1208  3.2540
   61DG      H7 1387   2.930   4.777   1.279 -0.8084 -0.5336  0.7825
   61DG      H8 1388   2.822   4.905   1.342  1.7071  1.0136 -1.1157
   61DG      O9 1389   2.825   5.336   0.967  0.3211  0.0948 -0.2088
   61DG     O10 1390   2.857   4.921   1.151  0.1761 -0.3602 -0.5142
   61DG     C11 1391   2.844   5.291   0.835 -0.0883  0.1206  0.2546
   61DG     C12 1392   2.850   4.854   1.032  0.4981 -0.0090  0.2834
   61DG     H13 1393   2.901   5.362   0.775 -0.2150 -1.3625 -1.7466
   61DG     H14 1394   2.752   5.271   0.780  0.9311  1.3660 -2.0745
   61DG     H15 1395   2.744   4.837   1.011 -0.4190 -0.2225  4.2913
   61DG     H16 1396   2.905   4.760   1.034  1.4255  0.3559 -2.5465
   61DG     C17 1397   2.920   5.160   0.844 -0.7257 -0.8122  0.1112
   61DG     C18 1398   2.903   4.940   0.909 -0.5476  0.1457 -0.2775
   61DG     O19 1399   2.836   5.065   0.908  0.4389 -0.0257  0.6155
   61DG     H20 1400   3.017   5.170   0.892 -0.6446  0.8888 -0.3404
   61DG     H21 1401   2.951   5.125   0.745 -1.0417 -0.4384 -0.1240
   61DG     H22 1402   3.010   4.951   0.931 -0.5171  4.2041 -1.7305
   61DG     H23 1403   2.883   4.886   0.816  0.8901  1.0034 -1.1197
   62DG      C1 1404   4.495   3.546   2.651  0.0798  0.0024  0.6554
   62DG      C2 1405   5.337   3.426   2.872  0.3911 -0.3585  0.2734
   62DG      H3 1406   4.488   3.487   2.560 -2.1563  1.2628 -0.0692
   62DG      H4 1407   4.530   3.647   2.632 -0.2057  0.3080  1.6634
   62DG      H5 1408   4.396   3.544   2.698  0.9559 -0.1874  2.5703
   62DG      H6 1409   5.405   3.384   2.798  0.7737 -1.0370  0.9948
   62DG      H7 1410   5.382   3.516   2.915  2.4777 -0.6572 -1.1491
   62DG      H8 1411   5.334   3.361   2.959  1.2823  1.2398  1.5634
   62DG      O9 1412   4.592   3.493   2.735 -0.1669  0.1904 -0.1690
   62DG     O10 1413   5.212   3.432   2.822 -0.1206 -0.0305  0.0072
   62DG     C11 1414   4.728   3.486   2.687  0.2245  0.2453  0.6063
   62DG     C12 1415   5.169   3.300   2.780  0.0674 -1.2211 -0.4328
   62DG     H13 1416   4.782   3.580   2.699  0.5864  0.2587 -0.9337
   62DG     H14 1417   4.735   3.469   2.580  0.4729  0.9641  0.4975
   62DG     H15 1418   5.216   3.213   2.826 -0.9557 -0.4769  2.2137
   62DG     H16 1419   5.182   3.285   2.672 -0.3891  0.2614 -0.7116
   62DG     C17 1420   4.806   3.381   2.771 -0.3591 -0.4071  0.2469
   62DG     C18 1421   5.023   3.287   2.812  0.9494  0.0502 -0.5581
   62DG     O19 1422   4.939   3.382   2.735 -0.3416  0.1172  0.2237
   62DG     H20 1423   4.760   3.283   2.753  0.2806 -0.8771  1.1374
   62DG     H21 1424   4.793   3.389   2.879 -2.0253 -0.6774  0.0940
   62DG     H22 1425   4.983   3.188   2.788  0.4750  0.1546 -0.2152
   62DG     H23 1426   5.007   3.302   2.918 -1.9965 -0.5822 -0.8111
   63DG      C1 1427   3.547   3.182   3.676 -0.2318 -0.0247 -0.2432
   63DG      C2 1428   4.083   3.336   4.109 -0.6589  0.0216 -0.3136
   63DG      H3 1429   3.590   3.265   3.621  0.1537 -0.0195  0.0626
   63DG      H4 1430   3.439   3.179   3.660 -0.5811 -1.8733  1.9783
   63DG      H5 1431   3.585   3.087   3.639 -0.3573 -0.0016 -0.4357
   63DG      H6 1432   4.101   3.347   4.216 -2.0435 -1.6490  0.1350
   63DG      H7 1433   4.054   3.234   4.084 -0.3021 -0.1904  0.1022
   63DG      H8 1434   4.179   3.362   4.065  0.1520 -0.3512  1.1548
   63DG      O9 1435   3.569   3.193   3.812  0.8368 -0.6196  0.6146
   63DG     O10 1436   3.977   3.417   4.063 -0.0342  0.0536 -0.0299
   63DG     C11 1437   3.506   3.308   3.875 -0.0579 -0.7163  0.5183
   63DG     C12 1438   3.972   3.442   3.921  0.2950 -0.1721 -1.0247
   63DG     H13 1439   3.486   3.278   3.978 -3.8048 -1.2268 -0.2266
   63DG     H14 1440   3.410   3.344   3.840  0.3058  1.7093  1.7893
   63DG     H15 1441   3.991   3.347   3.872  1.9800 -0.5149  0.2308
   63DG     H16 1442   4.060   3.500   3.894  0.1394  0.8184  0.4905
   63DG     C17 1443   3.604   3.428   3.873  0.5750  0.0282 -0.6516
   63DG     C18 1444   3.836   3.488   3.870 -0.1966  0.3386 -0.2955
   63DG     O19 1445   3.734   3.393   3.906  0.0241 -0.1425  0.1069
   63DG     H20 1446   3.576   3.500   3.950 -0.9444 -0.4309 -0.7257
   63DG     H21 1447   3.596   3.473   3.775  1.3634  1.4444 -0.0981
   63DG     H22 1448   3.806   3.584   3.912 -0.4892  0.9389 -1.7760
   63DG     H23 1449   3.839   3.500   3.761  1.3499 -0.8981 -0.4098
   64DG      C1 1450   1.822   5.154   5.263 -0.1477  0.2893 -0.4316
   64DG      C2 1451   1.034   4.896   5.023 -0.2741 -0.4888 -0.3584
   64DG      H3 1452   1.829   5.089   5.176 -1.6667  0.7750 -0.9493
   64DG      H4 1453   1.867   5.104   5.349 -0.2152 -0.6566 -0.9310
   64DG      H5 1454   1.885   5.242   5.254  0.2836 -0.1301 -1.6200
   64DG      H6 1455   1.048   4.870   4.918  1.0931 -2.0210  0.1530
   64DG      H7 1456   1.041   4.798   5.072 -0.5011 -0.9352 -1.2030
   64DG      H8 1457   0.938   4.942   5.045  0.6277  2.1112 -1.5119
   64DG      O9 1458   1.691   5.191   5.288 -0.2342  0.0883 -0.3407
   64DG     O10 1459   1.132   4.982   5.066 -0.1353  0.2481 -0.2946
   64DG     C11 1460   1.598   5.081   5.296 -0.2020  0.0155  0.4966
   64DG     C12 1461   1.129   5.007   5.208 -0.2916 -0.9499 -0.2141
   64DG     H13 1462   1.624   5.031   5.390 -0.3695 -1.3335 -0.1420
   64DG     H14 1463   1.604   5.011   5.212 -0.5050  1.3467 -0.6649
   64DG     H15 1464   1.142   4.909   5.255  0.8938 -0.6228  0.1863
   64DG     H16 1465   1.025   5.035   5.221  0.2601  0.8386  0.6692
   64DG     C17 1466   1.458   5.150   5.282 -0.2865  1.0932  0.1361
   64DG     C18 1467   1.226   5.114   5.260  0.1927 -0.1060  0.1213
   64DG     O19 1468   1.355   5.045   5.261 -0.1380 -0.1735  0.1912
   64DG     H20 1469   1.473   5.209   5.192  0.5883  1.1074  0.2811
   64DG     H21 1470   1.440   5.227   5.357  0.9057  0.3510  1.2370
   64DG     H22 1471   1.216   5.210   5.209 -0.6664 -0.0336  0.4164
   64DG     H23 1472   1.202   5.122   5.366  4.1608 -2.8210  1.4813
   65DG      C1 1473   3.744   3.851   1.489 -0.6404  0.2637  0.1539
   65DG      C2 1474   3.879   3.509   2.141  0.4061 -0.3245  1.1839
   65DG      H3 1475   3.704   3.916   1.567  3.3641  1.2939  1.6078
   65DG      H4 1476   3.708   3.873   1.389  0.7022  1.3494 -0.1325
   65DG      H5 1477   3.851   3.871   1.482 -0.3212 -1.7471 -1.8838
   65DG      H6 1478   3.955   3.575   2.183 -0.4143  1.0140  0.6372
   65DG      H7 1479   3.814   3.466   2.217 -3.3968  2.1570 -0.3766
   65DG      H8 1480   3.938   3.429   2.095 -0.8265 -0.7906  0.3415
   65DG      O9 1481   3.718   3.719   1.536 -0.9838  0.0811  0.3515
   65DG     O10 1482   3.802   3.579   2.041 -0.5763  0.2625 -0.2898
   65DG     C11 1483   3.825   3.678   1.625 -0.5886  0.6776  0.1155
   65DG     C12 1484   3.696   3.497   1.996 -0.0973  0.1931 -0.2754
   65DG     H13 1485   3.871   3.761   1.679  0.9948 -0.9202  1.2917
   65DG     H14 1486   3.905   3.620   1.580  0.9627  0.3269  3.0710
   65DG     H15 1487   3.644   3.468   2.087 -1.1346  1.7005 -0.3439
   65DG     H16 1488   3.727   3.403   1.952  1.7569  0.3513  0.5829
   65DG     C17 1489   3.767   3.583   1.729 -0.4799 -0.6576 -0.3085
   65DG     C18 1490   3.608   3.579   1.901 -0.5160 -0.5838  0.3436
   65DG     O19 1491   3.667   3.662   1.798 -0.6243  0.0653 -0.1999
   65DG     H20 1492   3.853   3.561   1.792  1.0167  1.3030 -1.5232
   65DG     H21 1493   3.726   3.504   1.666  0.0446 -1.1182 -0.0806
   65DG     H22 1494   3.533   3.513   1.857 -2.6181  1.0847  1.2326
   65DG     H23 1495   3.552   3.650   1.962 -0.1396 -0.0979  0.1260
   66DG      C1 1496   1.513   3.552   1.275  0.1056  0.8686 -0.1687
   66DG      C2 1497   2.206   3.607   1.811  0.2686 -0.0566  0.6950
   66DG      H3 1498   1.535   3.469   1.208 -0.9024 -0.4927  1.1431
   66DG      H4 1499   1.558   3.648   1.246  0.8132  0.9220  1.0510
   66DG      H5 1500   1.406   3.567   1.266 -0.5710 -3.4322 -1.6347
   66DG      H6 1501   2.233   3.706   1.773 -0.4014  0.6191  1.8846
   66DG      H7 1502   2.214   3.601   1.920 -3.3364 -1.1721  1.0321
   66DG      H8 1503   2.281   3.533   1.785 -0.6632 -0.5203 -0.7511
   66DG      O9 1504   1.560   3.522   1.406 -0.2799  0.4568 -0.1776
   66DG     O10 1505   2.080   3.555   1.766  0.2028 -0.3272  0.3896
   66DG     C11 1506   1.693   3.562   1.437  0.3379 -0.8561  0.1477
   66DG     C12 1507   1.970   3.628   1.814 -0.3680  0.0546 -0.1471
   66DG     H13 1508   1.698   3.670   1.427 -2.7427 -0.7131 -1.1408
   66DG     H14 1509   1.766   3.516   1.371 -0.3216 -0.2442 -1.0424
   66DG     H15 1510   1.973   3.729   1.772 -3.5791  1.2435  2.1272
   66DG     H16 1511   1.970   3.644   1.922 -2.6073  2.7517 -0.4497
   66DG     C17 1512   1.714   3.520   1.585 -0.0777  0.1203  0.5123
   66DG     C18 1513   1.840   3.566   1.776 -0.4531 -0.0980 -0.8836
   66DG     O19 1514   1.825   3.584   1.637 -0.4648 -0.4697  0.6929
   66DG     H20 1515   1.719   3.411   1.594  1.7112 -0.0141 -1.3542
   66DG     H21 1516   1.633   3.563   1.643  1.7685 -0.6367  3.9272
   66DG     H22 1517   1.832   3.462   1.808 -1.5028  0.3242  0.3230
   66DG     H23 1518   1.756   3.613   1.827  0.3546  2.3788 -1.7095
   67DG      C1 1519   0.890   0.221   2.240 -0.3277  1.1475  0.5717
   67DG      C2 1520   1.159  -0.057   2.390  0.2732  0.0543  0.3360
   67DG      H3 1521   0.836   0.302   2.191 -2.2805 -0.5850 -0.3246
   67DG      H4 1522   0.964   0.191   2.164 -1.4093 -0.2465  0.0115
   67DG      H5 1523   0.943   0.244   2.332  1.3280 -2.8070  0.8296
   67DG      H6 1524   1.254  -0.108   2.410  1.1517  1.2111 -0.7022
   67DG      H7 1525   1.180   0.028   2.326 -2.1276  0.4671  0.0241
   67DG      H8 1526   1.114  -0.018   2.481  0.0475 -0.3335  0.3916
   67DG      O9 1527   0.803   0.112   2.255 -0.6332 -0.6842  0.1843
   67DG     O10 1528   1.065  -0.152   2.333  0.1960 -0.2690 -0.0194
   67DG     C11 1529   0.762   0.067   2.124 -0.2013  0.4155 -0.3727
   67DG     C12 1530   1.114  -0.217   2.216 -0.4617 -0.2540  0.1796
   67DG     H13 1531   0.719   0.150   2.069  0.6405  1.1041 -0.0132
   67DG     H14 1532   0.681  -0.006   2.129  0.3706 -0.2563 -0.7182
   67DG     H15 1533   1.066  -0.315   2.214  1.3487 -1.2183  0.9780
   67DG     H16 1534   1.223  -0.226   2.222  0.3033  5.8611  2.2064
   67DG     C17 1535   0.859  -0.014   2.042 -0.8306  0.0232 -0.6796
   67DG     C18 1536   1.071  -0.124   2.109 -0.2906 -0.1817  0.2177
   67DG     O19 1537   0.929  -0.116   2.118 -0.4275 -0.3126  0.8131
   67DG     H20 1538   0.933   0.047   1.990  0.4341 -2.0301 -1.4152
   67DG     H21 1539   0.813  -0.069   1.960 -3.4316  1.6453 -0.4200
   67DG     H22 1540   1.117  -0.025   2.113 -1.1720  0.4647 -2.6552
   67DG     H23 1541   1.097  -0.166   2.012  0.1450 -0.2881  0.3800
   68DG      C1 1542   2.186   0.710   0.033  0.1102  0.0104 -0.0487
   68DG      C2 1543   2.670   0.369  -0.533  0.0626 -0.0100  0.4726
   68DG      H3 1544   2.084   0.690  -0.000  0.4724 -0.6877 -0.7728
   68DG      H4 1545   2.179   0.792   0.104  0.5156  0.8656 -0.9724
   68DG      H5 1546   2.203   0.619   0.090 -2.0736  0.5700  1.6366
   68DG      H6 1547   2.601   0.370  -0.618 -1.1025  0.2538  1.3844
   68DG      H7 1548   2.773   0.365  -0.568 -0.4758 -1.2745 -1.0655
   68DG      H8 1549   2.655   0.275  -0.480  0.5033 -0.7452 -0.6661
   68DG      O9 1550   2.279   0.743  -0.063  0.0670 -0.3447  0.1329
   68DG     O10 1551   2.630   0.466  -0.440  0.4815  0.5208 -0.2212
   68DG     C11 1552   2.400   0.677  -0.055 -0.4040  0.5038 -0.2559
   68DG     C12 1553   2.641   0.598  -0.482 -0.1438 -0.0013 -0.7749
   68DG     H13 1554   2.385   0.571  -0.074  0.7149  0.5038 -1.2549
   68DG     H14 1555   2.453   0.676   0.040 -0.3232  0.8128 -0.2937
   68DG     H15 1556   2.561   0.627  -0.550  0.5959  1.8513 -0.9130
   68DG     H16 1557   2.728   0.621  -0.543 -0.2727 -0.7149 -1.2453
   68DG     C17 1558   2.502   0.736  -0.158 -0.2669 -0.2643  0.3975
   68DG     C18 1559   2.625   0.698  -0.361 -0.9429  0.3165 -0.0408
   68DG     O19 1560   2.516   0.649  -0.271 -0.4384  0.1408  0.2364
   68DG     H20 1561   2.599   0.737  -0.108 -0.8906 -1.5763  1.7287
   68DG     H21 1562   2.471   0.835  -0.189  1.3991  0.1260 -0.1163
   68DG     H22 1563   2.711   0.700  -0.294 -1.3220  0.7988  0.4392
   68DG     H23 1564   2.619   0.801  -0.395  0.0499  0.4114  0.0245
   69DG      C1 1565   4.020   0.280   3.227 -0.2213 -0.0639  0.1617
   69DG      C2 1566   4.723   0.334   3.185  0.4814  0.0728  0.5202
   69DG      H3 1567   3.930   0.280   3.165  0.2760  1.8514 -0.6091
   69DG      H4 1568   4.027   0.378   3.274 -1.7633 -0.2484  0.8400
   69DG      H5 1569   4.020   0.196   3.297  0.5244 -0.2080 -0.0033
   69DG      H6 1570   4.788   0.247   3.195 -2.6160 -2.4177  0.8944
   69DG      H7 1571   4.779   0.390   3.112  1.3106  0.4196  1.4068
   69DG      H8 1572   4.713   0.388   3.279 -0.6052  0.1600  0.3684
   69DG      O9 1573   4.132   0.258   3.144  0.7301  0.0880  0.1860
   69DG     O10 1574   4.600   0.279   3.136 -0.0188  0.3613 -0.1088
   69DG     C11 1575   4.127   0.142   3.066 -0.2926 -0.0272 -0.1382
   69DG     C12 1576   4.612   0.176   3.031  0.3239 -0.8303 -0.8867
   69DG     H13 1577   4.035   0.141   3.007  0.0678 -0.0557 -0.6971
   69DG     H14 1578   4.115   0.052   3.127  0.2753 -0.2455 -0.3424
   69DG     H15 1579   4.637   0.088   3.091 -0.5950  0.7061  1.9688
   69DG     H16 1580   4.704   0.202   2.979  1.6521 -0.3429  1.5124
   69DG     C17 1581   4.253   0.120   2.967  0.6576 -0.2268  0.0878
   69DG     C18 1582   4.481   0.157   2.950 -0.1836 -0.4289 -0.0125
   69DG     O19 1583   4.374   0.131   3.039 -0.1222 -0.6684  0.0932
   69DG     H20 1584   4.251   0.183   2.878  3.0236 -0.5737 -0.2902
   69DG     H21 1585   4.255   0.018   2.926  0.0650 -0.3442  0.3403
   69DG     H22 1586   4.454   0.242   2.886  0.9501  0.5977  0.8296
   69DG     H23 1587   4.499   0.065   2.894  0.2707  0.1407 -0.8319
   70DG      C1 1588   1.491   1.169   0.007  0.0875 -0.5302  0.1926
   70DG      C2 1589   2.093   1.141   0.188  0.0099  0.1550 -0.1186
   70DG      H3 1590   1.524   1.070  -0.027  2.0834  0.6074 -1.4425
   70DG      H4 1591   1.498   1.223  -0.088  0.4128 -2.3691 -0.8851
   70DG      H5 1592   1.384   1.159   0.023  0.2896 -0.2775  1.8710
   70DG      H6 1593   2.149   1.221   0.139  2.2297 -1.5874 -0.6204
   70DG      H7 1594   2.168   1.097   0.254  1.0608  0.5359 -1.0169
   70DG      H8 1595   2.072   1.070   0.108 -0.6686 -0.5877  0.7053
   70DG      O9 1596   1.579   1.207   0.116 -0.5837  0.4208 -0.0863
   70DG     O10 1597   1.977   1.177   0.250  0.5018  0.2148  0.6782
   70DG     C11 1598   1.549   1.340   0.154  0.2270  0.2910  0.0065
   70DG     C12 1599   1.991   1.290   0.338  0.1753 -0.1498  0.0746
   70DG     H13 1600   1.446   1.366   0.178 -0.1511 -0.9675 -0.2187
   70DG     H14 1601   1.577   1.407   0.072  2.3306 -0.0842  0.3706
   70DG     H15 1602   2.040   1.369   0.281  0.9280 -1.0668 -0.5914
   70DG     H16 1603   2.061   1.274   0.420  0.2817 -1.2809 -0.2179
   70DG     C17 1604   1.637   1.369   0.272  0.7325  0.2174  0.6090
   70DG     C18 1605   1.859   1.353   0.363  0.0297  0.0509  0.0339
   70DG     O19 1606   1.773   1.358   0.246  0.3681 -0.1895  0.0937
   70DG     H20 1607   1.604   1.300   0.350  1.6977 -0.3258  0.5469
   70DG     H21 1608   1.610   1.466   0.316 -1.5435 -0.7317  1.4417
   70DG     H22 1609   1.807   1.298   0.441 -0.2274  1.6615  1.0579
   70DG     H23 1610   1.858   1.456   0.399 -0.2517 -0.3984  1.3950
   71DG      C1 1611   1.399   4.490   3.450  0.1270  0.3724  0.4782
   71DG      C2 1612   1.885   4.654   2.930  0.2679  0.1498  1.1732
   71DG      H3 1613   1.368   4.397   3.402  3.0364 -1.2807  1.5344
   71DG      H4 1614   1.320   4.563   3.430  0.8429  1.3106  0.9825
   71DG      H5 1615   1.400   4.469   3.557  2.0880  0.7888  0.5875
   71DG      H6 1616   1.849   4.752   2.898 -1.2400 -0.6202  0.4005
   71DG      H7 1617   1.989   4.639   2.900  0.1511  1.1120  0.2133
   71DG      H8 1618   1.833   4.578   2.872 -0.0089 -1.2258  3.1564
   71DG      O9 1619   1.533   4.526   3.406 -0.2636 -0.1087  0.7166
   71DG     O10 1620   1.856   4.625   3.058 -0.4510  0.2952  0.6142
   71DG     C11 1621   1.612   4.595   3.501 -0.1198 -0.0212  0.1106
   71DG     C12 1622   1.935   4.698   3.155 -0.2267 -0.0892  0.4237
   71DG     H13 1623   1.605   4.548   3.599  3.3901  2.4007  1.7142
   71DG     H14 1624   1.582   4.700   3.511 -1.1965 -0.4450  1.7737
   71DG     H15 1625   1.901   4.802   3.155  0.6868  0.3633  4.4060
   71DG     H16 1626   2.040   4.693   3.126 -0.4534  1.7872 -0.9047
   71DG     C17 1627   1.760   4.583   3.451  0.1267  0.0262 -0.4371
   71DG     C18 1628   1.915   4.624   3.284  0.1608  0.2092 -0.7987
   71DG     O19 1629   1.785   4.644   3.330 -0.0082  0.4321 -0.3074
   71DG     H20 1630   1.781   4.477   3.457  1.3079  0.3134  1.0866
   71DG     H21 1631   1.818   4.628   3.532  1.1710 -0.1355 -1.0701
   71DG     H22 1632   1.933   4.516   3.276  2.0090  0.3745  0.4355
   71DG     H23 1633   1.988   4.651   3.360 -0.6279  1.7744 -0.5603
   72DG      C1 1634   1.820   1.799   5.214  0.4530 -0.1266 -0.1142
   72DG      C2 1635   1.589   1.595   4.399  0.5060  0.1764 -0.1789
   72DG      H3 1636   1.846   1.709   5.269  0.1793 -1.0846 -1.5011
   72DG      H4 1637   1.751   1.861   5.271 -0.9913 -0.6933 -1.1734
   72DG      H5 1638   1.911   1.851   5.185 -2.0957  3.2639 -2.9057
   72DG      H6 1639   1.673   1.534   4.365 -1.6434 -1.8584 -2.2596
   72DG      H7 1640   1.514   1.571   4.324 -0.8625  3.2738  0.0635
   72DG      H8 1641   1.636   1.687   4.366  1.5564 -0.6525 -1.0929
   72DG      O9 1642   1.749   1.758   5.094  0.1856  0.0273 -0.3153
   72DG     O10 1643   1.539   1.565   4.526 -0.0932 -0.5126  0.1596
   72DG     C11 1644   1.651   1.661   5.114  0.5929 -0.3828 -0.2661
   72DG     C12 1645   1.633   1.603   4.629 -0.7199  0.1535 -0.3290
   72DG     H13 1646   1.600   1.676   5.209  0.8110  2.9049 -0.5722
   72DG     H14 1647   1.704   1.566   5.125  0.2928 -0.6913 -1.3815
   72DG     H15 1648   1.682   1.699   4.610 -0.9704  0.0684 -1.4508
   72DG     H16 1649   1.706   1.523   4.642 -0.6095  0.1636 -0.8445
   72DG     C17 1650   1.553   1.657   4.988 -0.4268  0.4307  0.3834
   72DG     C18 1651   1.543   1.608   4.762 -0.8974 -0.1292  0.1119
   72DG     O19 1652   1.630   1.621   4.865 -0.5070 -0.5132 -0.1078
   72DG     H20 1653   1.518   1.760   4.989  1.8705  1.2759  0.8480
   72DG     H21 1654   1.459   1.610   5.014 -0.6928  0.4938 -0.4384
   72DG     H22 1655   1.482   1.698   4.751  1.8295  1.8261  0.0802
   72DG     H23 1656   1.473   1.525   4.771 -0.1795 -0.8329 -0.6271
   73DG      C1 1657   0.062   1.706   2.977  0.0170  0.0564  0.0395
   73DG      C2 1658   0.062   2.251   3.285 -0.0105 -0.5617 -0.1602
   73DG      H3 1659  -0.037   1.674   3.011 -0.1037 -1.7422 -1.7725
   73DG      H4 1660   0.110   1.626   2.921 -0.2106  0.4867 -0.7908
   73DG      H5 1661   0.044   1.797   2.919  0.8675  0.2315  0.0343
   73DG      H6 1662   0.106   2.321   3.357  2.4892  0.4120 -2.4814
   73DG      H7 1663   0.061   2.301   3.188 -0.9927  2.1457  1.1404
   73DG      H8 1664  -0.037   2.226   3.322  0.0227 -2.0280 -0.9954
   73DG      O9 1665   0.153   1.733   3.082  0.6456  0.2690  0.4953
   73DG     O10 1666   0.138   2.131   3.283  0.5921  0.2066 -0.0855
   73DG     C11 1667   0.290   1.729   3.041  0.5348  0.1536  0.7690
   73DG     C12 1668   0.278   2.152   3.243 -0.3963  0.4662  0.4555
   73DG     H13 1669   0.309   1.767   2.941  0.1187 -0.9263  0.2612
   73DG     H14 1670   0.334   1.629   3.042 -0.9569 -0.5527  2.4494
   73DG     H15 1671   0.325   2.210   3.323 -1.7242  2.4348 -0.1014
   73DG     H16 1672   0.280   2.216   3.155  1.0969 -0.3392 -0.1175
   73DG     C17 1673   0.354   1.815   3.146 -0.2785  0.3109  0.3703
   73DG     C18 1674   0.362   2.026   3.219  0.7208  0.1097 -0.3537
   73DG     O19 1675   0.287   1.941   3.138 -0.2587  0.2182  0.7686
   73DG     H20 1676   0.460   1.818   3.120 -0.6836  1.6101 -1.3052
   73DG     H21 1677   0.356   1.744   3.228 -0.0701  0.3968  0.4416
   73DG     H22 1678   0.461   2.047   3.179  1.9313 -0.4145  2.1748
   73DG     H23 1679   0.383   1.974   3.313 -0.6141 -0.1150 -0.1647
   74DG      C1 1680   5.034   4.018   3.573  0.0356 -0.6750 -0.3412
   74DG      C2 1681   5.513   3.950   4.108 -0.6597 -0.4541 -1.0142
   74DG      H3 1682   5.109   4.043   3.497 -1.6940 -0.1021 -1.9452
   74DG      H4 1683   4.945   4.080   3.569 -0.6033 -1.1991  2.9934
   74DG      H5 1684   5.008   3.915   3.550 -3.3476  0.3979 -1.9076
   74DG      H6 1685   5.586   4.018   4.063 -1.3093  0.4572 -0.7386
   74DG      H7 1686   5.527   3.953   4.217 -1.2994  0.7912 -0.9468
   74DG      H8 1687   5.559   3.855   4.083  2.6030  0.5122  0.6198
   74DG      O9 1688   5.066   4.008   3.710  0.3896 -0.2901  0.4235
   74DG     O10 1689   5.386   3.960   4.053  0.3839  0.4088 -0.2744
   74DG     C11 1690   4.962   3.969   3.794 -0.0704  0.0742 -0.0205
   74DG     C12 1691   5.324   4.088   4.092  0.1365  0.6529  1.0316
   74DG     H13 1692   4.961   3.860   3.798  0.3245  0.1056  1.7851
   74DG     H14 1693   4.862   4.005   3.770  0.4113  2.0238  0.7225
   74DG     H15 1694   5.358   4.165   4.023  3.0442  0.4416  2.0892
   74DG     H16 1695   5.345   4.124   4.193  0.2742  0.4226  1.0871
   74DG     C17 1696   4.992   4.012   3.936  0.3422 -0.1818  1.0863
   74DG     C18 1697   5.169   4.073   4.078  0.1139  0.4491  0.4129
   74DG     O19 1698   5.133   4.021   3.954 -0.5634  0.6174  0.4791
   74DG     H20 1699   4.966   3.932   4.005 -1.9676 -0.7217 -0.3203
   74DG     H21 1700   4.945   4.109   3.953  0.5019  0.1350 -0.1629
   74DG     H22 1701   5.133   4.013   4.161  0.3966 -0.4003 -0.0559
   74DG     H23 1702   5.112   4.166   4.082 -3.5056 -1.5415 -0.3579
   75DG      C1 1703   1.030   0.468   5.390  0.0537  0.4028 -0.1223
   75DG      C2 1704   0.706   0.348   5.925 -0.5643 -0.0651  0.0255
   75DG      H3 1705   0.944   0.526   5.357  1.3828  1.5574 -1.7015
   75DG      H4 1706   1.042   0.386   5.318 -1.0139 -0.2155  0.3748
   75DG      H5 1707   1.112   0.539   5.383  0.1604  0.1769 -1.3210
   75DG      H6 1708   0.629   0.404   5.871  2.0773  1.0384 -2.8994
   75DG      H7 1709   0.677   0.296   6.017 -0.1977  0.8254  0.6599
   75DG      H8 1710   0.797   0.399   5.955  0.3921 -1.2349 -0.7933
   75DG      O9 1711   1.011   0.404   5.513 -0.8561 -0.1570 -0.0030
   75DG     O10 1712   0.746   0.244   5.831 -0.2056 -0.0437 -0.4558
   75DG     C11 1713   1.122   0.328   5.554  0.3526 -0.3664 -0.3769
   75DG     C12 1714   0.833   0.142   5.877  0.3561  0.4160 -0.0743
   75DG     H13 1715   1.220   0.374   5.537  1.5475 -3.1894 -1.8969
   75DG     H14 1716   1.136   0.232   5.505  2.2026  0.4510 -1.5749
   75DG     H15 1717   0.829   0.051   5.818 -0.5748 -0.4304  1.2374
   75DG     H16 1718   0.808   0.116   5.980 -1.3748  1.7580 -0.1133
   75DG     C17 1719   1.112   0.305   5.704  0.5787 -0.1222  0.3262
   75DG     C18 1720   0.978   0.188   5.859 -0.1467 -0.3813 -0.2772
   75DG     O19 1721   0.991   0.226   5.725 -0.0262 -0.1554  0.1297
   75DG     H20 1722   1.112   0.399   5.758  0.5409 -0.3914  0.8088
   75DG     H21 1723   1.195   0.243   5.740 -0.6014 -1.0484  1.5835
   75DG     H22 1724   1.010   0.260   5.934  0.1334  0.0380 -0.7923
   75DG     H23 1725   1.053   0.110   5.868  1.7417  1.4892  1.0843
   76DG      C1 1726   0.592   4.146   5.122  0.3295 -0.4225  0.1969
   76DG      C2 1727   0.173   4.387   5.603 -0.0823  0.1823 -0.1523
   76DG      H3 1728   0.649   4.162   5.031 -0.3326  0.1440 -0.1227
   76DG      H4 1729   0.606   4.043   5.157 -0.1697 -0.3205  0.7151
   76DG      H5 1730   0.642   4.207   5.197  1.4501 -1.5255  0.3824
   76DG      H6 1731   0.092   4.445   5.647 -0.5587 -0.4627 -0.1697
   76DG      H7 1732   0.159   4.280   5.619  1.0657 -0.1455 -1.1478
   76DG      H8 1733   0.256   4.422   5.665  0.1004  1.3071 -0.9837
   76DG      O9 1734   0.459   4.177   5.096 -0.0566  0.2745 -0.4396
   76DG     O10 1735   0.194   4.430   5.464  0.2571  0.3208  0.0864
   76DG     C11 1736   0.445   4.303   5.037 -0.4003 -0.0911  0.3766
   76DG     C12 1737   0.099   4.391   5.368  0.2893  0.2650  0.5457
   76DG     H13 1738   0.461   4.296   4.930 -0.0888  2.0515  0.2259
   76DG     H14 1739   0.527   4.366   5.071  0.8315 -2.3864  1.9499
   76DG     H15 1740   0.016   4.455   5.398 -0.0763 -0.5149  1.2307
   76DG     H16 1741   0.063   4.288   5.375 -2.8915  1.2765  0.6705
   76DG     C17 1742   0.305   4.369   5.054  0.8259  0.4118  0.0378
   76DG     C18 1743   0.140   4.424   5.227  0.2837  0.5248  0.1919
   76DG     O19 1744   0.260   4.354   5.190 -0.2471  0.3968 -0.2129
   76DG     H20 1745   0.227   4.329   4.990  1.4625  0.5126 -0.8251
   76DG     H21 1746   0.318   4.476   5.034 -2.4994  1.0841  0.8923
   76DG     H22 1747   0.053   4.401   5.166  1.5192  0.4347 -1.6307
   76DG     H23 1748   0.156   4.531   5.230  2.3908  0.2293  1.4159
   77DG      C1 1749   2.162   5.146   3.995  0.0115  0.0820 -0.1074
   77DG      C2 1750   1.371   5.001   3.808  0.0775 -0.0676  0.1244
   77DG      H3 1751   2.257   5.094   4.006  0.9938  0.8985 -3.6305
   77DG      H4 1752   2.113   5.145   4.092 -1.5117  2.5863 -0.7649
   77DG      H5 1753   2.184   5.247   3.959  2.7519 -0.0605  0.8923
   77DG      H6 1754   1.382   5.072   3.890  1.0246  0.9577 -0.8671
   77DG      H7 1755   1.358   5.061   3.718 -0.7563 -1.6987 -0.9039
   77DG      H8 1756   1.290   4.930   3.825  2.8498 -3.9532 -1.4044
   77DG      O9 1757   2.094   5.059   3.901 -0.0006  0.4098  0.5748
   77DG     O10 1758   1.493   4.929   3.781 -0.0007 -0.1356  0.3121
   77DG     C11 1759   1.957   5.077   3.887 -0.0759  0.6799 -0.0489
   77DG     C12 1760   1.530   4.844   3.888 -0.4126 -0.3250 -0.0317
   77DG     H13 1761   1.935   5.157   3.817  0.7792 -0.1345 -1.2848
   77DG     H14 1762   1.921   5.104   3.987  2.5648 -0.2360  1.2453
   77DG     H15 1763   1.484   4.746   3.875  0.0418 -0.4684 -0.6033
   77DG     H16 1764   1.511   4.888   3.985 -3.6489  1.1363 -1.2036
   77DG     C17 1765   1.890   4.940   3.852  0.2240 -0.1958  0.5295
   77DG     C18 1766   1.683   4.821   3.888 -0.2599 -0.0138 -0.3732
   77DG     O19 1767   1.750   4.951   3.877 -0.2100  0.0380 -0.4621
   77DG     H20 1768   1.931   4.852   3.900  1.3511 -1.7843 -3.0106
   77DG     H21 1769   1.893   4.926   3.744  0.3534 -0.5325  0.5762
   77DG     H22 1770   1.723   4.772   3.976  0.5354  0.7460 -0.2921
   77DG     H23 1771   1.698   4.765   3.796 -1.3309  0.9904 -1.1902
   78DG      C1 1772   3.091   0.590   5.145  0.2461 -0.3237 -0.1602
   78DG      C2 1773   3.665   0.778   4.739 -0.6307 -0.6584 -0.1652
   78DG      H3 1774   3.158   0.578   5.229 -0.2893 -0.2155  0.2900
   78DG      H4 1775   3.048   0.496   5.110 -1.3411  0.0284  0.7649
   78DG      H5 1776   3.008   0.652   5.181  1.5094  0.9474  0.6792
   78DG      H6 1777   3.668   0.678   4.697  0.3406 -1.9257  2.6992
   78DG      H7 1778   3.708   0.840   4.660 -2.0090  1.6019  0.7543
   78DG      H8 1779   3.733   0.779   4.824 -0.2691 -0.1468 -0.4486
   78DG      O9 1780   3.171   0.652   5.039  0.2108  0.8321 -0.5845
   78DG     O10 1781   3.528   0.791   4.771  0.2112 -0.4438  0.8698
   78DG     C11 1782   3.075   0.693   4.936 -1.2676  0.3373 -0.3312
   78DG     C12 1783   3.471   0.922   4.760  0.4266 -0.0415 -0.9884
   78DG     H13 1784   2.981   0.738   4.968 -0.7846  0.7015  0.5990
   78DG     H14 1785   3.043   0.597   4.895  0.1627 -0.1028 -0.4841
   78DG     H15 1786   3.509   0.994   4.688  0.2536 -0.2399 -1.2816
   78DG     H16 1787   3.510   0.965   4.853  0.5479 -1.4917 -0.3389
   78DG     C17 1788   3.127   0.802   4.844 -0.4890  0.4155  0.5919
   78DG     C18 1789   3.316   0.910   4.763  0.0111  0.8747 -0.7838
   78DG     O19 1790   3.268   0.796   4.839 -0.4925 -0.1595 -0.7321
   78DG     H20 1791   3.099   0.890   4.901 -1.8010  0.7111 -0.4579
   78DG     H21 1792   3.075   0.795   4.748 -0.8151  2.9326  0.5188
   78DG     H22 1793   3.269   1.000   4.803 -2.6396  0.3693 -2.4350
   78DG     H23 1794   3.268   0.908   4.664 -0.2643 -1.9406 -0.6667
   79DG      C1 1795   0.870   1.370   3.931  0.1507  0.8548  0.1309
   79DG      C2 1796   0.190   1.518   4.175 -0.5371 -0.4757 -0.4878
   79DG      H3 1797   0.930   1.299   3.988  0.4251 -1.0025 -2.3127
   79DG      H4 1798   0.938   1.437   3.879 -0.2748  0.3947 -1.0473
   79DG      H5 1799   0.825   1.311   3.851 -0.8784 -1.1943  2.1207
   79DG      H6 1800   0.109   1.492   4.244  0.1999  1.0384  1.0350
   79DG      H7 1801   0.154   1.602   4.115 -0.8314 -1.0404 -1.1039
   79DG      H8 1802   0.233   1.439   4.114  2.5959  0.0807  0.8204
   79DG      O9 1803   0.772   1.431   4.009  0.5406  0.1088 -0.6293
   79DG     O10 1804   0.296   1.558   4.263  0.0907  0.4066 -0.4512
   79DG     C11 1805   0.835   1.535   4.080 -0.4153 -0.9527 -1.0845
   79DG     C12 1806   0.417   1.581   4.196  0.2919 -0.2676  0.1143
   79DG     H13 1807   0.892   1.596   4.010 -2.7655  2.6943 -0.1312
   79DG     H14 1808   0.898   1.493   4.159 -0.5428  0.3047 -0.2711
   79DG     H15 1809   0.390   1.660   4.126 -1.0927  0.1328  1.0554
   79DG     H16 1810   0.456   1.498   4.137 -0.0760 -0.4730  0.1525
   79DG     C17 1811   0.719   1.617   4.146 -0.7441 -0.5682  0.3095
   79DG     C18 1812   0.531   1.624   4.279  0.1310 -0.3619 -0.1374
   79DG     O19 1813   0.647   1.552   4.246 -0.4573  0.3889 -0.2744
   79DG     H20 1814   0.656   1.653   4.065 -1.9406 -0.2993  1.3313
   79DG     H21 1815   0.767   1.707   4.183  0.5746 -0.3290 -1.8022
   79DG     H22 1816   0.553   1.731   4.281  0.1476 -0.3647 -0.1811
   79DG     H23 1817   0.513   1.600   4.384 -2.9822  0.3177 -0.4115
   80DG      C1 1818   0.450   0.809   2.258  0.2824  0.4316 -0.1834
   80DG      C2 1819   0.853   0.575   2.017  0.2232  0.1677 -0.5923
   80DG      H3 1820   0.442   0.788   2.364 -0.8841  1.3178 -0.0784
   80DG      H4 1821   0.466   0.916   2.248 -2.2450  0.7768 -1.0334
   80DG      H5 1822   0.528   0.755   2.203  0.2341  0.0716  0.0956
   80DG      H6 1823   0.895   0.668   2.055 -0.4469 -0.5202  2.0826
   80DG      H7 1824   0.867   0.499   2.094 -1.1003  0.6803  0.1863
   80DG      H8 1825   0.904   0.551   1.924  1.1318 -0.3065  0.0110
   80DG      O9 1826   0.317   0.788   2.207 -0.6797 -0.5495 -0.0247
   80DG     O10 1827   0.713   0.586   2.004  0.7342  0.4220 -0.2896
   80DG     C11 1828   0.290   0.653   2.201  0.0518  0.8696  0.0143
   80DG     C12 1829   0.646   0.468   1.953  0.3210 -0.6397 -0.3500
   80DG     H13 1830   0.182   0.649   2.216 -0.3928 -4.1830 -2.3123
   80DG     H14 1831   0.325   0.592   2.285  2.2052  0.8322 -0.8400
   80DG     H15 1832   0.656   0.381   2.018  0.4934 -0.0785  0.3889
   80DG     H16 1833   0.692   0.447   1.856  0.3405  0.7942 -0.6741
   80DG     C17 1834   0.318   0.580   2.063  0.0006 -0.4344 -0.4439
   80DG     C18 1835   0.498   0.507   1.935 -0.3924  0.7838  0.2258
   80DG     O19 1836   0.458   0.562   2.054 -0.0794 -0.6996 -0.1585
   80DG     H20 1837   0.284   0.633   1.974  2.0737 -0.1590 -1.1463
   80DG     H21 1838   0.277   0.480   2.074  1.8521 -1.2059 -0.1811
   80DG     H22 1839   0.488   0.573   1.850  2.4007  0.7049 -0.2532
   80DG     H23 1840   0.430   0.426   1.908 -1.0748  0.8155  1.7055
   81DG      C1 1841   2.336   3.076   1.259 -0.5099 -0.0864 -0.1330
   81DG      C2 1842   2.508   2.423   1.142  0.6794 -0.6818 -0.8463
   81DG      H3 1843   2.422   3.142   1.268  0.5994 -1.2989 -1.4212
   81DG      H4 1844   2.247   3.139   1.254 -1.5234 -1.2952  1.5654
   81DG      H5 1845   2.349   3.020   1.167 -2.3791 -0.6173 -0.1354
   81DG      H6 1846   2.546   2.328   1.180  0.9157 -0.3766 -0.3032
   81DG      H7 1847   2.433   2.412   1.064  0.9667 -0.5143 -1.1508
   81DG      H8 1848   2.593   2.458   1.083  0.2859 -0.0507 -1.0418
   81DG      O9 1849   2.339   2.994   1.371  0.1374 -0.4304  0.0828
   81DG     O10 1850   2.472   2.511   1.241  0.1907  0.0702 -0.5953
   81DG     C11 1851   2.210   2.925   1.386  0.3071  0.4951 -0.6783
   81DG     C12 1852   2.355   2.480   1.322  0.2751 -0.3366 -0.2056
   81DG     H13 1853   2.161   2.911   1.290  0.4502  1.1089 -0.8485
   81DG     H14 1854   2.143   2.981   1.452  1.1269 -0.2122  0.7875
   81DG     H15 1855   2.352   2.378   1.358 -0.0225  0.2034  1.3717
   81DG     H16 1856   2.270   2.491   1.254  0.2924  0.6711 -0.0773
   81DG     C17 1857   2.222   2.790   1.460  0.0234 -0.6966  0.6518
   81DG     C18 1858   2.345   2.584   1.439  0.0026 -0.0823 -0.0868
   81DG     O19 1859   2.327   2.718   1.387  0.2597 -0.0247 -0.1659
   81DG     H20 1860   2.125   2.744   1.443 -0.3745 -0.2208  1.5888
   81DG     H21 1861   2.239   2.795   1.568 -2.3163 -1.4417  1.1008
   81DG     H22 1862   2.269   2.560   1.513  0.1920  1.6644  0.7435
   81DG     H23 1863   2.439   2.573   1.493 -0.6567 -1.5580  0.8293
   82DG      C1 1864   4.067   5.047   1.414  0.4502  0.7203 -0.3447
   82DG      C2 1865   3.432   5.437   1.386  0.7744 -0.2254  1.2816
   82DG      H3 1866   4.094   4.984   1.330  1.0835  1.3254 -0.6031
   82DG      H4 1867   4.047   4.973   1.492  1.6009  0.3677 -0.3726
   82DG      H5 1868   4.159   5.097   1.446  0.2224  1.2807 -0.5647
   82DG      H6 1869   3.484   5.523   1.428 -0.3834 -0.2039  2.7683
   82DG      H7 1870   3.354   5.476   1.321  1.3022 -3.3523 -1.4695
   82DG      H8 1871   3.369   5.391   1.463 -0.1473 -0.7811  0.2151
   82DG      O9 1872   3.956   5.132   1.400 -0.5336  0.3250  0.7743
   82DG     O10 1873   3.522   5.351   1.319 -0.2359  0.1069  0.3539
   82DG     C11 1874   3.985   5.254   1.337 -0.5316 -0.7081  0.4149
   82DG     C12 1875   3.599   5.421   1.215  0.7259 -0.5748  0.2554
   82DG     H13 1876   4.043   5.234   1.247  0.7096 -0.8462  1.2177
   82DG     H14 1877   4.045   5.320   1.401  1.4596  0.6339 -2.6010
   82DG     H15 1878   3.648   5.506   1.262 -1.7082  1.0670  0.0360
   82DG     H16 1879   3.534   5.464   1.139 -0.8841 -3.8601 -0.4002
   82DG     C17 1880   3.863   5.341   1.298  0.0223  0.4228  0.0453
   82DG     C18 1881   3.689   5.317   1.144  0.9201 -0.1218 -0.1878
   82DG     O19 1882   3.776   5.250   1.233 -0.6363 -0.5565 -0.1558
   82DG     H20 1883   3.889   5.413   1.221 -1.4401 -1.2642 -2.1444
   82DG     H21 1884   3.815   5.397   1.378 -0.2440  1.2717 -0.6905
   82DG     H22 1885   3.621   5.249   1.092 -0.2405  2.2425 -1.9909
   82DG     H23 1886   3.747   5.360   1.062  1.1662 -2.2717 -1.2263
   83DG      C1 1887   1.260   3.497   0.202 -0.2538 -0.2244 -0.0169
   83DG      C2 1888   1.275   3.956   0.753  0.4889  0.1596  1.1017
   83DG      H3 1889   1.209   3.561   0.130 -2.4290 -1.8856 -0.0231
   83DG      H4 1890   1.311   3.416   0.150  1.4254  1.1577 -0.6492
   83DG      H5 1891   1.344   3.554   0.244  0.3340 -0.9386 -0.2051
   83DG      H6 1892   1.337   4.026   0.809  0.7810  0.2686  0.6480
   83DG      H7 1893   1.281   4.009   0.657 -2.4237 -1.0502  0.1481
   83DG      H8 1894   1.177   3.961   0.799  0.4832  2.4651  0.9535
   83DG      O9 1895   1.165   3.464   0.303 -0.1118  0.1596  0.4762
   83DG     O10 1896   1.319   3.823   0.744  0.1906  0.4042  0.9285
   83DG     C11 1897   1.215   3.378   0.404 -0.0503 -0.0196 -0.4586
   83DG     C12 1898   1.224   3.740   0.686 -0.6312 -0.4314 -0.2605
   83DG     H13 1899   1.248   3.283   0.363 -1.6487 -0.3477 -1.0346
   83DG     H14 1900   1.131   3.353   0.468  1.7675  1.6843  2.8670
   83DG     H15 1901   1.186   3.781   0.592 -1.0898  2.3583  1.0379
   83DG     H16 1902   1.137   3.736   0.753 -0.2216 -0.3569  0.2801
   83DG     C17 1903   1.316   3.443   0.497  0.5925 -0.2801 -0.1849
   83DG     C18 1904   1.293   3.611   0.662  0.7437  0.2608 -0.2921
   83DG     O19 1905   1.244   3.557   0.537 -0.3789  0.3841  0.0621
   83DG     H20 1906   1.413   3.456   0.449  0.5317 -0.8616 -0.4629
   83DG     H21 1907   1.333   3.379   0.583 -0.6771 -0.7308 -0.2393
   83DG     H22 1908   1.400   3.622   0.644  1.1011 -1.4436  0.5632
   83DG     H23 1909   1.279   3.538   0.742  0.3483  0.1643 -0.4491
   84DG      C1 1910   4.513   4.803   2.141 -0.8383 -0.3603 -0.3316
   84DG      C2 1911   5.103   5.049   2.156  0.0377  0.2843  0.5655
   84DG      H3 1912   4.512   4.788   2.033  0.2381 -0.2491 -0.3714
   84DG      H4 1913   4.455   4.890   2.171  1.3146  0.7736  0.8277
   84DG      H5 1914   4.463   4.717   2.186 -0.0806  0.3011  1.8841
   84DG      H6 1915   5.110   4.958   2.096  1.2251  0.8721 -0.2175
   84DG      H7 1916   5.059   5.127   2.095  1.4022  0.0540 -0.7617
   84DG      H8 1917   5.202   5.092   2.174  0.0642  1.1141 -1.3850
   84DG      O9 1918   4.651   4.803   2.183  0.7319  0.2239 -0.0572
   84DG     O10 1919   5.032   5.034   2.275  0.0605  0.2443  0.4846
   84DG     C11 1920   4.703   4.679   2.227  0.1183  0.3037  0.7464
   84DG     C12 1921   5.091   4.946   2.364  0.1264  0.2360 -0.7716
   84DG     H13 1922   4.684   4.597   2.157  1.0550  1.0300 -0.3918
   84DG     H14 1923   4.655   4.654   2.322  0.3366 -0.3332  0.6951
   84DG     H15 1924   5.073   4.969   2.469 -0.9387 -0.6332 -0.7525
   84DG     H16 1925   5.199   4.961   2.354  0.0901  0.3017 -1.0768
   84DG     C17 1926   4.862   4.692   2.240  0.8394 -0.2039 -0.0767
   84DG     C18 1927   5.039   4.803   2.347 -0.2104 -0.2956 -0.1532
   84DG     O19 1928   4.905   4.802   2.318  0.5555 -0.7462 -0.7000
   84DG     H20 1929   4.891   4.712   2.137  0.0392  0.0381 -0.2648
   84DG     H21 1930   4.899   4.593   2.267  1.0729 -0.4164 -1.1182
   84DG     H22 1931   5.102   4.757   2.271 -0.6909 -2.1907  0.5191
   84DG     H23 1932   5.062   4.752   2.440 -1.0467  0.9097  0.7344
   85DG      C1 1933   0.506   1.374   5.293 -0.6076  0.4069  0.7354
   85DG      C2 1934   0.199   0.825   5.435  0.1416  0.2325 -0.1498
   85DG      H3 1935   0.565   1.459   5.326 -0.9028  0.1402  1.9904
   85DG      H4 1936   0.449   1.384   5.200 -0.4375 -3.0889  0.1069
   85DG      H5 1937   0.573   1.288   5.287  0.7486  1.5086 -1.1702
   85DG      H6 1938   0.209   0.830   5.327  3.0702  2.4248  0.1142
   85DG      H7 1939   0.260   0.739   5.461 -0.9645 -0.6166 -0.2749
   85DG      H8 1940   0.098   0.814   5.477  0.8257  2.1124  2.2315
   85DG      O9 1941   0.417   1.351   5.400  0.4313  0.3097  0.0458
   85DG     O10 1942   0.249   0.947   5.485  0.3415  0.1187  0.7778
   85DG     C11 1943   0.460   1.379   5.535 -0.1965 -0.3519  0.2350
   85DG     C12 1944   0.308   0.941   5.615  0.0938 -0.4149 -0.1264
   85DG     H13 1945   0.438   1.486   5.538 -1.8782 -0.6552 -0.3792
   85DG     H14 1946   0.568   1.375   5.553 -0.2244  1.7910  1.2389
   85DG     H15 1947   0.408   0.901   5.602  0.3180  0.5895 -1.8871
   85DG     H16 1948   0.261   0.873   5.686  1.2295 -1.0857 -0.0079
   85DG     C17 1949   0.376   1.297   5.624 -0.2078  0.2910 -0.2501
   85DG     C18 1950   0.297   1.084   5.675 -0.7549  0.2467  0.0181
   85DG     O19 1951   0.374   1.161   5.586 -0.3383 -0.6204  0.5317
   85DG     H20 1952   0.279   1.347   5.628  0.3301  1.3252  0.9664
   85DG     H21 1953   0.418   1.292   5.725 -1.2638 -1.7099  0.1382
   85DG     H22 1954   0.191   1.109   5.674 -1.7976 -3.5555  0.5064
   85DG     H23 1955   0.342   1.077   5.774  0.8021  2.3344 -0.4723
   86DG      C1 1956   4.676   2.432   3.318  0.6007 -0.2632  0.2619
   86DG      C2 1957   4.977   1.640   3.570  0.4091  0.1378  0.0951
   86DG      H3 1958   4.653   2.433   3.425  2.1758 -1.4279  0.6589
   86DG      H4 1959   4.598   2.485   3.264  2.2582  2.2458  0.1710
   86DG      H5 1960   4.762   2.490   3.286  1.3323  0.0372  2.6089
   86DG      H6 1961   4.933   1.615   3.667 -0.1639  1.7691  0.2789
   86DG      H7 1962   4.947   1.568   3.494 -1.0794 -1.0067  1.6605
   86DG      H8 1963   5.086   1.637   3.568  0.4939 -1.1177  2.5545
   86DG      O9 1964   4.688   2.296   3.287 -0.7517 -0.2180 -0.4875
   86DG     O10 1965   4.922   1.766   3.534  0.2058  0.2067 -0.0164
   86DG     C11 1966   4.752   2.215   3.383 -0.4096  1.0620 -0.9026
   86DG     C12 1967   4.786   1.773   3.544 -0.6039 -0.5087  0.5925
   86DG     H13 1968   4.707   2.214   3.482  2.0031  0.9033  0.2782
   86DG     H14 1969   4.856   2.242   3.400  0.2378 -1.0948 -1.0242
   86DG     H15 1970   4.750   1.804   3.642 -0.9364  1.8590 -0.2175
   86DG     H16 1971   4.740   1.675   3.532 -1.7744 -0.0807  1.4971
   86DG     C17 1972   4.754   2.071   3.328 -0.7145 -0.2211  0.3056
   86DG     C18 1973   4.731   1.867   3.431  0.8119  0.4615  0.5019
   86DG     O19 1974   4.791   1.996   3.442 -0.5028 -0.3919 -0.3366
   86DG     H20 1975   4.823   2.057   3.246 -1.0262  1.0176 -0.1875
   86DG     H21 1976   4.657   2.052   3.281  1.0217  1.1572 -4.4090
   86DG     H22 1977   4.755   1.822   3.335 -0.4899  0.8254 -0.0072
   86DG     H23 1978   4.624   1.860   3.447  0.8157 -1.5403 -0.1446
   87DG      C1 1979   3.009   1.240   4.548  0.3578  0.0734  0.3236
   87DG      C2 1980   2.786   1.185   3.709 -0.1213 -0.0236  0.2716
   87DG      H3 1981   3.031   1.323   4.614 -0.4731  0.0256  0.6749
   87DG      H4 1982   3.105   1.199   4.515  0.9037  0.5019  1.3510
   87DG      H5 1983   2.969   1.164   4.615 -4.4135 -0.6573 -2.8695
   87DG      H6 1984   2.690   1.146   3.743  0.5075 -1.1364  0.8227
   87DG      H7 1985   2.766   1.239   3.617 -1.8645  3.0056  2.2713
   87DG      H8 1986   2.849   1.099   3.686  1.4189  1.1120  0.0585
   87DG      O9 1987   2.933   1.261   4.431  0.2855  0.1896 -0.0306
   87DG     O10 1988   2.850   1.270   3.807 -0.4906 -0.2242 -0.3059
   87DG     C11 1989   2.906   1.134   4.365  0.0420  0.0508  0.7748
   87DG     C12 1990   2.863   1.208   3.936  0.3489 -0.2700 -0.2441
   87DG     H13 1991   2.829   1.075   4.413  2.0529 -4.1742 -0.7406
   87DG     H14 1992   2.992   1.068   4.376  0.4236  0.4775  0.4111
   87DG     H15 1993   2.914   1.111   3.933  2.0294  0.5889 -0.5005
   87DG     H16 1994   2.762   1.178   3.966  0.7764 -0.8728  0.6453
   87DG     C17 1995   2.869   1.167   4.220  1.0083  0.0723  0.3475
   87DG     C18 1996   2.926   1.310   4.038  0.3217  0.2558  0.2869
   87DG     O19 1997   2.974   1.243   4.152  0.3754 -0.0880 -0.4255
   87DG     H20 1998   2.781   1.231   4.223  1.5410  0.9059 -0.9421
   87DG     H21 1999   2.847   1.072   4.170  2.0721  0.2472 -0.4876
   87DG     H22 2000   3.007   1.361   3.985 -0.1171 -1.4218 -2.1799
   87DG     H23 2001   2.847   1.381   4.061 -0.8439 -0.7627 -0.4611
   88DG      C1 2002   1.387   1.016   0.364  0.6720  0.0862 -0.2716
   88DG      C2 2003   0.835   0.609   0.687 -0.2143  0.1690 -0.7006
   88DG      H3 2004   1.455   1.006   0.280  0.5319 -0.7396 -0.2934
   88DG      H4 2005   1.427   0.966   0.452  1.6141 -1.1279 -1.3540
   88DG      H5 2006   1.398   1.123   0.381 -0.0993  0.3584 -1.3674
   88DG      H6 2007   0.857   0.540   0.768  3.1800  1.4207 -0.3940
   88DG      H7 2008   0.813   0.710   0.721 -1.1975  0.3599 -1.8152
   88DG      H8 2009   0.745   0.567   0.641  0.5299 -1.5084 -0.6907
   88DG      O9 2010   1.267   0.962   0.332  0.3838  0.2798  0.0624
   88DG     O10 2011   0.941   0.613   0.590 -0.4039 -0.5581 -0.3784
   88DG     C11 2012   1.264   0.829   0.273 -0.2400 -0.3035 -0.1399
   88DG     C12 2013   1.065   0.615   0.663  0.3378  0.2841  0.1037
   88DG     H13 2014   1.348   0.809   0.207 -0.1297 -2.6942  0.6558
   88DG     H14 2015   1.168   0.811   0.224 -1.2855  2.5030  0.6699
   88DG     H15 2016   1.076   0.527   0.725 -0.5955  0.6470  0.8236
   88DG     H16 2017   1.074   0.703   0.727 -0.9437 -2.5465  4.6401
   88DG     C17 2018   1.286   0.731   0.388 -0.2271  0.2417  0.1174
   88DG     C18 2019   1.172   0.610   0.558  0.0727  0.1157  0.5377
   88DG     O19 2020   1.170   0.716   0.468 -0.3905 -0.1279 -0.6801
   88DG     H20 2021   1.374   0.763   0.445 -0.3338 -0.3206  0.6149
   88DG     H21 2022   1.303   0.631   0.347 -0.8175  0.7301 -1.3681
   88DG     H22 2023   1.266   0.613   0.614  0.8743 -0.5655 -0.7170
   88DG     H23 2024   1.179   0.512   0.509  3.3907 -1.2626  3.2794
   89DG      C1 2025   1.958   0.107   5.022 -0.4657 -0.0086 -0.1636
   89DG      C2 2026   2.234   0.816   4.604 -1.1630 -0.1857 -0.0432
   89DG      H3 2027   1.960   0.041   4.935  0.1123  0.6488 -0.6647
   89DG      H4 2028   1.870   0.166   5.045 -0.9628 -0.8386  0.0671
   89DG      H5 2029   1.981   0.038   5.104 -1.3467 -1.2354 -0.9208
   89DG      H6 2030   2.168   0.899   4.628 -1.8021 -0.5610 -0.4482
   89DG      H7 2031   2.334   0.855   4.590 -1.3741  0.5087  0.3630
   89DG      H8 2032   2.203   0.759   4.516  0.7499 -2.8546  0.8562
   89DG      O9 2033   2.075   0.191   5.029 -0.0388 -0.3930  0.0507
   89DG     O10 2034   2.222   0.733   4.718 -0.0228  0.1155  0.0085
   89DG     C11 2035   2.070   0.294   4.931 -0.6248 -1.2135  0.3448
   89DG     C12 2036   2.327   0.644   4.721 -0.0175  0.4963  0.2971
   89DG     H13 2037   1.985   0.361   4.943  0.3445  0.1629 -0.2253
   89DG     H14 2038   2.071   0.244   4.834 -0.7654  1.0650 -0.9015
   89DG     H15 2039   2.420   0.700   4.730  0.3605 -0.0179 -0.2620
   89DG     H16 2040   2.332   0.565   4.645 -1.7809 -0.0159  0.6681
   89DG     C17 2041   2.192   0.384   4.945  0.0448  0.0610 -0.0628
   89DG     C18 2042   2.328   0.551   4.852 -0.0358  0.0745 -0.3223
   89DG     O19 2043   2.205   0.481   4.850 -0.2174 -0.0452  0.3789
   89DG     H20 2044   2.278   0.318   4.935 -0.0744  0.1856 -2.7275
   89DG     H21 2045   2.191   0.436   5.040  0.2629  0.4304 -0.2583
   89DG     H22 2046   2.411   0.481   4.850  0.4746  0.6656 -2.1881
   89DG     H23 2047   2.339   0.625   4.931  0.3473  0.7464 -0.9928
   90DG      C1 2048   2.576   1.626   5.284  0.1592 -0.2832  0.2901
   90DG      C2 2049   2.656   1.534   4.659  0.2743  0.8411 -0.4129
   90DG      H3 2050   2.654   1.694   5.252 -1.6993  2.8514  1.9533
   90DG      H4 2051   2.612   1.548   5.352 -0.0947 -2.6749 -2.1537
   90DG      H5 2052   2.508   1.679   5.350  1.0275  1.1641  0.0753
   90DG      H6 2053   2.613   1.588   4.574 -2.7518  0.9293  1.0379
   90DG      H7 2054   2.744   1.589   4.692  0.2982  0.0738  0.8715
   90DG      H8 2055   2.693   1.435   4.632 -0.0163  0.3178  0.9994
   90DG      O9 2056   2.497   1.579   5.176  0.0552  0.0659  0.5813
   90DG     O10 2057   2.563   1.525   4.762 -0.2928 -0.1370 -0.1760
   90DG     C11 2058   2.424   1.462   5.204  0.0673  0.1272 -0.2617
   90DG     C12 2059   2.445   1.454   4.731  0.8015 -0.1564 -0.2841
   90DG     H13 2060   2.359   1.481   5.289  0.9189 -0.3601  0.5165
   90DG     H14 2061   2.482   1.375   5.236  1.3659  0.4328 -1.6589
   90DG     H15 2062   2.465   1.349   4.710 -1.7761 -1.0418  1.1470
   90DG     H16 2063   2.406   1.494   4.637  0.6993 -0.4321 -0.3598
   90DG     C17 2064   2.335   1.441   5.083 -0.3765  0.3440 -0.4294
   90DG     C18 2065   2.349   1.459   4.852 -0.3175 -0.1200 -0.9272
   90DG     O19 2066   2.421   1.428   4.970  0.1664  0.3654  0.3121
   90DG     H20 2067   2.267   1.526   5.077 -0.3526  0.4160  0.2184
   90DG     H21 2068   2.276   1.349   5.096 -0.4254  0.4472  0.1173
   90DG     H22 2069   2.307   1.560   4.852  1.7593  0.8593 -3.0677
   90DG     H23 2070   2.266   1.390   4.840 -0.2750 -0.8663  2.2139
   91DG      C1 2071   4.473   3.719   5.002 -0.4977  0.1901 -0.2880
   91DG      C2 2072   4.747   3.174   4.692  0.2904 -1.1556  0.1164
   91DG      H3 2073   4.406   3.737   5.086  0.7153  0.8107  0.5730
   91DG      H4 2074   4.415   3.691   4.914  0.9525 -0.4350 -1.0870
   91DG      H5 2075   4.511   3.815   4.968 -3.5572  1.1725 -1.2614
   91DG      H6 2076   4.841   3.194   4.640  0.7354 -3.8598 -0.2272
   91DG      H7 2077   4.729   3.069   4.713  1.4526 -1.4409 -0.2237
   91DG      H8 2078   4.672   3.198   4.617  1.3711  0.2201 -0.5840
   91DG      O9 2079   4.581   3.618   5.019  0.4001  0.3187 -0.0579
   91DG     O10 2080   4.735   3.254   4.813 -0.6960 -0.1900 -0.2004
   91DG     C11 2081   4.663   3.630   5.134 -0.0903 -0.4384  0.4281
   91DG     C12 2082   4.833   3.229   4.910  0.4515  0.1108 -0.1766
   91DG     H13 2083   4.608   3.613   5.227  0.6368 -1.8768  0.6122
   91DG     H14 2084   4.699   3.733   5.145 -1.6787  0.3544 -1.2387
   91DG     H15 2085   4.927   3.193   4.870  1.3246 -1.8130  3.2199
   91DG     H16 2086   4.802   3.152   4.981  1.2553 -1.2243 -1.2243
   91DG     C17 2087   4.788   3.540   5.127 -0.0696 -0.2933  0.3486
   91DG     C18 2088   4.860   3.358   4.987  0.1118  0.1354  0.7236
   91DG     O19 2089   4.753   3.422   5.048 -0.2941  0.1905 -0.1793
   91DG     H20 2090   4.843   3.521   5.220  0.9656  0.0927 -0.1656
   91DG     H21 2091   4.858   3.591   5.061  1.5582 -0.3308  1.9369
   91DG     H22 2092   4.933   3.345   5.067 -2.2704  0.7746  3.1479
   91DG     H23 2093   4.906   3.426   4.915 -0.5181 -1.0485 -0.8679
   92DG      C1 2094   1.668   1.453   1.925 -0.1210  0.5374  0.2214
   92DG      C2 2095   1.391   1.352   1.396 -0.0146 -0.2942  0.4077
   92DG      H3 2096   1.650   1.375   1.999  3.7103 -0.4841  0.2853
   92DG      H4 2097   1.574   1.508   1.924 -0.9141 -0.6497  2.2154
   92DG      H5 2098   1.760   1.497   1.963  0.9185 -1.2716 -0.0876
   92DG      H6 2099   1.349   1.301   1.483 -2.4169  2.2021  0.8442
   92DG      H7 2100   1.448   1.437   1.435 -2.4033  1.9289 -0.6544
   92DG      H8 2101   1.301   1.376   1.340 -0.6248  1.6573  2.1036
   92DG      O9 2102   1.688   1.398   1.798  0.5602  0.6089  0.0059
   92DG     O10 2103   1.472   1.263   1.315 -0.7354 -0.3323 -0.6081
   92DG     C11 2104   1.725   1.499   1.707 -1.0632 -0.2456  0.3559
   92DG     C12 2105   1.561   1.172   1.388 -0.1519  0.3805  0.0717
   92DG     H13 2106   1.807   1.563   1.739  1.8273 -3.5042  0.1207
   92DG     H14 2107   1.638   1.564   1.699 -2.8291 -1.3571  6.2771
   92DG     H15 2108   1.569   1.098   1.308  1.5761  2.6430 -1.9944
   92DG     H16 2109   1.515   1.119   1.472  0.8178  0.4388  0.6524
   92DG     C17 2110   1.771   1.410   1.579  0.0976  0.1506 -0.8980
   92DG     C18 2111   1.695   1.239   1.432  0.0751  0.1542  0.6892
   92DG     O19 2112   1.670   1.309   1.550  0.1400  0.7194 -0.0341
   92DG     H20 2113   1.865   1.359   1.601 -0.3614  0.0703  1.1263
   92DG     H21 2114   1.780   1.476   1.493 -2.1259  1.8665  0.0916
   92DG     H22 2115   1.782   1.173   1.441 -0.8173 -0.8783  2.2139
   92DG     H23 2116   1.732   1.308   1.356 -1.0985 -1.6813 -1.7038
   93DG      C1 2117   1.750   0.310   1.335  0.0621 -0.3568 -0.6170
   93DG      C2 2118   2.061   0.050   0.845 -0.0953 -0.1084  0.2605
   93DG      H3 2119   1.680   0.346   1.410 -1.1325 -3.1235 -0.2911
   93DG      H4 2120   1.733   0.348   1.234 -1.1402 -0.0704 -0.3240
   93DG      H5 2121   1.845   0.326   1.385 -0.1191 -1.1950  0.0127
   93DG      H6 2122   2.078  -0.056   0.864 -0.9980 -0.6526 -1.6162
   93DG      H7 2123   2.060   0.061   0.736 -0.8411  0.3034  0.3018
   93DG      H8 2124   2.142   0.120   0.864  1.8183 -1.9130 -0.8060
   93DG      O9 2125   1.741   0.168   1.337  0.1972 -0.3015 -0.0087
   93DG     O10 2126   1.940   0.105   0.906 -0.0923  0.2464 -0.3006
   93DG     C11 2127   1.607   0.117   1.290  0.0157 -0.3619 -0.0553
   93DG     C12 2128   1.824   0.027   0.871 -0.1738 -0.0311 -0.5478
   93DG     H13 2129   1.530   0.171   1.345  1.6272  0.6807  1.2706
   93DG     H14 2130   1.613   0.011   1.315 -0.4230 -0.2044  0.7596
   93DG     H15 2131   1.847  -0.078   0.891  1.2878  0.1871 -0.9533
   93DG     H16 2132   1.810   0.031   0.763  2.6424 -0.9718 -1.0351
   93DG     C17 2133   1.592   0.139   1.144 -0.4078 -0.5269  0.3934
   93DG     C18 2134   1.699   0.079   0.935  0.1870 -0.5031 -0.4006
   93DG     O19 2135   1.704   0.089   1.083 -0.0077 -0.6034 -0.1545
   93DG     H20 2136   1.589   0.248   1.138  1.6402 -0.4360  0.3117
   93DG     H21 2137   1.495   0.101   1.111 -0.7250  0.8878 -0.3515
   93DG     H22 2138   1.656   0.164   0.881 -0.5732  0.0125  0.9471
   93DG     H23 2139   1.619   0.009   0.912 -1.0799  0.5996  0.4459
   94DG      C1 2140   2.977   2.879   2.011 -0.0240 -0.4904  0.7943
   94DG      C2 2141   2.486   2.332   2.167  0.1882 -0.4075  0.9151
   94DG      H3 2142   2.972   2.918   2.113 -1.8705  0.4522  0.3925
   94DG      H4 2143   2.960   2.974   1.961  0.6371 -1.0032 -0.4342
   94DG      H5 2144   3.075   2.839   1.988 -0.7018 -1.3365 -0.7640
   94DG      H6 2145   2.382   2.305   2.150  0.3684 -0.2850 -0.4518
   94DG      H7 2146   2.546   2.241   2.162 -0.2545 -0.7795  2.0633
   94DG      H8 2147   2.501   2.353   2.273  0.2296  2.1880  0.4685
   94DG      O9 2148   2.867   2.799   1.989  0.5591  0.3964 -0.8986
   94DG     O10 2149   2.538   2.443   2.091 -0.6716  0.1031 -0.0997
   94DG     C11 2150   2.874   2.728   1.876 -0.3832  0.1304  0.6981
   94DG     C12 2151   2.510   2.427   1.956 -0.0777  0.1429  0.5778
   94DG     H13 2152   2.944   2.644   1.875 -1.3790 -0.7196  0.3835
   94DG     H14 2153   2.910   2.789   1.793  3.1646 -1.1147  1.1444
   94DG     H15 2154   2.401   2.422   1.946  0.0263  0.0485 -0.7872
   94DG     H16 2155   2.550   2.328   1.933  1.1622  0.4481  1.3591
   94DG     C17 2156   2.740   2.682   1.816  0.4691  1.6609 -0.3736
   94DG     C18 2157   2.553   2.533   1.853 -0.2782  0.1925 -0.3311
   94DG     O19 2158   2.693   2.556   1.876 -0.0839 -0.3359 -0.2152
   94DG     H20 2159   2.751   2.663   1.709  0.6609 -0.9346  0.0517
   94DG     H21 2160   2.660   2.756   1.830 -0.9165  0.7780 -2.8991
   94DG     H22 2161   2.526   2.507   1.751 -0.1897  1.0005 -0.5693
   94DG     H23 2162   2.493   2.618   1.884 -0.6732 -0.0526 -0.4184
   95DG      C1 2163   3.461   3.986   4.528 -0.0096 -0.4359  0.2140
   95DG      C2 2164   3.089   3.365   4.575 -0.0005  0.5320 -0.4033
   95DG      H3 2165   3.474   3.920   4.441  0.6197  2.0629 -1.7123
   95DG      H4 2166   3.554   4.034   4.559 -0.9837  2.2129 -0.6617
   95DG      H5 2167   3.398   4.066   4.489 -0.7170 -0.7719  0.6561
   95DG      H6 2168   3.006   3.394   4.510 -0.4169 -0.0215 -0.1311
   95DG      H7 2169   3.160   3.302   4.524 -0.5990 -1.4638  1.1169
   95DG      H8 2170   3.045   3.303   4.654  0.3868 -0.9145 -1.2928
   95DG      O9 2171   3.402   3.919   4.642 -0.2959 -0.6079 -0.3330
   95DG     O10 2172   3.158   3.466   4.643  0.0013 -0.1184  0.6122
   95DG     C11 2173   3.500   3.837   4.706 -0.2744  0.3573 -0.3079
   95DG     C12 2174   3.265   3.416   4.718 -0.4407 -0.3916 -0.2383
   95DG     H13 2175   3.570   3.888   4.771 -0.4237 -0.9786  0.9576
   95DG     H14 2176   3.562   3.778   4.637  0.7608  0.7080  0.2964
   95DG     H15 2177   3.334   3.362   4.652 -2.4215 -1.9304 -1.1492
   95DG     H16 2178   3.225   3.336   4.780  1.7567  0.7285  2.8442
   95DG     C17 2179   3.443   3.735   4.802 -0.6421 -0.1864  0.3238
   95DG     C18 2180   3.338   3.519   4.804  0.1351 -0.1695 -0.0955
   95DG     O19 2181   3.372   3.633   4.724 -0.1143 -0.1254 -0.5259
   95DG     H20 2182   3.377   3.783   4.873 -0.0728  0.7293  0.2526
   95DG     H21 2183   3.532   3.699   4.853  0.1855 -0.5779 -1.3093
   95DG     H22 2184   3.263   3.547   4.878 -1.7068  1.4707 -2.4157
   95DG     H23 2185   3.426   3.484   4.858  0.0603  1.3365  1.0711
   96DG      C1 2186   1.641   0.599   2.155  0.3000 -0.3182 -0.4809
   96DG      C2 2187   1.562   1.108   2.503  0.1107  0.4613  0.4060
   96DG      H3 2188   1.589   0.563   2.066 -0.1974 -2.1900  0.5051
   96DG      H4 2189   1.700   0.512   2.184 -0.0832 -0.4420 -0.0593
   96DG      H5 2190   1.709   0.681   2.137  1.3062 -0.3775  2.5372
   96DG      H6 2191   1.537   1.059   2.597  1.9247  0.1583  0.7664
   96DG      H7 2192   1.634   1.046   2.450 -0.2749  0.8058 -0.5509
   96DG      H8 2193   1.606   1.207   2.515 -1.2640  1.2842 -0.9655
   96DG      O9 2194   1.543   0.644   2.254  0.1707 -0.1394 -0.0556
   96DG     O10 2195   1.445   1.128   2.424 -0.0619  0.3537  0.1129
   96DG     C11 2196   1.604   0.652   2.383 -0.5404  0.4123  0.0126
   96DG     C12 2197   1.364   1.014   2.389  0.0402  0.1181 -0.2919
   96DG     H13 2198   1.677   0.733   2.390  1.1876 -1.1060  0.3976
   96DG     H14 2199   1.652   0.555   2.401  0.4974  0.6853 -1.1699
   96DG     H15 2200   1.302   1.041   2.303 -0.9762  2.6514  1.1270
   96DG     H16 2201   1.297   1.003   2.474  0.8817  1.2908  0.5524
   96DG     C17 2202   1.496   0.684   2.489 -0.3942  0.3257  0.3428
   96DG     C18 2203   1.422   0.877   2.353 -0.3172  0.3452  0.7648
   96DG     O19 2204   1.470   0.829   2.485 -0.0580  0.2613  0.0884
   96DG     H20 2205   1.529   0.664   2.591  0.3164  2.8227  0.6606
   96DG     H21 2206   1.406   0.622   2.492  0.9106 -1.7182 -0.7155
   96DG     H22 2207   1.340   0.816   2.318  1.6544 -2.9194  1.3730
   96DG     H23 2208   1.484   0.888   2.264  0.7954 -0.9693  1.3286
   97DG      C1 2209   0.563   0.160   1.694  0.2286  0.3420 -0.0706
   97DG      C2 2210   0.094  -0.344   1.400  1.2167 -0.1371  0.0604
   97DG      H3 2211   0.578   0.184   1.799 -1.4319 -0.5341  0.4167
   97DG      H4 2212   0.623   0.223   1.629 -1.2977  2.1360  0.1789
   97DG      H5 2213   0.589   0.057   1.670  2.1597  0.9343 -0.6561
   97DG      H6 2214   0.075  -0.438   1.451 -1.4069 -0.0441 -0.6072
   97DG      H7 2215   0.012  -0.330   1.329  1.7664  1.0219 -0.3769
   97DG      H8 2216   0.184  -0.365   1.342  0.8833 -4.6475  0.7637
   97DG      O9 2217   0.426   0.160   1.659 -0.3796  0.0236 -0.1295
   97DG     O10 2218   0.110  -0.236   1.486 -0.3613  0.2133 -0.5813
   97DG     C11 2219   0.335   0.137   1.765 -0.0015  0.3410 -0.6886
   97DG     C12 2220   0.061  -0.112   1.438  0.2409 -0.1722 -0.3142
   97DG     H13 2221   0.332   0.223   1.833 -1.1686 -0.0377 -0.2288
   97DG     H14 2222   0.361   0.050   1.825  0.1917 -0.3330 -1.7266
   97DG     H15 2223  -0.034  -0.120   1.386 -0.2790 -0.2878  0.6489
   97DG     H16 2224   0.119  -0.058   1.363 -0.6312  0.7412 -0.3487
   97DG     C17 2225   0.189   0.122   1.707 -0.0705  0.1856  0.2884
   97DG     C18 2226   0.060  -0.013   1.559  0.6760  0.0095  0.0238
   97DG     O19 2227   0.188   0.012   1.615  0.0867  0.2234 -0.7273
   97DG     H20 2228   0.161   0.219   1.665 -0.6323 -0.6095 -1.2487
   97DG     H21 2229   0.120   0.096   1.787  0.7094 -2.3656  0.2012
   97DG     H22 2230   0.029   0.085   1.523  2.1602  0.4938 -0.0266
   97DG     H23 2231  -0.014  -0.048   1.630 -0.1006 -1.7577 -1.5941
   98DG      C1 2232   1.166   3.488   2.823  0.4774 -0.3113  0.0634
   98DG      C2 2233   1.505   3.697   3.320 -0.0092  0.6570  0.0874
   98DG      H3 2234   1.077   3.501   2.762 -0.0305 -0.8495  0.6767
   98DG      H4 2235   1.151   3.412   2.899 -0.9107 -1.4147 -1.2549
   98DG      H5 2236   1.243   3.457   2.752  1.4595  0.5812  0.7074
   98DG      H6 2237   1.396   3.686   3.312  0.2555 -3.2851 -0.4898
   98DG      H7 2238   1.544   3.598   3.296 -1.4369 -0.1840  1.0220
   98DG      H8 2239   1.520   3.710   3.427  0.4550  1.8308 -0.1103
   98DG      O9 2240   1.184   3.618   2.881 -0.4018  0.1333  0.4733
   98DG     O10 2241   1.560   3.803   3.246  0.0156  0.1502 -0.0480
   98DG     C11 2242   1.203   3.726   2.794  0.6270 -1.3252 -0.4155
   98DG     C12 2243   1.542   3.788   3.107 -0.0831 -0.8468 -0.2368
   98DG     H13 2244   1.105   3.748   2.752  0.9433  1.0858 -0.0002
   98DG     H14 2245   1.273   3.707   2.713 -0.0475 -0.0903 -1.3120
   98DG     H15 2246   1.589   3.699   3.066  3.1245 -0.9552  3.1724
   98DG     H16 2247   1.603   3.861   3.053  1.0430 -1.5519  0.0368
   98DG     C17 2248   1.249   3.851   2.867 -0.3971  0.0230 -1.2332
   98DG     C18 2249   1.392   3.799   3.063  0.0339 -0.4465  0.0860
   98DG     O19 2250   1.377   3.840   2.926 -0.0524  0.0501  0.3671
   98DG     H20 2251   1.179   3.880   2.945 -0.9091 -0.2844 -1.5737
   98DG     H21 2252   1.248   3.934   2.796 -2.6404  0.8517 -0.3242
   98DG     H22 2253   1.338   3.704   3.066 -0.0737 -0.3695  0.7431
   98DG     H23 2254   1.355   3.873   3.134  0.0645  0.3544 -0.7224
   99DG      C1 2255   1.306   1.448   1.800  0.2927 -0.6108  0.0439
   99DG      C2 2256   0.805   1.798   2.059 -0.1531  0.8030  0.1001
   99DG      H3 2257   1.398   1.452   1.742  0.2598  0.5555  0.0413
   99DG      H4 2258   1.261   1.349   1.808 -0.0487 -0.3213  3.6081
   99DG      H5 2259   1.331   1.467   1.904  1.6002  1.1226 -0.5446
   99DG      H6 2260   0.872   1.883   2.071  0.5140  0.4691 -1.1136
   99DG      H7 2261   0.767   1.783   2.160  1.8602  0.1547  0.8271
   99DG      H8 2262   0.877   1.716   2.049  0.0474  0.6168  2.4415
   99DG      O9 2263   1.223   1.551   1.745  0.2632  0.8578  0.4946
   99DG     O10 2264   0.708   1.820   1.963  0.1268  0.0290 -0.2001
   99DG     C11 2265   1.099   1.555   1.821  0.4515  0.0040  0.8468
   99DG     C12 2266   0.745   1.836   1.826  0.2170  0.3335 -0.3885
   99DG     H13 2267   1.110   1.595   1.921  1.4575  1.0604  0.3392
   99DG     H14 2268   1.051   1.457   1.830 -0.7165  0.3984 -0.7368
   99DG     H15 2269   0.829   1.902   1.808 -0.5094  1.7487  1.1860
   99DG     H16 2270   0.667   1.901   1.788  0.9648  0.5063 -1.6550
   99DG     C17 2271   1.003   1.646   1.751 -0.2738 -0.6574  0.2543
   99DG     C18 2272   0.764   1.696   1.755  0.1002  0.1926  0.0321
   99DG     O19 2273   0.873   1.629   1.807 -0.3277  0.1873 -0.4778
   99DG     H20 2274   0.999   1.613   1.647 -0.5763 -0.5802  0.2419
   99DG     H21 2275   1.040   1.748   1.747 -0.0581 -0.7266  0.4951
   99DG     H22 2276   0.673   1.639   1.769  0.7528 -0.7783  0.4512
   99DG     H23 2277   0.780   1.704   1.647  0.0693  0.2217  0.0295
  100DG      C1 2278   4.718   0.004   1.855 -0.4911 -0.6679 -0.2612
  100DG      C2 2279   4.191  -0.370   2.040  0.1910  0.6515  0.2295
  100DG      H3 2280   4.753   0.003   1.752 -2.4531  0.8184 -1.0229
  100DG      H4 2281   4.776  -0.060   1.921 -1.4638 -0.2135  1.1068
  100DG      H5 2282   4.728   0.105   1.896  1.3246 -0.9524  0.0803
  100DG      H6 2283   4.237  -0.337   2.133  0.2885  0.7745  0.1379
  100DG      H7 2284   4.086  -0.386   2.066 -0.7557  4.3224 -0.7319
  100DG      H8 2285   4.241  -0.465   2.021  1.8261  0.9096  2.6920
  100DG      O9 2286   4.579  -0.028   1.847  0.2289 -0.4774 -0.3399
  100DG     O10 2287   4.203  -0.270   1.926 -0.1147  0.1154 -0.1052
  100DG     C11 2288   4.510   0.077   1.780 -0.0091  0.1269 -0.0591
  100DG     C12 2289   4.141  -0.146   1.966 -0.2682 -0.5287 -0.1981
  100DG     H13 2290   4.562   0.116   1.693  0.9758  0.4358  0.6556
  100DG     H14 2291   4.498   0.158   1.851 -0.6337 -1.0913  1.2896
  100DG     H15 2292   4.183  -0.102   2.056 -0.4463  1.2739 -0.9545
  100DG     H16 2293   4.036  -0.172   1.977 -0.6423  1.0081  0.0898
  100DG     C17 2294   4.371   0.030   1.733 -0.0498 -0.1384 -0.3903
  100DG     C18 2295   4.176  -0.054   1.853 -0.0161 -0.2391 -0.0241
  100DG     O19 2296   4.309  -0.010   1.855  0.3690 -0.2737 -0.4344
  100DG     H20 2297   4.375  -0.059   1.670 -0.9142 -1.6146  1.5255
  100DG     H21 2298   4.324   0.111   1.679 -1.8997 -0.8503  0.0707
  100DG     H22 2299   4.153  -0.104   1.759 -0.9541  2.0209 -1.0699
  100DG     H23 2300   4.114   0.035   1.847  0.4173  0.3141  2.6583
  101DG      C1 2301   0.027   0.862   4.289 -0.3211 -0.0720  0.7832
  101DG      C2 2302  -0.057   0.932   4.959  0.1440  0.5635  0.3033
  101DG      H3 2303   0.100   0.863   4.208  0.2353  1.1294  1.2714
  101DG      H4 2304   0.014   0.967   4.314 -0.0647  0.0909  0.2517
  101DG      H5 2305  -0.063   0.821   4.244  1.3429 -2.1823 -0.8357
  101DG      H6 2306  -0.136   0.858   4.976 -1.6369  2.2604 -0.2595
  101DG      H7 2307  -0.015   0.940   5.060  1.3875 -1.7324  0.0539
  101DG      H8 2308  -0.118   1.018   4.934 -1.0546 -0.4317 -0.3272
  101DG      O9 2309   0.090   0.798   4.403  0.1207  0.6925  0.2282
  101DG     O10 2310   0.026   0.905   4.851 -0.3402  0.1540 -0.2377
  101DG     C11 2311   0.232   0.816   4.417 -0.9002 -0.4448  0.2164
  101DG     C12 2312   0.099   0.782   4.868 -0.0668 -0.3749 -0.9095
  101DG     H13 2313   0.250   0.923   4.408 -1.5536 -0.2402  1.1092
  101DG     H14 2314   0.294   0.763   4.345 -0.5914 -0.0262  0.1728
  101DG     H15 2315   0.022   0.705   4.857 -0.4638 -0.2811  0.9519
  101DG     H16 2316   0.123   0.762   4.972 -1.5881  0.1670 -0.4369
  101DG     C17 2317   0.289   0.772   4.545  0.0251 -0.4579  0.0614
  101DG     C18 2318   0.216   0.753   4.776 -0.7426 -0.3233 -0.1604
  101DG     O19 2319   0.184   0.781   4.643  0.2389 -0.1157  0.5217
  101DG     H20 2320   0.370   0.839   4.570 -1.0458  1.0756 -0.4346
  101DG     H21 2321   0.316   0.667   4.532 -1.7079 -0.8331 -0.8921
  101DG     H22 2322   0.298   0.816   4.810 -0.2217 -0.9705 -0.1942
  101DG     H23 2323   0.226   0.645   4.788 -0.0885 -0.2641 -0.1445
  102DG      C1 2324   5.077   2.676   2.416 -0.1180  0.4098 -0.2194
  102DG      C2 2325   4.959   2.577   1.573 -0.5744 -0.2619 -0.1219
  102DG      H3 2326   5.070   2.727   2.512  0.8378  0.6677 -0.2804
  102DG      H4 2327   5.182   2.656   2.396  0.0833 -0.0727  1.1691
  102DG      H5 2328   5.040   2.576   2.438  0.0363  0.3907 -0.0449
  102DG      H6 2329   4.902   2.485   1.570  0.7643 -1.1027 -0.5994
  102DG      H7 2330   4.935   2.616   1.474  1.5072 -0.2119 -0.6638
  102DG      H8 2331   5.068   2.568   1.576 -0.5369  0.1418  2.8111
  102DG      O9 2332   5.012   2.756   2.318 -0.1242 -0.5260 -0.1091
  102DG     O10 2333   4.925   2.657   1.693 -0.0455 -0.1367  0.2393
  102DG     C11 2334   5.017   2.706   2.184  0.0337  0.0177 -0.1684
  102DG     C12 2335   4.973   2.789   1.712 -0.5176  0.1521  0.0149
  102DG     H13 2336   4.965   2.611   2.195  2.0374 -0.9353  1.8246
  102DG     H14 2337   5.117   2.685   2.145 -0.6669 -1.1856 -1.3967
  102DG     H15 2338   4.932   2.842   1.626  0.1080  2.4006  1.0226
  102DG     H16 2339   5.082   2.796   1.712 -0.5368  0.4618 -0.0531
  102DG     C17 2340   4.959   2.821   2.092 -0.5446 -0.3394 -0.5715
  102DG     C18 2341   4.929   2.854   1.846 -0.2359 -0.2417 -0.4306
  102DG     O19 2342   4.967   2.767   1.958 -0.2215  0.5007 -0.0943
  102DG     H20 2343   5.017   2.913   2.089  0.0116 -0.7021 -1.0859
  102DG     H21 2344   4.857   2.848   2.119 -0.0026  0.8285  0.4145
  102DG     H22 2345   4.985   2.947   1.851 -1.3496  0.3888  0.9278
  102DG     H23 2346   4.823   2.877   1.843 -0.2554 -0.3852 -1.0791
  103DG      C1 2347   1.230   0.786   1.162  0.2780 -0.3278 -0.1521
  103DG      C2 2348   0.681   1.076   0.896  0.1019  0.1440  0.1079
  103DG      H3 2349   1.180   0.706   1.217  0.0567  0.4393  0.7892
  103DG      H4 2350   1.331   0.782   1.202 -0.8203 -1.6187  2.7719
  103DG      H5 2351   1.239   0.757   1.057  4.1848 -2.1319  0.5276
  103DG      H6 2352   0.585   1.112   0.935 -0.4500 -0.8275 -0.3322
  103DG      H7 2353   0.693   1.113   0.795 -0.2422 -1.6019 -0.6118
  103DG      H8 2354   0.660   0.970   0.882 -2.4262  0.7707 -1.5760
  103DG      O9 2355   1.174   0.913   1.195  0.1564 -0.3501 -0.4446
  103DG     O10 2356   0.787   1.094   0.985 -0.4675  0.1487 -0.6440
  103DG     C11 2357   1.256   1.015   1.135 -0.1869  0.2098  0.2511
  103DG     C12 2358   0.829   1.232   0.991  0.1557  0.3457 -0.5401
  103DG     H13 2359   1.282   0.996   1.031  1.0676  2.2776  0.1191
  103DG     H14 2360   1.345   1.028   1.197 -0.0805  0.5758  0.0281
  103DG     H15 2361   0.751   1.287   1.043  0.0353  0.2748 -0.6460
  103DG     H16 2362   0.854   1.269   0.892 -2.0762  1.3114 -0.7868
  103DG     C17 2363   1.171   1.142   1.139 -0.3868 -0.3936 -0.6492
  103DG     C18 2364   0.965   1.237   1.071  0.3543 -0.7374 -0.2613
  103DG     O19 2365   1.060   1.133   1.050  0.5394 -0.0187 -0.0553
  103DG     H20 2366   1.226   1.234   1.117 -1.4739  0.9692  1.9045
  103DG     H21 2367   1.141   1.157   1.243  1.2205  1.5327 -0.4045
  103DG     H22 2368   1.008   1.337   1.057  3.6495 -1.9032  0.6243
  103DG     H23 2369   0.944   1.243   1.178  1.8020  0.9648 -0.0147
  104DG      C1 2370   5.098   3.613   3.130 -0.5307 -0.4041  0.6155
  104DG      C2 2371   4.687   3.738   3.899  0.2838 -0.0616 -0.2464
  104DG      H3 2372   5.143   3.530   3.184  1.4713  1.0690  1.3482
  104DG      H4 2373   5.173   3.692   3.131  1.4849 -2.1449  3.1612
  104DG      H5 2374   5.079   3.584   3.027 -2.3628 -1.1688  1.1450
  104DG      H6 2375   4.584   3.704   3.913 -0.1865  1.6261  0.6660
  104DG      H7 2376   4.757   3.701   3.974 -1.3249 -0.7976  0.9703
  104DG      H8 2377   4.693   3.844   3.924 -3.9082 -0.3522  3.3029
  104DG      O9 2378   4.963   3.648   3.171 -0.4208  0.0823 -0.1274
  104DG     O10 2379   4.729   3.729   3.762  0.4635 -0.3786  0.0577
  104DG     C11 2380   4.957   3.689   3.311  0.1061  0.5999  0.5589
  104DG     C12 2381   4.629   3.764   3.664  0.1360  0.1310  0.2518
  104DG     H13 2382   4.987   3.794   3.315  1.8339  0.0910  2.2313
  104DG     H14 2383   5.015   3.627   3.380 -2.0852 -1.9664  0.2736
  104DG     H15 2384   4.626   3.868   3.631 -1.3099 -0.1623 -0.6458
  104DG     H16 2385   4.525   3.735   3.682 -0.8064  3.9630  1.9828
  104DG     C17 2386   4.809   3.672   3.358  0.2783  0.0296  0.0406
  104DG     C18 2387   4.665   3.697   3.529 -0.4747  0.5414  0.0810
  104DG     O19 2388   4.792   3.724   3.483 -0.2173  0.0374 -0.9666
  104DG     H20 2389   4.773   3.570   3.346 -0.9455  0.4333  0.1722
  104DG     H21 2390   4.744   3.736   3.298 -0.6221  0.7932  1.7621
  104DG     H22 2391   4.659   3.588   3.530  3.2770  0.1417 -2.3949
  104DG     H23 2392   4.591   3.718   3.451  1.2919  1.1136 -1.5180
  105DG      C1 2393   3.839   4.709   3.125  1.0292  0.2487 -0.0238
  105DG      C2 2394   3.516   4.463   3.678  0.6482 -0.4587 -0.1930
  105DG      H3 2395   3.849   4.601   3.120  2.8033  0.3025  1.3208
  105DG      H4 2396   3.928   4.761   3.160  1.9696 -0.7832 -0.8076
  105DG      H5 2397   3.829   4.748   3.024 -3.9239 -1.4568 -0.4882
  105DG      H6 2398   3.525   4.368   3.624 -2.3908 -0.8630 -0.1352
  105DG      H7 2399   3.597   4.460   3.752  3.1635  0.3192 -2.7375
  105DG      H8 2400   3.415   4.446   3.715 -0.3148  3.6053 -0.5833
  105DG      O9 2401   3.730   4.740   3.216 -0.4663  0.3120  0.5652
  105DG     O10 2402   3.514   4.570   3.581  0.2367 -0.0158 -0.5624
  105DG     C11 2403   3.714   4.875   3.237 -0.3566 -0.2642  0.4347
  105DG     C12 2404   3.496   4.696   3.639  0.1672  0.5989 -0.4565
  105DG     H13 2405   3.682   4.930   3.148  1.1111 -0.8224 -0.4758
  105DG     H14 2406   3.811   4.918   3.262  0.2729 -0.7980 -0.9452
  105DG     H15 2407   3.569   4.711   3.718 -2.1101  0.2605  1.8429
  105DG     H16 2408   3.399   4.705   3.687 -1.2303  2.0121 -3.2881
  105DG     C17 2409   3.620   4.910   3.355 -0.0393  0.2287  0.0687
  105DG     C18 2410   3.506   4.796   3.525 -0.3200  0.4185 -0.5125
  105DG     O19 2411   3.616   4.793   3.444 -0.2096 -0.0186  0.3008
  105DG     H20 2412   3.521   4.947   3.329 -0.5613 -1.7458 -0.9636
  105DG     H21 2413   3.654   4.999   3.409  0.3109 -0.4669  1.0227
  105DG     H22 2414   3.414   4.792   3.468 -0.0008  0.6090 -1.0442
  105DG     H23 2415   3.520   4.894   3.573  1.2515 -0.4885  1.0174
  106DG      C1 2416   3.408   4.612   5.058  0.2107 -0.4069 -0.7357
  106DG      C2 2417   3.132   4.031   5.204  0.3893  0.2082  0.3117
  106DG      H3 2418   3.423   4.596   5.165 -1.9242  0.3011 -0.2834
  106DG      H4 2419   3.317   4.671   5.048 -0.8265 -1.3530  2.0547
  106DG      H5 2420   3.485   4.676   5.016 -0.2700  2.2958  2.1236
  106DG      H6 2421   3.065   4.106   5.246 -0.0062 -1.1188  2.1912
  106DG      H7 2422   3.074   3.939   5.193  1.5382 -0.4191 -0.7910
  106DG      H8 2423   3.213   4.013   5.274 -0.6164  3.3733  2.5303
  106DG      O9 2424   3.388   4.486   4.992  0.0943 -0.3070 -0.8867
  106DG     O10 2425   3.194   4.082   5.090  0.0193 -0.7048 -0.2160
  106DG     C11 2426   3.372   4.491   4.848  0.5038 -1.1695  0.1781
  106DG     C12 2427   3.109   4.119   4.977 -0.2645 -0.2614  0.7245
  106DG     H13 2428   3.456   4.531   4.792 -2.9208  0.6993 -4.3567
  106DG     H14 2429   3.289   4.556   4.822  1.5679  0.9404  1.8059
  106DG     H15 2430   3.047   4.203   5.006  0.4995  0.0637  1.4637
  106DG     H16 2431   3.054   4.029   4.948  0.7279  0.2987 -3.5504
  106DG     C17 2432   3.336   4.354   4.794 -0.3299  0.3828  0.3823
  106DG     C18 2433   3.193   4.170   4.854  0.0406 -1.1149  0.2113
  106DG     O19 2434   3.245   4.293   4.889  0.3134 -0.2496 -0.1793
  106DG     H20 2435   3.430   4.299   4.802  0.3624  1.3711 -0.6934
  106DG     H21 2436   3.298   4.361   4.692  3.2098  1.3881 -0.9987
  106DG     H22 2437   3.271   4.101   4.823  1.1078 -0.7712  1.9657
  106DG     H23 2438   3.130   4.192   4.768 -1.1267 -0.5693  1.1648
  107DG      C1 2439   3.559   2.374   1.728 -0.0615 -0.4264 -0.2928
  107DG      C2 2440   3.338   1.837   1.226 -0.7764  0.4847 -0.2585
  107DG      H3 2441   3.605   2.327   1.815 -0.6110 -1.6891 -0.6576
  107DG      H4 2442   3.462   2.325   1.722  0.4697 -1.5960  0.3681
  107DG      H5 2443   3.546   2.481   1.742  0.2298 -0.6763  2.2689
  107DG      H6 2444   3.371   1.772   1.145  0.4022  0.5500  0.1442
  107DG      H7 2445   3.370   1.784   1.316 -1.3229  0.3625 -0.1335
  107DG      H8 2446   3.230   1.827   1.215 -0.7435 -3.9780  1.4438
  107DG      O9 2447   3.644   2.344   1.617  0.4530 -0.1158 -1.0498
  107DG     O10 2448   3.397   1.967   1.241 -0.4742  0.1063 -0.3131
  107DG     C11 2449   3.587   2.371   1.483 -0.1319 -0.2397 -0.3619
  107DG     C12 2450   3.545   1.952   1.248 -0.6847  0.6748 -0.1494
  107DG     H13 2451   3.611   2.475   1.459 -0.2946  0.0966  0.8561
  107DG     H14 2452   3.479   2.365   1.492  0.0318 -0.3990  2.6654
  107DG     H15 2453   3.583   1.891   1.167 -0.0041  1.2945 -0.3070
  107DG     H16 2454   3.568   1.894   1.337 -3.6327 -1.6432 -0.7163
  107DG     C17 2455   3.650   2.294   1.374 -0.1981  0.0293  0.2272
  107DG     C18 2456   3.603   2.096   1.251 -0.9296  0.3762  0.2347
  107DG     O19 2457   3.586   2.166   1.372 -0.0815 -0.6092  0.0704
  107DG     H20 2458   3.758   2.292   1.391 -0.2637 -0.2785  0.5960
  107DG     H21 2459   3.626   2.344   1.280 -0.2887 -1.4809 -0.5864
  107DG     H22 2460   3.710   2.092   1.231 -1.0947 -0.5982 -0.5482
  107DG     H23 2461   3.556   2.150   1.169  1.0195 -1.0176 -1.9271
  108DG      C1 2462   0.319   4.135   2.351  0.3228 -0.0846 -0.5852
  108DG      C2 2463   0.688   3.783   3.006 -0.0210  0.6355  0.4276
  108DG      H3 2464   0.314   4.047   2.287 -2.0555  0.3981 -1.1858
  108DG      H4 2465   0.374   4.208   2.290 -0.0774 -0.1080 -0.9817
  108DG      H5 2466   0.224   4.183   2.374 -0.1707 -1.7847  1.1532
  108DG      H6 2467   0.659   3.710   2.931 -0.7706 -0.4588  1.7327
  108DG      H7 2468   0.797   3.787   3.009  0.0521 -1.0236  0.9707
  108DG      H8 2469   0.666   3.735   3.101 -0.5205  2.3915  1.2292
  108DG      O9 2470   0.393   4.121   2.467  0.5433  0.2113  0.1679
  108DG     O10 2471   0.621   3.907   2.983 -0.2294  0.4320  0.4930
  108DG     C11 2472   0.441   4.240   2.534 -0.0288  0.2881  0.6213
  108DG     C12 2473   0.676   3.970   2.867  0.5586  0.4131  0.2330
  108DG     H13 2474   0.372   4.324   2.527 -0.2254  0.4044  3.0575
  108DG     H14 2475   0.530   4.282   2.488 -0.6440 -0.4961 -1.4007
  108DG     H15 2476   0.653   3.900   2.786  0.0814  2.2902 -1.3168
  108DG     H16 2477   0.784   3.979   2.868  0.5115  1.0539  1.5264
  108DG     C17 2478   0.465   4.207   2.685  0.0984 -1.0386 -0.3117
  108DG     C18 2479   0.604   4.099   2.836  0.5665  0.3923 -0.5379
  108DG     O19 2480   0.556   4.100   2.705  0.4385 -0.4349 -0.5044
  108DG     H20 2481   0.367   4.190   2.730 -0.9565 -1.4984 -2.6773
  108DG     H21 2482   0.498   4.296   2.738 -0.2382 -0.6831 -0.6999
  108DG     H22 2483   0.516   4.094   2.899 -1.0315 -1.5025 -2.7368
  108DG     H23 2484   0.664   4.189   2.847  0.4998  0.8730 -3.4122
  109DG      C1 2485   4.339   5.231   3.053  0.1587 -1.0486 -0.5396
  109DG      C2 2486   4.219   4.805   2.338 -0.3568 -0.1883  0.2344
  109DG      H3 2487   4.264   5.310   3.053  0.5644 -0.6237 -2.4220
  109DG      H4 2488   4.433   5.275   3.089 -1.7516  1.2219  2.1865
  109DG      H5 2489   4.319   5.170   3.141  2.9113 -0.2574  0.7557
  109DG      H6 2490   4.204   4.761   2.239 -1.4394 -0.9891  0.7243
  109DG      H7 2491   4.315   4.762   2.368  0.6763  0.6044 -1.7731
  109DG      H8 2492   4.138   4.769   2.401 -2.0388 -0.0191 -1.7266
  109DG      O9 2493   4.348   5.158   2.941  0.4247 -0.3229 -0.4231
  109DG     O10 2494   4.231   4.943   2.329  0.3907 -0.2774  0.0277
  109DG     C11 2495   4.381   5.231   2.824 -0.3989 -0.5958  0.3209
  109DG     C12 2496   4.211   5.018   2.448  0.2835 -0.4725 -0.4207
  109DG     H13 2497   4.454   5.310   2.840  0.0080 -0.9525  0.2243
  109DG     H14 2498   4.313   5.308   2.786 -0.2427 -0.7798 -0.3496
  109DG     H15 2499   4.135   4.979   2.516  0.8837 -1.3312 -0.2279
  109DG     H16 2500   4.175   5.117   2.419  2.1271  0.4400  0.2872
  109DG     C17 2501   4.439   5.152   2.711  0.7857  0.6767  0.7359
  109DG     C18 2502   4.347   5.041   2.518  0.7598  0.5719  0.4961
  109DG     O19 2503   4.322   5.115   2.637  0.1739 -0.5458  0.1890
  109DG     H20 2504   4.491   5.063   2.747 -1.8826 -0.9765  0.7521
  109DG     H21 2505   4.499   5.210   2.640 -0.5000 -0.0766 -1.0537
  109DG     H22 2506   4.395   4.945   2.536  0.2548  0.6539  2.5924
  109DG     H23 2507   4.409   5.092   2.445 -0.4631 -0.1794 -1.1111
  110DG      C1 2508   0.739   0.227   4.646  0.4913 -0.7616  0.3117
  110DG      C2 2509   1.035   0.085   3.980  0.0465  0.3793  0.5220
  110DG      H3 2510   0.799   0.225   4.737 -0.9132  1.8837  1.3973
  110DG      H4 2511   0.695   0.127   4.639 -3.2390  0.7031  0.6849
  110DG      H5 2512   0.658   0.299   4.658  1.9550  1.6964 -2.9396
  110DG      H6 2513   0.984   0.154   3.914  2.5493  1.4887 -0.3821
  110DG      H7 2514   1.123   0.055   3.923  1.2539  1.4059  1.7623
  110DG      H8 2515   0.979  -0.008   3.991  1.1034 -0.3579 -0.1583
  110DG      O9 2516   0.832   0.273   4.551  0.1085 -0.6674 -0.1246
  110DG     O10 2517   1.084   0.122   4.104  0.0329  0.2201  0.0848
  110DG     C11 2518   0.787   0.302   4.419  0.9813 -0.7169  0.1996
  110DG     C12 2519   1.100   0.255   4.109 -0.5809 -0.7478  0.0081
  110DG     H13 2520   0.702   0.369   4.412 -0.8308 -2.9540 -0.4102
  110DG     H14 2521   0.757   0.221   4.353 -0.5016  0.7273 -0.9658
  110DG     H15 2522   1.014   0.313   4.075  1.0412  2.0733  0.4040
  110DG     H16 2523   1.182   0.285   4.044  0.2315 -3.7720 -0.5253
  110DG     C17 2524   0.907   0.360   4.343 -0.3585 -0.5553  0.2167
  110DG     C18 2525   1.123   0.287   4.259 -0.1426 -0.5086 -0.7670
  110DG     O19 2526   1.013   0.261   4.349  0.1547  0.2236  0.0415
  110DG     H20 2527   0.937   0.456   4.384 -2.8020  2.2038 -3.7109
  110DG     H21 2528   0.877   0.377   4.239 -2.0736  0.8673  0.9007
  110DG     H22 2529   1.213   0.240   4.301 -0.0837  1.4654  1.5311
  110DG     H23 2530   1.148   0.392   4.272  0.8015 -0.8546  0.4917
  111DG      C1 2531   1.549   0.810   4.652 -0.2159  0.4335  0.0341
  111DG      C2 2532   1.012   1.124   4.268  0.1018 -0.0749 -0.3626
  111DG      H3 2533   1.635   0.752   4.617 -1.0771  0.3063 -2.0125
  111DG      H4 2534   1.505   0.757   4.737 -0.3488 -1.2089 -1.0231
  111DG      H5 2535   1.583   0.909   4.682  0.2161  0.3181 -0.0643
  111DG      H6 2536   0.949   1.124   4.357  0.9047  2.3297  0.2724
  111DG      H7 2537   1.056   1.224   4.271 -0.6372  0.2332  0.6136
  111DG      H8 2538   0.955   1.121   4.175 -0.4948  2.3067 -0.1524
  111DG      O9 2539   1.453   0.815   4.555 -0.0719  0.4417  0.1408
  111DG     O10 2540   1.109   1.024   4.278 -0.5509  0.3542 -0.2184
  111DG     C11 2541   1.411   0.691   4.505  0.3474  1.1000  0.8030
  111DG     C12 2542   1.045   0.899   4.244 -0.5826 -0.4812  0.1967
  111DG     H13 2543   1.340   0.647   4.575 -0.4462 -0.6753 -1.0350
  111DG     H14 2544   1.498   0.627   4.495 -1.2484 -0.8440 -2.0716
  111DG     H15 2545   1.017   0.911   4.140  0.5505  0.8633  0.0261
  111DG     H16 2546   0.959   0.871   4.305 -0.4480 -0.2608  0.4911
  111DG     C17 2547   1.333   0.694   4.373 -0.4595 -0.1661  0.2775
  111DG     C18 2548   1.147   0.782   4.253  0.0746  0.7257  0.4237
  111DG     O19 2549   1.246   0.803   4.353  0.3074  0.1036 -0.2011
  111DG     H20 2550   1.277   0.601   4.366 -1.4395  0.4581 -0.3571
  111DG     H21 2551   1.410   0.699   4.296  0.7547 -2.4167  1.2373
  111DG     H22 2552   1.097   0.686   4.262  0.9083  0.3991  2.0222
  111DG     H23 2553   1.210   0.766   4.166  0.0516  1.7629  0.2070
  112DG      C1 2554   3.906   3.237   3.508  0.1184 -0.0462 -0.5051
  112DG      C2 2555   4.300   3.486   3.648  1.1140 -0.1044  0.2800
  112DG      H3 2556   3.878   3.140   3.466  0.7180  0.1486 -1.3941
  112DG      H4 2557   3.920   3.315   3.434 -1.2005  1.6904  1.0087
  112DG      H5 2558   3.831   3.284   3.571 -0.4571 -2.5896  0.8507
  112DG      H6 2559   4.323   3.567   3.580  1.9867  0.9492  1.7769
  112DG      H7 2560   4.285   3.396   3.588  1.3070 -0.2159  0.3951
  112DG      H8 2561   4.215   3.521   3.707  0.6339 -1.9989  0.8152
  112DG      O9 2562   4.039   3.235   3.566  0.2262  0.1038  0.4165
  112DG     O10 2563   4.418   3.468   3.730  0.3953  0.3216  1.1616
  112DG     C11 2564   4.033   3.130   3.663 -0.2418 -0.4581  0.4999
  112DG     C12 2565   4.409   3.387   3.850  0.6297 -0.5446  0.0553
  112DG     H13 2566   4.008   3.032   3.622  0.8288 -0.8603  0.7816
  112DG     H14 2567   3.969   3.161   3.745  1.6437 -3.4948  3.3231
  112DG     H15 2568   4.334   3.436   3.913  0.7528  1.0191 -0.9626
  112DG     H16 2569   4.509   3.389   3.893  0.6859 -0.0297 -0.0928
  112DG     C17 2570   4.166   3.115   3.742 -0.5913  0.3786 -0.1057
  112DG     C18 2571   4.350   3.239   3.821  0.2176 -0.3579 -0.1097
  112DG     O19 2572   4.210   3.238   3.794  0.1477 -0.3521 -0.4225
  112DG     H20 2573   4.244   3.073   3.678 -0.4850 -0.5846  0.6318
  112DG     H21 2574   4.165   3.049   3.829  0.7189  2.0190  1.2196
  112DG     H22 2575   4.410   3.194   3.743  0.8974  1.5859 -0.7643
  112DG     H23 2576   4.355   3.185   3.916 -1.9090  0.9731  0.8562
  113DG      C1 2577   1.886   1.556   0.029  0.2651 -0.0102 -0.5745
  113DG      C2 2578   1.803   0.884   0.093 -0.7055 -0.2093  0.7913
  113DG      H3 2579   1.863   1.639  -0.038 -1.4411 -0.6606 -0.8389
  113DG      H4 2580   1.988   1.558   0.067  0.3763 -1.7054 -0.7145
  113DG      H5 2581   1.819   1.549   0.114  0.2732 -1.0127 -0.6367
  113DG      H6 2582   1.795   0.776   0.079  0.2064 -0.2214  0.2051
  113DG      H7 2583   1.892   0.889   0.156 -0.9668  0.9286  1.0932
  113DG      H8 2584   1.726   0.919   0.162 -0.6787  0.0763  0.6796
  113DG      O9 2585   1.881   1.432  -0.045  0.0066 -0.4516 -0.0912
  113DG     O10 2586   1.815   0.983  -0.014  0.1516 -0.3054 -0.0968
  113DG     C11 2587   1.977   1.422  -0.145  0.1524  0.4067 -0.2240
  113DG     C12 2588   1.919   0.944  -0.103  0.7826  0.1072  0.3287
  113DG     H13 2589   2.073   1.410  -0.095 -0.6215 -1.6342  0.8800
  113DG     H14 2590   1.983   1.502  -0.220  1.7998 -0.2960 -0.9013
  113DG     H15 2591   1.882   0.857  -0.157 -0.4143  0.1067  1.1044
  113DG     H16 2592   2.016   0.927  -0.057 -0.4176 -0.8663  2.6671
  113DG     C17 2593   1.957   1.297  -0.222 -0.3270 -0.0716 -0.3590
  113DG     C18 2594   1.937   1.052  -0.213  0.1614 -0.1379  0.3234
  113DG     O19 2595   1.938   1.177  -0.141 -0.0538  0.0717 -0.4629
  113DG     H20 2596   2.041   1.287  -0.291  0.5891  2.3474  0.3290
  113DG     H21 2597   1.879   1.320  -0.295  2.2588  0.1464 -3.2623
  113DG     H22 2598   2.035   1.032  -0.258 -0.0011 -1.2990  0.4348
  113DG     H23 2599   1.857   1.061  -0.287 -0.1425  1.4269  0.8078
  114DG      C1 2600   2.098   0.633   5.177 -1.3142  0.1622  0.1713
  114DG      C2 2601   1.705   0.390   4.554  0.1028 -0.2358 -0.5381
  114DG      H3 2602   2.184   0.674   5.125 -1.2527 -0.7011 -0.4168
  114DG      H4 2603   2.131   0.538   5.220 -1.5165 -0.0508 -0.1368
  114DG      H5 2604   2.068   0.704   5.255 -0.0822 -0.9982  1.7829
  114DG      H6 2605   1.716   0.306   4.623  1.2558  1.3051  1.2437
  114DG      H7 2606   1.599   0.383   4.529  0.3891  1.4833 -2.5091
  114DG      H8 2607   1.765   0.371   4.465  1.2669  0.0023  0.1846
  114DG      O9 2608   1.997   0.614   5.076 -0.4722  0.4233  0.1660
  114DG     O10 2609   1.751   0.525   4.605  0.4085 -0.1358  0.2680
  114DG     C11 2610   1.871   0.556   5.111 -1.0638 -0.3232 -0.0671
  114DG     C12 2611   1.880   0.507   4.660  0.5326 -0.0180 -0.2852
  114DG     H13 2612   1.854   0.587   5.215 -0.2672 -1.5572  0.4520
  114DG     H14 2613   1.879   0.449   5.092 -2.0892  0.0479 -3.0892
  114DG     H15 2614   1.958   0.530   4.587 -0.1778 -0.0571 -1.0819
  114DG     H16 2615   1.891   0.405   4.697 -3.2853 -0.6197 -0.4136
  114DG     C17 2616   1.773   0.617   5.012  0.5202 -0.2353  0.2946
  114DG     C18 2617   1.880   0.597   4.787 -0.2658 -0.1784  0.5180
  114DG     O19 2618   1.779   0.555   4.884  0.0415  0.3810  0.7800
  114DG     H20 2619   1.800   0.723   5.008 -0.0183 -0.1372 -1.5689
  114DG     H21 2620   1.671   0.611   5.049  0.1963 -1.3494 -0.7279
  114DG     H22 2621   1.978   0.592   4.835 -0.0559  0.0732  0.1251
  114DG     H23 2622   1.864   0.698   4.749  1.6873 -0.5432 -1.4941
  115DG      C1 2623   3.567   4.378   4.512 -0.5483  0.2202  1.1268
  115DG      C2 2624   2.864   4.854   4.569 -0.4904  0.2655 -0.0799
  115DG      H3 2625   3.627   4.381   4.422  0.5273  3.0154  1.8286
  115DG      H4 2626   3.533   4.275   4.523  1.0942 -0.6302 -1.1130
  115DG      H5 2627   3.639   4.401   4.590 -1.1028  3.1869  0.8845
  115DG      H6 2628   2.781   4.899   4.514  0.6653  0.0388 -2.1153
  115DG      H7 2629   2.821   4.766   4.618  0.5995 -1.8557 -2.6671
  115DG      H8 2630   2.892   4.926   4.646  1.0647 -1.3298  0.9221
  115DG      O9 2631   3.463   4.473   4.499  0.0128 -0.0374 -0.3348
  115DG     O10 2632   2.974   4.837   4.488 -0.2389 -0.2612 -0.6088
  115DG     C11 2633   3.524   4.606   4.475  0.1531  0.8228  0.2619
  115DG     C12 2634   3.094   4.809   4.557 -0.2264  0.3775  1.2684
  115DG     H13 2635   3.598   4.594   4.396 -1.5865 -1.5555 -1.1706
  115DG     H14 2636   3.576   4.634   4.566  1.3066  1.1290 -0.4768
  115DG     H15 2637   3.090   4.711   4.604  0.9227  0.3736  1.3761
  115DG     H16 2638   3.132   4.884   4.626 -1.1740  0.7194  1.4342
  115DG     C17 2639   3.427   4.717   4.425 -0.4670  0.1152 -0.0049
  115DG     C18 2640   3.206   4.799   4.450  0.1645 -0.1834  0.1409
  115DG     O19 2641   3.321   4.751   4.516  0.1432  0.3452  0.5376
  115DG     H20 2642   3.389   4.675   4.332  3.4473 -3.5480 -0.2350
  115DG     H21 2643   3.483   4.806   4.400  3.6082 -2.4775 -0.9865
  115DG     H22 2644   3.178   4.731   4.369 -2.2374  0.3996  0.4009
  115DG     H23 2645   3.224   4.896   4.403 -1.6206 -0.6692 -1.6679
  116DG      C1 2646   5.074   2.851   0.854 -0.1717  0.4723 -0.2933
  116DG      C2 2647   4.744   2.861   0.237  0.4697  0.4702 -0.4086
  116DG      H3 2648   5.057   2.950   0.813 -0.3662  0.6797  0.2805
  116DG      H4 2649   5.181   2.829   0.848 -0.6669 -1.9615 -1.5471
  116DG      H5 2650   5.060   2.843   0.962 -0.6231  1.0827 -0.2993
  116DG      H6 2651   4.664   2.848   0.164 -0.1053  0.5980  0.1892
  116DG      H7 2652   4.759   2.969   0.243  2.6930  0.2314 -0.6671
  116DG      H8 2653   4.837   2.824   0.193 -0.8425  0.1512 -3.0928
  116DG      O9 2654   4.997   2.744   0.793  0.2101 -0.0065  0.0167
  116DG     O10 2655   4.713   2.807   0.363 -0.5565 -0.5543  0.0191
  116DG     C11 2656   5.019   2.745   0.652  0.1852  0.6003 -0.0730
  116DG     C12 2657   4.706   2.668   0.358  0.0886 -0.0374 -0.8037
  116DG     H13 2658   5.120   2.710   0.629  0.8410  2.2526  0.1549
  116DG     H14 2659   5.009   2.843   0.605  1.1211  0.6051 -0.2844
  116DG     H15 2660   4.795   2.620   0.316  1.2781 -0.0927  1.5962
  116DG     H16 2661   4.612   2.643   0.309 -0.4941 -0.0270  0.2783
  116DG     C17 2662   4.915   2.661   0.586  0.2420  0.9614  0.0893
  116DG     C18 2663   4.697   2.628   0.507  0.2531  0.4269  0.6425
  116DG     O19 2664   4.777   2.704   0.589 -0.4075 -0.3991 -0.8430
  116DG     H20 2665   4.922   2.563   0.634 -0.5763  0.4158 -0.8520
  116DG     H21 2666   4.942   2.646   0.481  0.1649  1.9943 -0.0917
  116DG     H22 2667   4.592   2.635   0.532  0.0579  1.4598 -0.3706
  116DG     H23 2668   4.720   2.522   0.520  1.0206  0.4614 -0.2606
  117DG      C1 2669   4.713   3.225   3.654 -0.5226  0.2651  0.4277
  117DG      C2 2670   5.054   3.396   4.394  0.0580  0.0008  0.4938
  117DG      H3 2671   4.772   3.245   3.565 -1.7085  0.5435 -0.3192
  117DG      H4 2672   4.670   3.315   3.698  0.2838  1.4135 -1.0508
  117DG      H5 2673   4.629   3.164   3.621  0.2616  0.0309 -1.1940
  117DG      H6 2674   5.073   3.495   4.353  1.5759 -2.1145 -4.9047
  117DG      H7 2675   5.022   3.416   4.496 -1.4486 -0.5274  0.1558
  117DG      H8 2676   5.144   3.334   4.393  1.1885  1.5778  0.8502
  117DG      O9 2677   4.794   3.165   3.760  0.6292  0.0916 -0.2370
  117DG     O10 2678   4.942   3.328   4.330  0.3582  0.2642 -0.5372
  117DG     C11 2679   4.713   3.128   3.875 -0.4018  0.0887 -0.3878
  117DG     C12 2680   4.969   3.277   4.201 -0.9416  0.0214  0.1267
  117DG     H13 2681   4.624   3.071   3.847 -1.8104  0.3967  2.9646
  117DG     H14 2682   4.667   3.215   3.922 -0.9113  0.1544 -0.9970
  117DG     H15 2683   5.060   3.218   4.199  0.7893  2.5774 -0.4141
  117DG     H16 2684   4.989   3.369   4.147  1.5693 -0.7732 -0.4028
  117DG     C17 2685   4.789   3.041   3.980  0.0608  0.1052  0.3621
  117DG     C18 2686   4.846   3.194   4.158 -0.1851  0.3702 -0.1147
  117DG     O19 2687   4.900   3.119   4.043 -0.3900  0.1535  0.0810
  117DG     H20 2688   4.833   2.953   3.933  1.9390  1.2837 -0.2056
  117DG     H21 2689   4.714   3.000   4.047 -0.3748  3.6431  2.2520
  117DG     H22 2690   4.818   3.126   4.238 -0.3945  1.1265  0.4612
  117DG     H23 2691   4.759   3.253   4.128 -0.4708 -0.8376 -1.8376
  118DG      C1 2692   4.496   0.352   5.384  0.2799  0.1413  0.2200
  118DG      C2 2693   4.097   0.459   4.722 -0.3038  0.1979 -0.1361
  118DG      H3 2694   4.552   0.287   5.451  2.3496 -0.2396 -1.7341
  118DG      H4 2695   4.530   0.455   5.373  1.3804 -0.1166  1.0036
  118DG      H5 2696   4.516   0.307   5.287 -0.8868 -0.3769  0.2162
  118DG      H6 2697   4.166   0.535   4.687  0.5833 -0.8304 -0.6748
  118DG      H7 2698   4.072   0.399   4.635 -0.2407  0.9434 -0.6794
  118DG      H8 2699   4.009   0.506   4.766 -0.5090 -0.2675 -0.0405
  118DG      O9 2700   4.354   0.350   5.406 -0.5241  0.2603  0.6855
  118DG     O10 2701   4.170   0.381   4.830  0.2812 -0.4028  0.0596
  118DG     C11 2702   4.278   0.397   5.300 -0.0658 -0.0052 -0.4098
  118DG     C12 2703   4.110   0.259   4.873  0.2345  0.4340  0.3411
  118DG     H13 2704   4.328   0.479   5.247  1.1230  0.2181  0.9998
  118DG     H14 2705   4.182   0.429   5.341  0.5429 -0.2427  1.2470
  118DG     H15 2706   4.114   0.187   4.791 -1.0893 -0.4428  1.0056
  118DG     H16 2707   4.011   0.272   4.917 -0.8331 -0.5027 -1.6005
  118DG     C17 2708   4.259   0.271   5.215  0.0983  0.3058 -0.1753
  118DG     C18 2709   4.183   0.203   4.995  0.5874  0.2382  0.2218
  118DG     O19 2710   4.213   0.308   5.080  0.3029 -0.2849 -0.7780
  118DG     H20 2711   4.185   0.204   5.259  0.2830  0.8880  1.0687
  118DG     H21 2712   4.353   0.217   5.206 -1.0495 -1.6709 -0.9838
  118DG     H22 2713   4.113   0.137   5.046  2.4609 -1.0183  1.3195
  118DG     H23 2714   4.276   0.150   4.973 -0.1502 -0.3015 -1.7411
  119DG      C1 2715   1.338   3.462   4.750 -1.0366  0.4246  1.2459
  119DG      C2 2716   1.466   2.794   5.042  0.0523 -0.4518 -0.7072
  119DG      H3 2717   1.415   3.536   4.732 -0.5136 -0.0830  1.3653
  119DG      H4 2718   1.239   3.501   4.725 -1.7536 -2.0291 -0.0695
  119DG      H5 2719   1.355   3.391   4.669  1.2146  0.6997  1.4317
  119DG      H6 2720   1.480   2.706   4.980  1.5906 -0.7946  0.0555
  119DG      H7 2721   1.538   2.870   5.009 -0.8399 -0.1643 -2.0480
  119DG      H8 2722   1.494   2.769   5.145 -2.3506  0.3622  0.2105
  119DG      O9 2723   1.349   3.412   4.877  0.4431 -0.0998  0.1657
  119DG     O10 2724   1.338   2.837   5.027  0.2269 -0.7132  0.2092
  119DG     C11 2725   1.259   3.310   4.915  0.4702 -0.1557 -0.5959
  119DG     C12 2726   1.306   2.956   5.103 -1.2016 -0.0038 -0.2700
  119DG     H13 2727   1.265   3.232   4.839 -1.4087 -0.7555 -0.1822
  119DG     H14 2728   1.163   3.360   4.916  1.7941  2.9543  4.0330
  119DG     H15 2729   1.403   2.997   5.132 -1.1901  1.7535 -2.5139
  119DG     H16 2730   1.277   2.917   5.200  2.8008 -2.5756  0.1133
  119DG     C17 2731   1.295   3.261   5.063  0.3598 -0.1156  0.7099
  119DG     C18 2732   1.194   3.044   5.053  0.5398  0.3913 -0.5670
  119DG     O19 2733   1.193   3.174   5.111 -0.3408  0.3293  0.0839
  119DG     H20 2734   1.297   3.343   5.135 -1.0913 -0.3716  1.0727
  119DG     H21 2735   1.399   3.228   5.061  0.5149  0.3160 -1.3733
  119DG     H22 2736   1.201   3.045   4.944 -2.3939  1.4885 -0.8336
  119DG     H23 2737   1.095   3.004   5.074  0.2213  2.5339  2.7626
  120DG      C1 2738   2.074   5.302   0.339  0.2011  0.0790  0.3667
  120DG      C2 2739   2.024   5.876  -0.033  0.8933 -0.5035  0.1618
  120DG      H3 2740   2.181   5.322   0.342  0.9206 -2.3185 -3.1221
  120DG      H4 2741   2.064   5.197   0.308 -1.5868 -0.0517  1.2593
  120DG      H5 2742   2.026   5.301   0.437 -1.9150  1.7742 -0.5603
  120DG      H6 2743   2.120   5.916  -0.066  0.2764  1.7508  0.9087
  120DG      H7 2744   1.947   5.933  -0.086 -0.3194 -2.4530 -0.2765
  120DG      H8 2745   2.013   5.876   0.075 -0.3491  0.1015  0.0572
  120DG      O9 2746   2.015   5.387   0.248 -0.8378 -0.6274 -0.2718
  120DG     O10 2747   2.020   5.743  -0.081  0.3323  0.2727  0.6645
  120DG     C11 2748   1.883   5.357   0.204 -0.3754 -0.0247 -0.0379
  120DG     C12 2749   1.886   5.698  -0.118  0.0927 -0.0191  0.1896
  120DG     H13 2750   1.809   5.410   0.264  0.7359  0.0962  1.2848
  120DG     H14 2751   1.846   5.254   0.212 -4.1014  0.9798 -1.7596
  120DG     H15 2752   1.850   5.732  -0.216  1.6518  0.5972 -0.2027
  120DG     H16 2753   1.810   5.728  -0.047  2.1412  1.8831  1.7361
  120DG     C17 2754   1.864   5.386   0.060  0.1260  0.3236  0.5082
  120DG     C18 2755   1.883   5.539  -0.112  0.6462  0.1840  0.8105
  120DG     O19 2756   1.889   5.518   0.025  0.4226  0.6785  0.3152
  120DG     H20 2757   1.761   5.364   0.031  0.6875 -1.6719 -0.1305
  120DG     H21 2758   1.925   5.323  -0.005 -0.0276  1.8368 -1.1938
  120DG     H22 2759   1.793   5.491  -0.150  2.1980 -2.2891 -0.0106
  120DG     H23 2760   1.969   5.494  -0.161  0.2237 -0.3115  0.5129
  121DG      C1 2761   0.527   3.776   3.431  0.8550  0.0017 -0.1713
  121DG      C2 2762   0.767   4.148   4.062  0.3929  0.0113 -0.9716
  121DG      H3 2763   0.525   3.843   3.346  1.9821  2.2710  1.4789
  121DG      H4 2764   0.447   3.791   3.504  1.0552 -0.9831  0.2754
  121DG      H5 2765   0.528   3.670   3.405  3.4075 -0.1824  0.3507
  121DG      H6 2766   0.859   4.201   4.087 -0.1107  1.3172 -1.7577
  121DG      H7 2767   0.701   4.216   4.008 -1.3529 -1.5736 -0.9594
  121DG      H8 2768   0.717   4.126   4.157  0.0794 -1.0221 -1.3707
  121DG      O9 2769   0.650   3.818   3.493 -0.5931 -0.3461 -0.4788
  121DG     O10 2770   0.784   4.025   4.002 -0.5558 -0.2731 -0.0973
  121DG     C11 2771   0.670   3.771   3.624  0.3056  0.7876 -0.0791
  121DG     C12 2772   0.886   4.030   3.899 -0.4065  0.6774  0.3392
  121DG     H13 2773   0.668   3.662   3.619  0.6243  0.8251 -2.3277
  121DG     H14 2774   0.602   3.817   3.695  1.1046  1.0626  0.5199
  121DG     H15 2775   0.983   4.074   3.919 -0.3869  1.9159 -2.0799
  121DG     H16 2776   0.845   4.088   3.816 -0.6311  2.1454  1.4386
  121DG     C17 2777   0.806   3.817   3.668 -0.4508  0.6611 -0.4659
  121DG     C18 2778   0.920   3.884   3.869 -0.3366  0.5164  0.1302
  121DG     O19 2779   0.818   3.805   3.812 -0.3971 -0.0476  0.1883
  121DG     H20 2780   0.810   3.923   3.645 -1.2953  0.9291  0.5309
  121DG     H21 2781   0.890   3.770   3.617 -0.4670 -1.0104  0.9431
  121DG     H22 2782   1.011   3.865   3.813  0.6528  0.1809  1.7630
  121DG     H23 2783   0.944   3.835   3.963 -0.2298 -1.4198 -0.8649
  122DG      C1 2784   5.313   2.185   5.423  0.3093  0.3120  0.3385
  122DG      C2 2785   5.924   2.097   5.490 -0.0846  0.7865 -0.1730
  122DG      H3 2786   5.328   2.223   5.322 -0.6706  0.1235  0.1112
  122DG      H4 2787   5.318   2.274   5.486 -4.4311  0.5656  0.7356
  122DG      H5 2788   5.213   2.144   5.433  0.9375 -1.6031 -0.6815
  122DG      H6 2789   5.829   2.137   5.454 -1.9538 -1.7708  1.5554
  122DG      H7 2790   5.974   2.171   5.553  0.4524  0.8613 -0.6761
  122DG      H8 2791   5.989   2.077   5.405  0.6772  0.6233  0.4341
  122DG      O9 2792   5.415   2.094   5.462  0.5305  0.3303  0.2722
  122DG     O10 2793   5.916   1.990   5.580 -0.0256 -0.4344  0.2244
  122DG     C11 2794   5.418   2.073   5.599  0.2126  0.7837  0.2844
  122DG     C12 2795   5.852   1.869   5.526 -0.0189 -0.4908  0.5971
  122DG     H13 2796   5.315   2.066   5.635 -0.9569  0.1264 -2.8555
  122DG     H14 2797   5.455   2.155   5.660 -1.0008 -0.0189  2.1858
  122DG     H15 2798   5.910   1.780   5.552 -1.6465 -1.5949  0.5753
  122DG     H16 2799   5.829   1.878   5.420 -1.9637 -0.9399  0.9498
  122DG     C17 2800   5.511   1.960   5.646 -0.1132  0.9152  0.0275
  122DG     C18 2801   5.722   1.856   5.597 -0.4289 -0.2937  0.9046
  122DG     O19 2802   5.634   1.969   5.569  0.0379 -0.7993 -0.1973
  122DG     H20 2803   5.468   1.861   5.627  1.9047  0.1345 -0.6818
  122DG     H21 2804   5.540   1.966   5.750  1.1089  1.3165 -0.3257
  122DG     H22 2805   5.679   1.762   5.563 -0.6292  0.0501  0.1852
  122DG     H23 2806   5.745   1.847   5.703 -2.3756 -2.5369  1.2120
  123DG      C1 2807   3.251   5.135   5.048 -0.9548  0.5175  0.5173
  123DG      C2 2808   3.400   4.717   5.594  0.5896 -0.4240 -0.0325
  123DG      H3 2809   3.189   5.196   5.114 -0.9881  0.7735  0.2538
  123DG      H4 2810   3.188   5.055   5.009  2.7076 -1.8395 -1.1087
  123DG      H5 2811   3.300   5.192   4.968 -0.7960 -0.1840  0.1055
  123DG      H6 2812   3.449   4.721   5.691 -0.0758 -1.5649  0.3818
  123DG      H7 2813   3.298   4.754   5.608  0.9010  0.4734 -0.0831
  123DG      H8 2814   3.388   4.617   5.553  1.3290 -0.5228 -0.0193
  123DG      O9 2815   3.352   5.071   5.127 -0.0361  0.1949  0.5299
  123DG     O10 2816   3.458   4.801   5.492 -0.8413 -0.2205  0.0731
  123DG     C11 2817   3.447   4.996   5.035  0.2046 -0.2939  0.8752
  123DG     C12 2818   3.569   4.732   5.432 -1.0101 -0.1080 -0.1136
  123DG     H13 2819   3.483   5.070   4.964  1.7944  0.2114  2.1501
  123DG     H14 2820   3.379   4.923   4.991 -0.9627  1.8123 -1.0141
  123DG     H15 2821   3.524   4.646   5.383 -1.8502  0.0559  0.3574
  123DG     H16 2822   3.638   4.689   5.504 -1.3693 -0.4165  0.0488
  123DG     C17 2823   3.567   4.935   5.118  0.3030 -0.2579  0.8932
  123DG     C18 2824   3.627   4.820   5.317  0.5687 -0.2669  0.3107
  123DG     O19 2825   3.525   4.855   5.228  0.0159 -0.1954  0.8317
  123DG     H20 2826   3.631   5.018   5.150 -1.8531  0.5358  3.6188
  123DG     H21 2827   3.624   4.868   5.054 -0.7734  0.6483 -1.0968
  123DG     H22 2828   3.672   4.906   5.366  1.1038 -1.4359  1.9221
  123DG     H23 2829   3.704   4.765   5.263  3.2053  3.6129 -0.2156
  124DG      C1 2830   0.686   4.626   0.998 -0.7181 -0.4151 -0.5574
  124DG      C2 2831   0.087   4.636   0.701  0.1949  0.3265 -0.3217
  124DG      H3 2832   0.788   4.590   1.011 -1.2464 -1.5326  0.7467
  124DG      H4 2833   0.646   4.666   1.092 -0.3117 -0.1633 -0.4898
  124DG      H5 2834   0.686   4.711   0.929 -1.8611 -0.0066 -0.0766
  124DG      H6 2835   0.028   4.705   0.762  0.0283  1.7794 -2.0635
  124DG      H7 2836   0.149   4.701   0.640 -1.0146  0.6423 -1.2486
  124DG      H8 2837   0.024   4.574   0.637 -3.0505  2.6288  0.3928
  124DG      O9 2838   0.590   4.533   0.945  0.6014 -0.2632  0.2702
  124DG     O10 2839   0.178   4.553   0.769 -0.4851  0.5645  0.1915
  124DG     C11 2840   0.558   4.425   1.039 -0.5010 -0.4240  0.0381
  124DG     C12 2841   0.132   4.480   0.881  0.5948 -0.0774  0.2759
  124DG     H13 2842   0.519   4.481   1.124 -2.2611  1.4289 -1.8820
  124DG     H14 2843   0.645   4.372   1.077 -0.9764 -2.0843 -1.0858
  124DG     H15 2844   0.035   4.436   0.856 -0.5690  1.5924  1.6709
  124DG     H16 2845   0.112   4.544   0.966  2.4350  2.4369 -1.0689
  124DG     C17 2846   0.451   4.340   0.987  0.5551  0.2915  0.2002
  124DG     C18 2847   0.228   4.360   0.924  0.7557 -0.2614  0.7134
  124DG     O19 2848   0.352   4.425   0.947  0.0614 -0.1357  0.4379
  124DG     H20 2849   0.414   4.272   1.063 -0.9498  2.2746  1.3293
  124DG     H21 2850   0.492   4.285   0.902 -1.3961  3.4859 -3.0820
  124DG     H22 2851   0.180   4.301   1.001  0.3672 -2.1443 -0.8764
  124DG     H23 2852   0.233   4.290   0.840 -4.1261 -0.5829  0.3995
  125DG      C1 2853   1.704   2.205   1.687 -0.2256  0.0039  0.4044
  125DG      C2 2854   1.218   1.771   1.428  0.2393  0.3575  0.0895
  125DG      H3 2855   1.772   2.121   1.692  0.7590  0.6892 -1.0102
  125DG      H4 2856   1.636   2.194   1.772 -2.0506  0.7019 -0.8915
  125DG      H5 2857   1.755   2.300   1.702 -0.3115 -0.1857  2.1303
  125DG      H6 2858   1.123   1.777   1.376  1.4187  1.7169 -2.0693
  125DG      H7 2859   1.274   1.693   1.378  0.3632  1.3468 -1.3778
  125DG      H8 2860   1.209   1.750   1.535  2.8841 -1.6379  0.0197
  125DG      O9 2861   1.625   2.200   1.572  0.0847  0.3127 -0.2436
  125DG     O10 2862   1.296   1.888   1.424  0.2653 -0.0125 -0.5916
  125DG     C11 2863   1.543   2.306   1.542  0.6363 -0.1307  0.3884
  125DG     C12 2864   1.250   1.982   1.331 -0.2378  0.4535  0.5348
  125DG     H13 2865   1.609   2.392   1.529  0.8751 -0.1316  1.5122
  125DG     H14 2866   1.462   2.327   1.612  0.1422 -4.9576  1.6029
  125DG     H15 2867   1.155   2.027   1.360 -0.6144  0.6597 -0.9586
  125DG     H16 2868   1.241   1.939   1.231  1.3603  1.2495  0.0135
  125DG     C17 2869   1.462   2.277   1.413 -0.4991 -0.3483  0.1971
  125DG     C18 2870   1.351   2.103   1.305 -0.0432  0.8602  0.6270
  125DG     O19 2871   1.381   2.161   1.429  0.2501  0.0857  0.2364
  125DG     H20 2872   1.536   2.264   1.334  0.1005 -0.1377  0.7182
  125DG     H21 2873   1.406   2.364   1.378 -0.8526 -1.4052 -2.0196
  125DG     H22 2874   1.432   2.072   1.239 -2.4324 -1.9227 -1.2906
  125DG     H23 2875   1.300   2.182   1.249  0.9524  1.6696  0.8541
  126DG      C1 2876   5.147   1.174   1.830  0.2894 -0.2848  1.0658
  126DG      C2 2877   5.233   1.611   1.386  0.7311  0.8502 -0.5490
  126DG      H3 2878   5.255   1.172   1.846  0.1049 -0.3685  2.4466
  126DG      H4 2879   5.113   1.144   1.731  0.4106 -0.9750  1.2244
  126DG      H5 2880   5.093   1.104   1.894 -3.4851  1.2663 -0.1411
  126DG      H6 2881   5.198   1.698   1.330  1.6847  1.0332 -0.8940
  126DG      H7 2882   5.319   1.627   1.451 -0.2975  1.6351  0.6612
  126DG      H8 2883   5.255   1.530   1.316  0.3214 -1.1652  1.5314
  126DG      O9 2884   5.102   1.308   1.856  0.2838 -0.7950  0.3694
  126DG     O10 2885   5.125   1.578   1.472  0.2690 -0.2354  0.3693
  126DG     C11 2886   4.970   1.332   1.810 -0.5474 -0.6973 -0.2851
  126DG     C12 2887   5.094   1.681   1.555  0.2203 -1.4154 -0.1836
  126DG     H13 2888   4.895   1.282   1.873 -0.2518 -0.7750  0.0087
  126DG     H14 2889   4.973   1.319   1.702 -0.3617  0.4155 -0.4194
  126DG     H15 2890   5.055   1.769   1.504  1.7471 -0.7880 -0.3223
  126DG     H16 2891   5.184   1.711   1.609  0.5366 -2.9214  0.1569
  126DG     C17 2892   4.945   1.486   1.824  0.0123  0.5036  0.3820
  126DG     C18 2893   4.982   1.642   1.654  0.0581  0.6402  0.4018
  126DG     O19 2894   5.031   1.530   1.716 -0.3370 -0.3193 -0.0094
  126DG     H20 2895   4.998   1.532   1.907 -0.1502  0.8180  0.3122
  126DG     H21 2896   4.840   1.517   1.816  0.0314  0.2203 -1.1974
  126DG     H22 2897   4.953   1.717   1.728  0.8974  2.1566 -0.7556
  126DG     H23 2898   4.890   1.609   1.606 -0.8166  0.5452  2.0680
  127DG      C1 2899   1.007   5.333   1.659  0.3513 -0.2156 -0.0860
  127DG      C2 2900   0.325   5.108   1.789  0.2668 -0.2414 -0.2127
  127DG      H3 2901   1.059   5.412   1.712  1.1722 -1.4799  1.0881
  127DG      H4 2902   1.044   5.337   1.557  1.8809 -0.0942  0.4454
  127DG      H5 2903   1.045   5.241   1.706 -1.2569 -0.1851  1.3768
  127DG      H6 2904   0.245   5.039   1.764  0.3726 -1.1595  1.7779
  127DG      H7 2905   0.290   5.211   1.793 -0.5941 -0.3887 -2.3992
  127DG      H8 2906   0.405   5.100   1.715  0.8151  3.4460 -0.2088
  127DG      O9 2907   0.865   5.335   1.691  0.6518  0.5257 -0.0232
  127DG     O10 2908   0.389   5.076   1.915 -0.1220  0.0872  0.1506
  127DG     C11 2909   0.812   5.201   1.710  0.4782 -0.4505  0.5631
  127DG     C12 2910   0.432   5.187   1.985  0.6985 -0.3979  0.0290
  127DG     H13 2911   0.863   5.154   1.794  0.3067  1.1023  1.5802
  127DG     H14 2912   0.828   5.142   1.620  1.8989 -0.1470  0.5931
  127DG     H15 2913   0.500   5.158   2.065  0.5479 -0.2884  0.1978
  127DG     H16 2914   0.345   5.221   2.040 -0.3900 -1.6754 -0.8497
  127DG     C17 2915   0.665   5.203   1.753  0.0565 -0.2509 -0.4728
  127DG     C18 2916   0.511   5.295   1.909 -0.5026 -0.3169 -0.0187
  127DG     O19 2917   0.646   5.269   1.877  0.6332 -0.0242  0.4261
  127DG     H20 2918   0.625   5.102   1.767  0.3194 -0.2459  0.3404
  127DG     H21 2919   0.608   5.253   1.675  0.8903  1.7316  0.1350
  127DG     H22 2920   0.466   5.340   1.821  2.0043  0.9334 -0.7561
  127DG     H23 2921   0.512   5.379   1.979 -1.3692 -1.2580  1.1578
  128DG      C1 2922   1.808   3.119   3.271 -0.0052  0.3355 -0.2353
  128DG      C2 2923   1.751   3.763   3.610  0.2247 -0.2516 -0.2296
  128DG      H3 2924   1.856   3.060   3.193  1.5841  0.9100  0.2580
  128DG      H4 2925   1.714   3.162   3.238 -0.6766  1.4128  2.7673
  128DG      H5 2926   1.782   3.045   3.347  0.6745 -1.0032 -1.2496
  128DG      H6 2927   1.842   3.815   3.640  0.6312 -0.7200 -0.6331
  128DG      H7 2928   1.695   3.818   3.534 -2.1116 -0.9312  0.9120
  128DG      H8 2929   1.699   3.735   3.702  1.0014  0.1614  0.3457
  128DG      O9 2930   1.907   3.211   3.313  0.1806 -0.3938  0.1568
  128DG     O10 2931   1.802   3.638   3.560  0.0435 -0.1596 -0.2214
  128DG     C11 2932   1.963   3.302   3.210 -0.2477  0.3779 -0.3205
  128DG     C12 2933   1.905   3.656   3.465 -0.3893  0.0218 -0.0347
  128DG     H13 2934   1.901   3.380   3.166  1.4976  1.8042 -0.3814
  128DG     H14 2935   2.010   3.238   3.135  1.1316  0.6888  0.2513
  128DG     H15 2936   1.986   3.725   3.490  2.3232 -2.0114 -2.4225
  128DG     H16 2937   1.857   3.698   3.377  0.6480 -1.3801 -1.3305
  128DG     C17 2938   2.074   3.380   3.287 -0.1452 -0.0643  0.0301
  128DG     C18 2939   1.959   3.518   3.439  0.2206 -0.1070 -0.6319
  128DG     O19 2940   2.042   3.518   3.325 -0.5129  0.0887 -0.0302
  128DG     H20 2941   2.155   3.389   3.214 -0.8304  0.4647 -0.6874
  128DG     H21 2942   2.111   3.310   3.362  1.3166 -2.5378 -2.7722
  128DG     H22 2943   2.015   3.476   3.523  3.3621  0.1902 -2.3964
  128DG     H23 2944   1.880   3.444   3.426  1.8936 -2.0467 -0.3996
  129DG      C1 2945   0.077   0.678   1.127  0.3120 -0.4760 -0.6506
  129DG      C2 2946   0.035   0.440   0.447  0.9780  0.0742  0.8904
  129DG      H3 2947   0.114   0.759   1.065 -2.6177  0.1111 -1.7856
  129DG      H4 2948   0.149   0.596   1.129  0.4439 -0.3584 -0.0435
  129DG      H5 2949   0.076   0.703   1.233  2.0455  0.5349 -0.8354
  129DG      H6 2950   0.086   0.356   0.495 -1.4516 -1.7952  0.4154
  129DG      H7 2951  -0.052   0.391   0.404 -0.0457  3.4028 -1.1890
  129DG      H8 2952   0.076   0.487   0.358  0.1291 -0.1476  0.3767
  129DG      O9 2953  -0.050   0.636   1.075 -0.0249  0.1267  0.1731
  129DG     O10 2954  -0.010   0.531   0.548 -0.2725 -0.4279  0.1854
  129DG     C11 2955  -0.043   0.591   0.940  0.1423  0.4835 -0.0866
  129DG     C12 2956  -0.136   0.585   0.516  0.2065  0.3659 -0.1158
  129DG     H13 2957  -0.029   0.483   0.933  1.3215  0.6351 -0.2914
  129DG     H14 2958   0.038   0.646   0.892 -1.5321  1.6402 -1.7446
  129DG     H15 2959  -0.201   0.499   0.499  1.1642 -0.2943 -0.5066
  129DG     H16 2960  -0.137   0.650   0.428  1.4360 -0.9945 -1.2029
  129DG     C17 2961  -0.187   0.621   0.879  0.1756  0.5597  1.0718
  129DG     C18 2962  -0.182   0.664   0.637  0.2854 -0.2120 -0.6950
  129DG     O19 2963  -0.187   0.571   0.746 -0.1140 -0.6471 -0.1669
  129DG     H20 2964  -0.215   0.725   0.892  1.9392  1.4042 -1.1798
  129DG     H21 2965  -0.255   0.559   0.937  1.4445  0.3111  2.3441
  129DG     H22 2966  -0.129   0.753   0.669 -2.0485  0.7800  0.6935
  129DG     H23 2967  -0.278   0.714   0.623  1.2063  2.0160  0.5046
  130DG      C1 2968   1.556   4.807   3.088 -0.5068 -0.2197 -0.5144
  130DG      C2 2969   1.727   4.142   3.180 -0.0477  0.1852  0.5990
  130DG      H3 2970   1.511   4.851   3.178 -2.9967  0.2232 -1.8704
  130DG      H4 2971   1.529   4.874   3.006 -0.0320  0.6762  0.0475
  130DG      H5 2972   1.664   4.803   3.098 -0.5696 -1.6832 -0.2067
  130DG      H6 2973   1.752   4.072   3.101 -0.2175  1.2765 -0.4582
  130DG      H7 2974   1.819   4.183   3.223  0.6124 -2.7433  2.2334
  130DG      H8 2975   1.689   4.081   3.262  0.3941 -0.7916  0.0828
  130DG      O9 2976   1.514   4.674   3.065 -1.2460 -0.0915  0.4400
  130DG     O10 2977   1.636   4.249   3.144 -0.2340  0.4417  0.4888
  130DG     C11 2978   1.374   4.657   3.074 -0.0989 -0.0368  0.3498
  130DG     C12 2979   1.504   4.198   3.146 -0.3665 -0.0691  0.0105
  130DG     H13 2980   1.337   4.736   3.009 -3.7105  0.6180  2.8637
  130DG     H14 2981   1.331   4.685   3.171 -2.3601 -0.4637 -0.4656
  130DG     H15 2982   1.460   4.203   3.246 -3.2930 -1.4892 -1.0693
  130DG     H16 2983   1.490   4.102   3.097  2.1179  1.1695 -3.4506
  130DG     C17 2984   1.337   4.514   3.028  0.1717  0.3218 -0.1696
  130DG     C18 2985   1.428   4.298   3.051  0.1970 -0.5957 -0.1158
  130DG     O19 2986   1.431   4.431   3.100  0.2689  0.4139 -0.3311
  130DG     H20 2987   1.363   4.510   2.922 -1.9347 -0.5403 -0.7010
  130DG     H21 2988   1.234   4.490   3.053 -0.1061  0.8947 -0.7267
  130DG     H22 2989   1.472   4.294   2.952  0.8032 -1.6903  0.1794
  130DG     H23 2990   1.324   4.267   3.057  0.0887 -0.1239  0.5611
  131DG      C1 2991   2.112   1.527   1.472  0.6945 -0.3232 -0.0012
  131DG      C2 2992   1.813   2.106   1.215  0.1021 -0.4768  0.8046
  131DG      H3 2993   2.044   1.450   1.434 -0.5637  1.1803 -0.9482
  131DG      H4 2994   2.064   1.573   1.558  1.2539  0.2682 -0.0026
  131DG      H5 2995   2.194   1.473   1.518  1.6100  1.0649  0.0301
  131DG      H6 2996   1.805   2.180   1.135 -0.3161 -0.1079  1.1783
  131DG      H7 2997   1.715   2.058   1.208 -0.5365  0.6008  1.8917
  131DG      H8 2998   1.804   2.162   1.308 -2.2186 -2.3860  1.8355
  131DG      O9 2999   2.123   1.623   1.364  0.2543  0.2249 -0.2368
  131DG     O10 3000   1.923   2.019   1.198  0.8251  0.3062  0.2262
  131DG     C11 3001   2.239   1.706   1.381 -0.0622 -0.5026 -0.2452
  131DG     C12 3002   2.042   2.091   1.205 -0.4457  0.1160 -0.2953
  131DG     H13 3003   2.325   1.639   1.375 -0.6115 -1.3109  0.6417
  131DG     H14 3004   2.235   1.745   1.482  0.1317 -1.0064 -0.0395
  131DG     H15 3005   2.070   2.131   1.302  1.9868 -0.8038 -0.5295
  131DG     H16 3006   2.034   2.175   1.136  2.7004  0.9991  0.2333
  131DG     C17 3007   2.265   1.815   1.269 -0.3792 -0.8151  0.6399
  131DG     C18 3008   2.162   2.013   1.173  0.0374  0.7412  0.2901
  131DG     O19 3009   2.148   1.911   1.271  0.5023  0.4887  0.2459
  131DG     H20 3010   2.268   1.780   1.166 -2.1657  0.3124  0.1449
  131DG     H21 3011   2.349   1.879   1.297 -1.4434  0.1761  1.7088
  131DG     H22 3012   2.182   1.976   1.073  3.0630 -1.6327  1.5972
  131DG     H23 3013   2.255   2.066   1.193  0.4591  1.2301 -2.5669
  132DG      C1 3014   3.950   0.576   5.271 -0.4551  0.2657 -0.2859
  132DG      C2 3015   4.139   1.252   5.228 -0.0057  0.5622  0.2596
  132DG      H3 3016   3.868   0.559   5.340 -0.5998 -1.4008 -0.8266
  132DG      H4 3017   4.048   0.588   5.318  1.1706 -2.7037 -2.5644
  132DG      H5 3018   3.955   0.477   5.225  1.5981  0.0385  0.3306
  132DG      H6 3019   4.053   1.299   5.275 -0.4431 -1.3374  1.4866
  132DG      H7 3020   4.204   1.217   5.308 -0.6872  1.8372  1.4181
  132DG      H8 3021   4.187   1.335   5.177  0.9749  1.0227  1.8396
  132DG      O9 3022   3.940   0.677   5.173  0.6623  0.7041  0.9910
  132DG     O10 3023   4.084   1.153   5.141 -0.3966  0.4289  0.7100
  132DG     C11 3024   4.047   0.647   5.075  0.0178 -0.1141  0.0616
  132DG     C12 3025   4.165   1.123   5.029 -0.2482  0.2767 -0.2872
  132DG     H13 3026   4.029   0.556   5.018  1.5252 -1.6704  1.9192
  132DG     H14 3027   4.145   0.626   5.118  0.2790 -0.1318 -0.5439
  132DG     H15 3028   4.266   1.106   5.064  0.2483  1.7004 -0.9549
  132DG     H16 3029   4.175   1.199   4.951 -0.4912  0.5620 -0.0408
  132DG     C17 3030   4.069   0.767   4.985  0.8538  0.3958  0.3552
  132DG     C18 3031   4.114   0.994   4.967  0.4085  0.2183 -0.4260
  132DG     O19 3032   4.101   0.887   5.058 -0.1125 -0.7701  0.0247
  132DG     H20 3033   3.975   0.780   4.931 -0.3766 -1.5422  1.9028
  132DG     H21 3034   4.146   0.741   4.913  1.5909  1.8453  0.5707
  132DG     H22 3035   4.018   1.007   4.916 -0.6866 -2.3246  0.7976
  132DG     H23 3036   4.184   0.975   4.887 -2.0902 -1.3261 -2.4027
  133DG      C1 3037   1.987   1.495   3.632 -0.1330  0.0337  0.3563
  133DG      C2 3038   1.596   1.928   3.304  0.1444  0.3604 -0.4881
  133DG      H3 3039   2.015   1.414   3.700  0.4480  1.7246  2.2391
  133DG      H4 3040   2.081   1.547   3.615  1.8734 -3.5416 -0.6179
  133DG      H5 3041   1.956   1.458   3.535  2.0201  1.9652 -1.1556
  133DG      H6 3042   1.529   2.012   3.286  0.1219  0.8278  1.5952
  133DG      H7 3043   1.694   1.953   3.266  1.4632 -1.1803  1.6710
  133DG      H8 3044   1.566   1.835   3.255  1.1837 -0.3172  0.1433
  133DG      O9 3045   1.884   1.574   3.687 -0.1176  0.5468  0.2075
  133DG     O10 3046   1.621   1.902   3.441 -0.2065 -0.3689  0.3081
  133DG     C11 3047   1.758   1.511   3.698  0.0969  0.0989 -0.3080
  133DG     C12 3048   1.509   1.867   3.509  0.4909  0.9118  0.5205
  133DG     H13 3049   1.763   1.430   3.770 -1.7756  1.7251  1.7717
  133DG     H14 3050   1.721   1.468   3.605 -1.2729  1.2802 -0.3373
  133DG     H15 3051   1.468   1.780   3.460  1.8429 -1.1349  2.7735
  133DG     H16 3052   1.439   1.950   3.509 -0.6938  0.1418 -3.6995
  133DG     C17 3053   1.655   1.613   3.745  0.1268 -0.4023  0.5081
  133DG     C18 3054   1.547   1.807   3.649  0.4634 -0.3458  0.4288
  133DG     O19 3055   1.635   1.694   3.631  0.2595 -0.2746 -0.2159
  133DG     H20 3056   1.697   1.677   3.823 -0.3396  1.3921 -0.6473
  133DG     H21 3057   1.570   1.552   3.774 -0.0284  1.3254  4.3228
  133DG     H22 3058   1.603   1.879   3.709  2.5009  0.6740 -2.4945
  133DG     H23 3059   1.454   1.783   3.701 -1.0106 -0.1620 -1.9868
  134DG      C1 3060   4.255   1.047   2.626  0.3888  0.7110  0.3512
  134DG      C2 3061   4.260   1.887   2.738 -0.1259 -0.4151  0.4789
  134DG      H3 3062   4.294   0.966   2.565 -0.8711 -0.5265  1.1406
  134DG      H4 3063   4.167   1.091   2.580 -0.3537  1.2713  2.2394
  134DG      H5 3064   4.222   0.998   2.718 -0.1151  1.8807  0.8111
  134DG      H6 3065   4.254   1.896   2.846  0.7135 -0.4555  0.5306
  134DG      H7 3066   4.313   1.973   2.698  0.1171 -1.5923 -1.9546
  134DG      H8 3067   4.163   1.886   2.687  0.7652 -3.3478 -1.3931
  134DG      O9 3068   4.356   1.143   2.640 -0.1941  0.3082 -0.4465
  134DG     O10 3069   4.308   1.756   2.713 -0.1086  0.7035 -0.2312
  134DG     C11 3070   4.317   1.263   2.702 -0.3272 -0.4958  0.1964
  134DG     C12 3071   4.423   1.715   2.790 -0.5081  0.3050  0.4450
  134DG     H13 3072   4.295   1.246   2.807  0.7019  1.4845  0.7970
  134DG     H14 3073   4.236   1.312   2.648 -0.5126 -1.3493 -0.3082
  134DG     H15 3074   4.396   1.694   2.893 -1.3189 -1.5943 -0.1082
  134DG     H16 3075   4.494   1.797   2.780  0.2215 -0.4321 -0.6806
  134DG     C17 3076   4.436   1.355   2.702 -0.8931 -0.1648 -0.4380
  134DG     C18 3077   4.494   1.585   2.738  0.1511  0.1131 -0.4183
  134DG     O19 3078   4.402   1.480   2.763  0.5466 -0.6298 -0.4452
  134DG     H20 3079   4.468   1.367   2.599  1.1636 -1.8042 -0.0501
  134DG     H21 3080   4.524   1.324   2.758 -0.0230  0.0379 -1.6697
  134DG     H22 3081   4.522   1.596   2.633  1.7936  0.3361  0.0242
  134DG     H23 3082   4.578   1.554   2.800  0.1839  0.4168 -0.3064
  135DG      C1 3083   5.293   5.059   1.802  0.0298 -0.1985 -0.4974
  135DG      C2 3084   5.198   5.341   2.456  0.0760 -0.1346 -0.5256
  135DG      H3 3085   5.300   4.950   1.795 -2.0381 -0.2441 -5.1540
  135DG      H4 3086   5.338   5.097   1.711  1.0281  0.2159  0.1460
  135DG      H5 3087   5.192   5.098   1.815  0.7420  1.8247 -0.6793
  135DG      H6 3088   5.173   5.436   2.408 -1.7031 -0.0455  0.4673
  135DG      H7 3089   5.107   5.282   2.473  0.0273 -0.1103 -0.6988
  135DG      H8 3090   5.240   5.365   2.553 -0.5547  0.0227 -0.2814
  135DG      O9 3091   5.382   5.101   1.912  0.3432  0.7235  0.1438
  135DG     O10 3092   5.288   5.262   2.380  0.1755  0.1112  0.0151
  135DG     C11 3093   5.419   5.238   1.898 -0.3729 -0.5834  0.2233
  135DG     C12 3094   5.416   5.320   2.376 -0.2529 -0.1654  0.9045
  135DG     H13 3095   5.338   5.311   1.894 -1.5766 -1.8217  1.0424
  135DG     H14 3096   5.480   5.255   1.809 -1.6216  0.3587 -0.5010
  135DG     H15 3097   5.472   5.299   2.468  0.5621 -1.2816  0.1785
  135DG     H16 3098   5.410   5.429   2.374 -0.8179 -0.1332  2.4407
  135DG     C17 3099   5.516   5.261   2.020 -0.1222  0.5861  0.7867
  135DG     C18 3100   5.503   5.256   2.258  0.3840  0.3868 -0.6918
  135DG     O19 3101   5.434   5.271   2.136  0.3568 -0.3743 -0.7450
  135DG     H20 3102   5.577   5.352   2.015  0.1077  0.3753 -0.5290
  135DG     H21 3103   5.575   5.169   2.024  1.5392  1.5922  0.5077
  135DG     H22 3104   5.596   5.313   2.260 -0.0135  1.0502  0.3839
  135DG     H23 3105   5.521   5.151   2.281  0.9119  0.5460 -0.3257
  136DG      C1 3106   0.530   1.900   3.922  0.3645 -0.3828 -0.1722
  136DG      C2 3107   1.071   2.203   3.493  0.6559  0.5989  0.5506
  136DG      H3 3108   0.523   1.943   4.022 -0.7691 -1.7818  0.3944
  136DG      H4 3109   0.453   1.823   3.912  1.6748 -1.7053 -0.4200
  136DG      H5 3110   0.515   1.982   3.853  2.1100 -0.6897 -0.9645
  136DG      H6 3111   1.085   2.281   3.568 -0.6525  0.0335  1.4149
  136DG      H7 3112   1.167   2.152   3.481  0.2852 -0.2220  0.9842
  136DG      H8 3113   1.046   2.253   3.399 -1.2040  2.4523  1.9595
  136DG      O9 3114   0.658   1.841   3.898 -0.2565  0.3104 -0.5302
  136DG     O10 3115   0.969   2.111   3.522 -0.0463  0.2321  0.3650
  136DG     C11 3116   0.669   1.761   3.780  0.8081 -0.1860  0.2488
  136DG     C12 3117   1.000   2.014   3.624 -0.2971 -0.3293  0.0928
  136DG     H13 3118   0.589   1.687   3.779 -0.2629  0.9315 -1.8683
  136DG     H14 3119   0.760   1.701   3.788 -0.7735 -2.7060  0.6260
  136DG     H15 3120   1.018   2.064   3.719 -0.8731 -1.7754  1.0085
  136DG     H16 3121   1.090   1.955   3.608  0.1347  0.0848  0.9411
  136DG     C17 3122   0.662   1.840   3.648 -0.1401 -0.6145 -0.0778
  136DG     C18 3123   0.889   1.914   3.646 -0.0168  0.6162 -0.2510
  136DG     O19 3124   0.748   1.951   3.637 -0.5940  0.3551 -0.1102
  136DG     H20 3125   0.567   1.890   3.632  0.6436  1.1210  0.4365
  136DG     H21 3126   0.673   1.788   3.553  0.0151  1.5917 -1.3332
  136DG     H22 3127   0.915   1.823   3.592 -1.1971  0.0550  0.0908
  136DG     H23 3128   0.894   1.886   3.752  0.6081  0.9325 -0.1937
  137DG      C1 3129   2.791   5.328   3.398  0.1994 -0.0809  0.3521
  137DG      C2 3130   2.079   5.415   3.512  0.0083  0.0072  0.7468
  137DG      H3 3131   2.809   5.435   3.380 -0.7610 -0.4042 -3.5116
  137DG      H4 3132   2.783   5.282   3.299 -0.2043  1.4116 -0.3514
  137DG      H5 3133   2.882   5.293   3.446  0.8586  3.0540  1.6326
  137DG      H6 3134   1.989   5.386   3.565 -1.9171 -1.3516 -2.8914
  137DG      H7 3135   2.072   5.524   3.516  1.3634  0.2964 -2.1435
  137DG      H8 3136   2.071   5.377   3.410 -1.5098 -2.9316  1.8593
  137DG      O9 3137   2.679   5.315   3.477 -0.6625  0.2095 -0.2160
  137DG     O10 3138   2.205   5.375   3.558  0.1209 -0.2814  0.1851
  137DG     C11 3139   2.659   5.186   3.520  0.0293 -0.0545 -0.0007
  137DG     C12 3140   2.201   5.245   3.607  0.1752 -0.2708 -0.3643
  137DG     H13 3141   2.747   5.129   3.550 -0.4031 -0.9355 -0.3866
  137DG     H14 3142   2.606   5.137   3.438 -0.4154  2.0669 -1.0652
  137DG     H15 3143   2.190   5.186   3.516 -0.4571  1.0538 -1.1742
  137DG     H16 3144   2.116   5.241   3.675  1.5989  0.1180  1.5331
  137DG     C17 3145   2.558   5.180   3.638  0.4309 -0.4749  0.4726
  137DG     C18 3146   2.328   5.217   3.677  0.9008 -0.3527 -0.3451
  137DG     O19 3147   2.433   5.228   3.589  0.3407  0.4510 -0.0418
  137DG     H20 3148   2.600   5.238   3.720  1.2350  0.4558 -0.5593
  137DG     H21 3149   2.550   5.079   3.677  0.2294 -0.3750  0.6936
  137DG     H22 3150   2.342   5.279   3.766  1.1449  1.2124 -1.4269
  137DG     H23 3151   2.324   5.113   3.709  0.7265 -0.0662  0.5941
  138DG      C1 3152   0.829   2.113   4.235  0.1201 -0.2687  0.4735
  138DG      C2 3153   0.869   2.752   3.956  0.4259 -0.7521  0.5244
  138DG      H3 3154   0.923   2.074   4.276 -0.2158  0.4082  1.9549
  138DG      H4 3155   0.769   2.030   4.199  2.0291 -1.3616 -0.3866
  138DG      H5 3156   0.781   2.175   4.310  0.9329  0.7920  0.1497
  138DG      H6 3157   0.832   2.809   3.870  1.6289 -0.3780  0.2283
  138DG      H7 3158   0.807   2.774   4.042 -0.0533  2.4237 -0.4894
  138DG      H8 3159   0.969   2.792   3.971  0.9522 -1.4591 -0.8639
  138DG      O9 3160   0.855   2.208   4.125  0.0283 -0.4716 -0.6508
  138DG     O10 3161   0.868   2.613   3.920 -0.2048  0.4444  0.5159
  138DG     C11 3162   0.969   2.177   4.049 -0.1120  0.0371  0.1443
  138DG     C12 3163   0.958   2.593   3.808 -0.0747 -0.0208 -0.2853
  138DG     H13 3164   0.971   2.069   4.041  1.9846  0.0870 -0.3766
  138DG     H14 3165   1.062   2.210   4.096 -0.6888  3.3146 -0.7298
  138DG     H15 3166   1.057   2.633   3.832  1.1658 -3.0556  0.1646
  138DG     H16 3167   0.934   2.644   3.715  1.0354 -0.8185 -1.0362
  138DG     C17 3168   0.966   2.247   3.911 -0.1560  0.1560  0.5682
  138DG     C18 3169   0.973   2.445   3.791 -0.5422 -0.0993 -0.0383
  138DG     O19 3170   0.962   2.384   3.918 -0.0029 -0.3052 -0.0116
  138DG     H20 3171   0.886   2.204   3.852  0.1816  2.2862 -1.5753
  138DG     H21 3172   1.062   2.219   3.868 -1.0104 -4.0879  1.0522
  138DG     H22 3173   0.901   2.395   3.726 -1.3961 -0.2247  0.9709
  138DG     H23 3174   1.069   2.418   3.746  0.3492  0.9137  1.2102
  139DG      C1 3175   0.023   3.715   2.648  0.4752  0.5171  0.1239
  139DG      C2 3176   0.721   3.700   2.293  0.1469 -0.4807  0.0101
  139DG      H3 3177  -0.007   3.735   2.545  0.2929  0.6589  0.2039
  139DG      H4 3178  -0.051   3.740   2.724  2.3742  0.5648  2.0316
  139DG      H5 3179   0.024   3.607   2.636 -1.7914  0.5155 -0.5932
  139DG      H6 3180   0.662   3.674   2.205  0.0394  0.1945 -0.1238
  139DG      H7 3181   0.791   3.782   2.276 -2.1931  1.6694  0.2560
  139DG      H8 3182   0.785   3.614   2.312  0.2669 -0.0460  1.6981
  139DG      O9 3183   0.145   3.789   2.658 -0.4653  0.4137  0.2173
  139DG     O10 3184   0.646   3.739   2.410  0.3655  0.3833  0.1191
  139DG     C11 3185   0.233   3.730   2.755 -0.0621  0.0726  0.4947
  139DG     C12 3186   0.550   3.645   2.455  0.1153  0.1942  0.1922
  139DG     H13 3187   0.249   3.624   2.734 -2.5666 -0.3007  0.1313
  139DG     H14 3188   0.181   3.732   2.851  0.3540 -2.0875  0.8264
  139DG     H15 3189   0.590   3.544   2.449 -0.9398 -0.2168 -0.0778
  139DG     H16 3190   0.468   3.643   2.383  0.9506  1.2495 -0.8399
  139DG     C17 3191   0.374   3.794   2.753  0.0765  0.0294 -0.0037
  139DG     C18 3192   0.515   3.677   2.604  0.4128  0.6183  0.1005
  139DG     O19 3193   0.432   3.790   2.622 -0.0952  0.3774  0.7627
  139DG     H20 3194   0.438   3.759   2.834  0.4488  0.1113 -0.2607
  139DG     H21 3195   0.358   3.900   2.773  0.3865  0.2052 -0.6639
  139DG     H22 3196   0.459   3.593   2.644 -0.7582  2.0418  1.6123
  139DG     H23 3197   0.605   3.692   2.664 -0.3534  1.3430  1.0862
  140DG      C1 3198   2.113   3.452   1.376  0.7697  0.0170 -0.2359
  140DG      C2 3199   1.846   2.849   1.409 -0.3094  0.3761  0.0514
  140DG      H3 3200   2.167   3.514   1.305  2.0892 -1.7282 -0.8093
  140DG      H4 3201   2.190   3.391   1.422  1.4331 -0.9503 -2.4973
  140DG      H5 3202   2.059   3.512   1.449 -0.9821  0.3737 -1.7423
  140DG      H6 3203   1.799   2.861   1.507 -0.4480  1.2741 -0.1094
  140DG      H7 3204   1.861   2.742   1.396 -2.7727  0.2173 -2.4582
  140DG      H8 3205   1.946   2.892   1.411  0.9951 -2.5030  1.0260
  140DG      O9 3206   2.019   3.370   1.307 -0.2127 -0.5969  0.4249
  140DG     O10 3207   1.757   2.897   1.310 -0.2008  0.3733  0.4088
  140DG     C11 3208   1.949   3.282   1.387  0.7198  0.2236 -0.6997
  140DG     C12 3209   1.804   2.907   1.174 -0.3905  0.3536 -0.3003
  140DG     H13 3210   1.896   3.337   1.464  0.8788 -1.7201  0.8691
  140DG     H14 3211   2.016   3.208   1.429  0.3868 -0.3251 -1.1191
  140DG     H15 3212   1.739   2.839   1.119  1.3543 -1.4232 -0.3036
  140DG     H16 3213   1.905   2.867   1.159  0.1560  2.3888 -2.5327
  140DG     C17 3214   1.843   3.201   1.311  0.8649  0.3011  0.1389
  140DG     C18 3215   1.809   3.051   1.126  0.2263  0.0605  0.0733
  140DG     O19 3216   1.904   3.136   1.203 -0.1971  0.3457  0.5321
  140DG     H20 3217   1.769   3.273   1.275  0.5185 -0.3534 -0.4806
  140DG     H21 3218   1.793   3.125   1.371  2.4398 -1.5551 -0.7857
  140DG     H22 3219   1.840   3.040   1.023  1.7624  0.4243  0.4728
  140DG     H23 3220   1.708   3.093   1.122  0.7606  1.4603  0.3547
  141DG      C1 3221   2.571   3.869   2.926 -0.1477  0.1312  0.4968
  141DG      C2 3222   2.494   3.480   2.616  0.6173  0.2479  0.2543
  141DG      H3 3223   2.502   3.937   2.977  0.3856  1.9211 -1.0624
  141DG      H4 3224   2.656   3.931   2.899  0.1265  0.2511  1.6035
  141DG      H5 3225   2.601   3.789   2.994 -1.4913 -0.1659  0.7690
  141DG      H6 3226   2.428   3.417   2.675  0.8262  2.3731  2.9475
  141DG      H7 3227   2.583   3.430   2.580  1.9266  2.5020  0.2034
  141DG      H8 3228   2.522   3.564   2.679  0.8546  0.5650 -0.2616
  141DG      O9 3229   2.520   3.807   2.803 -0.2525 -0.0500 -0.3898
  141DG     O10 3230   2.432   3.514   2.491  0.3287 -0.0680  0.2485
  141DG     C11 3231   2.421   3.891   2.747 -0.4267 -0.5647  0.2493
  141DG     C12 3232   2.512   3.613   2.421 -0.3400 -0.0270  0.4474
  141DG     H13 3233   2.466   3.988   2.726  0.9105 -0.8477  1.6382
  141DG     H14 3234   2.335   3.892   2.814  0.1504 -3.1148  1.1693
  141DG     H15 3235   2.520   3.579   2.317  1.7345 -0.1669  0.6146
  141DG     H16 3236   2.619   3.609   2.440  0.4307  2.4511 -2.5620
  141DG     C17 3237   2.366   3.833   2.620 -0.1256  0.2853 -0.0254
  141DG     C18 3238   2.460   3.754   2.409 -0.2694  0.3833  0.1398
  141DG     O19 3239   2.482   3.824   2.535 -0.7903 -0.2964  0.3915
  141DG     H20 3240   2.287   3.894   2.577 -1.2287  0.2713  1.8550
  141DG     H21 3241   2.328   3.734   2.646 -1.0724  1.4965  3.8348
  141DG     H22 3242   2.518   3.813   2.338 -0.3801  2.6296  1.8074
  141DG     H23 3243   2.358   3.767   2.375  0.0231  0.3722 -0.7519
  142DG      C1 3244   4.749   4.411   4.359  0.2783 -0.2810 -0.7305
  142DG      C2 3245   4.380   4.647   3.949  0.0005  0.0933  0.2652
  142DG      H3 3246   4.751   4.350   4.268  0.0944 -0.4832 -0.5983
  142DG      H4 3247   4.778   4.364   4.453 -1.8045  2.8344  1.6972
  142DG      H5 3248   4.822   4.491   4.343  1.8520 -1.3044  0.9716
  142DG      H6 3249   4.433   4.733   3.910  1.3579 -0.2082  1.3688
  142DG      H7 3250   4.452   4.572   3.981 -0.2630 -0.9399 -1.4388
  142DG      H8 3251   4.337   4.604   3.859 -1.8185 -1.7478  1.9051
  142DG      O9 3252   4.614   4.464   4.376 -0.6330 -0.1063 -0.0998
  142DG     O10 3253   4.277   4.674   4.036 -0.3403  0.4195 -0.7182
  142DG     C11 3254   4.598   4.564   4.481 -0.2076  0.7469  0.2382
  142DG     C12 3255   4.310   4.730   4.163  0.2350 -0.1585  0.1428
  142DG     H13 3256   4.666   4.648   4.469  0.9732 -0.4800 -2.5700
  142DG     H14 3257   4.624   4.519   4.577  0.2738 -1.7726 -0.9857
  142DG     H15 3258   4.221   4.769   4.211 -0.3802 -0.0140 -1.0840
  142DG     H16 3259   4.378   4.815   4.157  2.9415 -2.1184  0.8628
  142DG     C17 3260   4.442   4.594   4.479 -0.3535 -0.3563 -0.1473
  142DG     C18 3261   4.379   4.627   4.255  0.4566  0.3956  0.0615
  142DG     O19 3262   4.392   4.681   4.384  0.6382  0.6435  0.0284
  142DG     H20 3263   4.426   4.640   4.576  1.2377  0.0774 -0.0722
  142DG     H21 3264   4.394   4.496   4.484  0.2563 -0.6978 -0.8554
  142DG     H22 3265   4.316   4.539   4.271 -0.1911  0.9178  0.4338
  142DG     H23 3266   4.475   4.592   4.218 -0.1883 -0.9757 -0.3943
  143DG      C1 3267   1.822   0.770   2.651 -0.4264  0.1906  0.1669
  143DG      C2 3268   1.540   0.130   2.535  0.0740  0.0834  0.1779
  143DG      H3 3269   1.841   0.779   2.544 -0.9095  2.2052  0.2080
  143DG      H4 3270   1.892   0.845   2.687 -1.1107  1.0556 -0.2640
  143DG      H5 3271   1.722   0.805   2.677  0.3397  1.4328  1.6198
  143DG      H6 3272   1.431   0.135   2.523 -0.0262 -2.5340 -0.5829
  143DG      H7 3273   1.587   0.198   2.464  1.7355  0.3340  1.4773
  143DG      H8 3274   1.563   0.027   2.507 -1.0361  0.3235 -1.9034
  143DG      O9 3275   1.844   0.639   2.699 -0.4826 -0.4683  0.1581
  143DG     O10 3276   1.587   0.160   2.661 -0.0353 -0.5932  1.4192
  143DG     C11 3277   1.785   0.612   2.826 -0.2675  0.2932 -0.2863
  143DG     C12 3278   1.727   0.156   2.689  0.4193  0.2846 -0.1921
  143DG     H13 3279   1.680   0.639   2.819 -0.5750 -0.9515 -0.6340
  143DG     H14 3280   1.830   0.671   2.906  0.2433  0.8419 -0.9559
  143DG     H15 3281   1.789   0.179   2.602  1.0385  1.4062  0.5217
  143DG     H16 3282   1.747   0.051   2.709  0.3333  0.3589  0.3094
  143DG     C17 3283   1.807   0.467   2.862 -0.3610  0.7701 -0.5651
  143DG     C18 3284   1.771   0.244   2.808  0.2736 -0.9123  0.8174
  143DG     O19 3285   1.759   0.377   2.764 -0.2077  0.2062 -0.2829
  143DG     H20 3286   1.747   0.458   2.952 -0.6548  0.6960 -0.7693
  143DG     H21 3287   1.913   0.443   2.875  0.0019  0.4359 -3.4064
  143DG     H22 3288   1.723   0.218   2.902 -0.8247  0.7446  0.7669
  143DG     H23 3289   1.875   0.220   2.830  0.8889  0.2457 -0.6930
  144DG      C1 3290   4.403   4.467   3.583 -0.2352 -0.2706 -0.6290
  144DG      C2 3291   4.119   4.968   3.948  0.0425 -0.4681  0.1738
  144DG      H3 3292   4.389   4.567   3.543  1.8911  0.4817  0.4091
  144DG      H4 3293   4.494   4.423   3.542  0.0100 -0.2941 -0.0630
  144DG      H5 3294   4.436   4.478   3.686 -2.2646  0.4621  0.0039
  144DG      H6 3295   4.225   4.971   3.922 -0.2014 -0.3076 -0.8626
  144DG      H7 3296   4.098   5.071   3.979 -0.0188 -0.7295  1.0321
  144DG      H8 3297   4.099   4.922   4.045 -3.5109  0.7267  0.1440
  144DG      O9 3298   4.288   4.383   3.564 -0.2627 -0.5868  0.5590
  144DG     O10 3299   4.038   4.921   3.840 -0.5198 -0.0357  0.2407
  144DG     C11 3300   4.173   4.430   3.626 -0.6672  0.6177  0.3460
  144DG     C12 3301   4.067   4.790   3.810  0.7360  0.0607 -0.3193
  144DG     H13 3302   4.184   4.412   3.733  2.5762 -2.4332 -0.2865
  144DG     H14 3303   4.084   4.371   3.605  0.3359 -0.6188 -0.6403
  144DG     H15 3304   4.040   4.734   3.899 -0.4652  0.3145 -0.5144
  144DG     H16 3305   4.175   4.778   3.795  1.1795  1.4885  1.3628
  144DG     C17 3306   4.133   4.569   3.596  0.2760  0.1736  0.5652
  144DG     C18 3307   3.998   4.748   3.676 -0.1171  0.2504 -0.7003
  144DG     O19 3308   4.007   4.610   3.653 -0.0837  0.6711 -0.1669
  144DG     H20 3309   4.132   4.594   3.490  0.3042  0.6337  0.6716
  144DG     H21 3310   4.213   4.634   3.631  0.0698  1.0342 -0.5320
  144DG     H22 3311   3.893   4.775   3.669 -0.1850 -0.3627 -2.5901
  144DG     H23 3312   4.036   4.802   3.589  0.5952  1.7100  0.4811
  145DG      C1 3313   0.140   4.310   3.139  0.3826  0.5420 -0.9039
  145DG      C2 3314   0.565   4.746   3.338  0.0128 -0.2069  0.6690
  145DG      H3 3315   0.034   4.298   3.121  0.5589 -1.0606 -0.9765
  145DG      H4 3316   0.193   4.221   3.103  0.4374  0.5139 -0.7566
  145DG      H5 3317   0.174   4.385   3.068  0.0505 -0.0274 -1.6763
  145DG      H6 3318   0.646   4.681   3.309 -0.8390  0.0824 -2.7520
  145DG      H7 3319   0.534   4.794   3.245 -1.0819  0.3097  1.2642
  145DG      H8 3320   0.599   4.822   3.409  1.2484  1.7754 -1.8889
  145DG      O9 3321   0.184   4.336   3.274  0.2775 -0.3192 -0.5496
  145DG     O10 3322   0.455   4.673   3.384  0.5417  0.4820  0.0716
  145DG     C11 3323   0.097   4.411   3.348  0.3630  0.6330 -0.1049
  145DG     C12 3324   0.468   4.626   3.523 -0.2174  0.2993  0.3616
  145DG     H13 3325   0.005   4.353   3.354  1.3460 -1.0801 -0.9630
  145DG     H14 3326   0.074   4.506   3.299  0.5372  0.9346  0.3959
  145DG     H15 3327   0.502   4.709   3.585  0.4281 -1.1667  2.0404
  145DG     H16 3328   0.554   4.560   3.523 -0.8273 -0.6160  2.9947
  145DG     C17 3329   0.164   4.426   3.479  0.2534 -0.5193 -0.8556
  145DG     C18 3330   0.343   4.550   3.577 -0.4655 -0.2694  0.1787
  145DG     O19 3331   0.281   4.502   3.461 -0.2528 -0.0117  0.0004
  145DG     H20 3332   0.196   4.332   3.523  2.6679  0.3068 -0.7201
  145DG     H21 3333   0.092   4.474   3.545  0.4287 -0.6816 -0.5430
  145DG     H22 3334   0.381   4.480   3.651 -1.1802 -2.5180 -1.4737
  145DG     H23 3335   0.279   4.621   3.630 -2.9801 -1.0313 -1.6166
  146DG      C1 3336   2.324   1.136   5.385 -0.2768  0.7945 -0.1500
  146DG      C2 3337   1.781   1.169   4.908  0.0896 -0.0717  0.1429
  146DG      H3 3338   2.233   1.079   5.406 -1.0625  1.6854 -1.0445
  146DG      H4 3339   2.311   1.232   5.435  2.0951  0.5639  1.0512
  146DG      H5 3340   2.402   1.087   5.444 -0.2961 -0.7804 -1.3546
  146DG      H6 3341   1.706   1.094   4.883 -0.5641  0.4855  0.3717
  146DG      H7 3342   1.778   1.181   5.017  0.1243 -1.5569  0.3214
  146DG      H8 3343   1.747   1.265   4.867  1.6122 -0.7991 -3.1402
  146DG      O9 3344   2.356   1.155   5.244  0.1878 -0.0814 -0.2348
  146DG     O10 3345   1.916   1.143   4.870 -0.2315  0.0884  0.6499
  146DG     C11 3346   2.351   1.022   5.191 -0.1721 -0.4319 -0.2093
  146DG     C12 3347   1.969   1.011   4.898  0.5666 -0.2283 -0.2416
  146DG     H13 3348   2.289   0.948   5.242 -1.3167 -2.2545 -3.8822
  146DG     H14 3349   2.452   0.983   5.177 -0.7353 -1.1169 -2.9219
  146DG     H15 3350   1.923   0.942   4.827 -2.2804  2.5246 -1.3268
  146DG     H16 3351   1.936   0.974   4.995  1.6613 -1.2263 -0.2225
  146DG     C17 3352   2.315   1.029   5.043 -0.0168  0.4970 -0.0191
  146DG     C18 3353   2.121   1.012   4.910 -0.4159 -0.0352 -0.2177
  146DG     O19 3354   2.175   1.063   5.031 -0.0775  0.1522 -0.0206
  146DG     H20 3355   2.342   0.933   4.999 -1.2510 -0.7439  1.7991
  146DG     H21 3356   2.365   1.110   4.991 -1.6527  1.2486 -0.4659
  146DG     H22 3357   2.152   0.908   4.900  0.1390 -0.0025  0.9289
  146DG     H23 3358   2.174   1.064   4.829  1.7927 -1.5084  0.1756
  147DG      C1 3359   3.443   3.033   0.991  0.3097 -1.0158  0.0583
  147DG      C2 3360   2.691   2.886   1.490  0.3653 -0.5760  0.5618
  147DG      H3 3361   3.473   2.999   0.891  3.0822 -0.7846  0.7284
  147DG      H4 3362   3.544   3.048   1.030  0.3454  1.1101 -0.7294
  147DG      H5 3363   3.403   3.134   0.983 -1.0489 -1.6060 -0.8684
  147DG      H6 3364   2.635   2.806   1.539 -3.0728  1.1026 -0.2766
  147DG      H7 3365   2.670   2.978   1.545 -1.7855  1.1213 -2.7536
  147DG      H8 3366   2.657   2.896   1.387  1.2489 -0.2877  0.2936
  147DG      O9 3367   3.358   2.959   1.064  0.6706 -0.3172  0.3245
  147DG     O10 3368   2.823   2.852   1.488  0.4197 -0.1644  0.6694
  147DG     C11 3369   3.336   3.006   1.200 -0.3547  0.9999 -0.1122
  147DG     C12 3370   2.908   2.930   1.406  0.4277 -0.0763 -0.1551
  147DG     H13 3371   3.286   3.102   1.198 -2.3511  0.0091 -1.2979
  147DG     H14 3372   3.436   3.008   1.244 -0.1837 -0.7087 -0.3385
  147DG     H15 3373   2.941   3.027   1.444  0.5610  1.3993 -3.6333
  147DG     H16 3374   2.859   2.955   1.312 -0.2792 -1.0486 -0.0649
  147DG     C17 3375   3.254   2.889   1.269 -0.2183  0.0456  0.3684
  147DG     C18 3376   3.045   2.857   1.380  0.5077 -0.3995  0.0561
  147DG     O19 3377   3.120   2.941   1.285  0.1802  0.5715 -1.0476
  147DG     H20 3378   3.294   2.871   1.369  1.7915  0.6761 -0.2704
  147DG     H21 3379   3.242   2.791   1.224 -0.0914  0.0114  0.4088
  147DG     H22 3380   3.086   2.854   1.482 -0.2414 -1.2085  0.3493
  147DG     H23 3381   3.035   2.755   1.343  0.6626 -1.2437  2.1815
  148DG      C1 3382   0.672   4.622   2.624 -0.3443  0.7063  0.3254
  148DG      C2 3383   0.741   5.052   3.281 -0.0777  0.2501  0.2023
  148DG      H3 3384   0.725   4.596   2.532 -1.5285 -1.2756  0.1682
  148DG      H4 3385   0.567   4.639   2.603 -0.3302  0.1835 -0.1967
  148DG      H5 3386   0.670   4.530   2.682 -1.3619  0.1091 -0.6205
  148DG      H6 3387   0.637   5.022   3.290 -0.7793  2.1591 -0.8731
  148DG      H7 3388   0.791   5.010   3.368 -1.4822 -0.1675  0.8401
  148DG      H8 3389   0.739   5.158   3.306  0.7401  0.2416  0.3341
  148DG      O9 3390   0.733   4.723   2.700  0.2710 -0.4245 -0.0694
  148DG     O10 3391   0.801   5.011   3.156 -0.0134 -0.3093 -0.4699
  148DG     C11 3392   0.858   4.692   2.750  0.2604 -0.3507 -0.2621
  148DG     C12 3393   0.718   5.035   3.042 -0.2083 -0.4490  0.5651
  148DG     H13 3394   0.919   4.673   2.661 -0.2715 -0.9377 -0.5088
  148DG     H14 3395   0.856   4.598   2.805  1.3224 -0.6374 -0.6728
  148DG     H15 3396   0.694   5.141   3.051 -0.7323 -0.5454  0.3641
  148DG     H16 3397   0.628   4.973   3.050 -0.3323 -0.4671 -0.6753
  148DG     C17 3398   0.907   4.803   2.835 -0.8614 -0.1294  0.5776
  148DG     C18 3399   0.798   4.992   2.920  0.2418 -0.0938  0.4799
  148DG     O19 3400   0.807   4.847   2.923  0.1026 -0.1796  0.2713
  148DG     H20 3401   0.928   4.885   2.766 -1.6624  1.3534  2.0232
  148DG     H21 3402   1.002   4.780   2.883 -1.6687 -2.1062  1.3045
  148DG     H22 3403   0.756   5.033   2.828  1.3587  0.6342  0.2867
  148DG     H23 3404   0.896   5.037   2.930  0.0969  0.2499  0.3558
  149DG      C1 3405   3.928   2.258   4.237  0.0154 -0.1088  1.0107
  149DG      C2 3406   3.796   2.237   4.864 -0.0601  0.5497 -0.0347
  149DG      H3 3407   3.900   2.210   4.143 -1.3380  4.1100 -1.0160
  149DG      H4 3408   4.005   2.205   4.292 -0.2419 -0.6786  0.8363
  149DG      H5 3409   3.945   2.364   4.219  1.2657 -0.5763 -0.9430
  149DG      H6 3410   3.822   2.182   4.773 -0.1897 -0.5297  0.5599
  149DG      H7 3411   3.812   2.343   4.848  0.4017  0.7494  1.6215
  149DG      H8 3412   3.855   2.220   4.953  0.4752  1.8393 -0.1328
  149DG      O9 3413   3.812   2.257   4.317 -0.1968 -0.2546 -0.1651
  149DG     O10 3414   3.664   2.234   4.896 -0.7198 -0.1658  0.0981
  149DG     C11 3415   3.789   2.128   4.378 -0.2049 -0.2808 -0.3761
  149DG     C12 3416   3.589   2.273   4.784 -0.3774 -0.8112 -0.1532
  149DG     H13 3417   3.878   2.097   4.432  0.6270  1.1710 -0.8439
  149DG     H14 3418   3.782   2.061   4.292 -0.8474 -1.4746  0.5921
  149DG     H15 3419   3.605   2.372   4.743 -0.7800 -0.0850  1.3565
  149DG     H16 3420   3.486   2.275   4.817 -0.7986  1.6111 -1.4337
  149DG     C17 3421   3.663   2.112   4.465 -0.6378 -0.4386  0.9061
  149DG     C18 3422   3.586   2.178   4.668  0.4458  0.2267 -0.2515
  149DG     O19 3423   3.685   2.200   4.573  0.5978 -0.2756  0.1739
  149DG     H20 3424   3.637   2.008   4.486 -0.5015 -1.0595 -1.6611
  149DG     H21 3425   3.581   2.150   4.403 -0.5626  1.3901  1.8563
  149DG     H22 3426   3.593   2.073   4.698  0.4634 -0.0511 -1.1802
  149DG     H23 3427   3.491   2.187   4.614 -0.3628  0.5997  1.1759
  150DG      C1 3428   1.812   2.596   0.149 -0.4672 -0.0326 -0.1678
  150DG      C2 3429   1.408   2.052   0.507  0.4940  0.7542 -0.5528
  150DG      H3 3430   1.876   2.644   0.223  3.3658 -0.4750 -2.8596
  150DG      H4 3431   1.813   2.674   0.073 -1.9458 -0.9774 -1.2127
  150DG      H5 3432   1.859   2.505   0.112 -0.1618 -0.9833  2.3970
  150DG      H6 3433   1.441   1.963   0.455 -1.6637  0.6802 -1.9096
  150DG      H7 3434   1.472   2.086   0.589  0.5489  0.4726 -0.4808
  150DG      H8 3435   1.311   2.034   0.553  1.5317 -1.0328  1.0569
  150DG      O9 3436   1.678   2.565   0.188  0.2505 -0.0076 -0.1107
  150DG     O10 3437   1.403   2.159   0.409  0.3019 -0.4848  0.0170
  150DG     C11 3438   1.598   2.513   0.085  0.5464  0.4902 -0.0252
  150DG     C12 3439   1.409   2.296   0.454  0.6108  0.0344  0.0500
  150DG     H13 3440   1.632   2.419   0.043 -1.1141  0.5944 -1.7642
  150DG     H14 3441   1.591   2.593   0.010 -1.0019  1.0710  0.6892
  150DG     H15 3442   1.502   2.317   0.507  0.5733  2.5006 -0.7414
  150DG     H16 3443   1.331   2.315   0.527 -0.3056  3.1165 -1.5290
  150DG     C17 3444   1.457   2.488   0.143  0.5091 -0.2768  0.0597
  150DG     C18 3445   1.376   2.396   0.342 -0.0589  0.1043  0.3680
  150DG     O19 3446   1.478   2.396   0.247 -0.6064 -0.2231  0.1421
  150DG     H20 3447   1.390   2.443   0.069  1.5335 -3.5505  0.9549
  150DG     H21 3448   1.417   2.584   0.176  0.6489 -0.1885 -0.0247
  150DG     H22 3449   1.285   2.374   0.285  1.1611  0.9899 -2.0509
  150DG     H23 3450   1.359   2.493   0.389 -0.2484  0.0997  0.3105
  151DG      C1 3451   4.944   1.774   2.130 -0.0294  0.2900 -0.2804
  151DG      C2 3452   4.547   1.802   1.995 -0.2273 -0.0649 -0.3371
  151DG      H3 3453   4.837   1.787   2.112 -1.4002 -2.9067  3.9114
  151DG      H4 3454   4.932   1.708   2.216  2.2439 -0.6277 -0.5915
  151DG      H5 3455   4.993   1.731   2.042 -1.8316  0.3762 -1.3650
  151DG      H6 3456   4.561   1.784   2.101 -0.6432 -3.6721 -0.7528
  151DG      H7 3457   4.481   1.723   1.959  0.7070 -0.4588 -1.2566
  151DG      H8 3458   4.638   1.771   1.943 -1.5668 -2.5360 -1.3906
  151DG      O9 3459   5.004   1.900   2.159 -0.2470 -0.0234  0.0615
  151DG     O10 3460   4.495   1.924   1.946  0.6582 -0.2887 -1.1291
  151DG     C11 3461   4.938   1.972   2.261  0.2697 -0.1536  0.5933
  151DG     C12 3462   4.598   2.015   1.915 -0.0910 -0.1606 -0.2458
  151DG     H13 3463   5.003   2.028   2.328  0.2643 -0.1700  0.6122
  151DG     H14 3464   4.873   1.910   2.322 -0.1705 -2.0899 -1.7124
  151DG     H15 3465   4.545   2.088   1.854 -1.3816 -2.5898 -2.2408
  151DG     H16 3466   4.672   1.978   1.844  1.2099 -0.2453  1.1039
  151DG     C17 3467   4.838   2.064   2.187 -0.0259  0.5565 -0.3751
  151DG     C18 3468   4.663   2.084   2.031  0.0861  0.0505 -0.7447
  151DG     O19 3469   4.748   1.997   2.102  0.3083  0.7251 -0.6721
  151DG     H20 3470   4.881   2.144   2.127  0.7604  1.0414  0.7753
  151DG     H21 3471   4.774   2.112   2.261 -0.4534 -1.3272  0.5451
  151DG     H22 3472   4.729   2.154   1.981  0.9310  0.5070  0.9534
  151DG     H23 3473   4.597   2.143   2.094 -0.7411 -1.9191  0.3534
  152DG      C1 3474   3.392   1.326   2.716 -0.4422  0.1471  0.4062
  152DG      C2 3475   3.863   0.803   2.492 -1.0128  0.2321  0.2204
  152DG      H3 3476   3.293   1.315   2.760 -0.2069 -1.4684  0.5734
  152DG      H4 3477   3.379   1.314   2.609  1.1177  0.8162  0.1110
  152DG      H5 3478   3.437   1.424   2.733 -0.9201  0.1726  1.6423
  152DG      H6 3479   3.962   0.848   2.485 -1.8780  2.0314 -1.5071
  152DG      H7 3480   3.857   0.738   2.579  1.4950  1.8290  1.7209
  152DG      H8 3481   3.848   0.739   2.404 -4.0404 -1.3130  1.7055
  152DG      O9 3482   3.481   1.237   2.766 -0.1770 -0.3084  0.3373
  152DG     O10 3483   3.769   0.911   2.489  0.2694  0.3469 -0.4115
  152DG     C11 3484   3.443   1.097   2.769  0.2078 -0.0109 -0.6795
  152DG     C12 3485   3.636   0.858   2.460 -0.0079  0.3418  0.3973
  152DG     H13 3486   3.359   1.092   2.838  1.2469  0.6142  0.6818
  152DG     H14 3487   3.524   1.041   2.816  0.3370 -0.0370 -0.9269
  152DG     H15 3488   3.604   0.787   2.537  0.6429 -0.9364 -0.4651
  152DG     H16 3489   3.640   0.802   2.367 -1.6317  1.3593 -0.3220
  152DG     C17 3490   3.413   1.046   2.632 -0.3547 -0.0956  0.1018
  152DG     C18 3491   3.538   0.967   2.436 -0.9042 -1.0152  0.6030
  152DG     O19 3492   3.529   1.047   2.550  0.1025  0.1038 -0.2836
  152DG     H20 3493   3.332   1.099   2.582 -1.3554 -1.2069  0.4833
  152DG     H21 3494   3.379   0.942   2.632  2.2432 -1.0295 -0.4956
  152DG     H22 3495   3.573   1.031   2.355 -1.2094 -2.1234 -0.4417
  152DG     H23 3496   3.439   0.935   2.405 -0.8574 -0.4335 -0.1875
  153DG      C1 3497   0.236   0.213   2.193 -0.1690 -0.2250  0.5331
  153DG      C2 3498  -0.278   0.259   1.589  0.3698 -0.4171  0.1918
  153DG      H3 3499   0.219   0.277   2.280 -1.1921  0.9277 -0.4811
  153DG      H4 3500   0.264   0.264   2.102 -0.0829 -0.2853  0.5261
  153DG      H5 3501   0.315   0.140   2.206  0.7297  0.4998 -0.6743
  153DG      H6 3502  -0.189   0.279   1.531  1.7347  0.8483  2.5958
  153DG      H7 3503  -0.355   0.199   1.540 -2.4956  2.4170  0.8736
  153DG      H8 3504  -0.334   0.349   1.613  2.1630  1.0262 -0.8676
  153DG      O9 3505   0.111   0.147   2.153 -0.1329  0.0399 -0.3395
  153DG     O10 3506  -0.236   0.204   1.713  0.5745  0.3172 -0.8221
  153DG     C11 3507   0.010   0.237   2.117  0.2301 -0.2436 -0.3041
  153DG     C12 3508  -0.338   0.186   1.811  0.3840 -0.1761  0.2311
  153DG     H13 3509   0.038   0.283   2.023 -0.4672  1.5812  0.3249
  153DG     H14 3510   0.002   0.319   2.189  0.9091 -2.1513  2.0711
  153DG     H15 3511  -0.414   0.114   1.783  0.1764  0.3502 -0.5734
  153DG     H16 3512  -0.402   0.273   1.828 -1.1061 -1.0337 -0.7785
  153DG     C17 3513  -0.123   0.153   2.103 -0.0203 -0.5437 -0.2427
  153DG     C18 3514  -0.284   0.140   1.940  0.1490  0.3868 -0.1693
  153DG     O19 3515  -0.185   0.223   1.995  0.5449  0.2045  0.0633
  153DG     H20 3516  -0.191   0.142   2.187 -1.2653 -1.7297 -1.3712
  153DG     H21 3517  -0.105   0.048   2.082 -0.0253 -0.7841  0.8995
  153DG     H22 3518  -0.359   0.109   2.013 -0.4302  1.7017 -0.1729
  153DG     H23 3519  -0.252   0.042   1.906  0.2627  0.9483 -1.7392
  154DG      C1 3520   3.268   3.515   4.101 -0.1075  0.2533 -0.3756
  154DG      C2 3521   2.756   2.873   4.036 -0.7652 -0.6472 -0.0916
  154DG      H3 3522   3.198   3.584   4.053 -0.0062  0.6586  0.0480
  154DG      H4 3523   3.370   3.537   4.069  0.0974 -2.5724 -1.9555
  154DG      H5 3524   3.245   3.527   4.207  0.5357 -0.9126 -0.0886
  154DG      H6 3525   2.689   2.959   4.037  0.6003  0.4804 -0.4179
  154DG      H7 3526   2.747   2.812   3.947  1.3081  0.7449 -1.3646
  154DG      H8 3527   2.740   2.804   4.118 -0.4151  0.2735  0.7794
  154DG      O9 3528   3.227   3.389   4.054  0.3372 -0.1686 -0.7141
  154DG     O10 3529   2.892   2.912   4.038  0.2610 -0.3247 -0.1760
  154DG     C11 3530   3.248   3.272   4.145 -0.0960  0.3836  0.0069
  154DG     C12 3531   2.928   2.979   3.917 -0.0560  0.6762  0.4067
  154DG     H13 3532   3.181   3.282   4.231  0.4822  1.1435  0.3858
  154DG     H14 3533   3.346   3.276   4.192  0.9938 -0.5282 -2.0718
  154DG     H15 3534   2.876   3.073   3.897 -0.1833  0.7739  1.1824
  154DG     H16 3535   2.910   2.916   3.830  0.5066  0.4465  0.4550
  154DG     C17 3536   3.228   3.140   4.075 -0.2821 -0.4427 -0.6988
  154DG     C18 3537   3.077   3.019   3.930  0.1859  0.0395  0.1520
  154DG     O19 3538   3.092   3.127   4.023  0.0859  0.5605 -0.8879
  154DG     H20 3539   3.256   3.053   4.133  2.3628  0.1663 -0.9147
  154DG     H21 3540   3.294   3.140   3.987  1.1075  1.6529  0.2589
  154DG     H22 3541   3.132   2.935   3.972  0.7630  1.2957  2.0672
  154DG     H23 3542   3.131   3.050   3.841  3.1414 -1.8969  1.1377
  155DG      C1 3543   4.118   5.224   0.179 -0.0422 -0.3031 -0.0686
  155DG      C2 3544   4.783   5.288   0.182  0.2796  0.3065  0.5655
  155DG      H3 3545   4.037   5.283   0.222 -0.8873 -1.2640 -0.2762
  155DG      H4 3546   4.081   5.121   0.173  1.2039 -0.9511  2.0792
  155DG      H5 3547   4.146   5.257   0.080  0.1172  0.7621  0.3228
  155DG      H6 3548   4.806   5.392   0.159 -1.8065  0.5901 -0.4913
  155DG      H7 3549   4.861   5.232   0.232  1.2278 -0.1319 -1.3107
  155DG      H8 3550   4.777   5.230   0.090 -0.6215  2.4910 -0.8334
  155DG      O9 3551   4.232   5.218   0.263  0.1951 -0.5311 -0.1765
  155DG     O10 3552   4.671   5.277   0.266  0.1747 -0.1940  0.2494
  155DG     C11 3553   4.209   5.261   0.388 -0.1897 -0.8901 -0.6827
  155DG     C12 3554   4.674   5.354   0.382  0.6568  0.1990 -0.1422
  155DG     H13 3555   4.126   5.202   0.428  0.2588 -1.5306 -0.6891
  155DG     H14 3556   4.181   5.366   0.380  1.6908 -0.2763  0.3452
  155DG     H15 3557   4.674   5.461   0.360 -2.5427  0.5419  1.0275
  155DG     H16 3558   4.764   5.327   0.438 -0.6971 -2.4037  0.9217
  155DG     C17 3559   4.331   5.250   0.476 -1.0366 -0.2846  0.4754
  155DG     C18 3560   4.557   5.333   0.473 -0.0708 -0.5940 -0.0754
  155DG     O19 3561   4.435   5.327   0.405 -0.1114  0.2538  0.5041
  155DG     H20 3562   4.367   5.148   0.490  0.1307  0.3741  2.9362
  155DG     H21 3563   4.304   5.302   0.569  0.4942 -2.3076  2.1598
  155DG     H22 3564   4.578   5.243   0.530  1.6955  0.4248  0.9466
  155DG     H23 3565   4.547   5.412   0.547 -0.3987 -0.3620 -0.3619
  156DG      C1 3566   0.387   4.657   2.376  0.0169 -0.6604  0.3839
  156DG      C2 3567   0.638   4.481   1.632  0.1872 -0.1398  0.2963
  156DG      H3 3568   0.349   4.627   2.474  0.0610  1.6121  1.1698
  156DG      H4 3569   0.303   4.680   2.310  0.8060  1.2831 -0.0035
  156DG      H5 3570   0.443   4.749   2.394 -0.4515 -0.8154  2.9258
  156DG      H6 3571   0.711   4.557   1.609  0.1106 -0.5573 -1.4331
  156DG      H7 3572   0.660   4.398   1.565 -0.7699  0.5877 -0.9586
  156DG      H8 3573   0.538   4.513   1.603 -0.1279 -0.2723  1.1898
  156DG      O9 3574   0.473   4.559   2.321  0.1155 -0.1028  0.5655
  156DG     O10 3575   0.637   4.441   1.769  0.6088 -0.7269 -0.9118
  156DG     C11 3576   0.535   4.600   2.207 -0.0347 -0.9279 -0.5871
  156DG     C12 3577   0.750   4.379   1.829  0.4439 -0.4973 -0.6080
  156DG     H13 3578   0.609   4.676   2.231  0.1776 -1.7894  1.7498
  156DG     H14 3579   0.459   4.635   2.136  0.0206 -1.2619 -0.8115
  156DG     H15 3580   0.843   4.432   1.808  1.1365 -1.7364 -0.8018
  156DG     H16 3581   0.767   4.281   1.784 -1.7698 -2.0919  1.7834
  156DG     C17 3582   0.616   4.471   2.164 -0.1522 -0.3833 -0.4833
  156DG     C18 3583   0.719   4.369   1.980  0.2036  0.1707  0.2894
  156DG     O19 3584   0.657   4.483   2.027 -0.3460 -0.7973  0.3130
  156DG     H20 3585   0.552   4.383   2.167  0.7721 -1.0428  1.8832
  156DG     H21 3586   0.690   4.454   2.242 -0.1426  1.9896  0.1093
  156DG     H22 3587   0.648   4.288   1.987  1.8466 -1.3629 -0.0096
  156DG     H23 3588   0.817   4.344   2.022  0.4050  0.5845  0.0808
  157DG      C1 3589   3.153   4.640   3.453  0.2125  0.2562 -0.3641
  157DG      C2 3590   3.351   4.697   4.001  0.4432 -0.0455 -0.2074
  157DG      H3 3591   3.089   4.593   3.527 -0.1865  2.5805  0.8570
  157DG      H4 3592   3.244   4.583   3.436  1.1496  1.5076  0.2810
  157DG      H5 3593   3.104   4.651   3.356 -1.2460  1.7644  0.4878
  157DG      H6 3594   3.302   4.703   4.098  1.0076 -0.4454  0.1092
  157DG      H7 3595   3.314   4.610   3.946 -0.3653  0.8330 -1.0876
  157DG      H8 3596   3.458   4.678   4.010  0.5807  0.2720 -1.0270
  157DG      O9 3597   3.169   4.774   3.511  0.0583  0.6418 -0.4056
  157DG     O10 3598   3.346   4.821   3.933 -0.4172 -0.2056 -0.4560
  157DG     C11 3599   3.055   4.853   3.511  0.2577  0.2641 -0.1218
  157DG     C12 3600   3.211   4.839   3.881  0.3658  0.0595  0.1667
  157DG     H13 3601   2.973   4.803   3.563 -1.8439  0.8268 -2.6248
  157DG     H14 3602   3.037   4.859   3.403  2.8687 -2.3627 -0.8683
  157DG     H15 3603   3.148   4.874   3.963 -0.0565  0.0702 -0.1574
  157DG     H16 3604   3.162   4.752   3.835 -0.2172  0.3334  0.2554
  157DG     C17 3605   3.081   4.987   3.577  0.0416 -0.3697 -1.7469
  157DG     C18 3606   3.223   4.941   3.768 -0.8861 -0.4865 -0.1261
  157DG     O19 3607   3.086   4.961   3.720 -0.1252 -0.4404  0.5163
  157DG     H20 3608   2.996   5.054   3.562 -2.3016 -2.3316  1.4891
  157DG     H21 3609   3.175   5.031   3.544  1.4862 -0.4599  1.8237
  157DG     H22 3610   3.263   5.039   3.794 -1.2995  0.2838 -2.1919
  157DG     H23 3611   3.281   4.891   3.690 -0.0675  0.5560 -0.2185
  158DG      C1 3612   4.224   2.003   4.197 -0.2562  0.6283  0.0567
  158DG      C2 3613   4.387   2.118   3.573  0.1378 -0.6345 -0.4066
  158DG      H3 3614   4.153   1.940   4.144 -1.4718  0.2991  1.9608
  158DG      H4 3615   4.167   2.046   4.280  0.6140 -1.1983  1.6920
  158DG      H5 3616   4.297   1.933   4.238 -0.7341 -1.4337 -2.3940
  158DG      H6 3617   4.455   2.034   3.571  0.2126 -0.8079  3.1746
  158DG      H7 3618   4.288   2.092   3.536 -0.6140  1.2654  0.1146
  158DG      H8 3619   4.425   2.190   3.500  0.9426  1.4710  1.9298
  158DG      O9 3620   4.273   2.111   4.115  0.0678  0.1746 -0.6857
  158DG     O10 3621   4.374   2.190   3.700  0.2011  0.1536  0.3966
  158DG     C11 3622   4.370   2.184   4.183 -0.6192 -0.4108 -0.5794
  158DG     C12 3623   4.477   2.286   3.720  0.2932  0.5549  0.1143
  158DG     H13 3624   4.452   2.115   4.198 -0.4256  0.0897  0.8177
  158DG     H14 3625   4.329   2.216   4.279 -0.0204  1.6197 -0.9591
  158DG     H15 3626   4.468   2.358   3.639 -0.5686 -0.9935 -1.2079
  158DG     H16 3627   4.574   2.238   3.720 -0.1645 -0.4373 -1.6912
  158DG     C17 3628   4.424   2.298   4.092  0.4635  0.3775  0.2607
  158DG     C18 3629   4.461   2.343   3.863 -0.0026  0.0030 -0.0926
  158DG     O19 3630   4.426   2.243   3.962 -0.1039 -0.4143  0.1882
  158DG     H20 3631   4.523   2.335   4.120  0.1995  0.4566  1.1168
  158DG     H21 3632   4.347   2.375   4.097 -3.6344 -3.3025  0.8227
  158DG     H22 3633   4.555   2.390   3.893  0.4907 -0.2462 -1.2257
  158DG     H23 3634   4.382   2.418   3.862  1.6164  1.8046  0.6428
  159DG      C1 3635   0.144   4.419   2.148  0.1694  0.2734 -0.0059
  159DG      C2 3636   0.175   4.927   2.139  0.4905  0.5552 -0.4537
  159DG      H3 3637   0.173   4.321   2.111 -0.9975 -0.4409  0.9119
  159DG      H4 3638   0.206   4.452   2.231  0.3568  1.6636 -0.6708
  159DG      H5 3639   0.152   4.501   2.076 -0.0993  0.2571 -0.0552
  159DG      H6 3640   0.181   4.977   2.042  0.3675  0.8637 -0.3051
  159DG      H7 3641   0.185   4.999   2.220  0.8929 -1.2253  1.1438
  159DG      H8 3642   0.260   4.859   2.140 -0.8839 -1.2653 -1.3096
  159DG      O9 3643   0.012   4.411   2.204 -0.6367 -0.5473 -0.1180
  159DG     O10 3644   0.081   4.825   2.157 -0.3461  0.3892 -0.0695
  159DG     C11 3645  -0.084   4.436   2.109  0.1786 -0.7723 -0.1370
  159DG     C12 3646  -0.049   4.871   2.163  0.1185  0.1180  0.1917
  159DG     H13 3647  -0.132   4.343   2.080  1.4384 -0.9763 -1.7367
  159DG     H14 3648  -0.044   4.483   2.018 -2.0990 -0.9044 -1.2769
  159DG     H15 3649  -0.071   4.963   2.108 -0.3170 -0.8027 -1.2159
  159DG     H16 3650  -0.067   4.906   2.265  0.3605 -0.9439  0.6060
  159DG     C17 3651  -0.191   4.527   2.174 -0.1679  0.0036 -0.5152
  159DG     C18 3652  -0.140   4.757   2.118  0.2257  0.1041  0.1177
  159DG     O19 3653  -0.119   4.646   2.215  0.3266 -0.1709 -0.0788
  159DG     H20 3654  -0.241   4.480   2.259  1.2649  0.7576  0.8053
  159DG     H21 3655  -0.271   4.557   2.107  0.6519  0.6706 -1.2072
  159DG     H22 3656  -0.243   4.793   2.117  0.7913  2.1183  2.8991
  159DG     H23 3657  -0.109   4.730   2.017  1.1178 -0.4458  0.5209
  160DG      C1 3658   3.533   1.121   3.724 -0.2971  0.4998  0.0790
  160DG      C2 3659   3.791   1.160   4.329 -0.1605 -0.2153  1.4490
  160DG      H3 3660   3.526   1.117   3.616 -2.4221 -0.8438  0.2184
  160DG      H4 3661   3.442   1.167   3.765 -1.2104 -0.5771 -0.6907
  160DG      H5 3662   3.546   1.024   3.771 -0.2589  1.0658  1.2919
  160DG      H6 3663   3.724   1.243   4.351 -0.1796  0.2035 -0.1092
  160DG      H7 3664   3.769   1.075   4.395 -2.0386 -0.1672  0.9305
  160DG      H8 3665   3.884   1.203   4.367  0.3623 -0.6137  0.6343
  160DG      O9 3666   3.640   1.204   3.763  0.1800  0.0945  0.3319
  160DG     O10 3667   3.770   1.112   4.191 -0.4397  0.1106  0.2475
  160DG     C11 3668   3.766   1.159   3.708 -0.2598  0.2767  1.0177
  160DG     C12 3669   3.870   1.018   4.159 -0.4824 -0.8924 -0.3140
  160DG     H13 3670   3.828   1.248   3.712  0.9905 -0.4761 -0.5606
  160DG     H14 3671   3.760   1.113   3.610 -1.3500 -2.1865  2.1413
  160DG     H15 3672   3.887   0.934   4.226  1.1457  0.3169  0.8600
  160DG     H16 3673   3.962   1.076   4.157  0.0037 -1.6586 -0.1508
  160DG     C17 3674   3.819   1.042   3.800 -0.4756 -0.0011 -0.2437
  160DG     C18 3675   3.862   0.973   4.021  0.3677 -0.6188 -0.0189
  160DG     O19 3676   3.818   1.079   3.937  0.3019  0.6893  0.1836
  160DG     H20 3677   3.917   1.010   3.765  0.8797  1.4540  1.9370
  160DG     H21 3678   3.749   0.959   3.790 -0.2453 -0.2399  0.1015
  160DG     H22 3679   3.961   0.946   3.985  1.1705  0.3422  1.3753
  160DG     H23 3680   3.800   0.883   4.014 -0.7570  0.0979  0.3650
  161DG      C1 3681   2.851   0.287   3.283  0.4563  0.1878 -0.2092
  161DG      C2 3682   2.309   0.165   2.899 -0.2849  0.4611  0.1562
  161DG      H3 3683   2.807   0.212   3.349 -0.9759  1.3238  0.1698
  161DG      H4 3684   2.890   0.366   3.347  1.4042 -1.3568  1.2018
  161DG      H5 3685   2.938   0.243   3.233 -1.2278 -1.9950 -1.3809
  161DG      H6 3686   2.361   0.081   2.853  2.0750  1.6464  0.4976
  161DG      H7 3687   2.251   0.124   2.982 -0.6889  2.4609  0.9370
  161DG      H8 3688   2.226   0.194   2.835 -0.9962 -1.2628  0.2608
  161DG      O9 3689   2.756   0.360   3.211 -0.0563  0.0168  0.1196
  161DG     O10 3690   2.378   0.279   2.963  0.1383  0.3491 -0.0385
  161DG     C11 3691   2.821   0.438   3.112 -0.1221 -0.0751  0.2376
  161DG     C12 3692   2.418   0.377   2.871  0.0760 -0.3952  0.3755
  161DG     H13 3693   2.877   0.377   3.042 -1.1481  0.7250 -1.3274
  161DG     H14 3694   2.891   0.510   3.155  0.8147 -0.1208 -1.1642
  161DG     H15 3695   2.321   0.413   2.839 -0.2641 -1.6532 -0.0765
  161DG     H16 3696   2.475   0.335   2.788  1.1787  1.5883  0.0515
  161DG     C17 3697   2.708   0.514   3.037  0.0905  0.5150 -0.3329
  161DG     C18 3698   2.497   0.475   2.945  1.1386 -0.0147 -0.5132
  161DG     O19 3699   2.605   0.416   3.008 -0.2633 -0.2239 -0.8342
  161DG     H20 3700   2.744   0.560   2.946 -1.1650  2.1102 -0.0705
  161DG     H21 3701   2.665   0.594   3.097  0.9269  0.1432  0.8114
  161DG     H22 3702   2.518   0.556   2.875  2.6532 -2.7367 -3.4410
  161DG     H23 3703   2.435   0.515   3.025  0.8501 -1.4304 -0.0038
  162DG      C1 3704   3.125   3.034   2.522 -0.0597  0.2104  0.0534
  162DG      C2 3705   3.094   2.448   2.705 -0.5104 -0.2633 -0.4867
  162DG      H3 3706   3.158   3.122   2.467 -1.2658  0.1583 -0.7878
  162DG      H4 3707   3.042   3.061   2.587 -1.6392 -3.2784 -0.2853
  162DG      H5 3708   3.071   2.972   2.450 -0.0561  2.2362 -1.7716
  162DG      H6 3709   3.128   2.345   2.714 -1.4344 -0.4615  1.0276
  162DG      H7 3710   3.074   2.477   2.808 -1.8017  2.1735 -1.3284
  162DG      H8 3711   2.997   2.457   2.656 -1.2061 -1.3220  0.6585
  162DG      O9 3712   3.230   2.969   2.596 -0.0659  0.0893  0.0700
  162DG     O10 3713   3.189   2.526   2.636  0.4619 -0.4990  0.0888
  162DG     C11 3714   3.350   2.956   2.516  0.1331 -0.0281  0.6579
  162DG     C12 3715   3.314   2.527   2.705 -0.5725 -0.1882  0.0329
  162DG     H13 3716   3.418   3.040   2.509  2.9224 -2.1998 -0.0823
  162DG     H14 3717   3.320   2.930   2.414  0.3734  0.4895  0.4513
  162DG     H15 3718   3.359   2.432   2.735  3.1293  1.2071 -0.6280
  162DG     H16 3719   3.291   2.562   2.806  0.7460  1.5887 -0.2406
  162DG     C17 3720   3.433   2.844   2.572  0.0764  0.3400 -0.5409
  162DG     C18 3721   3.423   2.623   2.647  0.4358  0.0487  0.2167
  162DG     O19 3722   3.345   2.740   2.612 -0.5961 -0.1725 -0.3514
  162DG     H20 3723   3.485   2.881   2.660 -1.5337  1.5259 -0.0480
  162DG     H21 3724   3.503   2.807   2.497  0.0826 -0.4490 -0.1585
  162DG     H22 3725   3.505   2.638   2.717  2.6022 -0.8015 -2.0305
  162DG     H23 3726   3.468   2.584   2.556  1.3004  0.0860  0.6233
  163DG      C1 3727   0.796   1.917   3.301 -0.0172 -0.4919 -0.0898
  163DG      C2 3728   1.149   1.642   2.730  0.2772 -0.4165 -0.4200
  163DG      H3 3729   0.861   1.876   3.379  0.1606 -1.2824 -0.6403
  163DG      H4 3730   0.699   1.937   3.346 -0.8845 -0.6992 -1.7752
  163DG      H5 3731   0.843   2.012   3.277 -0.7550  0.1086  0.8016
  163DG      H6 3732   1.211   1.730   2.710 -0.8028  0.6826  0.8552
  163DG      H7 3733   1.215   1.581   2.791  3.5282  0.1728 -3.0560
  163DG      H8 3734   1.137   1.597   2.631 -0.2049 -0.4024 -0.3722
  163DG      O9 3735   0.793   1.835   3.187 -0.4804  0.0896  0.0954
  163DG     O10 3736   1.021   1.665   2.781 -1.0613  0.0219 -0.0344
  163DG     C11 3737   0.747   1.709   3.211 -0.4353 -0.0351  0.3586
  163DG     C12 3738   0.948   1.543   2.799  0.6035 -0.1889  0.1044
  163DG     H13 3739   0.657   1.707   3.272 -0.1738  0.1083  0.7473
  163DG     H14 3740   0.817   1.657   3.276  0.4305  1.1337  0.3890
  163DG     H15 3741   1.010   1.475   2.859 -0.9885 -0.2645  1.7692
  163DG     H16 3742   0.935   1.480   2.711 -1.7857 -2.0032  1.6043
  163DG     C17 3743   0.721   1.644   3.075 -0.1282  0.6781 -1.4264
  163DG     C18 3744   0.819   1.565   2.882 -0.2182  0.3720  0.1067
  163DG     O19 3745   0.844   1.601   3.015  0.0464 -0.6335  0.0403
  163DG     H20 3746   0.660   1.717   3.022  0.1901  0.0036 -2.7569
  163DG     H21 3747   0.659   1.556   3.091  1.2912  0.1009  1.4916
  163DG     H22 3748   0.763   1.649   2.841  0.8242  0.8808 -0.3278
  163DG     H23 3749   0.761   1.475   2.896  1.9186 -0.6804  3.2498
  164DG      C1 3750   5.454   4.002   1.244 -0.6252  0.1869  0.3792
  164DG      C2 3751   4.765   3.801   1.327 -0.4562  0.4786 -0.6903
  164DG      H3 3752   5.402   4.097   1.232 -1.1619 -0.3851 -2.3736
  164DG      H4 3753   5.544   3.998   1.183 -0.2905 -0.6377  0.9070
  164DG      H5 3754   5.498   4.003   1.344  0.4933 -1.8776 -0.0520
  164DG      H6 3755   4.683   3.821   1.258 -1.6271  0.0046  0.5294
  164DG      H7 3756   4.721   3.724   1.391 -0.0816 -1.5480 -2.7399
  164DG      H8 3757   4.784   3.883   1.396 -0.6839 -1.0326  1.2457
  164DG      O9 3758   5.373   3.892   1.230  0.0928  1.0332 -0.2080
  164DG     O10 3759   4.892   3.768   1.265 -0.4638 -0.1015  0.0997
  164DG     C11 3760   5.298   3.888   1.113  0.2315 -0.3613  0.4348
  164DG     C12 3761   4.890   3.651   1.187 -0.1085  0.3459 -0.4443
  164DG     H13 3762   5.351   3.917   1.023 -1.6894  0.2360 -0.5669
  164DG     H14 3763   5.220   3.964   1.121 -1.0591 -1.6808  0.8816
  164DG     H15 3764   4.837   3.686   1.098  0.4193  3.0058  0.2015
  164DG     H16 3765   4.848   3.561   1.233 -1.0987  0.8166 -0.4109
  164DG     C17 3766   5.234   3.750   1.103 -0.0913  0.0398  0.0006
  164DG     C18 3767   5.032   3.623   1.141 -0.4863  0.9105  0.0746
  164DG     O19 3768   5.097   3.755   1.137 -0.1993 -0.1876  0.2520
  164DG     H20 3769   5.284   3.677   1.166 -0.4116  0.4454  0.7266
  164DG     H21 3770   5.241   3.723   0.997  1.1986  0.2030  0.0328
  164DG     H22 3771   5.077   3.552   1.211  0.2121  0.4241 -0.8574
  164DG     H23 3772   5.028   3.571   1.045 -0.9330 -0.7707  0.9493
  165DG      C1 3773   4.467   4.222   1.262 -0.2544 -0.3918  0.1557
  165DG      C2 3774   4.532   4.548   1.865 -0.2672  0.3810 -0.9479
  165DG      H3 3775   4.361   4.209   1.284 -0.1743 -4.0646 -0.8925
  165DG      H4 3776   4.521   4.153   1.197  4.3982 -0.2825  3.3850
  165DG      H5 3777   4.480   4.321   1.219  0.2789 -0.8223 -0.7140
  165DG      H6 3778   4.428   4.541   1.835 -0.5781  0.7722  0.0125
  165DG      H7 3779   4.538   4.549   1.974  0.1002  0.6704 -0.9697
  165DG      H8 3780   4.571   4.644   1.831 -0.0017  0.3826 -0.6447
  165DG      O9 3781   4.538   4.226   1.382 -0.0792 -0.2998 -0.0278
  165DG     O10 3782   4.605   4.440   1.810  0.2450  0.4182  0.2014
  165DG     C11 3783   4.545   4.105   1.453  0.0143 -0.4446 -0.5612
  165DG     C12 3784   4.580   4.321   1.877  0.1903 -0.2639 -1.0272
  165DG     H13 3785   4.598   4.031   1.392  0.2364 -0.7229 -0.0385
  165DG     H14 3786   4.442   4.076   1.474  0.1430  1.2091  3.1033
  165DG     H15 3787   4.478   4.305   1.913  0.4176 -0.1922 -0.3422
  165DG     H16 3788   4.632   4.330   1.972  0.5690 -0.8116 -1.1737
  165DG     C17 3789   4.623   4.108   1.587 -0.5854 -0.0884  0.3604
  165DG     C18 3790   4.642   4.206   1.797  0.3876  0.0715 -0.1135
  165DG     O19 3791   4.573   4.206   1.673 -0.0719 -0.2293  0.4968
  165DG     H20 3792   4.727   4.133   1.562 -1.2103  0.3759 -2.0096
  165DG     H21 3793   4.622   4.006   1.626  1.1391 -0.1098  0.4499
  165DG     H22 3794   4.749   4.217   1.783  0.3880  0.1414 -0.0565
  165DG     H23 3795   4.636   4.109   1.846  1.4766 -0.8779 -1.7782
  166DG      C1 3796   4.814   4.503   3.080  0.0038 -0.2283 -0.2175
  166DG      C2 3797   4.682   3.905   2.756 -0.1656  0.2604 -0.1934
  166DG      H3 3798   4.866   4.462   3.167 -0.4135 -2.9865 -1.1786
  166DG      H4 3799   4.709   4.473   3.089 -0.4018  0.8077 -1.1852
  166DG      H5 3800   4.812   4.612   3.085 -0.7700 -0.1133 -2.1944
  166DG      H6 3801   4.578   3.923   2.730 -0.2693  0.6825  0.4974
  166DG      H7 3802   4.726   3.833   2.687 -2.0135  0.1611 -1.3518
  166DG      H8 3803   4.678   3.867   2.858  1.1855  0.2710 -0.1228
  166DG      O9 3804   4.869   4.446   2.965 -1.0795 -0.2957 -0.4305
  166DG     O10 3805   4.767   4.018   2.748  0.0201 -0.1268 -0.4569
  166DG     C11 3806   4.819   4.510   2.852  0.6084  0.2823 -0.0891
  166DG     C12 3807   4.776   4.082   2.626 -0.4844 -0.2138  0.4892
  166DG     H13 3808   4.853   4.613   2.836  0.0863  0.2298 -1.7099
  166DG     H14 3809   4.711   4.517   2.858  0.7870  2.8314  2.2322
  166DG     H15 3810   4.674   4.111   2.601 -0.3956 -1.2679 -1.2271
  166DG     H16 3811   4.803   4.021   2.540  2.1958  4.6198 -2.5969
  166DG     C17 3812   4.873   4.427   2.738 -0.2975 -0.5600 -0.2412
  166DG     C18 3813   4.868   4.209   2.635  0.3113  0.1459 -0.4327
  166DG     O19 3814   4.804   4.297   2.730 -0.0637 -0.1466 -0.3566
  166DG     H20 3815   4.981   4.410   2.742 -0.3087 -0.5432  0.2407
  166DG     H21 3816   4.862   4.482   2.645 -0.4029 -1.1126 -0.5563
  166DG     H22 3817   4.960   4.170   2.677  0.6043  0.9507 -0.3109
  166DG     H23 3818   4.869   4.263   2.541 -3.8628  0.0052 -0.7494
  167DG      C1 3819   0.521   3.583   0.611 -0.0027 -0.1131  0.1383
  167DG      C2 3820   0.608   3.768  -0.005  0.5638  0.1214  0.0641
  167DG      H3 3821   0.531   3.475   0.597 -1.1514 -0.1900 -0.1949
  167DG      H4 3822   0.494   3.620   0.710 -1.9746  1.6491 -1.0004
  167DG      H5 3823   0.624   3.619   0.601  0.3023 -1.1671 -0.8119
  167DG      H6 3824   0.702   3.817   0.023  1.6559  0.1947 -3.3271
  167DG      H7 3825   0.638   3.669  -0.038  0.8265  0.5970 -1.1565
  167DG      H8 3826   0.569   3.836  -0.080 -0.2596 -1.4300 -0.9463
  167DG      O9 3827   0.445   3.640   0.505  0.1144  0.2263  0.3087
  167DG     O10 3828   0.498   3.759   0.089 -0.5359  0.0820  0.2627
  167DG     C11 3829   0.308   3.596   0.498  0.3806  0.1403 -0.0394
  167DG     C12 3830   0.379   3.696   0.033 -0.9344 -0.6614  0.0978
  167DG     H13 3831   0.255   3.623   0.589 -0.6687  0.4672 -0.7278
  167DG     H14 3832   0.296   3.488   0.484 -2.6834  0.1172  1.8418
  167DG     H15 3833   0.402   3.597  -0.005 -1.1590  0.3839 -3.0223
  167DG     H16 3834   0.349   3.740  -0.062  0.3118  0.3083  0.1271
  167DG     C17 3835   0.242   3.663   0.371 -0.1356 -0.6515 -0.1952
  167DG     C18 3836   0.272   3.718   0.145  0.1608 -0.0295 -0.0080
  167DG     O19 3837   0.330   3.653   0.257 -0.3670 -0.2495 -0.6573
  167DG     H20 3838   0.198   3.762   0.379  3.2924  0.9492  1.3012
  167DG     H21 3839   0.152   3.605   0.354  0.2564 -1.3609  0.1026
  167DG     H22 3840   0.254   3.822   0.172 -0.8597 -0.1675 -0.1292
  167DG     H23 3841   0.178   3.678   0.107  0.7559 -0.3726 -1.1512
  168DG      C1 3842   0.096   0.986   3.873 -0.0082  0.7642 -0.2872
  168DG      C2 3843  -0.309   0.771   4.070  0.2897  0.2285  0.1891
  168DG      H3 3844   0.056   1.079   3.912 -3.3299  0.2192 -2.0798
  168DG      H4 3845   0.030   0.955   3.792  0.3598 -2.8460  0.6215
  168DG      H5 3846   0.202   0.991   3.847 -0.0457  1.5329 -0.2981
  168DG      H6 3847  -0.316   0.880   4.071  0.3298  0.2302  0.6904
  168DG      H7 3848  -0.231   0.752   3.996  0.1778 -2.8954  0.7241
  168DG      H8 3849  -0.395   0.724   4.024  0.2271 -0.2309  0.7596
  168DG      O9 3850   0.086   0.876   3.962 -0.2487 -1.2515 -0.0608
  168DG     O10 3851  -0.280   0.700   4.190 -0.5525 -0.2254 -0.0004
  168DG     C11 3852   0.149   0.762   3.915 -0.3165 -0.2651 -0.4269
  168DG     C12 3853  -0.215   0.574   4.172  0.3392 -0.1930 -0.7426
  168DG     H13 3854   0.256   0.783   3.927 -0.6246  0.8287  0.5590
  168DG     H14 3855   0.135   0.750   3.808  0.0758 -0.3592 -0.4710
  168DG     H15 3856  -0.268   0.521   4.093 -1.0883  0.9323 -0.5796
  168DG     H16 3857  -0.240   0.512   4.259 -0.6371  1.3192  0.1000
  168DG     C17 3858   0.114   0.639   4.004  0.7129 -0.2866 -0.5165
  168DG     C18 3859  -0.062   0.572   4.144  0.1633  0.0255  0.2491
  168DG     O19 3860  -0.029   0.640   4.028 -0.1280  0.1694  0.2151
  168DG     H20 3861   0.180   0.644   4.092 -1.7904 -0.1789  1.4651
  168DG     H21 3862   0.122   0.548   3.946  1.1182  0.7221 -2.1138
  168DG     H22 3863  -0.020   0.602   4.240 -2.1711 -1.7601  1.9328
  168DG     H23 3864  -0.041   0.465   4.137 -1.0469 -0.1817 -0.5699
  169DG      C1 3865   2.640   0.895   1.312 -0.1584 -0.4989 -0.3901
  169DG      C2 3866   2.858   0.972   0.536  0.1958  0.2522  0.2831
  169DG      H3 3867   2.547   0.864   1.361 -0.3803 -1.4202 -1.3389
  169DG      H4 3868   2.643   1.004   1.312 -0.2781 -0.4860  0.5843
  169DG      H5 3869   2.732   0.855   1.355  0.1916 -0.1296 -0.7880
  169DG      H6 3870   2.847   0.965   0.428 -0.2119 -1.2798  0.4020
  169DG      H7 3871   2.839   1.079   0.546  0.7563  0.2281  1.9494
  169DG      H8 3872   2.961   0.946   0.558  0.4171  1.3986  0.6492
  169DG      O9 3873   2.632   0.865   1.178 -0.6305  0.0471  0.7594
  169DG     O10 3874   2.754   0.887   0.594  0.0366  0.3427  0.5307
  169DG     C11 3875   2.628   0.719   1.155 -0.3640 -0.4894 -0.1297
  169DG     C12 3876   2.740   0.905   0.732  0.1157 -0.5729 -0.1917
  169DG     H13 3877   2.550   0.673   1.216 -1.0903 -0.1658 -0.8062
  169DG     H14 3878   2.728   0.686   1.183 -0.4714  0.7330  1.9523
  169DG     H15 3879   2.716   1.010   0.752  1.3535 -0.1064 -1.0400
  169DG     H16 3880   2.839   0.907   0.778  0.5042  1.7420 -0.9803
  169DG     C17 3881   2.610   0.692   1.005 -0.4048 -0.2586  0.3085
  169DG     C18 3882   2.646   0.808   0.804  0.0197  0.1461  0.2683
  169DG     O19 3883   2.703   0.779   0.932  0.1901 -0.4391 -0.5284
  169DG     H20 3884   2.508   0.708   0.971  0.3087  0.9574 -1.4244
  169DG     H21 3885   2.617   0.588   0.973 -1.9513 -0.2122 -0.2804
  169DG     H22 3886   2.554   0.865   0.819 -0.3226 -0.4425  0.4190
  169DG     H23 3887   2.643   0.716   0.747 -1.6184 -0.4695  1.2694
  170DG      C1 3888   2.122   4.223   5.340  0.3759 -0.2060  0.0637
  170DG      C2 3889   1.908   3.968   6.108  0.5459 -0.8067  0.7581
  170DG      H3 3890   2.222   4.266   5.349  0.5094 -0.9044  2.5674
  170DG      H4 3891   2.062   4.268   5.260 -1.9833 -1.2175  1.1944
  170DG      H5 3892   2.129   4.120   5.307 -0.6121  0.3331 -2.0557
  170DG      H6 3893   1.861   3.956   6.205 -0.1489 -2.0779  0.2729
  170DG      H7 3894   1.847   3.911   6.038  2.5664 -2.5727  0.3274
  170DG      H8 3895   2.011   3.933   6.106  0.6817 -0.5036 -1.9027
  170DG      O9 3896   2.056   4.228   5.463 -0.4020 -0.0472 -0.8079
  170DG     O10 3897   1.904   4.104   6.057 -0.0264  0.0406  0.0963
  170DG     C11 3898   2.017   4.357   5.502  0.2714 -0.3034  0.3792
  170DG     C12 3899   1.969   4.118   5.928  0.0705  0.4923  0.3071
  170DG     H13 3900   1.950   4.408   5.432  1.4484  0.3301 -0.3094
  170DG     H14 3901   2.101   4.425   5.507  0.5127 -0.2594 -2.6238
  170DG     H15 3902   1.936   4.036   5.864  1.1596 -0.3458  0.7813
  170DG     H16 3903   2.077   4.103   5.939  0.0940 -0.0898 -0.5603
  170DG     C17 3904   1.948   4.354   5.639 -0.2628 -0.1020  0.2249
  170DG     C18 3905   1.940   4.255   5.853 -0.2335 -0.1967 -0.1725
  170DG     O19 3906   1.994   4.249   5.718  0.3319  0.1088 -0.0532
  170DG     H20 3907   1.842   4.353   5.614 -0.4486  2.0517  0.7427
  170DG     H21 3908   1.976   4.443   5.694 -0.3552 -0.8029  1.4348
  170DG     H22 3909   1.833   4.258   5.837 -0.6364 -0.5391  2.1444
  170DG     H23 3910   1.965   4.340   5.916 -0.3603  1.4508 -2.2021
  171DG      C1 3911   4.628   4.186   3.772  0.0116  0.9661  0.7031
  171DG      C2 3912   3.900   4.323   3.856 -0.2042  0.3782 -0.2640
  171DG      H3 3913   4.605   4.101   3.707  1.4773  0.2529  1.0778
  171DG      H4 3914   4.732   4.185   3.803 -0.6361  1.2876  3.1020
  171DG      H5 3915   4.605   4.277   3.717  1.8060  0.6304 -0.6891
  171DG      H6 3916   3.923   4.284   3.757  2.9892 -3.0777  1.5577
  171DG      H7 3917   3.851   4.238   3.903  0.5146  0.1984  0.1787
  171DG      H8 3918   3.831   4.408   3.855  1.4817  1.7997 -0.4459
  171DG      O9 3919   4.545   4.169   3.886 -0.1472  0.3305  0.3282
  171DG     O10 3920   4.027   4.345   3.916 -0.1316 -0.6044 -0.5200
  171DG     C11 3921   4.562   4.269   3.979  0.0785 -0.4805  0.4553
  171DG     C12 3922   4.088   4.240   3.998 -0.4016 -0.2806 -0.7748
  171DG     H13 3923   4.549   4.369   3.936  0.2323 -1.5867 -2.3660
  171DG     H14 3924   4.659   4.262   4.028 -0.3110  0.4960  1.4043
  171DG     H15 3925   4.104   4.150   3.938 -2.5827 -0.4505 -1.1621
  171DG     H16 3926   4.016   4.213   4.075 -0.7900  0.3169 -0.9303
  171DG     C17 3927   4.446   4.248   4.072 -0.6858  0.0880 -0.3144
  171DG     C18 3928   4.219   4.292   4.069  0.5634  0.2480  0.3240
  171DG     O19 3929   4.330   4.262   3.993  0.3323  0.3765 -0.5985
  171DG     H20 3930   4.441   4.331   4.141 -1.6264 -0.8787  0.8283
  171DG     H21 3931   4.448   4.161   4.138 -1.5045 -1.0935 -1.7623
  171DG     H22 3932   4.217   4.401   4.076 -0.3570  0.1863  1.3661
  171DG     H23 3933   4.224   4.247   4.168  0.5148 -0.8384 -0.1560
  172DG      C1 3934   0.793   0.997   4.984  1.0393 -0.5803  0.1378
  172DG      C2 3935   0.640   0.739   4.247  0.1584  0.5185 -0.6005
  172DG      H3 3936   0.765   0.975   5.087 -1.5062  0.4952 -0.2533
  172DG      H4 3937   0.759   1.099   4.965  0.8905 -0.0812  2.6481
  172DG      H5 3938   0.900   0.991   4.969  0.8260 -2.7816 -0.9259
  172DG      H6 3939   0.746   0.720   4.227 -0.2620 -1.0193 -1.5557
  172DG      H7 3940   0.579   0.708   4.162 -3.8226 -1.0953  2.5030
  172DG      H8 3941   0.630   0.846   4.261 -2.1064  0.1380  1.4404
  172DG      O9 3942   0.738   0.904   4.897 -0.5820 -0.5474 -0.3594
  172DG     O10 3943   0.606   0.663   4.362  0.2488 -0.2783  0.2036
  172DG     C11 3944   0.776   0.769   4.917 -0.1684  0.1180 -0.4916
  172DG     C12 3945   0.695   0.688   4.477  0.0383  0.6708  0.1046
  172DG     H13 3946   0.767   0.737   5.021  0.3254 -2.5997 -1.2048
  172DG     H14 3947   0.880   0.759   4.886 -0.8063  0.6429 -2.9803
  172DG     H15 3948   0.711   0.794   4.494  1.1451  0.3884  0.9016
  172DG     H16 3949   0.791   0.637   4.465 -0.4307  0.0945 -1.4575
  172DG     C17 3950   0.685   0.679   4.838  0.3878 -0.0173 -0.0483
  172DG     C18 3951   0.638   0.627   4.611 -0.0281  0.7295  0.1491
  172DG     O19 3952   0.707   0.712   4.703  0.0115 -0.1381  0.7591
  172DG     H20 3953   0.579   0.671   4.863  0.3712  0.2850 -0.0214
  172DG     H21 3954   0.715   0.574   4.846  0.2023 -0.0888 -0.2851
  172DG     H22 3955   0.532   0.645   4.628 -0.1242  0.3962 -0.1057
  172DG     H23 3956   0.664   0.523   4.629  1.1156  0.5688 -2.1367
  173DG      C1 3957   4.435   0.810   0.914  0.3337  0.3415  0.0797
  173DG      C2 3958   4.680   0.337   0.392  0.3451  0.0814 -0.3158
  173DG      H3 3959   4.409   0.913   0.889 -3.0701 -0.0377  1.5209
  173DG      H4 3960   4.533   0.797   0.959  1.7923 -1.1621 -3.1448
  173DG      H5 3961   4.361   0.756   0.973  0.3221 -0.3753 -0.5715
  173DG      H6 3962   4.766   0.323   0.457  0.2849  0.5357 -0.1355
  173DG      H7 3963   4.607   0.266   0.433 -0.7050  0.5929 -1.2445
  173DG      H8 3964   4.714   0.312   0.291 -0.4065 -1.2425 -0.2662
  173DG      O9 3965   4.441   0.733   0.796  0.0411  0.3287  0.1236
  173DG     O10 3966   4.640   0.470   0.395 -0.1368 -0.0918  0.2285
  173DG     C11 3967   4.327   0.732   0.715  0.3770 -0.8814  0.5915
  173DG     C12 3968   4.503   0.495   0.356 -0.2212 -0.1447 -0.4974
  173DG     H13 3969   4.297   0.830   0.679 -0.6493 -0.9556  1.1910
  173DG     H14 3970   4.238   0.696   0.768  0.1264 -0.9696  0.1206
  173DG     H15 3971   4.427   0.432   0.401 -0.2045 -1.0085 -1.6217
  173DG     H16 3972   4.485   0.479   0.249  0.3107  3.1103 -1.1772
  173DG     C17 3973   4.354   0.639   0.589  0.4286  0.1132  0.0130
  173DG     C18 3974   4.482   0.645   0.387  0.0745 -0.1379  0.2203
  173DG     O19 3975   4.477   0.671   0.524 -0.2837  0.3307  0.4483
  173DG     H20 3976   4.267   0.660   0.526  0.9452 -0.5320 -0.9332
  173DG     H21 3977   4.361   0.534   0.618  2.8637 -0.1965 -1.4222
  173DG     H22 3978   4.552   0.710   0.333  0.4284 -0.6031  0.1139
  173DG     H23 3979   4.389   0.670   0.336 -0.7625  1.2440  2.2846
  174DG      C1 3980   2.343   5.054   0.447  0.0683  0.2645  0.2860
  174DG      C2 3981   1.700   5.322   0.568  0.5098 -0.2484 -0.2201
  174DG      H3 3982   2.347   5.141   0.381 -2.1734  1.3993  1.5330
  174DG      H4 3983   2.417   4.974   0.438  1.7872  1.6281  1.5201
  174DG      H5 3984   2.356   5.093   0.548 -0.2732 -2.4684  1.4766
  174DG      H6 3985   1.715   5.395   0.488  1.2630 -0.6384 -0.4419
  174DG      H7 3986   1.628   5.252   0.528 -0.6553  0.3348  0.7796
  174DG      H8 3987   1.657   5.378   0.651  0.7882 -0.9094  0.3809
  174DG      O9 3988   2.215   4.986   0.442 -0.6160 -0.1078  0.1696
  174DG     O10 3989   1.819   5.262   0.603 -0.1278 -0.5955  0.2962
  174DG     C11 3990   2.191   4.886   0.534  0.0441 -0.6421  0.6796
  174DG     C12 3991   1.814   5.139   0.680  0.4775  0.0467  0.0174
  174DG     H13 3992   2.289   4.842   0.552  1.3823  1.4318 -1.0120
  174DG     H14 3993   2.123   4.812   0.492  0.4467 -1.4967  1.5127
  174DG     H15 3994   1.754   5.053   0.650 -0.4973  1.0735 -1.0918
  174DG     H16 3995   1.746   5.168   0.760 -1.7097 -0.1670 -1.6631
  174DG     C17 3996   2.111   4.931   0.654  0.2021  0.4789  0.6165
  174DG     C18 3997   1.949   5.091   0.722  0.2634 -0.4275 -0.8182
  174DG     O19 3998   2.007   5.024   0.611 -0.2943  0.4192 -0.1548
  174DG     H20 3999   2.176   4.988   0.720  0.3738  1.2689 -0.2087
  174DG     H21 4000   2.076   4.841   0.704 -0.2507  0.0072 -0.5140
  174DG     H22 4001   2.020   5.165   0.758 -0.1365  0.1547 -1.2045
  174DG     H23 4002   1.932   5.017   0.801 -2.1511  1.0806  0.1687
  175DG      C1 4003   4.935   0.239   0.861 -0.0761 -0.1302  0.3934
  175DG      C2 4004   5.135  -0.371   0.592  0.1135  0.1504 -0.7050
  175DG      H3 4005   5.040   0.261   0.877 -0.7614  1.0025  4.3240
  175DG      H4 4006   4.890   0.272   0.955 -2.3574 -0.3635 -0.5408
  175DG      H5 4007   4.905   0.308   0.781  2.6601  0.4025 -0.2500
  175DG      H6 4008   5.237  -0.334   0.602  0.9991 -2.6407  2.0004
  175DG      H7 4009   5.150  -0.477   0.613  0.8161  0.1507 -1.2025
  175DG      H8 4010   5.091  -0.337   0.498 -0.4825  0.0196 -0.4792
  175DG      O9 4011   4.904   0.100   0.829 -0.2108 -0.8361  0.0157
  175DG     O10 4012   5.058  -0.318   0.703  0.2323 -0.2353 -0.3759
  175DG     C11 4013   4.768   0.080   0.814 -0.0825 -0.5458  0.1531
  175DG     C12 4014   4.928  -0.364   0.711 -0.0561 -0.9204  0.1036
  175DG     H13 4015   4.732   0.115   0.718 -1.2410  0.4674  0.9245
  175DG     H14 4016   4.722   0.127   0.901  0.6901 -2.5772  1.7550
  175DG     H15 4017   4.927  -0.462   0.758 -1.9716 -0.7511  0.5051
  175DG     H16 4018   4.892  -0.380   0.609  1.4862  0.4714 -0.7113
  175DG     C17 4019   4.738  -0.071   0.813  0.4073  0.5737  0.1586
  175DG     C18 4020   4.829  -0.275   0.786 -0.0267  0.1772  0.0895
  175DG     O19 4021   4.837  -0.144   0.740  0.4262 -0.1946 -0.1202
  175DG     H20 4022   4.637  -0.085   0.775  0.4817 -3.1979  0.9575
  175DG     H21 4023   4.733  -0.095   0.919  1.6043  2.5381  0.6955
  175DG     H22 4024   4.728  -0.311   0.766 -0.2316  0.0838  1.2171
  175DG     H23 4025   4.856  -0.287   0.891  0.2099 -1.0269 -0.0917
  176DG      C1 4026   0.369   0.591   0.331 -0.6290  0.2128 -0.1675
  176DG      C2 4027   0.007   0.548  -0.105  0.3498 -0.2083 -0.2093
  176DG      H3 4028   0.424   0.541   0.411 -2.3677 -0.5273  0.6266
  176DG      H4 4029   0.278   0.622   0.383 -0.3241 -1.0793  1.2197
  176DG      H5 4030   0.425   0.681   0.306 -1.0700  0.4895 -0.1719
  176DG      H6 4031   0.062   0.541  -0.011 -0.6541  2.1463  0.6336
  176DG      H7 4032   0.030   0.644  -0.152 -1.2550 -0.1929 -1.0051
  176DG      H8 4033  -0.095   0.538  -0.070 -0.0832  0.9196 -1.1009
  176DG      O9 4034   0.357   0.513   0.211  0.1797  0.2047  0.0195
  176DG     O10 4035   0.038   0.449  -0.190  0.5548  0.4381  0.4162
  176DG     C11 4036   0.318   0.382   0.226 -0.2758  0.4681  0.4322
  176DG     C12 4037   0.171   0.420  -0.223  0.0423  0.0974  0.0476
  176DG     H13 4038   0.222   0.366   0.276 -0.1960  0.6209  0.6339
  176DG     H14 4039   0.390   0.329   0.288 -1.3676 -1.0824  0.4493
  176DG     H15 4040   0.224   0.514  -0.243 -1.1016  0.4987 -1.2495
  176DG     H16 4041   0.165   0.373  -0.321 -0.0872  1.3725 -0.5854
  176DG     C17 4042   0.318   0.303   0.095  0.7964 -0.3248  0.1217
  176DG     C18 4043   0.258   0.325  -0.137 -0.2321  0.4802 -0.2022
  176DG     O19 4044   0.254   0.379  -0.003 -0.1981  0.3711  0.7073
  176DG     H20 4045   0.266   0.208   0.097  2.2560 -1.1488  0.7444
  176DG     H21 4046   0.424   0.279   0.084  1.4215  1.4023  1.8006
  176DG     H22 4047   0.216   0.224  -0.135  0.4712  0.1925  1.4327
  176DG     H23 4048   0.358   0.319  -0.180  0.4844  3.4862  0.7840
  177DG      C1 4049   4.081   1.550   2.582  0.0845 -0.1593 -1.5497
  177DG      C2 4050   3.276   1.549   2.409  0.3324 -0.1841  0.5319
  177DG      H3 4051   4.049   1.627   2.653  0.0008 -1.4131 -0.1796
  177DG      H4 4052   4.111   1.602   2.491 -2.0924 -1.4757 -3.1082
  177DG      H5 4053   4.173   1.514   2.628  0.2002  0.0441 -1.6195
  177DG      H6 4054   3.185   1.489   2.413  0.6850 -0.6444  2.9081
  177DG      H7 4055   3.262   1.638   2.470 -1.5769  0.7008 -1.0780
  177DG      H8 4056   3.280   1.599   2.312 -3.1469  1.5553  1.1173
  177DG      O9 4057   3.985   1.451   2.540  0.0870  0.4235 -0.2756
  177DG     O10 4058   3.400   1.482   2.433 -0.2751 -0.0250  0.5281
  177DG     C11 4059   3.887   1.507   2.449 -0.0080  0.1910 -0.1810
  177DG     C12 4060   3.435   1.399   2.316  0.1883 -0.7848  0.1355
  177DG     H13 4061   3.935   1.517   2.352 -1.1389  1.3571 -0.6439
  177DG     H14 4062   3.848   1.606   2.472 -1.1198  0.5227 -3.1108
  177DG     H15 4063   3.427   1.470   2.234 -1.3094 -1.3376 -0.2184
  177DG     H16 4064   3.357   1.324   2.303  0.5588 -1.3072  0.7771
  177DG     C17 4065   3.781   1.395   2.434  0.3081 -0.2921 -0.2890
  177DG     C18 4066   3.575   1.336   2.340 -0.1681 -0.3622 -0.0896
  177DG     O19 4067   3.670   1.446   2.366 -0.0081  0.6662  0.3985
  177DG     H20 4068   3.744   1.368   2.532 -0.7187  0.7853 -0.3573
  177DG     H21 4069   3.822   1.306   2.386  0.1143 -1.1238  1.0353
  177DG     H22 4070   3.561   1.264   2.421 -0.5991 -1.8759 -1.4604
  177DG     H23 4071   3.611   1.285   2.251  0.0790 -1.6795  0.7295
  178DG      C1 4072   4.847   5.241   3.452 -0.1620 -0.2866 -0.2977
  178DG      C2 4073   5.148   5.654   3.833  0.3430 -0.5879 -0.2536
  178DG      H3 4074   4.829   5.222   3.558  0.1974 -0.7791 -0.3227
  178DG      H4 4075   4.861   5.152   3.391  0.8120  1.1328 -2.2556
  178DG      H5 4076   4.755   5.289   3.417 -0.8540 -0.6684  0.9237
  178DG      H6 4077   5.134   5.566   3.896 -3.6999  0.6680  0.8968
  178DG      H7 4078   5.240   5.701   3.868 -0.5326 -0.0585  1.4765
  178DG      H8 4079   5.058   5.710   3.861  1.5495  0.6765  1.3129
  178DG      O9 4080   4.950   5.340   3.444  0.0425 -0.0278  0.2242
  178DG     O10 4081   5.154   5.620   3.698 -0.2912  0.1855 -0.4511
  178DG     C11 4082   4.961   5.399   3.322 -0.1052  0.2491 -0.4515
  178DG     C12 4083   5.156   5.729   3.605  0.5718  0.6004 -0.0412
  178DG     H13 4084   4.862   5.432   3.290 -1.1581 -1.3473  0.9830
  178DG     H14 4085   4.988   5.321   3.251  0.8987 -1.2813  1.5460
  178DG     H15 4086   5.240   5.796   3.619 -0.3061  1.8810 -0.6762
  178DG     H16 4087   5.067   5.792   3.615 -0.0225 -0.1757 -0.3173
  178DG     C17 4088   5.072   5.508   3.329  0.6236 -0.3696 -0.6701
  178DG     C18 4089   5.173   5.664   3.469 -0.2271 -0.0424 -0.8149
  178DG     O19 4090   5.080   5.563   3.460 -0.2776 -0.0672  0.0887
  178DG     H20 4091   5.047   5.579   3.250  0.2280 -1.2709 -1.3758
  178DG     H21 4092   5.166   5.455   3.311  0.1552 -2.1135  1.5848
  178DG     H22 4093   5.152   5.733   3.387  1.8675 -0.6468 -1.9330
  178DG     H23 4094   5.275   5.624   3.465 -1.0379 -2.4446  0.7753
  179DG      C1 4095   1.322   2.925   4.598  0.5245  0.0388 -0.0122
  179DG      C2 4096   1.758   2.443   4.033  0.6613 -0.0663 -0.8966
  179DG      H3 4097   1.362   2.941   4.699 -0.8684 -0.3580  0.6249
  179DG      H4 4098   1.278   2.826   4.589 -1.7353  1.0353 -0.5751
  179DG      H5 4099   1.252   3.007   4.581 -1.1602 -0.8885  1.8869
  179DG      H6 4100   1.743   2.344   4.076 -3.1661 -0.6490 -3.0975
  179DG      H7 4101   1.672   2.452   3.966  0.8551 -0.6938 -1.2405
  179DG      H8 4102   1.847   2.435   3.970  0.2326 -1.6669 -1.3524
  179DG      O9 4103   1.439   2.951   4.515  0.3139  0.0162 -0.1849
  179DG     O10 4104   1.773   2.554   4.127  0.0533  0.5837 -0.2893
  179DG     C11 4105   1.415   2.928   4.375 -0.1362  0.0154 -0.3332
  179DG     C12 4106   1.656   2.580   4.206  0.2650 -0.0699  0.0579
  179DG     H13 4107   1.373   3.015   4.325  1.6308  0.0788 -1.8445
  179DG     H14 4108   1.341   2.850   4.354  0.3672 -0.8287  0.9271
  179DG     H15 4109   1.622   2.503   4.276 -3.3057  0.8796 -0.4297
  179DG     H16 4110   1.572   2.614   4.146 -0.6062 -1.3812  0.4836
  179DG     C17 4111   1.552   2.883   4.315 -0.5202 -0.2000  0.4930
  179DG     C18 4112   1.689   2.706   4.292 -0.5592  0.2099 -0.5395
  179DG     O19 4113   1.585   2.758   4.366  0.1342  0.0513  0.2188
  179DG     H20 4114   1.644   2.941   4.327 -0.8362  0.2763  0.6212
  179DG     H21 4115   1.540   2.870   4.207 -1.5503 -1.6599  0.7489
  179DG     H22 4116   1.758   2.684   4.373 -1.4934 -0.6797  0.0351
  179DG     H23 4117   1.739   2.783   4.233  0.9026  3.0589  3.9576
  180DG      C1 4118   1.109   4.689   4.597  0.4257  0.1986  0.5160
  180DG      C2 4119   1.746   4.961   4.221  0.8761 -1.3043  0.6340
  180DG      H3 4120   1.076   4.784   4.554  2.0087  0.3556 -0.4293
  180DG      H4 4121   1.092   4.702   4.704 -1.5475 -1.2192  0.4385
  180DG      H5 4122   1.043   4.613   4.555  2.0560 -1.3245  0.6081
  180DG      H6 4123   1.799   5.035   4.281 -1.5849  1.4025 -0.3040
  180DG      H7 4124   1.821   4.903   4.167 -0.5149 -1.8143 -0.8230
  180DG      H8 4125   1.702   5.027   4.147  0.3132 -1.5128  0.7824
  180DG      O9 4126   1.245   4.659   4.561 -0.4450 -0.1831  0.5321
  180DG     O10 4127   1.655   4.885   4.300  0.5124  0.7152 -0.1612
  180DG     C11 4128   1.265   4.613   4.428  0.1876  0.4356  0.2070
  180DG     C12 4129   1.713   4.784   4.390  0.1951  0.2058  0.9579
  180DG     H13 4130   1.237   4.690   4.357 -0.6211  0.9097  1.0270
  180DG     H14 4131   1.196   4.531   4.408 -0.4806  1.0359  0.0396
  180DG     H15 4132   1.716   4.813   4.495 -0.2239  2.9371  0.3109
  180DG     H16 4133   1.805   4.745   4.347 -1.3250  0.0433 -2.4577
  180DG     C17 4134   1.413   4.583   4.409 -0.2950 -0.1749 -0.3691
  180DG     C18 4135   1.621   4.661   4.374  0.4510  0.0149  0.3151
  180DG     O19 4136   1.499   4.697   4.425  0.1282  0.0371 -0.1865
  180DG     H20 4137   1.416   4.531   4.313 -0.5690 -1.2820  0.1968
  180DG     H21 4138   1.439   4.508   4.484  2.6101  0.1016 -0.9764
  180DG     H22 4139   1.612   4.638   4.268 -1.7532 -1.6322  0.7860
  180DG     H23 4140   1.663   4.573   4.422 -1.0396 -0.4923  0.7345
  181DG      C1 4141   0.589   3.993   4.678 -0.2497 -0.2968 -0.1365
  181DG      C2 4142   0.732   3.688   5.172  0.1097 -0.4946 -0.2537
  181DG      H3 4143   0.515   3.980   4.600  0.1198  2.5579 -1.0606
  181DG      H4 4144   0.684   3.970   4.630  0.3929  1.3497  0.2665
  181DG      H5 4145   0.604   4.096   4.711 -0.5805 -0.5780  0.9353
  181DG      H6 4146   0.819   3.701   5.107 -0.0916 -0.9703 -0.6261
  181DG      H7 4147   0.713   3.786   5.214 -1.2235 -0.8135 -0.0775
  181DG      H8 4148   0.773   3.613   5.239 -0.1963 -0.6510 -0.2407
  181DG      O9 4149   0.566   3.907   4.791  0.0392 -0.1103 -0.5828
  181DG     O10 4150   0.626   3.652   5.086 -0.8640  0.6131  0.4064
  181DG     C11 4151   0.439   3.935   4.851  0.0086  0.4131 -0.4240
  181DG     C12 4152   0.507   3.640   5.153 -0.4874 -0.2861 -0.3179
  181DG     H13 4153   0.363   3.907   4.779  1.8297 -0.6742 -2.0159
  181DG     H14 4154   0.427   4.040   4.879  1.4822  0.0195  1.8841
  181DG     H15 4155   0.487   3.723   5.220  1.0659  1.2498 -1.6793
  181DG     H16 4156   0.495   3.547   5.210 -0.6480 -0.4163 -0.5594
  181DG     C17 4157   0.392   3.859   4.974  0.9461 -0.3595 -0.3084
  181DG     C18 4158   0.389   3.631   5.054  0.0690  0.0602  0.4533
  181DG     O19 4159   0.404   3.726   4.946 -0.0205 -0.5046 -0.3826
  181DG     H20 4160   0.300   3.890   5.025  1.8118 -0.7426  1.5877
  181DG     H21 4161   0.460   3.887   5.055  0.4187  3.0742 -0.8952
  181DG     H22 4162   0.391   3.538   4.997 -0.9396  1.2543 -1.6099
  181DG     H23 4163   0.289   3.644   5.096  0.5011 -1.8256  2.2283
  182DG      C1 4164   3.271   2.164   2.088 -0.4142  0.5328 -0.6081
  182DG      C2 4165   3.686   1.638   1.850  0.5453  0.0565  0.3186
  182DG      H3 4166   3.247   2.231   2.171 -0.4760 -0.3400  0.0958
  182DG      H4 4167   3.177   2.125   2.048  0.0621 -0.1449 -1.0800
  182DG      H5 4168   3.318   2.229   2.015  1.7157  0.7972  0.9040
  182DG      H6 4169   3.652   1.692   1.762 -0.2034 -2.6715 -1.1652
  182DG      H7 4170   3.795   1.647   1.858  0.4353  0.8086  1.1987
  182DG      H8 4171   3.647   1.536   1.855 -1.9433  0.9030 -0.3848
  182DG      O9 4172   3.362   2.060   2.123  0.5490 -0.5833 -0.4230
  182DG     O10 4173   3.640   1.727   1.954 -0.4689  0.3245  0.2681
  182DG     C11 4174   3.312   1.968   2.223  0.1529 -0.6417  0.0589
  182DG     C12 4175   3.664   1.676   2.089 -0.0402  0.3355  1.1009
  182DG     H13 4176   3.234   1.907   2.177 -0.6209 -0.3022  0.8986
  182DG     H14 4177   3.271   2.021   2.309  2.4482 -0.3553  1.0397
  182DG     H15 4178   3.764   1.635   2.095 -0.6304 -1.5128 -0.4771
  182DG     H16 4179   3.602   1.588   2.103  0.8728 -0.5192 -0.0794
  182DG     C17 4180   3.424   1.879   2.277  0.0001 -0.1110  0.1165
  182DG     C18 4181   3.628   1.764   2.210 -0.1561  0.0028  0.0774
  182DG     O19 4182   3.496   1.819   2.168  0.5754 -0.4703 -0.4063
  182DG     H20 4183   3.384   1.818   2.357  0.0073 -1.8909 -1.1706
  182DG     H21 4184   3.490   1.945   2.334 -0.8775  0.2735  0.7026
  182DG     H22 4185   3.611   1.695   2.293  0.9348  0.1756  0.4616
  182DG     H23 4186   3.691   1.849   2.238  2.2954 -1.8409  0.4671
  183DG      C1 4187   5.268   3.727   4.264  0.6993 -0.0394  0.0000
  183DG      C2 4188   5.568   3.768   4.822 -0.8198 -0.5509  0.4611
  183DG      H3 4189   5.371   3.694   4.253  1.0778  0.6066  1.3109
  183DG      H4 4190   5.281   3.834   4.247  0.6495  0.0178  0.2993
  183DG      H5 4191   5.200   3.693   4.187  0.5883  1.4165 -0.5868
  183DG      H6 4192   5.618   3.864   4.805 -0.3257 -1.2820 -2.9998
  183DG      H7 4193   5.584   3.732   4.923  2.4250 -2.8137 -0.7166
  183DG      H8 4194   5.617   3.701   4.752  1.6259 -0.3580  1.8848
  183DG      O9 4195   5.229   3.705   4.396  0.7414 -0.2111 -0.0500
  183DG     O10 4196   5.435   3.802   4.800 -0.1059 -0.2288  0.2025
  183DG     C11 4197   5.103   3.769   4.429 -0.4470  0.5890 -0.8507
  183DG     C12 4198   5.341   3.700   4.808 -0.0052 -0.1056  0.7424
  183DG     H13 4199   5.017   3.741   4.370 -0.8855 -1.5719  0.6984
  183DG     H14 4200   5.125   3.875   4.416 -0.0809  0.3918 -1.9095
  183DG     H15 4201   5.347   3.664   4.911  1.7787 -1.8144  0.1034
  183DG     H16 4202   5.378   3.613   4.754  2.9143  1.9261 -0.7885
  183DG     C17 4203   5.066   3.756   4.573  1.1738  0.5850  0.5299
  183DG     C18 4204   5.196   3.738   4.775 -0.0042 -0.2645  0.0353
  183DG     O19 4205   5.186   3.781   4.642 -0.2080  0.0222  0.0959
  183DG     H20 4206   5.018   3.660   4.592  1.7754  0.1208 -0.2493
  183DG     H21 4207   4.996   3.832   4.609 -1.6433 -2.5821  2.2571
  183DG     H22 4208   5.123   3.659   4.793  1.0901 -1.3292 -0.0995
  183DG     H23 4209   5.163   3.821   4.838 -1.2677  0.7090 -1.8152
  184DG      C1 4210   1.248   5.399   0.557 -0.2038  0.6219  0.2767
  184DG      C2 4211   1.226   4.537   0.714  0.3947 -0.4089  0.5942
  184DG      H3 4212   1.352   5.402   0.527 -0.0717 -0.9145  0.5510
  184DG      H4 4213   1.222   5.498   0.594  0.1580  0.2367  1.5804
  184DG      H5 4214   1.197   5.371   0.464  1.3181  0.8271 -0.6653
  184DG      H6 4215   1.224   4.505   0.818 -2.5009 -1.0223  0.4305
  184DG      H7 4216   1.146   4.501   0.649  1.0417  0.3841 -0.6855
  184DG      H8 4217   1.323   4.507   0.676  0.1700  1.0423 -1.2808
  184DG      O9 4218   1.237   5.313   0.665  0.0194  0.0024 -0.2519
  184DG     O10 4219   1.218   4.676   0.712  0.0824  0.2893  0.2108
  184DG     C11 4220   1.272   5.177   0.643  0.1068  0.0030  0.2556
  184DG     C12 4221   1.324   4.730   0.789  0.5793  0.0966 -0.2602
  184DG     H13 4222   1.379   5.171   0.625 -0.0255  0.0339 -0.6257
  184DG     H14 4223   1.217   5.140   0.556 -1.0928 -1.7494  1.6922
  184DG     H15 4224   1.413   4.738   0.727  1.1907  1.7450  0.7830
  184DG     H16 4225   1.356   4.679   0.880 -0.7135  0.7190  0.5693
  184DG     C17 4226   1.236   5.086   0.756 -0.4861 -0.1637 -0.9115
  184DG     C18 4227   1.269   4.867   0.831  0.2335 -0.6122  0.0090
  184DG     O19 4228   1.278   4.961   0.723  0.5347  0.1548  0.8009
  184DG     H20 4229   1.131   5.096   0.783 -0.2355  1.6975 -0.4930
  184DG     H21 4230   1.294   5.125   0.839 -1.3352  1.2731 -0.9560
  184DG     H22 4231   1.165   4.867   0.863 -0.6507 -1.9812 -2.5534
  184DG     H23 4232   1.332   4.905   0.912  0.9266 -2.1213  0.2101
  185DG      C1 4233   2.823   0.019   0.275  0.4881 -0.1368 -0.1438
  185DG      C2 4234   2.301   0.091  -0.207 -0.1795  0.1124 -0.2006
  185DG      H3 4235   2.782  -0.081   0.282 -0.1010  0.1553  0.7234
  185DG      H4 4236   2.801   0.079   0.364 -1.1951  0.9298 -1.2104
  185DG      H5 4237   2.932   0.015   0.275  0.5074 -0.3671 -1.8519
  185DG      H6 4238   2.218   0.133  -0.264  0.1829  1.0761 -0.0369
  185DG      H7 4239   2.382   0.084  -0.280  0.6432 -2.9350  0.8556
  185DG      H8 4240   2.285  -0.007  -0.163  0.8750 -0.0318 -0.1153
  185DG      O9 4241   2.770   0.098   0.169 -0.7593  0.0471 -0.1364
  185DG     O10 4242   2.333   0.171  -0.095  0.5338  0.3070 -0.0498
  185DG     C11 4243   2.796   0.060   0.038  0.5014 -0.5201 -0.3493
  185DG     C12 4244   2.403   0.297  -0.120  0.1330 -0.0324 -0.2774
  185DG     H13 4245   2.737  -0.030   0.019 -1.9121  1.3643 -2.3743
  185DG     H14 4246   2.904   0.048   0.026  0.7931  1.3038  0.1094
  185DG     H15 4247   2.381   0.356  -0.031 -3.2876 -1.2387 -0.1944
  185DG     H16 4248   2.356   0.351  -0.202 -2.9392 -1.4747  0.4252
  185DG     C17 4249   2.744   0.170  -0.057 -0.0658  0.1606  0.5416
  185DG     C18 4250   2.552   0.284  -0.143 -0.2007 -0.3725 -0.0283
  185DG     O19 4251   2.601   0.189  -0.051  0.4693 -0.3129  0.0486
  185DG     H20 4252   2.758   0.141  -0.161 -2.0219  2.9822 -0.6305
  185DG     H21 4253   2.798   0.264  -0.048  0.4587  0.0499 -1.1740
  185DG     H22 4254   2.556   0.238  -0.242  1.4031  0.2159 -0.2657
  185DG     H23 4255   2.608   0.377  -0.152 -1.5097  0.3886 -0.7476
  186DG      C1 4256   1.993   0.317   3.719 -0.5829 -0.5551 -0.0732
  186DG      C2 4257   2.142   0.386   4.413 -0.4782 -0.0152 -0.2516
  186DG      H3 4258   1.888   0.309   3.744 -0.4712 -0.1084  0.5683
  186DG      H4 4259   2.024   0.214   3.700 -0.0180 -0.5302  0.6645
  186DG      H5 4260   1.996   0.385   3.634  0.0679 -2.1076 -1.3393
  186DG      H6 4261   2.170   0.283   4.387 -1.9107  0.3560 -3.7324
  186DG      H7 4262   2.174   0.408   4.515 -0.3746  2.9056 -0.8353
  186DG      H8 4263   2.035   0.402   4.403 -0.0993  3.2172 -0.0112
  186DG      O9 4264   2.074   0.356   3.826  0.2626  0.5046  0.1307
  186DG     O10 4265   2.222   0.466   4.326 -0.0681  0.3962  0.5051
  186DG     C11 4266   2.214   0.342   3.784  0.2239 -0.5373 -0.5422
  186DG     C12 4267   2.204   0.434   4.190  0.0907  0.1855 -0.0166
  186DG     H13 4268   2.246   0.418   3.712  0.2979  1.6827  1.6836
  186DG     H14 4269   2.236   0.241   3.752  0.4173 -0.8423  0.5025
  186DG     H15 4270   2.104   0.449   4.149  0.8282 -2.5109 -3.2091
  186DG     H16 4271   2.231   0.330   4.174 -0.2489 -0.0937  1.1375
  186DG     C17 4272   2.298   0.382   3.900  0.3376 -0.1620 -0.5198
  186DG     C18 4273   2.293   0.521   4.095  0.7506  0.2263  0.1291
  186DG     O19 4274   2.250   0.502   3.956  0.1905 -0.3130  0.1186
  186DG     H20 4275   2.398   0.406   3.862  0.4167 -0.1004 -0.2787
  186DG     H21 4276   2.306   0.299   3.970  0.4916  1.4417  1.4555
  186DG     H22 4277   2.264   0.621   4.127 -4.6709 -0.2639 -2.1018
  186DG     H23 4278   2.398   0.492   4.105  1.0306  0.7233 -1.0983
  187DG      C1 4279   0.872   2.542   5.167  0.8034  1.1952  0.4195
  187DG      C2 4280   1.389   3.130   5.419 -0.7177  0.0175  0.5174
  187DG      H3 4281   0.905   2.552   5.064 -0.0653 -1.2959 -0.1682
  187DG      H4 4282   0.772   2.580   5.188  0.2288  0.4753 -0.8889
  187DG      H5 4283   0.875   2.441   5.209 -2.2471  1.3637  1.2892
  187DG      H6 4284   1.458   3.174   5.346 -1.1997  1.5838  0.9698
  187DG      H7 4285   1.292   3.173   5.396 -0.2231  1.0268  0.2516
  187DG      H8 4286   1.416   3.164   5.519  1.3139 -1.5083  0.5503
  187DG      O9 4287   0.962   2.603   5.245 -0.1175  0.3737 -0.3043
  187DG     O10 4288   1.384   2.986   5.409 -0.0107 -0.4902  0.1874
  187DG     C11 4289   1.101   2.595   5.211  0.5920 -0.4579 -0.3381
  187DG     C12 4290   1.297   2.921   5.500  0.7877 -0.1092  0.1967
  187DG     H13 4291   1.123   2.677   5.142  0.5043  0.0278  0.2064
  187DG     H14 4292   1.117   2.502   5.156  1.7686 -1.1394  1.0898
  187DG     H15 4293   1.199   2.965   5.488  0.7525 -0.2483 -0.0468
  187DG     H16 4294   1.317   2.952   5.602 -2.2318  2.9777  0.0011
  187DG     C17 4295   1.187   2.603   5.335 -0.5325  0.0681  0.3123
  187DG     C18 4296   1.283   2.767   5.469 -0.4093 -0.6296 -0.3111
  187DG     O19 4297   1.187   2.739   5.366 -0.0680  0.0285 -0.0680
  187DG     H20 4298   1.287   2.569   5.305  0.2647  2.2282  0.3582
  187DG     H21 4299   1.154   2.532   5.410  1.1988 -1.0597  0.0930
  187DG     H22 4300   1.382   2.726   5.450  0.3882  1.1103 -0.0235
  187DG     H23 4301   1.235   2.717   5.553 -1.5057 -0.9130 -1.0727
  188DG      C1 4302   4.777   0.185   3.539 -0.1323  0.2037 -0.7688
  188DG      C2 4303   5.127  -0.384   3.774  0.2703 -0.3383  0.1972
  188DG      H3 4304   4.816   0.135   3.450 -1.8643  1.1270 -2.1116
  188DG      H4 4305   4.813   0.287   3.542 -2.3379  1.0726 -1.5588
  188DG      H5 4306   4.671   0.204   3.522 -0.6012 -0.8449  0.7080
  188DG      H6 4307   5.211  -0.406   3.840  0.6059 -1.0922 -0.4655
  188DG      H7 4308   5.063  -0.464   3.809  0.6596 -1.0463 -0.6674
  188DG      H8 4309   5.160  -0.407   3.673  2.0485  0.5099  0.5344
  188DG      O9 4310   4.791   0.104   3.654  0.4854 -0.1191 -0.0363
  188DG     O10 4311   5.080  -0.253   3.782  0.6933 -0.1176 -0.0445
  188DG     C11 4312   4.692  -0.003   3.667 -0.3487 -0.4592 -0.0499
  188DG     C12 4313   5.014  -0.225   3.909 -0.2691 -0.3704  0.1504
  188DG     H13 4314   4.698  -0.056   3.572 -2.1936  1.8201 -1.5354
  188DG     H14 4315   4.586   0.023   3.668 -0.1800  0.2302 -0.0607
  188DG     H15 4316   5.056  -0.134   3.952 -2.0161  0.2159  0.6808
  188DG     H16 4317   5.039  -0.305   3.978  0.9650 -1.2703 -1.2599
  188DG     C17 4318   4.704  -0.091   3.795  0.2889 -0.3485 -0.1371
  188DG     C18 4319   4.860  -0.224   3.908  0.0145 -0.3562  0.8597
  188DG     O19 4320   4.840  -0.137   3.804  0.1207 -0.2368  0.3081
  188DG     H20 4321   4.633  -0.171   3.776 -1.4340  1.5313 -2.2047
  188DG     H21 4322   4.681  -0.035   3.886 -4.6657 -2.5834  0.3051
  188DG     H22 4323   4.813  -0.319   3.883 -1.9535  0.2989  1.9101
  188DG     H23 4324   4.816  -0.195   4.003  2.5235  0.7031  1.7815
  189DG      C1 4325   0.517   4.532   3.946  0.1302 -0.2234  0.4374
  189DG      C2 4326  -0.120   5.029   4.031 -0.1202  0.0079 -0.4903
  189DG      H3 4327   0.605   4.514   3.885 -0.4460  1.1339 -0.8778
  189DG      H4 4328   0.460   4.441   3.929 -1.2535  0.3992  1.5306
  189DG      H5 4329   0.526   4.552   4.053 -0.8560 -1.8912  0.8636
  189DG      H6 4330  -0.095   5.024   4.137  1.7024 -0.1242 -0.8919
  189DG      H7 4331  -0.182   5.118   4.024 -3.8828 -2.1982  1.2714
  189DG      H8 4332  -0.174   4.940   3.998  1.3972 -1.1181 -0.0823
  189DG      O9 4333   0.450   4.637   3.875  0.2010  0.3919 -0.3606
  189DG     O10 4334  -0.006   5.055   3.952 -0.7638  0.0863  0.9254
  189DG     C11 4335   0.508   4.764   3.871  0.0753  0.0489 -0.1105
  189DG     C12 4336   0.111   4.986   3.987  0.3035  0.3473 -0.3298
  189DG     H13 4337   0.599   4.758   3.810 -0.3210 -0.3427 -0.6647
  189DG     H14 4338   0.552   4.804   3.963  1.3518 -0.1928 -0.5941
  189DG     H15 4339   0.095   4.879   4.002  1.1391  0.2116 -0.3501
  189DG     H16 4340   0.143   5.021   4.085  0.5877  1.1168 -0.6902
  189DG     C17 4341   0.410   4.868   3.816  0.0252 -0.2928 -0.2229
  189DG     C18 4342   0.219   4.991   3.876  0.2498  0.3342 -1.1446
  189DG     O19 4343   0.304   4.876   3.901  0.1509 -0.0520 -0.4744
  189DG     H20 4344   0.376   4.841   3.716 -3.5991 -0.8477  1.0405
  189DG     H21 4345   0.471   4.959   3.810 -0.3503 -0.0934 -1.3766
  189DG     H22 4346   0.181   4.987   3.774 -0.1701  1.2666 -1.0331
  189DG     H23 4347   0.263   5.090   3.886 -0.4305  0.7459 -2.1589
  190DG      C1 4348   4.068   0.966   0.895 -0.4348 -0.1376 -0.1906
  190DG      C2 4349   3.555   0.556   0.837 -0.5140 -0.3421  0.3929
  190DG      H3 4350   4.131   0.928   0.976  0.0314 -0.5666 -0.7480
  190DG      H4 4351   3.981   1.009   0.945 -0.1736  0.7794 -0.5091
  190DG      H5 4352   4.118   1.053   0.853 -0.3531 -0.0891  0.0045
  190DG      H6 4353   3.504   0.483   0.774 -2.1797  0.1708  1.1038
  190DG      H7 4354   3.595   0.500   0.921  0.1696 -0.4444  0.0065
  190DG      H8 4355   3.483   0.633   0.865  0.4552  0.7498 -0.0368
  190DG      O9 4356   4.038   0.885   0.788 -0.4997 -0.3099 -0.0564
  190DG     O10 4357   3.662   0.629   0.780 -0.2573 -0.1092 -0.0649
  190DG     C11 4358   3.963   0.945   0.681 -0.8428 -0.2987  0.3682
  190DG     C12 4359   3.754   0.551   0.707 -0.0333 -0.4236  0.1937
  190DG     H13 4360   4.035   1.018   0.645  1.7068 -2.3784  0.9223
  190DG     H14 4361   3.865   0.981   0.712 -0.8040 -1.2334  1.6716
  190DG     H15 4362   3.702   0.512   0.619 -1.5447 -1.8144  1.6219
  190DG     H16 4363   3.798   0.464   0.755 -0.3393 -0.2870  0.7264
  190DG     C17 4364   3.948   0.843   0.563 -0.2463 -0.4194 -0.1686
  190DG     C18 4365   3.870   0.634   0.655 -0.2503 -1.1611  0.2873
  190DG     O19 4366   3.838   0.750   0.576 -0.3959  0.2933 -0.2889
  190DG     H20 4367   4.046   0.796   0.552 -0.4310 -0.5416 -1.4140
  190DG     H21 4368   3.936   0.905   0.475  1.4167 -0.1363 -0.2260
  190DG     H22 4369   3.928   0.662   0.743  0.3033 -0.9919 -0.1231
  190DG     H23 4370   3.938   0.568   0.601 -1.2405 -2.4936  0.6017
  191DG      C1 4371   3.428   0.807   2.955  0.0646  0.0558 -0.1323
  191DG      C2 4372   2.929   1.008   2.472 -0.2548  0.4575  0.2926
  191DG      H3 4373   3.442   0.761   3.053  0.4773 -1.0322 -0.6820
  191DG      H4 4374   3.518   0.868   2.948 -0.4100  0.7309 -0.4594
  191DG      H5 4375   3.446   0.724   2.887 -0.0118 -0.6179  0.6463
  191DG      H6 4376   2.875   0.921   2.435  0.3467  0.8602 -1.6581
  191DG      H7 4377   2.887   1.103   2.438 -1.1002  0.1604  0.4811
  191DG      H8 4378   3.029   1.006   2.428 -0.8348  0.0007 -1.0741
  191DG      O9 4379   3.309   0.894   2.952  0.0365 -0.5932  0.1817
  191DG     O10 4380   2.938   0.999   2.615 -0.1498 -0.4548  0.0354
  191DG     C11 4381   3.191   0.814   2.967 -0.5127 -0.0967  0.2812
  191DG     C12 4382   3.014   1.113   2.665  0.3500 -0.4661 -0.0252
  191DG     H13 4383   3.192   0.767   3.065 -0.1846 -0.6214  0.0340
  191DG     H14 4384   3.180   0.735   2.892  2.2138 -2.2713  1.9855
  191DG     H15 4385   2.965   1.208   2.645 -1.1272 -1.2556 -0.2963
  191DG     H16 4386   3.110   1.113   2.613  0.0500 -0.6661 -0.5849
  191DG     C17 4387   3.089   0.917   2.957 -0.3765 -0.4318 -0.4099
  191DG     C18 4388   3.033   1.098   2.811 -0.1739 -0.3021  0.3753
  191DG     O19 4389   3.108   0.982   2.838  0.1803 -0.4654 -0.0887
  191DG     H20 4390   3.097   0.991   3.038 -0.5658  0.0808 -0.8561
  191DG     H21 4391   2.986   0.882   2.971 -1.6370  2.5116 -1.3997
  191DG     H22 4392   3.082   1.190   2.842  1.3304 -0.9782  0.0909
  191DG     H23 4393   2.939   1.095   2.867  0.4510 -1.3766  1.4194
  192DG      C1 4394   1.314   4.930   4.307 -0.4580 -0.0715 -0.0772
  192DG      C2 4395   1.146   5.540   4.552  0.2387  0.1585  0.1817
  192DG      H3 4396   1.406   4.985   4.290  0.4169 -1.3316  0.4498
  192DG      H4 4397   1.316   4.843   4.242 -1.1005 -1.4250  1.6225
  192DG      H5 4398   1.326   4.889   4.408 -0.3451 -3.6370 -1.4144
  192DG      H6 4399   1.080   5.614   4.597  1.2580  1.2091 -0.0072
  192DG      H7 4400   1.231   5.527   4.619  0.3320  1.8120  0.4024
  192DG      H8 4401   1.181   5.579   4.456  2.0141  0.0755  0.7604
  192DG      O9 4402   1.203   5.014   4.274 -0.1172 -0.2304 -0.6715
  192DG     O10 4403   1.077   5.421   4.523  0.0621 -0.2049  0.2559
  192DG     C11 4404   1.078   4.974   4.350 -0.2477  1.1134  0.3382
  192DG     C12 4405   0.984   5.432   4.418  0.2427 -0.6751 -0.5263
  192DG     H13 4406   1.108   4.970   4.455  1.1605  1.5282 -0.0282
  192DG     H14 4407   1.031   4.877   4.334 -0.0363  0.8001  1.4959
  192DG     H15 4408   1.051   5.458   4.336  1.0287 -0.8619  0.0361
  192DG     H16 4409   0.914   5.514   4.431  1.9977  0.7190  0.5768
  192DG     C17 4410   0.968   5.069   4.341  0.6420 -0.1826  0.1079
  192DG     C18 4411   0.917   5.305   4.382 -0.5434  0.1260 -0.5770
  192DG     O19 4412   1.011   5.198   4.368 -0.5606 -0.4148 -0.0743
  192DG     H20 4413   0.891   5.043   4.414 -0.7110  2.8380 -0.0672
  192DG     H21 4414   0.933   5.077   4.238 -0.4861  1.4961  0.5727
  192DG     H22 4415   0.854   5.279   4.467  1.4056  0.9833  1.2214
  192DG     H23 4416   0.855   5.314   4.294 -1.1147  0.4847 -0.1438
  193DG      C1 4417   2.263   5.462   2.263 -0.2294 -0.1499 -0.1536
  193DG      C2 4418   1.992   4.967   2.550  0.1260  0.5228  0.4729
  193DG      H3 4419   2.327   5.505   2.186  3.6356 -0.5589  2.5267
  193DG      H4 4420   2.313   5.490   2.356  3.0045 -0.6792 -1.5775
  193DG      H5 4421   2.167   5.512   2.256  0.4231  1.1125 -0.4515
  193DG      H6 4422   1.892   5.006   2.533  0.7017  1.2153 -1.6212
  193DG      H7 4423   1.987   4.858   2.562 -0.5009  0.4002 -0.7794
  193DG      H8 4424   2.039   5.004   2.641 -1.2965 -0.7892  1.7906
  193DG      O9 4425   2.266   5.326   2.247  1.0641 -0.0331  0.1639
  193DG     O10 4426   2.062   4.995   2.430 -0.2645 -0.4318  0.4662
  193DG     C11 4427   2.392   5.270   2.231  0.0185 -0.5634  0.2419
  193DG     C12 4428   2.180   4.914   2.405 -0.1127 -0.4184 -0.3142
  193DG     H13 4429   2.447   5.266   2.326 -1.5609  0.3834  1.2415
  193DG     H14 4430   2.451   5.333   2.164  0.5641  0.4202  1.5934
  193DG     H15 4431   2.148   4.810   2.404 -1.0942 -0.1692  1.2804
  193DG     H16 4432   2.247   4.936   2.488  0.3667  0.1060 -0.8332
  193DG     C17 4433   2.363   5.131   2.174 -0.0557 -0.7738 -0.1976
  193DG     C18 4434   2.249   4.944   2.272  0.5394  0.0648 -0.4444
  193DG     O19 4435   2.286   5.081   2.273 -0.3369 -1.0483  0.2192
  193DG     H20 4436   2.453   5.071   2.161 -0.0306 -0.8093  0.1415
  193DG     H21 4437   2.309   5.130   2.079 -1.0556 -2.7933  0.3344
  193DG     H22 4438   2.336   4.880   2.256  0.2112 -0.8297  1.1918
  193DG     H23 4439   2.183   4.930   2.186 -1.7508 -2.5348  1.5298
  194DG      C1 4440   1.699   0.716   0.492 -0.8024 -0.0102 -0.1969
  194DG      C2 4441   1.697   1.302   0.982  0.0693 -0.2261  0.0134
  194DG      H3 4442   1.684   0.689   0.387  2.4360 -0.2526 -0.7216
  194DG      H4 4443   1.640   0.648   0.553 -0.3102 -1.6845 -1.5044
  194DG      H5 4444   1.802   0.704   0.528 -0.5616  2.4951  0.0894
  194DG      H6 4445   1.776   1.326   1.053  1.0458 -0.0690 -1.0747
  194DG      H7 4446   1.632   1.376   0.935 -1.3395 -1.8906 -0.7788
  194DG      H8 4447   1.618   1.256   1.040 -1.9995 -0.0049 -2.4293
  194DG      O9 4448   1.657   0.849   0.520 -0.5266 -0.2305 -0.2153
  194DG     O10 4449   1.735   1.214   0.875 -0.0928  0.0514  0.2971
  194DG     C11 4450   1.738   0.955   0.464  0.0489  0.3988 -0.0470
  194DG     C12 4451   1.834   1.283   0.793 -0.0742 -0.6578 -1.1646
  194DG     H13 4452   1.676   1.044   0.449 -1.2978 -0.6584 -0.9723
  194DG     H14 4453   1.777   0.924   0.368 -0.5902  0.3761 -0.3025
  194DG     H15 4454   1.917   1.325   0.851 -0.4545  1.4285 -2.0388
  194DG     H16 4455   1.791   1.366   0.737  0.9465 -0.4841 -1.7340
  194DG     C17 4456   1.848   1.000   0.560 -0.0444 -0.7517 -0.0773
  194DG     C18 4457   1.903   1.186   0.701 -0.1662  0.2243  0.2020
  194DG     O19 4458   1.800   1.118   0.628  0.1914  0.1741  0.6052
  194DG     H20 4459   1.941   1.030   0.512  0.0120  1.8361  1.4805
  194DG     H21 4460   1.873   0.926   0.636  0.4962 -0.9387 -0.4320
  194DG     H22 4461   1.958   1.235   0.620 -0.9093 -2.1684 -1.8609
  194DG     H23 4462   1.961   1.109   0.751 -0.7561 -0.3852 -0.0388
  195DG      C1 4463   3.934   1.415   3.459 -0.1918 -0.3792  0.5135
  195DG      C2 4464   3.272   1.053   3.441 -0.5347 -0.3485  0.1457
  195DG      H3 4465   4.010   1.450   3.388 -1.0552  1.6499  0.5226
  195DG      H4 4466   3.985   1.351   3.531 -0.7659  1.0224  2.2528
  195DG      H5 4467   3.890   1.499   3.513  1.4843 -0.3834  1.9996
  195DG      H6 4468   3.236   1.155   3.423 -1.6519 -0.5795  0.9279
  195DG      H7 4469   3.209   0.984   3.386 -0.1286 -0.0468 -0.7106
  195DG      H8 4470   3.265   1.037   3.549 -2.0113 -0.8457 -0.0113
  195DG      O9 4471   3.834   1.349   3.384 -0.3436  0.0765  0.3161
  195DG     O10 4472   3.409   1.044   3.394 -0.5437  0.0743  0.5499
  195DG     C11 4473   3.873   1.215   3.346  0.0442 -0.2318  0.4270
  195DG     C12 4474   3.406   1.097   3.262  0.3927 -0.5487  0.3396
  195DG     H13 4475   3.887   1.154   3.436 -0.1048 -1.0465 -0.0841
  195DG     H14 4476   3.969   1.216   3.296  1.5116 -2.8032  2.8497
  195DG     H15 4477   3.374   1.201   3.254 -1.8222 -1.2349 -0.4327
  195DG     H16 4478   3.326   1.056   3.200 -0.3524 -1.7236  2.0088
  195DG     C17 4479   3.772   1.135   3.258 -0.0420 -0.0041  0.0863
  195DG     C18 4480   3.547   1.086   3.200 -0.0913 -0.5378  0.1958
  195DG     O19 4481   3.632   1.163   3.279  0.4997 -0.3428 -0.2018
  195DG     H20 4482   3.789   1.030   3.281 -0.5242 -0.1450 -0.1673
  195DG     H21 4483   3.793   1.149   3.152  0.7218  2.3042  0.4858
  195DG     H22 4484   3.569   0.979   3.192  2.1568 -0.0800 -0.5481
  195DG     H23 4485   3.554   1.122   3.097 -0.2492  1.1351  0.7462
  196DG      C1 4486   3.750   4.468   0.783  0.1166  0.2626  0.5277
  196DG      C2 4487   4.027   3.857   0.806 -0.6043 -0.0577 -0.0017
  196DG      H3 4488   3.843   4.483   0.839 -1.2794  0.9649  2.7714
  196DG      H4 4489   3.677   4.542   0.813  0.4648  1.1471 -0.7020
  196DG      H5 4490   3.766   4.485   0.676  0.4023 -0.5483  0.4309
  196DG      H6 4491   4.029   3.758   0.852 -1.6152 -0.4164 -0.6960
  196DG      H7 4492   4.050   3.844   0.700 -1.3009 -3.3114  0.1361
  196DG      H8 4493   4.104   3.915   0.856  0.0516 -0.9107 -0.0087
  196DG      O9 4494   3.711   4.324   0.797  0.2258 -0.3312 -0.5151
  196DG     O10 4495   3.907   3.923   0.830  0.6701 -0.1797  0.8282
  196DG     C11 4496   3.596   4.272   0.723 -0.7258 -0.5630  0.2123
  196DG     C12 4497   3.801   3.853   0.768 -0.5160 -0.0771 -0.1589
  196DG     H13 4498   3.629   4.273   0.619 -0.6940  1.4006  0.2098
  196DG     H14 4499   3.512   4.341   0.722  1.3664  2.1437 -0.2817
  196DG     H15 4500   3.803   3.753   0.811  2.2910 -0.5240 -1.1114
  196DG     H16 4501   3.825   3.846   0.662  1.9912 -1.4554  0.4255
  196DG     C17 4502   3.562   4.131   0.772 -0.2876 -0.1118  0.7957
  196DG     C18 4503   3.677   3.923   0.800  0.1452 -0.0230  0.0378
  196DG     O19 4504   3.681   4.055   0.747  0.1208 -0.4411 -0.5056
  196DG     H20 4505   3.478   4.091   0.715 -1.7913  2.5001  1.0053
  196DG     H21 4506   3.530   4.127   0.876  1.7263  0.0685  1.4571
  196DG     H22 4507   3.588   3.869   0.770  0.1192  0.1506 -0.2005
  196DG     H23 4508   3.671   3.935   0.908 -1.0565  1.7407 -0.1716
  197DG      C1 4509   3.808   2.579   2.788 -0.7087  0.2345 -0.6693
  197DG      C2 4510   3.210   2.056   2.599 -0.5827  0.7051  0.1904
  197DG      H3 4511   3.755   2.661   2.836  0.0033 -0.8512  2.1999
  197DG      H4 4512   3.905   2.615   2.753 -0.1920  0.9757  1.3856
  197DG      H5 4513   3.838   2.507   2.864  2.6058 -0.1596 -2.1736
  197DG      H6 4514   3.222   2.156   2.558  0.9803 -0.1380 -1.5539
  197DG      H7 4515   3.127   2.008   2.548 -0.1222 -0.0962  0.1885
  197DG      H8 4516   3.187   2.065   2.705  1.2559  0.6072  0.6403
  197DG      O9 4517   3.729   2.517   2.682  0.1961  0.0262  0.4456
  197DG     O10 4518   3.342   1.996   2.585 -0.0244 -0.3757 -0.0074
  197DG     C11 4519   3.802   2.414   2.624 -0.6843 -0.2969  0.2689
  197DG     C12 4520   3.439   2.085   2.654  0.8181 -0.5715  0.1988
  197DG     H13 4521   3.848   2.343   2.693 -1.0100 -1.0576 -0.2780
  197DG     H14 4522   3.882   2.464   2.569 -0.0584 -1.4235  0.1058
  197DG     H15 4523   3.506   2.026   2.717  0.9092 -1.2442 -0.5138
  197DG     H16 4524   3.388   2.148   2.726  0.6169 -1.0715  0.4992
  197DG     C17 4525   3.706   2.337   2.527  0.0596 -0.0556 -0.1863
  197DG     C18 4526   3.514   2.175   2.545  0.0810  0.0693  0.3762
  197DG     O19 4527   3.606   2.265   2.604 -0.2104  0.6125  0.5843
  197DG     H20 4528   3.764   2.268   2.466  1.3007 -0.6263  1.5431
  197DG     H21 4529   3.653   2.410   2.467  0.7373 -1.2819 -2.4035
  197DG     H22 4530   3.559   2.110   2.470 -0.7047 -1.0999  0.8932
  197DG     H23 4531   3.444   2.235   2.487  1.0925 -0.2574 -1.2383
  198DG      C1 4532   2.550   1.606   1.018  0.1442 -0.6673  0.3406
  198DG      C2 4533   3.087   1.266   0.776 -0.0827 -0.3653 -0.5063
  198DG      H3 4534   2.546   1.499   1.037  0.0039 -0.8941 -0.8867
  198DG      H4 4535   2.485   1.630   0.934 -1.3297 -2.5514  0.8834
  198DG      H5 4536   2.518   1.663   1.105  1.9819  0.0055  0.6281
  198DG      H6 4537   3.013   1.210   0.717  0.6209 -0.0187 -1.7693
  198DG      H7 4538   3.188   1.266   0.735  0.2129  1.7038  0.1466
  198DG      H8 4539   3.107   1.224   0.874  0.7487 -0.8772 -0.8774
  198DG      O9 4540   2.684   1.634   0.983  0.4528 -0.0497  0.1344
  198DG     O10 4541   3.054   1.402   0.806  0.0033  0.0369 -0.3881
  198DG     C11 4542   2.703   1.744   0.896 -0.0319  0.4997 -0.0978
  198DG     C12 4543   3.062   1.499   0.706  0.0905 -0.0914 -0.2948
  198DG     H13 4544   2.672   1.840   0.938  0.3780 -0.7064  3.2699
  198DG     H14 4545   2.643   1.728   0.806  1.4291  3.3569 -1.7227
  198DG     H15 4546   2.996   1.480   0.621 -0.7364  0.9941  0.0816
  198DG     H16 4547   3.164   1.501   0.668 -0.1979 -0.0997 -1.0889
  198DG     C17 4548   2.846   1.760   0.842 -0.3293  0.1998  0.3298
  198DG     C18 4549   3.032   1.632   0.770 -0.3925 -0.8006 -0.5556
  198DG     O19 4550   2.892   1.635   0.800  0.2078 -0.3646 -0.3504
  198DG     H20 4551   2.912   1.812   0.911  1.0647  0.0384 -0.8523
  198DG     H21 4552   2.830   1.832   0.761 -2.3310 -1.0136 -0.4489
  198DG     H22 4553   3.084   1.651   0.864 -0.5762 -0.8344 -0.4467
  198DG     H23 4554   3.051   1.721   0.709 -3.8079 -1.6906 -3.2437
  199DG      C1 4555   4.653   4.103   3.098 -0.3707 -0.2598  0.3151
  199DG      C2 4556   3.984   4.182   3.114 -0.4863 -0.0441 -0.5125
  199DG      H3 4557   4.674   4.204   3.063 -1.5596  0.2687  1.0690
  199DG      H4 4558   4.621   4.043   3.014  3.7304 -2.6935  0.2160
  199DG      H5 4559   4.739   4.051   3.141 -0.9204  1.8413  4.4611
  199DG      H6 4560   3.993   4.169   3.006 -0.2712 -0.5735 -0.4322
  199DG      H7 4561   3.899   4.141   3.170 -0.0329 -0.3224 -0.0202
  199DG      H8 4562   3.977   4.290   3.131  0.8080 -0.1171  0.6204
  199DG      O9 4563   4.549   4.098   3.198 -1.0924  0.0850  0.7426
  199DG     O10 4564   4.093   4.132   3.180 -0.3903 -0.3119  0.4337
  199DG     C11 4565   4.579   4.135   3.335  0.2279  0.4738  0.3863
  199DG     C12 4566   4.095   4.163   3.319  0.4825  0.2840 -0.0292
  199DG     H13 4567   4.623   4.234   3.322  0.7023  0.1570 -0.5431
  199DG     H14 4568   4.654   4.070   3.381 -0.9792 -1.8389 -0.7425
  199DG     H15 4569   3.999   4.131   3.359  0.4896  0.2915 -0.0068
  199DG     H16 4570   4.094   4.271   3.335 -1.7903  0.3435 -0.2790
  199DG     C17 4571   4.450   4.139   3.412  0.5693 -0.1675  0.4033
  199DG     C18 4572   4.217   4.119   3.401 -0.5827 -0.1521 -0.1952
  199DG     O19 4573   4.335   4.151   3.327  0.0961 -0.4443 -1.0457
  199DG     H20 4574   4.453   4.193   3.506  0.7508 -1.9213  1.4500
  199DG     H21 4575   4.443   4.035   3.443 -1.5380  0.1186  1.0597
  199DG     H22 4576   4.222   4.161   3.502  0.9908  0.4210 -0.4869
  199DG     H23 4577   4.203   4.014   3.424 -0.8409  0.2255  1.5653
  200DG      C1 4578   1.402   1.913   4.512  0.0718 -0.4339  0.7534
  200DG      C2 4579   2.175   2.114   4.878 -0.2488 -0.0048 -0.7884
  200DG      H3 4580   1.435   1.968   4.423  0.1343 -0.7776  0.5585
  200DG      H4 4581   1.298   1.883   4.498 -0.4817  0.7530  2.1256
  200DG      H5 4582   1.459   1.820   4.516 -1.3874 -1.3653  0.4536
  200DG      H6 4583   2.268   2.098   4.822  0.6089 -0.2565  0.6509
  200DG      H7 4584   2.171   2.215   4.918  0.5282 -0.8244  1.5027
  200DG      H8 4585   2.173   2.042   4.959 -1.5970  0.5082 -0.3422
  200DG      O9 4586   1.423   1.987   4.631 -0.1846 -0.0899  0.0326
  200DG     O10 4587   2.065   2.077   4.803 -0.7323 -0.2193  0.4828
  200DG     C11 4588   1.556   2.036   4.652 -0.2502 -0.4088 -0.2167
  200DG     C12 4589   1.944   2.115   4.861  0.6578 -0.1937 -0.0539
  200DG     H13 4590   1.564   2.137   4.612  1.3214 -0.0407  0.9261
  200DG     H14 4591   1.635   1.973   4.609  0.5971 -0.1600  0.9240
  200DG     H15 4592   1.933   2.223   4.856  0.8120 -0.2221 -1.2281
  200DG     H16 4593   1.945   2.078   4.964  0.7550 -0.8841 -0.2991
  200DG     C17 4594   1.579   2.041   4.800 -0.2164 -0.0349  0.6088
  200DG     C18 4595   1.821   2.044   4.798 -0.1296  0.0763 -0.1202
  200DG     O19 4596   1.701   2.107   4.830 -0.6405 -0.5464  0.2892
  200DG     H20 4597   1.576   1.940   4.841 -1.0619 -0.4894 -0.5242
  200DG     H21 4598   1.493   2.101   4.829 -0.4124  0.4552 -0.8709
  200DG     H22 4599   1.832   2.033   4.690  0.3328 -1.4730  0.0675
  200DG     H23 4600   1.814   1.945   4.842 -1.2874  0.5425  0.7877
  201DG      C1 4601   4.463   2.054   2.440  0.1526  0.0451  0.0380
  201DG      C2 4602   4.118   1.811   1.929 -0.3549 -0.3102 -0.0700
  201DG      H3 4603   4.428   2.131   2.372 -1.9192 -1.3137 -0.5221
  201DG      H4 4604   4.559   2.070   2.490  1.7808 -1.5134 -2.3416
  201DG      H5 4605   4.387   2.032   2.515 -0.1160  0.0764 -0.2237
  201DG      H6 4606   4.201   1.773   1.870 -0.1484 -1.7695  1.0722
  201DG      H7 4607   4.025   1.762   1.900 -0.8419 -0.0384  0.9652
  201DG      H8 4608   4.101   1.916   1.906 -0.1079 -0.2287  0.1125
  201DG      O9 4609   4.509   1.953   2.349  0.4382 -0.4010 -0.0764
  201DG     O10 4610   4.146   1.789   2.064 -0.5591  0.3109 -0.6097
  201DG     C11 4611   4.515   1.826   2.402  0.9772  0.4074 -0.0714
  201DG     C12 4612   4.187   1.661   2.089  0.1291  1.0493 -0.6576
  201DG     H13 4613   4.545   1.832   2.507 -0.9871  0.7052  0.5283
  201DG     H14 4614   4.595   1.769   2.355  2.3238  2.5710 -0.5178
  201DG     H15 4615   4.262   1.626   2.018 -1.9128 -0.5471 -2.1705
  201DG     H16 4616   4.110   1.585   2.075  1.1672 -0.1517 -0.0435
  201DG     C17 4617   4.383   1.748   2.389 -0.5138  0.3310 -0.0659
  201DG     C18 4618   4.234   1.658   2.230  0.2727  0.1043 -0.0471
  201DG     O19 4619   4.343   1.754   2.249  0.8275  0.0002  0.6524
  201DG     H20 4620   4.302   1.794   2.445  0.0052 -1.6872  2.4984
  201DG     H21 4621   4.387   1.643   2.415 -0.9290 -0.3972 -2.6433
  201DG     H22 4622   4.149   1.665   2.298  0.8290  0.2715  0.6450
  201DG     H23 4623   4.281   1.561   2.247  2.5413  0.9451 -1.0658
  202DG      C1 4624   2.676   0.310   2.024 -0.0447  0.2468  0.6160
  202DG      C2 4625   3.225  -0.080   1.999  0.4495 -0.4823  0.0919
  202DG      H3 4626   2.571   0.335   2.014 -0.5747 -2.4711 -1.9127
  202DG      H4 4627   2.728   0.406   2.016  1.5505 -0.4276  2.1662
  202DG      H5 4628   2.681   0.257   2.119 -1.6427  0.5751  0.9006
  202DG      H6 4629   3.178  -0.156   2.061 -0.6091  0.6564  0.7497
  202DG      H7 4630   3.291  -0.128   1.926  0.5792 -1.8781  1.0929
  202DG      H8 4631   3.266   0.001   2.060  1.1780  0.4368 -1.5504
  202DG      O9 4632   2.708   0.234   1.908  0.1447  0.5707  0.9141
  202DG     O10 4633   3.127  -0.026   1.915  0.1740  0.2922 -0.7683
  202DG     C11 4634   2.641   0.111   1.904 -0.2688 -0.8414 -0.1087
  202DG     C12 4635   3.043  -0.122   1.850 -0.0799  0.5792  0.1925
  202DG     H13 4636   2.538   0.122   1.870  0.9876  0.3405 -4.0708
  202DG     H14 4637   2.644   0.064   2.002 -1.7016 -0.5471  0.0991
  202DG     H15 4638   2.996  -0.186   1.925  0.3458  1.4866  1.2488
  202DG     H16 4639   3.108  -0.190   1.794 -1.2193  1.0771 -1.8223
  202DG     C17 4640   2.709   0.018   1.802  0.4626 -0.0635  0.2614
  202DG     C18 4641   2.925  -0.079   1.762  0.4192  0.3469 -0.2291
  202DG     O19 4642   2.849   0.000   1.853 -0.0296 -0.2814  0.0666
  202DG     H20 4643   2.721   0.065   1.705  2.5983 -0.2061  0.4128
  202DG     H21 4644   2.662  -0.079   1.783 -0.2907  0.6123 -1.4985
  202DG     H22 4645   2.953  -0.021   1.674 -0.6693  1.0359 -0.1335
  202DG     H23 4646   2.870  -0.169   1.735  1.9009 -1.1380  1.4751
  203DG      C1 4647   4.932   0.028   4.615 -0.7442 -0.6998 -0.2081
  203DG      C2 4648   4.634   0.526   5.085  0.0922 -0.2900  0.0354
  203DG      H3 4649   4.951   0.120   4.561  1.3902 -0.1961  1.2584
  203DG      H4 4650   4.860  -0.041   4.572  1.4654 -2.7176 -0.9377
  203DG      H5 4651   5.023  -0.029   4.638 -0.5104 -0.2070  0.0892
  203DG      H6 4652   4.674   0.626   5.064 -1.4229 -0.1644 -2.6540
  203DG      H7 4653   4.542   0.542   5.141 -0.8857  0.2084 -1.6621
  203DG      H8 4654   4.708   0.479   5.151 -1.8026 -1.1460  1.6462
  203DG      O9 4655   4.895   0.089   4.734  0.3822  0.3512 -0.2444
  203DG     O10 4656   4.621   0.443   4.970  0.0442 -0.7252  0.6543
  203DG     C11 4657   4.881   0.002   4.844  0.1674  0.4340 -0.2595
  203DG     C12 4658   4.545   0.323   4.981 -0.7476 -0.3700  0.1277
  203DG     H13 4659   4.974  -0.041   4.883  0.1294  1.7433  1.3906
  203DG     H14 4660   4.816  -0.077   4.806  1.3869  0.0005 -1.5592
  203DG     H15 4661   4.496   0.299   4.887  0.0294  0.0804 -0.4007
  203DG     H16 4662   4.465   0.351   5.050 -0.7665  0.7843 -0.3402
  203DG     C17 4663   4.828   0.081   4.961  0.2681  0.1448 -0.7459
  203DG     C18 4664   4.633   0.212   5.031 -0.0351  0.5817 -0.2476
  203DG     O19 4665   4.725   0.168   4.925 -0.1766 -0.0658  0.0169
  203DG     H20 4666   4.915   0.129   5.005  0.6123 -2.3021  1.5129
  203DG     H21 4667   4.783   0.006   5.026  0.9390 -1.6151 -2.2268
  203DG     H22 4668   4.683   0.240   5.123 -0.5190 -2.9174  1.2256
  203DG     H23 4669   4.571   0.127   5.061  0.8392 -0.6437 -1.7912
  204DG      C1 4670   2.014   1.733   3.029 -0.3825  0.7517  0.2202
  204DG      C2 4671   2.116   1.329   2.526  0.0800 -0.3720 -0.3952
  204DG      H3 4672   2.077   1.791   3.096  0.4655 -1.5039  1.4807
  204DG      H4 4673   1.930   1.707   3.094  0.3116 -0.4420  0.6634
  204DG      H5 4674   1.977   1.779   2.937 -0.8510 -1.1609 -0.5932
  204DG      H6 4675   2.085   1.230   2.491  2.6352 -1.6391  0.6719
  204DG      H7 4676   2.044   1.406   2.499 -1.2523 -0.4574  2.5384
  204DG      H8 4677   2.212   1.343   2.476  0.5653  1.3220  0.9452
  204DG      O9 4678   2.084   1.616   2.990  0.0193  0.8039 -0.1949
  204DG     O10 4679   2.138   1.341   2.662 -0.1362  0.2580  0.4133
  204DG     C11 4680   2.135   1.542   3.100 -0.4890  0.1730 -0.1836
  204DG     C12 4681   2.225   1.247   2.727  0.4640 -0.5313 -0.4363
  204DG     H13 4682   2.061   1.530   3.179  0.6113 -1.3495  0.6676
  204DG     H14 4683   2.225   1.586   3.143 -0.3777 -1.7100  1.6494
  204DG     H15 4684   2.323   1.279   2.692  0.5555 -2.8200 -2.5086
  204DG     H16 4685   2.196   1.147   2.695 -2.0624  0.6524 -2.2212
  204DG     C17 4686   2.161   1.401   3.067 -0.1676 -0.3897 -0.0196
  204DG     C18 4687   2.219   1.257   2.877  0.0417  0.3373 -0.0135
  204DG     O19 4688   2.208   1.387   2.932  0.2702 -0.5004 -0.6102
  204DG     H20 4689   2.071   1.340   3.075 -0.3646 -0.1308 -0.3097
  204DG     H21 4690   2.235   1.356   3.135 -0.2309  0.0708  0.3585
  204DG     H22 4691   2.128   1.209   2.914 -0.3945  0.2899 -1.1006
  204DG     H23 4692   2.301   1.203   2.924 -1.1444  0.6361  2.5633
  205DG      C1 4693   5.150   2.271   2.444 -0.3645 -0.5168 -0.2666
  205DG      C2 4694   5.048   2.398   3.207  0.2755 -0.0386  0.3623
  205DG      H3 4695   5.046   2.305   2.451 -0.2538 -0.4170  1.2706
  205DG      H4 4696   5.149   2.168   2.479  2.0349  0.0410  1.7854
  205DG      H5 4697   5.197   2.271   2.346  0.1280  0.1880 -0.0363
  205DG      H6 4698   4.939   2.388   3.201  0.2211 -0.4637  1.8314
  205DG      H7 4699   5.085   2.298   3.224  1.6656  0.3664 -0.1661
  205DG      H8 4700   5.078   2.453   3.296 -1.0341 -0.9380  1.4091
  205DG      O9 4701   5.224   2.358   2.528  0.0607 -0.3627 -0.1455
  205DG     O10 4702   5.108   2.446   3.081 -0.4612 -0.5875 -0.4923
  205DG     C11 4703   5.197   2.328   2.666 -1.1406 -0.4202 -0.1955
  205DG     C12 4704   5.243   2.471   3.097 -0.4817  0.3273 -0.1373
  205DG     H13 4705   5.202   2.225   2.701 -0.7468 -0.7919 -1.3205
  205DG     H14 4706   5.095   2.355   2.694 -0.5570  0.2863  1.4331
  205DG     H15 4707   5.293   2.379   3.127  0.9413  0.4049 -2.0246
  205DG     H16 4708   5.262   2.553   3.167 -1.4943  0.7724 -0.3691
  205DG     C17 4709   5.299   2.417   2.739  0.1414  0.0049 -0.1447
  205DG     C18 4710   5.301   2.519   2.966 -0.3285 -0.2913 -0.1856
  205DG     O19 4711   5.264   2.414   2.874 -0.1007 -0.1775  0.2049
  205DG     H20 4712   5.294   2.519   2.701 -0.7676  0.1230  0.2711
  205DG     H21 4713   5.403   2.388   2.722  0.9521  2.7380 -0.2644
  205DG     H22 4714   5.254   2.612   2.932 -0.1151 -0.3937 -0.7678
  205DG     H23 4715   5.410   2.524   2.974 -0.3757 -1.1614  1.6116
  206DG      C1 4716   3.739   2.512   3.392  0.7161 -0.5399 -0.1864
  206DG      C2 4717   3.650   2.484   4.023 -0.1820 -0.1846  0.6367
  206DG      H3 4718   3.717   2.470   3.294  1.6585  0.0123 -0.6550
  206DG      H4 4719   3.778   2.613   3.382  0.1570 -0.5111 -2.5337
  206DG      H5 4720   3.654   2.519   3.460  0.1283 -0.4497 -0.9263
  206DG      H6 4721   3.686   2.584   4.048  0.3751 -0.2656  0.1827
  206DG      H7 4722   3.556   2.492   4.076 -1.0440  0.7112 -0.9508
  206DG      H8 4723   3.730   2.436   4.080  0.4352  1.2992  1.0782
  206DG      O9 4724   3.831   2.429   3.468 -0.0180  0.2219 -0.0439
  206DG     O10 4725   3.637   2.458   3.891  0.5861  0.2493 -0.1444
  206DG     C11 4726   3.809   2.293   3.464 -0.2118 -0.0859 -0.0406
  206DG     C12 4727   3.560   2.341   3.869  0.4507 -0.2433 -0.7273
  206DG     H13 4728   3.885   2.239   3.520  0.7255  1.3898  0.1586
  206DG     H14 4729   3.808   2.262   3.360  1.0810 -0.2727 -0.0162
  206DG     H15 4730   3.459   2.348   3.908 -0.1856  1.4124 -2.5106
  206DG     H16 4731   3.607   2.252   3.911  0.5512 -0.4700 -1.3120
  206DG     C17 4732   3.674   2.258   3.525  0.7643 -0.3093  0.0454
  206DG     C18 4733   3.552   2.319   3.719 -0.6318 -0.0978 -0.0201
  206DG     O19 4734   3.679   2.290   3.666  0.9837  0.1333  0.3519
  206DG     H20 4735   3.650   2.152   3.520  0.9769 -0.3962  0.7396
  206DG     H21 4736   3.589   2.308   3.479 -0.9447 -2.6950  0.4219
  206DG     H22 4737   3.483   2.236   3.702 -1.1174  0.1373  0.6989
  206DG     H23 4738   3.511   2.405   3.666  1.5568  0.2954 -1.1702
  207DG      C1 4739   2.047   5.026   1.907  0.8779 -0.4701  0.3053
  207DG      C2 4740   1.970   5.353   2.573 -0.2347 -0.0731  0.3758
  207DG      H3 4741   2.150   5.026   1.942  0.8672 -0.3685  0.3372
  207DG      H4 4742   2.030   5.111   1.841 -1.5251 -0.1913  1.1618
  207DG      H5 4743   2.029   4.929   1.861  2.0572  0.0024 -1.2439
  207DG      H6 4744   2.071   5.315   2.588 -0.6422 -2.2312 -1.6194
  207DG      H7 4745   1.971   5.457   2.543 -1.0046 -0.1144  0.1728
  207DG      H8 4746   1.913   5.357   2.665 -0.4748  0.6052  0.2015
  207DG      O9 4747   1.964   5.048   2.021 -0.1001  0.1164 -0.3131
  207DG     O10 4748   1.912   5.260   2.476 -0.1149  0.4772 -0.4215
  207DG     C11 4749   1.832   5.085   1.996  0.5619 -0.1081  0.6805
  207DG     C12 4750   1.788   5.300   2.430 -0.5290 -0.3381 -0.5257
  207DG     H13 4751   1.785   5.023   1.921  0.6889  1.2191 -0.5489
  207DG     H14 4752   1.830   5.183   1.947 -2.5752 -1.8556 -3.2294
  207DG     H15 4753   1.788   5.394   2.376 -0.5305 -0.0507 -0.0276
  207DG     H16 4754   1.719   5.322   2.512  1.1184  2.4989  0.2404
  207DG     C17 4755   1.749   5.090   2.128 -0.0380  0.6332  0.2543
  207DG     C18 4756   1.725   5.185   2.346 -0.5153  0.5329  0.0109
  207DG     O19 4757   1.807   5.169   2.231 -0.2662  0.4139 -0.2497
  207DG     H20 4758   1.727   4.991   2.166 -0.2301  1.2751  1.8668
  207DG     H21 4759   1.650   5.121   2.093 -1.4624 -1.8949  1.7388
  207DG     H22 4760   1.712   5.092   2.402 -0.8882 -0.6664 -1.9795
  207DG     H23 4761   1.625   5.215   2.315 -0.8943 -0.6839 -0.0101
  208DG      C1 4762   3.036   2.827   4.452 -0.0712  0.0553 -0.1194
  208DG      C2 4763   3.258   3.071   5.108 -0.1555  0.3870 -0.1814
  208DG      H3 4764   3.061   2.933   4.455  0.3038 -0.0443  0.8619
  208DG      H4 4765   2.941   2.809   4.402 -0.0796  0.6328 -0.3196
  208DG      H5 4766   3.115   2.783   4.391  1.0686 -0.1982  1.4650
  208DG      H6 4767   3.295   3.043   5.207  1.4411  2.8219 -0.0134
  208DG      H7 4768   3.345   3.057   5.044 -0.4267  1.3110 -0.7712
  208DG      H8 4769   3.223   3.173   5.117  0.6527  0.5871  0.9702
  208DG      O9 4770   3.018   2.766   4.577  0.0779  0.1246 -1.3425
  208DG     O10 4771   3.144   2.995   5.058 -0.2239 -0.3759 -0.1540
  208DG     C11 4772   2.930   2.830   4.665 -0.0676  0.1144 -0.6983
  208DG     C12 4773   3.171   2.851   5.053 -0.4921 -0.2484  0.6261
  208DG     H13 4774   2.834   2.813   4.615 -0.2462 -0.5559 -0.1587
  208DG     H14 4775   2.946   2.937   4.669  2.1595 -0.1963  0.0871
  208DG     H15 4776   3.192   2.811   5.152 -1.2647  0.2172  0.9848
  208DG     H16 4777   3.257   2.822   4.992  0.7139 -0.1445  2.2233
  208DG     C17 4778   2.923   2.774   4.806  0.5119  0.4884 -0.1848
  208DG     C18 4779   3.047   2.782   5.006  0.8269 -0.2646 -0.0266
  208DG     O19 4780   3.040   2.818   4.873 -0.0558  0.2738 -0.0234
  208DG     H20 4781   2.893   2.669   4.807  0.8531  0.3918  0.5280
  208DG     H21 4782   2.837   2.823   4.852  1.2413  1.6127  0.0120
  208DG     H22 4783   3.064   2.674   5.010 -0.3505 -0.4407  0.7369
  208DG     H23 4784   2.958   2.803   5.065  1.4195  1.2281  0.3901
  209DG      C1 4785   2.728   0.828   2.807  0.2398  0.1454 -0.6683
  209DG      C2 4786   2.114   0.643   3.074  0.4267  0.5484 -0.1216
  209DG      H3 4787   2.656   0.898   2.766 -1.0898  0.1261  1.5194
  209DG      H4 4788   2.725   0.732   2.754 -0.7812  1.0380 -2.3029
  209DG      H5 4789   2.827   0.868   2.786  0.5190  0.1511  0.5992
  209DG      H6 4790   2.058   0.702   3.002 -0.5574  0.3367  0.4431
  209DG      H7 4791   2.156   0.557   3.022  0.8829  1.5908 -1.5322
  209DG      H8 4792   2.039   0.605   3.144 -0.3963  0.6082 -0.9572
  209DG      O9 4793   2.701   0.787   2.944  0.1427  0.0828 -0.2006
  209DG     O10 4794   2.221   0.712   3.143 -0.0658  0.2198 -0.3421
  209DG     C11 4795   2.697   0.897   3.033 -0.1991 -0.2384  0.1066
  209DG     C12 4796   2.288   0.802   3.056 -0.1012  0.4406 -0.7845
  209DG     H13 4797   2.650   0.985   2.990  1.8948  0.6923 -0.4419
  209DG     H14 4798   2.802   0.926   3.041 -0.0381 -0.0347 -2.1133
  209DG     H15 4799   2.226   0.887   3.027  0.2256  1.3073  0.9292
  209DG     H16 4800   2.319   0.742   2.970  1.9834 -2.0157  1.5175
  209DG     C17 4801   2.634   0.862   3.169 -0.6154  0.4288  0.1390
  209DG     C18 4802   2.403   0.888   3.103 -0.2422  0.1597 -0.4652
  209DG     O19 4803   2.507   0.803   3.145  0.1515 -0.3108 -0.3845
  209DG     H20 4804   2.629   0.959   3.220 -0.8203  0.9609 -0.8653
  209DG     H21 4805   2.698   0.795   3.227  0.3863  0.8404 -0.4635
  209DG     H22 4806   2.435   0.956   3.024  0.3274  1.4472  0.8142
  209DG     H23 4807   2.361   0.950   3.183  1.8942  0.6500  0.3505
  210DG      C1 4808   4.877   0.938   3.345 -0.0918 -0.1964  0.2244
  210DG      C2 4809   5.098   1.228   3.922  0.7628  0.6718 -0.2255
  210DG      H3 4810   4.815   1.026   3.326  1.3725  0.7802 -0.1554
  210DG      H4 4811   4.814   0.875   3.409  1.3284  0.4895  2.4085
  210DG      H5 4812   4.901   0.878   3.257  2.0859  2.1606 -0.9412
  210DG      H6 4813   5.005   1.181   3.954  1.2290 -0.7136 -0.8433
  210DG      H7 4814   5.166   1.221   4.007  0.9194 -0.4349 -0.4355
  210DG      H8 4815   5.081   1.331   3.891  1.3175  0.5015 -1.1213
  210DG      O9 4816   4.997   0.980   3.416  0.2157  0.3171  0.1053
  210DG     O10 4817   5.157   1.159   3.814 -0.1235  0.2103 -0.0036
  210DG     C11 4818   5.094   1.038   3.332 -0.0439  0.3634 -0.1700
  210DG     C12 4819   5.237   1.243   3.735  0.2382  0.0718  0.2159
  210DG     H13 4820   5.048   1.124   3.283  2.0586  1.4464 -0.3254
  210DG     H14 4821   5.114   0.966   3.253  0.1714  1.1613 -0.8630
  210DG     H15 4822   5.315   1.277   3.803 -0.8993  1.3468  0.9335
  210DG     H16 4823   5.189   1.334   3.697 -2.9992 -1.7076 -0.2612
  210DG     C17 4824   5.225   1.073   3.408  0.1681  0.2626  0.1629
  210DG     C18 4825   5.296   1.163   3.619  0.7393  0.3519  1.2504
  210DG     O19 4826   5.192   1.151   3.525  0.9026  0.0326  0.3334
  210DG     H20 4827   5.307   1.117   3.350  0.5509  0.8153  1.1075
  210DG     H21 4828   5.273   0.980   3.435  1.3144  1.2279  1.6078
  210DG     H22 4829   5.387   1.212   3.586 -0.6416  1.4590 -1.1618
  210DG     H23 4830   5.309   1.058   3.647 -0.6393  0.2362  1.5532
  211DG      C1 4831   1.375   5.050   2.374  0.4555 -0.4359  0.0538
  211DG      C2 4832   1.167   4.948   3.128 -0.5107  0.0865 -0.6630
  211DG      H3 4833   1.418   4.970   2.313  0.2873 -1.7647  1.6056
  211DG      H4 4834   1.441   5.135   2.361 -1.1179  0.7920 -0.2200
  211DG      H5 4835   1.278   5.088   2.341  0.9179 -1.5061 -2.8831
  211DG      H6 4836   1.209   4.871   3.192  1.2185 -0.0275 -1.8619
  211DG      H7 4837   1.131   5.037   3.180 -1.4428 -0.7951  0.2531
  211DG      H8 4838   1.078   4.899   3.089 -1.3779  2.1596 -1.4254
  211DG      O9 4839   1.373   5.006   2.515 -0.0107  1.1148  0.5050
  211DG     O10 4840   1.257   4.982   3.023  0.0393 -0.3778 -0.2406
  211DG     C11 4841   1.278   4.893   2.532 -0.1536  0.0445 -0.0830
  211DG     C12 4842   1.213   5.090   2.942  0.6046  0.3708  0.1441
  211DG     H13 4843   1.308   4.807   2.473  0.0244 -0.8181  1.2177
  211DG     H14 4844   1.178   4.919   2.497  0.5548 -0.5998 -2.7937
  211DG     H15 4845   1.233   5.188   2.986  0.1519  1.7401 -2.5198
  211DG     H16 4846   1.105   5.081   2.933  0.6786  0.5320 -1.1016
  211DG     C17 4847   1.269   4.858   2.679 -0.5056  0.3900 -0.4747
  211DG     C18 4848   1.267   5.068   2.796  0.5410  0.0361  0.1129
  211DG     O19 4849   1.197   4.955   2.750 -0.5015 -0.0074  0.4191
  211DG     H20 4850   1.372   4.838   2.710 -0.3075  4.2394  2.1058
  211DG     H21 4851   1.205   4.771   2.687 -1.1562  1.0513  2.9514
  211DG     H22 4852   1.248   5.144   2.720 -1.9062 -1.5399 -1.0114
  211DG     H23 4853   1.374   5.053   2.803  0.4825 -0.0360  0.9467
  212DG      C1 4854   0.351   3.254   5.164  0.1744  0.4658 -0.0389
  212DG      C2 4855   0.078   3.304   5.808  0.5959  0.3425 -0.4930
  212DG      H3 4856   0.299   3.158   5.168  2.9254 -1.2122 -1.2916
  212DG      H4 4857   0.442   3.248   5.104  1.2210 -0.0628  1.5214
  212DG      H5 4858   0.285   3.330   5.123  0.8751  2.1261  1.7725
  212DG      H6 4859   0.083   3.243   5.899  0.1828  0.8592 -0.1104
  212DG      H7 4860   0.164   3.371   5.804  1.6374 -1.0305 -2.4832
  212DG      H8 4861  -0.015   3.356   5.830  0.2258 -0.4176 -0.1915
  212DG      O9 4862   0.383   3.281   5.299 -0.3072  0.0510 -0.7108
  212DG     O10 4863   0.080   3.233   5.685 -0.3053 -0.2568  0.1947
  212DG     C11 4864   0.466   3.175   5.349 -0.3242  0.3144 -0.3275
  212DG     C12 4865   0.194   3.143   5.664 -0.0880  0.0795  0.3445
  212DG     H13 4866   0.561   3.187   5.297 -0.4272 -2.2889 -1.2852
  212DG     H14 4867   0.432   3.073   5.329  0.4368  0.1178 -0.6289
  212DG     H15 4868   0.150   3.053   5.619 -0.6018  0.8044 -0.6465
  212DG     H16 4869   0.240   3.108   5.757 -1.0157 -3.8884 -0.4706
  212DG     C17 4870   0.504   3.191   5.497 -0.3273 -0.0734  0.0652
  212DG     C18 4871   0.292   3.223   5.580  0.2680 -0.4928  0.1361
  212DG     O19 4872   0.407   3.137   5.570 -0.1922  0.1317 -0.1851
  212DG     H20 4873   0.536   3.291   5.526 -0.4814 -0.3396  1.1929
  212DG     H21 4874   0.591   3.125   5.492  0.3684  0.8478 -0.2066
  212DG     H22 4875   0.254   3.242   5.479  0.7673  1.1484  0.2135
  212DG     H23 4876   0.316   3.319   5.626 -2.0998  0.8006 -1.1515
  213DG      C1 4877   4.446   4.029   0.927  0.7477 -0.2846  0.2253
  213DG      C2 4878   5.085   3.987   0.634 -0.8802 -0.1180  0.3092
  213DG      H3 4879   4.391   4.050   0.835  1.9184  1.2866 -0.1550
  213DG      H4 4880   4.483   4.116   0.980  0.7060 -0.3048  0.2872
  213DG      H5 4881   4.371   3.988   0.995 -0.4097 -0.3654 -1.0515
  213DG      H6 4882   5.168   3.917   0.623  0.8022  1.9117 -0.6032
  213DG      H7 4883   5.079   4.060   0.553  0.5682 -0.5514 -0.2294
  213DG      H8 4884   5.094   4.028   0.734 -0.6911 -2.0539  1.1378
  213DG      O9 4885   4.554   3.952   0.882 -0.1612 -0.5106  0.4006
  213DG     O10 4886   4.966   3.915   0.617 -0.0958  0.1743  0.0579
  213DG     C11 4887   4.512   3.820   0.821 -0.1498  0.9223 -0.0611
  213DG     C12 4888   4.969   3.789   0.676  0.7844  0.6300 -0.3126
  213DG     H13 4889   4.475   3.835   0.720  1.5592  0.4094 -0.7955
  213DG     H14 4890   4.437   3.768   0.880 -0.4508  0.1435 -1.1004
  213DG     H15 4891   5.022   3.779   0.770  1.1403  0.6079 -0.5142
  213DG     H16 4892   5.027   3.730   0.606 -2.5973  0.2194 -3.0761
  213DG     C17 4893   4.634   3.724   0.811 -0.4872  0.2281 -0.1379
  213DG     C18 4894   4.834   3.716   0.680 -0.6091 -0.3741 -0.7229
  213DG     O19 4895   4.739   3.799   0.748 -0.0543 -0.3586  0.4557
  213DG     H20 4896   4.601   3.637   0.755  0.2768  0.0832 -0.3800
  213DG     H21 4897   4.682   3.689   0.903 -0.5401 -0.7280 -0.4680
  213DG     H22 4898   4.793   3.694   0.581 -1.2163  0.2234 -0.6134
  213DG     H23 4899   4.846   3.615   0.719 -0.8574 -0.6564 -1.3627
  214DG      C1 4900   3.086   3.550   3.742 -0.3470 -0.0832 -0.3510
  214DG      C2 4901   2.611   4.148   3.211 -0.2192  0.2533  0.4253
  214DG      H3 4902   3.158   3.506   3.672  0.2308 -1.0806  0.8200
  214DG      H4 4903   3.092   3.496   3.837  0.6947  0.2608 -0.2104
  214DG      H5 4904   3.133   3.646   3.762 -1.4885  0.3262  0.4241
  214DG      H6 4905   2.692   4.153   3.138 -0.7070  0.2725 -0.1240
  214DG      H7 4906   2.516   4.168   3.162 -0.5840 -1.0335  0.5656
  214DG      H8 4907   2.621   4.210   3.301 -1.8853 -1.2595  1.7368
  214DG      O9 4908   2.958   3.567   3.694 -0.1193 -0.1260  0.4024
  214DG     O10 4909   2.615   4.020   3.260  0.2461 -0.2839 -0.0741
  214DG     C11 4910   2.963   3.661   3.584 -0.1075 -0.3885 -0.5009
  214DG     C12 4911   2.747   3.974   3.291 -0.0688  0.2193  0.4358
  214DG     H13 4912   3.015   3.623   3.496 -0.6521 -1.8421 -0.2301
  214DG     H14 4913   3.018   3.751   3.609  1.6429 -1.1780 -1.3461
  214DG     H15 4914   2.794   4.049   3.355  0.2401 -0.4700  1.0379
  214DG     H16 4915   2.806   3.956   3.201  0.0379  0.6141  0.4286
  214DG     C17 4916   2.818   3.703   3.537 -0.0178  0.2363 -0.0268
  214DG     C18 4917   2.712   3.850   3.375  0.0832 -0.6618 -0.4328
  214DG     O19 4918   2.834   3.813   3.447 -0.0539  0.3708 -0.2058
  214DG     H20 4919   2.754   3.734   3.619 -0.4551 -1.4027  0.2923
  214DG     H21 4920   2.776   3.613   3.491  1.8366 -0.1458 -1.0722
  214DG     H22 4921   2.633   3.884   3.441 -0.2288  0.1889 -1.2296
  214DG     H23 4922   2.674   3.782   3.299 -1.4609  0.2227 -0.4782
  215DG      C1 4923   0.932   0.376   2.883  0.1592  0.2131  0.1873
  215DG      C2 4924   1.271   0.883   3.116 -0.1843  0.1986  0.4346
  215DG      H3 4925   0.902   0.356   2.987  1.3862  1.5549  0.8319
  215DG      H4 4926   0.928   0.273   2.848 -0.0288  0.5834 -0.8995
  215DG      H5 4927   0.853   0.427   2.829  0.4527  0.8976  0.4020
  215DG      H6 4928   1.173   0.882   3.163  0.1324 -1.1724  1.1388
  215DG      H7 4929   1.356   0.856   3.179  0.5995  0.9289 -0.2936
  215DG      H8 4930   1.277   0.986   3.081 -2.0433 -0.5420 -2.3194
  215DG      O9 4931   1.054   0.437   2.852  0.0675 -0.1517  0.1622
  215DG     O10 4932   1.278   0.788   3.007  0.5427 -0.1111 -0.3680
  215DG     C11 4933   1.082   0.456   2.711  0.1012 -0.3038 -0.4772
  215DG     C12 4934   1.260   0.852   2.880  0.6227 -0.7863  0.7797
  215DG     H13 4935   1.003   0.511   2.659 -2.3864 -1.2711  2.0177
  215DG     H14 4936   1.093   0.366   2.650 -0.5562  0.3459 -1.5954
  215DG     H15 4937   1.335   0.926   2.855 -0.8230  1.0010  1.4607
  215DG     H16 4938   1.160   0.896   2.886  1.2956  0.6567  1.8593
  215DG     C17 4939   1.223   0.536   2.707 -0.1596  0.0106 -0.2392
  215DG     C18 4940   1.285   0.747   2.775  0.8533 -0.9306  0.0583
  215DG     O19 4941   1.210   0.639   2.804  0.3772  0.4450  0.1046
  215DG     H20 4942   1.241   0.571   2.605  0.2060  0.1657 -0.1248
  215DG     H21 4943   1.307   0.472   2.733  0.4246  1.2415  1.0540
  215DG     H22 4944   1.269   0.790   2.676  1.6680  1.1036  0.7433
  215DG     H23 4945   1.389   0.714   2.786  0.1686 -2.7245  1.7725
  216DG      C1 4946   5.244   0.296   4.928  0.1602 -1.6241 -0.1502
  216DG      C2 4947   4.759  -0.033   5.305 -0.2699 -0.4852  0.1248
  216DG      H3 4948   5.238   0.393   4.879 -0.1817 -1.2346  0.6532
  216DG      H4 4949   5.182   0.232   4.866 -0.8762 -1.0037  0.2341
  216DG      H5 4950   5.351   0.272   4.929  0.9127  1.4018 -0.1544
  216DG      H6 4951   4.695  -0.043   5.217 -0.9816 -0.5009  0.6323
  216DG      H7 4952   4.822  -0.122   5.308 -1.0525 -1.1010 -1.0795
  216DG      H8 4953   4.690  -0.035   5.390 -0.4015 -0.1576  0.0286
  216DG      O9 4954   5.190   0.323   5.055  0.1828  0.3397  0.7663
  216DG     O10 4955   4.828   0.090   5.320 -0.3102  0.0232  0.3732
  216DG     C11 4956   5.287   0.311   5.160  0.4286 -0.1198  0.1102
  216DG     C12 4957   4.928   0.095   5.426  0.1656 -0.7663  0.7363
  216DG     H13 4958   5.357   0.394   5.153  1.6589 -1.0374  1.0258
  216DG     H14 4959   5.345   0.219   5.153  1.1811  0.2831  0.9754
  216DG     H15 4960   4.975  -0.003   5.431  1.6578 -0.0187  2.7656
  216DG     H16 4961   4.883   0.112   5.524 -0.7454 -0.3667  0.2615
  216DG     C17 4962   5.198   0.317   5.287  0.0676 -0.1604 -0.2206
  216DG     C18 4963   5.029   0.208   5.414  0.6304  0.2550 -0.3578
  216DG     O19 4964   5.107   0.207   5.296 -0.1835  0.2691  0.4460
  216DG     H20 4965   5.136   0.407   5.285 -1.8966 -1.4452  0.2090
  216DG     H21 4966   5.255   0.329   5.379 -1.6226  0.6589  0.7813
  216DG     H22 4967   4.974   0.302   5.427  0.9114  0.3492  0.1825
  216DG     H23 4968   5.091   0.200   5.503 -2.9163  1.5881  2.5074
  217DG      C1 4969   3.566   5.236   5.384  0.5668  0.5937 -0.1598
  217DG      C2 4970   3.120   4.775   5.386  0.6253 -0.2555  0.1656
  217DG      H3 4971   3.640   5.158   5.364  1.4960  1.3269  0.3644
  217DG      H4 4972   3.631   5.306   5.435  0.0199 -0.3218  1.8953
  217DG      H5 4973   3.534   5.275   5.288  0.1869  0.4446 -0.0948
  217DG      H6 4974   3.098   4.703   5.465  1.8621  0.0044  0.7761
  217DG      H7 4975   3.033   4.781   5.321  1.0353 -1.9989 -0.6056
  217DG      H8 4976   3.190   4.733   5.314  0.1785  1.0105 -1.0526
  217DG      O9 4977   3.462   5.194   5.473 -0.1208  0.0272  0.3334
  217DG     O10 4978   3.147   4.904   5.430  0.6482 -0.5033 -0.4358
  217DG     C11 4979   3.377   5.291   5.519 -0.3058 -0.9661  0.1082
  217DG     C12 4980   3.045   4.955   5.520 -0.8991 -0.1500  0.0916
  217DG     H13 4981   3.329   5.338   5.433 -1.6318 -2.7378 -0.1792
  217DG     H14 4982   3.436   5.371   5.566 -3.3041  1.2093  0.4985
  217DG     H15 4983   3.004   4.873   5.578  1.2846 -2.4192 -1.3580
  217DG     H16 4984   2.976   5.011   5.457  0.0779 -0.4143 -1.2705
  217DG     C17 4985   3.264   5.240   5.612  0.3964  0.0370 -0.3193
  217DG     C18 4986   3.104   5.056   5.619  0.1256 -0.1529  0.4838
  217DG     O19 4987   3.194   5.138   5.538 -0.1666 -0.1041  0.0522
  217DG     H20 4988   3.200   5.325   5.635 -0.3236 -0.5457 -0.1443
  217DG     H21 4989   3.314   5.197   5.700 -0.0254 -1.3165 -0.7205
  217DG     H22 4990   3.023   5.114   5.663 -3.0025 -2.9351 -1.1897
  217DG     H23 4991   3.170   5.009   5.692  3.2313  0.8688 -1.4642
  218DG      C1 4992   5.031   2.093   0.243  0.0418 -0.0109  0.0744
  218DG      C2 4993   4.480   1.425   0.233  0.0490  0.2134 -0.4661
  218DG      H3 4994   5.127   2.080   0.293 -0.2499  1.0481  0.9473
  218DG      H4 4995   5.004   2.198   0.257  3.3620  1.0430 -0.6634
  218DG      H5 4996   5.055   2.071   0.139 -0.4408 -0.8058  0.1276
  218DG      H6 4997   4.560   1.351   0.232 -2.6104 -2.9788  0.6309
  218DG      H7 4998   4.424   1.421   0.327  0.0206  1.5101 -0.4080
  218DG      H8 4999   4.394   1.399   0.171  0.1857  0.1153 -0.6164
  218DG      O9 5000   4.943   2.000   0.300  0.1087 -0.3711 -0.2226
  218DG     O10 5001   4.540   1.553   0.209 -0.5547  0.5602 -0.0691
  218DG     C11 5002   4.969   1.865   0.253  0.5597 -0.5698 -0.6173
  218DG     C12 5003   4.621   1.601   0.315  1.0462  0.0232  0.3356
  218DG     H13 5004   5.074   1.867   0.225  0.4171 -0.3578 -1.1593
  218DG     H14 5005   4.902   1.860   0.167  0.5785 -1.6025 -0.5818
  218DG     H15 5006   4.666   1.521   0.374  0.6467 -2.7069 -2.7950
  218DG     H16 5007   4.553   1.657   0.379 -2.2691 -1.7915 -1.3025
  218DG     C17 5008   4.938   1.755   0.356  0.4811  0.5824  0.3934
  218DG     C18 5009   4.734   1.696   0.270 -0.0344 -0.4342  0.5740
  218DG     O19 5010   4.802   1.727   0.383 -0.2909 -0.1259  0.1464
  218DG     H20 5011   4.987   1.789   0.447 -2.0754  0.1360  2.0359
  218DG     H21 5012   4.989   1.665   0.323  0.2018 -0.3544  2.3476
  218DG     H22 5013   4.788   1.627   0.205  0.2323 -1.8074  2.1805
  218DG     H23 5014   4.685   1.778   0.216  0.3608 -0.7926 -0.3606
  219DG      C1 5015   0.994   0.906   2.595 -0.0319 -0.3890  0.9661
  219DG      C2 5016   1.184   1.173   3.287 -0.4162  0.2649  0.3863
  219DG      H3 5017   0.912   0.881   2.528  0.0376  0.0215  0.7218
  219DG      H4 5018   1.047   0.817   2.628  2.5943  1.1946  1.2894
  219DG      H5 5019   1.062   0.960   2.529 -1.2558 -0.5955 -0.5136
  219DG      H6 5020   1.271   1.198   3.227  0.0939 -0.1717  0.9332
  219DG      H7 5021   1.154   1.264   3.340  0.0026 -0.0577  1.2085
  219DG      H8 5022   1.217   1.099   3.360  3.1916 -1.7538 -2.9333
  219DG      O9 5023   0.942   0.987   2.703 -0.8764  0.2971 -0.0843
  219DG     O10 5024   1.077   1.131   3.199 -0.1686  0.4766 -0.0028
  219DG     C11 5025   0.869   0.915   2.803  0.2749 -0.1873  0.0856
  219DG     C12 5026   1.037   1.236   3.111 -0.0865 -0.3667 -0.3417
  219DG     H13 5027   0.932   0.835   2.841  0.1161 -0.9426 -1.1637
  219DG     H14 5028   0.782   0.863   2.762 -0.2188 -0.6438  1.6645
  219DG     H15 5029   1.114   1.261   3.037 -0.1056  0.1447 -0.1939
  219DG     H16 5030   1.004   1.321   3.169 -0.1654 -0.8211  0.2855
  219DG     C17 5031   0.822   1.017   2.908  0.1623 -0.1116 -0.2151
  219DG     C18 5032   0.907   1.203   3.034  0.2131 -0.1010  0.2430
  219DG     O19 5033   0.936   1.093   2.950 -0.1866  0.6251  0.4049
  219DG     H20 5034   0.771   0.965   2.989  0.2214  1.6640  0.9993
  219DG     H21 5035   0.750   1.088   2.866 -0.4460 -1.0018 -0.7197
  219DG     H22 5036   0.819   1.193   3.097 -0.8211  1.4478 -0.8753
  219DG     H23 5037   0.873   1.288   2.976 -0.3227 -0.6050 -0.2010
  220DG      C1 5038   0.679   4.020   1.191  0.0622  0.0194 -0.0777
  220DG      C2 5039   0.949   4.029   1.834  0.4303  0.2234 -0.3547
  220DG      H3 5040   0.625   4.053   1.280 -0.2911 -0.6213 -0.0466
  220DG      H4 5041   0.638   3.920   1.173 -0.9332  0.2699  0.7086
  220DG      H5 5042   0.652   4.073   1.100 -1.3568  0.1168  0.3727
  220DG      H6 5043   0.918   4.112   1.898  0.2030 -1.3965  1.7074
  220DG      H7 5044   0.877   3.952   1.858  1.0317  0.0226  0.8642
  220DG      H8 5045   1.047   3.997   1.870  0.6067  0.4540 -0.6227
  220DG      O9 5046   0.819   4.019   1.209  0.5679 -0.2437 -0.1847
  220DG     O10 5047   0.946   4.049   1.692  0.0315  0.4676  0.4131
  220DG     C11 5048   0.884   4.141   1.231 -0.0911  0.3117  0.3030
  220DG     C12 5049   1.002   3.947   1.612 -0.0155  0.0835  0.0024
  220DG     H13 5050   0.834   4.189   1.315  0.1922  2.5237 -0.6982
  220DG     H14 5051   0.871   4.194   1.136  0.9958 -0.7480 -0.4798
  220DG     H15 5052   0.955   3.856   1.648 -1.7873  1.0851  0.3493
  220DG     H16 5053   1.110   3.937   1.621  0.1600  0.5710 -1.2855
  220DG     C17 5054   1.025   4.110   1.287 -0.8568 -0.3705  0.3439
  220DG     C18 5055   0.956   3.973   1.465 -0.3851 -0.2029 -1.0237
  220DG     O19 5056   1.017   4.093   1.431 -0.0414 -0.1307  0.6860
  220DG     H20 5057   1.094   4.194   1.279  0.0289 -0.9987  1.2007
  220DG     H21 5058   1.073   4.029   1.232  0.7984 -0.0034  1.1934
  220DG     H22 5059   0.999   3.888   1.413  0.2705 -0.3898 -0.2029
  220DG     H23 5060   0.849   3.978   1.450 -0.6952  0.4036  0.9878
  221DG      C1 5061   5.434   0.344   3.113 -0.5063  0.2371  0.1139
  221DG      C2 5062   6.118   0.413   3.488  1.0575 -0.2497 -0.4393
  221DG      H3 5063   5.410   0.351   3.219  0.5969  1.1334  0.3204
  221DG      H4 5064   5.381   0.258   3.071 -1.0782  0.9490 -0.6649
  221DG      H5 5065   5.394   0.428   3.055 -1.9097 -1.2833 -1.2272
  221DG      H6 5066   6.165   0.323   3.528  2.1715 -0.1259 -1.3882
  221DG      H7 5067   6.191   0.491   3.467  0.2690  0.3952 -0.8479
  221DG      H8 5068   6.037   0.456   3.547  0.6826  0.0592 -1.1540
  221DG      O9 5069   5.571   0.336   3.080  0.1148 -0.4829 -0.2232
  221DG     O10 5070   6.065   0.391   3.353 -0.2478 -0.3538  0.3738
  221DG     C11 5071   5.639   0.461   3.093  0.1970  0.2934 -0.0140
  221DG     C12 5072   5.971   0.292   3.357  0.1711 -0.1074 -0.6866
  221DG     H13 5073   5.609   0.495   3.192 -0.7044  1.0314 -0.5210
  221DG     H14 5074   5.601   0.534   3.021  0.1478  0.0293 -0.2565
  221DG     H15 5075   5.904   0.294   3.443  1.2897 -0.7155  0.2279
  221DG     H16 5076   6.015   0.194   3.373 -1.4855 -0.7798 -0.0629
  221DG     C17 5077   5.791   0.445   3.076  0.0300  0.6306  0.9977
  221DG     C18 5078   5.908   0.288   3.220 -0.7395  0.0184 -0.5600
  221DG     O19 5079   5.828   0.409   3.204 -0.3809  0.2882  0.6699
  221DG     H20 5080   5.838   0.540   3.052 -1.9395  1.7975  1.4523
  221DG     H21 5081   5.822   0.382   2.993  1.3269  3.0571 -0.4615
  221DG     H22 5082   5.989   0.288   3.147  0.3552 -0.0133  0.6049
  221DG     H23 5083   5.845   0.201   3.204  0.7743 -0.9913 -1.1982
  222DG      C1 5084   5.116   2.843   2.800  0.8804  0.2350  0.1356
  222DG      C2 5085   5.642   3.338   2.962 -0.7557 -0.1724 -0.4286
  222DG      H3 5086   5.061   2.861   2.707  1.7995 -2.5061 -1.0591
  222DG      H4 5087   5.059   2.765   2.852  0.9383  1.1969  1.7017
  222DG      H5 5088   5.213   2.799   2.776  1.6910  2.1727 -0.3320
  222DG      H6 5089   5.744   3.339   3.000 -0.6545 -2.4367 -0.4874
  222DG      H7 5090   5.641   3.325   2.854 -0.2626  3.2362 -0.9550
  222DG      H8 5091   5.605   3.440   2.958  0.7970  0.3790 -1.6073
  222DG      O9 5092   5.142   2.962   2.878 -0.1536  0.1334  0.4657
  222DG     O10 5093   5.561   3.245   3.026  0.2059 -0.6082 -0.1939
  222DG     C11 5094   5.192   2.921   3.002 -0.1883 -0.0068  0.3381
  222DG     C12 5095   5.578   3.110   2.994  0.4948  0.4717  0.0597
  222DG     H13 5096   5.271   2.847   2.986  1.1527  1.0595  1.7038
  222DG     H14 5097   5.109   2.868   3.049  0.0212 -1.7925 -1.1905
  222DG     H15 5098   5.675   3.066   3.019 -0.1588 -0.3162  1.3054
  222DG     H16 5099   5.567   3.094   2.887 -1.4927 -0.2103  0.3314
  222DG     C17 5100   5.228   3.041   3.083  1.1489  0.6949 -0.1013
  222DG     C18 5101   5.464   3.033   3.055  0.4417  0.2165 -0.5948
  222DG     O19 5102   5.342   3.105   3.027  0.3626  0.6578  0.1650
  222DG     H20 5103   5.244   3.010   3.186  1.0491  1.7349  0.2359
  222DG     H21 5104   5.143   3.109   3.085 -0.2633 -1.0110  0.1099
  222DG     H22 5105   5.452   2.932   3.016  0.7196 -0.6710  1.4949
  222DG     H23 5106   5.477   3.021   3.162 -2.4597  2.2166  0.0819
  223DG      C1 5107   3.100   2.529   1.590  0.3015 -0.6723 -0.3492
  223DG      C2 5108   3.339   3.004   2.053  0.5559  0.1618  0.2839
  223DG      H3 5109   3.059   2.499   1.686 -0.0887 -1.1371 -0.6588
  223DG      H4 5110   3.113   2.442   1.526  1.0035 -0.9137  0.0976
  223DG      H5 5111   3.014   2.578   1.546  0.3995  0.3065  0.5167
  223DG      H6 5112   3.297   2.959   1.963  0.8589 -0.5041  0.4661
  223DG      H7 5113   3.276   3.083   2.094 -0.7625 -0.9410  0.4588
  223DG      H8 5114   3.431   3.052   2.020  1.0689  0.1308  1.6264
  223DG      O9 5115   3.210   2.621   1.585 -0.1427  0.2112 -0.2317
  223DG     O10 5116   3.363   2.917   2.153 -0.4288 -0.4315  0.4407
  223DG     C11 5117   3.214   2.708   1.699 -0.1804  0.3122 -0.3232
  223DG     C12 5118   3.437   2.803   2.107  0.2498 -0.0822 -0.2135
  223DG     H13 5119   3.117   2.755   1.713 -0.4742 -0.1834 -0.6671
  223DG     H14 5120   3.285   2.789   1.680 -0.4271  0.1752 -1.9228
  223DG     H15 5121   3.460   2.764   2.207  4.5192  1.5673 -0.3381
  223DG     H16 5122   3.533   2.826   2.061  2.8543 -0.9349  4.1818
  223DG     C17 5123   3.269   2.635   1.821  0.5854 -0.3046 -0.2571
  223DG     C18 5124   3.342   2.699   2.035  0.6123  0.3839 -0.3368
  223DG     O19 5125   3.312   2.730   1.909  0.1771 -0.7002  0.9482
  223DG     H20 5126   3.355   2.575   1.793  0.4129 -0.7244  0.1023
  223DG     H21 5127   3.190   2.569   1.858  0.3771  0.2635  0.3371
  223DG     H22 5128   3.393   2.603   2.046  1.1044  0.6912  0.1244
  223DG     H23 5129   3.252   2.687   2.094  1.0625  1.4181  0.5895
  224DG      C1 5130   0.856   2.012   1.319  0.6744  0.2670 -0.5557
  224DG      C2 5131   0.990   2.226   0.605 -0.1309  0.1361  0.1482
  224DG      H3 5132   0.776   2.087   1.315 -0.2145 -0.5474  0.8529
  224DG      H4 5133   0.922   2.033   1.403 -0.2091 -0.5699  0.3886
  224DG      H5 5134   0.795   1.923   1.332  1.3928 -0.1187  0.2207
  224DG      H6 5135   0.928   2.308   0.568  0.3770 -0.4404 -2.1310
  224DG      H7 5136   1.073   2.270   0.660  0.8663 -1.5761  0.0626
  224DG      H8 5137   1.025   2.183   0.511  1.9683  2.8990 -0.4681
  224DG      O9 5138   0.930   2.014   1.202 -0.0927 -0.6271 -0.0277
  224DG     O10 5139   0.911   2.127   0.667 -0.2382  0.2991 -0.2723
  224DG     C11 5140   0.983   2.141   1.164  0.5508  0.3847 -0.1531
  224DG     C12 5141   0.968   2.001   0.699  0.3983  0.2486  0.8305
  224DG     H13 5142   1.043   2.181   1.246 -1.3805  0.0109  1.5128
  224DG     H14 5143   0.908   2.215   1.138  0.8069  0.4390 -0.7357
  224DG     H15 5144   1.012   1.950   0.614 -2.0522 -0.4610 -0.1043
  224DG     H16 5145   0.883   1.937   0.722  0.8790 -1.6751 -2.2174
  224DG     C17 5146   1.068   2.120   1.037  0.3420 -0.7245  0.1634
  224DG     C18 5147   1.061   2.012   0.820  0.3515  0.7058 -1.0499
  224DG     O19 5148   0.991   2.078   0.924 -0.3396 -0.0568  0.0076
  224DG     H20 5149   1.151   2.059   1.072  0.4258 -0.6272  0.1383
  224DG     H21 5150   1.120   2.207   0.996 -0.5856 -0.3057 -0.1411
  224DG     H22 5151   1.103   1.917   0.852  2.5097  1.2114 -2.2363
  224DG     H23 5152   1.137   2.079   0.781 -0.9167  0.3273 -4.4790
  225DG      C1 5153   2.511   1.199   4.478 -0.7561 -0.4722 -0.3172
  225DG      C2 5154   2.033   1.658   4.861  0.0240 -1.4272  0.2661
  225DG      H3 5155   2.582   1.274   4.444 -2.8770  1.0806 -1.5839
  225DG      H4 5156   2.527   1.110   4.417  1.2615  1.1836 -2.3700
  225DG      H5 5157   2.541   1.172   4.579  0.5710 -0.9760 -0.8168
  225DG      H6 5158   1.931   1.691   4.840  0.6040  0.1415 -0.2721
  225DG      H7 5159   2.028   1.619   4.962 -1.2405  0.6487  1.0857
  225DG      H8 5160   2.086   1.752   4.876 -0.8948 -0.6658 -1.0298
  225DG      O9 5161   2.380   1.243   4.473  0.4664 -0.0076 -0.1642
  225DG     O10 5162   2.070   1.573   4.759 -0.1168 -0.0732 -0.2870
  225DG     C11 5163   2.285   1.145   4.522  0.1989  0.5868  0.2288
  225DG     C12 5164   1.982   1.458   4.755  0.0432  0.1178 -0.4263
  225DG     H13 5165   2.310   1.118   4.624  0.4115  0.8046  0.2361
  225DG     H14 5166   2.284   1.062   4.451  3.1795  0.5033  0.1553
  225DG     H15 5167   1.877   1.486   4.759  0.2282  1.1422 -2.1151
  225DG     H16 5168   2.000   1.389   4.839 -3.5130 -1.5494 -0.8705
  225DG     C17 5169   2.143   1.208   4.534  0.3634 -0.8537  0.0993
  225DG     C18 5170   2.015   1.379   4.629  0.5795 -0.1168  0.9644
  225DG     O19 5171   2.143   1.316   4.621  0.6210  0.1730 -0.0170
  225DG     H20 5172   2.082   1.128   4.575  0.1729  0.0902  1.7510
  225DG     H21 5173   2.119   1.235   4.431  3.2802 -1.4086 -0.7958
  225DG     H22 5174   1.935   1.306   4.615  2.1630 -1.9132  0.9687
  225DG     H23 5175   2.005   1.447   4.544  1.3554  2.0072  2.4817
  226DG      C1 5176   4.033   2.711   5.230 -0.2372 -0.3799 -0.1673
  226DG      C2 5177   3.615   3.175   5.103  0.3832  0.0744  0.5918
  226DG      H3 5178   4.130   2.662   5.237  0.5975  1.3081  0.6528
  226DG      H4 5179   3.968   2.645   5.288  1.8911 -0.6505  2.0640
  226DG      H5 5180   4.034   2.815   5.260  0.9068 -0.2272 -0.7006
  226DG      H6 5181   3.555   3.134   5.185  0.2667  0.3843  0.6643
  226DG      H7 5182   3.626   3.279   5.137 -0.7985 -0.0833  1.5430
  226DG      H8 5183   3.550   3.164   5.017 -3.2318 -0.3193  3.1347
  226DG      O9 5184   3.987   2.697   5.100 -0.0156  0.0679  0.2565
  226DG     O10 5185   3.731   3.101   5.086  0.8467 -0.3022 -0.1889
  226DG     C11 5186   4.071   2.758   4.997 -0.0464  0.2421  0.1585
  226DG     C12 5187   3.798   3.154   4.976 -0.2465  0.3454  0.2689
  226DG     H13 5188   4.017   2.728   4.907  2.1248 -1.6727 -0.6117
  226DG     H14 5189   4.164   2.703   4.985 -2.2008 -3.6849 -0.1064
  226DG     H15 5190   3.788   3.261   4.960  0.2093  0.6733  1.9426
  226DG     H16 5191   3.754   3.104   4.890  3.0670 -1.7282 -0.3697
  226DG     C17 5192   4.077   2.911   5.005  0.5549 -0.3384  0.3686
  226DG     C18 5193   3.941   3.115   4.972  0.1626 -0.0111 -0.7073
  226DG     O19 5194   3.955   2.972   4.976 -0.0676 -0.4670 -0.3480
  226DG     H20 5195   4.159   2.954   4.948 -0.3938  2.3579  0.8781
  226DG     H21 5196   4.105   2.946   5.104  2.1881 -0.8163  0.1066
  226DG     H22 5197   3.984   3.150   4.878  2.9688  1.5515  0.9870
  226DG     H23 5198   3.993   3.163   5.056  1.5712  0.9661 -2.0765
  227DG      C1 5199   4.522   5.169   2.027 -0.7916  0.6784  0.4551
  227DG      C2 5200   4.686   4.841   2.584  0.2073  1.1989 -0.3310
  227DG      H3 5201   4.463   5.261   2.031  0.8956  1.7962  0.9534
  227DG      H4 5202   4.453   5.085   2.036 -0.8558  0.6313 -0.3779
  227DG      H5 5203   4.589   5.176   1.942  0.3137 -0.0886  1.2449
  227DG      H6 5204   4.661   4.863   2.688 -2.4554  1.3325 -0.9204
  227DG      H7 5205   4.620   4.765   2.543  1.9963  0.2811 -1.6259
  227DG      H8 5206   4.786   4.801   2.569 -1.0455 -1.6107 -1.9604
  227DG      O9 5207   4.600   5.179   2.151  0.3344 -0.2814  0.2887
  227DG     O10 5208   4.673   4.961   2.506  0.1179 -0.3526 -0.3788
  227DG     C11 5209   4.706   5.274   2.143 -0.4470  0.0972  0.8683
  227DG     C12 5210   4.766   5.058   2.562 -0.1091  0.1478  0.4764
  227DG     H13 5211   4.672   5.369   2.101  1.8782  0.9582  0.8157
  227DG     H14 5212   4.786   5.249   2.074  1.0952  0.7145  2.3730
  227DG     H15 5213   4.870   5.028   2.548 -0.9258 -1.5161 -3.3680
  227DG     H16 5214   4.745   5.082   2.666  1.9881 -0.5080  1.0893
  227DG     C17 5215   4.769   5.296   2.277  0.3813 -0.4265 -0.8663
  227DG     C18 5216   4.766   5.192   2.491  0.1817 -0.5117 -0.2394
  227DG     O19 5217   4.748   5.177   2.354 -0.0302 -0.4922  0.1861
  227DG     H20 5218   4.713   5.376   2.325  0.1821 -1.7975  1.3355
  227DG     H21 5219   4.875   5.321   2.268  0.6848 -1.5089 -0.5112
  227DG     H22 5220   4.687   5.253   2.535  0.3895  0.0767 -0.6664
  227DG     H23 5221   4.858   5.241   2.524  0.0027  0.5201 -1.2076
  228DG      C1 5222   1.252   2.407   4.173 -0.1148 -0.0415 -0.9247
  228DG      C2 5223   1.121   2.585   3.411 -0.3948  0.4006  0.6352
  228DG      H3 5224   1.273   2.448   4.272  1.5524  0.4455 -1.4363
  228DG      H4 5225   1.287   2.304   4.179  0.7544  0.2780 -0.1936
  228DG      H5 5226   1.144   2.407   4.161 -0.4557  0.5467  1.4639
  228DG      H6 5227   1.012   2.584   3.413 -0.3852  0.4482  2.2840
  228DG      H7 5228   1.156   2.665   3.346 -1.8487  0.8448  0.3584
  228DG      H8 5229   1.151   2.489   3.369  1.7696  1.2506  0.0922
  228DG      O9 5230   1.329   2.477   4.071  0.5155 -0.2080 -0.1726
  228DG     O10 5231   1.180   2.627   3.532 -0.2307 -0.3131  0.5630
  228DG     C11 5232   1.284   2.609   4.045  0.1188  0.0595 -0.7348
  228DG     C12 5233   1.304   2.554   3.568 -0.2526  0.0046  0.3139
  228DG     H13 5234   1.279   2.675   4.132 -3.3730 -0.8008 -0.1560
  228DG     H14 5235   1.179   2.599   4.017  0.0212 -0.6716 -0.1519
  228DG     H15 5236   1.360   2.570   3.476 -0.7756  3.0849  0.4175
  228DG     H16 5237   1.270   2.452   3.587  1.6321 -0.5679  0.7434
  228DG     C17 5238   1.356   2.656   3.919  0.2165  0.1165  0.2177
  228DG     C18 5239   1.369   2.623   3.683  0.4461  0.2861 -0.1093
  228DG     O19 5240   1.305   2.590   3.806  0.3141 -0.5349  0.0182
  228DG     H20 5241   1.463   2.644   3.937  0.0430 -0.1874  1.0879
  228DG     H21 5242   1.334   2.762   3.908  1.0952  0.3823  0.8984
  228DG     H22 5243   1.472   2.585   3.686  0.9459  1.5459 -0.6246
  228DG     H23 5244   1.374   2.727   3.651 -1.0630  0.3676 -0.1146
  229DG      C1 5245   3.017   0.058   2.696  0.4205 -0.2184 -0.3807
  229DG      C2 5246   3.286   0.671   2.410  0.9186 -0.3110 -0.6836
  229DG      H3 5247   2.922   0.016   2.662 -0.4623  1.4110 -0.0701
  229DG      H4 5248   3.042   0.025   2.796  0.2207 -2.6454 -1.0819
  229DG      H5 5249   3.102   0.016   2.642  0.7559  1.6809 -1.4543
  229DG      H6 5250   3.262   0.764   2.357  2.2775  0.1219 -0.5554
  229DG      H7 5251   3.370   0.705   2.470  0.3535  2.0019 -1.0722
  229DG      H8 5252   3.309   0.616   2.319  0.5205  0.8093 -1.4915
  229DG      O9 5253   3.021   0.198   2.671  0.2272 -0.7141 -0.0309
  229DG     O10 5254   3.191   0.599   2.484  0.1202 -0.4877 -0.2267
  229DG     C11 5255   2.911   0.266   2.724 -0.4881  0.7673 -0.2623
  229DG     C12 5256   3.122   0.676   2.583 -0.1949  0.0393  0.0930
  229DG     H13 5257   2.943   0.265   2.828  0.3570  0.3543 -0.5152
  229DG     H14 5258   2.822   0.202   2.724 -0.1413  0.2716 -1.1764
  229DG     H15 5259   3.117   0.776   2.539  0.0735 -1.0418 -2.5816
  229DG     H16 5260   3.168   0.665   2.681 -1.1649 -1.6293  0.3816
  229DG     C17 5261   2.884   0.407   2.662  1.6777 -0.0041 -0.1240
  229DG     C18 5262   2.988   0.618   2.592  0.0485 -0.1453  0.0335
  229DG     O19 5263   2.998   0.484   2.638 -0.0548  0.4873 -0.6935
  229DG     H20 5264   2.803   0.462   2.708 -0.2027 -0.4587 -2.6520
  229DG     H21 5265   2.837   0.393   2.564 -0.5609 -0.7500  0.9780
  229DG     H22 5266   2.940   0.682   2.666  1.2009  0.8006 -0.0075
  229DG     H23 5267   2.929   0.633   2.501 -1.6141  2.9291  1.4574
  230DG      C1 5268   2.050   3.488   2.245  0.3270  0.3671 -0.3469
  230DG      C2 5269   1.224   3.578   2.471 -0.1354  0.0951 -0.5572
  230DG      H3 5270   2.127   3.425   2.290  1.3747  1.5670 -0.4101
  230DG      H4 5271   2.074   3.594   2.238 -0.4310  0.6302  0.7501
  230DG      H5 5272   2.047   3.450   2.143 -0.9551  0.3449 -0.3119
  230DG      H6 5273   1.168   3.514   2.403  0.0012 -2.8532  1.8505
  230DG      H7 5274   1.159   3.602   2.555 -0.4417 -2.5226  0.0578
  230DG      H8 5275   1.255   3.662   2.410  1.3044 -0.4002 -0.5468
  230DG      O9 5276   1.935   3.471   2.330 -0.6081 -0.7151 -0.1187
  230DG     O10 5277   1.344   3.508   2.522  0.2846 -0.1850  0.1324
  230DG     C11 5278   1.871   3.342   2.319 -0.0296  0.7985  0.2332
  230DG     C12 5279   1.424   3.468   2.416  0.2623 -0.2954 -0.0810
  230DG     H13 5280   1.947   3.265   2.331 -2.6203 -1.5115  3.8722
  230DG     H14 5281   1.840   3.329   2.215  0.4340  0.1429  0.1765
  230DG     H15 5282   1.478   3.561   2.398 -1.2969  0.8132  0.7345
  230DG     H16 5283   1.372   3.442   2.324 -1.4112  0.6292  0.5524
  230DG     C17 5284   1.761   3.318   2.423  0.4825 -0.0115  0.2695
  230DG     C18 5285   1.537   3.375   2.461  0.1716  0.6196 -0.6362
  230DG     O19 5286   1.653   3.408   2.392  0.1968 -0.3210  0.2812
  230DG     H20 5287   1.797   3.337   2.524  0.9081 -1.1274  0.3408
  230DG     H21 5288   1.732   3.215   2.403  0.3181  0.4477 -2.1255
  230DG     H22 5289   1.559   3.397   2.565 -0.3559 -1.0357 -0.1511
  230DG     H23 5290   1.511   3.269   2.457  0.9065  0.4016  0.1595
  231DG      C1 5291   0.836   5.283   0.430  0.5048 -0.2014  0.9735
  231DG      C2 5292   0.795   4.656   0.405  0.1076 -0.0148  0.2500
  231DG      H3 5293   0.764   5.236   0.363  0.2698 -1.8142  2.2850
  231DG      H4 5294   0.917   5.316   0.364  0.8215 -1.3265  0.7827
  231DG      H5 5295   0.794   5.377   0.466 -0.8664 -1.0618  1.6827
  231DG      H6 5296   0.789   4.555   0.446  0.7444 -0.7181 -1.3009
  231DG      H7 5297   0.720   4.659   0.327  0.5746 -0.9724 -0.2574
  231DG      H8 5298   0.896   4.674   0.368  0.4977 -2.9890 -0.4064
  231DG      O9 5299   0.874   5.191   0.529  0.1788  0.2007 -0.1693
  231DG     O10 5300   0.778   4.757   0.498 -0.1092 -0.2534 -0.1159
  231DG     C11 5301   0.783   5.201   0.632  0.1326  0.0729  0.1560
  231DG     C12 5302   0.870   4.738   0.613  0.3164 -0.8475 -0.4508
  231DG     H13 5303   0.683   5.190   0.592  0.2804  1.8245 -0.8292
  231DG     H14 5304   0.802   5.299   0.677 -0.9379 -0.0632  0.9204
  231DG     H15 5305   0.975   4.754   0.589  0.3662 -1.7753 -0.8911
  231DG     H16 5306   0.875   4.632   0.639  0.1640 -0.9884 -0.9895
  231DG     C17 5307   0.807   5.080   0.726  0.0541 -0.6273 -0.2595
  231DG     C18 5308   0.842   4.847   0.722  0.2992 -0.4368 -0.2253
  231DG     O19 5309   0.823   4.966   0.651  0.2516  0.1722 -0.0351
  231DG     H20 5310   0.733   5.077   0.806 -0.1208  2.1788 -0.2294
  231DG     H21 5311   0.900   5.107   0.775 -1.0873 -0.4039  1.9197
  231DG     H22 5312   0.752   4.826   0.779  0.2188 -0.3923 -0.3352
  231DG     H23 5313   0.915   4.849   0.804 -1.6445  1.7017  1.5959
  232DG      C1 5314   4.353   5.405   1.314  0.2167 -0.0457  0.4370
  232DG      C2 5315   4.078   5.987   0.998 -0.1203 -0.3497 -0.0587
  232DG      H3 5316   4.248   5.401   1.284  0.1346  0.5135  0.6405
  232DG      H4 5317   4.360   5.417   1.422 -0.1855 -0.5587  0.5285
  232DG      H5 5318   4.399   5.312   1.282  0.0891  1.3682 -4.7641
  232DG      H6 5319   4.003   5.964   0.922  1.3011 -1.7435 -1.0978
  232DG      H7 5320   4.038   5.957   1.094  0.1697 -0.2252  0.1007
  232DG      H8 5321   4.106   6.093   0.995 -1.4610  0.0107 -1.5758
  232DG      O9 5322   4.432   5.505   1.256  0.1100 -0.3303  0.5455
  232DG     O10 5323   4.184   5.907   0.962  0.7619 -0.2826  0.1917
  232DG     C11 5324   4.427   5.486   1.116 -0.1274 -0.1940 -0.0695
  232DG     C12 5325   4.303   5.941   1.030  0.0247  0.5774  0.3733
  232DG     H13 5326   4.327   5.451   1.089 -0.6418 -0.5545  2.0988
  232DG     H14 5327   4.489   5.397   1.103 -2.7267 -2.1335  0.0197
  232DG     H15 5328   4.279   5.944   1.136  0.0306 -1.3076  0.4525
  232DG     H16 5329   4.339   6.041   1.004 -1.4218  0.9690 -0.2348
  232DG     C17 5330   4.469   5.611   1.038  0.3113 -0.2602 -0.0217
  232DG     C18 5331   4.408   5.832   0.995  0.3676  0.6275 -0.3472
  232DG     O19 5332   4.375   5.708   1.059  0.5805  0.1218  0.3196
  232DG     H20 5333   4.474   5.592   0.931  0.8453  1.1542 -0.2752
  232DG     H21 5334   4.571   5.629   1.074  0.2420 -0.3680  0.2328
  232DG     H22 5335   4.414   5.828   0.887  0.0617  2.4218 -0.4632
  232DG     H23 5336   4.510   5.861   1.024  0.4091 -1.1666  1.5742
  233DG      C1 5337   3.814   2.045   1.800 -0.3472 -0.0181  0.3889
  233DG      C2 5338   3.309   1.662   1.987 -0.0101  0.8438 -0.3875
  233DG      H3 5339   3.826   2.138   1.745 -1.8588 -0.1428 -0.2135
  233DG      H4 5340   3.878   1.968   1.757  0.5186 -0.6356  2.6387
  233DG      H5 5341   3.851   2.073   1.898  1.4565 -1.6850  0.2528
  233DG      H6 5342   3.208   1.621   1.990  0.6971 -0.9388  1.0056
  233DG      H7 5343   3.373   1.602   1.922  0.0440 -0.2547  0.6355
  233DG      H8 5344   3.353   1.653   2.086  0.3848  1.0790 -0.5411
  233DG      O9 5345   3.678   2.006   1.801  0.5672 -0.7468 -0.2515
  233DG     O10 5346   3.301   1.789   1.938  0.1118 -0.4046  0.5187
  233DG     C11 5347   3.643   2.001   1.661  0.3119  0.7754  1.2928
  233DG     C12 5348   3.242   1.793   1.804  0.6738 -0.5316  0.2772
  233DG     H13 5349   3.693   1.913   1.619 -0.7156  0.7868 -0.0175
  233DG     H14 5350   3.691   2.079   1.601 -0.6607 -0.3207 -1.0527
  233DG     H15 5351   3.134   1.801   1.816  0.2947 -0.3553 -2.5455
  233DG     H16 5352   3.256   1.694   1.761  1.7902 -0.7599  1.1100
  233DG     C17 5353   3.491   2.009   1.646  0.3051 -0.0274  0.2645
  233DG     C18 5354   3.302   1.907   1.723  0.2196  0.4015  0.9200
  233DG     O19 5355   3.444   1.901   1.726  0.1945  0.4714 -0.2093
  233DG     H20 5356   3.457   2.004   1.542  1.3743  1.0239 -0.1531
  233DG     H21 5357   3.469   2.107   1.690  4.1606  1.5109 -0.8513
  233DG     H22 5358   3.259   1.913   1.623 -0.9951  3.2296  1.5182
  233DG     H23 5359   3.257   1.990   1.778 -0.3435 -1.6144  3.7488
  234DG      C1 5360   2.450   1.699   4.090  0.4139 -1.3219 -0.4970
  234DG      C2 5361   1.876   1.884   4.372 -0.1183  0.3662  0.4036
  234DG      H3 5362   2.413   1.736   3.995 -3.6025 -1.3091  0.8822
  234DG      H4 5363   2.392   1.608   4.105 -0.2561 -1.2126 -2.2178
  234DG      H5 5364   2.555   1.674   4.075  2.0679  2.4035  2.7691
  234DG      H6 5365   1.891   1.991   4.383  1.0642  0.0966  1.6853
  234DG      H7 5366   1.860   1.861   4.267  0.4653 -1.1664  0.6247
  234DG      H8 5367   1.790   1.858   4.434 -1.2376  2.8433  0.0186
  234DG      O9 5368   2.441   1.796   4.193 -0.0392 -0.1753 -0.4021
  234DG     O10 5369   1.998   1.814   4.388  0.4475  0.2100 -0.6107
  234DG     C11 5370   2.503   1.759   4.322  0.4912 -0.0693 -0.2567
  234DG     C12 5371   2.044   1.822   4.522  0.5219 -0.6378  0.2613
  234DG     H13 5372   2.547   1.847   4.367  0.2169  0.6205 -1.3167
  234DG     H14 5373   2.584   1.687   4.312  1.5873  1.2639 -1.3506
  234DG     H15 5374   1.986   1.761   4.592  0.8464 -1.1160  0.1168
  234DG     H16 5375   2.041   1.924   4.562 -2.6072 -0.5628  0.0822
  234DG     C17 5376   2.395   1.706   4.423  0.3694 -0.6004 -0.3452
  234DG     C18 5377   2.174   1.746   4.520 -0.1727 -0.3472  0.4078
  234DG     O19 5378   2.272   1.786   4.426  0.1541 -0.0647  0.2801
  234DG     H20 5379   2.442   1.701   4.521  1.1114  2.5138 -0.4321
  234DG     H21 5380   2.368   1.605   4.393 -3.4886 -0.3429  1.6383
  234DG     H22 5381   2.225   1.733   4.615  1.9094  1.2863 -0.4109
  234DG     H23 5382   2.149   1.645   4.486 -1.0300 -0.3547  1.0352
  235DG      C1 5383   2.285   3.153   2.413 -0.8177  0.0190 -0.0485
  235DG      C2 5384   2.217   2.648   2.011 -0.0577  0.2983 -0.0848
  235DG      H3 5385   2.189   3.105   2.428  0.0055 -0.7135  4.5471
  235DG      H4 5386   2.263   3.255   2.443 -2.1555  0.1212 -1.2676
  235DG      H5 5387   2.335   3.109   2.500 -0.3065  0.1736 -0.2614
  235DG      H6 5388   2.117   2.691   2.003 -0.4101 -0.3047  0.8235
  235DG      H7 5389   2.232   2.578   1.929  0.8056 -0.2092  0.4745
  235DG      H8 5390   2.232   2.593   2.105  0.2584  1.6616  0.6915
  235DG      O9 5391   2.353   3.127   2.290 -0.2896  0.1009  0.1806
  235DG     O10 5392   2.310   2.755   2.018 -0.1960  0.2756 -0.1834
  235DG     C11 5393   2.320   3.217   2.187  0.4411 -0.4223  0.0142
  235DG     C12 5394   2.291   2.846   1.916 -0.6822 -0.2067  0.0721
  235DG     H13 5395   2.353   3.317   2.215 -0.4995  1.2124 -4.0163
  235DG     H14 5396   2.212   3.222   2.170  0.6891  0.0855 -1.5312
  235DG     H15 5397   2.187   2.877   1.907  0.5946  4.5354 -1.6784
  235DG     H16 5398   2.304   2.794   1.821 -1.6392  0.4179 -0.4185
  235DG     C17 5399   2.384   3.166   2.058  0.1127 -0.1209  0.2130
  235DG     C18 5400   2.381   2.975   1.918  0.3764 -0.2584 -0.4529
  235DG     O19 5401   2.354   3.029   2.045  0.5361  0.2555 -0.4028
  235DG     H20 5402   2.491   3.184   2.074 -0.0279  0.6598  0.2941
  235DG     H21 5403   2.355   3.225   1.971 -1.0299 -2.4936 -1.1275
  235DG     H22 5404   2.487   2.949   1.910  0.7723 -0.1113  3.0323
  235DG     H23 5405   2.346   3.036   1.834 -1.1945 -1.4018 -0.6620
  236DG      C1 5406   2.965   1.915   0.468  0.1830  0.8726  0.0932
  236DG      C2 5407   2.876   2.143  -0.226  0.2701 -0.5910  0.4570
  236DG      H3 5408   2.938   2.000   0.531  1.4164  0.0970  1.7412
  236DG      H4 5409   3.072   1.927   0.451  0.3431 -0.8922 -0.3224
  236DG      H5 5410   2.941   1.825   0.524 -0.7412  1.1196  0.1127
  236DG      H6 5411   2.872   2.077  -0.312 -1.1532  0.6505 -0.4693
  236DG      H7 5412   2.804   2.223  -0.244 -2.1718 -2.7172  0.0553
  236DG      H8 5413   2.979   2.176  -0.232  0.1488 -0.4463 -1.4647
  236DG      O9 5414   2.904   1.910   0.337 -0.1155  0.5457  0.4456
  236DG     O10 5415   2.847   2.067  -0.106 -0.0068  0.2008 -0.4383
  236DG     C11 5416   2.765   1.900   0.348  0.6044 -0.2047  0.0757
  236DG     C12 5417   2.726   2.000  -0.116  0.7852 -0.3841 -0.6886
  236DG     H13 5418   2.726   1.991   0.393  1.1676  0.7203 -1.2514
  236DG     H14 5419   2.741   1.823   0.423 -0.5434  0.7174  0.6893
  236DG     H15 5420   2.717   1.951  -0.213  0.5697 -2.1366  0.1741
  236DG     H16 5421   2.646   2.072  -0.102  0.4824 -1.0601  1.3737
  236DG     C17 5422   2.705   1.847   0.224 -0.4141  0.5717  0.3906
  236DG     C18 5423   2.699   1.886  -0.016 -0.3392  0.1048  0.1744
  236DG     O19 5424   2.763   1.908   0.108  0.2003  0.2856 -0.1407
  236DG     H20 5425   2.596   1.847   0.229 -0.3613  0.8394  3.3853
  236DG     H21 5426   2.731   1.741   0.215 -0.0856  0.6534  0.3505
  236DG     H22 5427   2.592   1.876   0.003 -0.4829  0.0814 -0.5977
  236DG     H23 5428   2.727   1.786  -0.048 -2.8140 -0.5258 -0.2501
  237DG      C1 5429   0.908   0.353   1.251 -0.4949 -0.3468 -0.0746
  237DG      C2 5430   0.250   0.449   0.709  0.0720 -0.9048 -0.6898
  237DG      H3 5431   0.879   0.271   1.315 -1.0262 -0.0245  0.1014
  237DG      H4 5432   0.977   0.425   1.295 -0.2193 -0.8835  0.3751
  237DG      H5 5433   0.963   0.306   1.169 -0.2328 -1.7001  0.8522
  237DG      H6 5434   0.260   0.342   0.728  0.7728 -0.7351 -0.0546
  237DG      H7 5435   0.147   0.484   0.721 -0.1592 -1.5716 -0.7153
  237DG      H8 5436   0.293   0.478   0.613  0.1110  0.7953 -0.1912
  237DG      O9 5437   0.808   0.441   1.201  0.1259  0.2807 -0.5433
  237DG     O10 5438   0.327   0.522   0.810  0.7145 -0.4438 -0.1351
  237DG     C11 5439   0.856   0.534   1.098  0.3148 -0.1019 -0.0764
  237DG     C12 5440   0.470   0.506   0.793 -0.3302  0.1068 -1.2131
  237DG     H13 5441   0.898   0.493   1.006  1.7820  1.0690  0.0364
  237DG     H14 5442   0.922   0.612   1.135 -0.0964  0.3425 -0.2734
  237DG     H15 5443   0.510   0.526   0.693 -0.2681  0.7725 -1.0551
  237DG     H16 5444   0.492   0.402   0.818  2.6522  1.3371  2.1522
  237DG     C17 5445   0.741   0.612   1.037 -0.2215  0.1241  0.4803
  237DG     C18 5446   0.537   0.588   0.910 -0.5398 -0.5462  0.4586
  237DG     O19 5447   0.655   0.523   0.965 -0.0147  0.7205  0.0828
  237DG     H20 5448   0.780   0.690   0.971  0.8163  0.5995  1.6193
  237DG     H21 5449   0.687   0.671   1.111 -1.5815 -0.9303  0.3528
  237DG     H22 5450   0.563   0.684   0.867  0.2079 -0.5968  0.7784
  237DG     H23 5451   0.469   0.613   0.991 -1.3455  1.6485 -0.8013
  238DG      C1 5452   3.847   5.058   3.585  0.4672  0.4426  0.4839
  238DG      C2 5453   3.737   5.514   2.975  0.4061 -0.3996 -0.0179
  238DG      H3 5454   3.795   4.963   3.598  0.6193  0.2630 -0.1777
  238DG      H4 5455   3.772   5.134   3.611  0.4131 -0.7980  4.6785
  238DG      H5 5456   3.924   5.071   3.661  1.0455  0.9294 -0.1800
  238DG      H6 5457   3.744   5.618   3.005 -1.9454  0.1985 -1.2964
  238DG      H7 5458   3.764   5.508   2.869 -0.0248  1.8377 -0.2882
  238DG      H8 5459   3.634   5.480   2.988  0.8532 -1.1190  1.9358
  238DG      O9 5460   3.885   5.073   3.451  0.5291  0.0575 -0.2055
  238DG     O10 5461   3.826   5.436   3.042  0.2284 -0.1359 -0.3212
  238DG     C11 5462   3.979   5.177   3.435 -0.5985  0.4695 -0.2060
  238DG     C12 5463   3.812   5.297   3.021  0.3146 -0.4358 -0.1525
  238DG     H13 5464   4.058   5.161   3.509  0.9069  1.3902 -1.5566
  238DG     H14 5465   3.937   5.276   3.455 -1.3123  0.9160 -3.4340
  238DG     H15 5466   3.811   5.274   2.915  1.5082  1.4744 -0.6226
  238DG     H16 5467   3.717   5.261   3.060  0.9912 -0.9243  1.0805
  238DG     C17 5468   4.023   5.175   3.290  0.0251 -0.2257 -0.1962
  238DG     C18 5469   3.933   5.226   3.079  0.0952  0.0686  0.1189
  238DG     O19 5470   3.912   5.217   3.217 -0.3436  0.4697 -0.2558
  238DG     H20 5471   4.062   5.080   3.251 -0.6517 -0.1102 -1.2058
  238DG     H21 5472   4.106   5.244   3.278  0.6083 -1.1619 -1.9218
  238DG     H22 5473   3.946   5.123   3.048  0.1433  0.1048  0.0174
  238DG     H23 5474   4.020   5.285   3.048  0.7498  0.5980  2.7076
  239DG      C1 5475   0.410   3.532   3.195 -0.6780  0.4145  0.4007
  239DG      C2 5476   0.841   2.910   3.349 -0.7919 -0.3283 -0.4889
  239DG      H3 5477   0.403   3.443   3.132 -1.3903  0.9837 -0.3263
  239DG      H4 5478   0.494   3.593   3.163 -0.6526  0.6483  0.9010
  239DG      H5 5479   0.321   3.591   3.176  0.5536  2.4098  0.5089
  239DG      H6 5480   0.890   2.898   3.446 -2.6494  0.2874  0.5785
  239DG      H7 5481   0.811   2.810   3.319 -0.1155 -0.3880 -1.0047
  239DG      H8 5482   0.915   2.946   3.277  0.3457 -0.9076  0.3476
  239DG      O9 5483   0.393   3.485   3.325 -0.3087  0.4864  0.3562
  239DG     O10 5484   0.726   2.991   3.357  0.0003 -0.0416  0.1029
  239DG     C11 5485   0.485   3.391   3.367 -0.0836 -0.9468 -0.1928
  239DG     C12 5486   0.620   2.945   3.432 -0.2907 -0.4902 -0.6008
  239DG     H13 5487   0.499   3.400   3.475 -1.4182  1.5563 -0.1539
  239DG     H14 5488   0.576   3.402   3.309  1.5875 -1.3065  2.2088
  239DG     H15 5489   0.627   2.970   3.538 -2.2346 -1.0586 -0.2914
  239DG     H16 5490   0.609   2.837   3.432  0.6407 -0.6085  0.7411
  239DG     C17 5491   0.438   3.249   3.333  0.1071  0.0534 -0.3835
  239DG     C18 5492   0.501   3.016   3.375  0.0641 -0.4539  0.5976
  239DG     O19 5493   0.517   3.154   3.405 -0.0915 -0.1284  0.3812
  239DG     H20 5494   0.441   3.238   3.225 -1.5981  3.0363 -0.8332
  239DG     H21 5495   0.333   3.234   3.359  0.5047 -1.3557  0.5275
  239DG     H22 5496   0.470   3.012   3.270 -0.5605  2.2777  0.5955
  239DG     H23 5497   0.415   2.983   3.433  0.9591  0.3980  2.4787
  240DG      C1 5498   4.340   5.417   3.804  0.2995 -0.3157 -0.3239
  240DG      C2 5499   3.902   5.877   3.575 -0.3800  0.2161 -0.5591
  240DG      H3 5500   4.373   5.358   3.719  0.6653 -0.2174 -0.2498
  240DG      H4 5501   4.359   5.356   3.892 -1.3424 -0.6867 -0.2006
  240DG      H5 5502   4.399   5.508   3.815 -0.4301 -0.0115  1.2951
  240DG      H6 5503   3.818   5.898   3.508  1.3697  0.0741 -2.9344
  240DG      H7 5504   3.910   5.948   3.657  0.5771 -1.9515  1.3331
  240DG      H8 5505   3.986   5.892   3.508 -1.3933 -1.1056 -2.2218
  240DG      O9 5506   4.199   5.452   3.799  0.3803  0.9706 -0.1689
  240DG     O10 5507   3.911   5.740   3.624 -0.1765 -0.8333 -0.0529
  240DG     C11 5508   4.119   5.336   3.759  0.2059 -0.4885 -0.4881
  240DG     C12 5509   3.807   5.694   3.706  0.1988 -0.0701 -0.7176
  240DG     H13 5510   4.141   5.260   3.834  0.7933  1.1249  1.0589
  240DG     H14 5511   4.144   5.309   3.656 -0.0189 -0.3084 -0.5902
  240DG     H15 5512   3.704   5.713   3.678 -1.0519 -2.2281  1.9877
  240DG     H16 5513   3.802   5.759   3.793 -0.5987  1.1366 -1.6295
  240DG     C17 5514   3.972   5.379   3.774 -0.0921  0.1038 -0.1843
  240DG     C18 5515   3.816   5.543   3.746 -0.5792 -0.0407  0.3020
  240DG     O19 5516   3.953   5.513   3.745 -0.3742  0.6384  0.1515
  240DG     H20 5517   3.943   5.362   3.878  2.3245  2.2816  0.9788
  240DG     H21 5518   3.914   5.309   3.715  0.9170 -0.6028 -0.3730
  240DG     H22 5519   3.773   5.532   3.845 -0.3164  0.0094  0.4216
  240DG     H23 5520   3.767   5.478   3.674  0.4621 -2.2391  1.4901
  241DG      C1 5521   2.917   4.187   4.180  0.1760 -0.4950  0.2250
  241DG      C2 5522   2.818   4.359   4.955 -0.1407 -0.0072 -0.1035
  241DG      H3 5523   2.994   4.196   4.104 -0.8284  2.0821 -0.5933
  241DG      H4 5524   2.878   4.287   4.197 -2.4543 -1.5233  0.8926
  241DG      H5 5525   2.831   4.138   4.134  0.6506 -0.3491 -0.8399
  241DG      H6 5526   2.876   4.367   5.046  1.4165 -0.3582 -1.0196
  241DG      H7 5527   2.744   4.437   4.939  0.2778  0.3845 -0.1511
  241DG      H8 5528   2.770   4.262   4.968 -2.2365  0.9496 -0.3379
  241DG      O9 5529   2.937   4.126   4.305  0.0244 -0.0860 -0.2193
  241DG     O10 5530   2.916   4.357   4.843  0.2985 -0.4302  0.6848
  241DG     C11 5531   3.064   4.139   4.359 -0.0969 -0.3861 -0.3105
  241DG     C12 5532   2.862   4.400   4.716  0.4258  0.2201  0.4744
  241DG     H13 5533   3.144   4.110   4.290 -0.4626 -1.2863 -0.3618
  241DG     H14 5534   3.067   4.051   4.423  0.2063 -0.9711 -1.1096
  241DG     H15 5535   2.810   4.496   4.729 -0.9637 -0.2850 -1.0765
  241DG     H16 5536   2.781   4.334   4.688  0.9881 -0.2623 -0.0379
  241DG     C17 5537   3.075   4.273   4.432 -0.0756  0.3119  0.2152
  241DG     C18 5538   2.968   4.403   4.601 -0.2141  0.0240 -0.0677
  241DG     O19 5539   2.998   4.274   4.553 -0.0787 -0.1549 -0.5438
  241DG     H20 5540   3.060   4.359   4.366 -1.5945  0.2148  0.4011
  241DG     H21 5541   3.181   4.281   4.455 -0.0332 -0.4405  0.3195
  241DG     H22 5542   2.930   4.467   4.522  0.0520  0.7457  0.3692
  241DG     H23 5543   3.065   4.442   4.633  0.1048 -0.0296 -0.9555
  242DG      C1 5544   5.466   0.400   4.564 -0.7694  0.5053  0.0650
  242DG      C2 5545   5.314   1.030   4.651  0.8165  0.3306 -0.0322
  242DG      H3 5546   5.570   0.430   4.579 -0.5035 -1.0485  1.6559
  242DG      H4 5547   5.454   0.390   4.456  1.4347  1.8668 -0.3912
  242DG      H5 5548   5.443   0.307   4.615 -0.4065  0.5066  0.2329
  242DG      H6 5549   5.243   1.112   4.657  1.3730  0.7046  2.9681
  242DG      H7 5550   5.281   0.950   4.717 -0.4609  0.2327 -0.7542
  242DG      H8 5551   5.408   1.070   4.690  0.2526  0.5149  1.1736
  242DG      O9 5552   5.379   0.510   4.605  1.3720  0.2804 -0.5469
  242DG     O10 5553   5.330   0.981   4.517 -0.2172 -0.2621 -0.3625
  242DG     C11 5554   5.242   0.498   4.557  0.1030 -0.1250 -0.8865
  242DG     C12 5555   5.194   0.964   4.460  0.4372  0.0779  0.5136
  242DG     H13 5556   5.205   0.404   4.597  1.2840 -0.4723 -0.5753
  242DG     H14 5557   5.247   0.492   4.448  0.7246 -0.9369 -0.8265
  242DG     H15 5558   5.203   0.962   4.352  0.7598  0.5134  0.5304
  242DG     H16 5559   5.132   1.047   4.493 -0.1186 -1.2191  3.0083
  242DG     C17 5560   5.157   0.616   4.583 -0.2266 -0.5225 -0.4718
  242DG     C18 5561   5.123   0.841   4.514 -0.7062 -0.0397  0.0642
  242DG     O19 5562   5.207   0.726   4.505 -0.0336 -0.0048  0.2730
  242DG     H20 5563   5.157   0.637   4.690 -0.6551 -0.2368 -0.5246
  242DG     H21 5564   5.055   0.601   4.547 -0.9823  0.5114  1.1150
  242DG     H22 5565   5.089   0.861   4.616 -0.6537 -0.3803  0.1501
  242DG     H23 5566   5.039   0.820   4.447 -0.7331  1.0833 -0.2729
  243DG      C1 5567   3.373   1.414   3.934  0.3517 -0.0587 -0.1891
  243DG      C2 5568   3.598   0.739   4.407 -0.0073 -0.3268 -0.2948
  243DG      H3 5569   3.466   1.458   3.896 -0.0990  1.6888  0.6273
  243DG      H4 5570   3.327   1.485   4.003 -0.4369 -1.0068  0.2891
  243DG      H5 5571   3.311   1.394   3.847  0.9851  0.1269 -0.6927
  243DG      H6 5572   3.622   0.632   4.411 -0.2683 -0.3641  0.3510
  243DG      H7 5573   3.687   0.801   4.408 -0.4909  0.3717  0.1024
  243DG      H8 5574   3.521   0.766   4.480 -0.1709 -2.3136  0.3596
  243DG      O9 5575   3.400   1.306   4.022  0.3728  0.0108 -0.5693
  243DG     O10 5576   3.546   0.758   4.271  0.3376  0.5258  0.0272
  243DG     C11 5577   3.281   1.237   4.067 -0.3846  0.0178  0.2631
  243DG     C12 5578   3.520   0.898   4.249  0.2516 -0.1129 -0.1786
  243DG     H13 5579   3.213   1.206   3.987  0.9580 -0.8924 -0.5655
  243DG     H14 5580   3.223   1.306   4.128 -1.2628  0.4538 -1.0211
  243DG     H15 5581   3.598   0.971   4.271  1.4345 -0.9361 -1.5288
  243DG     H16 5582   3.440   0.920   4.321  0.7768 -3.1518  1.5163
  243DG     C17 5583   3.321   1.102   4.132 -0.4484 -0.3443 -0.0680
  243DG     C18 5584   3.480   0.919   4.102 -0.3075  0.0836 -0.5294
  243DG     O19 5585   3.447   1.057   4.073  0.6234 -0.0591  0.1475
  243DG     H20 5586   3.242   1.029   4.112 -1.5214  0.6565  0.4213
  243DG     H21 5587   3.331   1.117   4.239 -0.6201 -1.6378  0.1506
  243DG     H22 5588   3.555   0.875   4.037  0.0353 -1.4519  0.8635
  243DG     H23 5589   3.393   0.855   4.083 -1.4173  0.8094  1.7464
  244DG      C1 5590   4.165   3.855   1.500  0.4577 -0.3844 -0.2730
  244DG      C2 5591   4.250   4.188   2.076  0.0370  0.1558 -0.0406
  244DG      H3 5592   4.254   3.811   1.453  1.0601  0.6115 -0.0806
  244DG      H4 5593   4.079   3.852   1.433 -0.4202 -1.2661  0.8480
  244DG      H5 5594   4.126   3.797   1.583 -0.9961  1.1633  0.1821
  244DG      H6 5595   4.156   4.211   2.126 -0.2329  0.1774 -0.5413
  244DG      H7 5596   4.288   4.087   2.088  1.8066  0.8074  0.0741
  244DG      H8 5597   4.323   4.260   2.112  0.3688  0.2158 -0.8017
  244DG      O9 5598   4.204   3.982   1.556  0.5858 -0.1135  0.0739
  244DG     O10 5599   4.235   4.198   1.938  0.2243 -0.0309 -0.2890
  244DG     C11 5600   4.130   4.090   1.485  0.2965  0.4431 -0.1058
  244DG     C12 5601   4.175   4.326   1.907  0.7149  0.7465  0.2361
  244DG     H13 5602   4.021   4.085   1.485  0.2527  0.6606 -1.8416
  244DG     H14 5603   4.150   4.101   1.378 -1.2549 -0.4102 -0.5103
  244DG     H15 5604   4.229   4.404   1.960  2.6940 -2.1758  2.8905
  244DG     H16 5605   4.070   4.334   1.936  0.8244  0.0514  0.8334
  244DG     C17 5606   4.170   4.226   1.544  0.2696  0.3573  0.1312
  244DG     C18 5607   4.188   4.346   1.755 -0.0941  0.3369  0.1144
  244DG     O19 5608   4.144   4.230   1.680 -0.1451  0.9717 -0.0376
  244DG     H20 5609   4.108   4.306   1.504  0.3165  0.9592  1.2182
  244DG     H21 5610   4.271   4.258   1.517  0.9325  0.2197  2.2567
  244DG     H22 5611   4.129   4.434   1.730  1.1411  0.6263 -1.9618
  244DG     H23 5612   4.287   4.372   1.720  0.8611  0.4711  2.7096
  245DG      C1 5613   3.295   0.324   2.633  0.4266 -0.0024  0.1798
  245DG      C2 5614   3.138  -0.536   2.537  0.6799  0.1743  0.1300
  245DG      H3 5615   3.374   0.399   2.619 -1.6221  2.3424  0.5361
  245DG      H4 5616   3.280   0.317   2.741  0.4342  0.9189  0.2517
  245DG      H5 5617   3.211   0.378   2.590 -1.7094 -1.7322  1.9646
  245DG      H6 5618   3.159  -0.638   2.504 -0.8280 -0.2471  0.4282
  245DG      H7 5619   3.156  -0.532   2.644  0.1537 -1.2782  0.2901
  245DG      H8 5620   3.032  -0.527   2.513  1.4922 -0.3853 -4.8137
  245DG      O9 5621   3.314   0.194   2.570  0.6196 -0.4277 -0.0141
  245DG     O10 5622   3.213  -0.437   2.466 -0.1755 -0.1212 -0.1627
  245DG     C11 5623   3.422   0.117   2.622  0.3484  0.1030 -0.2515
  245DG     C12 5624   3.214  -0.312   2.533 -0.1133  0.2560 -0.1287
  245DG     H13 5625   3.393   0.088   2.723  0.0497 -0.9840 -0.6334
  245DG     H14 5626   3.515   0.173   2.626 -0.5618  1.7187 -0.8651
  245DG     H15 5627   3.253  -0.325   2.634  0.8207  0.6784 -0.4316
  245DG     H16 5628   3.123  -0.251   2.535 -1.0926 -1.1319  1.4824
  245DG     C17 5629   3.432  -0.014   2.550 -0.0853 -0.1698  0.0772
  245DG     C18 5630   3.315  -0.208   2.474 -0.2136  0.2238  0.2719
  245DG     O19 5631   3.311  -0.094   2.563 -0.1850  0.5492 -0.4631
  245DG     H20 5632   3.522  -0.060   2.590  0.9531  2.1392  0.5161
  245DG     H21 5633   3.453   0.020   2.449  0.1615  0.1318  0.2290
  245DG     H22 5634   3.413  -0.253   2.459  0.3030  2.0608 -2.7110
  245DG     H23 5635   3.279  -0.168   2.379  1.0772  1.7968  0.4000
  246DG      C1 5636   5.355   4.763   5.410  0.5304  0.1020  0.3614
  246DG      C2 5637   5.497   5.113   6.061 -0.4330  0.7159 -0.7153
  246DG      H3 5638   5.388   4.671   5.362 -0.6308  0.1784 -0.6307
  246DG      H4 5639   5.323   4.833   5.334  0.3581 -0.6869 -0.3123
  246DG      H5 5640   5.265   4.725   5.461 -0.1437 -1.2600 -1.7081
  246DG      H6 5641   5.595   5.086   6.100 -0.9178 -3.0604 -1.8132
  246DG      H7 5642   5.492   5.222   6.053  1.3946  1.1143  2.1297
  246DG      H8 5643   5.425   5.085   6.138  0.5946 -0.7431 -0.2540
  246DG      O9 5644   5.454   4.817   5.492 -0.6420  0.1076 -0.0415
  246DG     O10 5645   5.461   5.046   5.943  0.0973 -0.0983  0.0548
  246DG     C11 5646   5.508   4.712   5.571  0.3174  0.4767  0.4166
  246DG     C12 5647   5.453   4.906   5.968  0.2838  0.6047  0.0135
  246DG     H13 5648   5.554   4.640   5.503 -0.7693 -0.3486  0.5223
  246DG     H14 5649   5.432   4.653   5.622 -0.1977  2.5122  2.1338
  246DG     H15 5650   5.369   4.869   6.027 -0.4555 -1.1871 -1.9966
  246DG     H16 5651   5.537   4.865   6.024  0.6153  0.0349 -0.8889
  246DG     C17 5652   5.607   4.775   5.663 -1.0652  0.3188  0.5183
  246DG     C18 5653   5.438   4.842   5.827 -0.0003 -0.4670 -0.4486
  246DG     O19 5654   5.557   4.878   5.748 -0.6361 -0.1042 -0.0146
  246DG     H20 5655   5.692   4.814   5.607 -1.6401  0.4110 -0.3222
  246DG     H21 5656   5.655   4.699   5.725 -0.1495 -0.3529 -0.9483
  246DG     H22 5657   5.439   4.735   5.843 -1.5626 -0.4250  0.1203
  246DG     H23 5658   5.343   4.870   5.781  0.3674 -0.9037 -1.4965
  247DG      C1 5659   0.017   2.804   2.686 -0.4930 -0.3682  0.2899
  247DG      C2 5660   0.666   2.607   2.565  0.6707  0.4422 -0.1452
  247DG      H3 5661  -0.055   2.880   2.655 -1.1334 -0.2839  1.8976
  247DG      H4 5662   0.040   2.816   2.791 -0.7745  2.1940  0.1265
  247DG      H5 5663  -0.040   2.712   2.675 -0.5774 -0.0336 -3.4290
  247DG      H6 5664   0.755   2.581   2.507  0.9888  0.2016  0.4462
  247DG      H7 5665   0.703   2.656   2.655  0.6839  1.4841 -0.7066
  247DG      H8 5666   0.621   2.514   2.597  0.0494  1.2272  1.3364
  247DG      O9 5667   0.130   2.798   2.600 -0.0697  0.2268  0.3960
  247DG     O10 5668   0.571   2.687   2.496  0.5946 -0.3255 -0.2400
  247DG     C11 5669   0.086   2.775   2.471 -0.6903  0.2935  0.0734
  247DG     C12 5670   0.515   2.624   2.384 -0.2971  0.5650 -0.1695
  247DG     H13 5671   0.017   2.856   2.448 -0.3059  1.2411  2.0265
  247DG     H14 5672   0.028   2.683   2.466 -0.4141 -0.0194  1.8382
  247DG     H15 5673   0.478   2.526   2.413 -1.2385  1.3890  1.6349
  247DG     H16 5674   0.599   2.603   2.318  0.8312  2.5914  0.5063
  247DG     C17 5675   0.194   2.794   2.368  0.3025  0.0495 -0.0056
  247DG     C18 5676   0.415   2.714   2.320  0.3696  0.8437  0.0292
  247DG     O19 5677   0.321   2.746   2.417 -0.4474 -0.2394  0.0438
  247DG     H20 5678   0.203   2.898   2.335  0.4761  0.7455  2.0876
  247DG     H21 5679   0.171   2.734   2.280  0.9019 -0.0793 -0.0810
  247DG     H22 5680   0.471   2.798   2.280 -1.9761  0.7815 -3.8892
  247DG     H23 5681   0.370   2.659   2.237 -0.0756  0.2845  0.6253
  248DG      C1 5682   2.083   3.481   2.655  0.3272  0.7714 -1.1808
  248DG      C2 5683   1.774   4.055   2.788  0.4335  0.8453 -0.0661
  248DG      H3 5684   1.994   3.424   2.629 -0.5680  1.1722  0.8337
  248DG      H4 5685   2.154   3.398   2.655  0.3884  0.7676  1.1819
  248DG      H5 5686   2.111   3.553   2.578 -0.2595  1.0157 -1.1672
  248DG      H6 5687   1.759   4.148   2.843  0.3182 -0.5533  2.4204
  248DG      H7 5688   1.799   4.081   2.685  0.7849 -0.1390 -0.2463
  248DG      H8 5689   1.678   4.004   2.795  0.7768 -0.2749 -2.4997
  248DG      O9 5690   2.066   3.555   2.777  0.1372  0.0081  0.2234
  248DG     O10 5691   1.857   3.967   2.862 -0.1191 -0.2972 -0.1494
  248DG     C11 5692   2.180   3.575   2.864  0.4963 -0.5143  0.0318
  248DG     C12 5693   1.990   4.014   2.900 -0.6193  0.3192  0.8719
  248DG     H13 5694   2.275   3.594   2.813  1.0395 -2.6130  0.1814
  248DG     H14 5695   2.199   3.478   2.909 -0.3299 -0.6176  0.1657
  248DG     H15 5696   1.977   4.105   2.959  0.7212  1.3465 -0.3319
  248DG     H16 5697   2.040   4.046   2.809 -1.3247  2.1127  1.0633
  248DG     C17 5698   2.153   3.674   2.969 -0.0061 -0.0151 -0.6653
  248DG     C18 5699   2.073   3.909   2.978  0.6141 -0.1039  0.1958
  248DG     O19 5700   2.090   3.788   2.906 -0.2972 -0.0249 -0.2966
  248DG     H20 5701   2.249   3.693   3.017  0.2879 -1.0172 -0.8393
  248DG     H21 5702   2.093   3.625   3.045  2.4141 -1.1714  0.6064
  248DG     H22 5703   2.171   3.940   3.015  0.2684  0.2080  0.8709
  248DG     H23 5704   2.030   3.891   3.076 -0.7820 -1.5504 -0.6399
  249DG      C1 5705   0.520   3.969   1.683 -0.2669  0.2368 -0.1224
  249DG      C2 5706   0.602   3.413   1.012  0.3923 -0.2083 -0.2373
  249DG      H3 5707   0.437   4.030   1.718  0.4442  1.9973 -1.3512
  249DG      H4 5708   0.582   4.041   1.631 -2.0678  0.6556 -1.8189
  249DG      H5 5709   0.576   3.931   1.768 -0.5992 -1.2047 -0.5141
  249DG      H6 5710   0.693   3.436   0.958  0.6236 -2.1204 -0.7504
  249DG      H7 5711   0.573   3.308   1.001  0.2826 -0.0963 -1.0502
  249DG      H8 5712   0.513   3.465   0.975  0.0829 -0.5025  0.0796
  249DG      O9 5713   0.481   3.861   1.600 -0.3518 -0.1448 -0.7601
  249DG     O10 5714   0.645   3.443   1.145  0.3232  0.6484  0.1750
  249DG     C11 5715   0.584   3.780   1.541  0.1358 -0.4924  0.0010
  249DG     C12 5716   0.663   3.577   1.169 -0.1584  0.0810 -0.2602
  249DG     H13 5717   0.623   3.724   1.626  0.0790 -1.6686 -0.7213
  249DG     H14 5718   0.668   3.835   1.499  0.9722  0.0706  2.2920
  249DG     H15 5719   0.575   3.640   1.150  1.0395  2.1262  0.6365
  249DG     H16 5720   0.739   3.614   1.101 -1.4378  0.8491 -1.3423
  249DG     C17 5721   0.530   3.680   1.433 -0.7111  0.0708  0.0146
  249DG     C18 5722   0.724   3.610   1.309  0.4689  0.7920  0.0578
  249DG     O19 5723   0.628   3.580   1.411 -0.2641  0.1026 -0.3548
  249DG     H20 5724   0.506   3.752   1.354 -1.5155  2.0651  1.9933
  249DG     H21 5725   0.445   3.630   1.478 -1.0026 -0.1492 -0.7565
  249DG     H22 5726   0.802   3.539   1.333 -0.5068  0.0981  1.2821
  249DG     H23 5727   0.770   3.709   1.308  3.0667 -0.3574  0.4212
  250DG      C1 5728   0.425   5.466   1.361 -0.1147  1.1292 -0.8472
  250DG      C2 5729   0.735   5.667   0.767  0.0172  0.5338 -0.8756
  250DG      H3 5730   0.392   5.570   1.358  2.8297  2.2567  1.1944
  250DG      H4 5731   0.445   5.432   1.463 -3.0163  0.3750 -0.4412
  250DG      H5 5732   0.344   5.415   1.309 -1.9963  2.8546  0.2545
  250DG      H6 5733   0.827   5.686   0.713  0.4368  0.8148 -0.0803
  250DG      H7 5734   0.658   5.637   0.697 -0.3104 -2.2023  0.5189
  250DG      H8 5735   0.702   5.754   0.823 -2.9179 -0.1452 -1.3932
  250DG      O9 5736   0.549   5.447   1.281 -0.3086  0.2254  0.0837
  250DG     O10 5737   0.761   5.562   0.864  0.3120 -0.2009  0.1665
  250DG     C11 5738   0.664   5.484   1.361 -0.2823  0.8223  0.5424
  250DG     C12 5739   0.874   5.602   0.939  0.1788 -0.3166  0.5362
  250DG     H13 5740   0.676   5.411   1.442 -1.0621  0.0461 -0.0227
  250DG     H14 5741   0.664   5.589   1.390  0.4768  1.3191 -1.1450
  250DG     H15 5742   0.870   5.703   0.980  0.9839 -0.8252  1.9204
  250DG     H16 5743   0.963   5.598   0.877  1.1383  1.1919  1.7217
  250DG     C17 5744   0.791   5.459   1.276 -0.6870 -0.3178  0.2337
  250DG     C18 5745   0.879   5.504   1.055  0.0318  0.2751 -0.4083
  250DG     O19 5746   0.780   5.522   1.151 -0.0604 -0.9306  0.1979
  250DG     H20 5747   0.802   5.352   1.256  2.0492 -0.7356  3.3439
  250DG     H21 5748   0.878   5.488   1.333 -0.2512  1.7248 -1.3279
  250DG     H22 5749   0.876   5.406   1.009 -0.1383 -0.8808  1.9143
  250DG     H23 5750   0.982   5.512   1.092  0.8693  0.3959 -2.6541
  251DG      C1 5751   3.374   0.260   2.177  0.0818  0.2891  0.7521
  251DG      C2 5752   3.850  -0.205   1.700 -0.4449 -0.5959 -0.3191
  251DG      H3 5753   3.404   0.216   2.272 -0.2785 -0.7195  0.4120
  251DG      H4 5754   3.286   0.198   2.159  0.3043 -0.3253  1.6972
  251DG      H5 5755   3.344   0.365   2.183 -1.1753  0.2174 -2.3204
  251DG      H6 5756   3.864  -0.241   1.802  1.7323  1.8355  0.3576
  251DG      H7 5757   3.813  -0.286   1.637  1.2680 -0.5810 -1.4187
  251DG      H8 5758   3.949  -0.181   1.661 -0.7144  0.5789 -0.3008
  251DG      O9 5759   3.467   0.240   2.067 -0.2847  0.7956 -0.1606
  251DG     O10 5760   3.760  -0.101   1.693 -0.2176 -0.1983 -0.2844
  251DG     C11 5761   3.410   0.236   1.931  0.1156  0.0562  0.1979
  251DG     C12 5762   3.631  -0.124   1.748  0.0325  0.5940 -0.2358
  251DG     H13 5763   3.363   0.334   1.930 -2.2728 -0.9920 -1.3676
  251DG     H14 5764   3.325   0.172   1.906 -1.4505  2.1602 -0.1564
  251DG     H15 5765   3.633  -0.172   1.845 -1.0173  1.4895  0.2547
  251DG     H16 5766   3.570  -0.188   1.684 -0.1507 -0.2117  0.7271
  251DG     C17 5767   3.517   0.228   1.822 -0.5097  0.4275  0.2932
  251DG     C18 5768   3.540  -0.002   1.753  0.6664  0.5720  0.4312
  251DG     O19 5769   3.585   0.098   1.827  0.8126  0.5048 -0.3769
  251DG     H20 5770   3.599   0.299   1.835  0.3296 -0.4823  0.1540
  251DG     H21 5771   3.473   0.250   1.725 -1.2141 -1.1963  0.2176
  251DG     H22 5772   3.530   0.034   1.651  1.4878  1.1715  0.5532
  251DG     H23 5773   3.441  -0.025   1.791  0.1831  1.0283 -0.5270
  252DG      C1 5774   3.431   3.916   1.183 -0.0353  0.2212 -0.4917
  252DG      C2 5775   2.912   3.996   1.656 -0.9037  0.0686  0.9134
  252DG      H3 5776   3.434   3.807   1.183 -0.7220  0.1831  0.7050
  252DG      H4 5777   3.532   3.939   1.220 -0.4308  3.8457 -1.2784
  252DG      H5 5778   3.406   3.958   1.086  0.0763  0.4647 -0.4176
  252DG      H6 5779   2.827   3.932   1.632 -0.6292  0.7772 -2.4501
  252DG      H7 5780   2.985   3.952   1.723  0.9539  1.6104 -0.0245
  252DG      H8 5781   2.867   4.079   1.711  0.2191  0.1680  1.7186
  252DG      O9 5782   3.332   3.969   1.275  0.2539  0.8092  0.1201
  252DG     O10 5783   2.987   4.041   1.544 -0.2706  0.2303 -0.7744
  252DG     C11 5784   3.303   4.106   1.254  0.1985  1.0325 -0.6275
  252DG     C12 5785   2.920   4.132   1.462 -0.7937  0.3876 -0.2763
  252DG     H13 5786   3.275   4.125   1.150 -0.3228 -3.1920 -1.4594
  252DG     H14 5787   3.395   4.161   1.276  1.3031 -0.9764  0.0553
  252DG     H15 5788   2.944   4.237   1.479  1.0935 -0.2857  1.6921
  252DG     H16 5789   2.814   4.125   1.486 -0.6274 -0.2162  0.3186
  252DG     C17 5790   3.180   4.147   1.329 -0.1128 -0.0445  0.0280
  252DG     C18 5791   2.947   4.094   1.312  0.2639 -0.2583  0.3004
  252DG     O19 5792   3.080   4.048   1.299 -0.0296  0.0514  0.6742
  252DG     H20 5793   3.150   4.244   1.291  3.7953  0.4408 -2.5152
  252DG     H21 5794   3.199   4.149   1.436  1.2031  0.2714 -0.1840
  252DG     H22 5795   2.879   4.018   1.273  1.4916 -2.1976  1.7927
  252DG     H23 5796   2.928   4.180   1.248  2.3005  0.1204  0.1365
  253DG      C1 5797   1.207   3.734   1.058 -0.6137  0.3707 -0.2083
  253DG      C2 5798   1.092   2.904   0.963  0.7532  0.1796  0.6435
  253DG      H3 5799   1.242   3.719   0.956 -2.5311 -0.7551 -0.7471
  253DG      H4 5800   1.281   3.718   1.137 -1.9751  1.8452  1.4554
  253DG      H5 5801   1.177   3.839   1.065  0.8710  1.1662 -3.7754
  253DG      H6 5802   1.171   2.954   0.906 -0.2760  0.1272 -0.8782
  253DG      H7 5803   1.145   2.831   1.024  1.0920 -0.1742 -0.0597
  253DG      H8 5804   1.026   2.848   0.896 -0.2339 -1.2339  2.6850
  253DG      O9 5805   1.098   3.651   1.079  0.3786 -0.2227  0.6493
  253DG     O10 5806   1.030   2.999   1.052 -0.2481  0.5241  0.2585
  253DG     C11 5807   1.110   3.514   1.044 -0.0004 -0.5721 -0.2464
  253DG     C12 5808   0.941   3.076   0.976 -0.3823 -0.4829 -0.1649
  253DG     H13 5809   1.206   3.485   1.085  0.0687  0.0639  0.0517
  253DG     H14 5810   1.125   3.508   0.937  1.0214 -0.4946 -0.1104
  253DG     H15 5811   0.857   3.010   0.956 -0.9117  0.4279 -1.0632
  253DG     H16 5812   0.987   3.091   0.879  1.8343 -0.2721  0.8612
  253DG     C17 5813   0.997   3.424   1.079  0.3059  0.0339  0.3547
  253DG     C18 5814   0.915   3.202   1.056 -0.5342  0.3266  0.0567
  253DG     O19 5815   1.021   3.291   1.035  0.1357  0.2105 -0.1447
  253DG     H20 5816   0.905   3.460   1.032 -1.1044 -0.6412  2.4604
  253DG     H21 5817   0.970   3.429   1.185  0.4797  0.8253  0.3701
  253DG     H22 5818   0.820   3.234   1.013 -0.7146 -2.4109 -1.8271
  253DG     H23 5819   0.889   3.179   1.160  0.2529 -3.5134 -0.4705
  254DG      C1 5820   1.909   2.282   3.654 -0.0569  0.1954 -0.0964
  254DG      C2 5821   2.461   1.854   3.552  0.1763  0.3717  0.5653
  254DG      H3 5822   1.948   2.336   3.741 -1.0733 -0.2010  0.6161
  254DG      H4 5823   1.802   2.297   3.646 -0.3727 -2.3034 -1.6323
  254DG      H5 5824   1.948   2.336   3.568  1.7185  0.1102  0.5965
  254DG      H6 5825   2.496   1.899   3.644  0.8205  1.2596 -0.1041
  254DG      H7 5826   2.510   1.757   3.545 -0.5506  0.0900 -1.2131
  254DG      H8 5827   2.497   1.925   3.478 -2.8743  3.4085  1.7029
  254DG      O9 5828   1.946   2.147   3.635  0.1972  0.2081 -0.0759
  254DG     O10 5829   2.315   1.840   3.545 -0.1840  0.3989  0.6271
  254DG     C11 5830   1.883   2.088   3.517 -0.9161  0.3853 -0.5203
  254DG     C12 5831   2.265   1.804   3.418  0.0355  0.2057  0.0968
  254DG     H13 5832   1.914   2.148   3.431 -0.7245  1.9739  0.6214
  254DG     H14 5833   1.775   2.097   3.530 -0.7403  0.9355  0.5959
  254DG     H15 5834   2.300   1.704   3.390 -3.7222 -0.8790 -1.3632
  254DG     H16 5835   2.292   1.873   3.338 -1.6999  0.8171 -0.0094
  254DG     C17 5836   1.934   1.944   3.483  0.2673 -0.7187  0.2168
  254DG     C18 5837   2.113   1.793   3.424 -0.5280 -0.7814  0.3606
  254DG     O19 5838   2.067   1.934   3.449 -0.2440  0.3146 -0.4325
  254DG     H20 5839   1.879   1.902   3.399 -3.9027 -0.5946  2.5970
  254DG     H21 5840   1.905   1.882   3.568 -0.7250  1.2395  1.3990
  254DG     H22 5841   2.067   1.746   3.337  0.4425  0.4704 -0.8759
  254DG     H23 5842   2.089   1.733   3.512 -0.2255 -2.1452 -0.4640
  255DG      C1 5843   5.207   1.459   3.368 -0.3941 -0.3051  0.0320
  255DG      C2 5844   5.841   1.121   3.616  0.7313  0.5373  0.4564
  255DG      H3 5845   5.267   1.509   3.443 -0.0265  0.3444 -0.6811
  255DG      H4 5846   5.117   1.413   3.409 -0.8616 -1.8084 -2.4902
  255DG      H5 5847   5.175   1.550   3.317 -0.5947  0.1356  0.9303
  255DG      H6 5848   5.908   1.094   3.534 -0.0278 -1.2685  0.3895
  255DG      H7 5849   5.843   1.230   3.613 -2.3146  0.6531 -0.9535
  255DG      H8 5850   5.875   1.086   3.713  1.3017  0.3185  0.1851
  255DG      O9 5851   5.288   1.375   3.281 -0.3194 -0.0883  0.2625
  255DG     O10 5852   5.707   1.083   3.589 -0.6949 -0.0476 -0.4721
  255DG     C11 5853   5.402   1.446   3.229  0.2726  0.3570 -0.6643
  255DG     C12 5854   5.655   1.123   3.463 -0.0305 -0.0192 -0.1615
  255DG     H13 5855   5.390   1.552   3.210 -0.4085  0.5714  0.8355
  255DG     H14 5856   5.425   1.398   3.134  1.7013 -2.3357  0.9092
  255DG     H15 5857   5.555   1.081   3.461  0.1040 -0.3923  0.5368
  255DG     H16 5858   5.717   1.074   3.388  0.9962  1.3930 -0.2700
  255DG     C17 5859   5.512   1.433   3.323 -0.1359  0.3120 -0.8233
  255DG     C18 5860   5.631   1.272   3.443  0.7270 -0.4338 -0.1482
  255DG     O19 5861   5.538   1.298   3.336 -0.3306  0.4058  0.3977
  255DG     H20 5862   5.485   1.479   3.418 -1.1022 -0.7976 -0.5412
  255DG     H21 5863   5.603   1.484   3.291  0.7078 -0.1203  0.7686
  255DG     H22 5864   5.585   1.312   3.534 -1.2801  1.0777 -1.7252
  255DG     H23 5865   5.729   1.317   3.428  1.5885 -1.0883  2.7906
  256DG      C1 5866   1.270   2.485   1.874  0.4227  0.3268  0.0433
  256DG      C2 5867   1.049   2.379   1.460 -0.1770  0.3156  0.6680
  256DG      H3 5868   1.269   2.564   1.950 -0.3536 -0.3427  0.7394
  256DG      H4 5869   1.219   2.536   1.792  1.9671  2.1286  0.1156
  256DG      H5 5870   1.376   2.464   1.856  0.4003 -0.3381  0.6797
  256DG      H6 5871   1.008   2.475   1.430  2.3339  1.2404 -0.0365
  256DG      H7 5872   1.109   2.389   1.550 -0.9454 -0.4205  1.2898
  256DG      H8 5873   1.124   2.343   1.390 -0.8149 -1.9346  1.0408
  256DG      O9 5874   1.212   2.355   1.913 -0.6680 -0.4164  0.4093
  256DG     O10 5875   0.944   2.287   1.464  0.0699 -0.8145  0.1308
  256DG     C11 5876   1.075   2.359   1.952  0.5915 -0.2891  0.0468
  256DG     C12 5877   0.851   2.284   1.573  0.2897  0.0475  0.0789
  256DG     H13 5878   1.036   2.442   2.012  1.2658 -1.1506  1.7485
  256DG     H14 5879   1.036   2.270   2.002  2.2837 -1.5778 -0.8311
  256DG     H15 5880   0.754   2.244   1.543 -0.0219  1.1786 -0.4915
  256DG     H16 5881   0.822   2.383   1.609 -0.1197 -0.4641  1.2100
  256DG     C17 5882   0.989   2.356   1.823 -0.0640  0.8081 -0.5881
  256DG     C18 5883   0.898   2.193   1.681 -0.7163  0.9976 -0.6966
  256DG     O19 5884   1.011   2.235   1.747 -0.5460 -0.2660  0.0446
  256DG     H20 5885   1.004   2.443   1.759 -3.5353  4.3540  2.9024
  256DG     H21 5886   0.889   2.373   1.862 -0.2025  0.5508 -0.8313
  256DG     H22 5887   0.827   2.194   1.763  0.1238  1.0736  0.0517
  256DG     H23 5888   0.915   2.092   1.644  0.8105  0.4040  1.4296
  257DG      C1 5889   2.659   3.344   1.272  0.2141  0.2910 -0.0105
  257DG      C2 5890   3.296   3.293   0.629 -0.3998 -0.7432 -0.2674
  257DG      H3 5891   2.561   3.329   1.225  0.2629  0.3080 -0.1187
  257DG      H4 5892   2.661   3.449   1.302 -0.5188 -0.0759  1.3817
  257DG      H5 5893   2.666   3.282   1.361 -0.0631 -1.2555 -1.0266
  257DG      H6 5894   3.300   3.202   0.569  0.4357  0.6504 -2.4579
  257DG      H7 5895   3.223   3.363   0.590 -1.0305 -0.4038  1.4528
  257DG      H8 5896   3.392   3.345   0.628 -1.3987  1.2702  1.3273
  257DG      O9 5897   2.767   3.316   1.178 -0.1860  0.1255 -0.2097
  257DG     O10 5898   3.275   3.259   0.765  0.2476 -0.3646  0.3324
  257DG     C11 5899   2.895   3.336   1.244 -0.8745 -0.0303  0.1991
  257DG     C12 5900   3.150   3.284   0.820 -0.1299  0.0886 -0.2498
  257DG     H13 5901   2.886   3.325   1.352  0.1985  0.7842  0.3951
  257DG     H14 5902   2.911   3.441   1.220 -0.2014  0.3847  2.2718
  257DG     H15 5903   3.070   3.240   0.761  1.0730  1.9704 -3.5696
  257DG     H16 5904   3.130   3.390   0.833 -2.4337 -0.3233 -0.0663
  257DG     C17 5905   3.023   3.281   1.179  0.0032 -0.2959  0.5733
  257DG     C18 5906   3.141   3.245   0.972  0.0883  0.2846  0.2372
  257DG     O19 5907   3.022   3.295   1.033  0.3077 -0.2298 -0.2516
  257DG     H20 5908   3.056   3.180   1.204 -0.0534 -0.9737 -1.8491
  257DG     H21 5909   3.098   3.354   1.209 -0.4776  1.9983 -3.1054
  257DG     H22 5910   3.144   3.136   0.979  2.1514  0.1906 -1.2797
  257DG     H23 5911   3.222   3.274   1.039  0.1290 -2.1988  1.3962
  258DG      C1 5912   1.169   2.177   4.444  0.0192 -0.9993  0.2836
  258DG      C2 5913   1.647   2.501   4.831  0.5526  0.0488 -0.3920
  258DG      H3 5914   1.266   2.134   4.417 -0.0951 -0.2939 -1.3956
  258DG      H4 5915   1.114   2.183   4.350 -0.4653 -4.0974  0.2660
  258DG      H5 5916   1.117   2.113   4.514 -0.7348  2.5783  3.3226
  258DG      H6 5917   1.628   2.524   4.936 -0.4504 -0.2071 -0.5077
  258DG      H7 5918   1.691   2.402   4.839  0.9325  0.3873  3.6371
  258DG      H8 5919   1.726   2.563   4.790  1.3180  0.5899  1.7581
  258DG      O9 5920   1.190   2.302   4.500  0.5260 -0.0127 -0.4714
  258DG     O10 5921   1.537   2.482   4.744  0.5459 -0.4059  0.4421
  258DG     C11 5922   1.276   2.285   4.615 -0.0144  0.7737  0.6726
  258DG     C12 5923   1.492   2.600   4.681  0.0011  0.5902  0.2330
  258DG     H13 5924   1.379   2.276   4.579  0.9537  0.6025  3.2294
  258DG     H14 5925   1.270   2.191   4.669  0.1654  0.3702 -0.0046
  258DG     H15 5926   1.576   2.626   4.617 -0.0710 -1.7414 -0.9204
  258DG     H16 5927   1.461   2.680   4.748 -1.4173  1.1045 -0.9693
  258DG     C17 5928   1.246   2.401   4.709 -0.2133  0.1201 -0.3248
  258DG     C18 5929   1.381   2.555   4.585 -0.3714  0.4099  0.0828
  258DG     O19 5930   1.256   2.536   4.658  0.0486  0.6805 -0.1972
  258DG     H20 5931   1.309   2.396   4.797 -1.5524 -1.4228  0.5949
  258DG     H21 5932   1.145   2.381   4.744 -0.3365 -1.2491 -1.3757
  258DG     H22 5933   1.363   2.639   4.517  0.4551 -0.2454 -0.9798
  258DG     H23 5934   1.397   2.474   4.514 -1.1715  0.7654 -0.5340
  259DG      C1 5935   3.141   4.229   1.741  0.2655 -0.6319  0.1281
  259DG      C2 5936   3.320   4.797   2.205 -0.4580  0.0659 -0.0091
  259DG      H3 5937   3.052   4.284   1.770 -0.4182 -0.8205 -1.4667
  259DG      H4 5938   3.131   4.121   1.754  0.4992 -0.9167 -1.7219
  259DG      H5 5939   3.158   4.240   1.634 -0.9080  1.1389  0.0964
  259DG      H6 5940   3.380   4.829   2.290 -1.0396 -1.7801  1.1378
  259DG      H7 5941   3.328   4.869   2.123 -0.7174  0.5742  0.4096
  259DG      H8 5942   3.216   4.796   2.235  0.0842 -1.2770  2.0067
  259DG      O9 5943   3.265   4.284   1.805 -0.1003 -0.1052 -0.4636
  259DG     O10 5944   3.357   4.664   2.160  0.9119 -0.2585  0.7532
  259DG     C11 5945   3.292   4.233   1.938  0.8081  0.3396  0.6666
  259DG     C12 5946   3.485   4.655   2.102 -0.7488  0.7361  0.0614
  259DG     H13 5947   3.307   4.125   1.933 -1.1666  0.0222  0.7232
  259DG     H14 5948   3.209   4.255   2.006  0.1179  0.8398 -0.3127
  259DG     H15 5949   3.568   4.681   2.168 -1.0408  0.7014  0.4477
  259DG     H16 5950   3.493   4.717   2.013  0.0544 -0.1814 -0.5256
  259DG     C17 5951   3.418   4.293   2.001  0.1890  0.0286  0.1976
  259DG     C18 5952   3.498   4.498   2.087  0.2745 -0.4468 -0.5273
  259DG     O19 5953   3.404   4.434   2.006  0.3614  0.2141 -0.0245
  259DG     H20 5954   3.496   4.279   1.926 -1.9331  1.0452 -2.3646
  259DG     H21 5955   3.445   4.253   2.099 -1.5144  1.1300  1.1584
  259DG     H22 5956   3.596   4.474   2.045  0.2448 -1.2918 -0.1369
  259DG     H23 5957   3.511   4.465   2.190  0.3634  0.6555 -0.1662
  260DG      C1 5958   0.239   2.002   1.858  0.2663 -0.3128  0.0250
  260DG      C2 5959   0.012   1.415   2.163 -0.1630 -0.1170 -0.2619
  260DG      H3 5960   0.254   2.096   1.912 -0.8110  0.9111 -1.6768
  260DG      H4 5961   0.133   1.999   1.831  0.0686  0.0542  0.7201
  260DG      H5 5962   0.298   2.011   1.767 -1.1863  0.0804 -0.9114
  260DG      H6 5963   0.072   1.326   2.143  1.3587  0.5573  1.0927
  260DG      H7 5964  -0.051   1.413   2.252 -2.0812  0.9482 -1.5335
  260DG      H8 5965  -0.070   1.435   2.095 -0.6117 -2.0689 -0.3719
  260DG      O9 5966   0.253   1.890   1.937  0.1034 -0.4598 -0.2065
  260DG     O10 5967   0.096   1.523   2.168 -0.2811  0.3137 -0.5713
  260DG     C11 5968   0.381   1.861   1.977  0.4314 -0.2721  0.0845
  260DG     C12 5969   0.198   1.511   2.255 -0.6868  0.5992 -0.1096
  260DG     H13 5970   0.444   1.949   1.961  0.3873 -0.2406  0.0845
  260DG     H14 5971   0.422   1.782   1.913 -0.1216 -1.8198  1.5677
  260DG     H15 5972   0.271   1.444   2.210 -1.2205 -0.3684  0.4520
  260DG     H16 5973   0.166   1.469   2.350  2.1915 -0.0257  0.6802
  260DG     C17 5974   0.370   1.815   2.120  0.0980  0.3985  0.3963
  260DG     C18 5975   0.269   1.651   2.266  0.4054 -0.1110 -0.5729
  260DG     O19 5976   0.293   1.698   2.130  0.1171 -0.5965  0.3008
  260DG     H20 5977   0.334   1.898   2.180  2.0803  0.6875  1.2416
  260DG     H21 5978   0.469   1.795   2.159  0.1120 -0.2667  0.0521
  260DG     H22 5979   0.206   1.723   2.318  1.3656  0.0313  0.4322
  260DG     H23 5980   0.366   1.648   2.315  0.2698  4.0436  0.3117
  261DG      C1 5981   4.663   3.586   4.657  0.2780  0.1936 -0.2585
  261DG      C2 5982   4.513   2.997   4.977  0.0548  0.0483 -0.4849
  261DG      H3 5983   4.757   3.593   4.711  0.4351  0.3101 -0.5433
  261DG      H4 5984   4.654   3.679   4.601  1.4759 -0.5066 -1.6848
  261DG      H5 5985   4.686   3.519   4.575  0.6110  0.4146 -0.3499
  261DG      H6 5986   4.556   3.005   5.077  1.1840 -1.3757 -0.8316
  261DG      H7 5987   4.422   2.937   4.981 -1.6283  2.4502 -0.1844
  261DG      H8 5988   4.580   2.961   4.899  0.4138 -0.2583 -0.0393
  261DG      O9 5989   4.549   3.544   4.734  0.0810 -0.4516  0.4039
  261DG     O10 5990   4.458   3.118   4.941  0.1685 -0.5622 -0.2989
  261DG     C11 5991   4.424   3.560   4.656 -0.1862 -0.1444 -0.0103
  261DG     C12 5992   4.369   3.123   4.827  0.4068 -0.3018 -0.4128
  261DG     H13 5993   4.438   3.506   4.563 -2.2297  2.1479 -1.7762
  261DG     H14 5994   4.391   3.663   4.642 -2.1587 -0.5785  1.0930
  261DG     H15 5995   4.300   3.039   4.837 -0.0493  0.3021  1.9666
  261DG     H16 5996   4.420   3.096   4.734 -0.3408  1.9786 -1.5800
  261DG     C17 5997   4.313   3.476   4.727 -0.7457  0.6772  0.4503
  261DG     C18 5998   4.292   3.262   4.807 -1.2413  0.4703 -0.4963
  261DG     O19 5999   4.378   3.351   4.747 -0.3089 -0.0055 -0.4517
  261DG     H20 6000   4.228   3.465   4.659  1.0430  0.5287 -1.8780
  261DG     H21 6001   4.287   3.521   4.823 -0.4344  1.8090  0.0067
  261DG     H22 6002   4.204   3.232   4.748 -1.9410  1.8432 -0.1921
  261DG     H23 6003   4.261   3.307   4.901 -1.9320 -0.8796 -0.0455
  262DG      C1 6004   0.382   4.809   1.003 -0.3178 -0.6477 -0.2066
  262DG      C2 6005   0.464   4.345   0.481 -0.2978  0.2253 -0.1212
  262DG      H3 6006   0.430   4.895   1.051  1.0250 -1.0425 -0.7933
  262DG      H4 6007   0.394   4.717   1.060  2.5296 -1.2792 -1.6348
  262DG      H5 6008   0.274   4.827   1.000  0.1734  3.0174 -0.9945
  262DG      H6 6009   0.366   4.318   0.521 -0.8140  0.8644 -0.9269
  262DG      H7 6010   0.457   4.302   0.381 -0.8749  0.2838 -0.1105
  262DG      H8 6011   0.544   4.298   0.538 -0.0868  1.7629  0.8909
  262DG      O9 6012   0.411   4.786   0.863 -0.5923 -0.4915  0.3447
  262DG     O10 6013   0.487   4.487   0.458 -0.2662 -0.0339  0.2753
  262DG     C11 6014   0.387   4.893   0.769 -0.2713  0.2991 -0.0777
  262DG     C12 6015   0.376   4.564   0.413 -0.1690 -0.1862 -0.1375
  262DG     H13 6016   0.446   4.978   0.803  2.0977 -0.7454 -1.4012
  262DG     H14 6017   0.281   4.921   0.770 -1.2148 -2.9034  0.4107
  262DG     H15 6018   0.280   4.524   0.447  0.6972  0.1498  2.9493
  262DG     H16 6019   0.362   4.548   0.306 -0.9811  0.1338 -0.0894
  262DG     C17 6020   0.434   4.858   0.625  0.2487  0.4384  0.0350
  262DG     C18 6021   0.406   4.710   0.438  0.4038  0.2086 -0.1038
  262DG     O19 6022   0.403   4.727   0.580 -0.4011 -0.5543  0.5500
  262DG     H20 6023   0.541   4.867   0.607  0.3696  0.2159  0.6326
  262DG     H21 6024   0.398   4.931   0.553 -0.1641 -1.4365 -1.7737
  262DG     H22 6025   0.504   4.738   0.401  0.4139  0.3602  0.0344
  262DG     H23 6026   0.341   4.777   0.382 -0.8256  1.2333  2.4033
  263DG      C1 6027   0.452   3.877   2.141 -0.0101  0.0650  0.1875
  263DG      C2 6028   0.921   3.890   2.587  0.5178 -0.0660  0.6431
  263DG      H3 6029   0.496   3.790   2.091 -0.9357  0.1903 -0.8952
  263DG      H4 6030   0.404   3.930   2.059  0.6098 -0.0145 -0.2323
  263DG      H5 6031   0.378   3.842   2.213 -1.8356  1.8342 -0.7137
  263DG      H6 6032   0.999   3.843   2.528 -0.3032 -0.2411 -0.3385
  263DG      H7 6033   0.954   3.929   2.683  1.6403 -1.5212  0.8760
  263DG      H8 6034   0.859   3.801   2.604  0.4464 -0.7927 -2.7107
  263DG      O9 6035   0.558   3.949   2.198 -0.0271  0.6203 -0.0431
  263DG     O10 6036   0.838   3.972   2.509 -0.2359  0.1297  0.5600
  263DG     C11 6037   0.650   4.000   2.106 -0.7142 -0.0217  0.6833
  263DG     C12 6038   0.920   4.074   2.457 -0.8195  0.1418 -0.0461
  263DG     H13 6039   0.595   4.065   2.038 -0.4412 -0.6007 -0.1009
  263DG     H14 6040   0.683   3.928   2.032  0.8882  0.9006  0.4513
  263DG     H15 6041   0.996   4.036   2.388  0.3946  2.0146  0.2118
  263DG     H16 6042   0.970   4.117   2.544 -1.1923 -0.5418  0.5211
  263DG     C17 6043   0.766   4.060   2.191  1.1411  0.8257 -0.7556
  263DG     C18 6044   0.841   4.179   2.390 -0.1394  0.1379 -0.1301
  263DG     O19 6045   0.731   4.116   2.321 -0.3963  0.1288 -0.3597
  263DG     H20 6046   0.806   4.136   2.123  1.0492  2.2141  0.6720
  263DG     H21 6047   0.837   3.978   2.196 -0.1235 -0.4204 -2.1517
  263DG     H22 6048   0.816   4.252   2.468  1.8556  0.1702  0.5527
  263DG     H23 6049   0.899   4.245   2.326  2.3548 -0.1225  1.7024
  264DG      C1 6050   3.528   0.582   0.108 -0.6088 -1.1169 -0.6211
  264DG      C2 6051   2.928   0.575   0.536 -0.0170 -0.5631  0.6090
  264DG      H3 6052   3.476   0.674   0.081 -1.0303 -1.7264 -1.9232
  264DG      H4 6053   3.576   0.548   0.016 -0.1558  0.4775 -1.0127
  264DG      H5 6054   3.601   0.605   0.186 -1.2218  2.3076 -0.8921
  264DG      H6 6055   2.842   0.515   0.564 -0.4680  1.2264  3.4700
  264DG      H7 6056   3.000   0.575   0.617 -0.0820  0.4054  0.6846
  264DG      H8 6057   2.886   0.673   0.510 -0.6403 -0.5916  1.4686
  264DG      O9 6058   3.433   0.492   0.155  0.1885  0.3672 -0.2639
  264DG     O10 6059   2.979   0.524   0.409 -0.4052 -0.2751 -0.6199
  264DG     C11 6060   3.341   0.450   0.060  0.3761  0.2909  0.6099
  264DG     C12 6061   3.028   0.394   0.422  0.5961  0.0519  0.1886
  264DG     H13 6062   3.394   0.401  -0.021 -0.1785 -2.6146  1.8936
  264DG     H14 6063   3.294   0.530   0.002 -0.6917 -1.2244 -0.7328
  264DG     H15 6064   2.942   0.332   0.450  1.0887 -1.3364 -1.2493
  264DG     H16 6065   3.105   0.389   0.499 -0.4206  0.3411  1.2634
  264DG     C17 6066   3.225   0.358   0.115  0.2369 -0.1080 -0.1654
  264DG     C18 6067   3.072   0.331   0.293 -0.2286  0.2251 -0.3152
  264DG     O19 6068   3.172   0.414   0.235  0.5187  0.2544 -0.1939
  264DG     H20 6069   3.269   0.263   0.145  0.9719  0.4221  0.4993
  264DG     H21 6070   3.150   0.348   0.037 -0.2378  1.2933  0.0803
  264DG     H22 6071   3.098   0.228   0.315 -0.9021 -0.1958 -1.4164
  264DG     H23 6072   2.989   0.330   0.222 -0.0692  2.4848 -0.6016
  265DG      C1 6073   2.677   2.602   0.345 -0.6041  0.1318  0.5274
  265DG      C2 6074   3.137   2.797   0.870 -0.4668 -0.5510  0.0169
  265DG      H3 6075   2.671   2.494   0.359 -0.6939  0.1093  0.3191
  265DG      H4 6076   2.686   2.624   0.239 -1.5142  1.0706  0.6280
  265DG      H5 6077   2.581   2.647   0.374 -0.1860  1.1481  0.3814
  265DG      H6 6078   3.098   2.706   0.916 -1.8529  0.9615  2.0387
  265DG      H7 6079   3.246   2.795   0.883 -0.5253 -0.5646  0.5273
  265DG      H8 6080   3.107   2.885   0.927  1.0175  0.5987 -0.8695
  265DG      O9 6081   2.791   2.652   0.419  0.4348  0.6854  0.2946
  265DG     O10 6082   3.092   2.813   0.737  0.3822  0.3898  0.6909
  265DG     C11 6083   2.916   2.622   0.359  0.0534  0.0503 -0.1501
  265DG     C12 6084   3.168   2.898   0.656 -0.4215  0.1569  0.1840
  265DG     H13 6085   2.903   2.590   0.255 -2.6027  2.1138 -0.5488
  265DG     H14 6086   2.975   2.539   0.399  0.0273  0.6465  1.1588
  265DG     H15 6087   3.275   2.875   0.662 -0.4014 -0.0389 -0.8001
  265DG     H16 6088   3.157   2.997   0.698  1.9022  0.6165 -0.1330
  265DG     C17 6089   3.015   2.745   0.368  0.5978 -0.6169 -0.2259
  265DG     C18 6090   3.115   2.895   0.506 -0.1576 -0.2061  0.0833
  265DG     O19 6091   3.033   2.786   0.498  0.1257  0.4373 -0.2688
  265DG     H20 6092   2.973   2.822   0.303 -1.1250 -1.0682  0.2784
  265DG     H21 6093   3.110   2.734   0.316  0.7055 -1.2843  0.1064
  265DG     H22 6094   3.051   2.981   0.481 -0.0697 -0.6121 -1.7081
  265DG     H23 6095   3.204   2.895   0.443  0.4164  1.3783  0.8455
  266DG      C1 6096   1.103   1.378   2.161  0.3720  0.6984  0.1748
  266DG      C2 6097   1.449   1.409   2.964  0.1704 -0.2555 -0.7168
  266DG      H3 6098   1.162   1.310   2.100  0.5578  3.0118 -2.4361
  266DG      H4 6099   1.146   1.477   2.146 -1.1803  1.3801  0.0476
  266DG      H5 6100   1.003   1.389   2.118  0.6688  0.5237 -0.5687
  266DG      H6 6101   1.428   1.352   3.055 -0.4989  1.8767  0.5242
  266DG      H7 6102   1.550   1.378   2.940  0.6004  1.2308 -0.9274
  266DG      H8 6103   1.450   1.512   2.998 -2.5857 -0.2817 -0.3295
  266DG      O9 6104   1.082   1.336   2.300 -0.0628 -0.0785  0.3429
  266DG     O10 6105   1.348   1.393   2.873 -0.0710 -0.5093  0.3343
  266DG     C11 6106   1.177   1.382   2.392 -1.8892 -0.1628 -0.3216
  266DG     C12 6107   1.353   1.264   2.814 -1.0130  0.3028  0.4126
  266DG     H13 6108   1.177   1.490   2.405  0.4571  0.0603 -1.6566
  266DG     H14 6109   1.278   1.355   2.360 -0.7903  2.8723  0.2305
  266DG     H15 6110   1.350   1.191   2.895 -0.9959 -0.0301  0.1164
  266DG     H16 6111   1.445   1.253   2.758 -1.7960  0.5739 -0.9813
  266DG     C17 6112   1.137   1.314   2.521  0.2185 -0.5067  0.4490
  266DG     C18 6113   1.237   1.230   2.725  0.0531 -0.2510  0.5323
  266DG     O19 6114   1.241   1.324   2.616  0.1897 -0.6849  0.0276
  266DG     H20 6115   1.118   1.209   2.502  0.7022 -0.2876 -1.3848
  266DG     H21 6116   1.056   1.360   2.579 -1.1659 -1.0939 -0.9377
  266DG     H22 6117   1.238   1.132   2.678 -1.7411  0.1944 -0.5355
  266DG     H23 6118   1.139   1.227   2.772 -0.3497 -0.0588 -0.2714
  267DG      C1 6119   0.836   0.597   0.229 -0.3656  0.3611 -0.5123
  267DG      C2 6120   0.934   0.437  -0.452 -0.2459  0.1562 -0.0120
  267DG      H3 6121   0.773   0.664   0.288  0.0610  0.2369  0.0912
  267DG      H4 6122   0.909   0.661   0.181 -0.0776  1.9222  1.8427
  267DG      H5 6123   0.883   0.534   0.305 -1.6396  0.4343  0.3903
  267DG      H6 6124   0.984   0.534  -0.451  1.6739 -0.7911 -0.1383
  267DG      H7 6125   1.009   0.366  -0.416 -0.4157  0.2649  0.5719
  267DG      H8 6126   0.906   0.414  -0.555  0.7106  0.7286 -0.4131
  267DG      O9 6127   0.745   0.529   0.145  0.6367  0.2573  0.4091
  267DG     O10 6128   0.821   0.461  -0.376 -0.2378 -0.2496 -0.3651
  267DG     C11 6129   0.677   0.610   0.046 -0.0117  0.3160 -0.7113
  267DG     C12 6130   0.745   0.347  -0.342 -0.3996  0.6842 -0.4028
  267DG     H13 6131   0.750   0.672  -0.005 -0.0618 -1.0765 -2.5790
  267DG     H14 6132   0.607   0.675   0.100  0.4130 -1.0098  1.5772
  267DG     H15 6133   0.802   0.278  -0.279 -3.6509 -1.5947  0.2633
  267DG     H16 6134   0.688   0.284  -0.409 -0.2467 -1.8319  1.6637
  267DG     C17 6135   0.602   0.532  -0.060 -0.4110 -0.1913  0.2497
  267DG     C18 6136   0.638   0.409  -0.249 -0.0537  0.1553  0.6578
  267DG     O19 6137   0.701   0.464  -0.138  0.5401 -0.2604  0.3152
  267DG     H20 6138   0.562   0.612  -0.122  1.9443  0.1084 -1.0060
  267DG     H21 6139   0.518   0.473  -0.023  0.0093 -1.2806 -0.4664
  267DG     H22 6140   0.583   0.477  -0.314  1.3085  0.7679  0.1164
  267DG     H23 6141   0.572   0.327  -0.220  0.6941 -0.9557 -0.6476
  268DG      C1 6142   1.289   3.868   0.337  0.1005  0.3564 -0.3551
  268DG      C2 6143   1.470   3.606  -0.112 -0.4527  0.0656 -0.4034
  268DG      H3 6144   1.245   3.779   0.381 -0.2033 -0.1859 -1.7202
  268DG      H4 6145   1.309   3.863   0.231 -0.2238  2.3118 -0.5551
  268DG      H5 6146   1.208   3.941   0.342 -2.2890 -2.0281 -1.6215
  268DG      H6 6147   1.457   3.500  -0.093  1.1384 -0.0305  0.3965
  268DG      H7 6148   1.375   3.660  -0.116  0.7829  2.8822  2.7634
  268DG      H8 6149   1.518   3.615  -0.209 -0.5512 -0.8376 -0.5451
  268DG      O9 6150   1.397   3.916   0.423 -0.1608  0.1046  0.1739
  268DG     O10 6151   1.566   3.643  -0.010  0.2223 -0.3204 -0.3301
  268DG     C11 6152   1.495   3.813   0.436  0.3376 -0.4740  0.9581
  268DG     C12 6153   1.602   3.780  -0.021  0.3105 -0.3127 -0.4238
  268DG     H13 6154   1.456   3.712   0.443 -0.4000 -0.5077 -2.2830
  268DG     H14 6155   1.543   3.829   0.533 -0.1092 -0.4585  1.1756
  268DG     H15 6156   1.519   3.843  -0.053 -0.5667 -1.5163 -0.5845
  268DG     H16 6157   1.668   3.788  -0.107  1.8525  1.5703  0.8541
  268DG     C17 6158   1.599   3.839   0.332  0.0312 -0.1289 -0.3503
  268DG     C18 6159   1.674   3.812   0.110  0.7048 -0.4240  0.5964
  268DG     O19 6160   1.564   3.804   0.203  0.0070  0.0999  0.4068
  268DG     H20 6161   1.693   3.790   0.354 -0.4250 -0.2146  1.5570
  268DG     H21 6162   1.636   3.941   0.340  0.7287 -0.5044  1.5963
  268DG     H22 6163   1.759   3.743   0.110  1.7398  0.8008  0.5746
  268DG     H23 6164   1.711   3.915   0.109  3.3678 -1.2897  1.4594
  269DG      C1 6165   3.644   4.806   1.570 -0.6016  0.2051  0.0419
  269DG      C2 6166   3.647   4.958   0.845 -0.1090 -0.0222 -0.7150
  269DG      H3 6167   3.584   4.754   1.495  1.2945  0.7244 -1.9219
  269DG      H4 6168   3.592   4.824   1.664  0.6740  1.4051  0.5420
  269DG      H5 6169   3.725   4.736   1.592  0.2428 -0.0990 -3.5168
  269DG      H6 6170   3.559   4.945   0.782 -0.3412 -1.4403 -0.1435
  269DG      H7 6171   3.709   5.044   0.818  1.0258 -0.0908  1.4613
  269DG      H8 6172   3.705   4.868   0.825 -0.4242  0.1821 -2.7622
  269DG      O9 6173   3.711   4.916   1.502 -0.0198 -0.3603 -0.6406
  269DG     O10 6174   3.607   4.953   0.982 -0.7822  0.2340  0.3319
  269DG     C11 6175   3.624   5.028   1.482 -0.1041 -0.2440  0.3998
  269DG     C12 6176   3.562   4.834   1.047 -0.5709  0.4583  0.6461
  269DG     H13 6177   3.680   5.119   1.458  1.0800 -0.5279  1.9696
  269DG     H14 6178   3.577   5.058   1.575 -1.2938 -0.1980 -0.1880
  269DG     H15 6179   3.646   4.765   1.056 -1.4170 -0.5305  1.0223
  269DG     H16 6180   3.490   4.792   0.977 -0.1942  0.9412 -0.0493
  269DG     C17 6181   3.520   4.996   1.381  0.3770  0.1517  0.4381
  269DG     C18 6182   3.490   4.876   1.178 -0.0182  0.2013  0.0790
  269DG     O19 6183   3.583   4.940   1.265 -0.6045 -0.9119  0.1914
  269DG     H20 6184   3.474   5.092   1.359 -0.5721 -0.3148  0.3551
  269DG     H21 6185   3.442   4.928   1.414 -0.4509  2.4299  3.6857
  269DG     H22 6186   3.408   4.943   1.156  0.7881  1.9480  2.0500
  269DG     H23 6187   3.440   4.794   1.230 -1.6160  0.5697 -0.8311
  270DG      C1 6188   0.931   0.951   0.623  0.4148 -0.0228 -0.9166
  270DG      C2 6189   0.498   1.524   0.405 -0.5133  0.7885 -0.2637
  270DG      H3 6190   0.822   0.961   0.625  0.5339  1.3623 -0.3843
  270DG      H4 6191   0.949   0.940   0.730 -3.1711 -1.9474 -0.3392
  270DG      H5 6192   0.962   0.858   0.577  0.2035 -1.6279  1.9217
  270DG      H6 6193   0.397   1.484   0.390  0.7930 -2.0666 -2.4576
  270DG      H7 6194   0.522   1.549   0.508 -0.0963 -0.1295 -0.1224
  270DG      H8 6195   0.516   1.613   0.345  1.0839  0.1416 -0.7947
  270DG      O9 6196   0.987   1.067   0.568  0.2472 -0.4719 -0.0720
  270DG     O10 6197   0.584   1.424   0.375  0.1538 -0.2339  0.2718
  270DG     C11 6198   0.983   1.072   0.426  0.6163 -0.2380 -0.0793
  270DG     C12 6199   0.714   1.440   0.422  0.1268 -0.6719  0.2847
  270DG     H13 6200   0.878   1.049   0.406  0.5332 -0.5106  0.6466
  270DG     H14 6201   1.034   0.993   0.371 -2.4866 -1.6232 -1.2118
  270DG     H15 6202   0.714   1.454   0.530 -2.7498  0.5847  0.2089
  270DG     H16 6203   0.751   1.532   0.376  0.0029 -2.2618 -3.4082
  270DG     C17 6204   1.007   1.219   0.376 -0.3804  0.0474 -0.3396
  270DG     C18 6205   0.787   1.313   0.382  0.2425 -0.1079  0.2152
  270DG     O19 6206   0.917   1.318   0.427  0.4620  0.4584 -0.7055
  270DG     H20 6207   1.014   1.209   0.268 -1.7013 -2.3996 -0.2928
  270DG     H21 6208   1.106   1.243   0.416  1.0744 -1.9834 -2.4419
  270DG     H22 6209   0.746   1.221   0.424  0.3002 -0.1555  0.1687
  270DG     H23 6210   0.778   1.292   0.275  3.1216 -2.3273  0.2746
  271DG      C1 6211   3.630   3.170   2.121 -0.0278 -0.0677 -0.0654
  271DG      C2 6212   3.922   2.946   2.824 -0.5523  0.1179  0.4546
  271DG      H3 6213   3.529   3.202   2.146  0.5859  2.1551 -0.2207
  271DG      H4 6214   3.638   3.061   2.121  0.9926 -0.0182  1.3442
  271DG      H5 6215   3.646   3.203   2.018 -1.8790 -2.7162 -1.3379
  271DG      H6 6216   3.846   2.889   2.876 -0.5523 -0.1393  0.1727
  271DG      H7 6217   3.978   2.862   2.784 -0.5901 -0.5180  1.7251
  271DG      H8 6218   3.986   2.999   2.894 -0.8587 -0.4039  1.1330
  271DG      O9 6219   3.739   3.222   2.196  0.2512  0.6445  0.3767
  271DG     O10 6220   3.882   3.031   2.716  0.0641 -0.3333 -0.4454
  271DG     C11 6221   3.754   3.170   2.332  0.3684  0.4952 -1.0283
  271DG     C12 6222   3.807   3.143   2.767 -0.0048  0.4669  0.5175
  271DG     H13 6223   3.849   3.199   2.376 -0.4354  4.0063 -1.3420
  271DG     H14 6224   3.755   3.061   2.329  0.9705  0.4864 -0.4804
  271DG     H15 6225   3.872   3.200   2.833  1.9566 -1.0096 -0.0371
  271DG     H16 6226   3.716   3.118   2.822 -1.4153 -1.4279 -2.4433
  271DG     C17 6227   3.647   3.219   2.437 -0.2252  0.1379  0.0577
  271DG     C18 6228   3.765   3.228   2.648  0.3768 -0.6118  0.5383
  271DG     O19 6229   3.671   3.161   2.562  0.2708  0.6288 -0.0344
  271DG     H20 6230   3.547   3.197   2.401  0.1661  0.1678 -1.0935
  271DG     H21 6231   3.652   3.326   2.455 -2.1218  0.5962 -1.7840
  271DG     H22 6232   3.717   3.319   2.686  1.7592  0.2964  0.2002
  271DG     H23 6233   3.851   3.250   2.584 -1.4840  1.5887 -1.4088
  272DG      C1 6234   4.907   1.289   0.197 -0.2121 -0.4551 -0.4898
  272DG      C2 6235   5.245   0.570   0.154 -0.4197 -0.3714 -0.0355
  272DG      H3 6236   4.927   1.301   0.090 -0.4034 -1.0518 -0.5951
  272DG      H4 6237   4.933   1.381   0.251  2.8113 -1.1315 -0.6145
  272DG      H5 6238   4.803   1.265   0.220 -0.1683 -1.1067 -0.9467
  272DG      H6 6239   5.177   0.491   0.185 -0.8948  0.1896  0.3725
  272DG      H7 6240   5.233   0.609   0.052  1.1215  1.0773  0.2983
  272DG      H8 6241   5.341   0.520   0.154 -1.1710 -1.9370  1.9772
  272DG      O9 6242   4.984   1.183   0.246  0.0391  0.2433  0.3328
  272DG     O10 6243   5.229   0.685   0.228 -0.2201 -0.0370  0.0893
  272DG     C11 6244   5.124   1.207   0.245 -0.4446 -0.2097  0.3682
  272DG     C12 6245   5.339   0.777   0.207  0.3468 -0.3163  0.6894
  272DG     H13 6246   5.156   1.308   0.270 -1.0069  0.0898 -0.1114
  272DG     H14 6247   5.160   1.189   0.143  3.4177  0.5280  1.4098
  272DG     H15 6248   5.321   0.818   0.107 -2.9272  0.3953  1.4441
  272DG     H16 6249   5.440   0.741   0.223  0.3326 -0.2859  0.8513
  272DG     C17 6250   5.196   1.108   0.337  0.0401 -0.3755 -0.2511
  272DG     C18 6251   5.319   0.901   0.307  0.8376  0.1072  0.4090
  272DG     O19 6252   5.209   0.984   0.262 -0.1765  0.4946  0.0232
  272DG     H20 6253   5.143   1.103   0.432  0.1402 -0.8145 -0.2187
  272DG     H21 6254   5.296   1.152   0.345 -0.6344  1.3451 -0.8414
  272DG     H22 6255   5.288   0.871   0.407 -1.1577 -0.4625 -0.3290
  272DG     H23 6256   5.414   0.954   0.301  0.0983  1.3071 -1.9967
  273DG      C1 6257   2.520   3.994   1.653  0.4490  0.1312  0.7390
  273DG      C2 6258   2.213   3.971   0.827  0.1092 -0.9156  0.2738
  273DG      H3 6259   2.445   4.070   1.674  2.3279  3.2464 -2.7101
  273DG      H4 6260   2.582   4.019   1.739  1.1283 -0.7866  0.5330
  273DG      H5 6261   2.481   3.892   1.655 -1.5196  0.8122  0.1417
  273DG      H6 6262   2.264   3.977   0.730 -0.9224 -0.0900 -0.2418
  273DG      H7 6263   2.159   3.877   0.817  1.8910 -1.9488 -0.1384
  273DG      H8 6264   2.144   4.052   0.851  1.3501  1.2579 -2.7434
  273DG      O9 6265   2.580   4.012   1.524 -0.2924 -0.3763  0.5739
  273DG     O10 6266   2.314   3.958   0.929  0.3484 -0.2781 -0.0262
  273DG     C11 6267   2.482   4.016   1.424 -0.1995  0.2059 -0.7551
  273DG     C12 6268   2.400   4.068   0.947 -0.2221 -0.0882  0.1674
  273DG     H13 6269   2.404   4.088   1.451 -0.0591 -0.6035  2.2406
  273DG     H14 6270   2.433   3.919   1.431  0.7764 -0.1868  3.3178
  273DG     H15 6271   2.346   4.157   0.980  0.0181  0.6123 -1.2386
  273DG     H16 6272   2.438   4.101   0.850 -0.7746 -0.1539 -0.0738
  273DG     C17 6273   2.547   4.029   1.286 -0.9777 -0.4702 -0.0348
  273DG     C18 6274   2.514   4.045   1.055  0.2536 -0.1550  0.6192
  273DG     O19 6275   2.448   4.021   1.180  0.3162  0.0986  0.0319
  273DG     H20 6276   2.627   3.960   1.258  0.1780  0.2189  1.4124
  273DG     H21 6277   2.593   4.127   1.286 -0.1850 -0.7288  2.9804
  273DG     H22 6278   2.590   3.972   1.028  1.2850  0.4092  1.9006
  273DG     H23 6279   2.574   4.135   1.063  1.1873 -0.5829 -0.9583
  274DG      C1 6280   2.937   1.606   1.163  0.6233 -0.0518  0.2167
  274DG      C2 6281   2.642   1.310   0.668 -0.0543  0.2305 -0.3801
  274DG      H3 6282   3.013   1.644   1.095 -0.5707 -1.9137 -2.3437
  274DG      H4 6283   2.994   1.619   1.254  1.5267 -0.7569 -0.2328
  274DG      H5 6284   2.849   1.670   1.170  2.2419  2.1582  1.2711
  274DG      H6 6285   2.567   1.254   0.612 -0.5397 -0.0578  0.5412
  274DG      H7 6286   2.596   1.408   0.682 -1.6585 -0.6689  0.9634
  274DG      H8 6287   2.729   1.337   0.607  1.7687  1.0266  2.3928
  274DG      O9 6288   2.891   1.471   1.128 -0.0213  0.5709  0.1901
  274DG     O10 6289   2.689   1.260   0.792 -0.7651  0.3129 -0.0198
  274DG     C11 6290   2.828   1.418   1.245 -0.0226 -0.1398  0.1639
  274DG     C12 6291   2.582   1.226   0.883  0.2519 -0.1971 -0.3795
  274DG     H13 6292   2.747   1.484   1.276  0.9901  0.8509  0.7855
  274DG     H14 6293   2.884   1.400   1.337 -0.4740  0.9447  0.6716
  274DG     H15 6294   2.529   1.142   0.838  2.0159 -1.9988  0.7197
  274DG     H16 6295   2.521   1.316   0.894 -0.2254 -0.5902  0.2637
  274DG     C17 6296   2.777   1.284   1.186 -0.0172  0.1162 -0.5499
  274DG     C18 6297   2.636   1.193   1.020  0.2473 -0.0832  0.0687
  274DG     O19 6298   2.692   1.313   1.077 -0.2179  0.7137 -0.6876
  274DG     H20 6299   2.721   1.234   1.265 -0.5202  2.2795  0.5363
  274DG     H21 6300   2.867   1.227   1.165 -0.4427 -0.8751  0.2272
  274DG     H22 6301   2.555   1.158   1.084  1.6054 -0.7958  1.4823
  274DG     H23 6302   2.705   1.109   1.023  2.2266  1.4782  2.0105
  275DG      C1 6303   1.689   5.083   2.838  0.3941  0.4999 -0.3689
  275DG      C2 6304   2.204   5.266   2.870 -0.6665 -0.4946  0.5307
  275DG      H3 6305   1.689   5.119   2.735 -0.9638  0.4901 -0.3854
  275DG      H4 6306   1.701   4.974   2.843 -1.9765  0.2492  1.5590
  275DG      H5 6307   1.783   5.107   2.888  0.4958 -0.3020 -0.1560
  275DG      H6 6308   2.212   5.263   2.762 -1.1787  1.5821  0.4004
  275DG      H7 6309   2.295   5.311   2.910  1.3742 -1.2414 -2.8485
  275DG      H8 6310   2.198   5.165   2.910  0.1017 -1.2056 -1.0870
  275DG      O9 6311   1.589   5.134   2.919  0.1239  0.3198 -0.4664
  275DG     O10 6312   2.090   5.348   2.885 -0.3653  0.2503 -0.1070
  275DG     C11 6313   1.575   5.276   2.917  0.1802  0.1573 -0.0240
  275DG     C12 6314   2.032   5.339   3.018  0.6618  0.0645 -0.1060
  275DG     H13 6315   1.470   5.293   2.941  0.7087  1.2144  1.8045
  275DG     H14 6316   1.591   5.316   2.817 -1.1823  1.1393  0.1213
  275DG     H15 6317   2.084   5.387   3.101 -1.8873  1.0208  1.0411
  275DG     H16 6318   2.021   5.233   3.043  2.1681  0.7872  4.6430
  275DG     C17 6319   1.667   5.355   3.007  0.5712 -0.2647 -0.0194
  275DG     C18 6320   1.897   5.408   3.020  0.1876 -0.9799 -0.1939
  275DG     O19 6321   1.796   5.329   2.960 -0.5496  0.4359  0.3015
  275DG     H20 6322   1.647   5.338   3.113 -0.2128  1.6223  0.1861
  275DG     H21 6323   1.641   5.459   2.986  1.5697  0.4035  1.8149
  275DG     H22 6324   1.880   5.444   3.122  2.3795  0.1367 -0.1718
  275DG     H23 6325   1.904   5.500   2.963 -0.9443 -0.0733  1.0416
  276DG      C1 6326   4.904   0.446   4.795  0.3878 -0.3523  0.5284
  276DG      C2 6327   4.748   0.990   4.619 -0.0439  0.2864 -1.0364
  276DG      H3 6328   4.838   0.456   4.708  2.0720 -2.7209 -1.1477
  276DG      H4 6329   4.862   0.405   4.886  0.9414  1.5412  1.6913
  276DG      H5 6330   4.984   0.379   4.764 -1.0997 -1.9241 -0.0506
  276DG      H6 6331   4.754   0.941   4.521  0.7878  0.0372 -0.8691
  276DG      H7 6332   4.651   0.968   4.664  0.5474  1.4524  0.8645
  276DG      H8 6333   4.774   1.094   4.604 -0.0430  0.6026  0.9233
  276DG      O9 6334   4.953   0.571   4.825  0.4360 -0.7074  0.2803
  276DG     O10 6335   4.856   0.943   4.694  0.4143  0.6063  0.2753
  276DG     C11 6336   4.989   0.583   4.966 -0.5255  0.4927 -0.2863
  276DG     C12 6337   4.891   1.012   4.810  0.2576 -0.2802 -0.4042
  276DG     H13 6338   5.058   0.504   4.996  0.9402  2.4014  1.6312
  276DG     H14 6339   4.894   0.591   5.020 -0.7305  1.8471 -0.8087
  276DG     H15 6340   4.807   1.024   4.879  0.4604 -0.2079 -0.1682
  276DG     H16 6341   4.925   1.112   4.784  0.1595 -0.6704 -2.1510
  276DG     C17 6342   5.045   0.729   4.971 -0.1611 -0.0358 -0.3221
  276DG     C18 6343   5.002   0.939   4.890  0.0304  0.0098 -0.1033
  276DG     O19 6344   4.957   0.812   4.908  0.1397  0.1437 -0.1195
  276DG     H20 6345   5.146   0.729   4.930 -0.0651 -1.9221 -0.1748
  276DG     H21 6346   5.066   0.756   5.075  1.2591  1.7319 -1.0190
  276DG     H22 6347   5.093   0.935   4.829  0.2462  0.6134  0.1672
  276DG     H23 6348   5.021   0.984   4.987 -0.7166 -1.6993  0.8728
  277DG      C1 6349   4.241   1.892   0.783 -0.9273 -0.5049  0.3366
  277DG      C2 6350   4.705   2.268   0.771  0.4063 -0.3780  0.0924
  277DG      H3 6351   4.158   1.963   0.786 -0.1962  0.3533  1.1646
  277DG      H4 6352   4.272   1.870   0.885  0.1821 -0.8838 -0.0683
  277DG      H5 6353   4.206   1.804   0.730  0.1280 -1.1525  0.6835
  277DG      H6 6354   4.740   2.241   0.870 -3.2425 -2.2815  1.0491
  277DG      H7 6355   4.691   2.376   0.776 -1.2243 -0.5714  0.1858
  277DG      H8 6356   4.607   2.234   0.739 -0.7656  2.6926  0.0956
  277DG      O9 6357   4.342   1.945   0.703 -0.7185 -0.5243  0.8970
  277DG     O10 6358   4.799   2.242   0.676 -0.3439 -0.0633  0.3222
  277DG     C11 6359   4.461   1.865   0.711 -0.4139 -0.1049 -0.6167
  277DG     C12 6360   4.749   2.212   0.547 -0.1603 -0.4118 -0.2274
  277DG     H13 6361   4.429   1.762   0.697  2.4846 -1.4562  1.8474
  277DG     H14 6362   4.507   1.887   0.807  0.9818 -1.0783 -1.0381
  277DG     H15 6363   4.822   2.219   0.467 -0.7873  1.3752 -0.6892
  277DG     H16 6364   4.662   2.274   0.525  1.0475  0.9569 -1.3212
  277DG     C17 6365   4.557   1.901   0.597  0.1995  1.1172 -0.3991
  277DG     C18 6366   4.717   2.068   0.532 -0.0593  0.2014 -0.2213
  277DG     O19 6367   4.616   2.028   0.631 -0.1789 -0.0444  0.2027
  277DG     H20 6368   4.500   1.895   0.505 -3.3991  1.3351  1.6200
  277DG     H21 6369   4.634   1.824   0.583  3.0801  3.5060  1.1650
  277DG     H22 6370   4.675   2.048   0.434  3.3082  0.2858 -1.8124
  277DG     H23 6371   4.805   2.004   0.536 -0.0144  0.3045  0.8717
  278DG      C1 6372   2.306   2.568   5.402 -0.4995  0.9508  1.3465
  278DG      C2 6373   2.196   1.744   5.395 -0.2060  0.3576 -0.3155
  278DG      H3 6374   2.352   2.572   5.501  1.5086  0.3301  0.4821
  278DG      H4 6375   2.203   2.604   5.405 -0.8979 -0.2099  2.5743
  278DG      H5 6376   2.349   2.637   5.328 -1.7456 -0.6964 -1.0487
  278DG      H6 6377   2.243   1.740   5.493 -1.4369 -1.1368  0.2397
  278DG      H7 6378   2.098   1.790   5.410 -0.3341 -0.0967  0.2545
  278DG      H8 6379   2.192   1.645   5.350  0.4496 -0.2744  0.9695
  278DG      O9 6380   2.315   2.441   5.332 -0.1649 -0.0007 -0.5146
  278DG     O10 6381   2.276   1.821   5.309 -0.1408  0.1641 -0.0686
  278DG     C11 6382   2.446   2.389   5.314 -0.2153  0.2429  0.2570
  278DG     C12 6383   2.308   1.948   5.360 -0.0414 -0.3303 -0.4572
  278DG     H13 6384   2.496   2.391   5.412 -0.1609  3.9164  0.2930
  278DG     H14 6385   2.493   2.458   5.244  0.5028 -0.9967 -0.5149
  278DG     H15 6386   2.378   1.952   5.444  1.0015  2.4312 -1.3672
  278DG     H16 6387   2.213   1.987   5.396  0.2617 -2.1705  2.7393
  278DG     C17 6388   2.442   2.261   5.235  0.1699 -0.3604  0.6435
  278DG     C18 6389   2.359   2.038   5.243 -0.2292  0.4054 -0.5812
  278DG     O19 6390   2.364   2.165   5.306 -0.0840 -0.2930  0.0981
  278DG     H20 6391   2.541   2.218   5.219 -0.3001 -0.7643 -1.6148
  278DG     H21 6392   2.404   2.270   5.133  1.0765 -2.1109  0.1101
  278DG     H22 6393   2.460   1.999   5.231 -0.9433 -1.6831 -0.2394
  278DG     H23 6394   2.301   2.033   5.151 -0.3805 -1.1017 -0.4255
  279DG      C1 6395   4.541   1.728   1.650 -0.2509 -1.1661  0.6829
  279DG      C2 6396   4.540   1.357   2.347 -0.1576  0.4300 -0.1224
  279DG      H3 6397   4.509   1.811   1.711  0.2924  0.0233 -0.5888
  279DG      H4 6398   4.480   1.720   1.560 -1.0088 -2.8468  1.3023
  279DG      H5 6399   4.642   1.752   1.615 -0.9102  1.1103  0.2239
  279DG      H6 6400   4.487   1.270   2.386  0.3339  0.0502 -0.2955
  279DG      H7 6401   4.646   1.352   2.372 -0.3499  1.7913  1.0810
  279DG      H8 6402   4.506   1.456   2.377  1.5217  1.6100 -1.8291
  279DG      O9 6403   4.551   1.600   1.713 -0.0217 -0.0220  1.0571
  279DG     O10 6404   4.525   1.354   2.208  0.0770  0.2661  0.0873
  279DG     C11 6405   4.430   1.521   1.710  0.0686  0.0336 -0.1450
  279DG     C12 6406   4.591   1.461   2.145 -0.0348 -0.4115  0.0077
  279DG     H13 6407   4.419   1.498   1.604  2.2421 -2.0916 -0.0172
  279DG     H14 6408   4.336   1.568   1.739 -0.6051 -1.4512  0.2099
  279DG     H15 6409   4.688   1.493   2.182 -0.2248  0.7517 -0.4679
  279DG     H16 6410   4.540   1.555   2.168  0.1866 -0.2068 -0.3339
  279DG     C17 6411   4.441   1.394   1.800 -0.1525 -0.0906 -0.2495
  279DG     C18 6412   4.583   1.443   1.990  0.0392  0.0672 -0.0962
  279DG     O19 6413   4.456   1.419   1.936  0.1478 -0.6733 -0.0882
  279DG     H20 6414   4.521   1.332   1.759  0.7516  1.1269 -0.3845
  279DG     H21 6415   4.346   1.342   1.786 -0.0681 -0.6219  1.0341
  279DG     H22 6416   4.625   1.533   1.946  2.1598 -0.2571  1.1095
  279DG     H23 6417   4.647   1.359   1.963 -0.7855 -0.3444 -0.7952
  280DG      C1 6418   5.095   5.247   4.237  0.5785  0.2062  0.2508
  280DG      C2 6419   4.835   4.685   4.774 -0.3243  0.1489  0.1578
  280DG      H3 6420   5.192   5.273   4.194  0.6606 -0.6474 -0.0906
  280DG      H4 6421   5.102   5.289   4.337  3.9420  1.7336 -0.4655
  280DG      H5 6422   5.014   5.299   4.186  0.1863 -0.2888  0.3695
  280DG      H6 6423   4.921   4.686   4.841 -0.8656 -1.9528  0.9381
  280DG      H7 6424   4.769   4.763   4.813 -1.7835 -1.3725  0.8692
  280DG      H8 6425   4.788   4.588   4.789  0.5709 -0.5340 -1.1930
  280DG      O9 6426   5.080   5.109   4.229 -0.0139 -0.3167 -0.6544
  280DG     O10 6427   4.852   4.722   4.638  0.1960  0.0466  0.4175
  280DG     C11 6428   4.954   5.067   4.255 -0.1954 -0.5472  0.6926
  280DG     C12 6429   4.986   4.738   4.605 -0.6956 -0.0909  0.0548
  280DG     H13 6430   4.896   5.099   4.169 -0.7796 -1.5039  0.7215
  280DG     H14 6431   4.910   5.118   4.341  0.2101  0.6589  0.2073
  280DG     H15 6432   5.043   4.647   4.624  1.4691  1.4972  1.5784
  280DG     H16 6433   5.032   4.816   4.665  2.5660 -1.6901 -0.1787
  280DG     C17 6434   4.955   4.920   4.284  0.1618  0.1057  0.4754
  280DG     C18 6435   4.995   4.759   4.452 -0.3774 -0.7815 -0.2678
  280DG     O19 6436   4.992   4.895   4.418  0.2394 -0.9242  0.1996
  280DG     H20 6437   5.006   4.862   4.206  1.7118  2.8289 -0.6686
  280DG     H21 6438   4.851   4.888   4.275 -0.4066  2.2634 -2.0499
  280DG     H22 6439   5.081   4.714   4.401  0.6448 -0.6893  1.3164
  280DG     H23 6440   4.914   4.700   4.409  0.8715 -1.1467 -2.2450
  281DG      C1 6441   4.216   2.237   1.049  0.0945  0.2653  0.5965
  281DG      C2 6442   4.319   2.005   1.604 -0.5072  0.0136 -0.2178
  281DG      H3 6443   4.295   2.312   1.058 -0.1087  0.4682  0.6919
  281DG      H4 6444   4.202   2.222   0.942  1.5927  0.0730  0.4084
  281DG      H5 6445   4.264   2.155   1.102 -1.0542  0.5242  2.1167
  281DG      H6 6446   4.352   2.007   1.500 -2.3529  1.8323 -0.8226
  281DG      H7 6447   4.387   2.043   1.681 -1.4497  2.2031 -0.4101
  281DG      H8 6448   4.279   1.905   1.622  0.8967 -0.5495 -0.1210
  281DG      O9 6449   4.099   2.294   1.115 -0.2288  0.3777  0.8707
  281DG     O10 6450   4.213   2.095   1.583  0.0068  0.2044  0.9334
  281DG     C11 6451   3.994   2.201   1.130  0.4576  0.3610  0.0965
  281DG     C12 6452   4.097   2.026   1.537 -0.5081  0.3080 -0.1635
  281DG     H13 6453   3.987   2.138   1.041  0.7243  0.6950 -0.1608
  281DG     H14 6454   3.901   2.254   1.150 -0.4921 -1.1463 -0.1935
  281DG     H15 6455   4.065   1.969   1.624 -1.2978  0.7011 -0.1841
  281DG     H16 6456   4.117   1.954   1.458 -0.3609 -1.2025  1.1855
  281DG     C17 6457   4.007   2.117   1.251 -0.8425 -0.3772 -0.7470
  281DG     C18 6458   3.995   2.130   1.486  0.0846 -0.3466 -0.2985
  281DG     O19 6459   4.026   2.200   1.367  0.3303  0.7388  0.3516
  281DG     H20 6460   4.098   2.057   1.251  0.3069  1.2807  0.2706
  281DG     H21 6461   3.918   2.055   1.257 -1.0412  0.0439  1.9684
  281DG     H22 6462   3.895   2.090   1.471  0.3691 -0.8774 -0.7747
  281DG     H23 6463   3.983   2.205   1.564 -1.2521  1.4121 -2.0742
  282DG      C1 6464   2.333   0.412   3.246 -0.2494 -0.0588 -0.2306
  282DG      C2 6465   2.825   0.013   3.012 -0.3184 -0.0278  0.2250
  282DG      H3 6466   2.283   0.405   3.150 -0.8183 -1.3223  0.1447
  282DG      H4 6467   2.407   0.489   3.269 -2.2448  1.3770  1.9036
  282DG      H5 6468   2.255   0.428   3.320  0.3991  0.2154  0.4111
  282DG      H6 6469   2.902   0.080   3.050  0.3474 -0.6108 -0.0780
  282DG      H7 6470   2.879  -0.079   2.992  1.3249  1.0823 -0.6340
  282DG      H8 6471   2.788   0.035   2.912 -3.5965 -0.5142  1.1825
  282DG      O9 6472   2.402   0.291   3.272  0.6484  0.0107 -0.0247
  282DG     O10 6473   2.718   0.008   3.100  0.3897  0.2997  0.0785
  282DG     C11 6474   2.314   0.179   3.307  0.5070  0.4017 -1.0835
  282DG     C12 6475   2.611  -0.076   3.057  0.1635  0.4670 -0.2832
  282DG     H13 6476   2.226   0.172   3.243 -2.2416 -0.0790  2.4251
  282DG     H14 6477   2.263   0.191   3.402 -1.2061  0.7499 -2.0005
  282DG     H15 6478   2.648  -0.172   3.023 -0.7007 -0.6121  1.6815
  282DG     H16 6479   2.562  -0.027   2.972 -0.1664  1.8655  0.6822
  282DG     C17 6480   2.394   0.053   3.316  0.3865  0.7226  0.2549
  282DG     C18 6481   2.513  -0.091   3.165 -0.6744  0.0816 -0.3629
  282DG     O19 6482   2.464   0.037   3.194 -0.0574  0.2789  0.3332
  282DG     H20 6483   2.333  -0.035   3.338  0.0129  1.4128  2.1423
  282DG     H21 6484   2.460   0.049   3.402  1.6210  2.5072 -0.5610
  282DG     H22 6485   2.434  -0.159   3.132 -1.8071  1.9425 -1.7182
  282DG     H23 6486   2.558  -0.138   3.252 -1.6432 -1.0033 -0.4191
  283DG      C1 6487   3.918   3.053   5.447 -0.2916  0.3528  0.2804
  283DG      C2 6488   3.685   2.630   4.918  0.1768 -0.7609 -0.0979
  283DG      H3 6489   4.019   3.019   5.425 -0.2399 -0.4824  1.6675
  283DG      H4 6490   3.915   3.055   5.556 -3.2769 -2.3311  0.4090
  283DG      H5 6491   3.907   3.154   5.408 -3.4900  0.2680  0.6569
  283DG      H6 6492   3.758   2.552   4.937  1.1494  0.5647  1.9973
  283DG      H7 6493   3.599   2.588   4.865 -1.0288 -0.6723  1.6992
  283DG      H8 6494   3.731   2.704   4.852 -0.0480  0.2344  0.8245
  283DG      O9 6495   3.815   2.972   5.388  0.7980 -0.2043 -0.1971
  283DG     O10 6496   3.655   2.700   5.043 -0.0791  0.0216 -0.2896
  283DG     C11 6497   3.682   3.006   5.434  0.5358 -0.0044 -0.5098
  283DG     C12 6498   3.528   2.746   5.051  0.4086 -0.3315 -0.4587
  283DG     H13 6499   3.658   3.095   5.376 -1.2509  0.0521  0.2375
  283DG     H14 6500   3.671   3.035   5.538  0.7491  0.0489 -0.5006
  283DG     H15 6501   3.452   2.670   5.035 -1.2275  0.9584  0.7177
  283DG     H16 6502   3.526   2.831   4.983 -0.2912 -1.9477 -2.5596
  283DG     C17 6503   3.576   2.900   5.387 -0.3134 -0.2498 -1.1386
  283DG     C18 6504   3.504   2.781   5.200  0.3296 -0.2029 -0.3713
  283DG     O19 6505   3.604   2.860   5.256 -0.0216 -0.2766  0.3101
  283DG     H20 6506   3.472   2.930   5.395 -1.1441 -3.2168  1.0706
  283DG     H21 6507   3.591   2.817   5.457 -0.6848  1.1547  0.6699
  283DG     H22 6508   3.414   2.841   5.211  0.3652 -0.2768  0.4236
  283DG     H23 6509   3.507   2.685   5.253 -1.3835  0.3829  0.9145
  284DG      C1 6510   1.932   4.563   1.428 -0.0290 -0.0472  0.2919
  284DG      C2 6511   2.060   3.945   1.544 -0.8443 -0.1798  0.0802
  284DG      H3 6512   2.026   4.617   1.424  1.5174 -2.6426 -1.4147
  284DG      H4 6513   1.849   4.631   1.449  0.8495  1.5516 -1.1769
  284DG      H5 6514   1.918   4.522   1.327  0.1494 -1.8707  0.9617
  284DG      H6 6515   2.141   3.904   1.605 -0.3854  0.2087 -0.2588
  284DG      H7 6516   1.981   3.870   1.539  0.9465 -2.0964 -0.9567
  284DG      H8 6517   2.109   3.969   1.450 -1.1525  1.0643  0.2277
  284DG      O9 6518   1.930   4.464   1.526  0.6056 -0.5848  0.1296
  284DG     O10 6519   2.003   4.063   1.594 -0.2130 -0.5328  0.2920
  284DG     C11 6520   1.948   4.517   1.656 -0.1824  0.3732 -0.6399
  284DG     C12 6521   1.960   4.046   1.727  0.2981  0.1908  0.0133
  284DG     H13 6522   1.882   4.596   1.692 -0.3967 -0.8975  2.0578
  284DG     H14 6523   2.054   4.541   1.667 -0.5164  1.5980  0.0155
  284DG     H15 6524   2.043   4.015   1.790 -0.3343 -1.8191 -0.0614
  284DG     H16 6525   1.881   3.973   1.747  2.9171 -3.2048 -1.0700
  284DG     C17 6526   1.905   4.410   1.759  0.0131  0.3255 -0.3927
  284DG     C18 6527   1.895   4.179   1.782  0.0607  0.5329  0.5956
  284DG     O19 6528   1.955   4.284   1.714 -0.4983 -0.3220  0.3436
  284DG     H20 6529   1.797   4.403   1.759  0.0691 -1.0165  1.2228
  284DG     H21 6530   1.927   4.434   1.863  1.3780 -0.4036 -0.4831
  284DG     H22 6531   1.789   4.173   1.758  0.2190  0.1778 -0.0215
  284DG     H23 6532   1.900   4.184   1.891 -0.2892 -0.0155  0.6388
  285DG      C1 6533   1.234   0.394   4.830  0.1032 -0.8081 -0.3737
  285DG      C2 6534   1.182  -0.015   5.106 -0.6933 -0.4175 -0.2422
  285DG      H3 6535   1.186   0.489   4.856  0.6986 -0.5193 -0.3289
  285DG      H4 6536   1.162   0.338   4.771  0.3134  0.9573 -2.4234
  285DG      H5 6537   1.318   0.414   4.764  0.2669  0.0764  0.0892
  285DG      H6 6538   1.181   0.093   5.094  1.0907 -0.6347 -3.1155
  285DG      H7 6539   1.178  -0.065   5.009 -1.6199  1.0620 -0.9928
  285DG      H8 6540   1.088  -0.030   5.160 -0.7528 -1.0353 -0.5067
  285DG      O9 6541   1.277   0.323   4.945 -0.0994  0.4309  0.0140
  285DG     O10 6542   1.301  -0.047   5.180  0.4163  0.8859  0.3386
  285DG     C11 6543   1.375   0.396   5.017  0.2862  0.1194  0.1813
  285DG     C12 6544   1.345   0.049   5.270 -0.1014  0.8627  0.2140
  285DG     H13 6545   1.339   0.496   5.043 -0.3079 -0.1713  0.5185
  285DG     H14 6546   1.463   0.399   4.954  1.8640 -5.9406  1.5103
  285DG     H15 6547   1.369  -0.008   5.359 -3.2748  0.9547  1.2438
  285DG     H16 6548   1.275   0.127   5.304 -0.9698 -0.6421  2.0428
  285DG     C17 6549   1.417   0.327   5.154  0.3393 -0.1818 -0.5799
  285DG     C18 6550   1.475   0.114   5.231 -0.3475 -0.1998 -0.3099
  285DG     O19 6551   1.464   0.200   5.119 -0.1579  0.1097 -0.1585
  285DG     H20 6552   1.328   0.320   5.216 -0.3308  1.6445 -1.2615
  285DG     H21 6553   1.482   0.390   5.214 -1.8210  1.0183  0.5983
  285DG     H22 6554   1.510   0.161   5.323 -2.9050 -2.4872  2.0124
  285DG     H23 6555   1.545   0.032   5.214 -0.2879  0.0535 -1.3902
  286DG      C1 6556   3.065   4.147   2.993  0.2541 -0.3023 -0.2516
  286DG      C2 6557   3.637   3.621   3.016  0.3389 -1.0020  0.5037
  286DG      H3 6558   3.103   4.238   3.038 -0.7628  1.2149 -2.3084
  286DG      H4 6559   2.992   4.099   3.059 -1.1010  0.2253 -1.3082
  286DG      H5 6560   3.009   4.188   2.909  1.0461  1.5353  0.0701
  286DG      H6 6561   3.658   3.574   2.919 -1.8700  1.6662 -1.4387
  286DG      H7 6562   3.735   3.656   3.049  0.8435 -1.5798 -0.3426
  286DG      H8 6563   3.589   3.542   3.072 -0.6738 -0.6393  0.1733
  286DG      O9 6564   3.169   4.060   2.955  0.4925  0.1727  0.5868
  286DG     O10 6565   3.550   3.737   2.980  0.2097  0.2445 -0.0023
  286DG     C11 6566   3.271   4.130   2.877 -0.4861 -0.5952 -0.1215
  286DG     C12 6567   3.498   3.804   3.088 -0.0029  0.0599  0.5533
  286DG     H13 6568   3.299   4.229   2.914 -2.1859 -0.4574  0.9662
  286DG     H14 6569   3.209   4.158   2.791  0.3921  0.5505 -0.4028
  286DG     H15 6570   3.581   3.844   3.145 -0.5510 -0.0516  1.4584
  286DG     H16 6571   3.462   3.729   3.159  1.4155  0.1639  1.4195
  286DG     C17 6572   3.384   4.034   2.834 -0.0411  0.8776 -0.4474
  286DG     C18 6573   3.394   3.894   3.029 -0.8106 -0.5669  0.0027
  286DG     O19 6574   3.460   3.999   2.950  0.0497  0.2671  0.8102
  286DG     H20 6575   3.448   4.091   2.766  0.0166  2.4201  0.8307
  286DG     H21 6576   3.351   3.948   2.777  0.9903  1.1230 -1.4611
  286DG     H22 6577   3.313   3.838   2.981 -0.5194 -1.0659  0.0817
  286DG     H23 6578   3.349   3.938   3.117  0.5173  1.1787 -0.1324
  287DG      C1 6579   4.868   2.769   4.963  0.2168 -0.2759 -0.2523
  287DG      C2 6580   5.601   2.801   4.893  0.0780 -0.3900  0.1111
  287DG      H3 6581   4.937   2.693   4.997 -0.1243  0.0397  1.2176
  287DG      H4 6582   4.778   2.724   4.922 -1.3063  0.7074  1.8271
  287DG      H5 6583   4.825   2.819   5.050 -1.8704 -2.5608  0.1516
  287DG      H6 6584   5.578   2.847   4.989  0.3413 -1.1627  0.5536
  287DG      H7 6585   5.641   2.703   4.916  2.5715  0.3517 -0.6833
  287DG      H8 6586   5.689   2.839   4.840  0.8730 -2.1158  0.1346
  287DG      O9 6587   4.939   2.857   4.873  0.2345 -0.6223 -0.3337
  287DG     O10 6588   5.489   2.797   4.801  0.2554 -0.6890 -0.0099
  287DG     C11 6589   4.977   2.791   4.755 -0.0426 -0.4695 -0.7961
  287DG     C12 6590   5.452   2.922   4.742 -0.0520  0.8260 -0.1594
  287DG     H13 6591   4.884   2.791   4.697 -0.2032 -0.3020 -0.5380
  287DG     H14 6592   4.995   2.686   4.778 -1.2345 -0.0665  2.4432
  287DG     H15 6593   5.521   2.965   4.669 -1.9947  0.5735 -2.2482
  287DG     H16 6594   5.446   3.001   4.818  0.5433  0.8842 -0.1660
  287DG     C17 6595   5.086   2.869   4.676  0.8545  0.0041 -0.8511
  287DG     C18 6596   5.316   2.928   4.673  0.0620  0.4930  0.0177
  287DG     O19 6597   5.210   2.876   4.756 -0.2436 -0.4288  0.0968
  287DG     H20 6598   5.059   2.969   4.643 -2.1940 -0.8007 -1.0944
  287DG     H21 6599   5.103   2.813   4.584 -0.0506 -0.8345 -0.5175
  287DG     H22 6600   5.291   3.029   4.641  2.7304  0.8226 -1.3069
  287DG     H23 6601   5.333   2.872   4.581  0.3652 -0.5517  0.6831
  288DG      C1 6602   3.218   5.261   4.170 -0.0127  0.1540 -0.2335
  288DG      C2 6603   3.405   6.040   4.029  0.2114  0.7556 -0.1272
  288DG      H3 6604   3.260   5.172   4.122  0.6227  0.5384 -0.4083
  288DG      H4 6605   3.121   5.235   4.210 -0.1056  2.4565  1.2173
  288DG      H5 6606   3.289   5.287   4.249  1.7702 -0.2733 -1.6126
  288DG      H6 6607   3.384   6.119   3.957 -0.6628  0.0382 -0.6912
  288DG      H7 6608   3.366   6.080   4.123 -1.2803 -0.8554  0.0009
  288DG      H8 6609   3.507   6.008   4.047 -0.4905 -2.7567 -1.5722
  288DG      O9 6610   3.203   5.364   4.074 -0.0224 -0.1559 -0.1752
  288DG     O10 6611   3.323   5.922   3.998  0.0221  0.4787 -0.2264
  288DG     C11 6612   3.145   5.492   4.117 -0.2143 -0.3972  0.4062
  288DG     C12 6613   3.357   5.867   3.877  0.3753 -0.2262 -0.0442
  288DG     H13 6614   3.212   5.526   4.196 -0.2226  0.6236 -0.0091
  288DG     H14 6615   3.050   5.473   4.167 -0.7113  0.8646 -0.0148
  288DG     H15 6616   3.463   5.842   3.876  1.1510  2.5606  0.8203
  288DG     H16 6617   3.328   5.937   3.799 -2.0779 -0.8755  0.2345
  288DG     C17 6618   3.142   5.601   4.016 -0.0792 -0.2581  0.5439
  288DG     C18 6619   3.270   5.736   3.871  0.0248 -0.0781 -0.8217
  288DG     O19 6620   3.271   5.653   3.993 -0.2512 -0.1336 -0.2122
  288DG     H20 6621   3.090   5.689   4.052  2.5331  0.5461  2.6447
  288DG     H21 6622   3.090   5.571   3.924 -0.7005 -1.6810  1.3303
  288DG     H22 6623   3.170   5.779   3.867  0.3607  1.0419  1.1645
  288DG     H23 6624   3.278   5.682   3.777 -0.0863  0.8271 -1.3552
  289DG      C1 6625   5.113   0.705   3.727 -0.1872 -0.1373  0.1635
  289DG      C2 6626   4.854   1.301   3.539 -0.1620 -0.2674 -0.0680
  289DG      H3 6627   5.125   0.605   3.768  0.6511  0.3594  1.2011
  289DG      H4 6628   5.200   0.766   3.752  1.1782 -1.1565 -1.8282
  289DG      H5 6629   5.120   0.691   3.619  0.4147 -0.0781  0.1932
  289DG      H6 6630   4.952   1.292   3.492 -0.1188  0.5825 -0.1517
  289DG      H7 6631   4.784   1.317   3.457 -0.2804  1.7725  0.3596
  289DG      H8 6632   4.835   1.385   3.606 -0.4294 -0.3645 -0.0223
  289DG      O9 6633   4.996   0.786   3.774  0.0749  0.1333  0.3246
  289DG     O10 6634   4.825   1.179   3.611 -0.7095  0.0218 -0.2467
  289DG     C11 6635   4.877   0.728   3.718 -0.2273 -0.0065 -0.3975
  289DG     C12 6636   4.693   1.175   3.668  0.4590 -0.5114  0.1263
  289DG     H13 6637   4.854   0.630   3.760 -2.2258  0.3000 -0.6821
  289DG     H14 6638   4.884   0.716   3.610  0.1510 -0.1671 -0.3565
  289DG     H15 6639   4.618   1.186   3.590  0.5049 -0.8347  0.0361
  289DG     H16 6640   4.681   1.249   3.747  1.7461 -0.6977  0.5176
  289DG     C17 6641   4.757   0.818   3.766  0.7265  0.0088  0.3358
  289DG     C18 6642   4.677   1.040   3.741  0.4731 -0.1279  0.5085
  289DG     O19 6643   4.779   0.945   3.711  0.6332 -0.0149 -0.0194
  289DG     H20 6644   4.748   0.822   3.874 -1.2672  0.5451  0.1968
  289DG     H21 6645   4.666   0.777   3.722  0.3736 -1.3726  2.2848
  289DG     H22 6646   4.687   1.061   3.848  0.0914 -1.2499  0.7809
  289DG     H23 6647   4.576   1.002   3.728  0.4463 -0.3530  1.3078
  290DG      C1 6648   4.999   4.761   1.479  0.0376 -0.3305 -0.2744
  290DG      C2 6649   4.432   4.829   1.255  0.0627 -0.1835  0.1506
  290DG      H3 6650   5.004   4.867   1.456  0.1901 -0.3432 -0.3018
  290DG      H4 6651   5.066   4.710   1.410  1.0481  0.9636 -0.2977
  290DG      H5 6652   5.047   4.751   1.577  0.0180 -2.7362 -0.4498
  290DG      H6 6653   4.500   4.913   1.240  2.4405 -1.8401  1.0895
  290DG      H7 6654   4.406   4.780   1.161 -1.6654 -1.2225  1.1328
  290DG      H8 6655   4.345   4.870   1.305  1.0808 -1.8277  3.5791
  290DG      O9 6656   4.873   4.710   1.455 -0.0904  0.5259  0.6571
  290DG     O10 6657   4.491   4.745   1.346 -0.2984  0.0189 -0.7217
  290DG     C11 6658   4.845   4.604   1.544  0.3545  0.5719 -0.2230
  290DG     C12 6659   4.405   4.643   1.402 -0.0249 -0.3002 -0.1254
  290DG     H13 6660   4.848   4.626   1.651  0.9893 -0.4804 -0.0070
  290DG     H14 6661   4.927   4.533   1.532 -0.1418  0.2261 -1.6825
  290DG     H15 6662   4.341   4.600   1.324 -0.7538  0.9436 -0.2536
  290DG     H16 6663   4.341   4.691   1.476 -1.0775 -1.7124 -0.0767
  290DG     C17 6664   4.722   4.525   1.510  0.2864 -0.4278  0.5709
  290DG     C18 6665   4.493   4.544   1.472  0.1800 -0.3710 -0.1962
  290DG     O19 6666   4.610   4.610   1.512  0.1572  0.0605 -0.0435
  290DG     H20 6667   4.697   4.442   1.576 -0.9971 -1.4737 -1.1405
  290DG     H21 6668   4.738   4.475   1.414 -0.1933 -1.8842  1.2314
  290DG     H22 6669   4.447   4.497   1.559  0.5331  0.4534  0.4452
  290DG     H23 6670   4.511   4.464   1.400 -1.8765 -0.2943 -0.8464
  291DG      C1 6671   2.153   2.862   0.721 -0.6580  0.4041  0.4409
  291DG      C2 6672   2.851   2.956   0.983  0.1031  0.0487 -0.3436
  291DG      H3 6673   2.131   2.962   0.758  0.8037  0.9511 -0.0843
  291DG      H4 6674   2.062   2.803   0.726  0.6553 -1.6743  0.6926
  291DG      H5 6675   2.185   2.878   0.618 -1.3669  1.4808  0.3713
  291DG      H6 6676   2.919   2.982   0.902 -1.1909  0.8505 -1.2038
  291DG      H7 6677   2.782   3.039   1.000 -0.3642  0.1151 -2.3540
  291DG      H8 6678   2.915   2.945   1.070  0.9365 -2.2462 -1.1686
  291DG      O9 6679   2.258   2.809   0.798  0.2748 -0.4353  0.4494
  291DG     O10 6680   2.775   2.838   0.965  0.0356 -0.0229  0.5266
  291DG     C11 6681   2.259   2.849   0.934 -0.6090  0.1221 -0.0922
  291DG     C12 6682   2.705   2.795   1.073  0.1989 -0.4660 -0.6021
  291DG     H13 6683   2.165   2.804   0.967 -0.3614  0.3309  0.9276
  291DG     H14 6684   2.244   2.957   0.933 -0.9940  0.0865 -1.9531
  291DG     H15 6685   2.767   2.791   1.163 -0.0884 -0.0823 -0.3820
  291DG     H16 6686   2.681   2.692   1.046 -1.1290 -0.0463 -1.1148
  291DG     C17 6687   2.371   2.802   1.018 -0.1272  0.8738  0.1773
  291DG     C18 6688   2.585   2.878   1.105 -0.1450  0.0712 -0.4491
  291DG     O19 6689   2.494   2.879   0.997  0.1629  0.3518 -0.1626
  291DG     H20 6690   2.399   2.699   0.995  0.0962  1.3063 -1.6098
  291DG     H21 6691   2.339   2.806   1.122 -0.6868 -0.9247  0.1059
  291DG     H22 6692   2.543   2.838   1.197  0.9130  0.3963  0.1960
  291DG     H23 6693   2.615   2.977   1.138 -1.2499  0.1653  0.3185
  292DG      C1 6694   2.260   4.224   2.960 -0.1628  0.6753 -0.7256
  292DG      C2 6695   2.290   4.747   2.743  0.7279 -0.0310 -0.0171
  292DG      H3 6696   2.255   4.143   2.887  0.7170 -0.8513  0.8396
  292DG      H4 6697   2.265   4.170   3.054 -1.1244  0.3428 -0.8569
  292DG      H5 6698   2.355   4.276   2.943  1.1830 -0.8838  1.5208
  292DG      H6 6699   2.354   4.671   2.699  0.1716 -0.1732 -0.5943
  292DG      H7 6700   2.191   4.754   2.698 -0.0026  1.6527  1.6923
  292DG      H8 6701   2.332   4.845   2.717 -0.8312  1.0133  1.1899
  292DG      O9 6702   2.150   4.305   2.958 -0.3551  0.3421 -0.0248
  292DG     O10 6703   2.259   4.724   2.882  0.4612 -0.1053  0.1143
  292DG     C11 6704   2.114   4.359   3.085 -0.8337  0.2334  0.4700
  292DG     C12 6705   2.372   4.713   2.966  0.6701 -0.5494 -0.2977
  292DG     H13 6706   2.099   4.283   3.160  0.6687  2.2779  3.0038
  292DG     H14 6707   2.027   4.424   3.072 -1.0074 -0.3290 -1.5597
  292DG     H15 6708   2.412   4.814   2.982 -0.8825 -0.2395  2.4309
  292DG     H16 6709   2.455   4.658   2.922  1.9309  0.0822  1.1719
  292DG     C17 6710   2.219   4.449   3.146  0.4939  0.3205  0.1597
  292DG     C18 6711   2.338   4.647   3.104  0.2810  1.0779 -0.2917
  292DG     O19 6712   2.275   4.532   3.051  0.0216 -0.4009  0.1708
  292DG     H20 6713   2.304   4.387   3.174 -0.1857  0.2103  2.1288
  292DG     H21 6714   2.183   4.485   3.242  0.6888  0.2150  0.2729
  292DG     H22 6715   2.431   4.626   3.156  0.6741 -0.5218 -1.5505
  292DG     H23 6716   2.285   4.713   3.173  1.4155  1.8917 -0.1777
  293DG      C1 6717   0.126   4.477   3.936 -0.7383 -0.9709  0.5242
  293DG      C2 6718   0.601   4.292   4.482 -0.1471 -0.2256  0.5768
  293DG      H3 6719   0.159   4.400   3.867  1.5270  1.5226 -1.3907
  293DG      H4 6720   0.163   4.577   3.912  0.5355 -1.0780  1.8994
  293DG      H5 6721   0.021   4.502   3.916 -0.5686 -1.0281 -0.4603
  293DG      H6 6722   0.640   4.386   4.444 -3.3579  1.1260  0.3097
  293DG      H7 6723   0.593   4.293   4.591  1.2120  1.6767  0.7135
  293DG      H8 6724   0.682   4.225   4.454  0.6605  0.7431  0.5332
  293DG      O9 6725   0.153   4.450   4.069  0.6069 -0.2295 -0.7068
  293DG     O10 6726   0.480   4.244   4.418  0.1711  0.0984 -0.4876
  293DG     C11 6727   0.078   4.338   4.117  0.1792 -0.0045  0.1407
  293DG     C12 6728   0.468   4.266   4.274  0.3777  0.2858 -0.6876
  293DG     H13 6729   0.100   4.245   4.064  0.1596  0.5294 -0.8366
  293DG     H14 6730  -0.027   4.355   4.096  0.3824  0.6533 -0.3916
  293DG     H15 6731   0.540   4.201   4.225 -0.7770  0.6403 -3.0210
  293DG     H16 6732   0.496   4.364   4.235  2.0222  0.3607  0.5676
  293DG     C17 6733   0.099   4.308   4.268  0.0314 -0.1422 -0.8834
  293DG     C18 6734   0.328   4.241   4.225  0.1387  0.0227 -0.6879
  293DG     O19 6735   0.235   4.323   4.296 -0.3897  0.1181  0.2960
  293DG     H20 6736   0.069   4.209   4.302 -1.3142  0.2166 -0.9702
  293DG     H21 6737   0.042   4.383   4.323  0.9153  2.7713 -3.6254
  293DG     H22 6738   0.337   4.255   4.117  2.7431  1.2168 -0.3928
  293DG     H23 6739   0.303   4.135   4.234 -0.8101  0.3353  0.5974
  294DG      C1 6740   2.302   3.832   3.362 -0.3894  0.3241 -0.6741
  294DG      C2 6741   2.545   3.178   3.375 -0.0589  0.2144 -0.4838
  294DG      H3 6742   2.341   3.934   3.370  0.0656  0.1109 -0.1163
  294DG      H4 6743   2.331   3.782   3.455  1.2720 -0.2123 -1.4416
  294DG      H5 6744   2.194   3.825   3.352 -0.5015  1.4566 -0.3863
  294DG      H6 6745   2.632   3.120   3.405  0.0579 -1.4119 -3.5720
  294DG      H7 6746   2.477   3.179   3.460  0.6708 -0.8744  0.1401
  294DG      H8 6747   2.499   3.108   3.305  1.6726 -1.5521  0.0632
  294DG      O9 6748   2.384   3.765   3.271  0.2572 -0.0084  0.2298
  294DG     O10 6749   2.561   3.309   3.326 -0.1234  0.5428  0.3577
  294DG     C11 6750   2.349   3.630   3.251 -0.0782  0.5912 -0.7274
  294DG     C12 6751   2.630   3.322   3.200 -0.0137 -0.2933 -0.0545
  294DG     H13 6752   2.245   3.625   3.218 -0.8948  0.1832  1.6823
  294DG     H14 6753   2.333   3.587   3.350  0.3525  2.1761  0.0641
  294DG     H15 6754   2.562   3.289   3.122 -0.1243 -0.5473  0.1460
  294DG     H16 6755   2.719   3.259   3.192  1.0216  1.1637 -0.5017
  294DG     C17 6756   2.443   3.545   3.161  0.2455 -0.0732 -0.7566
  294DG     C18 6757   2.675   3.463   3.174  0.6019  0.5705 -0.0751
  294DG     O19 6758   2.575   3.552   3.221 -0.4818  0.3096 -0.2765
  294DG     H20 6759   2.442   3.573   3.056  3.1267 -0.7216 -1.0424
  294DG     H21 6760   2.395   3.447   3.166 -0.5282  0.3419  1.1547
  294DG     H22 6761   2.768   3.489   3.225  1.2980  1.7666 -1.8608
  294DG     H23 6762   2.679   3.483   3.067 -0.2826  1.3900  0.0236
  295DG      C1 6763   4.358   0.100   0.216 -0.5182  0.2006 -0.1257
  295DG      C2 6764   4.605  -0.531   0.105 -0.2570  0.5909 -0.2926
  295DG      H3 6765   4.318   0.196   0.182  0.5601  1.0266  0.8700
  295DG      H4 6766   4.438   0.116   0.288  1.4249 -1.8573 -1.6884
  295DG      H5 6767   4.269   0.056   0.262 -1.0846  1.6808  0.2534
  295DG      H6 6768   4.550  -0.619   0.073  1.4011 -0.6948  0.2528
  295DG      H7 6769   4.710  -0.547   0.079 -0.3332 -0.8331  0.2165
  295DG      H8 6770   4.611  -0.523   0.213  1.3002  0.0682 -0.3048
  295DG      O9 6771   4.409   0.025   0.106 -0.1336 -0.2155 -0.3078
  295DG     O10 6772   4.546  -0.411   0.062  0.8693  0.3231 -0.1492
  295DG     C11 6773   4.334   0.019  -0.009  0.8762  0.2306 -0.0312
  295DG     C12 6774   4.552  -0.395  -0.079  0.4126 -0.2571 -0.0814
  295DG     H13 6775   4.305   0.116  -0.050  0.0336  1.2668  2.8101
  295DG     H14 6776   4.248  -0.047  -0.002  0.1726  1.2928  1.9489
  295DG     H15 6777   4.519  -0.486  -0.128 -1.1629  0.5707 -0.6300
  295DG     H16 6778   4.658  -0.379  -0.097 -0.0807  1.5824 -1.8003
  295DG     C17 6779   4.405  -0.049  -0.126 -0.6587  0.0991 -0.5597
  295DG     C18 6780   4.479  -0.272  -0.145 -0.0825 -0.3144 -0.2276
  295DG     O19 6781   4.475  -0.155  -0.063 -0.0887 -0.0331  0.6147
  295DG     H20 6782   4.472   0.017  -0.181  0.6623  0.0306  0.8958
  295DG     H21 6783   4.329  -0.083  -0.196  0.5814 -1.3043 -1.2726
  295DG     H22 6784   4.531  -0.254  -0.238 -0.4804 -0.4925 -0.4868
  295DG     H23 6785   4.381  -0.296  -0.187 -0.1445 -0.9817  0.2701
  296DG      C1 6786   2.637   4.156   2.328 -0.0987  0.2480 -0.4037
  296DG      C2 6787   1.933   4.584   2.438  0.2075 -0.0065  0.1733
  296DG      H3 6788   2.741   4.188   2.337  0.5410 -1.9238  0.4883
  296DG      H4 6789   2.594   4.193   2.235 -1.8404  1.6998  0.8957
  296DG      H5 6790   2.636   4.047   2.332  2.4765  0.1881  0.0772
  296DG      H6 6791   1.945   4.635   2.342 -0.0430 -0.4830 -0.1137
  296DG      H7 6792   1.837   4.533   2.429  0.1195  0.0193  0.8865
  296DG      H8 6793   1.929   4.660   2.516  0.5845  0.7397 -0.5194
  296DG      O9 6794   2.570   4.209   2.445 -0.6818  0.1508 -0.3487
  296DG     O10 6795   2.040   4.500   2.476  0.2512 -0.4653  0.6359
  296DG     C11 6796   2.431   4.211   2.432  0.7351  0.2631  0.1912
  296DG     C12 6797   2.017   4.435   2.595 -0.3828 -0.1665 -0.2112
  296DG     H13 6798   2.388   4.115   2.403  0.5853  1.0145 -2.3146
  296DG     H14 6799   2.411   4.278   2.349 -0.1007  1.9046  1.6704
  296DG     H15 6800   1.948   4.351   2.597  1.7741 -2.0268  1.4906
  296DG     H16 6801   1.980   4.496   2.678 -1.7372 -0.4944 -0.5515
  296DG     C17 6802   2.360   4.264   2.554 -0.1625  0.2052 -0.5606
  296DG     C18 6803   2.147   4.371   2.635 -0.2335  0.3523  0.0058
  296DG     O19 6804   2.225   4.302   2.529  0.1957 -0.0920  0.5227
  296DG     H20 6805   2.416   4.350   2.591  0.2230 -1.2188  2.4906
  296DG     H21 6806   2.362   4.188   2.632 -1.2187 -0.6632 -1.3446
  296DG     H22 6807   2.211   4.449   2.676  1.5192 -1.0407  0.0551
  296DG     H23 6808   2.135   4.296   2.714 -0.1465  0.0485 -0.2658
  297DG      C1 6809   1.294   1.717   0.313  0.5796  0.2276  0.1448
  297DG      C2 6810   1.205   1.859  -0.234  0.0068  0.0267  0.1431
  297DG      H3 6811   1.281   1.824   0.325 -1.5567 -0.2073  2.5757
  297DG      H4 6812   1.388   1.691   0.265  0.7729 -0.1323  0.7111
  297DG      H5 6813   1.285   1.659   0.405 -0.3668 -3.0912 -1.8445
  297DG      H6 6814   1.117   1.856  -0.299 -1.3354  2.0267  1.7350
  297DG      H7 6815   1.215   1.955  -0.182 -2.1980  0.5852 -0.3760
  297DG      H8 6816   1.286   1.824  -0.298  2.0544 -1.2675  3.2119
  297DG      O9 6817   1.182   1.669   0.233  0.0107 -0.6261 -0.2924
  297DG     O10 6818   1.197   1.763  -0.125  0.5512  0.1793  0.0654
  297DG     C11 6819   1.153   1.536   0.250  0.3418  0.5760 -0.3035
  297DG     C12 6820   1.158   1.638  -0.172 -0.3597 -0.3750 -0.2518
  297DG     H13 6821   1.124   1.515   0.353 -0.4296  0.8133 -0.4640
  297DG     H14 6822   1.244   1.483   0.221  0.0516 -0.9668  1.4235
  297DG     H15 6823   1.225   1.589  -0.242  1.6851  0.4932  1.0069
  297DG     H16 6824   1.058   1.640  -0.216  0.4972 -1.6353 -2.4315
  297DG     C17 6825   1.045   1.489   0.153 -0.0110 -0.0130  0.4175
  297DG     C18 6826   1.157   1.548  -0.053  0.1272  0.2017  0.7304
  297DG     O19 6827   1.046   1.565   0.034 -1.2955  0.2209  0.0959
  297DG     H20 6828   0.948   1.496   0.202  1.0553  1.9622  2.4274
  297DG     H21 6829   1.064   1.384   0.132  1.5841  0.6853 -1.9573
  297DG     H22 6830   1.159   1.442  -0.079  1.0043  0.7417 -1.6662
  297DG     H23 6831   1.248   1.565   0.004  0.6230 -0.2642  0.0962
  298DG      C1 6832   5.187   0.957   2.767 -0.2763 -0.2840 -0.0517
  298DG      C2 6833   4.516   0.800   2.703 -0.5336  0.0728 -0.2582
  298DG      H3 6834   5.187   1.043   2.700 -0.7550 -0.0043  0.3036
  298DG      H4 6835   5.197   0.866   2.709  2.0294 -0.4008  0.4365
  298DG      H5 6836   5.279   0.967   2.824 -0.3901  5.1443 -0.2472
  298DG      H6 6837   4.530   0.794   2.595  0.6201  2.2293 -0.2939
  298DG      H7 6838   4.547   0.704   2.743  1.6249  0.5775 -0.6123
  298DG      H8 6839   4.413   0.826   2.729 -1.5923 -0.9187 -3.1096
  298DG      O9 6840   5.061   0.952   2.833  0.9210 -0.1627 -0.0897
  298DG     O10 6841   4.606   0.896   2.760 -0.0609  0.2118 -0.3715
  298DG     C11 6842   5.035   1.067   2.913  0.2165 -0.0124 -0.0070
  298DG     C12 6843   4.585   0.913   2.905 -0.1046 -0.1983  0.2311
  298DG     H13 6844   5.023   1.159   2.855 -5.3992 -1.8267 -2.4450
  298DG     H14 6845   5.126   1.077   2.971  0.2169 -5.4603  1.4787
  298DG     H15 6846   4.615   0.823   2.958  2.2258 -0.7123 -1.7874
  298DG     H16 6847   4.480   0.919   2.936  0.1862  0.2522  1.1953
  298DG     C17 6848   4.907   1.045   2.989 -0.0931 -0.0914 -0.8667
  298DG     C18 6849   4.666   1.036   2.962  0.0832 -0.1246 -0.1973
  298DG     O19 6850   4.798   1.022   2.897  0.3027 -1.0552  0.3533
  298DG     H20 6851   4.884   1.130   3.053 -0.3639  0.3126 -1.4856
  298DG     H21 6852   4.912   0.957   3.053 -1.5268  0.8319  0.6121
  298DG     H22 6853   4.612   1.126   2.932 -1.6114 -1.5826 -1.7504
  298DG     H23 6854   4.666   1.015   3.069 -0.5272 -2.6579 -0.6297
  299DG      C1 6855   1.370   0.801   5.003 -0.1656  0.1553  0.4901
  299DG      C2 6856   0.837   1.042   5.511 -0.6360 -0.2588  0.1161
  299DG      H3 6857   1.420   0.735   4.931 -1.6187  0.0765 -0.4927
  299DG      H4 6858   1.414   0.783   5.101 -0.5811 -1.9861  0.3392
  299DG      H5 6859   1.375   0.905   4.973 -0.6649  0.2036  0.5778
  299DG      H6 6860   0.815   1.149   5.518  0.6709  0.0472 -0.1739
  299DG      H7 6861   0.843   1.011   5.407  2.4355 -2.1119  0.6960
  299DG      H8 6862   0.754   0.988   5.557 -0.8600 -1.7747 -1.9594
  299DG      O9 6863   1.237   0.755   4.993 -0.1597  0.1641 -0.4999
  299DG     O10 6864   0.950   1.027   5.586  0.9391 -0.1047  0.6097
  299DG     C11 6865   1.148   0.852   5.058 -0.4789  0.3850  0.3008
  299DG     C12 6866   1.071   1.046   5.521  0.7217 -0.0731  0.0829
  299DG     H13 6867   1.045   0.832   5.030 -0.8463  2.5768 -0.0937
  299DG     H14 6868   1.164   0.957   5.031  1.5574  0.6459  2.2217
  299DG     H15 6869   1.133   1.087   5.600 -1.7048  1.4005  1.3282
  299DG     H16 6870   1.063   1.124   5.445  1.9698  1.4697  1.4538
  299DG     C17 6871   1.170   0.857   5.212 -0.8420  0.5308  0.1489
  299DG     C18 6872   1.114   0.928   5.426 -0.2123 -0.3305  0.0166
  299DG     O19 6873   1.093   0.951   5.286  0.0256 -0.3688  0.6346
  299DG     H20 6874   1.274   0.880   5.236 -0.9630  0.4170  0.8177
  299DG     H21 6875   1.151   0.753   5.237 -2.6689  0.9558  0.7737
  299DG     H22 6876   1.222   0.917   5.439 -0.3656 -1.6443  0.2946
  299DG     H23 6877   1.064   0.837   5.457 -1.3983  0.2020 -0.2879
  300DG      C1 6878   2.137   1.907   0.249  0.9589 -0.5954  0.1539
  300DG      C2 6879   2.257   2.594   0.480 -0.1355  0.9138 -0.8471
  300DG      H3 6880   2.054   1.868   0.190  1.2702 -0.1293 -0.6069
  300DG      H4 6881   2.101   1.889   0.350 -0.8889  2.9890  0.3091
  300DG      H5 6882   2.220   1.839   0.229  3.4455  1.9706  1.0715
  300DG      H6 6883   2.329   2.513   0.486  0.9608  1.8510 -1.0926
  300DG      H7 6884   2.298   2.669   0.411  2.1481  1.4767  1.0102
  300DG      H8 6885   2.257   2.636   0.580  0.5353  0.0088 -0.4550
  300DG      O9 6886   2.183   2.032   0.219  0.4044 -0.2892  0.5979
  300DG     O10 6887   2.139   2.529   0.442 -0.6887  0.0640 -0.3113
  300DG     C11 6888   2.306   2.077   0.273 -0.2282 -0.3167  0.4270
  300DG     C12 6889   2.134   2.511   0.304  0.2353 -0.1092  0.0032
  300DG     H13 6890   2.387   2.022   0.225 -1.1719 -0.8412 -0.6136
  300DG     H14 6891   2.308   2.050   0.379  0.5256  1.2794  0.8539
  300DG     H15 6892   2.133   2.604   0.247 -2.7676  0.0817  0.1968
  300DG     H16 6893   2.044   2.453   0.284  0.5846 -1.6818  2.5744
  300DG     C17 6894   2.328   2.219   0.242  0.3688 -0.4048 -0.0433
  300DG     C18 6895   2.249   2.432   0.249 -0.7952  0.7253 -0.2359
  300DG     O19 6896   2.234   2.298   0.301 -0.3470  0.0728 -0.5556
  300DG     H20 6897   2.334   2.230   0.133  1.2503  0.9482  0.1265
  300DG     H21 6898   2.424   2.253   0.280  0.0666 -0.2200  0.5552
  300DG     H22 6899   2.218   2.420   0.145  0.0466  1.6747 -0.6124
  300DG     H23 6900   2.348   2.475   0.264  0.1393 -0.7528 -1.8045
  301DG      C1 6901   3.762   3.750   1.098 -0.2342  0.5524  0.2761
  301DG      C2 6902   3.967   3.613   0.449  0.2998 -0.3174 -0.3391
  301DG      H3 6903   3.747   3.719   1.201  1.2512  0.5150  0.5045
  301DG      H4 6904   3.753   3.856   1.073  0.9308  0.4633 -0.6052
  301DG      H5 6905   3.862   3.719   1.066 -0.9771 -0.9204 -0.7323
  301DG      H6 6906   3.959   3.623   0.341  0.8875 -0.4430 -0.4022
  301DG      H7 6907   3.972   3.713   0.491  0.6911 -0.7990  0.8275
  301DG      H8 6908   4.066   3.567   0.456 -0.2883 -1.8603 -1.5347
  301DG      O9 6909   3.676   3.693   1.002 -0.0172 -0.2340  1.0705
  301DG     O10 6910   3.878   3.524   0.520 -0.6130  0.2465 -0.3375
  301DG     C11 6911   3.693   3.550   0.998 -0.3153  0.3396  0.0489
  301DG     C12 6912   3.746   3.553   0.506 -0.2373  0.3575  0.5395
  301DG     H13 6913   3.665   3.498   1.089  1.5217 -0.2170  0.3314
  301DG     H14 6914   3.796   3.532   0.968 -0.3406  1.2675 -0.6286
  301DG     H15 6915   3.706   3.519   0.410  0.8000  0.1964  0.1510
  301DG     H16 6916   3.738   3.661   0.499  3.3439  0.6399 -0.8449
  301DG     C17 6917   3.624   3.511   0.864 -0.2529 -0.4261  0.1568
  301DG     C18 6918   3.663   3.502   0.626  0.6316  1.0239  0.1694
  301DG     O19 6919   3.712   3.531   0.755 -0.0828  0.1320  0.4910
  301DG     H20 6920   3.531   3.567   0.853 -0.1638 -0.0262  1.3133
  301DG     H21 6921   3.590   3.408   0.873  0.5113 -0.8284 -1.3190
  301DG     H22 6922   3.570   3.553   0.603  0.8026  0.7737 -1.1383
  301DG     H23 6923   3.663   3.394   0.615  2.0324  1.1317 -1.2581
  302DG      C1 6924   2.941   3.225   3.616 -0.1831  0.3422 -0.0048
  302DG      C2 6925   2.811   3.320   2.770 -1.4179 -0.3069  0.2801
  302DG      H3 6926   2.956   3.160   3.703 -0.0585  1.5476  0.9029
  302DG      H4 6927   2.839   3.255   3.596 -0.1232  0.3460 -0.3154
  302DG      H5 6928   3.004   3.313   3.630 -1.0172  1.3696 -2.2734
  302DG      H6 6929   2.703   3.318   2.764 -1.3847 -0.3864 -0.3088
  302DG      H7 6930   2.836   3.426   2.778 -1.1952 -0.5224  4.6088
  302DG      H8 6931   2.853   3.293   2.673 -1.8651  0.6485 -0.1917
  302DG      O9 6932   2.991   3.168   3.495  0.4301  0.4724  0.0769
  302DG     O10 6933   2.862   3.248   2.884 -0.0552  0.7275 -0.0862
  302DG     C11 6934   2.957   3.245   3.382  0.1507 -0.1533  0.0190
  302DG     C12 6935   3.001   3.241   2.903 -0.3921 -0.7666  0.1025
  302DG     H13 6936   3.001   3.344   3.387 -1.3091  0.5458 -0.5020
  302DG     H14 6937   2.849   3.259   3.384 -0.0082 -1.0987 -0.6808
  302DG     H15 6938   3.048   3.339   2.914  0.0395 -0.5338 -2.9015
  302DG     H16 6939   3.049   3.192   2.818 -1.3465 -2.2486  0.3769
  302DG     C17 6940   3.003   3.169   3.258 -0.2051 -0.2304 -0.8511
  302DG     C18 6941   3.029   3.163   3.022  0.7970 -0.6802  0.8142
  302DG     O19 6942   2.991   3.239   3.137 -0.2587 -0.2482 -0.4008
  302DG     H20 6943   2.936   3.083   3.255 -0.0439 -0.4421  0.8478
  302DG     H21 6944   3.104   3.131   3.274  0.5947  1.5359 -1.4817
  302DG     H22 6945   2.966   3.074   3.016 -0.2861  0.1482 -0.8863
  302DG     H23 6946   3.134   3.134   3.026  0.3366 -2.8405 -0.8487
  303DG      C1 6947   3.409   4.028   1.589 -0.3373 -0.3401 -0.5060
  303DG      C2 6948   2.811   3.725   1.444  0.1495  0.0084  0.3784
  303DG      H3 6949   3.503   4.010   1.640 -0.5717 -0.2282 -0.0277
  303DG      H4 6950   3.380   4.127   1.624  0.8938 -0.3345  0.5756
  303DG      H5 6951   3.427   4.045   1.483 -1.4162  1.6196 -0.4302
  303DG      H6 6952   2.757   3.698   1.535  1.2953  0.5514  1.2396
  303DG      H7 6953   2.790   3.824   1.404 -0.0189  0.0418  0.5472
  303DG      H8 6954   2.774   3.651   1.373  0.8048 -0.1671  0.2166
  303DG      O9 6955   3.313   3.931   1.615 -0.2600  0.1608  0.2300
  303DG     O10 6956   2.946   3.715   1.466  0.3995  0.0448  0.9041
  303DG     C11 6957   3.324   3.877   1.750  0.5335  0.6506  0.5714
  303DG     C12 6958   2.978   3.598   1.540 -0.3197 -0.2821 -0.3314
  303DG     H13 6959   3.325   3.956   1.826  0.9127  0.6288  0.5906
  303DG     H14 6960   3.424   3.835   1.757  0.3254  0.0545  0.0497
  303DG     H15 6961   3.048   3.534   1.486  0.4960 -0.1308  0.5244
  303DG     H16 6962   2.892   3.532   1.558 -2.0634  1.9427 -0.1224
  303DG     C17 6963   3.220   3.769   1.773 -0.7964  0.5173 -0.1681
  303DG     C18 6964   3.041   3.642   1.672 -0.2807 -0.1816  0.1287
  303DG     O19 6965   3.151   3.730   1.655  0.2806 -0.4490  0.1540
  303DG     H20 6966   3.143   3.801   1.843 -1.4091  0.2480 -0.7087
  303DG     H21 6967   3.266   3.681   1.818 -0.8893  0.8304  0.5565
  303DG     H22 6968   2.969   3.702   1.727  1.2856  0.4591  1.5959
  303DG     H23 6969   3.059   3.552   1.733 -1.2286 -0.4382  0.0378
  304DG      C1 6970   3.904   2.639   0.880 -0.5308 -0.6810  0.3157
  304DG      C2 6971   3.502   2.725   1.419  0.5279  0.0228  0.2078
  304DG      H3 6972   3.939   2.558   0.816  0.0669  0.4307 -0.8325
  304DG      H4 6973   3.885   2.582   0.970  1.8322 -1.7254  0.2085
  304DG      H5 6974   3.977   2.720   0.884 -0.6855 -0.5271  0.0773
  304DG      H6 6975   3.490   2.833   1.417  1.7561  0.1741  0.4532
  304DG      H7 6976   3.420   2.684   1.479  2.6733 -1.6224  2.2297
  304DG      H8 6977   3.598   2.703   1.466 -0.3132 -1.3506  1.3989
  304DG      O9 6978   3.780   2.693   0.827  0.3812  0.0956 -0.1795
  304DG     O10 6979   3.489   2.665   1.293  0.1005 -0.4763  0.4856
  304DG     C11 6980   3.678   2.596   0.794 -0.2045  0.2192 -0.5647
  304DG     C12 6981   3.579   2.740   1.205  0.3832  0.2162  0.5048
  304DG     H13 6982   3.714   2.519   0.727 -1.6149 -0.1927 -0.8821
  304DG     H14 6983   3.595   2.644   0.741  1.7800  2.1770 -2.0739
  304DG     H15 6984   3.686   2.730   1.225  1.1310  3.3892 -1.3670
  304DG     H16 6985   3.567   2.848   1.210 -0.9314  0.1169 -0.0097
  304DG     C17 6986   3.635   2.513   0.918 -0.4520 -0.1890  0.1449
  304DG     C18 6987   3.560   2.697   1.059 -0.7492 -0.0190 -0.4362
  304DG     O19 6988   3.639   2.584   1.039 -0.3677 -0.3873 -0.6719
  304DG     H20 6989   3.716   2.442   0.932  0.1439  0.3210 -0.6553
  304DG     H21 6990   3.543   2.458   0.901 -1.1723  1.2048 -0.6602
  304DG     H22 6991   3.454   2.676   1.042 -1.7387  2.8292  1.5310
  304DG     H23 6992   3.591   2.776   0.990  1.5683 -0.3737  0.1241
  305DG      C1 6993   4.843   1.176   2.561  0.0579 -0.5884 -0.8521
  305DG      C2 6994   4.839   0.571   2.864 -0.7317 -0.1946  0.4014
  305DG      H3 6995   4.758   1.194   2.626  0.4178  1.5437 -0.8919
  305DG      H4 6996   4.833   1.245   2.477 -0.3851  2.4013  1.4896
  305DG      H5 6997   4.932   1.217   2.609 -1.3613  0.7240  0.7880
  305DG      H6 6998   4.732   0.588   2.878 -0.4390  0.6232  1.8807
  305DG      H7 6999   4.858   0.464   2.870 -3.0431 -0.5806  2.7982
  305DG      H8 7000   4.874   0.603   2.962  2.2579  0.5140 -0.7988
  305DG      O9 7001   4.861   1.038   2.528 -0.3260  0.4133  0.3791
  305DG     O10 7002   4.902   0.640   2.751 -0.1475 -0.1214  0.6836
  305DG     C11 7003   4.928   1.006   2.405  0.6369 -0.0931 -0.2578
  305DG     C12 7004   4.873   0.585   2.626  0.7934  0.5453 -0.4004
  305DG     H13 7005   4.996   1.085   2.374  0.6360 -0.3005 -0.7950
  305DG     H14 7006   4.844   1.009   2.336 -0.1458  1.0130  0.7005
  305DG     H15 7007   4.770   0.601   2.594  0.1805  0.5140  1.4559
  305DG     H16 7008   4.901   0.480   2.618  1.2102  0.7938 -3.1521
  305DG     C17 7009   4.996   0.867   2.416 -0.0571 -0.1115 -0.0826
  305DG     C18 7010   4.962   0.648   2.520 -0.1933 -0.1341 -0.5196
  305DG     O19 7011   4.906   0.779   2.488 -0.0688 -0.2122  0.2321
  305DG     H20 7012   5.099   0.864   2.453 -0.5716 -1.4944  1.3741
  305DG     H21 7013   5.015   0.827   2.317  2.6192 -0.7718  0.5990
  305DG     H22 7014   5.065   0.651   2.556 -0.6749 -0.2946  0.9274
  305DG     H23 7015   4.967   0.581   2.434  0.2936 -0.1965 -0.4469
  306DG      C1 7016   0.897   0.830   3.567 -0.8837 -0.2940  0.5776
  306DG      C2 7017   1.484   0.941   4.057 -0.2794 -0.3166 -0.2554
  306DG      H3 7018   0.827   0.843   3.649 -0.8227 -1.8548  0.9123
  306DG      H4 7019   0.843   0.772   3.492  0.8915  0.8222 -1.6997
  306DG      H5 7020   0.921   0.929   3.528  1.1816 -1.2148 -0.7255
  306DG      H6 7021   1.495   1.039   4.104  1.3339 -0.6166  0.0586
  306DG      H7 7022   1.442   0.866   4.125 -3.2106  0.4642 -1.0674
  306DG      H8 7023   1.588   0.912   4.042 -0.8039 -2.0682 -0.7235
  306DG      O9 7024   1.012   0.766   3.614  0.1769 -0.2344 -0.8560
  306DG     O10 7025   1.403   0.934   3.935  0.1981 -0.1956  0.3601
  306DG     C11 7026   1.130   0.773   3.529 -0.1317  0.0474 -0.8526
  306DG     C12 7027   1.400   0.801   3.884 -0.6465  0.0647  0.1566
  306DG     H13 7028   1.108   0.796   3.425 -0.2859  1.2318 -0.5700
  306DG     H14 7029   1.185   0.679   3.535  0.7805  0.6389  0.4887
  306DG     H15 7030   1.378   0.733   3.966 -0.7958  0.4662  0.4485
  306DG     H16 7031   1.492   0.777   3.831 -1.5478 -0.7585 -1.1049
  306DG     C17 7032   1.218   0.892   3.575 -0.3851 -0.2263 -0.2834
  306DG     C18 7033   1.281   0.791   3.786 -0.6290 -0.3731 -0.1001
  306DG     O19 7034   1.322   0.853   3.663  0.1613  0.4489  0.7915
  306DG     H20 7035   1.158   0.970   3.622  3.0658  2.0426  0.7507
  306DG     H21 7036   1.282   0.933   3.497  1.5432 -0.4395  1.1012
  306DG     H22 7037   1.246   0.688   3.774 -0.1447 -0.8787  2.4163
  306DG     H23 7038   1.198   0.849   3.826  1.0165  2.6956 -0.8178
  307DG      C1 7039   3.479   3.676   3.592  0.0594 -0.2049 -0.2005
  307DG      C2 7040   3.383   3.149   2.821  0.0264 -0.3780 -0.4331
  307DG      H3 7041   3.460   3.763   3.530 -1.0213 -1.0426 -1.1065
  307DG      H4 7042   3.585   3.683   3.614  0.3837 -0.9377 -1.4223
  307DG      H5 7043   3.415   3.681   3.680  1.6479  0.5033  0.9630
  307DG      H6 7044   3.321   3.061   2.802 -2.8080  1.2283  0.7839
  307DG      H7 7045   3.310   3.229   2.808  0.8287  0.0402 -2.8530
  307DG      H8 7046   3.466   3.153   2.750 -1.0587 -2.4197 -1.9249
  307DG      O9 7047   3.424   3.556   3.537  0.4344 -0.1047  0.3507
  307DG     O10 7048   3.424   3.139   2.955 -0.1924  0.9415  0.3488
  307DG     C11 7049   3.471   3.521   3.405 -0.4578 -0.3927 -1.0134
  307DG     C12 7050   3.450   3.263   3.021 -0.0661 -0.3853  1.0535
  307DG     H13 7051   3.579   3.538   3.401 -0.7257  1.5601 -1.0139
  307DG     H14 7052   3.440   3.597   3.333 -1.2526  0.7783  0.5049
  307DG     H15 7053   3.385   3.347   2.994  1.3421  0.7785  1.1313
  307DG     H16 7054   3.551   3.299   3.001 -0.9224  0.8753 -1.3961
  307DG     C17 7055   3.418   3.395   3.363 -0.1929 -0.2766  0.3680
  307DG     C18 7056   3.433   3.250   3.167  0.3216  0.3163 -0.1008
  307DG     O19 7057   3.471   3.373   3.230 -0.4577  0.0532 -0.1395
  307DG     H20 7058   3.310   3.401   3.359 -0.2996 -1.6595  0.6255
  307DG     H21 7059   3.441   3.315   3.434 -0.7413  0.3491  1.2613
  307DG     H22 7060   3.327   3.225   3.181  0.6765 -1.3879 -0.2546
  307DG     H23 7061   3.500   3.168   3.194 -0.2249 -0.0787  0.0861
  308DG      C1 7062   4.224   3.045   3.144 -0.0263 -0.3834 -0.1646
  308DG      C2 7063   4.958   3.250   3.275  0.1848 -0.4384  0.1694
  308DG      H3 7064   4.187   3.135   3.094 -0.4870 -0.1110  0.6422
  308DG      H4 7065   4.152   3.007   3.216 -0.3502 -0.1652 -0.3692
  308DG      H5 7066   4.250   2.976   3.064 -2.3221 -1.9027  0.3254
  308DG      H6 7067   4.986   3.350   3.240  2.1634 -0.6449  1.0445
  308DG      H7 7068   5.023   3.216   3.355 -0.7922  0.5859  1.4359
  308DG      H8 7069   4.992   3.173   3.206  0.7598 -1.9229  2.0396
  308DG      O9 7070   4.342   3.070   3.214 -0.1172 -0.5218 -0.1613
  308DG     O10 7071   4.824   3.249   3.319 -0.3793 -0.3254 -0.5972
  308DG     C11 7072   4.318   3.154   3.324 -0.4455  0.0630 -0.5336
  308DG     C12 7073   4.728   3.269   3.219  0.4237 -0.6383 -0.2530
  308DG     H13 7074   4.226   3.128   3.376 -1.1828 -0.0086 -1.8136
  308DG     H14 7075   4.300   3.256   3.288  0.6872 -0.4359 -2.7135
  308DG     H15 7076   4.730   3.190   3.144  0.0291 -1.4749  0.6028
  308DG     H16 7077   4.738   3.364   3.166 -0.7046  0.5908  1.6162
  308DG     C17 7078   4.441   3.148   3.415  0.1889  0.1049 -0.7430
  308DG     C18 7079   4.594   3.266   3.286  0.0987 -0.4694 -0.0327
  308DG     O19 7080   4.559   3.142   3.334  0.6770 -0.3133  0.0026
  308DG     H20 7081   4.434   3.067   3.487 -1.0143  1.0262  0.2278
  308DG     H21 7082   4.441   3.238   3.478 -0.6386 -0.6642  0.3940
  308DG     H22 7083   4.598   3.331   3.373  0.9129  1.5853 -1.5255
  308DG     H23 7084   4.513   3.300   3.222 -0.0903 -1.0387 -0.1038
  309DG      C1 7085   2.183   0.913   3.846  0.0495 -0.5183  0.1179
  309DG      C2 7086   1.727   0.719   3.378  0.1387 -0.1700 -0.3664
  309DG      H3 7087   2.180   1.006   3.789 -1.0265 -0.9579 -0.5584
  309DG      H4 7088   2.250   0.839   3.802  0.9319 -0.2726  1.0102
  309DG      H5 7089   2.221   0.933   3.947  2.5391  0.1014 -0.8630
  309DG      H6 7090   1.824   0.682   3.344 -1.3205 -1.9019 -2.9525
  309DG      H7 7091   1.638   0.669   3.339 -0.0987 -0.1139  0.0919
  309DG      H8 7092   1.713   0.823   3.347 -1.9032 -0.1697  0.3839
  309DG      O9 7093   2.055   0.852   3.840  0.2151  0.1876 -0.3285
  309DG     O10 7094   1.734   0.719   3.520 -0.5122 -0.0245  0.3485
  309DG     C11 7095   2.050   0.721   3.896 -0.2008 -0.8308 -0.1937
  309DG     C12 7096   1.750   0.590   3.569 -0.6693  0.4093  0.3448
  309DG     H13 7097   2.090   0.735   3.997  0.7994  2.1505 -0.9142
  309DG     H14 7098   2.120   0.665   3.834 -0.8645 -0.5149 -1.2347
  309DG     H15 7099   1.844   0.543   3.540 -1.0243  0.6326 -1.2796
  309DG     H16 7100   1.667   0.527   3.539  0.4560 -1.5814  1.2610
  309DG     C17 7101   1.909   0.661   3.895  0.1404 -0.0949  0.0498
  309DG     C18 7102   1.744   0.596   3.727  0.3285  0.0321  0.1832
  309DG     O19 7103   1.859   0.671   3.759  0.2968  0.0801 -0.0691
  309DG     H20 7104   1.843   0.713   3.964  0.4034 -0.1853  0.3676
  309DG     H21 7105   1.911   0.553   3.911 -1.2758 -0.1880 -0.1813
  309DG     H22 7106   1.649   0.635   3.764 -0.0496  0.6355 -1.3522
  309DG     H23 7107   1.743   0.494   3.768  0.0015  0.6136  1.6987
  310DG      C1 7108   2.585   2.490   3.756  0.3355  0.1816 -0.5231
  310DG      C2 7109   2.702   2.590   4.492 -0.4164 -0.5625  0.0742
  310DG      H3 7110   2.640   2.472   3.664 -0.5594 -0.1743 -1.0095
  310DG      H4 7111   2.591   2.598   3.768  0.4522  0.3364 -1.7939
  310DG      H5 7112   2.484   2.449   3.746 -0.0238  0.6008  1.1455
  310DG      H6 7113   2.809   2.610   4.493 -0.3666 -0.8423  0.3743
  310DG      H7 7114   2.670   2.693   4.482  3.7065  0.8534 -0.3290
  310DG      H8 7115   2.670   2.548   4.588 -0.3548  1.2443  0.9164
  310DG      O9 7116   2.641   2.426   3.866 -0.3198 -0.1539 -0.5298
  310DG     O10 7117   2.656   2.519   4.381  0.5597 -0.0957 -0.4274
  310DG     C11 7118   2.770   2.481   3.901  0.1663 -0.3476 -0.2923
  310DG     C12 7119   2.715   2.393   4.371  0.9277 -1.0486 -0.3080
  310DG     H13 7120   2.767   2.589   3.914 -1.4827 -0.1745 -1.7549
  310DG     H14 7121   2.835   2.459   3.815 -0.1573 -0.6702 -0.4582
  310DG     H15 7122   2.628   2.330   4.349 -1.9019  1.5570  2.3932
  310DG     H16 7123   2.758   2.353   4.463  0.3681 -1.2302 -0.1217
  310DG     C17 7124   2.834   2.402   4.018  0.3097  0.2701 -0.5524
  310DG     C18 7125   2.814   2.382   4.262 -0.2863 -0.3136 -0.0567
  310DG     O19 7126   2.753   2.421   4.141  0.5136 -0.2812 -0.4173
  310DG     H20 7127   2.931   2.448   4.036  0.9009 -1.6738  1.6858
  310DG     H21 7128   2.848   2.296   4.000  0.5225 -0.1610  1.8307
  310DG     H22 7129   2.887   2.460   4.279 -0.5945 -0.0586  0.1038
  310DG     H23 7130   2.849   2.280   4.244 -2.9877 -1.5958  1.3414
  311DG      C1 7131   4.044   0.792   3.495  0.1239  0.1789 -0.1083
  311DG      C2 7132   3.832   0.555   3.953 -0.3691  0.6687  0.5285
  311DG      H3 7133   4.081   0.873   3.558 -2.6603  0.7781  0.8828
  311DG      H4 7134   4.126   0.728   3.462  0.2280  0.5381 -0.5703
  311DG      H5 7135   3.986   0.739   3.570 -0.8389  0.5215 -0.5930
  311DG      H6 7136   3.928   0.586   3.993 -0.7176 -1.2469  3.1535
  311DG      H7 7137   3.753   0.556   4.028 -1.1485 -1.1696 -0.2068
  311DG      H8 7138   3.844   0.453   3.916  0.1406 -0.5264  3.6584
  311DG      O9 7139   3.956   0.832   3.388  0.2527  0.2260  0.1673
  311DG     O10 7140   3.793   0.655   3.859  0.2043  0.2075  0.9851
  311DG     C11 7141   3.856   0.736   3.363  0.5129 -0.2325  0.5327
  311DG     C12 7142   3.674   0.620   3.791  0.2107 -0.7712 -0.1068
  311DG     H13 7143   3.903   0.638   3.356  0.6513 -0.0936 -0.8646
  311DG     H14 7144   3.822   0.758   3.262 -0.7553  0.7992  1.1503
  311DG     H15 7145   3.597   0.639   3.865 -2.0947 -0.4974 -2.4158
  311DG     H16 7146   3.674   0.521   3.744  1.6900  0.1699 -2.2717
  311DG     C17 7147   3.729   0.744   3.448 -0.3532  0.8169 -0.8946
  311DG     C18 7148   3.640   0.705   3.665  0.3486 -0.0378 -0.0723
  311DG     O19 7149   3.762   0.733   3.586  0.4889 -0.3603 -0.0038
  311DG     H20 7150   3.664   0.665   3.411  1.8888 -0.7054 -1.8290
  311DG     H21 7151   3.673   0.836   3.428 -2.5574 -0.2169  0.2032
  311DG     H22 7152   3.551   0.672   3.612 -0.3229  1.6496 -0.0669
  311DG     H23 7153   3.601   0.803   3.692  0.9728  0.7884 -2.0302
  312DG      C1 7154   4.164   1.336   4.353 -0.3485 -0.4756 -0.0656
  312DG      C2 7155   4.242   1.552   4.955  0.1355  0.6999  0.0316
  312DG      H3 7156   4.192   1.233   4.376  0.7850 -0.1684 -0.0250
  312DG      H4 7157   4.191   1.356   4.250 -0.2942  1.6770  0.3148
  312DG      H5 7158   4.060   1.370   4.359  0.3703  2.2420 -1.4725
  312DG      H6 7159   4.288   1.620   5.027 -0.5629  0.1885  0.9909
  312DG      H7 7160   4.197   1.460   4.991  0.2966  1.4150  2.1945
  312DG      H8 7161   4.333   1.540   4.897  0.4713  0.4773  0.5929
  312DG      O9 7162   4.237   1.422   4.448  0.0959 -0.3292 -0.1625
  312DG     O10 7163   4.153   1.617   4.866 -0.0073 -0.6435  0.1227
  312DG     C11 7164   4.264   1.549   4.384 -0.0677 -0.4010 -0.4215
  312DG     C12 7165   4.200   1.753   4.827 -0.1312  0.4486 -0.6162
  312DG     H13 7166   4.176   1.593   4.338  0.0601  1.2812  0.8458
  312DG     H14 7167   4.333   1.527   4.302  0.9893 -0.0549  0.3485
  312DG     H15 7168   4.244   1.810   4.909 -2.5448  2.2339 -0.4506
  312DG     H16 7169   4.103   1.799   4.806 -0.1621 -0.3082 -2.2592
  312DG     C17 7170   4.325   1.646   4.493 -0.1389  0.7108  0.2942
  312DG     C18 7171   4.283   1.750   4.702 -0.0423  0.0565  0.4141
  312DG     O19 7172   4.239   1.646   4.612 -0.4853  0.0207  0.5457
  312DG     H20 7173   4.333   1.744   4.446  2.6172 -0.5945 -2.2148
  312DG     H21 7174   4.425   1.614   4.522 -0.4406  0.1004  0.6810
  312DG     H22 7175   4.273   1.843   4.646  1.3932 -1.0236 -1.7339
  312DG     H23 7176   4.391   1.744   4.716  0.6394 -2.0116 -4.0377
  313DG      C1 7177   2.588   3.837   5.469  0.3597 -0.0237 -0.2071
  313DG      C2 7178   2.054   3.385   5.551 -0.1997  0.3799 -0.1152
  313DG      H3 7179   2.597   3.733   5.499 -2.0581  0.1781  1.5130
  313DG      H4 7180   2.645   3.896   5.542 -0.9648  2.1505 -0.8314
  313DG      H5 7181   2.628   3.854   5.369  0.3642  2.2334  0.1154
  313DG      H6 7182   2.092   3.348   5.646 -1.6188  0.9255  0.6861
  313DG      H7 7183   1.954   3.348   5.532 -0.5159  1.5555 -0.8817
  313DG      H8 7184   2.114   3.352   5.466 -0.8850 -0.9935 -0.0897
  313DG      O9 7185   2.455   3.879   5.461 -0.3842 -0.0207 -0.3375
  313DG     O10 7186   2.064   3.526   5.566 -0.4642 -0.2363 -0.0806
  313DG     C11 7187   2.392   3.906   5.588 -0.1087 -0.1709 -0.3075
  313DG     C12 7188   2.049   3.605   5.449 -0.4068  0.3924  0.6135
  313DG     H13 7189   2.427   4.000   5.631 -0.4301 -0.0099 -0.3965
  313DG     H14 7190   2.413   3.836   5.669 -1.3473 -0.0276  0.1555
  313DG     H15 7191   1.946   3.593   5.414  0.5266 -0.6136 -2.0486
  313DG     H16 7192   2.104   3.576   5.360  1.4160  0.2477  1.7313
  313DG     C17 7193   2.244   3.898   5.550 -0.3716  0.6949  0.3114
  313DG     C18 7194   2.071   3.755   5.482  0.2619 -0.2105  0.0122
  313DG     O19 7195   2.201   3.767   5.534 -0.4065  0.4808  0.1765
  313DG     H20 7196   2.219   3.952   5.459 -1.5055 -0.5514 -0.1516
  313DG     H21 7197   2.183   3.948   5.624  0.2485  0.3708  1.0559
  313DG     H22 7198   2.056   3.822   5.397 -0.8650  2.5579  2.2330
  313DG     H23 7199   2.003   3.794   5.557  0.4383  2.1984 -0.9650
  314DG      C1 7200   3.589   0.174   0.261 -0.1687 -0.6426  0.0265
  314DG      C2 7201   3.897  -0.311   0.604  0.7564  0.1181 -0.7977
  314DG      H3 7202   3.538   0.141   0.171 -0.2279 -1.8611  0.4813
  314DG      H4 7203   3.654   0.259   0.240 -2.5676  1.1680 -0.4523
  314DG      H5 7204   3.511   0.204   0.332  0.0955  0.0267  0.0424
  314DG      H6 7205   3.864  -0.260   0.695  1.9244 -2.3165  1.0830
  314DG      H7 7206   3.948  -0.405   0.621  3.2302  1.3508 -0.8360
  314DG      H8 7207   3.958  -0.232   0.560 -0.1925  0.9398 -0.6855
  314DG      O9 7208   3.655   0.058   0.303 -0.0146  0.7161  0.2171
  314DG     O10 7209   3.772  -0.317   0.547  0.2262 -0.0272  0.3501
  314DG     C11 7210   3.736  -0.012   0.209  0.2861  0.7465 -0.2389
  314DG     C12 7211   3.767  -0.398   0.429  0.5069 -0.1930  0.6737
  314DG     H13 7212   3.833   0.036   0.197  0.9518 -0.7749 -1.2656
  314DG     H14 7213   3.689  -0.023   0.111 -0.8754 -1.5519  0.5041
  314DG     H15 7214   3.757  -0.503   0.455  0.2952 -0.5070 -0.6104
  314DG     H16 7215   3.860  -0.388   0.373  0.8053  1.2615  1.3833
  314DG     C17 7216   3.762  -0.154   0.257 -0.5840 -0.1122 -0.1175
  314DG     C18 7217   3.651  -0.357   0.336 -0.2909  0.4974 -0.5450
  314DG     O19 7218   3.642  -0.218   0.306 -0.4235 -0.1365 -0.8743
  314DG     H20 7219   3.837  -0.152   0.336  0.1486  0.3652 -0.8066
  314DG     H21 7220   3.792  -0.216   0.172 -1.0516  0.3949 -0.6560
  314DG     H22 7221   3.642  -0.402   0.238 -1.8617  1.2484 -0.7794
  314DG     H23 7222   3.558  -0.396   0.378 -0.3500 -1.5152 -2.3870
  315DG      C1 7223   0.610   3.217   2.172 -0.0819  0.0839  0.5716
  315DG      C2 7224   1.145   2.844   1.920 -0.0122  0.6382 -0.5232
  315DG      H3 7225   0.585   3.293   2.098  0.7107  1.6673  1.8627
  315DG      H4 7226   0.581   3.255   2.270 -0.6631  1.2387 -0.0236
  315DG      H5 7227   0.573   3.117   2.148  1.8795 -0.4851 -0.3233
  315DG      H6 7228   1.157   2.897   1.826  1.5092  1.3062  0.0114
  315DG      H7 7229   1.242   2.795   1.929  0.2530  1.4734  2.2309
  315DG      H8 7230   1.077   2.761   1.937  0.2743  0.3539 -0.7470
  315DG      O9 7231   0.753   3.198   2.170 -0.3118 -0.0341 -0.3045
  315DG     O10 7232   1.131   2.948   2.018  0.1422  1.0229  0.4258
  315DG     C11 7233   0.842   3.310   2.195  1.2738 -0.3837 -0.1849
  315DG     C12 7234   1.212   3.068   2.021 -0.0274 -0.1919 -0.2950
  315DG     H13 7235   0.796   3.386   2.258 -0.1050  0.3757 -2.0127
  315DG     H14 7236   0.854   3.365   2.102  1.3862 -1.1623 -0.6427
  315DG     H15 7237   1.200   3.126   1.930 -2.6652 -0.3806 -0.1561
  315DG     H16 7238   1.315   3.036   2.038 -0.4055 -0.7672  1.1143
  315DG     C17 7239   0.979   3.263   2.245 -0.0027  0.3780 -0.1277
  315DG     C18 7240   1.180   3.148   2.148  0.3922 -0.5388  0.3829
  315DG     O19 7241   1.042   3.189   2.140  0.9533 -0.4263 -0.0130
  315DG     H20 7242   0.988   3.207   2.338 -0.0910 -0.5270 -0.6491
  315DG     H21 7243   1.040   3.352   2.263 -0.8910  1.1083 -0.6309
  315DG     H22 7244   1.189   3.097   2.244 -1.3603  1.6917  1.8574
  315DG     H23 7245   1.250   3.231   2.156  0.5434 -0.5721 -0.5593
  316DG      C1 7246   3.822   2.638   0.068 -0.4376 -0.3616  0.0295
  316DG      C2 7247   3.723   2.172   0.716 -0.1404 -0.5040  0.4204
  316DG      H3 7248   3.908   2.704   0.054 -0.3906 -0.2357  0.8584
  316DG      H4 7249   3.734   2.692   0.033 -0.3120  0.5097  0.9975
  316DG      H5 7250   3.832   2.550   0.005 -0.5907 -0.2755 -0.1149
  316DG      H6 7251   3.765   2.144   0.812 -3.8362 -1.6420  1.8927
  316DG      H7 7252   3.629   2.227   0.715  0.3310  0.5544 -3.7279
  316DG      H8 7253   3.703   2.074   0.671  0.9241  0.1159 -1.4993
  316DG      O9 7254   3.826   2.615   0.209  0.0534 -1.0253 -0.1284
  316DG     O10 7255   3.818   2.250   0.641  0.2044  0.0332  0.0684
  316DG     C11 7256   3.957   2.580   0.258 -0.0073  0.0358  0.0474
  316DG     C12 7257   3.778   2.267   0.505 -0.6195 -0.1608 -0.0734
  316DG     H13 7258   4.026   2.655   0.221  0.3767 -0.7636 -0.9078
  316DG     H14 7259   3.980   2.483   0.214  1.6211 -0.0206  0.9439
  316DG     H15 7260   3.690   2.331   0.513 -0.2427  0.3068  0.3789
  316DG     H16 7261   3.749   2.176   0.452 -1.1008 -0.6563  0.9991
  316DG     C17 7262   3.965   2.569   0.412 -0.0984 -0.3100 -0.5998
  316DG     C18 7263   3.880   2.337   0.426 -0.8454  0.7964 -0.1985
  316DG     O19 7264   3.871   2.473   0.468 -0.3396 -0.4679 -0.1690
  316DG     H20 7265   3.926   2.665   0.445  1.9170  0.9606 -1.7726
  316DG     H21 7266   4.069   2.548   0.436  0.4150 -0.2687 -2.6640
  316DG     H22 7267   3.976   2.291   0.445 -1.8803 -0.6380  1.9862
  316DG     H23 7268   3.859   2.346   0.319 -0.0111 -0.1826 -0.4478
  317DG      C1 7269   2.121   2.122   2.514  0.3599  0.8564 -0.1032
  317DG      C2 7270   2.068   2.218   1.975  0.8123  0.1526  0.1497
  317DG      H3 7271   2.122   2.089   2.410  0.7173  0.5124  0.0038
  317DG      H4 7272   2.041   2.066   2.562  0.9132 -0.8263 -1.0762
  317DG      H5 7273   2.213   2.089   2.564 -0.3769  0.9901  1.4041
  317DG      H6 7274   2.068   2.195   2.082  0.8593  1.7349  0.5213
  317DG      H7 7275   2.018   2.141   1.918  0.3696 -0.0310  0.7720
  317DG      H8 7276   2.171   2.224   1.942  0.4035  0.5724 -1.0972
  317DG      O9 7277   2.093   2.255   2.521 -0.1704 -0.6428  0.0053
  317DG     O10 7278   1.998   2.346   1.958 -0.3043 -0.3781 -0.3795
  317DG     C11 7279   2.184   2.334   2.447 -0.1449  0.3215  0.2931
  317DG     C12 7280   1.893   2.378   2.057  0.4989  0.0825 -0.6429
  317DG     H13 7281   2.254   2.273   2.390 -0.5860  0.0904 -0.0083
  317DG     H14 7282   2.246   2.393   2.515  0.5091 -0.4749  0.4032
  317DG     H15 7283   1.842   2.287   2.087  1.8326  0.2098  2.4012
  317DG     H16 7284   1.817   2.441   2.010 -1.4912  0.3455  2.5570
  317DG     C17 7285   2.100   2.436   2.376 -0.0892  0.2155  0.7070
  317DG     C18 7286   1.942   2.451   2.190  0.5962 -0.5803 -0.5109
  317DG     O19 7287   2.029   2.370   2.276  0.3875 -0.0473  0.7457
  317DG     H20 7288   2.171   2.510   2.338 -0.4425 -1.1498 -3.0581
  317DG     H21 7289   2.019   2.477   2.437  0.1391  1.6169  0.1188
  317DG     H22 7290   2.000   2.540   2.163  1.6786 -1.6717 -1.9345
  317DG     H23 7291   1.862   2.501   2.244  0.9488  0.3873 -0.8477
  318DG      C1 7292   2.349   3.992   2.098 -0.1284  0.1701  0.3010
  318DG      C2 7293   1.545   4.239   1.935 -0.6653 -0.1899  0.2220
  318DG      H3 7294   2.351   4.012   1.991 -0.2357  1.6766  0.5582
  318DG      H4 7295   2.322   3.890   2.123  0.2946  0.0786  0.4003
  318DG      H5 7296   2.452   4.001   2.134  0.5098 -0.8079 -1.2044
  318DG      H6 7297   1.506   4.149   1.982 -2.4605  0.2353 -0.3675
  318DG      H7 7298   1.469   4.311   1.967  0.1271  0.0950  1.5135
  318DG      H8 7299   1.543   4.231   1.826  2.1646  1.1099 -0.0156
  318DG      O9 7300   2.276   4.082   2.173 -0.0489 -0.6082  0.0156
  318DG     O10 7301   1.677   4.281   1.981  0.4424  0.6158 -0.5023
  318DG     C11 7302   2.144   4.101   2.123 -0.2191 -0.1189 -0.1183
  318DG     C12 7303   1.689   4.257   2.120 -0.5431 -0.2524 -0.9186
  318DG     H13 7304   2.088   4.008   2.127  0.3450 -0.5188 -0.9873
  318DG     H14 7305   2.155   4.126   2.017 -2.2493  1.1015 -0.0984
  318DG     H15 7306   1.670   4.152   2.143  1.1069 -0.1623  1.2349
  318DG     H16 7307   1.616   4.315   2.178  0.4959 -0.4791  0.6866
  318DG     C17 7308   2.055   4.213   2.181 -0.6757  0.0037 -0.3674
  318DG     C18 7309   1.833   4.296   2.151  0.0008  0.0457 -0.2158
  318DG     O19 7310   1.921   4.190   2.130  0.2857  0.2654 -0.0059
  318DG     H20 7311   2.105   4.301   2.139  0.6631  0.1795  1.4545
  318DG     H21 7312   2.064   4.206   2.290  2.3186  1.1784 -0.4383
  318DG     H22 7313   1.851   4.384   2.089 -3.0325 -0.3072 -1.8113
  318DG     H23 7314   1.845   4.324   2.256  0.8963 -1.2102  0.0421
  319DG      C1 7315   2.043   5.093   4.402 -0.3040 -0.1012 -0.0336
  319DG      C2 7316   1.468   5.454   4.853 -0.2921  0.0561  0.4714
  319DG      H3 7317   2.126   5.063   4.465 -0.4530 -0.5636 -0.0553
  319DG      H4 7318   2.083   5.131   4.308  2.7163  0.8923  1.5357
  319DG      H5 7319   1.973   5.011   4.388 -0.6754  0.5450 -2.4543
  319DG      H6 7320   1.497   5.412   4.948  2.5338 -1.1524 -0.8199
  319DG      H7 7321   1.421   5.553   4.857 -2.0683 -0.7462  0.4057
  319DG      H8 7322   1.392   5.391   4.805 -0.8282  0.5723  0.6195
  319DG      O9 7323   1.982   5.201   4.470  0.1218  0.0173 -0.2169
  319DG     O10 7324   1.579   5.444   4.767  0.2062  0.0803 -0.1656
  319DG     C11 7325   1.952   5.184   4.614  0.1488 -0.9283 -0.9150
  319DG     C12 7326   1.695   5.519   4.810 -0.0973 -0.0997  0.1941
  319DG     H13 7327   2.042   5.148   4.664  1.9026 -0.0811 -3.2478
  319DG     H14 7328   1.867   5.121   4.641 -0.8623  0.5272 -0.6388
  319DG     H15 7329   1.733   5.473   4.901  0.0747  1.8007  1.1418
  319DG     H16 7330   1.666   5.620   4.838 -1.3785 -0.5905  0.6946
  319DG     C17 7331   1.932   5.327   4.667 -0.1228  0.1104  0.5598
  319DG     C18 7332   1.777   5.518   4.685  0.1517  0.3962  0.2266
  319DG     O19 7333   1.811   5.393   4.625 -0.2528  0.0637  0.3122
  319DG     H20 7334   2.014   5.376   4.616  2.0858 -0.1754  3.5498
  319DG     H21 7335   1.950   5.335   4.774 -0.1522  1.9338  0.4661
  319DG     H22 7336   1.707   5.565   4.616 -1.3355  0.4268  1.6952
  319DG     H23 7337   1.862   5.586   4.684  0.7719 -0.3404 -1.6268
  320DG      C1 7338   2.961   3.992   2.035  0.1304 -0.4308  0.0456
  320DG      C2 7339   2.697   4.593   1.484  0.8506  0.2419 -0.4273
  320DG      H3 7340   3.068   4.006   2.024  0.3047 -0.4836  1.5583
  320DG      H4 7341   2.941   3.917   1.958 -0.6188  0.6492 -0.8490
  320DG      H5 7342   2.939   3.961   2.137 -0.4277  0.9822  0.3843
  320DG      H6 7343   2.602   4.570   1.436 -0.6947  1.4129  1.8777
  320DG      H7 7344   2.699   4.702   1.486 -4.2080  0.5824  1.3251
  320DG      H8 7345   2.789   4.572   1.430 -0.6038  1.1795 -3.5256
  320DG      O9 7346   2.883   4.113   2.013  0.0902  0.5001 -0.1199
  320DG     O10 7347   2.690   4.549   1.621  0.0092 -0.5855 -0.1895
  320DG     C11 7348   2.748   4.085   1.995  0.7865 -0.6144  0.1707
  320DG     C12 7349   2.694   4.409   1.636 -0.3531 -0.7092 -0.0499
  320DG     H13 7350   2.715   4.040   2.089  0.9544  1.4023  1.2642
  320DG     H14 7351   2.734   4.008   1.919  0.2216 -0.8902  0.5470
  320DG     H15 7352   2.795   4.384   1.605  0.1224 -1.8876  2.2002
  320DG     H16 7353   2.621   4.355   1.577 -0.2817  0.7656 -1.5529
  320DG     C17 7354   2.683   4.220   1.964  0.2901  0.3730  0.5467
  320DG     C18 7355   2.672   4.378   1.784 -0.0344 -0.5003  0.2171
  320DG     O19 7356   2.729   4.256   1.830 -0.5240  0.0540  0.4224
  320DG     H20 7357   2.698   4.301   2.036 -0.3008  1.0054 -0.0280
  320DG     H21 7358   2.576   4.202   1.959  0.6873 -1.9334 -2.0935
  320DG     H22 7359   2.715   4.455   1.847  2.5597 -0.5767 -1.3361
  320DG     H23 7360   2.564   4.384   1.800 -0.0756  1.7654 -0.6383
  321DG      C1 7361   5.229   1.298   2.599 -0.5055  0.3021  0.3667
  321DG      C2 7362   5.333   0.808   3.153  0.1710 -0.0310 -0.1915
  321DG      H3 7363   5.281   1.367   2.532  0.6007  0.4783  1.3576
  321DG      H4 7364   5.133   1.344   2.622  0.1145  2.6767 -1.3676
  321DG      H5 7365   5.225   1.202   2.548 -2.2614  0.6383 -0.1702
  321DG      H6 7366   5.328   0.818   3.261  3.8085 -1.6679  0.3003
  321DG      H7 7367   5.234   0.823   3.111  0.7807  1.2099 -1.2476
  321DG      H8 7368   5.330   0.703   3.125 -3.4076  0.2447 -1.3477
  321DG      O9 7369   5.297   1.281   2.722  0.3821 -0.2025  0.0294
  321DG     O10 7370   5.429   0.886   3.076  0.2232 -0.0358 -0.1747
  321DG     C11 7371   5.433   1.242   2.708  0.1662  0.4481  0.0275
  321DG     C12 7372   5.441   1.022   3.122  0.0533  0.0429  0.3578
  321DG     H13 7373   5.481   1.318   2.647  0.5329 -0.2162 -0.5290
  321DG     H14 7374   5.428   1.143   2.663 -0.0907  1.3173 -1.9703
  321DG     H15 7375   5.479   1.012   3.224  1.3443  0.0643 -0.1052
  321DG     H16 7376   5.341   1.062   3.140 -1.1662 -2.6626  0.1945
  321DG     C17 7377   5.510   1.243   2.841  0.2289  0.2053  0.6114
  321DG     C18 7378   5.520   1.124   3.045  0.3748 -0.4223 -0.0231
  321DG     O19 7379   5.464   1.136   2.919 -0.2357 -0.2717 -0.0743
  321DG     H20 7380   5.499   1.338   2.892  0.8360 -0.8044  2.7734
  321DG     H21 7381   5.618   1.232   2.827  0.4587  0.8671  1.7062
  321DG     H22 7382   5.515   1.225   3.087 -1.9388  0.3204 -1.8573
  321DG     H23 7383   5.624   1.093   3.032  0.4992  0.2648 -0.7561
  322DG      C1 7384   2.255   2.463   0.803  0.0323 -0.2383 -0.5364
  322DG      C2 7385   1.813   2.226   0.329 -0.5618  0.6497  0.2740
  322DG      H3 7386   2.276   2.469   0.910  0.1581 -1.6280 -0.4648
  322DG      H4 7387   2.232   2.561   0.761 -2.2603 -0.4123  0.1758
  322DG      H5 7388   2.336   2.409   0.754 -0.6966 -1.3840 -0.5186
  322DG      H6 7389   1.819   2.332   0.302  1.9088  0.6426  0.5860
  322DG      H7 7390   1.863   2.157   0.262 -0.4464 -0.0571  1.0849
  322DG      H8 7391   1.710   2.189   0.327 -0.9462  1.4130  2.7910
  322DG      O9 7392   2.152   2.376   0.770  0.1516 -0.4967 -0.3849
  322DG     O10 7393   1.851   2.212   0.466 -0.4868 -0.3371 -0.4062
  322DG     C11 7394   2.188   2.241   0.801  0.7201 -0.3915  0.3156
  322DG     C12 7395   1.868   2.072   0.500  0.5136 -0.5788  0.1254
  322DG     H13 7396   2.222   2.236   0.905 -0.9992  1.6516  1.0485
  322DG     H14 7397   2.269   2.199   0.742  0.6468 -1.3412  0.8557
  322DG     H15 7398   1.935   2.013   0.438  0.6117 -1.4472  1.0431
  322DG     H16 7399   1.771   2.028   0.477  0.3715 -0.4570  0.4860
  322DG     C17 7400   2.066   2.145   0.800  0.5337 -0.7768  0.1155
  322DG     C18 7401   1.921   2.046   0.647 -0.6979 -0.0838  0.0807
  322DG     O19 7402   2.020   2.152   0.673 -0.0142  1.2371  0.0888
  322DG     H20 7403   1.987   2.169   0.871 -0.8870 -3.5791 -0.3524
  322DG     H21 7404   2.104   2.048   0.831  1.5069 -0.0167  1.3953
  322DG     H22 7405   1.837   2.052   0.716 -1.5518 -1.6283 -0.7942
  322DG     H23 7406   1.965   1.948   0.667  1.3564  1.0580  1.5189
  323DG      C1 7407   3.767   4.834   0.196  0.0511  0.0550 -0.1735
  323DG      C2 7408   3.250   4.336   0.312 -0.4710 -0.1702 -0.4750
  323DG      H3 7409   3.858   4.890   0.222 -0.2040  0.6621 -0.5626
  323DG      H4 7410   3.700   4.891   0.132 -0.6553 -0.2678  0.2744
  323DG      H5 7411   3.802   4.750   0.136  0.9501  2.2036 -2.8931
  323DG      H6 7412   3.213   4.386   0.402  0.8248  0.7005 -0.4071
  323DG      H7 7413   3.166   4.348   0.243 -3.2148 -2.2559  2.2233
  323DG      H8 7414   3.246   4.228   0.328  0.9974 -0.0677  0.8173
  323DG      O9 7415   3.687   4.792   0.306  0.4985 -0.1204  0.1582
  323DG     O10 7416   3.373   4.387   0.258 -0.0463  0.0737 -0.0162
  323DG     C11 7417   3.756   4.732   0.403  0.4507  0.5010  0.7997
  323DG     C12 7418   3.472   4.393   0.361  0.0520 -0.0404  0.8317
  323DG     H13 7419   3.701   4.752   0.495 -1.8785 -0.7205 -0.2267
  323DG     H14 7420   3.851   4.783   0.417 -0.1172  1.8099  0.0168
  323DG     H15 7421   3.499   4.300   0.411 -0.1895 -0.9447 -0.6536
  323DG     H16 7422   3.437   4.452   0.446 -0.2935  0.6731  0.2067
  323DG     C17 7423   3.778   4.586   0.395  0.3993 -0.3362  0.0998
  323DG     C18 7424   3.596   4.463   0.302 -0.0674 -0.0770 -0.4823
  323DG     O19 7425   3.657   4.515   0.416 -0.2700 -0.6270  0.4234
  323DG     H20 7426   3.855   4.572   0.471 -0.2638  0.4971  0.9327
  323DG     H21 7427   3.822   4.551   0.301  3.9795  0.6580  1.2550
  323DG     H22 7428   3.662   4.395   0.249 -0.9720 -2.1755  0.9530
  323DG     H23 7429   3.564   4.547   0.241  0.7000  0.3704 -0.2804
  324DG      C1 7430   4.573   0.696   4.502  0.1240  0.6663  0.0192
  324DG      C2 7431   4.771   0.931   5.156 -0.5879 -0.4549  0.3472
  324DG      H3 7432   4.656   0.738   4.446  1.8166  0.6891  2.4028
  324DG      H4 7433   4.489   0.763   4.519 -0.6268 -0.2405 -0.0292
  324DG      H5 7434   4.544   0.614   4.436  0.4318 -0.1544  0.8845
  324DG      H6 7435   4.798   1.027   5.113 -1.1067 -0.4284  0.0716
  324DG      H7 7436   4.729   0.943   5.256  0.9682 -1.0920  1.1002
  324DG      H8 7437   4.863   0.876   5.172  2.0301  2.8822 -1.8806
  324DG      O9 7438   4.607   0.652   4.634  0.2669 -0.5427  0.4245
  324DG     O10 7439   4.689   0.843   5.078 -0.1451 -0.3386  0.2738
  324DG     C11 7440   4.497   0.592   4.695  0.3353 -0.1191  0.0041
  324DG     C12 7441   4.571   0.912   5.052 -0.4648  0.5013 -0.3542
  324DG     H13 7442   4.529   0.500   4.742 -1.7513 -0.3458  1.1295
  324DG     H14 7443   4.417   0.566   4.625  0.4738  0.5794 -0.4260
  324DG     H15 7444   4.587   1.001   4.991  0.1403  0.2426 -0.5893
  324DG     H16 7445   4.520   0.939   5.144 -3.0901 -3.0139 -0.5590
  324DG     C17 7446   4.430   0.683   4.801 -0.2922 -0.7420  0.0801
  324DG     C18 7447   4.477   0.815   4.983 -0.8350 -1.0192 -0.5800
  324DG     O19 7448   4.530   0.761   4.864 -0.2401 -0.3094 -0.3852
  324DG     H20 7449   4.372   0.626   4.873 -1.2302  0.7972  0.5815
  324DG     H21 7450   4.361   0.745   4.745  1.0990 -1.1665 -2.2627
  324DG     H22 7451   4.441   0.736   5.049 -0.5791  0.2719  1.1776
  324DG     H23 7452   4.399   0.881   4.945 -0.3808 -1.6069 -2.7008
  325DG      C1 7453   2.366   4.106   5.071 -0.3684 -1.1285 -0.1667
  325DG      C2 7454   2.356   4.669   5.318  0.1387  0.3970  0.3214
  325DG      H3 7455   2.267   4.065   5.091 -0.6891  0.4369  1.8864
  325DG      H4 7456   2.428   4.099   5.160 -0.1611 -0.5288 -0.2581
  325DG      H5 7457   2.413   4.054   4.988  3.9760  0.1423  1.2198
  325DG      H6 7458   2.449   4.613   5.307 -0.8563 -0.9409 -1.8526
  325DG      H7 7459   2.386   4.773   5.331  0.0213  0.3632  0.8907
  325DG      H8 7460   2.310   4.628   5.408  0.0463  0.6587  0.3940
  325DG      O9 7461   2.348   4.244   5.051 -0.3457 -0.2015 -0.1599
  325DG     O10 7462   2.259   4.660   5.214 -0.7260  0.5285 -0.4881
  325DG     C11 7463   2.372   4.287   4.922 -0.2219 -0.2630  0.4937
  325DG     C12 7464   2.290   4.700   5.083 -0.2145 -0.0969  0.1175
  325DG     H13 7465   2.308   4.233   4.852 -0.2050 -0.8174  0.9041
  325DG     H14 7466   2.476   4.264   4.898 -0.2201  0.6388 -0.4183
  325DG     H15 7467   2.297   4.809   5.079  1.6736 -0.0970  1.7640
  325DG     H16 7468   2.208   4.678   5.015  0.8395 -0.8155 -0.9514
  325DG     C17 7469   2.342   4.437   4.917  0.7555 -0.1542  0.2803
  325DG     C18 7470   2.414   4.630   5.022  0.2894 -0.3307 -0.0651
  325DG     O19 7471   2.415   4.489   5.022 -0.4398 -0.0993 -0.6235
  325DG     H20 7472   2.236   4.456   4.935  0.8318  0.3798  0.1794
  325DG     H21 7473   2.368   4.464   4.815 -0.7600  2.3691  0.4737
  325DG     H22 7474   2.436   4.667   4.922  0.3448  1.6626  0.6384
  325DG     H23 7475   2.504   4.658   5.078 -0.3665  2.3511 -0.2274
  326DG      C1 7476   4.866   2.903   4.397 -0.2129 -0.3167  0.1638
  326DG      C2 7477   5.633   2.688   4.409 -0.4750  0.2398  0.4526
  326DG      H3 7478   4.819   2.969   4.470 -1.4790  0.1840 -1.0520
  326DG      H4 7479   4.862   2.800   4.434 -2.7751  0.0376  1.1264
  326DG      H5 7480   4.801   2.914   4.310  0.0308  0.0779  0.0309
  326DG      H6 7481   5.694   2.643   4.330 -2.1024 -3.3244  1.0387
  326DG      H7 7482   5.685   2.767   4.463  1.7895 -1.7755  1.4318
  326DG      H8 7483   5.621   2.599   4.471 -0.4082 -0.4867 -0.5552
  326DG      O9 7484   4.992   2.960   4.366  0.3726  0.2346 -0.4602
  326DG     O10 7485   5.513   2.739   4.358 -0.0688 -0.6997 -0.2636
  326DG     C11 7486   5.060   2.896   4.265 -0.2370 -0.2319  0.2431
  326DG     C12 7487   5.543   2.835   4.257  0.5371 -0.2142 -0.5806
  326DG     H13 7488   4.995   2.893   4.177 -0.5106  1.0081  0.3901
  326DG     H14 7489   5.092   2.797   4.299  0.0379  0.4633  2.0926
  326DG     H15 7490   5.538   2.777   4.165 -0.0277 -1.3378  0.1391
  326DG     H16 7491   5.636   2.890   4.271  0.3062 -0.1538  0.9276
  326DG     C17 7492   5.190   2.954   4.221 -0.0559  0.2106  0.3852
  326DG     C18 7493   5.430   2.935   4.242  0.4164 -0.4381 -0.2635
  326DG     O19 7494   5.299   2.871   4.243 -0.0921  0.8424  0.1507
  326DG     H20 7495   5.192   3.044   4.281  0.4579 -0.1803  0.9652
  326DG     H21 7496   5.188   2.992   4.119 -0.1983  1.6850  0.9191
  326DG     H22 7497   5.420   3.003   4.327 -1.2973  0.0510 -0.7988
  326DG     H23 7498   5.435   2.998   4.153 -0.5941  0.4980  0.3092
  327DG      C1 7499   3.234   3.971   3.563  0.1516  0.1311 -0.2167
  327DG      C2 7500   2.717   4.538   3.168 -0.0751  0.3164 -0.8257
  327DG      H3 7501   3.169   3.886   3.542 -1.6832  1.1223  1.2195
  327DG      H4 7502   3.184   4.038   3.632  0.2350 -0.8377  0.8156
  327DG      H5 7503   3.319   3.934   3.621  0.3243 -0.9015 -1.0814
  327DG      H6 7504   2.630   4.503   3.113  1.0902 -2.4080 -1.0779
  327DG      H7 7505   2.685   4.600   3.252 -0.5189 -0.3886 -0.4575
  327DG      H8 7506   2.774   4.608   3.107  0.1934  1.0703  0.2653
  327DG      O9 7507   3.279   4.034   3.439  0.4346  0.1383  0.3058
  327DG     O10 7508   2.777   4.419   3.204 -0.3671  0.2563  0.2512
  327DG     C11 7509   3.183   4.093   3.350 -0.1047  0.0994 -0.0699
  327DG     C12 7510   2.916   4.431   3.241  0.4967 -0.3977  0.6100
  327DG     H13 7511   3.090   4.037   3.337  0.0894 -0.0667 -0.7884
  327DG     H14 7512   3.229   4.097   3.251 -0.1599 -1.5306 -0.1904
  327DG     H15 7513   2.926   4.526   3.293 -0.6508  1.6496 -2.6125
  327DG     H16 7514   2.977   4.454   3.153  1.6769 -0.3944  1.4145
  327DG     C17 7515   3.154   4.222   3.418 -0.1224 -0.1970 -0.0213
  327DG     C18 7516   2.966   4.313   3.314  0.9805 -0.1713  0.5145
  327DG     O19 7517   3.101   4.322   3.336 -0.0158 -0.3668 -0.2754
  327DG     H20 7518   3.246   4.257   3.464 -0.6896  0.7681  0.3874
  327DG     H21 7519   3.081   4.212   3.498 -2.6042  1.6172 -1.8808
  327DG     H22 7520   2.902   4.302   3.401  0.8638  0.3866  0.5015
  327DG     H23 7521   2.941   4.229   3.250 -1.0436  1.3782 -0.8497
  328DG      C1 7522   3.151   1.718   0.184  0.3834  0.4067  0.0356
  328DG      C2 7523   2.785   2.247   0.180 -0.1098 -0.3522  0.8196
  328DG      H3 7524   3.109   1.678   0.092  1.0452  0.8374 -0.4567
  328DG      H4 7525   3.069   1.700   0.254 -0.9893  1.1499 -1.3254
  328DG      H5 7526   3.236   1.659   0.218  0.0120  0.8145  1.7819
  328DG      H6 7527   2.706   2.192   0.231 -0.6926  1.5815  2.1216
  328DG      H7 7528   2.757   2.350   0.205 -1.4162 -0.4173 -0.2404
  328DG      H8 7529   2.779   2.243   0.071 -1.3662  0.7731  0.8222
  328DG      O9 7530   3.168   1.858   0.180  0.0041  0.7829 -0.4421
  328DG     O10 7531   2.923   2.211   0.210 -0.1892 -0.4205  0.6051
  328DG     C11 7532   3.273   1.910   0.101 -0.3032 -0.1511  0.1604
  328DG     C12 7533   3.018   2.299   0.146  0.0074  0.1415 -0.0029
  328DG     H13 7534   3.255   1.881  -0.003 -0.2973  0.3112  0.0294
  328DG     H14 7535   3.363   1.859   0.133  1.9135  1.4904 -2.9392
  328DG     H15 7536   3.005   2.400   0.184  1.0203 -0.1391  1.1491
  328DG     H16 7537   2.998   2.310   0.039 -1.6887  2.7274  0.5016
  328DG     C17 7538   3.293   2.058   0.118 -0.0889 -0.1862 -0.1689
  328DG     C18 7539   3.159   2.245   0.169 -0.0665  0.2777 -0.8806
  328DG     O19 7540   3.164   2.117   0.101 -0.5909 -0.6811 -0.1000
  328DG     H20 7541   3.365   2.086   0.042  1.6181 -3.0421  0.2230
  328DG     H21 7542   3.333   2.071   0.219 -1.6886 -1.3974  0.6838
  328DG     H22 7543   3.232   2.319   0.136  0.2706  1.4323  2.1738
  328DG     H23 7544   3.176   2.230   0.275  0.0739 -0.3329 -0.9876
  329DG      C1 7545   0.318   4.322   1.808  0.1876 -0.0048 -0.4670
  329DG      C2 7546  -0.111   4.618   1.392  0.5772  0.1947  0.3259
  329DG      H3 7547   0.344   4.304   1.912 -0.7787  1.1334  0.0035
  329DG      H4 7548   0.411   4.315   1.752  1.0854  0.0936  0.9768
  329DG      H5 7549   0.259   4.232   1.790 -1.2353  0.4179  1.7538
  329DG      H6 7550  -0.164   4.523   1.407 -1.6280  1.7460  3.3695
  329DG      H7 7551  -0.173   4.693   1.343 -0.3790  0.3388  1.7170
  329DG      H8 7552  -0.029   4.608   1.320 -1.7193  2.1937 -2.8327
  329DG      O9 7553   0.245   4.439   1.787 -0.7114 -0.4196 -0.3410
  329DG     O10 7554  -0.090   4.661   1.529 -0.3710 -0.2435 -0.3061
  329DG     C11 7555   0.313   4.561   1.823  1.0012  0.8728  0.0667
  329DG     C12 7556  -0.025   4.788   1.544  0.2614 -0.2084 -0.9289
  329DG     H13 7557   0.402   4.575   1.761 -0.6468 -2.2188 -3.3556
  329DG     H14 7558   0.349   4.551   1.925 -1.3528  0.9889  0.9527
  329DG     H15 7559  -0.100   4.867   1.533  1.2277  1.3805  2.5612
  329DG     H16 7560   0.053   4.805   1.469  1.5513  1.6733  0.7256
  329DG     C17 7561   0.217   4.684   1.809 -0.1799 -0.3850 -0.1014
  329DG     C18 7562   0.037   4.790   1.684  0.2643 -1.0089 -0.3186
  329DG     O19 7563   0.147   4.701   1.681  0.2830 -0.0189 -0.1120
  329DG     H20 7564   0.268   4.773   1.846  1.8608 -1.9695  1.1425
  329DG     H21 7565   0.139   4.671   1.884  1.0095  0.3425  1.3211
  329DG     H22 7566   0.074   4.890   1.704  0.4235 -1.1596  0.1430
  329DG     H23 7567  -0.031   4.765   1.765  0.5508 -0.0051  0.2432
  330DG      C1 7568   3.558   4.000   5.053 -0.0679 -0.0891 -0.7926
  330DG      C2 7569   3.098   4.443   5.185 -0.1919 -0.2860  0.0599
  330DG      H3 7570   3.662   4.024   5.031  0.4128 -0.6056  0.8069
  330DG      H4 7571   3.512   4.005   4.954  0.1059 -2.2271 -1.0326
  330DG      H5 7572   3.555   3.896   5.084  1.7490 -0.3787 -1.4581
  330DG      H6 7573   3.112   4.441   5.077 -0.3047  1.8701 -0.0397
  330DG      H7 7574   3.023   4.367   5.207 -0.6184  0.4488  1.2064
  330DG      H8 7575   3.056   4.539   5.216  0.2676 -0.3357  0.8603
  330DG      O9 7576   3.512   4.094   5.139 -0.0456  0.2276 -0.0901
  330DG     O10 7577   3.227   4.406   5.243  0.2148 -0.4535 -0.4149
  330DG     C11 7578   3.536   4.063   5.270  0.4565 -0.2483  0.4521
  330DG     C12 7579   3.222   4.390   5.389  0.1556 -0.0914  0.4360
  330DG     H13 7580   3.634   4.021   5.290  1.4843  1.7887 -0.0149
  330DG     H14 7581   3.463   3.990   5.305  1.3461 -0.8358  1.1146
  330DG     H15 7582   3.139   4.325   5.418  1.1064 -0.3708  2.6760
  330DG     H16 7583   3.216   4.494   5.423 -1.6729  0.1395 -0.4697
  330DG     C17 7584   3.523   4.186   5.367 -0.3379  0.2380  0.0001
  330DG     C18 7585   3.349   4.338   5.446 -0.0927 -0.1663 -0.4351
  330DG     O19 7586   3.390   4.236   5.362 -0.3212  0.1928  0.0656
  330DG     H20 7587   3.578   4.275   5.335 -0.9414  0.5087 -0.2855
  330DG     H21 7588   3.544   4.168   5.473 -1.0340  2.2738  0.5253
  330DG     H22 7589   3.422   4.415   5.469  2.0206 -2.1233 -0.1671
  330DG     H23 7590   3.332   4.301   5.547  1.0005 -1.6305 -0.7319
  331DG      C1 7591   5.370   5.316   3.582 -0.3983  0.2219 -0.6620
  331DG      C2 7592   6.017   5.393   3.606  0.7454  0.4978 -0.2081
  331DG      H3 7593   5.355   5.418   3.547 -1.1319  1.1415  2.0848
  331DG      H4 7594   5.390   5.321   3.689 -2.1334  0.3882 -0.3204
  331DG      H5 7595   5.278   5.260   3.563 -0.3867  0.1464 -0.4937
  331DG      H6 7596   5.995   5.500   3.599  2.6279  0.8715 -1.0393
  331DG      H7 7597   6.023   5.374   3.713 -1.4353  0.1235 -0.1168
  331DG      H8 7598   6.117   5.372   3.567  0.7346  0.7506 -0.3782
  331DG      O9 7599   5.482   5.261   3.527  0.4002  0.1023 -0.4089
  331DG     O10 7600   5.911   5.311   3.565  0.1864  0.3208 -0.1110
  331DG     C11 7601   5.496   5.123   3.551 -0.0967 -0.1639 -0.2638
  331DG     C12 7602   5.956   5.174   3.554  0.2208  0.0318 -0.1237
  331DG     H13 7603   5.409   5.062   3.526  0.6319 -1.2366 -0.2149
  331DG     H14 7604   5.500   5.103   3.658  0.3842  0.5930 -0.1382
  331DG     H15 7605   5.978   5.129   3.651  0.9633  0.7420  0.0508
  331DG     H16 7606   6.054   5.163   3.506 -0.0157  0.0380 -0.6098
  331DG     C17 7607   5.621   5.072   3.480  0.4242 -0.4068  0.0760
  331DG     C18 7608   5.843   5.117   3.466 -0.0032 -0.1453  0.3924
  331DG     O19 7609   5.723   5.143   3.544 -0.0188 -0.1944 -0.9101
  331DG     H20 7610   5.604   5.103   3.377  1.4911 -0.5562 -0.1552
  331DG     H21 7611   5.640   4.965   3.482  0.7691 -0.3422  0.8908
  331DG     H22 7612   5.854   5.161   3.367 -0.0976  0.4934  0.6626
  331DG     H23 7613   5.855   5.009   3.459  2.1296  0.0036  0.9320
  332DG      C1 7614   4.065   2.418   3.894  0.0425 -0.3157  0.4729
  332DG      C2 7615   4.364   1.843   3.800 -0.8434 -0.5664 -0.3015
  332DG      H3 7616   3.973   2.472   3.914 -0.9112 -1.6184 -0.2388
  332DG      H4 7617   4.088   2.434   3.788 -1.6774 -2.2522 -0.2538
  332DG      H5 7618   4.148   2.458   3.952 -1.4208 -0.2500  2.6291
  332DG      H6 7619   4.381   1.738   3.824 -0.2904 -0.3092  0.4678
  332DG      H7 7620   4.360   1.851   3.691 -2.1078  1.2531 -0.1736
  332DG      H8 7621   4.454   1.894   3.834 -0.8996 -1.6213  1.5535
  332DG      O9 7622   4.034   2.279   3.912  0.4472 -0.5957 -0.7262
  332DG     O10 7623   4.250   1.890   3.869 -0.3791 -1.0032 -0.2523
  332DG     C11 7624   3.912   2.248   3.832 -0.0046 -0.0522 -0.0893
  332DG     C12 7625   4.133   1.828   3.808  0.1814 -1.1343 -0.1144
  332DG     H13 7626   3.925   2.273   3.727 -1.2801 -1.0932 -0.5161
  332DG     H14 7627   3.822   2.299   3.864 -0.0177 -2.0389  3.5166
  332DG     H15 7628   4.135   1.720   3.822  0.3963 -1.2373 -0.8660
  332DG     H16 7629   4.140   1.849   3.701  0.5413  0.6171  0.2242
  332DG     C17 7630   3.881   2.101   3.842 -0.4774 -0.1448 -0.5787
  332DG     C18 7631   3.996   1.890   3.859  0.0652 -0.2081  0.1830
  332DG     O19 7632   4.005   2.025   3.825  0.2685 -0.7425 -0.2751
  332DG     H20 7633   3.800   2.077   3.773 -2.8853  0.3656  1.9209
  332DG     H21 7634   3.838   2.073   3.938  0.0166  0.4492 -0.1750
  332DG     H22 7635   3.905   1.859   3.807 -0.0222  0.6483 -0.1967
  332DG     H23 7636   3.970   1.874   3.964  0.9826  1.5975  0.7236
  333DG      C1 7637   1.988   1.452   2.172 -0.2221 -0.3836  0.1745
  333DG      C2 7638   1.218   1.784   2.347 -0.6211  0.0551 -0.0981
  333DG      H3 7639   2.009   1.516   2.085 -0.6724 -0.8250 -0.2651
  333DG      H4 7640   1.994   1.345   2.151 -2.4598 -0.7698  1.2191
  333DG      H5 7641   2.032   1.481   2.267 -2.3246 -0.3429  1.1794
  333DG      H6 7642   1.236   1.880   2.298  0.5388  0.3777  0.9022
  333DG      H7 7643   1.206   1.714   2.265 -0.1839 -1.0024  0.7210
  333DG      H8 7644   1.125   1.791   2.404 -0.5088  1.6224 -0.0612
  333DG      O9 7645   1.851   1.484   2.210  0.3874 -0.2111 -0.3453
  333DG     O10 7646   1.330   1.750   2.423 -0.1889  0.1725 -0.6780
  333DG     C11 7647   1.785   1.392   2.287 -0.4356 -0.1198  0.1844
  333DG     C12 7648   1.438   1.710   2.344  0.2145  0.4161 -0.0286
  333DG     H13 7649   1.840   1.378   2.379  0.2065  0.8998 -0.0277
  333DG     H14 7650   1.779   1.295   2.237 -2.0234 -0.1708  0.4243
  333DG     H15 7651   1.463   1.790   2.275 -0.8849  0.5025 -0.3469
  333DG     H16 7652   1.409   1.627   2.279  1.3851  0.2794 -0.3914
  333DG     C17 7653   1.649   1.461   2.314  0.0795 -0.0261 -0.4529
  333DG     C18 7654   1.558   1.666   2.427  0.6833  0.0843  0.0431
  333DG     O19 7655   1.662   1.603   2.346 -0.2956  0.7807  0.2190
  333DG     H20 7656   1.598   1.409   2.396 -1.8361 -0.1870 -1.6732
  333DG     H21 7657   1.588   1.461   2.224 -1.8600  3.2218  0.7029
  333DG     H22 7658   1.599   1.755   2.475 -1.5038  0.2097  1.8248
  333DG     H23 7659   1.523   1.607   2.512  0.5801 -1.2250 -0.8775
  334DG      C1 7660   1.677   3.176   4.903  0.5349  0.3708  0.6243
  334DG      C2 7661   2.019   2.533   5.062 -0.2158  0.4848 -0.0079
  334DG      H3 7662   1.573   3.146   4.896  0.9935 -1.2595  0.2666
  334DG      H4 7663   1.702   3.258   4.836  1.5403  0.0152  0.5367
  334DG      H5 7664   1.700   3.208   5.005  3.3106 -1.7288  0.7752
  334DG      H6 7665   2.122   2.505   5.085  0.0048 -1.1892 -2.5384
  334DG      H7 7666   1.964   2.580   5.143  0.6023  0.0646  0.8036
  334DG      H8 7667   1.975   2.435   5.044 -1.0040  0.8110  0.1015
  334DG      O9 7668   1.753   3.064   4.874 -0.3205  0.0280  0.1412
  334DG     O10 7669   2.006   2.610   4.939 -0.0674 -0.2543  0.6360
  334DG     C11 7670   1.721   3.005   4.742  0.2397 -0.5010 -0.1159
  334DG     C12 7671   2.027   2.746   4.952 -0.4479  0.0720  0.1475
  334DG     H13 7672   1.768   3.063   4.663  0.3296 -0.3784  0.0261
  334DG     H14 7673   1.614   3.022   4.731  0.5350  1.2227 -0.6388
  334DG     H15 7674   2.108   2.770   4.882  0.0833 -0.9995  0.3763
  334DG     H16 7675   2.062   2.769   5.052  3.0793 -1.7463 -0.5046
  334DG     C17 7676   1.752   2.855   4.729  0.1839 -0.1891  0.3074
  334DG     C18 7677   1.902   2.828   4.920  0.3100 -0.7885 -0.4127
  334DG     O19 7678   1.882   2.819   4.782 -0.1490  0.0011  0.1138
  334DG     H20 7679   1.738   2.836   4.622 -0.0082 -1.5807  0.5619
  334DG     H21 7680   1.672   2.805   4.784 -0.9167 -1.6773 -2.4095
  334DG     H22 7681   1.818   2.785   4.973 -1.2341  0.6389 -1.5698
  334DG     H23 7682   1.912   2.932   4.952 -1.1004 -0.9168  0.4963
  335DG      C1 7683   2.804   2.518   1.371  0.5091 -0.0176  0.6272
  335DG      C2 7684   3.169   2.152   1.512  0.4075  0.3970  0.0858
  335DG      H3 7685   2.812   2.562   1.470  0.9776  0.8800  0.2064
  335DG      H4 7686   2.712   2.552   1.324  0.0796  0.5351  1.8352
  335DG      H5 7687   2.873   2.560   1.297 -2.4647 -0.1861 -2.4819
  335DG      H6 7688   3.252   2.135   1.443 -0.8152 -0.7530 -1.1663
  335DG      H7 7689   3.133   2.049   1.520  0.9165  0.2248  0.2061
  335DG      H8 7690   3.092   2.198   1.451  1.4473 -0.8683 -2.3118
  335DG      O9 7691   2.808   2.380   1.368  0.6812  0.0754  0.0354
  335DG     O10 7692   3.186   2.218   1.636  0.1262  0.0588 -0.5617
  335DG     C11 7693   2.718   2.315   1.462  0.3739 -0.1567  0.1945
  335DG     C12 7694   3.086   2.196   1.739  0.3870  0.4506  0.0972
  335DG     H13 7695   2.710   2.210   1.433  0.9776 -1.6301  4.6114
  335DG     H14 7696   2.620   2.361   1.451  0.5635  0.9070  2.3358
  335DG     H15 7697   3.100   2.274   1.814 -0.7929 -1.3302  2.3025
  335DG     H16 7698   3.103   2.107   1.799  0.0950  0.6631  0.5015
  335DG     C17 7699   2.774   2.315   1.607 -0.0481 -0.6490  0.7563
  335DG     C18 7700   2.936   2.180   1.713 -0.4850  0.2208  0.5143
  335DG     O19 7701   2.913   2.277   1.607 -0.2335 -0.2869  0.2148
  335DG     H20 7702   2.716   2.236   1.656  2.4308 -2.2590  1.2966
  335DG     H21 7703   2.756   2.414   1.648 -1.0030 -0.0800 -0.9748
  335DG     H22 7704   2.930   2.075   1.684  2.6201  0.2781 -0.6739
  335DG     H23 7705   2.868   2.191   1.798 -2.4513 -1.2346 -0.7817
  336DG      C1 7706   1.629   1.157   4.529 -0.4369  0.4088  0.1049
  336DG      C2 7707   1.078   0.821   4.637 -0.2482 -0.0150 -0.5143
  336DG      H3 7708   1.642   1.242   4.462 -0.3719  0.8227  0.6437
  336DG      H4 7709   1.655   1.058   4.489 -2.2375 -0.4524  0.9680
  336DG      H5 7710   1.698   1.166   4.613 -0.3575  0.3671  0.0454
  336DG      H6 7711   0.980   0.810   4.684  1.4172  2.1504  4.0302
  336DG      H7 7712   1.078   0.744   4.560  0.1597 -0.9189  0.3713
  336DG      H8 7713   1.159   0.794   4.705  1.3263 -1.6323 -2.8908
  336DG      O9 7714   1.500   1.141   4.574 -0.0504 -0.4131 -0.2896
  336DG     O10 7715   1.081   0.950   4.590 -0.5675  0.5542  0.1677
  336DG     C11 7716   1.459   1.245   4.660  0.6494 -0.4658  0.2992
  336DG     C12 7717   1.046   1.039   4.693  0.0019  0.0329 -0.1273
  336DG     H13 7718   1.455   1.335   4.598  0.8053 -0.8942 -0.3492
  336DG     H14 7719   1.532   1.274   4.735  0.0444  1.9955  0.0072
  336DG     H15 7720   1.105   1.016   4.781  1.0560  0.3733 -0.7248
  336DG     H16 7721   0.938   1.031   4.709 -0.4282 -0.8783 -2.8501
  336DG     C17 7722   1.319   1.222   4.717  0.2861  0.4302  0.4202
  336DG     C18 7723   1.086   1.182   4.650 -0.2611  0.8566 -0.9481
  336DG     O19 7724   1.224   1.201   4.606  0.8665  0.0497  0.0403
  336DG     H20 7725   1.286   1.308   4.774 -0.0427 -0.5064  1.6816
  336DG     H21 7726   1.319   1.138   4.786 -0.1572 -0.4677 -0.6380
  336DG     H22 7727   1.023   1.223   4.572 -2.4761  0.1003  0.3604
  336DG     H23 7728   1.060   1.252   4.729 -1.7157  0.0608 -0.6993
  337DG      C1 7729   2.788   3.773   0.943 -0.0034 -0.1788 -0.1294
  337DG      C2 7730   3.354   3.608   0.415  0.2973 -0.7177  0.2385
  337DG      H3 7731   2.771   3.751   1.048 -0.7827 -1.4657 -0.4930
  337DG      H4 7732   2.710   3.712   0.898 -0.0267 -1.1848  1.2014
  337DG      H5 7733   2.786   3.876   0.907 -0.6750 -0.5817 -1.3048
  337DG      H6 7734   3.446   3.586   0.360  1.9747  1.7386  1.8880
  337DG      H7 7735   3.290   3.521   0.428 -0.8308  0.2594  1.3807
  337DG      H8 7736   3.297   3.671   0.347  1.6473  0.4743  0.1571
  337DG      O9 7737   2.906   3.699   0.924  0.0922  0.1179 -0.2410
  337DG     O10 7738   3.375   3.666   0.541 -0.0992 -0.2699  0.1639
  337DG     C11 7739   3.011   3.763   0.999 -0.0226  0.3756 -0.9299
  337DG     C12 7740   3.263   3.715   0.608  0.7725 -0.3626 -0.0603
  337DG     H13 7741   3.000   3.741   1.105 -1.0824  2.1140 -0.6233
  337DG     H14 7742   3.014   3.872   0.996  1.8493  0.4738  1.3823
  337DG     H15 7743   3.172   3.668   0.569 -0.3034  0.8389  0.9218
  337DG     H16 7744   3.248   3.818   0.578  1.7266 -0.7365 -1.9898
  337DG     C17 7745   3.144   3.711   0.951  0.2534  0.0759  0.6400
  337DG     C18 7746   3.275   3.685   0.757 -0.0248  0.8697  0.0206
  337DG     O19 7747   3.154   3.728   0.812  0.5819  0.1739  0.2591
  337DG     H20 7748   3.150   3.607   0.983  2.9569  0.5177  1.8469
  337DG     H21 7749   3.219   3.766   1.007  0.5384  1.1300 -0.7051
  337DG     H22 7750   3.276   3.578   0.777 -2.8425  0.6985 -0.3234
  337DG     H23 7751   3.351   3.745   0.807  1.3633 -1.2097  0.5110
  338DG      C1 7752   1.137   5.125   4.701  0.0176  0.7342 -0.2497
  338DG      C2 7753   1.371   5.460   4.268 -0.2784  0.5351  0.1041
  338DG      H3 7754   1.127   5.017   4.712  0.2675  0.3150 -3.2311
  338DG      H4 7755   1.049   5.151   4.642 -0.1881 -1.3451 -0.9524
  338DG      H5 7756   1.149   5.178   4.795  0.2645  1.9942 -0.9620
  338DG      H6 7757   1.264   5.478   4.258 -0.6835 -2.1971 -1.6373
  338DG      H7 7758   1.400   5.485   4.370  0.7781 -0.4615  0.0640
  338DG      H8 7759   1.437   5.520   4.205  0.5633  0.0701  0.5215
  338DG      O9 7760   1.249   5.149   4.618 -0.2883  0.1531  0.0119
  338DG     O10 7761   1.393   5.318   4.232 -0.1538  0.2243 -0.2186
  338DG     C11 7762   1.373   5.089   4.658  0.1449 -1.2096 -0.4089
  338DG     C12 7763   1.527   5.270   4.248  0.5634 -0.2040 -0.6057
  338DG     H13 7764   1.375   4.981   4.643  1.7047 -1.1745 -0.6587
  338DG     H14 7765   1.395   5.111   4.762 -1.5909 -0.9941 -0.0576
  338DG     H15 7766   1.593   5.334   4.189 -1.4924  0.5287 -2.2286
  338DG     H16 7767   1.532   5.170   4.205 -0.4698 -0.4662 -0.1550
  338DG     C17 7768   1.499   5.163   4.591 -0.1980  0.0662  0.4101
  338DG     C18 7769   1.571   5.262   4.389  0.1178 -0.0237 -0.7628
  338DG     O19 7770   1.459   5.205   4.460 -0.5647 -0.9021  0.2001
  338DG     H20 7771   1.583   5.094   4.589  0.0896  0.4136  0.4227
  338DG     H21 7772   1.533   5.243   4.657  0.4284 -0.2762  0.5077
  338DG     H22 7773   1.663   5.203   4.389 -0.0200 -0.2436 -0.2114
  338DG     H23 7774   1.590   5.359   4.434 -0.6030 -1.4047  2.8257
  339DG      C1 7775   0.278   4.628   4.357  0.3962 -0.6690 -0.1498
  339DG      C2 7776   0.020   5.275   4.299 -0.0933  0.1734  0.3895
  339DG      H3 7777   0.339   4.552   4.407 -2.6421 -2.1608  1.5876
  339DG      H4 7778   0.271   4.600   4.252  0.9883  1.1746 -0.7201
  339DG      H5 7779   0.176   4.617   4.394  0.5652  1.7481  1.2575
  339DG      H6 7780  -0.070   5.230   4.339  0.4879 -1.7692 -0.3724
  339DG      H7 7781   0.046   5.369   4.348  2.8469 -0.9421  1.1687
  339DG      H8 7782  -0.005   5.296   4.196 -2.0456  0.2871  0.8598
  339DG      O9 7783   0.326   4.763   4.366 -0.3161  0.4089 -0.5179
  339DG     O10 7784   0.122   5.173   4.318 -0.7294 -0.6116 -0.2263
  339DG     C11 7785   0.408   4.786   4.248  0.5059 -0.3035  0.0743
  339DG     C12 7786   0.242   5.224   4.251  0.0535  0.0583  0.1471
  339DG     H13 7787   0.354   4.772   4.154  0.9498  0.6884 -0.3369
  339DG     H14 7788   0.497   4.723   4.241  1.2232  0.7804 -0.9409
  339DG     H15 7789   0.261   5.330   4.272 -0.0534 -0.0154  0.6320
  339DG     H16 7790   0.232   5.216   4.143  2.5209 -0.7285 -0.0865
  339DG     C17 7791   0.461   4.929   4.257  0.1097 -0.2184 -0.1827
  339DG     C18 7792   0.368   5.148   4.278  0.3644 -0.2742 -0.3857
  339DG     O19 7793   0.347   5.017   4.237 -0.5367 -0.1467  0.1735
  339DG     H20 7794   0.526   4.954   4.173  1.0794  2.5653  1.2583
  339DG     H21 7795   0.516   4.942   4.350 -1.5675 -0.6347  0.9128
  339DG     H22 7796   0.460   5.198   4.246 -0.7190  2.3524  0.3808
  339DG     H23 7797   0.372   5.146   4.387 -1.2374  0.4938 -0.2860
  340DG      C1 7798   0.180   2.089   2.901 -0.3356  0.0464  0.4702
  340DG      C2 7799  -0.117   1.865   3.396  0.2571  0.2648  0.5041
  340DG      H3 7800   0.241   2.147   2.971  2.8106 -1.5298 -0.7737
  340DG      H4 7801   0.187   2.140   2.805  0.0845  2.1739  1.5643
  340DG      H5 7802   0.233   1.994   2.906 -0.0162  0.2424  0.9542
  340DG      H6 7803  -0.092   1.760   3.380 -0.9315  0.2204 -1.3332
  340DG      H7 7804  -0.026   1.906   3.441 -1.0884  0.4563  3.2794
  340DG      H8 7805  -0.192   1.857   3.474 -0.5792 -2.7364 -0.4581
  340DG      O9 7806   0.043   2.063   2.946 -0.2542 -0.0557 -0.1806
  340DG     O10 7807  -0.151   1.929   3.278 -0.1172 -0.5660  0.6002
  340DG     C11 7808  -0.046   2.046   2.839 -0.0933  0.2308 -0.0929
  340DG     C12 7809  -0.260   1.855   3.211  0.0093  0.4120  0.1654
  340DG     H13 7810  -0.013   1.970   2.768 -0.0665  3.0997 -3.3676
  340DG     H14 7811  -0.058   2.129   2.770  0.0960 -0.9120 -1.5578
  340DG     H15 7812  -0.343   1.865   3.282 -0.3215 -0.9074 -0.0003
  340DG     H16 7813  -0.240   1.750   3.190 -1.1913  0.3782 -0.9826
  340DG     C17 7814  -0.186   2.019   2.891 -0.6947  0.1186  0.0579
  340DG     C18 7815  -0.293   1.923   3.079  0.0166 -0.8088 -0.2276
  340DG     O19 7816  -0.169   1.931   3.004  0.1573  0.3024  0.5735
  340DG     H20 7817  -0.251   1.981   2.812  0.2067 -1.8270  0.1928
  340DG     H21 7818  -0.236   2.109   2.927 -0.1096 -0.4514  2.3999
  340DG     H22 7819  -0.370   1.865   3.029 -1.9689  0.1476  1.5788
  340DG     H23 7820  -0.334   2.021   3.102 -1.9805 -1.6262 -0.1659
  341DG      C1 7821   3.039   0.903   1.005  0.7071  0.7192  0.6794
  341DG      C2 7822   3.564   1.389   0.774 -0.1905  0.2605  0.1778
  341DG      H3 7823   3.012   0.876   0.903  2.0188 -0.2257  0.5579
  341DG      H4 7824   2.941   0.915   1.052 -0.4408 -2.5095 -0.5788
  341DG      H5 7825   3.086   0.815   1.049 -2.1388 -1.5769 -0.5356
  341DG      H6 7826   3.627   1.308   0.738 -1.7786  0.2113 -2.7968
  341DG      H7 7827   3.502   1.423   0.691 -1.1021 -2.0693 -0.1634
  341DG      H8 7828   3.640   1.462   0.804  0.4800 -0.4066  0.1315
  341DG      O9 7829   3.107   1.027   1.005  0.2678  0.9600  0.7000
  341DG     O10 7830   3.507   1.351   0.900 -0.0062  0.8130 -0.1862
  341DG     C11 7831   3.155   1.064   1.133  0.1883 -0.7970 -0.3142
  341DG     C12 7832   3.404   1.436   0.935 -0.1603  0.0142  0.2191
  341DG     H13 7833   3.235   0.995   1.159 -1.1800 -2.5155 -0.4716
  341DG     H14 7834   3.081   1.051   1.212 -0.3851  0.9512 -0.5215
  341DG     H15 7835   3.333   1.427   0.853  2.2741  1.5870 -2.2219
  341DG     H16 7836   3.434   1.539   0.954  0.2617 -0.4371  2.1788
  341DG     C17 7837   3.188   1.217   1.147  0.0085  0.3059  0.0312
  341DG     C18 7838   3.320   1.395   1.057  0.2271  0.4037 -0.2791
  341DG     O19 7839   3.292   1.256   1.061 -0.0375  0.3174  0.0408
  341DG     H20 7840   3.212   1.238   1.251  0.0205 -2.2692  0.6195
  341DG     H21 7841   3.100   1.278   1.124 -0.2467 -0.3898 -0.8910
  341DG     H22 7842   3.381   1.418   1.144 -1.2051  0.7172  0.6667
  341DG     H23 7843   3.233   1.460   1.055 -1.5098 -1.8234 -0.7608
  342DG      C1 7844   2.530   5.081   1.099  0.0767 -0.1948 -0.5049
  342DG      C2 7845   3.089   5.047   1.406 -0.0824  0.0349  0.7150
  342DG      H3 7846   2.571   5.004   1.033 -0.6447  0.4653 -1.7477
  342DG      H4 7847   2.479   5.157   1.041 -1.3213 -1.4665 -0.9878
  342DG      H5 7848   2.452   5.035   1.160 -0.1713 -0.1379 -0.7832
  342DG      H6 7849   3.024   4.993   1.475  0.8177 -1.0680  0.7287
  342DG      H7 7850   3.122   4.975   1.331 -0.4169 -1.6038  2.0630
  342DG      H8 7851   3.172   5.096   1.458  0.4833  0.9401 -0.9571
  342DG      O9 7852   2.627   5.145   1.183  0.7374  0.0906 -0.5018
  342DG     O10 7853   3.013   5.153   1.359  1.1129  0.5882  0.0948
  342DG     C11 7854   2.566   5.245   1.254  0.7126 -0.4091 -0.1966
  342DG     C12 7855   2.959   5.235   1.465  0.0304  0.5310  0.2937
  342DG     H13 7856   2.480   5.206   1.308  0.8207  0.3408  0.5368
  342DG     H14 7857   2.526   5.320   1.186 -0.6667 -1.0073 -0.0718
  342DG     H15 7858   3.041   5.272   1.527  0.8997 -0.2276 -0.3879
  342DG     H16 7859   2.891   5.174   1.524 -0.1294  0.4651  0.0410
  342DG     C17 7860   2.658   5.291   1.373 -0.6939 -0.3666 -0.5013
  342DG     C18 7861   2.886   5.354   1.416 -0.1874 -0.3620  0.6166
  342DG     O19 7862   2.789   5.325   1.318 -0.1008  0.5888 -0.7096
  342DG     H20 7863   2.668   5.214   1.449  1.5206  0.6734  0.3533
  342DG     H21 7864   2.626   5.373   1.437  1.9547  0.9001 -0.6701
  342DG     H22 7865   2.840   5.417   1.492 -0.3677  1.9328 -1.2741
  342DG     H23 7866   2.959   5.427   1.381  0.5607 -1.2782  0.2295
  343DG      C1 7867   0.105   2.461   4.081  0.5310 -0.0616 -0.5159
  343DG      C2 7868   0.667   2.246   3.565 -0.7353 -0.1985 -0.3286
  343DG      H3 7869   0.016   2.523   4.087 -0.6958 -1.9057  3.2063
  343DG      H4 7870   0.181   2.521   4.131  0.5581  1.2835 -2.0880
  343DG      H5 7871   0.074   2.370   4.132  0.7486 -0.8193 -1.6829
  343DG      H6 7872   0.715   2.194   3.648  0.8551  0.0384 -1.0597
  343DG      H7 7873   0.659   2.177   3.481 -0.1109  0.4590 -0.9409
  343DG      H8 7874   0.732   2.333   3.552 -1.9925  1.2045  2.1422
  343DG      O9 7875   0.166   2.417   3.959  0.3771 -0.3592 -0.4139
  343DG     O10 7876   0.539   2.287   3.598 -0.4330  0.0652  0.1545
  343DG     C11 7877   0.078   2.343   3.878  0.1309  0.5752  0.0377
  343DG     C12 7878   0.455   2.173   3.605  0.8955  0.1049 -0.2981
  343DG     H13 7879  -0.015   2.398   3.885  1.0677  2.1501  0.6029
  343DG     H14 7880   0.073   2.244   3.925  1.2640 -0.5182 -2.0067
  343DG     H15 7881   0.475   2.109   3.691  0.3763 -1.0097 -0.9770
  343DG     H16 7882   0.466   2.113   3.514 -0.6220 -2.0132  0.8296
  343DG     C17 7883   0.137   2.334   3.732 -0.7072  0.3679  0.2190
  343DG     C18 7884   0.313   2.229   3.615  0.2831 -0.1003  0.7893
  343DG     O19 7885   0.260   2.263   3.737  0.3021 -0.1067 -0.8890
  343DG     H20 7886   0.139   2.437   3.697  1.8834  0.4252  0.3466
  343DG     H21 7887   0.066   2.282   3.668  0.3918 -2.0637  0.8474
  343DG     H22 7888   0.302   2.309   3.541 -0.1723 -2.4093 -1.8337
  343DG     H23 7889   0.249   2.151   3.574  2.2521 -0.6315 -1.5353
  344DG      C1 7890   4.699   2.143   4.335 -1.0997  1.2065 -0.4615
  344DG      C2 7891   5.003   1.632   4.785 -0.2832  0.2065 -0.6353
  344DG      H3 7892   4.742   2.219   4.399 -1.1004 -0.0687  1.1318
  344DG      H4 7893   4.609   2.101   4.378 -0.0729 -0.4365  0.1822
  344DG      H5 7894   4.674   2.206   4.249  0.7980  1.5281 -0.8267
  344DG      H6 7895   5.060   1.672   4.869 -1.1488 -0.8611  0.5112
  344DG      H7 7896   4.896   1.636   4.804 -0.6587  0.7750 -2.6850
  344DG      H8 7897   5.038   1.531   4.761 -0.0694  0.4707 -1.4678
  344DG      O9 7898   4.779   2.034   4.290 -0.4307  0.1717  0.1456
  344DG     O10 7899   5.017   1.724   4.677 -0.0092 -0.0110  0.0797
  344DG     C11 7900   4.917   2.065   4.294 -0.2355 -0.3705 -0.0151
  344DG     C12 7901   4.918   1.704   4.571 -0.0696  0.5706 -0.2323
  344DG     H13 7902   4.928   2.163   4.247 -1.6312 -0.5421 -0.7538
  344DG     H14 7903   4.962   2.003   4.217 -0.2040  1.7333 -1.7986
  344DG     H15 7904   4.817   1.708   4.611 -0.2101 -0.2899 -0.4778
  344DG     H16 7905   4.932   1.600   4.540 -1.2223  0.7376 -1.3884
  344DG     C17 7906   4.971   2.045   4.441 -0.9956  0.6002 -1.0007
  344DG     C18 7907   4.950   1.805   4.463  0.1993  0.6690  0.2852
  344DG     O19 7908   4.914   1.932   4.514  0.1933 -0.1881 -0.0492
  344DG     H20 7909   4.924   2.120   4.504 -0.6691 -0.7731  1.0039
  344DG     H21 7910   5.080   2.049   4.446 -1.0490  1.0743  0.2032
  344DG     H22 7911   5.051   1.796   4.424 -0.3138  0.4751 -1.0512
  344DG     H23 7912   4.886   1.786   4.377  1.0398  0.2365 -0.2485
  345DG      C1 7913   5.359   1.944   4.170 -0.2127 -0.3742 -0.5576
  345DG      C2 7914   4.888   2.516   4.455 -0.1857 -0.5409  0.2936
  345DG      H3 7915   5.458   1.951   4.216 -1.1014  1.6382  1.2017
  345DG      H4 7916   5.371   1.941   4.062 -0.5428 -0.0774 -0.6048
  345DG      H5 7917   5.310   1.853   4.204  1.2456 -1.6283 -1.6381
  345DG      H6 7918   4.813   2.564   4.393 -0.6113 -1.2996  0.2150
  345DG      H7 7919   4.861   2.419   4.497 -2.1913  0.5742  1.7593
  345DG      H8 7920   4.911   2.586   4.536  1.7151  0.3149 -0.9002
  345DG      O9 7921   5.287   2.063   4.200  0.2731 -0.1478 -0.4983
  345DG     O10 7922   5.002   2.520   4.384  0.1634  0.2504  0.0314
  345DG     C11 7923   5.360   2.185   4.191  0.5358 -0.3209  0.3381
  345DG     C12 7924   5.124   2.480   4.452  0.0146  0.1795 -0.2289
  345DG     H13 7925   5.425   2.165   4.106  1.9361  0.8206  1.1012
  345DG     H14 7926   5.419   2.203   4.281 -1.1008  3.6595  0.8235
  345DG     H15 7927   5.095   2.392   4.509 -0.0228 -0.9488 -1.9036
  345DG     H16 7928   5.155   2.568   4.508 -2.5743  0.8159  0.3274
  345DG     C17 7929   5.270   2.306   4.157  0.5534  0.3430 -0.2718
  345DG     C18 7930   5.241   2.446   4.360  0.2226 -0.4093  0.1366
  345DG     O19 7931   5.184   2.353   4.261 -0.3839  1.1212  0.0694
  345DG     H20 7932   5.214   2.286   4.066  2.2371 -0.6502 -1.1427
  345DG     H21 7933   5.333   2.390   4.128  1.8215 -1.0851 -1.8721
  345DG     H22 7934   5.282   2.536   4.316 -1.0019 -0.2095 -0.6488
  345DG     H23 7935   5.321   2.410   4.424 -0.4202 -1.7584  0.2239
  346DG      C1 7936   0.814   1.775   2.435 -0.2533 -0.2693 -0.2360
  346DG      C2 7937   1.129   2.543   2.496  0.2493  0.3622  0.0479
  346DG      H3 7938   0.714   1.737   2.412 -0.6929  0.9135 -0.3679
  346DG      H4 7939   0.836   1.776   2.542  3.4104  0.3001 -0.8854
  346DG      H5 7940   0.886   1.707   2.390  0.6395 -0.0128  0.7659
  346DG      H6 7941   1.116   2.650   2.482 -1.5958  0.4185  1.6478
  346DG      H7 7942   1.103   2.526   2.601 -0.4080 -0.5736 -0.2583
  346DG      H8 7943   1.231   2.523   2.464  0.1870  0.7394 -0.3940
  346DG      O9 7944   0.829   1.911   2.388  0.3976  0.2063  0.1431
  346DG     O10 7945   1.041   2.476   2.412  0.0065 -0.4682 -0.0960
  346DG     C11 7946   0.705   1.984   2.406 -0.7036  0.4149 -0.3502
  346DG     C12 7947   0.995   2.357   2.468 -0.2740 -0.5226  0.1358
  346DG     H13 7948   0.675   1.990   2.511 -0.4376  0.7947 -0.2948
  346DG     H14 7949   0.623   1.940   2.350 -0.1481  0.5360 -1.2933
  346DG     H15 7950   0.947   2.373   2.565 -0.2479 -2.9467  0.6094
  346DG     H16 7951   1.077   2.286   2.476  0.0809 -0.1835 -0.4278
  346DG     C17 7952   0.728   2.133   2.355  0.5286  0.5437  0.7039
  346DG     C18 7953   0.890   2.307   2.374  0.0959  0.5203 -0.7581
  346DG     O19 7954   0.846   2.181   2.424  0.8027 -0.1540  0.1098
  346DG     H20 7955   0.645   2.199   2.378 -0.2187  0.7219 -2.1186
  346DG     H21 7956   0.758   2.133   2.250 -0.2100 -0.3856  0.4818
  346DG     H22 7957   0.816   2.386   2.371 -0.4249  0.0428 -0.6878
  346DG     H23 7958   0.928   2.284   2.275 -2.5709 -3.1201 -1.1365
  347DG      C1 7959   3.371   0.245   0.966  0.2522  0.1495  0.1108
  347DG      C2 7960   3.996   0.133   1.047 -0.1229  0.5000  0.5314
  347DG      H3 7961   3.443   0.164   0.961 -0.7823 -0.8866  1.2423
  347DG      H4 7962   3.338   0.271   0.866  0.1552 -0.5153 -0.0339
  347DG      H5 7963   3.276   0.208   1.004  0.4926 -0.0669  0.5115
  347DG      H6 7964   4.030   0.030   1.064  2.6384  1.6506  2.8764
  347DG      H7 7965   3.977   0.174   0.948  0.3044  3.2367  1.5007
  347DG      H8 7966   4.082   0.188   1.085 -1.2245  1.3829  1.8116
  347DG      O9 7967   3.412   0.354   1.049 -0.2055 -0.5251 -0.0316
  347DG     O10 7968   3.882   0.147   1.129  0.3644 -0.0155 -0.4268
  347DG     C11 7969   3.404   0.318   1.187  0.6566 -0.2638 -0.1278
  347DG     C12 7970   3.818   0.274   1.139 -0.2542 -0.5019 -0.6444
  347DG     H13 7971   3.434   0.215   1.210  0.3577  0.1355  2.3162
  347DG     H14 7972   3.307   0.343   1.230  1.6400  1.3117  1.2864
  347DG     H15 7973   3.804   0.317   1.040 -2.0632  0.2210 -0.1106
  347DG     H16 7974   3.889   0.334   1.196 -0.7905 -0.2136 -0.2797
  347DG     C17 7975   3.501   0.409   1.261  0.3018 -0.6011 -0.2311
  347DG     C18 7976   3.682   0.273   1.207 -0.2678 -0.2903 -0.0482
  347DG     O19 7977   3.619   0.403   1.189 -0.2859  0.2690  0.5592
  347DG     H20 7978   3.494   0.396   1.368  0.8156 -1.0400 -0.2524
  347DG     H21 7979   3.466   0.510   1.238 -2.3747 -1.2533  0.6429
  347DG     H22 7980   3.627   0.201   1.147 -1.2566  1.1341 -0.9165
  347DG     H23 7981   3.688   0.240   1.311  1.0052 -1.1698 -0.3754
  348DG      C1 7982   3.459   3.729   2.589  1.0445 -0.7522 -0.0946
  348DG      C2 7983   2.787   4.110   2.669  0.6422  0.2949  0.6921
  348DG      H3 7984   3.519   3.666   2.523 -0.2005 -2.9478  0.7725
  348DG      H4 7985   3.464   3.683   2.687  0.5507 -0.5541  0.0268
  348DG      H5 7986   3.510   3.826   2.594  3.0880 -1.6523 -1.9009
  348DG      H6 7987   2.681   4.098   2.690  0.9979 -1.9831  1.4824
  348DG      H7 7988   2.847   4.109   2.760  2.3181  1.0649 -0.3500
  348DG      H8 7989   2.798   4.215   2.643 -4.9837  1.1871  0.7735
  348DG      O9 7990   3.326   3.742   2.542 -0.0548  0.0043 -0.2392
  348DG     O10 7991   2.851   4.017   2.581  0.1716  0.3378 -0.1652
  348DG     C11 7992   3.250   3.628   2.567 -0.2258  0.2250  0.8332
  348DG     C12 7993   2.832   3.877   2.605 -0.2518  0.0428 -0.4700
  348DG     H13 7994   3.258   3.606   2.673  1.3712 -0.9742  0.5136
  348DG     H14 7995   3.294   3.538   2.524  2.7101  1.6404  0.6589
  348DG     H15 7996   2.728   3.873   2.573  0.5812  0.0949 -3.3903
  348DG     H16 7997   2.832   3.850   2.711 -3.7179 -0.2566 -0.4458
  348DG     C17 7998   3.110   3.642   2.520  0.7712  0.8740  0.0280
  348DG     C18 7999   2.916   3.790   2.518 -0.2329  0.7100  0.4358
  348DG     O19 8000   3.050   3.764   2.565 -0.0949 -0.1622  0.2582
  348DG     H20 8001   3.053   3.551   2.538  0.8498  0.7798 -0.1974
  348DG     H21 8002   3.119   3.647   2.411  1.5103  1.7991  0.1188
  348DG     H22 8003   2.862   3.696   2.506 -1.1755  1.3647 -0.6672
  348DG     H23 8004   2.929   3.824   2.415  0.8051  0.6401  0.5359
  349DG      C1 8005   1.135   5.212   3.993  0.8227 -0.2748 -0.2005
  349DG      C2 8006   1.175   5.773   3.685  0.3471  0.3988 -0.8058
  349DG      H3 8007   1.046   5.250   4.043  0.5663 -0.3300 -0.6135
  349DG      H4 8008   1.216   5.254   4.052  1.1187  0.0234 -0.8218
  349DG      H5 8009   1.147   5.103   3.998  1.5410 -0.2286 -0.8501
  349DG      H6 8010   1.258   5.788   3.754  0.7397  1.8663 -1.5453
  349DG      H7 8011   1.206   5.798   3.584  2.1844  1.0231 -0.1284
  349DG      H8 8012   1.098   5.848   3.700  0.0012  0.0170 -0.6495
  349DG      O9 8013   1.128   5.250   3.860  0.3669 -0.4927  1.1580
  349DG     O10 8014   1.126   5.637   3.692  0.0631 -0.0609 -0.0927
  349DG     C11 8015   1.011   5.203   3.794 -0.6754 -0.7789  0.1784
  349DG     C12 8016   1.011   5.611   3.613 -0.4123  0.1317 -0.0207
  349DG     H13 8017   0.918   5.242   3.836 -0.1309 -0.7992  1.4675
  349DG     H14 8018   0.979   5.099   3.804 -1.4587 -0.5659 -0.0479
  349DG     H15 8019   1.039   5.617   3.508  1.2786  3.0660  0.4819
  349DG     H16 8020   0.942   5.695   3.624  0.3010  0.6491  0.6416
  349DG     C17 8021   1.012   5.243   3.649 -0.2574  0.1598  0.1914
  349DG     C18 8022   0.945   5.480   3.647  0.1018 -0.3107  0.0743
  349DG     O19 8023   1.050   5.377   3.643  0.6936 -0.4214  0.2680
  349DG     H20 8024   0.911   5.227   3.610 -0.0570  0.0210 -0.2730
  349DG     H21 8025   1.079   5.178   3.593  1.1740 -0.1582  2.1807
  349DG     H22 8026   0.890   5.482   3.741  1.4375  1.7900  0.8553
  349DG     H23 8027   0.861   5.454   3.582 -1.7199 -0.7574  2.4499
  350DG      C1 8028   5.486   2.820   0.273  0.3499 -0.4538 -0.2274
  350DG      C2 8029   5.871   2.301   0.308 -0.6933 -0.3212  0.3128
  350DG      H3 8030   5.424   2.901   0.313 -0.9648 -2.4690  2.0614
  350DG      H4 8031   5.454   2.733   0.330  2.5115 -1.3257 -0.2489
  350DG      H5 8032   5.469   2.799   0.167 -1.6286 -1.1433  0.1780
  350DG      H6 8033   5.855   2.279   0.202 -0.7115  2.6240 -0.4000
  350DG      H7 8034   5.978   2.323   0.317 -0.7350 -0.4047  1.0767
  350DG      H8 8035   5.865   2.204   0.357 -4.2660 -0.7770 -0.7514
  350DG      O9 8036   5.623   2.834   0.291 -0.5225 -0.0648 -0.8871
  350DG     O10 8037   5.783   2.403   0.353 -0.4008  1.1935  0.2248
  350DG     C11 8038   5.653   2.864   0.431  0.8516  0.2264 -0.0158
  350DG     C12 8039   5.815   2.423   0.495  0.3791  0.2283  0.6974
  350DG     H13 8040   5.589   2.946   0.464 -1.6397 -0.8801 -1.8020
  350DG     H14 8041   5.756   2.899   0.439  1.4837 -1.8105  1.5332
  350DG     H15 8042   5.917   2.461   0.503  1.2097 -1.8605  0.5368
  350DG     H16 8043   5.808   2.332   0.555  1.0910  0.0324  0.4930
  350DG     C17 8044   5.644   2.749   0.525  0.2721  0.5115 -0.3572
  350DG     C18 8045   5.718   2.527   0.554 -0.2946 -0.3287  0.4757
  350DG     O19 8046   5.729   2.648   0.479  0.2026 -0.7092  0.0899
  350DG     H20 8047   5.542   2.710   0.525  0.3104  0.4021 -1.1449
  350DG     H21 8048   5.676   2.785   0.623  1.2438  0.3888 -0.6204
  350DG     H22 8049   5.615   2.494   0.555 -0.3323 -0.2244  1.9260
  350DG     H23 8050   5.754   2.542   0.656 -0.6673 -0.6628  0.6573
  351DG      C1 8051   2.152   1.260   1.807  0.2542 -0.6617  0.3565
  351DG      C2 8052   2.409   1.355   1.294  0.0665  0.4067  0.1185
  351DG      H3 8053   2.256   1.294   1.802  0.5064 -1.5489 -2.9698
  351DG      H4 8054   2.144   1.184   1.884 -0.3734 -2.8990 -1.8123
  351DG      H5 8055   2.083   1.337   1.842 -1.8443 -3.3804  2.6742
  351DG      H6 8056   2.447   1.258   1.327 -2.0310  0.1356  1.8912
  351DG      H7 8057   2.500   1.404   1.259  1.0656 -2.2331 -1.2716
  351DG      H8 8058   2.348   1.407   1.367 -0.9310 -0.8304  0.1886
  351DG      O9 8059   2.101   1.225   1.679  0.2245  0.2671 -0.1115
  351DG     O10 8060   2.328   1.325   1.177 -0.2326  0.5378 -0.5900
  351DG     C11 8061   2.186   1.125   1.621 -0.6701  0.4086 -0.2870
  351DG     C12 8062   2.190   1.315   1.185 -0.0876 -0.2404 -0.5639
  351DG     H13 8063   2.187   1.039   1.689 -2.2463  0.1035 -0.6094
  351DG     H14 8064   2.292   1.151   1.623 -0.2620 -1.1309 -0.1035
  351DG     H15 8065   2.155   1.302   1.082 -0.2217 -3.7927 -0.1830
  351DG     H16 8066   2.136   1.405   1.213  0.6175 -0.5574  2.0632
  351DG     C17 8067   2.142   1.095   1.480  0.1212 -0.4669  1.2495
  351DG     C18 8068   2.151   1.193   1.264 -0.2363 -0.8623  0.1103
  351DG     O19 8069   2.168   1.217   1.405  0.1040 -0.3785 -0.1144
  351DG     H20 8070   2.043   1.051   1.479 -0.2196  0.2679 -0.2823
  351DG     H21 8071   2.203   1.011   1.446 -0.0577 -2.7952  5.9479
  351DG     H22 8072   2.044   1.179   1.251 -0.2142 -0.8414 -0.0965
  351DG     H23 8073   2.215   1.113   1.225  0.2372 -0.5516  0.2476
  352DG      C1 8074   0.568   2.248   3.925 -0.0059  0.6080 -0.7795
  352DG      C2 8075   0.971   2.670   4.289  0.4079  0.1059  0.6293
  352DG      H3 8076   0.636   2.165   3.909 -0.8489 -0.2415 -0.0722
  352DG      H4 8077   0.575   2.314   3.838 -0.1357  1.0270 -0.4775
  352DG      H5 8078   0.471   2.199   3.916 -1.1309  2.9335 -2.7121
  352DG      H6 8079   0.976   2.776   4.263  1.1627 -0.4706 -1.7406
  352DG      H7 8080   1.015   2.666   4.389  0.1597  2.5153  0.8858
  352DG      H8 8081   1.043   2.618   4.227  0.7000 -2.0002  2.5729
  352DG      O9 8082   0.592   2.318   4.046 -0.0645 -0.2782  0.0721
  352DG     O10 8083   0.845   2.609   4.282 -0.5300  0.3771  0.3916
  352DG     C11 8084   0.493   2.422   4.068 -0.0795  0.7267  0.3233
  352DG     C12 8085   0.753   2.671   4.363 -0.2101 -0.1367 -0.4391
  352DG     H13 8086   0.398   2.397   4.022  0.3736  0.5520 -0.5378
  352DG     H14 8087   0.538   2.499   4.005  0.1182  1.8704  1.8129
  352DG     H15 8088   0.735   2.770   4.319 -0.6554 -0.1442 -0.2780
  352DG     H16 8089   0.782   2.675   4.468  0.0375 -0.4111 -0.4947
  352DG     C17 8090   0.484   2.467   4.213 -0.6105  0.4486  0.0714
  352DG     C18 8091   0.629   2.587   4.360  0.3298  0.0565  0.4214
  352DG     O19 8092   0.612   2.531   4.225 -0.0259 -0.1914 -0.2094
  352DG     H20 8093   0.475   2.386   4.286  0.4540  0.8915  0.7314
  352DG     H21 8094   0.410   2.546   4.222  0.9680  1.8721  1.1641
  352DG     H22 8095   0.624   2.507   4.433  1.2211 -0.9073 -0.5389
  352DG     H23 8096   0.545   2.655   4.375 -1.3119 -1.3262 -1.7990
  353DG      C1 8097   5.159   2.106   3.457 -0.0279 -0.0907  0.7602
  353DG      C2 8098   4.810   2.915   3.431  0.5279 -0.7058 -0.0580
  353DG      H3 8099   5.248   2.075   3.511 -1.3782 -1.4264  2.3560
  353DG      H4 8100   5.178   2.138   3.355 -1.7554 -0.4124  0.2939
  353DG      H5 8101   5.084   2.027   3.449  0.9259 -0.8326 -3.2028
  353DG      H6 8102   4.791   3.008   3.484  2.1538 -1.3970  1.8503
  353DG      H7 8103   4.900   2.940   3.374  0.9254 -0.9049  0.4689
  353DG      H8 8104   4.733   2.894   3.357  1.7243 -0.2734 -1.4760
  353DG      O9 8105   5.098   2.214   3.528  0.2599 -0.6671  0.2575
  353DG     O10 8106   4.832   2.816   3.533  0.0643  0.5549  0.2492
  353DG     C11 8107   5.175   2.330   3.557 -0.5415 -0.8850 -0.1739
  353DG     C12 8108   4.895   2.691   3.489  0.3599  0.2520 -0.6418
  353DG     H13 8109   5.226   2.362   3.466  0.1924 -0.0238  0.5159
  353DG     H14 8110   5.254   2.300   3.627  1.7020 -0.4320 -2.3583
  353DG     H15 8111   4.959   2.718   3.405  0.0288 -1.4183 -1.4600
  353DG     H16 8112   4.822   2.629   3.437  1.0113  1.1362 -2.7010
  353DG     C17 8113   5.114   2.442   3.634  0.0481 -0.4068  0.3306
  353DG     C18 8114   4.970   2.626   3.600 -1.0645  0.3242 -0.4969
  353DG     O19 8115   5.006   2.496   3.553 -0.4123  0.0235 -0.8261
  353DG     H20 8116   5.184   2.519   3.666  0.5592 -0.7336  0.0362
  353DG     H21 8117   5.059   2.410   3.722 -0.8722  0.2199 -0.0023
  353DG     H22 8118   5.054   2.690   3.625 -0.7402 -1.0413  2.3123
  353DG     H23 8119   4.904   2.624   3.687 -1.2746 -0.2598 -0.6638
  354DG      C1 8120   1.731   4.121   5.272 -0.6240  0.1077  0.2171
  354DG      C2 8121   1.949   4.596   5.116  0.0203  0.2168  0.9531
  354DG      H3 8122   1.835   4.151   5.255 -1.2588  1.2095 -2.1366
  354DG      H4 8123   1.705   4.018   5.299  0.5545  0.5541  3.4303
  354DG      H5 8124   1.707   4.185   5.356  1.2748  0.8775  0.2382
  354DG      H6 8125   1.898   4.611   5.211  1.3582 -0.7020  1.8455
  354DG      H7 8126   2.033   4.529   5.134  1.1737  2.0070  2.6599
  354DG      H8 8127   1.975   4.696   5.080 -1.0773 -0.4851 -2.0822
  354DG      O9 8128   1.655   4.168   5.163 -0.0099  0.0182  0.0585
  354DG     O10 8129   1.856   4.535   5.024  0.2812 -0.2193 -0.3250
  354DG     C11 8130   1.680   4.086   5.047 -0.0295  0.6692 -0.2626
  354DG     C12 8131   1.925   4.460   4.927 -0.2106  0.1616 -0.2306
  354DG     H13 8132   1.604   4.097   4.969 -0.3769  0.1207 -0.0073
  354DG     H14 8133   1.669   3.984   5.084  0.6136  1.3387  1.8604
  354DG     H15 8134   2.014   4.501   4.880 -0.2987 -0.1419 -0.6646
  354DG     H16 8135   1.858   4.451   4.842  0.7667  0.3906 -1.0513
  354DG     C17 8136   1.813   4.113   4.975 -0.3919 -0.1649  0.3331
  354DG     C18 8137   1.943   4.319   4.969 -0.1965  0.5427  0.0991
  354DG     O19 8138   1.815   4.253   4.972  0.7274 -0.0687  0.5441
  354DG     H20 8139   1.813   4.065   4.877 -1.1176  0.1543  0.1751
  354DG     H21 8140   1.895   4.078   5.038  0.2606  0.1709 -0.3213
  354DG     H22 8141   2.018   4.258   4.918 -0.4783 -1.0381  1.4627
  354DG     H23 8142   1.981   4.316   5.071 -1.6008  2.5531  0.7419
  355DG      C1 8143   0.163   4.015   2.006  0.1076  0.5407  0.5081
  355DG      C2 8144   0.044   3.253   1.762  0.1444 -0.5307  0.1227
  355DG      H3 8145   0.175   3.954   2.096  2.0881  0.8230  0.4868
  355DG      H4 8146   0.057   4.040   1.997 -0.2991  0.7318  4.0726
  355DG      H5 8147   0.220   4.108   2.010  1.5352 -0.2166 -1.2205
  355DG      H6 8148   0.075   3.176   1.833 -1.4708 -1.6374 -0.3365
  355DG      H7 8149  -0.052   3.294   1.793 -0.2456  0.3910 -2.1418
  355DG      H8 8150   0.019   3.193   1.675 -2.1533  1.0268 -0.3712
  355DG      O9 8151   0.207   3.946   1.893 -0.1657 -0.4339  0.2299
  355DG     O10 8152   0.128   3.354   1.721 -0.8858  0.0845  0.4771
  355DG     C11 8153   0.141   3.824   1.865 -0.3686 -0.5634 -0.3227
  355DG     C12 8154   0.079   3.440   1.618 -0.2598  0.0133  0.3454
  355DG     H13 8155   0.048   3.850   1.814 -0.5921 -0.8494 -0.0640
  355DG     H14 8156   0.138   3.763   1.955 -0.8637  3.2114  2.4689
  355DG     H15 8157  -0.023   3.474   1.637 -1.2078 -1.4616 -1.6175
  355DG     H16 8158   0.079   3.395   1.518 -0.4404  2.2566 -0.7237
  355DG     C17 8159   0.221   3.746   1.762 -0.3928 -0.0146  0.0475
  355DG     C18 8160   0.182   3.559   1.614 -0.1669  0.1616 -0.5841
  355DG     O19 8161   0.145   3.624   1.733  0.3038 -0.5630 -0.1094
  355DG     H20 8162   0.311   3.706   1.809 -0.4862  0.1993  0.4109
  355DG     H21 8163   0.248   3.808   1.676  0.1018 -0.7664 -0.3475
  355DG     H22 8164   0.284   3.524   1.600 -0.8374 -1.1700 -2.5955
  355DG     H23 8165   0.174   3.628   1.529 -0.0508  0.7574 -0.1204
  356DG      C1 8166   5.003   3.065   5.239  0.4452 -0.0005  0.4161
  356DG      C2 8167   5.238   2.529   4.829  0.6940 -0.2585  0.6344
  356DG      H3 8168   5.034   3.092   5.341 -0.2726 -0.6297  0.8065
  356DG      H4 8169   4.895   3.076   5.246  0.6238  1.4280  1.7711
  356DG      H5 8170   5.041   3.147   5.178  0.9965 -1.1995 -0.9047
  356DG      H6 8171   5.152   2.505   4.767  1.7375  0.5251 -1.1854
  356DG      H7 8172   5.302   2.601   4.777  0.3470  0.6962  1.5022
  356DG      H8 8173   5.299   2.438   4.826  0.9916 -0.1229  1.9184
  356DG      O9 8174   5.050   2.933   5.224 -0.4133 -0.1951  0.2583
  356DG     O10 8175   5.216   2.571   4.960 -0.6451 -0.3514 -0.5440
  356DG     C11 8176   4.993   2.851   5.320  0.5739  0.2995  0.0216
  356DG     C12 8177   5.168   2.474   5.047  0.9263 -0.2168 -0.5918
  356DG     H13 8178   4.893   2.821   5.287  1.1147 -1.2834 -0.2717
  356DG     H14 8179   4.997   2.898   5.418 -1.6764 -0.0399  0.3399
  356DG     H15 8180   5.227   2.382   5.046 -0.7814 -1.3743 -1.7243
  356DG     H16 8181   5.068   2.449   5.011 -0.4552  3.0066  0.5976
  356DG     C17 8182   5.066   2.716   5.317  0.0189 -0.3057  0.4853
  356DG     C18 8183   5.134   2.526   5.191  0.2730  0.8328 -0.4341
  356DG     O19 8184   5.095   2.656   5.179  0.4670 -0.0210  0.3325
  356DG     H20 8185   5.012   2.639   5.372  2.1362 -1.9303  0.4055
  356DG     H21 8186   5.165   2.720   5.361  0.3477 -0.7207 -0.1939
  356DG     H22 8187   5.051   2.468   5.231 -0.5407  1.0507 -1.7096
  356DG     H23 8188   5.217   2.531   5.262 -0.1214  2.8743 -0.0596
  357DG      C1 8189   2.708   1.277   4.988  0.1113 -0.3557 -0.1966
  357DG      C2 8190   2.574   1.892   5.012 -0.1721  0.5433 -0.0800
  357DG      H3 8191   2.640   1.291   5.072  1.8613  0.3947  1.1733
  357DG      H4 8192   2.763   1.184   5.003 -1.1952 -1.2108 -0.5621
  357DG      H5 8193   2.660   1.261   4.892  1.1513 -3.2227 -0.3178
  357DG      H6 8194   2.511   1.869   5.098  0.1978 -0.9253 -0.1872
  357DG      H7 8195   2.592   1.998   5.034 -2.4699  1.0834 -0.5471
  357DG      H8 8196   2.528   1.873   4.916  0.6228  2.5103 -0.9070
  357DG      O9 8197   2.785   1.388   4.987 -0.2490  0.3907 -0.5755
  357DG     O10 8198   2.700   1.821   5.014  0.2430 -0.1436 -0.0223
  357DG     C11 8199   2.885   1.377   4.885 -0.4083  0.1209 -0.3242
  357DG     C12 8200   2.772   1.845   4.891  0.1376 -0.0201 -0.3036
  357DG     H13 8201   2.852   1.348   4.785 -0.5643 -2.0787  0.3180
  357DG     H14 8202   2.966   1.311   4.914 -0.1383  0.8723  0.6989
  357DG     H15 8203   2.793   1.952   4.887 -0.8732  0.1542 -1.6918
  357DG     H16 8204   2.709   1.835   4.802  0.9007 -0.7241 -0.7786
  357DG     C17 8205   2.943   1.513   4.892 -1.0851 -0.1137  0.3529
  357DG     C18 8206   2.885   1.751   4.886  0.1251  0.2589  0.0667
  357DG     O19 8207   2.844   1.620   4.902  0.0720 -0.1909 -0.6160
  357DG     H20 8208   3.016   1.528   4.812  0.8361 -1.3208  1.7830
  357DG     H21 8209   3.004   1.528   4.981 -1.2030  0.4376  0.3486
  357DG     H22 8210   2.925   1.759   4.785 -1.7842 -2.4768 -1.0302
  357DG     H23 8211   2.961   1.772   4.961 -0.2688  0.6897  0.3492
  358DG      C1 8212   3.580   4.464   1.674  0.0825  0.0128  0.5225
  358DG      C2 8213   3.009   4.578   1.972  0.5136 -0.3522  0.5267
  358DG      H3 8214   3.668   4.493   1.616  0.0223 -0.3304  0.2591
  358DG      H4 8215   3.576   4.356   1.663 -0.7467  0.1230 -0.3621
  358DG      H5 8216   3.611   4.489   1.776  1.1036  0.5017  0.1037
  358DG      H6 8217   3.073   4.592   2.059  0.5530  1.4619  0.2375
  358DG      H7 8218   2.912   4.622   1.993  0.6382 -0.2800  0.9565
  358DG      H8 8219   2.997   4.470   1.961  1.3640 -0.4716  0.6603
  358DG      O9 8220   3.465   4.542   1.635 -0.3135 -0.0836  0.3148
  358DG     O10 8221   3.067   4.630   1.855  0.0582  0.0240 -0.0790
  358DG     C11 8222   3.386   4.471   1.535  0.1804  0.2166 -0.0190
  358DG     C12 8223   2.990   4.604   1.742  0.5553 -0.4590  0.3207
  358DG     H13 8224   3.359   4.370   1.566  1.9933 -0.4073 -0.3044
  358DG     H14 8225   3.442   4.454   1.443 -0.0499 -2.2482  0.2303
  358DG     H15 8226   2.910   4.678   1.735  0.1436 -1.0530 -2.2592
  358DG     H16 8227   2.952   4.502   1.738  0.3937 -0.3779 -0.5910
  358DG     C17 8228   3.265   4.546   1.502 -0.5954 -0.0741  0.3442
  358DG     C18 8229   3.073   4.633   1.614 -0.3273 -0.3871  0.4556
  358DG     O19 8230   3.193   4.559   1.620  0.0865  0.2201 -0.4009
  358DG     H20 8231   3.211   4.483   1.431  1.9327 -1.4370 -0.4803
  358DG     H21 8232   3.292   4.642   1.458 -1.2936 -0.4380 -0.9524
  358DG     H22 8233   3.009   4.597   1.533  0.9623 -1.6251 -0.0634
  358DG     H23 8234   3.096   4.739   1.608  1.8838 -0.8701 -1.5129
  359DG      C1 8235   0.429   4.106   0.075 -0.5583  0.1165 -0.1268
  359DG      C2 8236   0.080   3.485  -0.206  0.6794 -0.6956  0.0090
  359DG      H3 8237   0.437   4.214   0.085  0.7524  0.0306  0.0371
  359DG      H4 8238   0.527   4.070   0.042  0.4365  0.3318  2.3546
  359DG      H5 8239   0.409   4.077   0.178 -0.1761  0.6890  0.1134
  359DG      H6 8240   0.146   3.439  -0.280  2.6531  0.9968  0.6243
  359DG      H7 8241   0.108   3.455  -0.105 -0.1978 -0.6845  0.2606
  359DG      H8 8242  -0.022   3.462  -0.237  1.1896 -0.2271 -2.1396
  359DG      O9 8243   0.321   4.067  -0.002 -0.4295  0.0519 -0.0349
  359DG     O10 8244   0.102   3.620  -0.231 -0.3850  0.1771  0.5615
  359DG     C11 8245   0.345   4.066  -0.142  0.5961 -0.1319  0.2642
  359DG     C12 8246   0.021   3.712  -0.156 -0.6033  0.2413  0.2859
  359DG     H13 8247   0.415   3.992  -0.181 -1.1932 -1.3178 -0.8373
  359DG     H14 8248   0.372   4.166  -0.176 -2.4251  0.8155  0.3528
  359DG     H15 8249   0.045   3.707  -0.049  2.4421  1.4007 -0.2370
  359DG     H16 8250  -0.078   3.670  -0.172 -0.5249 -0.6814  1.9394
  359DG     C17 8251   0.207   4.036  -0.193  0.0061 -0.1636 -0.1084
  359DG     C18 8252   0.042   3.856  -0.207  0.5516 -0.1441  0.1113
  359DG     O19 8253   0.173   3.899  -0.168 -0.4948  0.9701 -0.3053
  359DG     H20 8254   0.210   4.052  -0.301 -1.2937  0.8279 -0.0212
  359DG     H21 8255   0.125   4.096  -0.153  0.2987 -0.9922  1.8995
  359DG     H22 8256   0.030   3.861  -0.316  0.4849 -0.0631  0.1226
  359DG     H23 8257  -0.031   3.925  -0.164  0.3490 -0.8856  0.9886
  360DG      C1 8258   1.656   2.775   3.030 -0.4146 -0.2411  0.0728
  360DG      C2 8259   1.091   3.049   2.827 -0.0251  0.2327  0.6889
  360DG      H3 8260   1.735   2.851   3.032 -0.5827  0.0423 -1.7066
  360DG      H4 8261   1.650   2.729   2.931 -0.7761 -0.6390  0.2777
  360DG      H5 8262   1.677   2.701   3.106 -0.1048  0.0238  0.2499
  360DG      H6 8263   1.083   2.976   2.745  1.8548  1.0481 -0.2914
  360DG      H7 8264   0.992   3.094   2.838 -0.0133 -0.1056  2.4696
  360DG      H8 8265   1.157   3.130   2.797 -0.4376  0.4647  0.4011
  360DG      O9 8266   1.525   2.830   3.060  0.2278 -0.0131 -0.3382
  360DG     O10 8267   1.131   2.988   2.947 -0.0709  0.0928  0.2902
  360DG     C11 8268   1.527   2.892   3.187 -0.3313 -0.0140 -0.7880
  360DG     C12 8269   1.098   3.078   3.047 -0.2778 -0.3391 -0.5330
  360DG     H13 8270   1.581   2.986   3.186  1.2789 -0.7985  1.8566
  360DG     H14 8271   1.558   2.816   3.259 -0.1700 -0.5753 -1.4352
  360DG     H15 8272   0.992   3.087   3.071 -0.5614 -1.3716 -1.3376
  360DG     H16 8273   1.136   3.179   3.034  1.5324 -0.7185  1.2325
  360DG     C17 8274   1.382   2.929   3.230 -0.5053  0.4792  0.5994
  360DG     C18 8275   1.178   3.014   3.165  0.1741 -0.2623  0.1857
  360DG     O19 8276   1.312   2.996   3.131 -0.0085  0.3198  0.6134
  360DG     H20 8277   1.384   2.987   3.322 -1.3874  0.9380  0.3462
  360DG     H21 8278   1.333   2.836   3.259  1.1363 -0.6236 -0.0071
  360DG     H22 8279   1.173   3.075   3.255  0.9749 -1.7605  1.2895
  360DG     H23 8280   1.130   2.922   3.197 -1.0365  0.4086  0.3981
  361DG      C1 8281   5.120   3.542   5.240  0.1303 -0.5141 -0.8065
  361DG      C2 8282   4.943   4.162   4.847  0.1919 -0.0531  0.5447
  361DG      H3 8283   5.226   3.563   5.223 -0.2198  1.5812 -0.6197
  361DG      H4 8284   5.092   3.461   5.172  1.0137 -1.3449 -0.2226
  361DG      H5 8285   5.093   3.514   5.342 -0.0093  1.1131 -0.3766
  361DG      H6 8286   5.038   4.203   4.812  0.9032  1.5241  3.8739
  361DG      H7 8287   4.932   4.067   4.795  0.5655 -0.4609  1.1919
  361DG      H8 8288   4.858   4.215   4.804 -0.5969 -0.2752  1.7621
  361DG      O9 8289   5.044   3.661   5.208  0.2973 -0.2567 -0.4538
  361DG     O10 8290   4.943   4.152   4.994  0.3619  0.1076 -0.1688
  361DG     C11 8291   5.076   3.772   5.290 -0.0855 -0.2248  0.4737
  361DG     C12 8292   4.822   4.099   5.036  0.1079  0.1448 -0.2882
  361DG     H13 8293   5.168   3.814   5.250  0.1213 -1.7601 -0.7568
  361DG     H14 8294   5.086   3.743   5.395  0.0625  0.4359  0.6484
  361DG     H15 8295   4.795   4.021   4.964  1.1810  0.5768 -1.1906
  361DG     H16 8296   4.733   4.160   5.045 -0.6095 -1.1898  3.6873
  361DG     C17 8297   4.964   3.874   5.296 -0.0828 -0.0906  0.0476
  361DG     C18 8298   4.835   4.025   5.173 -0.3245  0.0912 -0.1167
  361DG     O19 8299   4.949   3.937   5.170 -0.0121 -0.2178  0.7108
  361DG     H20 8300   5.001   3.950   5.364  1.0768  0.1554 -0.8354
  361DG     H21 8301   4.870   3.832   5.330 -1.2536  2.5135  0.2460
  361DG     H22 8302   4.849   4.102   5.250 -1.4126  0.5755 -0.3807
  361DG     H23 8303   4.751   3.964   5.206  0.5000 -1.0858 -0.1397
  362DG      C1 8304   1.746   3.666   4.597  0.3672 -0.0978 -0.7727
  362DG      C2 8305   1.752   3.973   3.915 -0.2093  0.2506  0.5309
  362DG      H3 8306   1.813   3.735   4.548  0.0563 -1.3765 -3.1579
  362DG      H4 8307   1.789   3.566   4.600 -0.1933 -0.3305  0.8209
  362DG      H5 8308   1.733   3.682   4.705 -0.9107  0.2303 -0.9519
  362DG      H6 8309   1.835   4.017   3.859  0.4707 -3.4223 -1.6955
  362DG      H7 8310   1.758   3.866   3.894  0.8095  0.7375 -2.0672
  362DG      H8 8311   1.654   4.007   3.882 -0.3674  0.9017  1.6159
  362DG      O9 8312   1.624   3.659   4.531 -0.2222  0.2423  0.4426
  362DG     O10 8313   1.759   4.003   4.055  0.0471 -0.4959 -0.1361
  362DG     C11 8314   1.544   3.778   4.562  0.0304  1.5219  0.0039
  362DG     C12 8315   1.670   3.923   4.130 -0.1840 -0.6991  0.0370
  362DG     H13 8316   1.537   3.792   4.670  1.4673 -0.3505  0.3987
  362DG     H14 8317   1.443   3.759   4.527  0.5829 -1.8404 -0.1143
  362DG     H15 8318   1.708   3.821   4.123  0.5663 -0.6736  2.5097
  362DG     H16 8319   1.569   3.919   4.089  1.1709 -4.7159 -3.6180
  362DG     C17 8320   1.600   3.902   4.497 -0.2443  0.1551  1.0054
  362DG     C18 8321   1.655   3.982   4.279 -0.3550 -0.2376 -0.3524
  362DG     O19 8322   1.593   3.878   4.352  0.1912 -0.1558 -0.4378
  362DG     H20 8323   1.704   3.920   4.525  0.1363  1.3370 -1.0262
  362DG     H21 8324   1.536   3.988   4.520 -1.4342 -0.5053  0.2896
  362DG     H22 8325   1.758   4.000   4.308 -0.1738 -1.2388 -0.3511
  362DG     H23 8326   1.603   4.078   4.274 -2.6498 -1.2036  2.4184
  363DG      C1 8327   0.489   4.130   3.265  0.3970  0.2787  0.2151
  363DG      C2 8328   0.314   4.570   2.821  0.7430  0.1001  0.4723
  363DG      H3 8329   0.534   4.074   3.347 -1.1001 -0.6906  0.4057
  363DG      H4 8330   0.481   4.076   3.170 -0.4109 -0.5906  0.7722
  363DG      H5 8331   0.387   4.141   3.301  0.0165 -0.5796 -0.5626
  363DG      H6 8332   0.315   4.678   2.810  0.0451  0.0117 -0.6148
  363DG      H7 8333   0.341   4.545   2.719 -0.1160  2.6451 -0.4526
  363DG      H8 8334   0.215   4.531   2.844 -0.3791  2.3650 -0.2102
  363DG      O9 8335   0.528   4.267   3.256  0.0590 -0.4101  0.2199
  363DG     O10 8336   0.408   4.524   2.916  0.6487 -0.1308  0.1370
  363DG     C11 8337   0.660   4.268   3.206  0.2787 -0.1474  0.0442
  363DG     C12 8338   0.479   4.631   2.974  0.7228  0.0963 -0.0459
  363DG     H13 8339   0.657   4.212   3.112  1.0446  0.0683 -0.1147
  363DG     H14 8340   0.738   4.226   3.269 -1.5048 -1.0705  1.7361
  363DG     H15 8341   0.422   4.677   3.054 -0.7859  0.3628 -1.2288
  363DG     H16 8342   0.505   4.708   2.901  0.5147  1.3855  1.1938
  363DG     C17 8343   0.691   4.414   3.176  0.2171 -0.1012 -0.8462
  363DG     C18 8344   0.608   4.569   3.033 -0.3699  0.6364  0.1360
  363DG     O19 8345   0.573   4.452   3.103 -0.0735 -0.3085 -0.3093
  363DG     H20 8346   0.775   4.419   3.106  0.3168  2.1217 -0.6298
  363DG     H21 8347   0.701   4.482   3.260 -3.0951 -0.7308  0.1815
  363DG     H22 8348   0.664   4.533   2.947 -1.9991  1.6350 -1.4091
  363DG     H23 8349   0.664   4.639   3.096 -1.4068  0.5604  1.1775
  364DG      C1 8350   0.420   5.148   0.277  0.4432  0.3044 -0.5005
  364DG      C2 8351   1.090   4.969   0.282  0.5279 -0.3420  0.5499
  364DG      H3 8352   0.436   5.217   0.195 -1.3858  1.2265 -0.1240
  364DG      H4 8353   0.451   5.198   0.369 -0.2000  0.1728 -0.2057
  364DG      H5 8354   0.316   5.127   0.301  0.8208 -0.6764  0.4114
  364DG      H6 8355   1.163   4.958   0.201 -0.2812 -2.6664  0.0693
  364DG      H7 8356   1.104   5.059   0.343  0.8093 -0.0201  0.0161
  364DG      H8 8357   1.111   4.884   0.347  1.2398 -0.7353 -0.1824
  364DG      O9 8358   0.476   5.020   0.272  0.2926 -0.3856 -0.5088
  364DG     O10 8359   0.965   4.959   0.225 -0.0414 -0.1099 -0.0361
  364DG     C11 8360   0.476   4.958   0.146 -0.5329 -0.1002 -0.5233
  364DG     C12 8361   0.932   5.058   0.130 -0.6488 -0.9840  0.0697
  364DG     H13 8362   0.376   4.969   0.104 -0.9504 -0.4337  0.3599
  364DG     H14 8363   0.492   4.851   0.158 -0.7880 -0.1460 -0.5898
  364DG     H15 8364   1.011   5.072   0.056 -0.2128 -1.7339  0.3827
  364DG     H16 8365   0.915   5.152   0.183  0.7344 -0.6881  0.0236
  364DG     C17 8366   0.590   5.012   0.065 -0.2885 -0.1379 -0.4728
  364DG     C18 8367   0.820   5.006   0.053 -0.4833  0.0721  0.2571
  364DG     O19 8368   0.708   4.992   0.135  0.2810 -0.0356 -0.3356
  364DG     H20 8369   0.576   5.118   0.047  0.8535  0.3157  1.0488
  364DG     H21 8370   0.583   4.951  -0.025  0.9374  0.0825 -0.7377
  364DG     H22 8371   0.801   5.092  -0.011  0.9871 -0.1406 -0.5123
  364DG     H23 8372   0.845   4.918  -0.007  3.3322  1.8279 -1.0478
  365DG      C1 8373   5.006   0.517   0.489  0.0150 -0.1119  0.0736
  365DG      C2 8374   4.701   0.993   0.111 -0.5754 -0.2803  0.4376
  365DG      H3 8375   4.903   0.486   0.471 -0.3154  2.0153 -2.3244
  365DG      H4 8376   5.042   0.476   0.583  0.4292  1.0053  0.4193
  365DG      H5 8377   5.073   0.471   0.417  1.1505 -0.3614  1.2457
  365DG      H6 8378   4.706   0.906   0.047 -0.1363  0.5119 -0.6360
  365DG      H7 8379   4.596   1.023   0.118 -0.4044  0.0341  2.2909
  365DG      H8 8380   4.768   1.053   0.049 -1.5480  0.5000  0.1166
  365DG      O9 8381   5.008   0.660   0.491 -0.0179 -0.1537  0.5734
  365DG     O10 8382   4.767   0.956   0.237  0.4516 -0.3544  0.1199
  365DG     C11 8383   4.946   0.714   0.609  0.0551  0.1145 -0.2412
  365DG     C12 8384   4.708   1.001   0.354  0.4267  1.1008  0.0110
  365DG     H13 8385   4.988   0.674   0.701 -1.0397  1.9237  1.1050
  365DG     H14 8386   4.842   0.682   0.600 -0.0457  0.4764 -0.3542
  365DG     H15 8387   4.602   0.977   0.348 -0.0259  2.1862  2.4092
  365DG     H16 8388   4.720   1.109   0.368  1.6702  0.8584  1.0066
  365DG     C17 8389   4.949   0.864   0.600  0.1133  0.3187 -0.2675
  365DG     C18 8390   4.761   0.919   0.475 -0.1430  0.0982 -0.6523
  365DG     O19 8391   4.904   0.926   0.477  0.4745 -0.0972  0.2838
  365DG     H20 8392   5.055   0.887   0.599  0.1727  0.0284 -1.6155
  365DG     H21 8393   4.906   0.906   0.692 -1.7641  2.7435 -2.1010
  365DG     H22 8394   4.716   0.964   0.564  1.8333  1.5965 -0.3431
  365DG     H23 8395   4.739   0.813   0.470  2.2332 -0.5284  0.6394
  366DG      C1 8396   0.395   3.521   4.591  0.1479 -0.5366  0.0366
  366DG      C2 8397   0.885   3.954   4.961  0.9979 -0.4987 -1.4225
  366DG      H3 8398   0.362   3.589   4.512  1.9736  2.4271  1.6518
  366DG      H4 8399   0.323   3.517   4.673 -2.3372 -1.9886 -2.0362
  366DG      H5 8400   0.406   3.420   4.550  2.1155 -0.3965  0.1164
  366DG      H6 8401   0.831   4.037   4.915 -1.0647 -0.8190  0.3175
  366DG      H7 8402   0.849   3.939   5.062  1.8686 -0.4989 -1.1064
  366DG      H8 8403   0.993   3.970   4.964  1.0162 -0.5670 -1.6406
  366DG      O9 8404   0.530   3.556   4.618  1.1820 -0.1578 -0.4029
  366DG     O10 8405   0.862   3.839   4.880 -0.0342 -0.6881 -0.2471
  366DG     C11 8406   0.615   3.581   4.507  0.5122  0.0200 -0.0005
  366DG     C12 8407   0.931   3.846   4.754  0.4430 -0.7623 -0.3654
  366DG     H13 8408   0.581   3.668   4.449  2.0857  0.1975 -0.7076
  366DG     H14 8409   0.602   3.500   4.435 -1.3148 -0.8599  1.2473
  366DG     H15 8410   1.038   3.865   4.760  0.8286 -1.3241 -3.5105
  366DG     H16 8411   0.901   3.938   4.705  0.7397  0.3420  1.4236
  366DG     C17 8412   0.761   3.595   4.558  0.0722 -0.6212 -0.2404
  366DG     C18 8413   0.911   3.725   4.676  1.3565  0.0725  0.2062
  366DG     O19 8414   0.770   3.703   4.643  0.1236 -0.3933 -0.1665
  366DG     H20 8415   0.824   3.600   4.469  0.5540  1.7018  0.1783
  366DG     H21 8416   0.781   3.505   4.616 -0.7532 -1.0035 -0.5281
  366DG     H22 8417   0.972   3.737   4.586  0.4903 -2.4769 -0.8179
  366DG     H23 8418   0.949   3.636   4.725  0.4811 -0.4548 -0.0560
  367DG      C1 8419   2.348   2.535   4.487  0.0891 -0.0111 -0.6967
  367DG      C2 8420   1.614   2.165   4.305 -0.3422 -0.5261 -0.2895
  367DG      H3 8421   2.376   2.596   4.573  0.5500 -2.2276  0.8074
  367DG      H4 8422   2.357   2.585   4.390 -0.7095 -0.8863 -1.2400
  367DG      H5 8423   2.415   2.450   4.477 -0.4105 -0.4596 -0.2821
  367DG      H6 8424   1.512   2.135   4.329 -0.1735 -0.2095  0.8725
  367DG      H7 8425   1.601   2.223   4.213  3.9108 -0.3491 -0.9560
  367DG      H8 8426   1.681   2.081   4.288 -0.9228 -1.0467 -0.0668
  367DG      O9 8427   2.221   2.486   4.490  0.2548  1.4225 -0.2550
  367DG     O10 8428   1.649   2.254   4.412  0.2328 -0.9976 -0.6392
  367DG     C11 8429   2.190   2.459   4.624  0.3355  0.1704 -0.3389
  367DG     C12 8430   1.786   2.294   4.416  0.8399  0.8307  0.2931
  367DG     H13 8431   2.201   2.542   4.694  0.4973 -1.5220  1.7427
  367DG     H14 8432   2.249   2.378   4.667  1.2743  0.9619 -0.0707
  367DG     H15 8433   1.809   2.334   4.317  0.6206 -1.0613 -0.5673
  367DG     H16 8434   1.842   2.201   4.422 -0.4667  0.1136  2.2286
  367DG     C17 8435   2.040   2.445   4.639  0.1097  0.4393 -0.2088
  367DG     C18 8436   1.834   2.376   4.535 -0.0962 -0.1277 -0.4610
  367DG     O19 8437   1.977   2.384   4.527 -0.0947  0.4428 -0.5617
  367DG     H20 8438   2.006   2.548   4.649  0.5868  0.5937 -0.1395
  367DG     H21 8439   2.010   2.393   4.730 -0.7453 -0.2190 -0.8505
  367DG     H22 8440   1.787   2.473   4.525  0.5514  0.4028  1.2556
  367DG     H23 8441   1.804   2.338   4.632  1.8016  1.0386  0.6425
  368DG      C1 8442   4.569   2.831   3.702 -0.9978 -0.2025  0.2247
  368DG      C2 8443   4.156   2.644   4.329  0.0480  0.5820 -0.1818
  368DG      H3 8444   4.538   2.739   3.653  1.5653 -1.5105  0.8916
  368DG      H4 8445   4.666   2.801   3.743 -0.3644 -0.2840 -1.2854
  368DG      H5 8446   4.577   2.917   3.636 -1.1815 -0.3948 -0.0460
  368DG      H6 8447   4.136   2.538   4.309 -0.0025  0.7950 -1.3193
  368DG      H7 8448   4.237   2.665   4.259 -1.3479  0.2612 -1.9697
  368DG      H8 8449   4.179   2.666   4.433  0.4154 -0.6655  0.0135
  368DG      O9 8450   4.472   2.870   3.796  0.3718  0.1488 -0.0801
  368DG     O10 8451   4.040   2.719   4.292 -0.3476 -0.1343 -0.2322
  368DG     C11 8452   4.413   2.769   3.878 -0.2546 -0.4975 -0.5524
  368DG     C12 8453   4.013   2.728   4.152 -0.0168 -0.1064  0.8249
  368DG     H13 8454   4.481   2.698   3.926 -0.5707  0.5943  1.6684
  368DG     H14 8455   4.333   2.732   3.815 -0.3216 -2.2463  0.5011
  368DG     H15 8456   3.912   2.763   4.132  0.5184  0.4292 -1.2197
  368DG     H16 8457   4.012   2.628   4.107  3.0438  0.2762 -0.3150
  368DG     C17 8458   4.335   2.841   3.991  0.0145  0.4383  0.1855
  368DG     C18 8459   4.111   2.820   4.074 -0.7901  0.1624 -0.2118
  368DG     O19 8460   4.237   2.752   4.048 -0.4046 -0.1579 -0.0600
  368DG     H20 8461   4.287   2.926   3.944  1.2271  0.8254 -0.3904
  368DG     H21 8462   4.396   2.864   4.079  0.9068 -2.1655  0.3338
  368DG     H22 8463   4.069   2.841   3.976  2.0858 -1.0462 -1.8223
  368DG     H23 8464   4.136   2.913   4.126  3.5919 -1.0269  0.1812
  369DG      C1 8465   1.470   0.442   3.025  1.0439 -0.7341  0.0145
  369DG      C2 8466   0.858   0.747   3.171  0.2696  0.2782 -0.2207
  369DG      H3 8467   1.471   0.453   2.917  0.4719 -0.9783 -0.0169
  369DG      H4 8468   1.527   0.352   3.048 -1.1216 -2.8666 -2.4048
  369DG      H5 8469   1.506   0.534   3.072 -1.4788  0.6373 -0.5506
  369DG      H6 8470   0.832   0.800   3.263 -1.9695  0.9276 -1.1697
  369DG      H7 8471   0.911   0.830   3.125 -1.0104 -0.1026 -2.5293
  369DG      H8 8472   0.761   0.735   3.123 -0.5014  3.2169  0.4166
  369DG      O9 8473   1.330   0.410   3.067 -0.6467  0.0853  0.0096
  369DG     O10 8474   0.939   0.634   3.176 -0.4990  0.3202  0.3684
  369DG     C11 8475   1.329   0.391   3.210  0.5781 -0.1122 -0.5100
  369DG     C12 8476   0.894   0.553   3.291 -0.6830  0.6564  0.5274
  369DG     H13 8477   1.360   0.485   3.257  1.5647 -1.4942  1.7961
  369DG     H14 8478   1.412   0.326   3.236  0.8791  0.9364  1.3582
  369DG     H15 8479   0.789   0.524   3.289 -0.1471 -1.8190  2.7960
  369DG     H16 8480   0.921   0.603   3.384  3.4410  0.9000 -0.5751
  369DG     C17 8481   1.191   0.344   3.252 -0.3739 -0.6373 -0.4984
  369DG     C18 8482   0.978   0.424   3.274  0.1970 -0.0673  0.4257
  369DG     O19 8483   1.113   0.455   3.273  0.0724 -0.6872 -0.1937
  369DG     H20 8484   1.190   0.290   3.347 -2.8066 -0.2387 -0.2344
  369DG     H21 8485   1.152   0.276   3.177  3.1226 -1.9862 -1.2422
  369DG     H22 8486   0.952   0.362   3.360 -1.4644  1.1576  0.8441
  369DG     H23 8487   0.948   0.364   3.189 -1.4923 -0.6993  1.4181
  370DG      C1 8488   4.941   2.199   5.366 -0.4525  0.2576  0.2756
  370DG      C2 8489   4.397   2.188   5.028  0.0247 -1.1552 -0.2854
  370DG      H3 8490   5.024   2.270   5.369 -1.6830  1.7345  2.3785
  370DG      H4 8491   4.975   2.104   5.325 -3.7050 -0.2946 -1.4403
  370DG      H5 8492   4.917   2.200   5.473  1.7265 -0.0304  0.8256
  370DG      H6 8493   4.339   2.200   4.936  0.5587 -1.1247 -0.6238
  370DG      H7 8494   4.420   2.081   5.032  0.2810 -1.1527 -1.3115
  370DG      H8 8495   4.331   2.204   5.113  0.3346 -1.5661  0.0379
  370DG      O9 8496   4.834   2.252   5.289 -0.0277  0.0481  0.3997
  370DG     O10 8497   4.515   2.269   5.028  0.5434  0.3626 -0.4198
  370DG     C11 8498   4.792   2.384   5.339 -0.0623 -0.5151 -0.1364
  370DG     C12 8499   4.493   2.409   5.023 -0.0037  0.4998 -0.4169
  370DG     H13 8500   4.876   2.453   5.336  1.0858 -1.9061 -1.9893
  370DG     H14 8501   4.762   2.379   5.444 -0.6726  1.4876 -0.1715
  370DG     H15 8502   4.412   2.447   5.087 -2.3738  0.0163 -2.9403
  370DG     H16 8503   4.461   2.422   4.920  1.5957  0.0602 -0.9918
  370DG     C17 8504   4.675   2.437   5.255 -0.2630  0.2456  0.4966
  370DG     C18 8505   4.625   2.479   5.034  0.2502 -0.2524 -0.4526
  370DG     O19 8506   4.711   2.418   5.119  0.7742 -0.3224 -0.1572
  370DG     H20 8507   4.655   2.543   5.269  3.1343  1.1367 -0.4990
  370DG     H21 8508   4.584   2.381   5.274 -1.2374  1.7989  0.5595
  370DG     H22 8509   4.666   2.484   4.933  0.4856 -1.9350 -0.4789
  370DG     H23 8510   4.606   2.583   5.057 -0.7989 -0.9567  2.2632
  371DG      C1 8511   1.882   1.837   1.614  0.2740  0.0567 -0.0283
  371DG      C2 8512   2.003   1.654   1.003 -0.5260  0.1078 -0.0769
  371DG      H3 8513   1.970   1.773   1.629  0.9024  0.7020 -0.9085
  371DG      H4 8514   1.825   1.855   1.705  1.5998 -1.4487  1.1671
  371DG      H5 8515   1.923   1.934   1.588  1.4901 -0.7085 -1.0881
  371DG      H6 8516   1.967   1.600   0.916 -1.5118 -0.2015  0.5034
  371DG      H7 8517   2.042   1.748   0.963  0.5049 -0.0848  0.4511
  371DG      H8 8518   2.079   1.584   1.038  1.1635 -0.1175 -3.7275
  371DG      O9 8519   1.797   1.786   1.515 -0.5196  0.3376  0.6480
  371DG     O10 8520   1.898   1.672   1.092  0.4767 -0.2661 -0.5897
  371DG     C11 8521   1.685   1.871   1.480 -0.3398  0.2715  0.4000
  371DG     C12 8522   1.777   1.715   1.032  0.3078  0.7353  0.1881
  371DG     H13 8523   1.708   1.971   1.443  1.4351 -0.1176  0.3566
  371DG     H14 8524   1.605   1.875   1.554 -0.6784  0.2727  0.0385
  371DG     H15 8525   1.750   1.635   0.964  2.2406 -1.5888  1.9512
  371DG     H16 8526   1.786   1.817   0.993  1.3959  1.0098  1.0719
  371DG     C17 8527   1.615   1.809   1.356 -0.4264 -0.5856 -0.6460
  371DG     C18 8528   1.661   1.710   1.142 -0.4986 -0.2331  0.2621
  371DG     O19 8529   1.706   1.785   1.256  0.4764 -0.1808 -0.2392
  371DG     H20 8530   1.524   1.862   1.328 -0.6223 -0.3535  0.3883
  371DG     H21 8531   1.585   1.713   1.398 -0.9565 -0.7764 -1.4428
  371DG     H22 8532   1.561   1.738   1.109 -0.4119 -1.3676 -1.0880
  371DG     H23 8533   1.641   1.605   1.162  1.3648 -0.2854  2.0815
  372DG      C1 8534   2.886   2.731   2.453 -0.2214 -0.5544 -0.7345
  372DG      C2 8535   3.337   2.793   2.984 -0.2821  0.4089 -0.3076
  372DG      H3 8536   2.835   2.824   2.428  1.4034  1.0100  1.3425
  372DG      H4 8537   2.833   2.646   2.411 -0.4711 -0.2068 -1.1260
  372DG      H5 8538   2.985   2.735   2.409 -0.1579  0.9664 -0.5110
  372DG      H6 8539   3.361   2.713   3.055 -3.4601 -0.2167  0.2397
  372DG      H7 8540   3.404   2.788   2.899  0.4666 -0.7540  0.3275
  372DG      H8 8541   3.342   2.887   3.039 -2.5326  0.9735 -0.9695
  372DG      O9 8542   2.907   2.733   2.600  0.1856 -0.0358 -0.0580
  372DG     O10 8543   3.202   2.788   2.940  0.2214  0.0203  0.1972
  372DG     C11 8544   2.791   2.728   2.685 -0.3277  0.4434  0.4513
  372DG     C12 8545   3.110   2.770   3.051 -0.3907 -0.4231  0.4171
  372DG     H13 8546   2.723   2.649   2.653 -0.2498  0.1304  1.0391
  372DG     H14 8547   2.734   2.821   2.686  0.8047  1.4502  6.2021
  372DG     H15 8548   3.092   2.871   3.087  3.5160  1.6689 -2.6912
  372DG     H16 8549   3.153   2.708   3.131  1.1811  0.2744  0.1552
  372DG     C17 8550   2.827   2.695   2.828  0.6833 -0.0029  0.1630
  372DG     C18 8551   2.984   2.701   3.002 -0.2878 -0.4615  0.3920
  372DG     O19 8552   2.944   2.757   2.878 -0.2808  0.3807  0.1068
  372DG     H20 8553   2.844   2.587   2.840  0.7612  0.1466  1.6930
  372DG     H21 8554   2.744   2.721   2.894 -0.8857  2.0934 -2.4795
  372DG     H22 8555   3.011   2.596   2.988  2.4944 -0.0547  2.0612
  372DG     H23 8556   2.908   2.708   3.081  0.0945  1.9315  0.6175
  373DG      C1 8557   1.730   0.842   1.404  0.3848 -0.0829 -0.4624
  373DG      C2 8558   1.295   0.956   1.525  0.4347 -0.0558  0.0397
  373DG      H3 8559   1.642   0.865   1.464  0.5002 -0.9266  0.0452
  373DG      H4 8560   1.771   0.931   1.356  0.6040  0.6510  1.0041
  373DG      H5 8561   1.809   0.793   1.462  2.2408  2.3489 -0.7523
  373DG      H6 8562   1.355   1.006   1.601  0.3862  1.4134 -0.8434
  373DG      H7 8563   1.327   1.014   1.438 -0.9519 -0.0654 -0.5011
  373DG      H8 8564   1.187   0.961   1.531  0.1961 -1.2108 -2.2398
  373DG      O9 8565   1.693   0.771   1.290 -0.3815  0.1150 -0.0570
  373DG     O10 8566   1.341   0.832   1.493 -0.4459 -0.3909 -0.8344
  373DG     C11 8567   1.672   0.630   1.320  0.1163  0.2298  0.2044
  373DG     C12 8568   1.333   0.733   1.607  0.3392 -1.2480  0.5046
  373DG     H13 8569   1.741   0.573   1.383 -1.3891 -0.3782  1.3861
  373DG     H14 8570   1.678   0.587   1.220  0.6755 -0.3133  0.4605
  373DG     H15 8571   1.237   0.724   1.657 -0.4312  1.1121 -0.4535
  373DG     H16 8572   1.407   0.778   1.674 -1.8330 -0.1827  2.3428
  373DG     C17 8573   1.526   0.600   1.373 -0.2161 -0.2991  0.1987
  373DG     C18 8574   1.386   0.597   1.565 -0.2451  0.5165  0.1917
  373DG     O19 8575   1.522   0.597   1.521 -0.3749  0.4640  0.2895
  373DG     H20 8576   1.496   0.504   1.330  0.7755 -1.0105  1.0410
  373DG     H21 8577   1.464   0.683   1.338 -1.4494 -1.9837 -1.8291
  373DG     H22 8578   1.390   0.537   1.656  0.3542  1.0320  0.5102
  373DG     H23 8579   1.311   0.549   1.501 -2.4347  1.4331  1.9462
  374DG      C1 8580   1.601   1.868   4.048  0.6251 -0.1201  0.2456
  374DG      C2 8581   2.282   2.113   4.391 -0.1995 -0.3564  0.3026
  374DG      H3 8582   1.637   1.782   4.105  1.9642 -0.3510 -0.8882
  374DG      H4 8583   1.568   1.828   3.951  1.5949  0.4196 -0.3202
  374DG      H5 8584   1.512   1.904   4.099 -0.3730  0.2335 -1.6549
  374DG      H6 8585   2.368   2.046   4.393 -0.2365 -0.4198  2.5136
  374DG      H7 8586   2.312   2.215   4.413  1.2069 -0.6000 -0.3444
  374DG      H8 8587   2.219   2.085   4.475  0.9266 -1.1671  0.9079
  374DG      O9 8588   1.707   1.969   4.059  0.3205  0.0655 -0.2039
  374DG     O10 8589   2.203   2.109   4.273 -0.0866  0.0818 -0.5972
  374DG     C11 8590   1.816   1.953   3.968 -0.2157  0.4715 -0.1902
  374DG     C12 8591   2.113   2.225   4.255 -0.1872  0.3094 -0.6309
  374DG     H13 8592   1.789   1.940   3.863  0.9264 -2.2026 -0.2544
  374DG     H14 8593   1.855   1.852   3.985 -0.4079  0.5654  0.8765
  374DG     H15 8594   2.160   2.320   4.282  1.8972 -0.8781  0.1012
  374DG     H16 8595   2.043   2.216   4.338 -2.6589  0.3831 -2.5954
  374DG     C17 8596   1.914   2.068   3.977 -0.7259 -0.7483 -0.7568
  374DG     C18 8597   2.031   2.217   4.127 -0.4545 -0.0739  0.0742
  374DG     O19 8598   1.989   2.086   4.102  0.6251  0.4724  0.1049
  374DG     H20 8599   1.851   2.153   3.951 -0.2339 -0.6197 -1.5567
  374DG     H21 8600   1.984   2.054   3.894 -0.7958 -1.2887 -0.7291
  374DG     H22 8601   1.948   2.287   4.125 -0.3597  0.0586  0.5898
  374DG     H23 8602   2.104   2.257   4.056  1.2373  0.0700  1.8210
  375DG      C1 8603   4.431   3.878   1.890  0.7223  0.7457 -0.2194
  375DG      C2 8604   3.838   4.196   1.748 -0.0589  0.0991  0.0201
  375DG      H3 8605   4.457   3.940   1.975 -1.7858  0.3319  0.9507
  375DG      H4 8606   4.464   3.938   1.806  2.1602 -1.5099 -1.3613
  375DG      H5 8607   4.487   3.784   1.890 -2.6362 -1.4926  1.2687
  375DG      H6 8608   3.896   4.284   1.775  1.5688 -0.3412 -1.8614
  375DG      H7 8609   3.839   4.176   1.641  0.2772 -1.4069  0.2854
  375DG      H8 8610   3.733   4.205   1.776  0.1078 -0.5825  0.9464
  375DG      O9 8611   4.286   3.855   1.900  0.1832 -0.2927 -0.5555
  375DG     O10 8612   3.907   4.088   1.813 -0.3086  0.1014 -0.0612
  375DG     C11 8613   4.255   3.795   2.029 -0.0556  0.4207 -0.2240
  375DG     C12 8614   3.861   4.065   1.946 -0.2846  0.6436 -1.0153
  375DG     H13 8615   4.301   3.845   2.114  1.0906 -0.1762 -0.4667
  375DG     H14 8616   4.305   3.698   2.032  2.4554  1.6531 -0.0919
  375DG     H15 8617   3.754   4.057   1.963 -0.5343  0.3406 -2.6222
  375DG     H16 8618   3.900   4.144   2.010 -0.3261  0.7955 -1.1789
  375DG     C17 8619   4.107   3.792   2.033 -0.2311 -0.1724 -0.4883
  375DG     C18 8620   3.921   3.930   1.998  0.0800  0.1996  0.2287
  375DG     O19 8621   4.064   3.918   1.983 -0.2092  0.0424 -0.1663
  375DG     H20 8622   4.070   3.758   2.130 -2.2534 -0.4351 -1.2965
  375DG     H21 8623   4.067   3.713   1.970 -1.2526  0.6483 -0.9010
  375DG     H22 8624   3.891   3.907   2.100 -0.1991 -0.3663  0.0236
  375DG     H23 8625   3.879   3.846   1.942  0.8235 -0.3542  0.4750
  376DG      C1 8626   5.053   1.544   0.021 -0.3462 -0.5801  0.5069
  376DG      C2 8627   5.220   1.774   0.636 -0.5546  0.3556  0.1611
  376DG      H3 8628   5.058   1.529  -0.087 -1.5435 -1.1249  0.5039
  376DG      H4 8629   4.952   1.543   0.061  0.8720 -1.4503  3.9109
  376DG      H5 8630   5.111   1.469   0.075 -0.7164 -0.1503  1.5354
  376DG      H6 8631   5.290   1.744   0.715 -0.6172 -0.2994 -0.0261
  376DG      H7 8632   5.206   1.880   0.658  3.0488  0.3499  3.7080
  376DG      H8 8633   5.130   1.713   0.650 -1.1396  0.9665 -0.8690
  376DG      O9 8634   5.108   1.674   0.031 -0.3463 -0.4348  0.0306
  376DG     O10 8635   5.288   1.770   0.508  0.5859 -0.2789  0.4950
  376DG     C11 8636   5.247   1.697  -0.015 -0.2475  0.0809 -0.3515
  376DG     C12 8637   5.332   1.642   0.467 -0.2023  0.3541 -0.4449
  376DG     H13 8638   5.282   1.799  -0.032 -0.6813  0.2389 -0.3019
  376DG     H14 8639   5.280   1.652  -0.109  1.1168  3.1161 -1.4668
  376DG     H15 8640   5.246   1.576   0.451  1.2356 -1.6306 -0.3340
  376DG     H16 8641   5.397   1.602   0.544  1.6534  1.4510 -1.3792
  376DG     C17 8642   5.337   1.637   0.097 -0.4631  0.1500  0.3058
  376DG     C18 8643   5.400   1.638   0.328  0.5833 -0.2721 -0.2740
  376DG     O19 8644   5.314   1.685   0.225 -0.1849 -0.4275 -0.3773
  376DG     H20 8645   5.445   1.643   0.084 -0.3324  2.1175  1.8306
  376DG     H21 8646   5.325   1.529   0.097 -0.6894  0.1724  0.6586
  376DG     H22 8647   5.497   1.686   0.329  1.0136 -1.1252 -0.1995
  376DG     H23 8648   5.435   1.539   0.301 -0.0994 -0.5067 -0.3142
  377DG      C1 8649   3.497   1.882   3.381  0.4724  0.8654 -0.3741
  377DG      C2 8650   3.102   1.534   3.716 -0.0534 -0.1108  0.0569
  377DG      H3 8651   3.580   1.951   3.397 -0.3000  1.8168 -0.3760
  377DG      H4 8652   3.484   1.852   3.277  1.1470  0.4106 -0.3307
  377DG      H5 8653   3.523   1.785   3.424  0.9731 -0.3232 -3.1176
  377DG      H6 8654   3.160   1.442   3.721 -0.7349 -0.5419  0.2683
  377DG      H7 8655   3.014   1.510   3.776 -0.7883 -0.2300 -1.0369
  377DG      H8 8656   3.076   1.547   3.611  0.8541 -0.8808 -0.2683
  377DG      O9 8657   3.372   1.926   3.433  0.8132 -0.5553  0.4222
  377DG     O10 8658   3.176   1.637   3.777  0.3322  0.5435 -0.3115
  377DG     C11 8659   3.264   1.886   3.367 -0.0072 -0.2020 -0.1101
  377DG     C12 8660   3.117   1.767   3.792  0.2198 -0.4190  0.1427
  377DG     H13 8661   3.261   1.780   3.342 -0.0003 -0.4167  0.7593
  377DG     H14 8662   3.245   1.944   3.277  0.3135  1.6531  0.9572
  377DG     H15 8663   3.192   1.833   3.837 -0.1489 -0.4606  0.8254
  377DG     H16 8664   3.049   1.769   3.876 -0.0079 -0.5437 -0.0389
  377DG     C17 8665   3.144   1.921   3.456  0.0699  0.4721  0.7794
  377DG     C18 8666   3.062   1.834   3.664  0.2288  0.4378 -0.3756
  377DG     O19 8667   3.158   1.829   3.560  0.1706  0.2563 -0.3673
  377DG     H20 8668   3.046   1.907   3.409 -0.4195  2.7541  1.0169
  377DG     H21 8669   3.149   2.025   3.489  0.8314 -0.0470  2.3527
  377DG     H22 8670   2.966   1.787   3.643 -0.2405  1.2189 -0.0404
  377DG     H23 8671   3.040   1.937   3.690 -1.4959 -0.1038  0.4604
  378DG      C1 8672   0.849   3.705   0.832  0.1543 -0.0325  0.5428
  378DG      C2 8673   0.381   3.211   0.483  0.3708  0.4585 -0.3939
  378DG      H3 8674   0.793   3.747   0.915 -1.1447  0.0046 -0.3245
  378DG      H4 8675   0.820   3.765   0.745 -1.2254  0.3933  1.2693
  378DG      H5 8676   0.955   3.696   0.857  0.2776 -0.3883 -0.0731
  378DG      H6 8677   0.356   3.105   0.492  1.4633  0.2868  0.9659
  378DG      H7 8678   0.306   3.278   0.526  2.4477  1.7215  1.4748
  378DG      H8 8679   0.395   3.244   0.380 -1.3661  2.8793  0.0711
  378DG      O9 8680   0.782   3.582   0.801 -0.0925 -0.2375  0.3961
  378DG     O10 8681   0.504   3.234   0.547  0.2324 -0.1979  0.2202
  378DG     C11 8682   0.854   3.512   0.699 -0.0845  0.0432  0.3651
  378DG     C12 8683   0.510   3.191   0.683  0.0888  0.3812 -0.7455
  378DG     H13 8684   0.961   3.532   0.706 -0.0335 -0.4005  1.0142
  378DG     H14 8685   0.819   3.547   0.602 -1.8899  0.2645  1.0535
  378DG     H15 8686   0.498   3.083   0.682 -1.0885  0.4783 -2.1911
  378DG     H16 8687   0.437   3.238   0.749  3.2203  3.1119  1.0475
  378DG     C17 8688   0.830   3.358   0.717 -0.1020  0.0538 -0.1666
  378DG     C18 8689   0.652   3.196   0.726 -0.1009 -0.6880 -0.4175
  378DG     O19 8690   0.693   3.331   0.714  0.0967 -0.9102 -0.0803
  378DG     H20 8691   0.872   3.325   0.812 -0.7746  0.4813  0.2851
  378DG     H21 8692   0.887   3.304   0.642 -1.8954 -1.1842 -0.7122
  378DG     H22 8693   0.679   3.163   0.826  1.1852 -2.7383 -1.3728
  378DG     H23 8694   0.710   3.132   0.658 -1.3051 -1.0920 -1.0920
  379DG      C1 8695   5.278   3.982   0.050  0.2887 -0.9650 -0.0768
  379DG      C2 8696   5.281   3.274  -0.060 -0.1614  0.6022  0.9943
  379DG      H3 8697   5.262   3.975  -0.058  2.9126  1.4504 -0.7520
  379DG      H4 8698   5.386   3.990   0.060  0.2316  0.8605 -0.6844
  379DG      H5 8699   5.234   4.071   0.093 -0.7675 -2.8052  2.8930
  379DG      H6 8700   5.223   3.220  -0.134 -2.0254 -0.3345  3.0365
  379DG      H7 8701   5.368   3.315  -0.112 -0.7224  0.4833 -0.0645
  379DG      H8 8702   5.331   3.203   0.006  2.9349  1.8186  0.1016
  379DG      O9 8703   5.233   3.868   0.119  0.0740  0.3330 -0.3384
  379DG     O10 8704   5.206   3.365   0.015  0.3550 -0.4837  0.0668
  379DG     C11 8705   5.262   3.872   0.255 -0.4672  0.1792  0.3406
  379DG     C12 8706   5.298   3.463   0.072  0.4488  0.1569 -0.2948
  379DG     H13 8707   5.195   3.940   0.306 -0.9455  0.4062 -0.5816
  379DG     H14 8708   5.367   3.892   0.276 -0.7005  1.6509  0.2045
  379DG     H15 8709   5.355   3.514  -0.005  0.7160  0.3713  0.0429
  379DG     H16 8710   5.362   3.400   0.134 -1.4991  0.8219  2.5698
  379DG     C17 8711   5.248   3.734   0.314 -0.5739  0.3973  0.6730
  379DG     C18 8712   5.218   3.563   0.155  0.0827  0.1564 -0.2068
  379DG     O19 8713   5.311   3.634   0.232 -0.6282  0.5376  0.1835
  379DG     H20 8714   5.142   3.718   0.331 -0.6538  0.8647  0.6297
  379DG     H21 8715   5.291   3.725   0.414 -0.3920 -3.4927  0.4254
  379DG     H22 8716   5.151   3.626   0.096 -1.4536 -0.6316  0.6243
  379DG     H23 8717   5.158   3.500   0.220  0.3550  1.5424  1.4801
  380DG      C1 8718   2.878   0.463   3.644  0.0236  0.4109  0.2784
  380DG      C2 8719   2.419   0.048   4.096 -0.9833  0.6929 -0.3903
  380DG      H3 8720   2.859   0.512   3.739 -3.1343 -1.1406  0.5689
  380DG      H4 8721   2.866   0.535   3.562 -0.3424 -0.2614 -0.2688
  380DG      H5 8722   2.981   0.432   3.662  0.7454  3.2568  1.7197
  380DG      H6 8723   2.501   0.022   4.163 -0.3649  0.6590 -1.1478
  380DG      H7 8724   2.363   0.117   4.160 -0.3757  0.0089  0.9212
  380DG      H8 8725   2.376  -0.047   4.063  1.2035 -0.9831  1.2906
  380DG      O9 8726   2.800   0.345   3.634  0.7611  0.4566 -0.3883
  380DG     O10 8727   2.472   0.120   3.981  0.1879 -0.0562  0.6024
  380DG     C11 8728   2.662   0.384   3.621  0.0708 -0.4964 -0.0592
  380DG     C12 8729   2.543   0.036   3.890 -0.3595  0.1122  0.5079
  380DG     H13 8730   2.641   0.449   3.536 -1.7680 -2.3051 -1.0669
  380DG     H14 8731   2.631   0.440   3.710 -2.5829  0.2471 -1.3525
  380DG     H15 8732   2.518  -0.070   3.889 -0.5797  0.1631  0.6214
  380DG     H16 8733   2.647   0.041   3.924  0.1760  2.4608 -1.1827
  380DG     C17 8734   2.565   0.261   3.612 -0.1156 -0.3468  0.1711
  380DG     C18 8735   2.529   0.081   3.748  0.5229 -0.4018  0.4472
  380DG     O19 8736   2.594   0.206   3.736 -0.0291  0.2022  0.1872
  380DG     H20 8737   2.591   0.204   3.523  0.1765 -0.7274  0.4984
  380DG     H21 8738   2.460   0.292   3.613 -0.5802 -1.8159  1.5881
  380DG     H22 8739   2.576   0.009   3.680 -2.3238 -2.7857  0.7964
  380DG     H23 8740   2.422   0.078   3.730  0.0428  2.1731  2.3406
  381DG      C1 8741   5.072   4.292   3.287  0.0056  1.0565 -0.0841
  381DG      C2 8742   5.174   5.157   3.152  1.0146  0.2537 -0.1979
  381DG      H3 8743   5.139   4.214   3.251  1.0597  0.9313  2.0045
  381DG      H4 8744   4.983   4.273   3.226 -0.9969 -3.3489  2.2840
  381DG      H5 8745   5.054   4.257   3.388 -3.5754 -0.2314 -0.9751
  381DG      H6 8746   5.178   5.262   3.183 -0.3332  0.9958 -2.3654
  381DG      H7 8747   5.254   5.144   3.079 -0.0522 -0.5487 -1.2566
  381DG      H8 8748   5.082   5.138   3.097  0.0747  1.8194  0.7332
  381DG      O9 8749   5.120   4.417   3.309  0.1607 -0.4605 -0.5254
  381DG     O10 8750   5.181   5.063   3.268 -0.1123 -0.5291 -0.2377
  381DG     C11 8751   5.164   4.490   3.195  0.7493  0.4766 -0.2964
  381DG     C12 8752   5.179   4.926   3.222 -0.8817 -0.0428 -0.2774
  381DG     H13 8753   5.081   4.501   3.126  1.1467 -0.5690 -0.9637
  381DG     H14 8754   5.233   4.431   3.135  0.7304  0.7506 -0.5857
  381DG     H15 8755   5.269   4.913   3.162 -0.7421 -1.6407  0.2184
  381DG     H16 8756   5.096   4.897   3.158 -0.5533 -3.3023  0.5817
  381DG     C17 8757   5.234   4.615   3.238  0.4334 -0.3059 -0.5269
  381DG     C18 8758   5.190   4.830   3.337 -0.2824 -0.0202 -0.6051
  381DG     O19 8759   5.147   4.701   3.305  0.4424 -0.2613 -0.0017
  381DG     H20 8760   5.279   4.664   3.151  2.2490 -0.8391  0.0527
  381DG     H21 8761   5.314   4.584   3.305 -1.1038  2.3694  2.8606
  381DG     H22 8762   5.285   4.825   3.389 -1.1599  0.7803  1.1777
  381DG     H23 8763   5.117   4.859   3.413  0.1890 -1.4001  0.4085
  382DG      C1 8764   2.291   3.010   3.690 -0.3397  0.0693  0.0630
  382DG      C2 8765   2.286   3.612   3.756 -0.0259 -0.8364  0.2560
  382DG      H3 8766   2.249   2.986   3.788  0.0939 -0.3706  0.1443
  382DG      H4 8767   2.234   2.964   3.610 -0.6286  0.6466 -0.0719
  382DG      H5 8768   2.251   3.112   3.686 -1.4878 -0.3919 -1.0541
  382DG      H6 8769   2.313   3.706   3.709  0.2190 -0.6160  0.8393
  382DG      H7 8770   2.202   3.572   3.698 -2.0715  1.8401  1.1838
  382DG      H8 8771   2.245   3.640   3.852 -1.8109 -3.3029  0.3098
  382DG      O9 8772   2.426   2.984   3.682 -0.8041 -0.4074 -0.0676
  382DG     O10 8773   2.393   3.507   3.765 -0.1197  0.0011  0.1366
  382DG     C11 8774   2.507   3.037   3.787  0.3577  0.6122 -0.8305
  382DG     C12 8775   2.461   3.476   3.643 -0.3626 -0.0009 -0.2060
  382DG     H13 8776   2.565   2.947   3.806  1.1632  0.9186 -1.7594
  382DG     H14 8777   2.455   3.066   3.879  0.3937  0.9142 -0.9027
  382DG     H15 8778   2.508   3.562   3.596  0.8442 -0.6322 -0.1959
  382DG     H16 8779   2.390   3.434   3.572  2.0049 -2.5175 -1.2563
  382DG     C17 8780   2.596   3.154   3.746  0.3301 -0.1757  0.5723
  382DG     C18 8781   2.570   3.377   3.682  0.0798 -0.3872 -0.1432
  382DG     O19 8782   2.514   3.266   3.743 -0.1196 -1.0987 -0.2072
  382DG     H20 8783   2.642   3.125   3.652  0.8264 -0.2548  0.8338
  382DG     H21 8784   2.673   3.171   3.821 -0.0665  1.8302  0.5723
  382DG     H22 8785   2.620   3.350   3.588 -1.0101 -0.3817 -0.7370
  382DG     H23 8786   2.632   3.441   3.745  1.9182  0.4233 -2.5988
  383DG      C1 8787   3.719   0.122   3.328  0.1538 -0.1566  0.3153
  383DG      C2 8788   3.674  -0.333   3.941  0.2609  0.5345  0.0789
  383DG      H3 8789   3.679   0.222   3.312 -0.9650 -0.7994 -1.1006
  383DG      H4 8790   3.765   0.096   3.232  0.1965  0.1515  0.2503
  383DG      H5 8791   3.804   0.134   3.396 -0.9531  0.8446  1.5734
  383DG      H6 8792   3.601  -0.378   4.008 -0.4761 -0.5976 -1.4260
  383DG      H7 8793   3.692  -0.404   3.860  0.7307  1.9829 -1.1357
  383DG      H8 8794   3.765  -0.331   4.001  0.7178 -1.8758 -0.4268
  383DG      O9 8795   3.616   0.036   3.370  0.1634 -0.0829  0.3975
  383DG     O10 8796   3.639  -0.209   3.894 -0.2873  0.0756 -0.0247
  383DG     C11 8797   3.651  -0.095   3.404  0.3605  0.2229 -0.6900
  383DG     C12 8798   3.503  -0.199   3.860  0.1508  0.0075  0.4252
  383DG     H13 8799   3.747  -0.098   3.457  1.0072 -0.4584 -1.8523
  383DG     H14 8800   3.672  -0.141   3.307  1.4725  0.8804 -0.7816
  383DG     H15 8801   3.483  -0.092   3.861 -1.4116 -0.2628  0.0709
  383DG     H16 8802   3.427  -0.248   3.921  0.1560  1.1557  1.3975
  383DG     C17 8803   3.549  -0.177   3.492  0.0347  0.4748  0.5319
  383DG     C18 8804   3.477  -0.241   3.711  0.2075  0.3582 -0.4570
  383DG     O19 8805   3.548  -0.149   3.628  0.1001 -0.1456  0.2698
  383DG     H20 8806   3.554  -0.285   3.481 -2.1025  0.1418  2.1129
  383DG     H21 8807   3.453  -0.145   3.451 -0.0115 -2.0141 -1.5821
  383DG     H22 8808   3.517  -0.338   3.683 -1.5756 -0.1041 -1.6035
  383DG     H23 8809   3.372  -0.232   3.683 -0.6091  1.7554  2.6332
  384DG      C1 8810   1.608   4.664   5.304  0.5295 -0.2093 -0.3665
  384DG      C2 8811   1.562   4.263   4.736 -0.5419 -0.3893 -0.1024
  384DG      H3 8812   1.677   4.744   5.279 -0.2764  0.1765 -1.3911
  384DG      H4 8813   1.679   4.590   5.342  0.8290 -0.2506 -0.9958
  384DG      H5 8814   1.540   4.700   5.381 -0.0286 -0.7584 -0.5937
  384DG      H6 8815   1.662   4.237   4.771 -0.3570  0.7970  0.3002
  384DG      H7 8816   1.505   4.170   4.727 -1.0586  0.1380 -3.7850
  384DG      H8 8817   1.567   4.297   4.633  0.8077 -1.0411 -0.2753
  384DG      O9 8818   1.531   4.617   5.201  0.3482  0.5944  0.1319
  384DG     O10 8819   1.500   4.362   4.817  0.2710  0.1317 -0.1605
  384DG     C11 8820   1.415   4.698   5.173 -0.6759  0.3390  0.3590
  384DG     C12 8821   1.361   4.376   4.792  0.1016  0.3124  0.3474
  384DG     H13 8822   1.445   4.803   5.164  1.3785  0.0245  2.5467
  384DG     H14 8823   1.337   4.701   5.249 -1.3475 -2.6902 -0.1006
  384DG     H15 8824   1.320   4.285   4.836 -2.3165  1.1989  0.0604
  384DG     H16 8825   1.334   4.371   4.687 -1.2313 -0.8788  0.7211
  384DG     C17 8826   1.349   4.663   5.041  0.4401  0.6317 -0.3682
  384DG     C18 8827   1.304   4.491   4.872  0.2775 -0.4040  0.7326
  384DG     O19 8828   1.388   4.531   4.979 -0.6250 -1.1125  0.3981
  384DG     H20 8829   1.375   4.741   4.969  1.0051 -0.0245 -0.8927
  384DG     H21 8830   1.243   4.656   5.061  0.6542  1.5245  1.2616
  384DG     H22 8831   1.292   4.576   4.806  0.3579 -0.8018  0.2023
  384DG     H23 8832   1.208   4.455   4.910 -0.7854  1.0564 -0.4959
  385DG      C1 8833   3.004   4.581   0.165 -0.1469 -0.4446 -0.5273
  385DG      C2 8834   2.560   4.671   0.750  0.4827 -0.4337 -0.4618
  385DG      H3 8835   3.094   4.633   0.198  1.0967 -2.9842  0.3506
  385DG      H4 8836   2.927   4.654   0.138  2.6460  3.0353  0.0551
  385DG      H5 8837   3.039   4.536   0.073 -1.5444 -0.3601 -1.1319
  385DG      H6 8838   2.602   4.771   0.759  0.2194  0.1925 -4.4952
  385DG      H7 8839   2.451   4.674   0.748  0.4427 -0.8946  0.4650
  385DG      H8 8840   2.590   4.601   0.828 -0.4150  1.1072  1.3619
  385DG      O9 8841   2.948   4.491   0.266  0.1829  0.2280 -0.1809
  385DG     O10 8842   2.611   4.629   0.634 -0.1755  0.5227 -0.1475
  385DG     C11 8843   2.822   4.427   0.250 -0.4825  0.0128  0.1031
  385DG     C12 8844   2.754   4.623   0.635  0.9572 -0.1369  0.3920
  385DG     H13 8845   2.825   4.350   0.172  0.0821 -1.6027  1.6441
  385DG     H14 8846   2.753   4.499   0.206  1.0870  0.7850 -1.1692
  385DG     H15 8847   2.783   4.539   0.699 -1.6636  0.3390  2.3992
  385DG     H16 8848   2.794   4.721   0.661 -2.2433  1.3972  0.0195
  385DG     C17 8849   2.766   4.378   0.384 -0.2684 -0.3842  0.5371
  385DG     C18 8850   2.797   4.593   0.490  0.0440  0.5054  0.0808
  385DG     O19 8851   2.703   4.488   0.463  0.0227  0.5951  0.1702
  385DG     H20 8852   2.839   4.315   0.433  0.7383  1.3351  1.3414
  385DG     H21 8853   2.682   4.310   0.365  0.7319 -1.1491 -1.3939
  385DG     H22 8854   2.786   4.676   0.420  2.1581  1.6068  0.9773
  385DG     H23 8855   2.902   4.565   0.482 -0.0391  0.4971 -1.2112
  386DG      C1 8856   2.570   3.777   4.063 -0.1575 -0.6099 -0.0568
  386DG      C2 8857   2.818   3.121   4.445 -0.5270  0.2157 -0.5797
  386DG      H3 8858   2.479   3.717   4.058 -1.3363  1.0863  0.2366
  386DG      H4 8859   2.579   3.843   3.977 -0.6557 -1.8094 -1.0667
  386DG      H5 8860   2.556   3.844   4.148  1.3550  0.9902 -0.9908
  386DG      H6 8861   2.915   3.088   4.483 -0.7691  0.6952  0.4969
  386DG      H7 8862   2.754   3.122   4.533 -1.1105  0.7029 -1.0018
  386DG      H8 8863   2.798   3.037   4.380  0.1247 -0.0702 -0.4230
  386DG      O9 8864   2.682   3.703   4.081 -0.1940  0.2189 -0.5547
  386DG     O10 8865   2.839   3.251   4.369  0.2378 -0.0198 -0.4881
  386DG     C11 8866   2.691   3.597   3.987 -0.3005 -0.0497 -0.5659
  386DG     C12 8867   2.914   3.236   4.250  0.0692 -0.2200 -0.3807
  386DG     H13 8868   2.689   3.627   3.883  0.6511 -0.6436 -0.7723
  386DG     H14 8869   2.610   3.524   3.994  0.1490 -0.4695  0.5133
  386DG     H15 8870   2.863   3.161   4.190 -0.7274  1.2583 -1.6356
  386DG     H16 8871   3.013   3.196   4.269  0.1581  0.2881  0.2717
  386DG     C17 8872   2.821   3.515   4.020  0.6730 -0.1053 -0.2930
  386DG     C18 8873   2.923   3.367   4.175  0.2511 -0.4830  0.4188
  386DG     O19 8874   2.805   3.424   4.130 -0.3488  0.6974 -0.3065
  386DG     H20 8875   2.898   3.589   4.042  1.8242 -0.6060 -2.3066
  386DG     H21 8876   2.849   3.465   3.927  0.5453 -0.2299 -0.2643
  386DG     H22 8877   2.978   3.437   4.238 -0.4965 -0.2866  0.8655
  386DG     H23 8878   2.982   3.347   4.085 -0.3763  0.6355 -0.2713
  387DG      C1 8879   1.078   1.976   2.648 -0.0939  0.0986 -0.0428
  387DG      C2 8880   1.207   1.632   3.151 -0.4408  0.0613  0.1973
  387DG      H3 8881   0.989   2.032   2.620  1.0500  2.1728  0.2322
  387DG      H4 8882   1.069   1.875   2.608 -2.9317  0.9123 -1.7042
  387DG      H5 8883   1.166   2.016   2.596  1.1847 -1.3956  0.8790
  387DG      H6 8884   1.263   1.620   3.059  1.5044 -0.7940  1.4307
  387DG      H7 8885   1.263   1.585   3.232  1.6579 -2.2001 -2.3876
  387DG      H8 8886   1.109   1.587   3.132  0.5414 -2.1319  0.0549
  387DG      O9 8887   1.096   1.979   2.790  0.3695 -0.6542 -0.1908
  387DG     O10 8888   1.159   1.764   3.185  0.1405 -0.3999  0.5441
  387DG     C11 8889   1.055   2.100   2.849  1.0435  0.0250  0.3906
  387DG     C12 8890   1.262   1.856   3.202  0.3939 -0.1471  0.1393
  387DG     H13 8891   0.947   2.100   2.865  0.6579  2.7555 -1.4504
  387DG     H14 8892   1.076   2.188   2.787 -1.1322  0.7644  0.6056
  387DG     H15 8893   1.352   1.830   3.145  0.4802 -1.6511  0.9111
  387DG     H16 8894   1.303   1.855   3.303  0.0269  0.5891  0.3016
  387DG     C17 8895   1.140   2.120   2.975  0.3887 -0.7061 -0.3408
  387DG     C18 8896   1.221   1.994   3.161  0.3091  0.5488  0.5553
  387DG     O19 8897   1.146   1.996   3.042 -0.5512 -0.0493 -0.1652
  387DG     H20 8898   1.090   2.190   3.041  0.7368 -1.5101  0.7925
  387DG     H21 8899   1.237   2.158   2.942 -0.0978 -1.3733 -2.7718
  387DG     H22 8900   1.148   2.017   3.239  2.4794  0.0056  2.8778
  387DG     H23 8901   1.301   2.068   3.168  0.4344  0.3413  1.4991
  388DG      C1 8902   1.959   2.560   3.214  0.6422  0.2166 -0.0825
  388DG      C2 8903   2.629   2.457   3.199  0.4446 -0.2272 -0.4860
  388DG      H3 8904   1.893   2.474   3.221  0.8601 -0.0294 -0.8934
  388DG      H4 8905   1.912   2.646   3.166  0.1520 -0.9997 -1.8893
  388DG      H5 8906   1.993   2.588   3.314 -0.4899  3.1459 -0.4053
  388DG      H6 8907   2.655   2.546   3.256 -0.3058 -1.3218  1.6633
  388DG      H7 8908   2.569   2.401   3.271  0.0772  1.3242  0.4729
  388DG      H8 8909   2.715   2.400   3.164  0.7010  0.9737 -1.8994
  388DG      O9 8910   2.069   2.541   3.124  0.1344  0.2369 -0.2251
  388DG     O10 8911   2.537   2.502   3.094 -0.6672 -0.1185  0.5737
  388DG     C11 8912   2.048   2.484   2.996  0.0539  0.1687 -0.1681
  388DG     C12 8913   2.507   2.400   3.000  0.3360 -0.4788 -0.3285
  388DG     H13 8914   1.959   2.539   2.966  1.3617  2.7105  0.3645
  388DG     H14 8915   2.025   2.377   2.992 -0.5562  0.3296 -1.8709
  388DG     H15 8916   2.472   2.317   3.061  2.3020 -1.4702 -0.4935
  388DG     H16 8917   2.592   2.395   2.933  0.8746  3.4976 -0.1920
  388DG     C17 8918   2.160   2.506   2.897 -0.4092 -0.2435  0.0234
  388DG     C18 8919   2.393   2.440   2.904 -0.0013  0.0027 -0.3034
  388DG     O19 8920   2.279   2.467   2.974 -0.0262 -0.0522 -0.5997
  388DG     H20 8921   2.164   2.611   2.868  0.0047 -0.1673  0.3489
  388DG     H21 8922   2.150   2.438   2.813  0.2896 -0.4510  0.0980
  388DG     H22 8923   2.430   2.527   2.850 -0.9055  1.8243  1.8850
  388DG     H23 8924   2.385   2.355   2.836  0.4675  0.7727 -1.3519
  389DG      C1 8925   0.212   1.331   1.041 -0.0439  0.1821 -0.2332
  389DG      C2 8926   0.588   1.915   1.074  0.9021  0.3447 -0.4130
  389DG      H3 8927   0.214   1.222   1.046  0.5746  0.2263  0.8079
  389DG      H4 8928   0.125   1.359   0.981 -0.9234 -0.3322  0.7495
  389DG      H5 8929   0.190   1.359   1.144  0.8032 -0.6870  0.1995
  389DG      H6 8930   0.605   1.901   1.181 -0.6383 -2.3848 -0.4185
  389DG      H7 8931   0.665   1.980   1.033  0.7019 -1.2471 -3.6324
  389DG      H8 8932   0.491   1.963   1.069 -0.4152 -1.4194  3.7544
  389DG      O9 8933   0.336   1.385   0.999  0.8645  0.4524 -0.0041
  389DG     O10 8934   0.587   1.786   1.018 -0.3877 -0.5786  0.2577
  389DG     C11 8935   0.372   1.361   0.866 -0.2325 -0.2266  0.2071
  389DG     C12 8936   0.568   1.790   0.874 -0.0515  0.3803 -0.4022
  389DG     H13 8937   0.292   1.399   0.801  0.3659  1.8068  0.6006
  389DG     H14 8938   0.357   1.254   0.851 -1.6943 -0.0541  0.3052
  389DG     H15 8939   0.627   1.863   0.819  0.4824  0.9242  0.8505
  389DG     H16 8940   0.469   1.823   0.840  0.6765  0.3647 -2.7276
  389DG     C17 8941   0.512   1.410   0.834 -0.2071  0.1845 -0.2030
  389DG     C18 8942   0.597   1.645   0.825 -0.0382 -0.2042  0.4055
  389DG     O19 8943   0.514   1.547   0.885  0.3950 -0.4651 -0.1002
  389DG     H20 8944   0.531   1.401   0.727  0.5334 -0.4382 -0.0292
  389DG     H21 8945   0.579   1.350   0.896  0.4491 -0.6413 -1.6614
  389DG     H22 8946   0.591   1.636   0.717  2.4977  4.6792 -0.4082
  389DG     H23 8947   0.699   1.615   0.847  0.3102 -0.8493 -1.8316
  390DG      C1 8948   2.392   1.575   2.574  0.4441  0.4454 -0.1443
  390DG      C2 8949   1.816   1.452   2.814 -0.2061 -0.0573  0.2866
  390DG      H3 8950   2.343   1.531   2.487 -0.7885  0.5710  0.4652
  390DG      H4 8951   2.443   1.500   2.636  2.9318  2.5978  0.5961
  390DG      H5 8952   2.476   1.633   2.535  2.4655 -1.9703  0.3336
  390DG      H6 8953   1.880   1.382   2.869  0.6479  0.0505 -0.5371
  390DG      H7 8954   1.769   1.514   2.890 -0.3692 -0.8452  0.8438
  390DG      H8 8955   1.747   1.386   2.760  0.6897 -2.1928  1.6026
  390DG      O9 8956   2.306   1.659   2.653  0.0263 -0.2129 -0.4220
  390DG     O10 8957   1.886   1.532   2.722 -0.7574  0.1243  0.6142
  390DG     C11 8958   2.249   1.783   2.592  0.5676  0.7344 -0.1524
  390DG     C12 8959   1.807   1.625   2.658  0.0633 -0.4858 -1.0209
  390DG     H13 8960   2.322   1.838   2.534 -0.1072  0.5967 -1.1547
  390DG     H14 8961   2.223   1.852   2.673  0.3095 -1.7292  2.0229
  390DG     H15 8962   1.798   1.716   2.718 -0.2861 -1.9350  1.2322
  390DG     H16 8963   1.710   1.585   2.628 -1.3823  2.3727 -0.5717
  390DG     C17 8964   2.123   1.744   2.509  0.1732 -0.4929  0.0987
  390DG     C18 8965   1.899   1.674   2.543 -0.2390 -0.3700 -0.1015
  390DG     O19 8966   2.026   1.691   2.595 -0.2273  0.0654 -0.2646
  390DG     H20 8967   2.151   1.678   2.427  3.7503 -0.3249  0.9970
  390DG     H21 8968   2.076   1.837   2.477  0.3451  0.4244  2.3437
  390DG     H22 8969   1.899   1.599   2.464 -0.4064 -1.9666  1.3394
  390DG     H23 8970   1.872   1.771   2.503  1.2750  0.2036  0.2203
  391DG      C1 8971   2.501   4.898   4.449  0.0306  0.5327  0.5390
  391DG      C2 8972   3.033   4.775   5.003  0.5148  0.7607  0.0633
  391DG      H3 8973   2.398   4.930   4.433 -0.3460 -0.7794  0.1901
  391DG      H4 8974   2.530   4.811   4.389  0.6434  2.9629 -3.0363
  391DG      H5 8975   2.570   4.975   4.416 -0.9541  0.4433 -1.9714
  391DG      H6 8976   3.008   4.674   5.038  0.3191  0.8293  0.1248
  391DG      H7 8977   3.111   4.768   4.927 -0.5930 -0.4917 -1.0216
  391DG      H8 8978   3.085   4.821   5.086 -0.7923 -0.7922  1.8334
  391DG      O9 8979   2.509   4.868   4.591 -0.1954 -0.2756 -0.0742
  391DG     O10 8980   2.931   4.851   4.949 -0.2160  0.8935  0.7749
  391DG     C11 8981   2.533   4.992   4.660 -0.7338  0.2487  0.1720
  391DG     C12 8982   2.811   4.840   5.021  0.1423 -0.1797 -0.1079
  391DG     H13 8983   2.452   5.062   4.639 -0.1159  2.0951  3.4009
  391DG     H14 8984   2.626   5.040   4.629  0.4333 -1.5655  0.6993
  391DG     H15 8985   2.833   4.866   5.124  0.8883 -0.6628 -0.1423
  391DG     H16 8986   2.776   4.737   5.013 -1.3855  0.0070  2.8524
  391DG     C17 8987   2.525   4.973   4.815 -0.6921 -0.1368 -0.2013
  391DG     C18 8988   2.706   4.943   4.969  0.2052  0.1014  0.6013
  391DG     O19 8989   2.641   4.896   4.856  0.3929 -0.3514  0.0618
  391DG     H20 8990   2.427   4.949   4.855 -2.3094  2.2423 -2.4527
  391DG     H21 8991   2.534   5.072   4.860 -1.2125  0.6877 -1.8215
  391DG     H22 8992   2.639   4.960   5.053  1.5798  4.1128  1.1085
  391DG     H23 8993   2.748   5.043   4.958 -0.4268  0.3653  0.5367
  392DG      C1 8994   0.953   4.638   3.192 -0.5355  0.4146 -0.3656
  392DG      C2 8995   0.510   4.153   3.712  0.4787  0.6102  0.3822
  392DG      H3 8996   0.882   4.720   3.187 -2.6512 -1.3186 -0.1800
  392DG      H4 8997   0.943   4.578   3.101  3.1647  0.1737 -0.7712
  392DG      H5 8998   1.057   4.671   3.180 -0.2806  0.4310  1.6209
  392DG      H6 8999   0.441   4.237   3.716  2.2951  2.1966  0.0669
  392DG      H7 9000   0.489   4.089   3.627  0.5743 -0.1578  0.9222
  392DG      H8 9001   0.491   4.093   3.801 -1.3031  1.9684  0.9720
  392DG      O9 9002   0.933   4.568   3.317 -0.1118 -0.1999  0.0354
  392DG     O10 9003   0.647   4.188   3.719 -0.3151  0.4351 -0.1636
  392DG     C11 9004   1.022   4.460   3.336 -0.0936 -0.4073 -0.4891
  392DG     C12 9005   0.693   4.263   3.612 -0.0520 -0.2664  0.7919
  392DG     H13 9006   1.122   4.501   3.322 -0.2969  0.3437  0.1270
  392DG     H14 9007   0.989   4.378   3.272  2.7237 -1.8149 -0.2664
  392DG     H15 9008   0.633   4.353   3.621  0.8548  0.6135 -1.3121
  392DG     H16 9009   0.683   4.212   3.517 -1.1577  3.4250 -1.2522
  392DG     C17 9010   1.009   4.400   3.478  0.8207  0.2270  0.2152
  392DG     C18 9011   0.832   4.308   3.617  0.5251  0.8745 -0.2673
  392DG     O19 9012   0.870   4.364   3.494 -0.2207  0.2886  0.6465
  392DG     H20 9013   1.033   4.473   3.554  0.1263  1.5708 -0.8193
  392DG     H21 9014   1.065   4.306   3.479 -0.7975 -0.8156 -0.6664
  392DG     H22 9015   0.851   4.372   3.703 -0.0815 -2.4005  2.5297
  392DG     H23 9016   0.907   4.229   3.626 -0.7219 -0.1581  1.8089
  393DG      C1 9017   3.814   0.828   0.053 -0.4229  0.7109  0.4301
  393DG      C2 9018   3.724   0.894  -0.403  0.1551 -0.3465  0.3137
  393DG      H3 9019   3.708   0.850   0.053 -1.3227 -2.7936 -1.4461
  393DG      H4 9020   3.844   0.822   0.157 -0.5344 -1.4919  0.3923
  393DG      H5 9021   3.827   0.728   0.011  1.3578  1.1884 -0.2668
  393DG      H6 9022   3.619   0.911  -0.428  0.3117  2.7703  1.2744
  393DG      H7 9023   3.764   0.818  -0.469 -1.6144 -0.3186 -0.8349
  393DG      H8 9024   3.734   0.857  -0.301  3.2354 -3.6626 -0.9799
  393DG      O9 9025   3.885   0.920  -0.035  0.0339  0.9495  0.2472
  393DG     O10 9026   3.793   1.019  -0.421 -0.2447 -0.4242 -0.4244
  393DG     C11 9027   3.890   1.052   0.016  0.2440  0.0504 -0.4363
  393DG     C12 9028   3.715   1.140  -0.407  0.3045  1.3709 -0.5821
  393DG     H13 9029   3.986   1.092  -0.018 -0.1683  3.4414  1.8971
  393DG     H14 9030   3.889   1.052   0.125 -0.6517 -0.7691 -0.4347
  393DG     H15 9031   3.633   1.106  -0.471 -0.5906  1.1133  0.6642
  393DG     H16 9032   3.756   1.235  -0.442 -1.0508  2.1456 -0.1040
  393DG     C17 9033   3.772   1.136  -0.041  0.1211  0.3302  0.5683
  393DG     C18 9034   3.670   1.142  -0.256  0.1943 -0.3524  0.0973
  393DG     O19 9035   3.789   1.121  -0.176 -0.1282  0.3175 -0.3838
  393DG     H20 9036   3.779   1.243  -0.020  0.2908  0.1122  1.6923
  393DG     H21 9037   3.675   1.097  -0.009  0.6089  0.1945  1.9215
  393DG     H22 9038   3.623   1.239  -0.234  1.4736 -0.1391  2.1239
  393DG     H23 9039   3.591   1.069  -0.234 -0.5543  0.3560 -0.1728
  394DG      C1 9040   2.243   4.756   1.084 -0.1729 -0.0563  0.7545
  394DG      C2 9041   1.713   4.828   1.700  0.3688 -0.0364 -0.7254
  394DG      H3 9042   2.209   4.653   1.093  1.7566 -0.6872  1.4189
  394DG      H4 9043   2.351   4.745   1.066 -0.3395 -0.6050  0.0184
  394DG      H5 9044   2.224   4.807   0.990 -0.6675  1.7952  1.8248
  394DG      H6 9045   1.653   4.920   1.699  3.0929  1.9013  0.4401
  394DG      H7 9046   1.668   4.759   1.629 -3.0882  0.9061  0.3476
  394DG      H8 9047   1.712   4.783   1.799 -0.6848 -1.8672 -1.5292
  394DG      O9 9048   2.199   4.842   1.195 -0.1286  0.0634 -0.2548
  394DG     O10 9049   1.847   4.859   1.655  0.5197  0.1724  0.2384
  394DG     C11 9050   2.239   4.794   1.315  0.2319  0.0115 -0.0548
  394DG     C12 9051   1.863   4.968   1.569  0.3160  0.0895  0.2579
  394DG     H13 9052   2.348   4.788   1.314  0.2034 -0.8848  0.4390
  394DG     H14 9053   2.197   4.693   1.323  0.2426  0.0222  0.1673
  394DG     H15 9054   1.819   5.049   1.628  0.0900 -0.9187  1.4871
  394DG     H16 9055   1.811   4.955   1.474  0.5218  0.2461  0.1213
  394DG     C17 9056   2.185   4.884   1.426  0.0325 -0.0158  0.0955
  394DG     C18 9057   2.006   4.986   1.527 -0.3668 -0.0298 -0.2887
  394DG     O19 9058   2.052   4.871   1.464 -0.6525  0.2438 -0.4739
  394DG     H20 9059   2.198   4.988   1.396 -0.9176 -0.5180 -2.3034
  394DG     H21 9060   2.243   4.865   1.516 -1.7307  0.0562  1.3157
  394DG     H22 9061   2.003   5.063   1.450  0.5384 -0.3676 -0.6863
  394DG     H23 9062   2.081   5.010   1.603  0.9371 -0.0411 -1.5123
  395DG      C1 9063   0.530   1.229   3.022 -0.0204  0.9613  0.2476
  395DG      C2 9064   0.822   1.238   3.495  0.2491  0.4823  0.3451
  395DG      H3 9065   0.583   1.142   2.983 -1.7584  1.3853 -3.5606
  395DG      H4 9066   0.574   1.312   2.966 -0.8546  1.2985  0.0814
  395DG      H5 9067   0.423   1.223   3.001 -0.0323  1.0801  0.2713
  395DG      H6 9068   0.784   1.159   3.560  1.1468 -0.4149 -0.2016
  395DG      H7 9069   0.755   1.246   3.410  1.4126 -1.5405 -0.8185
  395DG      H8 9070   0.919   1.218   3.452  0.8238  0.4139  1.6349
  395DG      O9 9071   0.568   1.253   3.157 -0.0287 -0.0279  0.0588
  395DG     O10 9072   0.812   1.357   3.567  0.4327 -0.6104 -0.8796
  395DG     C11 9073   0.487   1.347   3.217  0.3409 -0.7207 -0.0648
  395DG     C12 9074   0.684   1.401   3.615 -0.5479 -0.0587  0.4197
  395DG     H13 9075   0.387   1.304   3.210  1.3460 -3.1296 -0.6451
  395DG     H14 9076   0.482   1.438   3.156  2.8019 -1.0820 -0.9282
  395DG     H15 9077   0.702   1.455   3.708  1.7234 -0.0487  0.0284
  395DG     H16 9078   0.614   1.318   3.627  1.6724 -2.3884 -1.5537
  395DG     C17 9079   0.500   1.372   3.370 -0.3727  0.3530  0.4902
  395DG     C18 9080   0.630   1.508   3.514  0.3693  0.2982 -0.3325
  395DG     O19 9081   0.615   1.457   3.382 -0.1056 -0.4050  0.3500
  395DG     H20 9082   0.523   1.275   3.414 -2.3794 -0.0532  0.7426
  395DG     H21 9083   0.410   1.417   3.412 -1.7714 -0.9757 -0.9641
  395DG     H22 9084   0.540   1.537   3.568  0.3161 -1.7292  0.7935
  395DG     H23 9085   0.702   1.589   3.527  0.9729 -0.1144 -1.0833
  396DG      C1 9086   0.424   5.438   0.020  0.1509  0.2463  0.0544
  396DG      C2 9087  -0.207   5.418  -0.215  0.8088  0.2919  0.1615
  396DG      H3 9088   0.512   5.496   0.046  1.5006 -0.8001 -1.8672
  396DG      H4 9089   0.471   5.341   0.001  1.8442  0.2237  3.5663
  396DG      H5 9090   0.359   5.429   0.107 -0.2732  3.3228  0.1348
  396DG      H6 9091  -0.246   5.442  -0.116  2.2666  1.3403  0.5186
  396DG      H7 9092  -0.289   5.436  -0.285 -0.3345 -0.1909  1.3255
  396DG      H8 9093  -0.187   5.311  -0.206 -2.2440 -0.2773  1.3439
  396DG      O9 9094   0.352   5.479  -0.091  0.2623 -0.0073 -0.2800
  396DG     O10 9095  -0.095   5.509  -0.240  0.0151  0.2429  0.1088
  396DG     C11 9096   0.411   5.447  -0.214 -0.1572  0.4527  0.6826
  396DG     C12 9097  -0.045   5.488  -0.371 -0.3235 -0.3499 -0.4262
  396DG     H13 9098   0.394   5.339  -0.206 -0.4013  0.4502  0.1723
  396DG     H14 9099   0.517   5.468  -0.223  0.1751 -1.1105  0.6258
  396DG     H15 9100  -0.111   5.529  -0.446 -0.4748 -2.0614 -1.2828
  396DG     H16 9101  -0.031   5.381  -0.386 -0.0483 -0.3799  0.0261
  396DG     C17 9102   0.320   5.508  -0.328 -0.4318  0.0872 -0.1436
  396DG     C18 9103   0.100   5.540  -0.392  0.0838  0.0194 -0.0979
  396DG     O19 9104   0.186   5.484  -0.291  0.2146 -0.4786 -0.4469
  396DG     H20 9105   0.346   5.462  -0.423 -0.1376 -0.5450  0.2385
  396DG     H21 9106   0.333   5.616  -0.340 -1.8761  0.6462  2.4597
  396DG     H22 9107   0.138   5.490  -0.481  1.0164 -1.1752  0.9311
  396DG     H23 9108   0.099   5.649  -0.401  0.0539  0.1943  1.5696
  397DG      C1 9109   5.303   3.766   3.698  0.3513  0.2605 -0.3404
  397DG      C2 9110   5.273   3.043   3.543 -0.4673  0.5235 -0.2753
  397DG      H3 9111   5.286   3.800   3.595  0.1886  0.3009 -0.3010
  397DG      H4 9112   5.410   3.773   3.713  0.6665  0.7182 -2.4114
  397DG      H5 9113   5.252   3.833   3.767  0.4561  0.5878 -0.5785
  397DG      H6 9114   5.277   2.953   3.605 -2.0981  0.4309 -0.2756
  397DG      H7 9115   5.198   3.024   3.466 -0.9032  0.2925  0.2000
  397DG      H8 9116   5.366   3.048   3.486 -0.1659  1.8606  0.2926
  397DG      O9 9117   5.255   3.640   3.717  0.2226 -0.4568 -0.4154
  397DG     O10 9118   5.243   3.162   3.617 -0.1746  0.1276  0.0057
  397DG     C11 9119   5.129   3.613   3.655 -0.2033  0.0470 -1.1221
  397DG     C12 9120   5.117   3.168   3.684 -0.0304 -0.0621  0.5040
  397DG     H13 9121   5.151   3.594   3.550 -0.0268 -1.5563 -0.8223
  397DG     H14 9122   5.059   3.695   3.667 -1.2184 -0.9073 -0.2827
  397DG     H15 9123   5.086   3.073   3.727  1.2594 -2.4770 -3.3676
  397DG     H16 9124   5.038   3.194   3.613 -0.4334 -1.1724  0.5240
  397DG     C17 9125   5.068   3.479   3.728 -0.6831 -0.6458  0.0226
  397DG     C18 9126   5.120   3.264   3.800 -0.0013 -0.2675 -0.0597
  397DG     O19 9127   5.172   3.394   3.772 -0.1371  0.6325  0.4616
  397DG     H20 9128   4.997   3.431   3.660 -0.8925 -1.0692  0.5371
  397DG     H21 9129   5.012   3.516   3.813  2.0222 -0.5321  1.8825
  397DG     H22 9130   5.023   3.271   3.849 -0.1595  0.0235 -0.4183
  397DG     H23 9131   5.182   3.233   3.884 -1.1646 -2.1711  0.1666
  398DG      C1 9132   1.601   4.675   2.587  0.2325 -0.2071 -0.0402
  398DG      C2 9133   2.095   4.687   2.103  0.1145 -0.3841  0.2106
  398DG      H3 9134   1.643   4.579   2.619  0.6330  0.1814  0.6182
  398DG      H4 9135   1.493   4.671   2.595 -0.1953 -0.5831 -3.9282
  398DG      H5 9136   1.635   4.755   2.652  0.2310  0.3463 -0.6994
  398DG      H6 9137   2.109   4.711   2.208  2.4816 -0.1931 -0.0908
  398DG      H7 9138   2.181   4.626   2.073  3.4842  3.8245  0.2890
  398DG      H8 9139   2.103   4.776   2.042  1.7455 -0.7944 -0.2270
  398DG      O9 9140   1.616   4.686   2.447 -0.1678 -0.1881 -0.4886
  398DG     O10 9141   1.979   4.619   2.089  0.0293  0.0194 -0.0731
  398DG     C11 9142   1.547   4.591   2.370  0.1429  0.0093  0.0940
  398DG     C12 9143   1.863   4.713   2.068  0.0471 -0.0307  0.4016
  398DG     H13 9144   1.439   4.583   2.380  0.0808 -3.1033 -1.8639
  398DG     H14 9145   1.599   4.499   2.397 -0.1239 -0.7501 -1.8471
  398DG     H15 9146   1.882   4.765   1.974 -1.1379 -1.1014 -0.4686
  398DG     H16 9147   1.867   4.786   2.148 -0.2687  0.5682 -0.1216
  398DG     C17 9148   1.570   4.620   2.223  0.4685  0.0399  0.4171
  398DG     C18 9149   1.726   4.635   2.055 -0.4900 -0.8475 -0.1050
  398DG     O19 9150   1.701   4.591   2.185 -0.0123 -0.4640  0.2490
  398DG     H20 9151   1.552   4.728   2.225 -0.1070 -0.0610  0.9737
  398DG     H21 9152   1.506   4.559   2.160  0.6088 -0.8291  1.0990
  398DG     H22 9153   1.645   4.699   2.019  0.8576  1.1594  0.2292
  398DG     H23 9154   1.731   4.560   1.976 -2.3178 -2.3073  1.0783
  399DG      C1 9155   0.534   1.066   4.721  0.2697 -0.4293  0.1004
  399DG      C2 9156   1.220   1.563   4.524  0.5362 -0.4529  0.4616
  399DG      H3 9157   0.535   1.094   4.827 -1.7058 -0.6939  0.2256
  399DG      H4 9158   0.608   0.986   4.715 -0.5229 -1.2202  0.4795
  399DG      H5 9159   0.434   1.027   4.704  1.1721 -1.9208 -2.1948
  399DG      H6 9160   1.219   1.649   4.457 -0.4935 -0.7523  0.0855
  399DG      H7 9161   1.249   1.589   4.626  1.7013  0.5405 -0.0973
  399DG      H8 9162   1.303   1.498   4.496 -0.5033 -0.9952 -1.5190
  399DG      O9 9163   0.561   1.180   4.641  0.1742  0.3812  0.0405
  399DG     O10 9164   1.095   1.500   4.514  0.3427  0.2862 -0.1486
  399DG     C11 9165   0.688   1.240   4.660  0.2405  0.2213  0.0265
  399DG     C12 9166   0.985   1.591   4.516  0.3718 -0.0395 -0.1413
  399DG     H13 9167   0.768   1.165   4.652 -1.6398 -1.9125  0.1197
  399DG     H14 9168   0.689   1.274   4.763  1.9020 -1.7080  0.7188
  399DG     H15 9169   0.999   1.680   4.455 -0.9516  1.1824  1.2615
  399DG     H16 9170   0.982   1.647   4.609  2.3400 -2.7490  1.6942
  399DG     C17 9171   0.697   1.361   4.564  0.6787 -0.2901  0.3475
  399DG     C18 9172   0.857   1.525   4.485  0.3450  0.0715  0.4527
  399DG     O19 9173   0.832   1.418   4.568  0.0614  0.2098 -0.5075
  399DG     H20 9174   0.632   1.446   4.582  0.7207  0.1204 -1.3204
  399DG     H21 9175   0.682   1.326   4.462  2.4176 -0.2554  0.0495
  399DG     H22 9176   0.777   1.599   4.488 -0.4780 -0.8016  0.1967
  399DG     H23 9177   0.855   1.494   4.381 -0.6325 -0.1892  0.5388
  400DG      C1 9178   3.298   3.673   5.129  0.1144  0.0283  0.3064
  400DG      C2 9179   3.949   3.530   4.753 -0.0492  0.0003 -0.1219
  400DG      H3 9180   3.278   3.713   5.229  0.2040  2.7367 -0.6659
  400DG      H4 9181   3.235   3.587   5.107  1.3206 -0.0526 -3.5230
  400DG      H5 9182   3.257   3.747   5.061 -0.3323  0.6160  1.1859
  400DG      H6 9183   3.938   3.437   4.697  0.5767  0.5165 -1.1223
  400DG      H7 9184   3.880   3.596   4.700  1.2695  1.9242  0.4578
  400DG      H8 9185   4.055   3.554   4.745  0.4312 -2.3865 -2.3461
  400DG      O9 9186   3.441   3.661   5.117  0.6341 -0.2042 -0.0875
  400DG     O10 9187   3.917   3.494   4.887 -0.5256 -0.0205  0.2650
  400DG     C11 9188   3.487   3.548   5.192 -0.3533 -0.5777 -0.2604
  400DG     C12 9189   3.917   3.606   4.970 -0.4546  0.3009  0.6613
  400DG     H13 9190   3.451   3.461   5.136 -1.3947  1.5576 -3.1659
  400DG     H14 9191   3.444   3.542   5.292  0.3500  2.0598  0.2574
  400DG     H15 9192   3.871   3.689   4.916  0.0600  0.0757 -0.1221
  400DG     H16 9193   4.022   3.636   4.979  0.2983 -1.7970 -0.6856
  400DG     C17 9194   3.635   3.566   5.210 -0.1750 -0.0104 -0.2038
  400DG     C18 9195   3.846   3.575   5.101  0.3880 -0.0380  0.1036
  400DG     O19 9196   3.707   3.574   5.084 -0.0177  0.0008  0.0793
  400DG     H20 9197   3.672   3.477   5.260  0.4748  1.8547  2.8964
  400DG     H21 9198   3.661   3.646   5.279 -1.4755 -1.2423  1.7982
  400DG     H22 9199   3.891   3.488   5.149  1.3346  0.9601  1.1153
  400DG     H23 9200   3.861   3.663   5.165 -0.5999 -1.9070  3.0853
  401DG      C1 9201   4.225   0.813   1.735  0.6348 -0.0533 -0.0852
  401DG      C2 9202   4.178   0.680   2.349 -1.6712  0.6886 -0.3426
  401DG      H3 9203   4.167   0.769   1.654 -0.9202 -0.0943  1.0038
  401DG      H4 9204   4.312   0.861   1.690  1.1086  0.2283  1.0892
  401DG      H5 9205   4.178   0.886   1.801  1.7652  0.5963  0.0291
  401DG      H6 9206   4.086   0.712   2.301 -1.5876  1.9996  0.3090
  401DG      H7 9207   4.166   0.623   2.441 -1.2911  1.8064  0.4342
  401DG      H8 9208   4.235   0.769   2.379 -2.5238  1.0281  0.3204
  401DG      O9 9209   4.270   0.711   1.824  0.3300 -0.0453 -0.0546
  401DG     O10 9210   4.250   0.618   2.247  0.3527 -0.6270 -0.6432
  401DG     C11 9211   4.318   0.587   1.766  0.0978 -0.4292 -1.1590
  401DG     C12 9212   4.194   0.507   2.187  0.0572  0.1848 -0.2896
  401DG     H13 9213   4.423   0.596   1.740  0.1778  1.5516 -0.3622
  401DG     H14 9214   4.264   0.564   1.673  0.4839 -0.5821 -1.3458
  401DG     H15 9215   4.109   0.537   2.125  0.8338  1.7117 -0.6545
  401DG     H16 9216   4.160   0.433   2.260  2.1968 -0.4851  0.0923
  401DG     C17 9217   4.298   0.470   1.862  1.1560  0.7390 -0.1415
  401DG     C18 9218   4.303   0.436   2.105  0.4757  0.3152 -0.2516
  401DG     O19 9219   4.336   0.520   1.993  0.9106 -0.5354  0.1689
  401DG     H20 9220   4.351   0.377   1.839  2.3401  1.6554 -1.3048
  401DG     H21 9221   4.197   0.430   1.854  2.2834 -1.9818 -3.1790
  401DG     H22 9222   4.391   0.409   2.164  1.1854 -0.5713 -1.6593
  401DG     H23 9223   4.263   0.345   2.059 -2.4294  1.6064 -0.5339
  402DG      C1 9224   2.909   1.760   1.578  0.4318 -0.3483 -0.1681
  402DG      C2 9225   3.573   1.461   1.374 -0.1735  0.2657  0.4483
  402DG      H3 9226   2.872   1.726   1.482  2.0496  3.4688 -2.3823
  402DG      H4 9227   2.945   1.862   1.563 -1.5069  0.2591 -1.0221
  402DG      H5 9228   2.833   1.761   1.655  2.1199 -2.4061  1.6602
  402DG      H6 9229   3.654   1.442   1.445 -0.5765  0.7509  1.0471
  402DG      H7 9230   3.583   1.394   1.289 -1.2139  0.4688  0.1578
  402DG      H8 9231   3.568   1.559   1.327 -1.7894 -0.4400 -0.9566
  402DG      O9 9232   3.027   1.687   1.614 -0.0939  0.3336 -0.4575
  402DG     O10 9233   3.455   1.411   1.434 -0.3603  0.4401 -0.3278
  402DG     C11 9234   3.011   1.543   1.621  0.8048 -0.2087 -0.0075
  402DG     C12 9235   3.465   1.444   1.576  0.3707  0.4131 -0.1377
  402DG     H13 9236   3.005   1.503   1.520  0.5120 -1.1908  0.3823
  402DG     H14 9237   2.912   1.522   1.664  0.1569  1.9534 -0.3513
  402DG     H15 9238   3.465   1.552   1.591 -1.0449  0.2490  1.3430
  402DG     H16 9239   3.556   1.400   1.615  1.7046  2.5771 -0.6633
  402DG     C17 9240   3.116   1.467   1.706 -0.0972  0.1628  0.5771
  402DG     C18 9241   3.341   1.394   1.657  0.4787 -0.5191  0.0621
  402DG     O19 9242   3.236   1.480   1.634  0.1672  0.6748  0.7684
  402DG     H20 9243   3.082   1.364   1.709 -0.2872  0.2359  1.0503
  402DG     H21 9244   3.117   1.500   1.810 -2.6642  0.0690  0.7118
  402DG     H22 9245   3.321   1.294   1.617 -1.5715 -0.1685  0.1455
  402DG     H23 9246   3.359   1.372   1.762 -1.9715 -0.1071  0.6229
  403DG      C1 9247   1.505   0.085   0.301 -0.7898  0.3361  0.1320
  403DG      C2 9248   2.139   0.459   0.718 -0.5222 -0.0305 -0.3448
  403DG      H3 9249   1.570   0.080   0.214 -0.9516  0.2474  0.0149
  403DG      H4 9250   1.426   0.157   0.279 -0.3728  0.2660 -1.7348
  403DG      H5 9251   1.458  -0.012   0.317  2.7930 -1.3062  1.7624
  403DG      H6 9252   2.152   0.392   0.804 -1.2916  1.3545  0.8832
  403DG      H7 9253   2.201   0.412   0.641  0.8386  1.5157 -0.2376
  403DG      H8 9254   2.174   0.559   0.743 -1.9469  0.5521 -0.5959
  403DG      O9 9255   1.576   0.128   0.414 -0.3354 -0.2770 -0.7884
  403DG     O10 9256   2.003   0.469   0.676 -0.4365 -0.0287  0.2460
  403DG     C11 9257   1.507   0.163   0.533  0.3108  0.4257  0.1038
  403DG     C12 9258   1.931   0.346   0.677 -0.4044 -0.3224 -0.1980
  403DG     H13 9259   1.482   0.080   0.599  1.3458  1.0065  1.2774
  403DG     H14 9260   1.403   0.187   0.509  0.4468  0.8908 -0.0313
  403DG     H15 9261   1.944   0.280   0.762  1.5571 -0.5519 -0.6337
  403DG     H16 9262   1.952   0.276   0.596 -2.6928  0.9604 -2.0363
  403DG     C17 9263   1.579   0.285   0.592  0.1201  0.2172  0.6062
  403DG     C18 9264   1.781   0.387   0.653 -0.2914 -0.4896 -0.6380
  403DG     O19 9265   1.714   0.263   0.625  0.1615  0.6162  0.0521
  403DG     H20 9266   1.534   0.324   0.684  0.1220 -1.0531  1.1757
  403DG     H21 9267   1.572   0.360   0.514 -1.1485 -0.5084  0.0064
  403DG     H22 9268   1.734   0.449   0.730 -0.6470 -1.1463 -0.3161
  403DG     H23 9269   1.776   0.442   0.559 -1.5702 -0.2233 -0.4347
  404DG      C1 9270   2.866   5.383   2.169 -0.2367 -0.7662 -0.4656
  404DG      C2 9271   2.963   6.004   1.879  0.2903  0.5026 -0.6925
  404DG      H3 9272   2.779   5.362   2.231 -0.3799  1.3327  0.1044
  404DG      H4 9273   2.948   5.312   2.179  0.2688  0.1721  3.8578
  404DG      H5 9274   2.825   5.367   2.069  0.9233 -1.0379 -0.9195
  404DG      H6 9275   2.951   6.110   1.902  1.3876  0.1040  2.1304
  404DG      H7 9276   3.061   5.992   1.834 -0.3422 -3.6115 -1.4022
  404DG      H8 9277   2.880   5.972   1.816  1.5971 -1.4629 -1.5032
  404DG      O9 9278   2.913   5.519   2.192 -0.4981  1.0856 -0.4826
  404DG     O10 9279   2.963   5.934   2.008  0.3461 -0.0571 -0.1133
  404DG     C11 9280   2.980   5.541   2.315  0.0714  0.7347 -0.0992
  404DG     C12 9281   3.067   5.976   2.101 -0.4653  0.4002 -0.3130
  404DG     H13 9282   3.076   5.490   2.313  0.3630  1.2386  0.8938
  404DG     H14 9283   2.920   5.497   2.395 -3.2293  0.4569 -2.5032
  404DG     H15 9284   3.059   6.082   2.127  0.3571  0.2803  0.4544
  404DG     H16 9285   3.166   5.949   2.064 -1.3898 -2.9752 -0.6598
  404DG     C17 9286   3.008   5.688   2.336  0.2391 -0.2228 -0.4047
  404DG     C18 9287   3.045   5.895   2.232  0.0011  0.0738  0.1695
  404DG     O19 9288   3.029   5.755   2.211 -0.4166 -0.7112 -0.1619
  404DG     H20 9289   3.088   5.709   2.407 -0.3487  0.8773 -0.0368
  404DG     H21 9290   2.923   5.741   2.380  0.5842  0.3191 -0.3824
  404DG     H22 9291   3.132   5.912   2.295  0.5274 -0.6591 -0.3390
  404DG     H23 9292   2.951   5.933   2.272 -0.4994 -0.1484 -0.7546
  405DG      C1 9293   0.225   2.510   2.669  0.7716  0.3070  0.1850
  405DG      C2 9294   0.691   2.967   2.700 -0.3656 -0.2385 -0.0286
  405DG      H3 9295   0.227   2.409   2.709  0.4658  0.3471  0.3009
  405DG      H4 9296   0.226   2.503   2.560  3.3637  0.6615  0.1163
  405DG      H5 9297   0.126   2.547   2.694 -0.5659 -0.6226 -3.1852
  405DG      H6 9298   0.663   3.067   2.664  0.3394  1.3812  3.4681
  405DG      H7 9299   0.788   2.970   2.749 -0.9160  0.0401  1.0688
  405DG      H8 9300   0.703   2.895   2.619  0.0616 -0.5863  0.3409
  405DG      O9 9301   0.328   2.587   2.733  0.2499  0.4136 -0.0475
  405DG     O10 9302   0.587   2.914   2.769 -0.4408 -0.4941 -0.1476
  405DG     C11 9303   0.315   2.576   2.869  0.3923  0.2649  0.2387
  405DG     C12 9304   0.570   2.948   2.907 -0.1057  0.3269  0.1473
  405DG     H13 9305   0.349   2.478   2.901  2.2287 -0.0016 -2.2306
  405DG     H14 9306   0.208   2.582   2.892 -0.3176  0.5467 -2.6887
  405DG     H15 9307   0.607   3.047   2.932  2.6739 -0.3581 -0.9740
  405DG     H16 9308   0.638   2.876   2.952  1.1316  0.4924 -1.3790
  405DG     C17 9309   0.392   2.686   2.951  0.6351 -0.8651 -0.3220
  405DG     C18 9310   0.424   2.930   2.950 -0.2260 -0.0484 -0.4472
  405DG     O19 9311   0.374   2.811   2.888 -0.2079 -0.5991 -0.0021
  405DG     H20 9312   0.501   2.674   2.956  0.8565  0.8550 -0.3312
  405DG     H21 9313   0.350   2.691   3.052 -0.1097  0.0905 -0.6624
  405DG     H22 9314   0.404   2.936   3.057 -1.2712  1.3498 -0.6980
  405DG     H23 9315   0.371   3.013   2.903 -0.4184 -0.1716 -0.4477
  406DG      C1 9316   4.737   0.078   4.152 -0.6153 -0.3201 -0.2121
  406DG      C2 9317   4.720  -0.644   4.012  0.2758 -0.4442 -0.1149
  406DG      H3 9318   4.738   0.131   4.247  0.4340  1.4969 -1.2027
  406DG      H4 9319   4.752   0.142   4.065  1.1907  0.2587  0.4976
  406DG      H5 9320   4.795  -0.014   4.155 -3.3418 -2.1537  1.1554
  406DG      H6 9321   4.802  -0.695   4.062  1.2893  0.7348 -0.5174
  406DG      H7 9322   4.660  -0.712   3.950  0.1016 -1.2434  0.9110
  406DG      H8 9323   4.770  -0.593   3.929  1.1755 -0.4233  0.4255
  406DG      O9 9324   4.604   0.035   4.144  0.0535 -0.1512  0.4804
  406DG     O10 9325   4.633  -0.552   4.080 -0.3056 -0.1058  0.0060
  406DG     C11 9326   4.571  -0.062   4.241  0.6463  0.0805 -0.1698
  406DG     C12 9327   4.535  -0.484   3.998  0.3888 -0.2914 -0.2883
  406DG     H13 9328   4.532  -0.019   4.333 -1.3797 -2.3912  0.2585
  406DG     H14 9329   4.652  -0.121   4.286  0.4654 -1.0624 -1.2838
  406DG     H15 9330   4.459  -0.555   3.965 -0.7138  1.0988 -0.7819
  406DG     H16 9331   4.559  -0.436   3.904  0.6094  0.6024  0.2123
  406DG     C17 9332   4.473  -0.164   4.186  0.4006 -0.4484  0.1244
  406DG     C18 9333   4.468  -0.366   4.071  0.5083  0.5554 -0.3535
  406DG     O19 9334   4.541  -0.245   4.096  0.3099  0.0463 -0.0069
  406DG     H20 9335   4.395  -0.104   4.139  0.4889 -0.0953  0.4194
  406DG     H21 9336   4.441  -0.220   4.274  0.9259 -0.2428  0.4525
  406DG     H22 9337   4.376  -0.344   4.016  0.5383  2.3334  0.2483
  406DG     H23 9338   4.448  -0.407   4.170  0.3257 -1.4745 -1.1836
  407DG      C1 9339   3.657   2.918   1.777  0.2592 -0.0693  0.4812
  407DG      C2 9340   4.252   2.981   1.537 -0.2324  0.1137 -0.5094
  407DG      H3 9341   3.570   2.856   1.801 -0.4939  0.2076 -1.2970
  407DG      H4 9342   3.668   2.921   1.668  0.4167  0.3568  0.5104
  407DG      H5 9343   3.641   3.019   1.815  0.5519  0.0166  0.3759
  407DG      H6 9344   4.351   2.996   1.582  0.0598  2.6440 -1.8267
  407DG      H7 9345   4.268   2.934   1.440 -4.0078 -0.8310 -0.8425
  407DG      H8 9346   4.194   3.073   1.528 -0.6725 -0.2702 -1.7828
  407DG      O9 9347   3.773   2.870   1.832  0.4435  0.2149  0.0850
  407DG     O10 9348   4.176   2.895   1.628  0.2369 -0.1294 -0.0349
  407DG     C11 9349   3.769   2.731   1.829 -0.0167  0.0170  0.1503
  407DG     C12 9350   4.217   2.761   1.642 -0.3881 -0.2300  0.4258
  407DG     H13 9351   3.730   2.709   1.730 -2.1901  0.5724  0.8200
  407DG     H14 9352   3.694   2.712   1.907  1.0189  0.5234  1.3027
  407DG     H15 9353   4.318   2.756   1.682 -0.8399  0.9825  1.7929
  407DG     H16 9354   4.212   2.703   1.550 -3.9342 -2.5611  1.8445
  407DG     C17 9355   3.916   2.678   1.846  1.1100  0.4688 -0.5550
  407DG     C18 9356   4.124   2.686   1.745 -0.6001  0.0834 -0.4982
  407DG     O19 9357   3.989   2.737   1.750  0.3782 -0.1660 -0.0003
  407DG     H20 9358   3.925   2.569   1.841 -0.0729  0.4157 -2.8839
  407DG     H21 9359   3.953   2.721   1.939  0.6108  0.8029 -0.5072
  407DG     H22 9360   4.135   2.578   1.731  0.0023  0.2372 -1.2439
  407DG     H23 9361   4.175   2.704   1.840  0.6374 -0.7322 -0.9758
  408DG      C1 9362   3.299   0.536   4.589 -0.3247 -0.2137 -0.1286
  408DG      C2 9363   3.494   0.562   5.209 -0.8726  0.2351 -0.1850
  408DG      H3 9364   3.231   0.466   4.638 -0.3680 -0.7823 -0.9951
  408DG      H4 9365   3.315   0.523   4.482 -0.3971  2.9797 -0.6186
  408DG      H5 9366   3.261   0.633   4.623  0.1571  0.7580 -2.2310
  408DG      H6 9367   3.481   0.468   5.263 -4.3255  0.7899  0.1751
  408DG      H7 9368   3.540   0.632   5.279 -1.7848 -0.3620  1.0626
  408DG      H8 9369   3.397   0.608   5.195 -0.7232  1.4229  2.2115
  408DG      O9 9370   3.425   0.536   4.649 -0.6644  0.3318  0.5123
  408DG     O10 9371   3.565   0.558   5.081  0.0185 -0.3820 -0.2237
  408DG     C11 9372   3.480   0.397   4.645 -0.2374 -0.0428  0.5880
  408DG     C12 9373   3.662   0.459   5.072 -0.6724  0.2635 -0.1591
  408DG     H13 9374   3.505   0.370   4.543  1.9342  3.1999  0.0784
  408DG     H14 9375   3.422   0.324   4.701  0.6172 -2.7540 -1.8179
  408DG     H15 9376   3.606   0.367   5.084 -1.1036  0.2270 -2.1071
  408DG     H16 9377   3.744   0.465   5.144 -1.5588  0.0653  0.8941
  408DG     C17 9378   3.614   0.383   4.711  0.1337 -0.2659 -0.6761
  408DG     C18 9379   3.708   0.447   4.920  0.0327  0.0344 -0.3159
  408DG     O19 9380   3.591   0.440   4.835 -0.3804  0.3660 -0.2114
  408DG     H20 9381   3.679   0.443   4.647 -0.4720  0.2139 -0.8476
  408DG     H21 9382   3.648   0.279   4.714 -0.1717 -0.3708 -0.7945
  408DG     H22 9383   3.772   0.530   4.891 -0.9753  0.1008 -2.5208
  408DG     H23 9384   3.761   0.351   4.915 -1.2170 -0.6178 -2.1751
  409DG      C1 9385   4.388   0.795   1.268 -0.0954 -0.2288 -0.1642
  409DG      C2 9386   3.954   0.191   1.592 -0.5658  0.5271  0.0534
  409DG      H3 9387   4.490   0.808   1.232 -0.1257  0.6872  0.0412
  409DG      H4 9388   4.375   0.847   1.363 -0.3449 -0.3532 -0.1298
  409DG      H5 9389   4.329   0.836   1.186  3.1557 -0.0640 -2.6030
  409DG      H6 9390   3.882   0.212   1.514  0.3622  2.3242 -0.3864
  409DG      H7 9391   3.949   0.084   1.610 -1.0068  0.2176 -1.7333
  409DG      H8 9392   3.912   0.242   1.679 -1.1062 -1.4209  1.0004
  409DG      O9 9393   4.363   0.657   1.294 -0.0765  0.2061  0.3221
  409DG     O10 9394   4.084   0.246   1.564 -0.9107 -0.5760  0.0709
  409DG     C11 9395   4.433   0.608   1.414 -0.4892 -0.2551  0.9891
  409DG     C12 9396   4.110   0.238   1.425 -0.2586 -0.1818 -0.8588
  409DG     H13 9397   4.392   0.653   1.504  1.1613  0.7321  1.2947
  409DG     H14 9398   4.537   0.638   1.404  0.2800 -2.8946  0.0432
  409DG     H15 9399   4.045   0.306   1.369 -1.0926 -0.4065 -0.1938
  409DG     H16 9400   4.095   0.136   1.388 -1.9937 -1.0084  1.8544
  409DG     C17 9401   4.413   0.455   1.400  0.4216  0.6047 -1.4146
  409DG     C18 9402   4.250   0.285   1.396 -0.6031  0.0511 -0.2543
  409DG     O19 9403   4.276   0.424   1.424  0.0497 -0.2296 -0.4067
  409DG     H20 9404   4.465   0.403   1.481 -0.3622 -0.7838 -1.7649
  409DG     H21 9405   4.453   0.408   1.310  1.7164 -0.6180 -0.2547
  409DG     H22 9406   4.322   0.226   1.452  1.1048  1.2526 -1.0977
  409DG     H23 9407   4.269   0.266   1.290 -2.4102 -0.1424 -0.5742
  410DG      C1 9408   0.270   5.429   3.296  0.2721  0.4616  0.2889
  410DG      C2 9409   0.106   5.429   3.961 -0.1537  1.0140  0.0071
  410DG      H3 9410   0.363   5.380   3.327 -0.1946 -1.3844 -1.0846
  410DG      H4 9411   0.303   5.470   3.201  1.0775 -0.8764 -0.0339
  410DG      H5 9412   0.199   5.347   3.290 -0.7062  1.2042  1.2431
  410DG      H6 9413   0.162   5.483   4.037 -1.3493  1.3400  0.6891
  410DG      H7 9414   0.003   5.413   3.995 -0.0822 -1.5967 -0.7216
  410DG      H8 9415   0.144   5.327   3.968  0.1572  0.9679 -1.7849
  410DG      O9 9416   0.235   5.530   3.389 -0.1636 -0.3474  0.0545
  410DG     O10 9417   0.125   5.474   3.833  0.0528 -0.4179  0.2436
  410DG     C11 9418   0.120   5.609   3.361 -0.9356  0.3899  0.1197
  410DG     C12 9419   0.058   5.602   3.828  0.1026  0.5387 -0.4776
  410DG     H13 9420   0.033   5.547   3.340  0.4760 -1.7204  0.1472
  410DG     H14 9421   0.152   5.669   3.275  0.6163 -1.9228 -1.0211
  410DG     H15 9422   0.066   5.659   3.920 -0.4641 -1.4255  0.8668
  410DG     H16 9423  -0.050   5.588   3.816  0.0835  0.7623 -0.5698
  410DG     C17 9424   0.098   5.703   3.470  0.1052  0.8109 -0.2444
  410DG     C18 9425   0.100   5.689   3.710  0.1132 -0.4899  0.1482
  410DG     O19 9426   0.075   5.617   3.590 -0.1206 -0.0744  0.2655
  410DG     H20 9427   0.009   5.760   3.445  0.5197  1.3324 -0.5478
  410DG     H21 9428   0.181   5.771   3.490  1.4755 -1.2229  1.5498
  410DG     H22 9429   0.055   5.787   3.721  2.9327  0.7262  2.1065
  410DG     H23 9430   0.206   5.715   3.712  0.3508 -0.7914 -2.9400
  411DG      C1 9431   2.930   0.515   4.588  0.1050 -0.2198  0.2603
  411DG      C2 9432   2.770   0.254   4.006 -0.7295  0.2977 -0.4412
  411DG      H3 9433   2.925   0.412   4.622 -0.8281  0.0340  0.9212
  411DG      H4 9434   2.832   0.561   4.599  0.1272 -0.3740  1.2236
  411DG      H5 9435   2.995   0.561   4.663 -0.2538 -0.8963  0.9941
  411DG      H6 9436   2.720   0.181   4.070 -0.3202  1.2081  0.9458
  411DG      H7 9437   2.697   0.318   3.957 -0.8394 -0.2607 -1.0355
  411DG      H8 9438   2.818   0.197   3.926  1.9994  0.8802  0.6718
  411DG      O9 9439   2.994   0.538   4.459 -0.1303  0.4685 -0.6351
  411DG     O10 9440   2.859   0.322   4.094  0.3701 -0.1959  0.4172
  411DG     C11 9441   2.982   0.666   4.401 -0.3340  0.0160  0.4146
  411DG     C12 9442   2.916   0.425   4.021 -0.5498 -0.3910 -0.1310
  411DG     H13 9443   3.035   0.739   4.462 -1.0313 -0.5089  1.6780
  411DG     H14 9444   2.881   0.699   4.378 -0.4389 -0.6745 -0.1614
  411DG     H15 9445   2.836   0.497   4.006 -1.4592 -1.3696 -0.1047
  411DG     H16 9446   2.956   0.404   3.921  0.4996 -0.2554  0.2434
  411DG     C17 9447   3.041   0.658   4.262 -0.1245 -0.4559  0.1649
  411DG     C18 9448   3.032   0.487   4.092 -0.9380 -0.4795 -0.5909
  411DG     O19 9449   2.961   0.564   4.194  0.8792 -0.5002  0.0524
  411DG     H20 9450   3.145   0.626   4.267  0.2499  0.7961  4.5504
  411DG     H21 9451   3.025   0.750   4.207 -2.9312 -1.5967 -1.1418
  411DG     H22 9452   3.093   0.406   4.133  0.1883  0.5836 -0.0927
  411DG     H23 9453   3.087   0.552   4.023 -0.9308  1.0667  0.8093
  412DG      C1 9454   3.054   4.037   0.716 -0.3803  0.1792  0.8506
  412DG      C2 9455   3.409   4.424   1.020  0.2857  0.0324 -0.1119
  412DG      H3 9456   3.051   4.029   0.607  1.1508 -0.3389  0.8214
  412DG      H4 9457   2.973   3.970   0.743  0.6939 -1.6717 -0.2918
  412DG      H5 9458   3.145   3.986   0.748  0.1416 -0.3705 -1.3207
  412DG      H6 9459   3.390   4.328   0.971  0.4999  1.0088 -2.2264
  412DG      H7 9460   3.409   4.501   0.943 -2.6047 -0.2597 -0.4987
  412DG      H8 9461   3.509   4.424   1.064  1.6061  0.6026 -2.8834
  412DG      O9 9462   3.059   4.174   0.766 -0.1789  0.2807 -0.1319
  412DG     O10 9463   3.298   4.441   1.111 -0.6368  0.6181  0.3903
  412DG     C11 9464   3.123   4.264   0.680  0.4356 -0.4561 -0.5350
  412DG     C12 9465   3.180   4.507   1.055 -0.3481  0.3473 -0.0825
  412DG     H13 9466   3.077   4.249   0.583  0.8244 -1.2598 -0.6091
  412DG     H14 9467   3.225   4.229   0.663  0.9979  0.5762  0.6077
  412DG     H15 9468   3.208   4.607   1.023 -2.4474  0.5535 -1.5020
  412DG     H16 9469   3.117   4.525   1.142  1.2725  1.2199  0.9450
  412DG     C17 9470   3.102   4.409   0.710  0.5988 -0.6700  0.6976
  412DG     C18 9471   3.112   4.430   0.942 -0.5106  0.3631 -0.4759
  412DG     O19 9472   3.170   4.446   0.822 -0.3324 -0.4663 -0.2027
  412DG     H20 9473   2.995   4.426   0.717  0.9182  1.4763  0.9874
  412DG     H21 9474   3.123   4.466   0.620 -0.2231 -0.6291  0.5264
  412DG     H22 9475   3.093   4.328   0.975 -2.3963  1.0755  0.8694
  412DG     H23 9476   3.016   4.482   0.936  0.7653  3.1993  1.2535
  413DG      C1 9477   4.936   5.107   4.678 -0.0809 -0.0293 -0.3077
  413DG      C2 9478   5.749   5.383   4.703  0.1453  0.1967  0.2310
  413DG      H3 9479   4.998   5.026   4.640 -0.1050 -0.8394  1.2801
  413DG      H4 9480   4.915   5.173   4.594 -0.0221 -1.0346 -1.1262
  413DG      H5 9481   4.843   5.058   4.705  0.4107 -1.7692 -1.6072
  413DG      H6 9482   5.767   5.415   4.600 -2.3482 -2.5166 -1.2235
  413DG      H7 9483   5.766   5.470   4.767  1.7849  0.2540 -0.2464
  413DG      H8 9484   5.821   5.308   4.735  0.0669 -0.0513 -0.1634
  413DG      O9 9485   5.015   5.172   4.777  0.4907  0.1069 -0.6393
  413DG     O10 9486   5.617   5.333   4.706 -0.0985 -0.2920  0.2364
  413DG     C11 9487   5.136   5.217   4.726 -0.1454 -0.3210 -0.0460
  413DG     C12 9488   5.523   5.440   4.701 -0.1730 -0.4449 -0.2610
  413DG     H13 9489   5.121   5.282   4.640 -0.8633 -1.2392 -0.6330
  413DG     H14 9490   5.191   5.132   4.685  1.1986  0.8465 -0.7644
  413DG     H15 9491   5.557   5.520   4.635 -0.3198  0.8365  1.1425
  413DG     H16 9492   5.523   5.480   4.803 -0.4043 -1.5211  0.1748
  413DG     C17 9493   5.223   5.283   4.837  0.2801 -0.9656  0.0089
  413DG     C18 9494   5.381   5.383   4.685  0.5624  0.2901 -0.1281
  413DG     O19 9495   5.356   5.286   4.791  0.1835 -0.2937 -0.0961
  413DG     H20 9496   5.217   5.215   4.921  2.6202  0.7451  1.6887
  413DG     H21 9497   5.169   5.374   4.864  1.2502 -0.7740  1.3621
  413DG     H22 9498   5.305   5.461   4.692  1.2683  1.0673 -0.9932
  413DG     H23 9499   5.358   5.330   4.593 -0.3372  2.1554 -1.0318
  414DG      C1 9500   0.420   3.951   0.413 -0.0574  0.6610  0.4708
  414DG      C2 9501   0.666   3.395   0.250 -0.1017  0.2817 -0.3698
  414DG      H3 9502   0.419   4.060   0.415 -0.8959  0.6690  0.1970
  414DG      H4 9503   0.408   3.911   0.514  2.6518 -1.3839  0.0885
  414DG      H5 9504   0.334   3.915   0.356 -0.9722  1.2619  1.4331
  414DG      H6 9505   0.561   3.388   0.220  0.0399  1.0347 -1.0882
  414DG      H7 9506   0.718   3.316   0.197  0.7622 -0.3388  1.3455
  414DG      H8 9507   0.670   3.383   0.358  1.2378  1.0319 -0.3220
  414DG      O9 9508   0.546   3.905   0.361  0.3635 -0.4929 -0.4842
  414DG     O10 9509   0.720   3.526   0.217 -0.3318  0.4341 -0.3562
  414DG     C11 9510   0.653   3.947   0.443 -0.6911  0.4047 -0.8190
  414DG     C12 9511   0.851   3.552   0.265  0.0845 -0.1246  0.5357
  414DG     H13 9512   0.638   3.901   0.540  1.5180 -1.6692 -1.3518
  414DG     H14 9513   0.681   4.051   0.460  0.8522 -0.3949  2.3946
  414DG     H15 9514   0.924   3.515   0.193 -0.9711  0.2123 -0.7581
  414DG     H16 9515   0.872   3.503   0.360 -1.2037 -2.3151 -0.2162
  414DG     C17 9516   0.777   3.891   0.370 -0.2803 -0.0553 -0.2031
  414DG     C18 9517   0.869   3.699   0.281  0.5370  0.0774  0.3371
  414DG     O19 9518   0.771   3.747   0.362 -0.2137  0.1882  0.3837
  414DG     H20 9519   0.868   3.910   0.427 -0.1053  2.0035 -1.0784
  414DG     H21 9520   0.794   3.939   0.274 -1.0332 -0.5440 -0.5904
  414DG     H22 9521   0.969   3.721   0.319 -0.1579  2.0381  1.1668
  414DG     H23 9522   0.859   3.742   0.181 -2.8539 -2.3743 -0.5268
  415DG      C1 9523   3.951   5.145   0.956 -0.2494  0.7685  0.3189
  415DG      C2 9524   4.039   4.654   1.510  0.0026  0.4304 -0.3849
  415DG      H3 9525   3.850   5.186   0.951  0.0772  1.4126 -1.8039
  415DG      H4 9526   3.983   5.126   0.854 -0.2487 -1.8523  0.7422
  415DG      H5 9527   4.012   5.223   1.002 -0.0645  0.1410  1.1521
  415DG      H6 9528   4.120   4.634   1.440 -0.1887 -0.2874 -0.4025
  415DG      H7 9529   4.072   4.728   1.583  0.1374  0.7373 -0.7544
  415DG      H8 9530   4.009   4.563   1.563  2.1690 -0.4232 -0.5501
  415DG      O9 9531   3.942   5.033   1.039 -0.1425  0.3017  0.6436
  415DG     O10 9532   3.929   4.717   1.450  0.0343 -0.2617 -0.0888
  415DG     C11 9533   4.057   4.953   1.024  0.4242 -0.1553 -0.7590
  415DG     C12 9534   3.877   4.630   1.343  0.3017 -0.3695 -0.3069
  415DG     H13 9535   4.141   4.983   1.088 -1.2155  1.6113  0.6968
  415DG     H14 9536   4.076   4.938   0.918 -2.2290 -0.5632 -1.2440
  415DG     H15 9537   3.777   4.669   1.322 -0.9786 -2.9249  0.5891
  415DG     H16 9538   3.872   4.530   1.387 -0.0300  0.4422  1.5999
  415DG     C17 9539   4.033   4.801   1.061 -0.0071  0.2845 -0.2518
  415DG     C18 9540   3.956   4.648   1.212 -0.4534 -0.8219 -0.3217
  415DG     O19 9541   3.974   4.789   1.192  0.3268 -0.0121  0.0549
  415DG     H20 9542   4.128   4.750   1.070 -0.2938 -0.6376 -1.9754
  415DG     H21 9543   3.966   4.762   0.984 -1.2397  1.3762  0.2150
  415DG     H22 9544   4.047   4.590   1.203  0.5012  0.5457  0.2410
  415DG     H23 9545   3.894   4.601   1.135  1.3974 -1.3270 -1.5529
  416DG      C1 9546   4.375   4.487   3.216  0.1771 -0.9483  0.6584
  416DG      C2 9547   4.160   3.867   2.941  0.0810  0.5112  0.3024
  416DG      H3 9548   4.463   4.548   3.235 -0.0790 -0.9453  1.9457
  416DG      H4 9549   4.340   4.445   3.311  0.1179 -1.8556  0.2516
  416DG      H5 9550   4.298   4.552   3.174  0.0581 -0.5238  1.4971
  416DG      H6 9551   4.126   3.799   2.863 -0.3175 -0.7305  1.5256
  416DG      H7 9552   4.191   3.795   3.016  1.2672 -0.5620 -1.1390
  416DG      H8 9553   4.066   3.913   2.972 -0.9151  0.3876 -2.2856
  416DG      O9 9554   4.399   4.388   3.115  0.0435 -0.3054 -0.0683
  416DG     O10 9555   4.263   3.968   2.924  0.2150 -0.5171 -0.4145
  416DG     C11 9556   4.412   4.454   2.991  0.0343 -0.1651  0.3266
  416DG     C12 9557   4.264   4.038   2.795 -0.2269 -0.2673  0.5056
  416DG     H13 9558   4.478   4.541   2.987  1.5939 -1.2579 -4.2962
  416DG     H14 9559   4.310   4.492   2.979 -0.0681 -1.0024 -1.9140
  416DG     H15 9560   4.172   4.095   2.785  0.4033  0.5669 -1.0467
  416DG     H16 9561   4.275   3.974   2.708  0.7028  0.1116  0.3209
  416DG     C17 9562   4.446   4.356   2.871 -0.3635 -0.9092 -0.6081
  416DG     C18 9563   4.378   4.139   2.780 -0.1142 -0.0206 -0.3560
  416DG     O19 9564   4.355   4.246   2.879  0.0715  0.6404 -0.2747
  416DG     H20 9565   4.551   4.327   2.871 -0.3232 -0.7809  0.2951
  416DG     H21 9566   4.417   4.419   2.787 -0.1078  1.7743  1.2004
  416DG     H22 9567   4.475   4.092   2.796 -0.8225 -1.5573 -0.4299
  416DG     H23 9568   4.373   4.177   2.678 -3.3117  0.5502 -0.0696
  417DG      C1 9569   0.078   5.150   5.278 -0.0526 -0.3808  0.1269
  417DG      C2 9570  -0.021   5.742   5.561 -0.0057  0.5916 -0.6021
  417DG      H3 9571   0.090   5.223   5.198 -2.1214  0.6293  0.6693
  417DG      H4 9572  -0.023   5.110   5.267 -0.8010  1.4658 -0.0889
  417DG      H5 9573   0.155   5.073   5.267 -1.4935 -1.8743  0.1426
  417DG      H6 9574   0.022   5.829   5.612 -0.7903  1.1079 -0.8107
  417DG      H7 9575   0.003   5.757   5.456  0.9483 -1.1586 -0.6698
  417DG      H8 9576  -0.130   5.743   5.561 -0.1137 -1.5098 -3.3108
  417DG      O9 9577   0.098   5.223   5.398  0.9162 -0.0582 -0.5330
  417DG     O10 9578   0.030   5.609   5.583 -0.9641 -0.3793  0.1519
  417DG     C11 9579   0.038   5.143   5.502 -0.7656 -0.4629  0.0377
  417DG     C12 9580  -0.001   5.563   5.715 -0.1754 -0.0678 -0.1260
  417DG     H13 9581   0.088   5.046   5.498 -0.4318 -0.2920 -3.1580
  417DG     H14 9582  -0.070   5.133   5.505 -0.6173 -3.7236 -0.9238
  417DG     H15 9583  -0.108   5.547   5.709 -0.1731 -0.3666  0.5282
  417DG     H16 9584   0.021   5.645   5.783  0.5123  1.8281 -2.4852
  417DG     C17 9585   0.084   5.214   5.629  0.1349 -0.1689  0.4943
  417DG     C18 9586   0.073   5.427   5.739 -0.0733  0.1422 -0.4082
  417DG     O19 9587   0.034   5.347   5.625 -0.3498  0.6515  0.2898
  417DG     H20 9588   0.192   5.216   5.639  0.2199  0.2790 -0.3878
  417DG     H21 9589   0.038   5.177   5.721  1.2479  1.2360  1.6667
  417DG     H22 9590   0.180   5.445   5.746  0.2136 -0.6320 -2.3880
  417DG     H23 9591   0.033   5.380   5.829  1.0616  2.0061  1.1686
  418DG      C1 9592   2.942   1.782   2.636 -0.5167 -0.4143 -0.7964
  418DG      C2 9593   2.389   1.996   2.159 -0.3897 -0.1895 -0.4120
  418DG      H3 9594   3.015   1.716   2.588 -0.3606 -0.1973 -0.8577
  418DG      H4 9595   2.977   1.813   2.735 -0.7295  0.7085 -1.0558
  418DG      H5 9596   2.933   1.873   2.576  0.3830  0.1285 -0.1340
  418DG      H6 9597   2.416   2.080   2.223  0.5125 -1.6018  1.1458
  418DG      H7 9598   2.374   2.014   2.053  0.1591  0.4703 -0.3815
  418DG      H8 9599   2.287   1.965   2.183 -0.2902  0.5375  1.0714
  418DG      O9 9600   2.817   1.718   2.633  0.5821  0.7904  0.3669
  418DG     O10 9601   2.487   1.893   2.162  0.4089  0.9667  0.2963
  418DG     C11 9602   2.705   1.785   2.684  0.7761 -0.0794  0.0167
  418DG     C12 9603   2.482   1.820   2.281 -0.5054 -0.8360 -0.1812
  418DG     H13 9604   2.727   1.832   2.780  0.1178 -0.4350  0.3511
  418DG     H14 9605   2.624   1.712   2.692 -0.4505  1.3617  1.3708
  418DG     H15 9606   2.554   1.740   2.265  1.4926  0.8107  0.0198
  418DG     H16 9607   2.385   1.774   2.299  0.1183 -2.9445 -1.7316
  418DG     C17 9608   2.653   1.894   2.591  0.3174  0.0516  0.3682
  418DG     C18 9609   2.546   1.902   2.390  0.3258  0.3184  0.1526
  418DG     O19 9610   2.595   1.822   2.491 -0.0137 -0.4640 -0.0913
  418DG     H20 9611   2.737   1.956   2.557  0.6393 -0.6849 -0.2032
  418DG     H21 9612   2.586   1.959   2.647  0.6049 -0.7524  1.6682
  418DG     H22 9613   2.625   1.964   2.347 -0.0675  1.2524  0.7372
  418DG     H23 9614   2.468   1.967   2.430 -0.9899  0.4053 -2.3410
  419DG      C1 9615   1.382   3.006   1.688  0.7156 -0.3921 -0.0532
  419DG      C2 9616   1.222   2.488   1.137  0.4676  0.4419 -0.5172
  419DG      H3 9617   1.420   2.981   1.787 -1.3420  0.3691  0.9820
  419DG      H4 9618   1.284   3.052   1.697  0.6648 -0.6716  0.8445
  419DG      H5 9619   1.452   3.076   1.641  0.9592 -0.1601  0.6406
  419DG      H6 9620   1.121   2.525   1.153 -0.6109 -0.9622 -3.3565
  419DG      H7 9621   1.251   2.512   1.035 -0.2650 -0.1455 -0.8753
  419DG      H8 9622   1.220   2.380   1.151  2.0004  0.4480 -0.0845
  419DG      O9 9623   1.362   2.885   1.612 -0.2827  0.3335  0.2151
  419DG     O10 9624   1.317   2.548   1.217 -0.0502 -0.2091  0.2235
  419DG     C11 9625   1.486   2.810   1.605 -0.8750 -0.1458 -0.7139
  419DG     C12 9626   1.320   2.693   1.222 -0.3700 -0.0059 -0.5132
  419DG     H13 9627   1.544   2.805   1.697 -2.1403  0.9289  0.1897
  419DG     H14 9628   1.544   2.863   1.530  0.4861 -1.4110 -0.5835
  419DG     H15 9629   1.228   2.745   1.249  0.9469  1.9396  0.4846
  419DG     H16 9630   1.365   2.724   1.128 -0.1241 -0.2943 -0.4930
  419DG     C17 9631   1.458   2.660   1.561  0.0903  0.2446 -0.0340
  419DG     C18 9632   1.426   2.725   1.333 -0.3767 -0.2588  0.4902
  419DG     O19 9633   1.368   2.659   1.446 -0.6460 -0.4541  0.6354
  419DG     H20 9634   1.408   2.594   1.633  2.4305  0.6089  2.0803
  419DG     H21 9635   1.552   2.609   1.540 -0.0283  0.3430 -0.8453
  419DG     H22 9636   1.526   2.690   1.310 -0.5786  0.1257 -1.1212
  419DG     H23 9637   1.429   2.833   1.347  1.5556 -0.3337  0.9104
  420DG      C1 9638   3.816   4.494   2.767 -0.8782  0.7702  0.3480
  420DG      C2 9639   4.216   4.794   3.243 -0.0569  0.4374  0.2707
  420DG      H3 9640   3.813   4.439   2.673  4.3064 -1.9049  1.3423
  420DG      H4 9641   3.718   4.527   2.800  0.0502  1.2271  2.8402
  420DG      H5 9642   3.850   4.432   2.850  0.0110  0.8488  0.0604
  420DG      H6 9643   4.320   4.803   3.275  0.9396 -0.9572 -2.3033
  420DG      H7 9644   4.152   4.871   3.287 -0.8063  2.0230 -3.2586
  420DG      H8 9645   4.161   4.706   3.276  0.9792 -0.4185 -0.2154
  420DG      O9 9646   3.889   4.617   2.754 -0.3643 -0.4721  0.1087
  420DG     O10 9647   4.220   4.796   3.101  0.0810  0.4328 -0.6735
  420DG     C11 9648   4.016   4.617   2.698 -0.5917  0.1283 -0.6668
  420DG     C12 9649   4.164   4.905   3.029 -0.0659  0.0164 -1.3395
  420DG     H13 9650   4.008   4.599   2.591  2.1709  1.5018 -1.1921
  420DG     H14 9651   4.065   4.529   2.740  0.3460  1.0828  0.3215
  420DG     H15 9652   4.207   5.000   3.063 -2.4571  0.8680 -0.4794
  420DG     H16 9653   4.056   4.908   3.045  0.2129 -0.6281  1.0382
  420DG     C17 9654   4.092   4.735   2.729 -0.0544  0.0649  0.2519
  420DG     C18 9655   4.183   4.875   2.881  0.8076 -0.3854  0.1924
  420DG     O19 9656   4.093   4.766   2.868  0.4464 -0.4567  0.3554
  420DG     H20 9657   4.049   4.810   2.663 -1.6876 -2.2938 -1.5299
  420DG     H21 9658   4.192   4.731   2.685 -0.6378 -1.6656 -1.0254
  420DG     H22 9659   4.164   4.964   2.822 -0.5323 -0.6087  0.2622
  420DG     H23 9660   4.283   4.842   2.852  0.7490 -0.3108 -0.0936
  421DG      C1 9661   2.177   4.495   3.602  0.0020 -0.2249  0.0946
  421DG      C2 9662   2.192   5.052   3.191 -0.3430  0.4518  0.3605
  421DG      H3 9663   2.223   4.408   3.649  0.0245  0.2583  1.0021
  421DG      H4 9664   2.219   4.521   3.505  2.6705 -0.8487  0.9945
  421DG      H5 9665   2.070   4.484   3.584 -0.8600  1.1174  3.5376
  421DG      H6 9666   2.110   5.019   3.128 -1.1273  1.4006  0.8567
  421DG      H7 9667   2.183   5.150   3.237 -0.7327  0.9158 -0.6841
  421DG      H8 9668   2.280   5.059   3.128 -0.5726 -0.7645 -0.1256
  421DG      O9 9669   2.202   4.594   3.694 -0.8322  0.0554 -0.3612
  421DG     O10 9670   2.227   4.958   3.288 -0.2058  0.4277  0.3325
  421DG     C11 9671   2.152   4.720   3.657  0.2745 -0.4556 -0.1477
  421DG     C12 9672   2.353   4.978   3.351 -0.0676  0.1257  0.0585
  421DG     H13 9673   2.120   4.773   3.747  0.4548  0.7409 -0.7649
  421DG     H14 9674   2.065   4.713   3.591  1.2944 -0.5009 -1.5411
  421DG     H15 9675   2.336   5.036   3.442 -0.0883 -2.3302  1.7141
  421DG     H16 9676   2.425   5.025   3.284  0.8128 -1.6376 -0.2853
  421DG     C17 9677   2.243   4.816   3.586  0.4471  0.2554  1.0145
  421DG     C18 9678   2.400   4.840   3.404  0.3078 -0.1149 -0.8326
  421DG     O19 9679   2.299   4.756   3.470  0.6113 -0.2388 -0.6735
  421DG     H20 9680   2.331   4.846   3.643  0.3885  0.4961  0.9788
  421DG     H21 9681   2.190   4.903   3.548 -1.2871 -0.8841  0.7297
  421DG     H22 9682   2.445   4.777   3.328 -1.0809 -1.7259 -0.3614
  421DG     H23 9683   2.489   4.857   3.465  2.4267  0.4191 -3.8388
  422DG      C1 9684   1.507   4.547   1.719 -0.3502 -0.2783  0.7521
  422DG      C2 9685   1.197   4.230   1.006 -0.0125  0.0202 -1.2571
  422DG      H3 9686   1.430   4.625   1.716  1.1744  1.2662  0.4948
  422DG      H4 9687   1.585   4.581   1.787 -0.2993  2.8375 -0.7049
  422DG      H5 9688   1.465   4.452   1.752  2.5882 -2.3162 -0.9314
  422DG      H6 9689   1.114   4.299   1.018  1.5689  2.0486 -1.4586
  422DG      H7 9690   1.222   4.222   0.900  0.6694  0.4494 -1.1328
  422DG      H8 9691   1.178   4.128   1.040  0.2099  0.0075 -1.1680
  422DG      O9 9692   1.559   4.519   1.590  0.3004  0.1079  0.0044
  422DG     O10 9693   1.316   4.277   1.075 -0.3245  0.7052  1.2571
  422DG     C11 9694   1.459   4.495   1.493 -0.4005  0.2280  0.0290
  422DG     C12 9695   1.365   4.400   1.023 -0.3206 -0.4204  0.4172
  422DG     H13 9696   1.414   4.594   1.500  1.2529  1.1458 -1.6091
  422DG     H14 9697   1.387   4.417   1.517 -0.7314  0.4278 -0.3000
  422DG     H15 9698   1.295   4.483   1.033  2.9489  2.3340  3.5675
  422DG     H16 9699   1.381   4.383   0.917  1.2108 -1.0407  0.7254
  422DG     C17 9700   1.534   4.469   1.356  0.2854  0.0631  0.8180
  422DG     C18 9701   1.484   4.448   1.108 -0.0260  0.2592  0.8651
  422DG     O19 9702   1.435   4.470   1.241  0.3333 -0.1476  0.0879
  422DG     H20 9703   1.581   4.370   1.353 -0.9467 -0.5235 -0.1439
  422DG     H21 9704   1.605   4.548   1.334 -0.0486 -0.3452 -2.0224
  422DG     H22 9705   1.544   4.357   1.106  0.2125  0.4301 -0.0871
  422DG     H23 9706   1.532   4.542   1.079 -2.2260  1.3120  0.4506
  423DG      C1 9707   4.207   1.579   5.411 -0.0291 -0.1213  0.3774
  423DG      C2 9708   4.409   1.113   6.041 -0.8200  0.0612 -0.2138
  423DG      H3 9709   4.194   1.574   5.303  1.4024  1.3749  0.0961
  423DG      H4 9710   4.305   1.532   5.423  0.3199  0.3237 -0.6246
  423DG      H5 9711   4.200   1.682   5.446  1.4386 -0.1879  0.9257
  423DG      H6 9712   4.330   1.103   6.115 -1.0157 -1.3417 -0.5721
  423DG      H7 9713   4.451   1.014   6.022 -0.3252  0.5304 -1.6614
  423DG      H8 9714   4.492   1.173   6.078 -0.5396  0.5391 -1.5922
  423DG      O9 9715   4.114   1.485   5.450 -0.7774  0.1005  0.1816
  423DG     O10 9716   4.365   1.162   5.919 -0.2286 -0.4788  0.2440
  423DG     C11 9717   4.114   1.465   5.595  0.3052  0.2914  0.6057
  423DG     C12 9718   4.256   1.083   5.858 -0.1473  0.0814  0.0877
  423DG     H13 9719   4.017   1.497   5.633 -0.4596 -0.5363 -0.5885
  423DG     H14 9720   4.192   1.524   5.643 -0.4550  4.1320 -2.3818
  423DG     H15 9721   4.171   1.091   5.925  1.2173  1.5503  1.7084
  423DG     H16 9722   4.287   0.978   5.858 -1.8096 -0.4862  2.4360
  423DG     C17 9723   4.151   1.320   5.605  0.1958  0.0140 -0.0381
  423DG     C18 9724   4.229   1.142   5.723  0.1832 -0.5950  0.8522
  423DG     O19 9725   4.184   1.279   5.742  0.4630  0.6361 -0.0216
  423DG     H20 9726   4.239   1.312   5.541  1.4496  1.7387  1.3486
  423DG     H21 9727   4.082   1.251   5.555 -0.6132  0.6683  0.1656
  423DG     H22 9728   4.323   1.138   5.668  0.7179 -0.6292  1.7548
  423DG     H23 9729   4.157   1.070   5.684 -0.6683  0.3075  0.7307
  424DG      C1 9730   0.962   2.917   2.389  0.1958 -0.9096 -0.4563
  424DG      C2 9731   0.698   3.130   1.808 -0.2346 -0.8869  0.0734
  424DG      H3 9732   1.070   2.924   2.376  0.0862 -0.2260 -1.0696
  424DG      H4 9733   0.935   2.847   2.468 -1.5326  0.2857  0.0789
  424DG      H5 9734   0.922   3.014   2.419 -0.5849 -1.0413 -1.0308
  424DG      H6 9735   0.597   3.138   1.769  0.1277  1.9281 -0.4466
  424DG      H7 9736   0.715   3.220   1.867  0.5977 -0.0182 -1.4279
  424DG      H8 9737   0.771   3.134   1.728 -1.1042 -0.0640 -0.6943
  424DG      O9 9738   0.889   2.881   2.271 -0.1891 -0.2184  0.0106
  424DG     O10 9739   0.718   3.018   1.888 -0.3329  0.0852 -0.3586
  424DG     C11 9740   0.916   2.752   2.227  0.2949  0.1466  0.1304
  424DG     C12 9741   0.733   2.898   1.817 -0.3783  0.4757 -0.1387
  424DG     H13 9742   0.911   2.697   2.321  0.9223  1.2499  0.8277
  424DG     H14 9743   1.021   2.750   2.197 -0.0827 -2.0971 -1.2435
  424DG     H15 9744   0.832   2.888   1.772  1.4296 -0.7564  3.7197
  424DG     H16 9745   0.656   2.897   1.740  0.1392 -0.5022 -0.6693
  424DG     C17 9746   0.810   2.708   2.122 -0.2106  0.1184  0.2640
  424DG     C18 9747   0.714   2.785   1.913  0.1147 -0.5138 -0.9492
  424DG     O19 9748   0.824   2.799   2.006  0.7434 -0.3429 -0.1909
  424DG     H20 9749   0.709   2.724   2.160 -0.6160 -0.9246 -0.3331
  424DG     H21 9750   0.821   2.603   2.097  0.4961 -0.1135  1.5155
  424DG     H22 9751   0.621   2.818   1.959  1.0606  2.2423 -0.8218
  424DG     H23 9752   0.710   2.691   1.858 -1.2597 -0.6671 -0.6205
  425DG      C1 9753   2.511   4.090   3.816  0.0072 -0.1430  0.7630
  425DG      C2 9754   3.226   3.903   4.095  0.1088  0.4536 -0.5265
  425DG      H3 9755   2.480   4.008   3.752 -0.6159  0.0116  0.8576
  425DG      H4 9756   2.478   4.181   3.765 -2.0488 -0.8515  0.7144
  425DG      H5 9757   2.459   4.087   3.912 -0.4406 -0.3250  0.5218
  425DG      H6 9758   3.185   3.945   4.187 -1.0049 -1.3564 -0.1677
  425DG      H7 9759   3.251   3.800   4.119 -1.9360  0.3355  1.4381
  425DG      H8 9760   3.317   3.958   4.070  1.6797 -1.6027  0.4143
  425DG      O9 9761   2.650   4.086   3.828 -0.8119  0.4116 -0.2981
  425DG     O10 9762   3.129   3.917   3.985  0.0039 -0.1333  0.0474
  425DG     C11 9763   2.720   4.045   3.714 -0.2050  0.1907  0.7712
  425DG     C12 9764   2.995   3.892   4.012  0.1741 -0.4467 -0.1887
  425DG     H13 9765   2.668   4.098   3.634 -2.3693 -3.2513 -0.3202
  425DG     H14 9766   2.714   3.943   3.676 -0.5609 -0.2622  1.9967
  425DG     H15 9767   2.958   3.959   4.091  0.3837  0.8821 -1.1845
  425DG     H16 9768   2.987   3.788   4.042 -0.2995 -0.5561 -0.6781
  425DG     C17 9769   2.869   4.092   3.714  0.3445  0.1010  0.0504
  425DG     C18 9770   2.920   3.911   3.878 -0.3505  0.6534 -0.1989
  425DG     O19 9771   2.921   4.047   3.838  0.0435  0.3500 -0.0994
  425DG     H20 9772   2.877   4.200   3.704 -1.6818  0.2600 -0.2354
  425DG     H21 9773   2.932   4.053   3.634  1.1603  0.5180  0.4760
  425DG     H22 9774   2.981   3.862   3.803  0.2144  0.9236  0.0782
  425DG     H23 9775   2.826   3.856   3.885 -0.4343  0.8797  0.5958
  426DG      C1 9776   0.080   2.471   0.047  0.2675  0.0715 -0.3721
  426DG      C2 9777   0.558   2.764   0.382 -0.7672 -0.2633 -0.3911
  426DG      H3 9778   0.040   2.476   0.148 -0.0711 -0.3146 -0.4827
  426DG      H4 9779   0.115   2.368   0.038 -1.3577 -0.5237 -0.2028
  426DG      H5 9780   0.009   2.483  -0.034 -0.3263 -1.3428 -0.1003
  426DG      H6 9781   0.579   2.677   0.445  1.5741  0.7809  0.4188
  426DG      H7 9782   0.657   2.809   0.382 -0.5992 -0.5999  0.4141
  426DG      H8 9783   0.484   2.832   0.424  0.2985  1.3813 -1.0714
  426DG      O9 9784   0.189   2.561   0.040  0.6120 -0.3500  0.2041
  426DG     O10 9785   0.525   2.723   0.252  0.7238  0.0333 -0.9281
  426DG     C11 9786   0.275   2.530  -0.069  0.0019 -0.1194  0.0283
  426DG     C12 9787   0.528   2.845   0.173 -0.0327 -0.0786 -0.5208
  426DG     H13 9788   0.218   2.501  -0.158  1.3347  2.5354 -1.8320
  426DG     H14 9789   0.338   2.442  -0.053  2.0296  1.0094 -1.3282
  426DG     H15 9790   0.624   2.897   0.178  0.5073 -1.1676  1.8751
  426DG     H16 9791   0.457   2.919   0.210  0.7344  1.1790 -1.4766
  426DG     C17 9792   0.356   2.653  -0.095  0.4546  0.1887  0.8451
  426DG     C18 9793   0.478   2.816   0.033 -0.4573 -0.0306  0.0350
  426DG     O19 9794   0.399   2.699   0.031 -0.0382  0.3796  0.7749
  426DG     H20 9795   0.294   2.720  -0.155  1.1367 -1.3750 -1.7944
  426DG     H21 9796   0.437   2.621  -0.161  1.3757  1.0375  1.5456
  426DG     H22 9797   0.414   2.900   0.005 -2.4205 -1.7139 -0.7978
  426DG     H23 9798   0.562   2.803  -0.035 -1.4344  1.8575 -1.6397
  427DG      C1 9799   1.527   3.979   1.029 -0.2190  0.2768  0.1449
  427DG      C2 9800   1.372   3.897   1.772  0.9322 -0.8194  0.0978
  427DG      H3 9801   1.437   3.921   1.006  0.3459 -1.0280  1.0877
  427DG      H4 9802   1.607   3.946   0.963 -1.8058 -0.8486 -1.2976
  427DG      H5 9803   1.504   4.078   0.991 -0.2721  0.6843  1.1986
  427DG      H6 9804   1.326   3.814   1.718 -0.8262  0.5138 -0.5706
  427DG      H7 9805   1.399   3.859   1.871  1.8172 -0.9392 -0.1816
  427DG      H8 9806   1.295   3.974   1.785  1.4125 -0.4420  0.7597
  427DG      O9 9807   1.566   3.980   1.167 -0.1265  0.4865 -0.5864
  427DG     O10 9808   1.481   3.967   1.708 -0.2505 -0.8313 -0.3662
  427DG     C11 9809   1.456   3.996   1.252 -0.2598  0.3609 -0.0726
  427DG     C12 9810   1.595   3.889   1.665  0.1558 -1.0141 -0.0232
  427DG     H13 9811   1.388   3.911   1.248 -0.2777  0.4178 -1.8827
  427DG     H14 9812   1.387   4.075   1.223  1.0694  2.0901  1.2318
  427DG     H15 9813   1.564   3.790   1.633 -2.0092 -0.8931  1.4962
  427DG     H16 9814   1.661   3.868   1.750  0.9020  1.4359  0.0950
  427DG     C17 9815   1.506   4.023   1.394  0.1314  0.6368 -0.1009
  427DG     C18 9816   1.673   3.961   1.549  0.2960  0.7117 -0.1368
  427DG     O19 9817   1.611   3.937   1.428  0.3663  0.9364 -0.0150
  427DG     H20 9818   1.421   4.017   1.463 -0.5749 -0.4319 -1.0246
  427DG     H21 9819   1.544   4.124   1.402  0.6197  0.4385  0.1200
  427DG     H22 9820   1.690   4.066   1.574 -1.4016  0.8725  0.5267
  427DG     H23 9821   1.772   3.918   1.536  1.1850  2.7691 -0.4952
  428DG      C1 9822   1.981   0.585   0.307  0.5001  0.3511  1.1981
  428DG      C2 9823   2.652   1.106   0.150  0.3881  0.5763  0.6389
  428DG      H3 9824   1.886   0.599   0.358 -0.3908 -1.2863  0.0655
  428DG      H4 9825   2.026   0.496   0.352  1.7424  1.6681  2.7123
  428DG      H5 9826   1.956   0.555   0.205 -0.5371 -0.9630  1.8128
  428DG      H6 9827   2.583   1.170   0.095  1.0156  1.2562  0.6319
  428DG      H7 9828   2.738   1.166   0.178  0.8756 -1.2503  3.5325
  428DG      H8 9829   2.683   1.031   0.077  0.5307 -0.5376  1.8077
  428DG      O9 9830   2.067   0.699   0.309 -0.1439  0.5496  0.0160
  428DG     O10 9831   2.595   1.037   0.261 -0.2411  0.0142 -0.3921
  428DG     C11 9832   2.124   0.712   0.444 -0.8101  0.2459 -0.0738
  428DG     C12 9833   2.491   0.946   0.236  1.1314  0.0929  0.4863
  428DG     H13 9834   2.169   0.619   0.479 -0.3564  0.6464  0.4069
  428DG     H14 9835   2.050   0.732   0.521 -0.0951  0.9752  0.4390
  428DG     H15 9836   2.528   0.857   0.185  0.7728  1.1374 -1.6974
  428DG     H16 9837   2.412   0.988   0.173 -0.1067 -2.9878 -0.1665
  428DG     C17 9838   2.224   0.823   0.450 -0.5852 -0.1944  1.2483
  428DG     C18 9839   2.424   0.909   0.372 -0.0195 -0.1238  0.0624
  428DG     O19 9840   2.314   0.830   0.334 -0.0187  0.0774  0.2672
  428DG     H20 9841   2.282   0.811   0.541 -0.8762  0.0764  1.4729
  428DG     H21 9842   2.174   0.919   0.452  2.1269  1.3716 -0.5614
  428DG     H22 9843   2.498   0.860   0.436  1.1034 -0.0935 -1.1630
  428DG     H23 9844   2.392   0.998   0.427 -0.7063 -0.6207  0.4883
  429DG      C1 9845   4.087   4.782   4.581  0.3361  0.1047 -0.3459
  429DG      C2 9846   3.691   4.859   4.142 -0.2072  0.6984 -0.4199
  429DG      H3 9847   4.085   4.753   4.686 -0.1057  2.2828  0.3002
  429DG      H4 9848   4.077   4.891   4.580  0.6312  0.1369 -2.4047
  429DG      H5 9849   4.187   4.760   4.545  0.1504  2.4116 -2.5102
  429DG      H6 9850   3.726   4.880   4.244  0.5947  0.9840 -0.7457
  429DG      H7 9851   3.764   4.912   4.080  2.3787  0.7356  2.3733
  429DG      H8 9852   3.591   4.901   4.143 -0.7297 -0.5162 -0.1633
  429DG      O9 9853   3.983   4.718   4.517  0.1457  0.2102  0.2920
  429DG     O10 9854   3.686   4.722   4.098  0.2018  0.5385 -0.0423
  429DG     C11 9855   4.011   4.596   4.457  0.1775  0.9427  0.1962
  429DG     C12 9856   3.813   4.667   4.060 -0.3236  0.9072 -0.0691
  429DG     H13 9857   4.052   4.521   4.525 -1.4904  0.4577  0.7176
  429DG     H14 9858   4.071   4.607   4.367 -1.2103 -1.0668 -1.0665
  429DG     H15 9859   3.882   4.749   4.039  1.0455 -0.2080 -0.0487
  429DG     H16 9860   3.800   4.629   3.959 -0.2505  2.3677 -0.6498
  429DG     C17 9861   3.875   4.536   4.413 -0.6125 -1.0111  0.5439
  429DG     C18 9862   3.860   4.565   4.165 -0.8537  0.3057  0.4221
  429DG     O19 9863   3.840   4.616   4.296 -0.3744  0.0136  0.2211
  429DG     H20 9864   3.808   4.556   4.496  1.1069  1.8936  1.3798
  429DG     H21 9865   3.887   4.432   4.382 -0.3220 -0.4101 -1.5830
  429DG     H22 9866   3.810   4.469   4.157  0.3249 -0.1917 -1.8065
  429DG     H23 9867   3.963   4.531   4.148 -2.3529 -4.0413 -1.2418
  430DG      C1 9868   4.016   0.143   4.057 -0.0576 -0.1939 -0.2215
  430DG      C2 9869   4.822   0.342   3.861 -0.5629 -1.0406 -0.4909
  430DG      H3 9870   3.915   0.153   4.095 -1.3106  0.4866 -3.4569
  430DG      H4 9871   4.086   0.103   4.130  0.8664  0.3204 -0.8051
  430DG      H5 9872   3.998   0.080   3.971  1.4764 -1.1516  0.1116
  430DG      H6 9873   4.879   0.367   3.771 -0.7687  0.2771 -0.2828
  430DG      H7 9874   4.890   0.346   3.946 -1.3289  0.6988  0.0823
  430DG      H8 9875   4.785   0.242   3.840  0.8773 -1.4932 -0.9617
  430DG      O9 9876   4.062   0.275   4.024 -0.0977 -0.1686 -0.3119
  430DG     O10 9877   4.730   0.440   3.896  0.0592  0.6544 -0.0218
  430DG     C11 9878   4.156   0.280   3.925 -0.1157 -0.3166  0.3481
  430DG     C12 9879   4.606   0.412   3.833  0.4532 -0.4021  0.0956
  430DG     H13 9880   4.141   0.380   3.885  2.1041 -0.6135 -1.4616
  430DG     H14 9881   4.130   0.226   3.834  1.1385 -1.3461  0.5868
  430DG     H15 9882   4.613   0.380   3.730 -0.4877  1.7518 -0.7033
  430DG     H16 9883   4.543   0.501   3.839  1.6233  0.4863 -0.5115
  430DG     C17 9884   4.301   0.260   3.968  0.8757  0.0135 -0.1349
  430DG     C18 9885   4.530   0.312   3.915  0.5497 -0.3026  0.2140
  430DG     O19 9886   4.389   0.309   3.872  0.4567  0.0505  0.0989
  430DG     H20 9887   4.328   0.155   3.984  2.9447  0.1500 -2.2551
  430DG     H21 9888   4.321   0.315   4.060  2.6621 -0.4601 -0.2031
  430DG     H22 9889   4.558   0.208   3.900  1.4494  0.0673 -0.8103
  430DG     H23 9890   4.545   0.337   4.020  0.9198 -1.5056  0.4655
  431DG      C1 9891   0.559   5.169   1.057 -0.0498  0.5091  0.6682
  431DG      C2 9892   0.520   5.782   1.119  0.2474 -0.0937  0.5447
  431DG      H3 9893   0.537   5.075   1.007  0.6788  1.6624 -2.0090
  431DG      H4 9894   0.550   5.171   1.166  2.3075  3.1504  0.9494
  431DG      H5 9895   0.660   5.195   1.025 -0.6257  0.3822 -1.3856
  431DG      H6 9896   0.482   5.882   1.137 -0.0940 -0.2930  0.9288
  431DG      H7 9897   0.527   5.726   1.212  0.7723 -1.2861 -0.1766
  431DG      H8 9898   0.624   5.786   1.084  0.2491  1.0904  0.6615
  431DG      O9 9899   0.468   5.267   1.004  0.0114  0.4581 -0.7794
  431DG     O10 9900   0.428   5.706   1.033 -0.2629  0.2939  0.1404
  431DG     C11 9901   0.334   5.238   1.007 -0.8597 -0.3571  0.1027
  431DG     C12 9902   0.295   5.708   1.086 -1.0738 -0.2074 -0.2243
  431DG     H13 9903   0.306   5.206   1.107  4.0984 -1.0139  1.5245
  431DG     H14 9904   0.314   5.155   0.940  1.8452 -0.3499 -0.8178
  431DG     H15 9905   0.251   5.806   1.064 -0.1474  0.3262  0.2336
  431DG     H16 9906   0.296   5.685   1.192  0.3860 -1.1361 -0.4154
  431DG     C17 9907   0.247   5.358   0.973 -0.2844  0.4263  0.2546
  431DG     C18 9908   0.225   5.595   1.009 -0.7557 -0.7862  0.3594
  431DG     O19 9909   0.297   5.473   1.030 -0.3421 -0.6838 -0.2114
  431DG     H20 9910   0.139   5.351   0.986 -0.0395 -1.7057  1.5752
  431DG     H21 9911   0.245   5.369   0.865  1.1647 -0.8364  0.0687
  431DG     H22 9912   0.120   5.586   1.038 -0.8077 -1.4872 -0.0327
  431DG     H23 9913   0.232   5.616   0.902 -1.0718  3.1310  0.9424
  432DG      C1 9914   4.859   3.658   2.039  0.6585 -0.0398 -0.2366
  432DG      C2 9915   5.290   3.764   1.584 -0.5175  0.1833  0.2103
  432DG      H3 9916   4.795   3.598   2.104 -1.0203  1.8431 -0.0386
  432DG      H4 9917   4.822   3.760   2.024 -1.5979 -0.5483  1.2323
  432DG      H5 9918   4.946   3.673   2.103  0.2923  1.1352  0.0165
  432DG      H6 9919   5.352   3.675   1.577  0.0540  0.6046 -0.2535
  432DG      H7 9920   5.290   3.812   1.486 -2.1316  1.1193  0.6419
  432DG      H8 9921   5.327   3.839   1.654 -0.7913 -0.2401  0.8149
  432DG      O9 9922   4.915   3.590   1.924  0.1509  0.7016  0.3173
  432DG     O10 9923   5.161   3.736   1.628 -0.0517  0.1939 -0.1894
  432DG     C11 9924   4.811   3.524   1.852 -0.1419 -0.1449  0.3137
  432DG     C12 9925   5.087   3.675   1.522 -0.4520  0.1328 -0.1741
  432DG     H13 9926   4.745   3.595   1.802  0.3997 -0.4827 -0.8931
  432DG     H14 9927   4.757   3.461   1.923 -0.0928  1.0734  1.4699
  432DG     H15 9928   5.130   3.584   1.478  0.1754  0.1145  0.4557
  432DG     H16 9929   5.075   3.756   1.451  2.9457  1.4733  0.5706
  432DG     C17 9930   4.868   3.455   1.729 -0.1601  0.6325 -0.7472
  432DG     C18 9931   4.953   3.627   1.586 -0.0290 -0.2739  0.3964
  432DG     O19 9932   4.981   3.527   1.683 -0.3786  0.4958 -0.1897
  432DG     H20 9933   4.799   3.420   1.652  1.0926 -0.8374 -1.2516
  432DG     H21 9934   4.911   3.361   1.764 -0.5032  1.9054  3.7664
  432DG     H22 9935   4.893   3.710   1.622 -2.6307 -1.4599 -0.9349
  432DG     H23 9936   4.902   3.575   1.505  0.6974 -0.6597  0.1701
  433DG      C1 9937   3.525   5.084   4.466  0.1130  0.4541 -0.1340
  433DG      C2 9938   3.787   5.860   4.343 -0.7431  0.8715  0.2330
  433DG      H3 9939   3.538   5.127   4.565 -0.5020  2.0265 -0.6959
  433DG      H4 9940   3.598   5.003   4.462  1.2424  1.4579 -0.3885
  433DG      H5 9941   3.422   5.047   4.465  0.9851 -2.1828 -0.0880
  433DG      H6 9942   3.824   5.909   4.252  1.1776 -0.9186 -0.0242
  433DG      H7 9943   3.711   5.909   4.403 -0.3774  1.5543  0.1545
  433DG      H8 9944   3.868   5.848   4.415  0.6285 -1.1624 -1.5216
  433DG      O9 9945   3.557   5.163   4.356  0.4580  0.0698 -0.2363
  433DG     O10 9946   3.743   5.727   4.297  0.3312 -0.3758 -0.4950
  433DG     C11 9947   3.562   5.302   4.374 -0.6754  0.3099 -0.0028
  433DG     C12 9948   3.637   5.727   4.198 -0.3012 -0.6468  0.5372
  433DG     H13 9949   3.648   5.319   4.440 -0.1464 -0.9892 -0.3311
  433DG     H14 9950   3.467   5.340   4.410 -0.7316  1.0474 -0.9097
  433DG     H15 9951   3.677   5.794   4.122  0.4658  0.3647  1.7737
  433DG     H16 9952   3.548   5.774   4.239  0.4230 -1.5328  3.3882
  433DG     C17 9953   3.593   5.358   4.233 -0.5206 -0.4675 -0.0705
  433DG     C18 9954   3.607   5.582   4.142 -0.3021 -1.1667  0.4586
  433DG     O19 9955   3.582   5.494   4.252 -0.2898  0.1169 -0.2895
  433DG     H20 9956   3.520   5.326   4.158 -0.2138 -0.5139 -0.3487
  433DG     H21 9957   3.697   5.352   4.201  0.0034 -0.4293  1.5210
  433DG     H22 9958   3.521   5.598   4.076  0.6973  3.5707 -0.0976
  433DG     H23 9959   3.682   5.544   4.073  0.7010  0.4747  0.5896
  434DG      C1 9960   0.262   2.328   4.488  0.1263  0.0882 -0.5555
  434DG      C2 9961   0.303   3.118   4.639 -0.3910  0.7111 -0.2114
  434DG      H3 9962   0.288   2.305   4.385 -2.0860  3.2693 -1.9854
  434DG      H4 9963   0.157   2.355   4.490 -0.4012 -1.8577  0.0457
  434DG      H5 9964   0.288   2.240   4.547 -1.2486 -1.1220 -1.6840
  434DG      H6 9965   0.387   3.188   4.631  1.0333 -0.8426  0.4751
  434DG      H7 9966   0.255   3.127   4.541  1.1426  2.1825 -0.8827
  434DG      H8 9967   0.228   3.165   4.703 -0.4245 -0.3184  0.5274
  434DG      O9 9968   0.349   2.435   4.523 -0.2466 -0.1037 -0.8920
  434DG     O10 9969   0.336   2.985   4.689  0.0737  0.3277  0.3201
  434DG     C11 9970   0.333   2.481   4.658  0.0274  0.1473  0.0162
  434DG     C12 9971   0.453   2.944   4.621  0.0523 -0.1304  0.2560
  434DG     H13 9972   0.341   2.388   4.714  1.6865 -1.5654 -2.8173
  434DG     H14 9973   0.233   2.520   4.674 -0.2068 -0.3914 -0.1164
  434DG     H15 9974   0.526   3.016   4.658  0.1145 -0.6368  1.1502
  434DG     H16 9975   0.438   2.937   4.513  0.7296 -2.1587  0.2364
  434DG     C17 9976   0.447   2.580   4.694 -0.3770  0.2472 -0.6799
  434DG     C18 9977   0.498   2.806   4.676  0.1293 -0.8293  0.2982
  434DG     O19 9978   0.413   2.707   4.639  0.1428  0.1887  0.3853
  434DG     H20 9979   0.545   2.536   4.675 -0.5546 -1.2032  1.4530
  434DG     H21 9980   0.442   2.600   4.801 -1.6367  0.2994 -0.7362
  434DG     H22 9981   0.601   2.789   4.645 -0.6440 -1.0745 -2.3642
  434DG     H23 9982   0.491   2.807   4.785 -1.4834 -1.4922  0.2301
  435DG      C1 9983   0.757   0.119   2.591  0.4780 -0.0071 -0.7398
  435DG      C2 9984   0.776  -0.456   2.228  0.0845 -0.0249 -0.6261
  435DG      H3 9985   0.658   0.095   2.631  0.8105  0.4170  0.3603
  435DG      H4 9986   0.725   0.153   2.492 -0.6808  0.3578 -0.2627
  435DG      H5 9987   0.795   0.207   2.642  1.2157 -0.4752 -0.4618
  435DG      H6 9988   0.672  -0.464   2.258  0.7530  1.5934  2.6490
  435DG      H7 9989   0.793  -0.393   2.140  0.4562  1.8583  0.7287
  435DG      H8 9990   0.815  -0.557   2.213 -1.9641 -0.5939 -2.7141
  435DG      O9 9991   0.854   0.016   2.590 -0.1353  0.2473 -0.3241
  435DG     O10 9992   0.838  -0.392   2.337 -0.6011  0.2736  0.3523
  435DG     C11 9993   0.868  -0.055   2.708 -0.8656 -0.0646 -0.2525
  435DG     C12 9994   0.813  -0.454   2.463 -0.1044  0.3057 -0.1580
  435DG     H13 9995   0.772  -0.087   2.749 -0.2613 -0.3249  1.0121
  435DG     H14 9996   0.918   0.011   2.779  0.2117 -1.7482  0.6304
  435DG     H15 9997   0.847  -0.556   2.445  1.4636  0.7977 -0.1097
  435DG     H16 9998   0.709  -0.450   2.496  0.1629  0.3692  0.6938
  435DG     C17 9999   0.944  -0.188   2.673  0.4691  0.3823  0.1125
  435DG     C1810000   0.911  -0.388   2.558 -0.2698  1.1765  0.6926
  435DG     O1910001   0.861  -0.259   2.583 -0.0190 -0.2703 -0.5205
  435DG     H2010002   0.962  -0.253   2.758  0.6682  0.1948 -0.0725
  435DG     H2110003   1.037  -0.171   2.618  0.7187 -0.6081  0.2069
  435DG     H2210004   0.916  -0.446   2.650  0.1755  0.0582 -0.0297
  435DG     H2310005   1.009  -0.377   2.512 -0.2064  1.5142  0.9029
  436DG      C110006   3.595   3.831   4.135 -0.1782  0.3107 -0.1459
  436DG      C210007   4.163   4.258   4.475  0.3098 -0.0664  0.1608
  436DG      H310008   3.658   3.782   4.061  0.6293 -0.7281  1.1990
  436DG      H410009   3.552   3.922   4.093  2.0268  1.2476 -0.4812
  436DG      H510010   3.522   3.763   4.178 -0.2870  0.7172  0.3203
  436DG      H610011   4.187   4.352   4.426 -0.4743  2.2445  3.8961
  436DG      H710012   4.185   4.287   4.577  0.0528 -1.3700  0.6075
  436DG      H810013   4.222   4.171   4.444  1.5518  1.0543 -0.7181
  436DG      O910014   3.688   3.870   4.239  0.3445  0.3844 -0.1421
  436DG     O1010015   4.028   4.234   4.468 -0.3282 -0.3603 -0.5983
  436DG     C1110016   3.792   3.960   4.190 -0.0697  0.2417 -0.1182
  436DG     C1210017   3.987   4.130   4.555 -0.0306  0.0257 -0.1269
  436DG     H1310018   3.760   4.050   4.138 -1.0484  0.2644  0.4823
  436DG     H1410019   3.856   3.908   4.119 -0.3004  1.1399 -0.9957
  436DG     H1510020   3.992   4.181   4.652  0.8715 -0.2120 -0.0380
  436DG     H1610021   4.060   4.049   4.563 -1.9103 -1.8969 -1.3152
  436DG     C1710022   3.890   3.991   4.305 -0.2004  0.6202  0.2650
  436DG     C1810023   3.845   4.083   4.527  0.2194 -0.5033  0.3960
  436DG     O1910024   3.806   4.073   4.395 -0.1007  0.0875  0.4157
  436DG     H2010025   3.973   4.057   4.280 -2.2342  3.1891 -0.1840
  436DG     H2110026   3.923   3.900   4.356  1.3885  0.1445 -1.4994
  436DG     H2210027   3.821   3.985   4.568  0.6748 -0.8403 -0.1185
  436DG     H2310028   3.775   4.155   4.569  1.7742  0.5319  1.3359
  437DG      C110029   5.160   3.000   0.181 -0.2764  0.0708  0.0147
  437DG      C210030   5.370   3.674   0.694 -0.5605  0.1496 -0.0718
  437DG      H310031   5.241   3.037   0.119 -2.0357 -0.1947 -2.6024
  437DG      H410032   5.070   3.044   0.137 -0.6228 -2.2633 -1.8193
  437DG      H510033   5.150   2.893   0.161 -1.8965  0.1996 -0.0461
  437DG      H610034   5.450   3.714   0.632 -0.2187 -2.1070 -1.1997
  437DG      H710035   5.282   3.738   0.690 -1.4679 -1.1130 -1.7174
  437DG      H810036   5.403   3.663   0.798 -0.8279  0.6440  0.0677
  437DG      O910037   5.195   3.033   0.322  0.4157 -0.7802 -0.0308
  437DG     O1010038   5.332   3.541   0.659  0.3934 -0.3123  0.0703
  437DG     C1110039   5.205   3.173   0.357  0.5298 -0.0383  0.2760
  437DG     C1210040   5.423   3.443   0.681 -0.4728  0.4253  0.3427
  437DG     H1310041   5.116   3.235   0.345  0.0238 -0.6871  0.6311
  437DG     H1410042   5.280   3.212   0.289  0.5279  0.0215  0.3077
  437DG     H1510043   5.452   3.434   0.785  0.2672 -0.3675  0.0880
  437DG     H1610044   5.514   3.441   0.620 -0.5320 -0.8174  0.2685
  437DG     C1710045   5.259   3.169   0.493  1.0197  0.1690 -0.2563
  437DG     C1810046   5.341   3.312   0.651 -0.2261 -0.4247 -0.7267
  437DG     O1910047   5.272   3.308   0.531  0.0028 -1.1269  0.0377
  437DG     H2010048   5.352   3.112   0.494  0.2697 -1.0971 -0.2611
  437DG     H2110049   5.192   3.121   0.565 -2.0793  3.1967 -0.8453
  437DG     H2210050   5.411   3.230   0.667  0.2033  0.3207  1.6396
  437DG     H2310051   5.274   3.289   0.734  0.7213  0.2300  0.2578
  438DG      C110052   0.757   3.591   1.930 -0.4292  0.5757 -1.2057
  438DG      C210053   0.142   3.658   2.338 -0.8339  1.2795  0.1217
  438DG      H310054   0.781   3.626   1.829  2.7322 -0.3609 -0.8642
  438DG      H410055   0.853   3.574   1.979 -1.7039  2.4071  2.3145
  438DG      H510056   0.708   3.662   1.997 -1.9364 -1.4791 -0.0218
  438DG      H610057   0.216   3.652   2.417  0.1356 -0.5985 -0.8492
  438DG      H710058   0.113   3.762   2.324 -0.2670  1.5738  1.1099
  438DG      H810059   0.053   3.608   2.376 -0.2152  0.9829  1.2216
  438DG      O910060   0.661   3.484   1.919  0.1396 -0.2837  0.3920
  438DG     O1010061   0.202   3.605   2.217  0.5209  0.1416 -0.3529
  438DG     C1110062   0.547   3.497   1.831 -0.2011 -0.3621  0.3920
  438DG     C1210063   0.260   3.478   2.229 -0.0188  0.9213  0.4156
  438DG     H1310064   0.569   3.450   1.735  0.2895 -2.0753  1.3074
  438DG     H1410065   0.518   3.601   1.815 -1.9849 -0.9199 -0.2369
  438DG     H1510066   0.195   3.407   2.280 -1.8394  0.4835 -2.2938
  438DG     H1610067   0.349   3.476   2.292 -0.3572 -1.7662  0.9233
  438DG     C1710068   0.423   3.426   1.900 -0.3991  0.5677 -0.7886
  438DG     C1810069   0.291   3.420   2.095 -0.4349 -0.1520 -0.3271
  438DG     O1910070   0.391   3.484   2.024 -0.1777  0.3579 -0.0743
  438DG     H2010071   0.439   3.319   1.916  1.6245  1.0536  0.9139
  438DG     H2110072   0.334   3.429   1.837 -1.2241  0.1361  0.3214
  438DG     H2210073   0.316   3.315   2.112 -0.5733  0.0664  1.3723
  438DG     H2310074   0.200   3.444   2.040  0.1224  0.1059 -1.1559
  439DG      C110075   2.727   3.173   0.257 -0.1220  0.6350  0.5647
  439DG      C210076   2.488   3.676   0.666  0.5276 -0.4678 -0.2705
  439DG      H310077   2.822   3.121   0.246  1.4865  3.5485 -0.5460
  439DG      H410078   2.695   3.188   0.154  1.7650 -0.3588 -0.2072
  439DG      H510079   2.657   3.109   0.310  0.1993  0.1328  0.3840
  439DG      H610080   2.487   3.688   0.775 -0.7384  0.0649 -0.3260
  439DG      H710081   2.472   3.775   0.623  3.0611 -0.1100 -0.5271
  439DG      H810082   2.404   3.611   0.642 -0.3791  0.6381 -0.1879
  439DG      O910083   2.733   3.289   0.337 -0.0921  0.3878  0.3493
  439DG     O1010084   2.604   3.605   0.641  0.3423 -0.3427 -0.1773
  439DG     C1110085   2.840   3.370   0.294  0.8369 -0.8433  0.8212
  439DG     C1210086   2.711   3.681   0.590  0.4288  0.5855 -0.1448
  439DG     H1310087   2.835   3.388   0.187 -1.1441 -1.0583  0.8307
  439DG     H1410088   2.930   3.314   0.321  0.9650 -0.0770  2.0502
  439DG     H1510089   2.731   3.764   0.658  0.3200  0.1919  0.3735
  439DG     H1610090   2.683   3.726   0.495 -1.0453 -0.3545 -0.1694
  439DG     C1710091   2.841   3.506   0.361 -0.5858 -0.4064  0.3609
  439DG     C1810092   2.836   3.592   0.589  0.1830  0.1637 -0.3010
  439DG     O1910093   2.830   3.483   0.496  0.2034 -0.0816 -0.2571
  439DG     H2010094   2.763   3.573   0.326  0.3589 -1.1048 -3.6555
  439DG     H2110095   2.939   3.552   0.347 -1.0394  1.1877  2.1844
  439DG     H2210096   2.923   3.652   0.561  1.0838 -1.4500 -1.1510
  439DG     H2310097   2.862   3.548   0.685  0.6719  0.9224 -0.0804
  440DG      C110098   0.771   5.042   4.003 -0.6258  0.1489 -0.2993
  440DG      C210099   0.785   4.946   4.631 -0.1389  0.8136  0.4278
  440DG      H310100   0.872   5.083   4.013  1.3555 -3.7494 -2.3439
  440DG      H410101   0.686   5.107   4.028 -1.7335 -0.4448 -2.3187
  440DG      H510102   0.759   5.015   3.898 -1.2762 -2.5306  0.3951
  440DG      H610103   0.713   5.010   4.581  0.1417  1.7978  1.2373
  440DG      H710104   0.747   4.896   4.720  0.0868  1.7726  1.0757
  440DG      H810105   0.871   5.005   4.663 -0.5833  2.1983 -0.8554
  440DG      O910106   0.757   4.922   4.077 -0.1036 -0.0865 -0.1735
  440DG     O1010107   0.816   4.848   4.532 -0.1222 -0.3565  0.0355
  440DG     C1110108   0.848   4.820   4.053 -1.0970  0.0943  0.4093
  440DG     C1210109   0.716   4.746   4.503 -0.3460  0.0030  0.3358
  440DG     H1310110   0.950   4.858   4.045 -0.9447 -0.6286 -1.8403
  440DG     H1410111   0.823   4.775   3.957 -0.5804  0.1170  0.2623
  440DG     H1510112   0.628   4.806   4.478 -0.0927 -0.0779 -0.8114
  440DG     H1610113   0.687   4.688   4.591 -0.5336  2.2723  1.8576
  440DG     C1710114   0.828   4.712   4.164 -0.5817 -0.0169  0.5311
  440DG     C1810115   0.766   4.673   4.385  0.0422 -0.1745  0.1867
  440DG     O1910116   0.786   4.766   4.283 -0.3526 -0.0940 -0.2368
  440DG     H2010117   0.920   4.656   4.178 -0.9694 -1.1297 -1.0702
  440DG     H2110118   0.765   4.632   4.125 -0.4814  0.8715 -1.5925
  440DG     H2210119   0.860   4.630   4.422  0.6364 -0.2071 -1.2979
  440DG     H2310120   0.685   4.608   4.354 -1.3480  2.3335 -1.7870
  441DG      C110121   1.460   0.247   2.065 -0.6608 -0.4676  0.0320
  441DG      C210122   1.994   0.659   2.051 -0.4964  0.0593 -0.0345
  441DG      H310123   1.373   0.193   2.029  0.0438 -1.2550 -0.5252
  441DG      H410124   1.432   0.306   2.153  0.4462 -0.9116  0.7091
  441DG      H510125   1.539   0.178   2.095 -0.8829 -0.1904  1.3400
  441DG      H610126   2.055   0.578   2.091  2.0616  1.5221 -0.7648
  441DG      H710127   2.068   0.727   2.011 -0.7817  0.1346 -0.4376
  441DG      H810128   1.937   0.701   2.134 -2.4938 -1.9284 -0.2986
  441DG      O910129   1.510   0.330   1.967  0.1433 -0.5483  0.4100
  441DG     O1010130   1.893   0.616   1.960  0.2874  0.6919  0.2011
  441DG     C1110131   1.559   0.267   1.857 -0.7470 -0.5241  0.3302
  441DG     C1210132   1.938   0.586   1.834  0.5515 -0.4772 -0.0006
  441DG     H1310133   1.471   0.233   1.802 -0.0102  0.6634 -1.6861
  441DG     H1410134   1.617   0.180   1.888  2.1385  2.5867  4.6844
  441DG     H1510135   2.023   0.518   1.846  0.8820 -0.4256 -1.7159
  441DG     H1610136   1.982   0.671   1.781  0.2287  1.8438  3.1457
  441DG     C1710137   1.636   0.365   1.764 -0.0497  0.1514 -0.1879
  441DG     C1810138   1.810   0.537   1.751  0.0917 -0.1411 -0.2018
  441DG     O1910139   1.748   0.427   1.825  0.0404 -0.4608  0.6031
  441DG     H2010140   1.564   0.438   1.729 -1.2223  0.9609  3.4762
  441DG     H2110141   1.677   0.312   1.678  0.3724  0.1124  0.0372
  441DG     H2210142   1.725   0.605   1.748  0.3374  0.1747 -0.1121
  441DG     H2310143   1.835   0.500   1.651 -1.0377  2.6406 -1.6156
  442DG      C110144   3.666   0.941   0.954 -0.7445  0.0436 -0.4993
  442DG      C210145   3.436   0.524   0.484  0.7599  0.3065 -0.2110
  442DG      H310146   3.655   0.883   1.045  1.0464  2.4730  1.3953
  442DG      H410147   3.679   1.046   0.980  0.3868 -0.2706  0.2375
  442DG      H510148   3.762   0.909   0.915  1.3922  1.3027  3.2753
  442DG      H610149   3.542   0.524   0.456  0.5414  0.1656 -1.0835
  442DG      H710150   3.426   0.448   0.561  2.0227  0.1288 -0.2008
  442DG      H810151   3.366   0.502   0.404 -1.1504  1.5192  1.0507
  442DG      O910152   3.556   0.914   0.871  0.1457  0.2272  0.1236
  442DG     O1010153   3.419   0.651   0.549 -0.3172  0.4006 -0.1043
  442DG     C1110154   3.436   0.982   0.911  0.6847 -0.6095  0.3080
  442DG     C1210155   3.284   0.676   0.575  0.4860 -1.0106  0.2035
  442DG     H1310156   3.456   1.083   0.945  0.5993 -0.4003 -0.2450
  442DG     H1410157   3.387   0.923   0.989 -0.2543  0.2150  0.3642
  442DG     H1510158   3.245   0.606   0.649 -0.0367 -0.0413  0.8692
  442DG     H1610159   3.226   0.656   0.485  2.1402 -0.1223 -1.1271
  442DG     C1710160   3.367   0.993   0.773 -0.2405 -0.0787  0.2026
  442DG     C1810161   3.264   0.825   0.621  0.1078 -0.9171  0.2492
  442DG     O1910162   3.358   0.853   0.726 -0.3283 -0.1045 -0.2243
  442DG     H2010163   3.427   1.063   0.715  1.7505 -0.1238  2.0642
  442DG     H2110164   3.269   1.031   0.802  0.4373  0.2049  2.3058
  442DG     H2210165   3.282   0.889   0.534 -0.3350  2.5095  2.4569
  442DG     H2310166   3.163   0.848   0.652 -0.7804 -4.3469  0.2894
  443DG      C110167   0.270   2.606   0.945 -0.0282  0.2363 -0.0204
  443DG      C210168   0.553   2.618   1.584  0.3447  0.2058 -0.6020
  443DG      H310169   0.354   2.554   0.899 -0.9439 -0.0333 -1.4817
  443DG      H410170   0.276   2.707   0.904  1.3175  0.4924  0.7471
  443DG      H510171   0.187   2.551   0.900  0.5316 -1.0639  0.5028
  443DG      H610172   0.514   2.563   1.669  1.6916 -0.8205 -0.6151
  443DG      H710173   0.625   2.558   1.528  2.2366  0.1328  1.7549
  443DG      H810174   0.614   2.704   1.613  0.0827  0.2540 -0.1958
  443DG      O910175   0.264   2.622   1.086  0.5201 -1.1221  0.1672
  443DG     O1010176   0.449   2.664   1.496 -0.2786 -0.0067 -0.2029
  443DG     C1110177   0.134   2.648   1.134  0.8693  0.8884  0.4503
  443DG     C1210178   0.371   2.766   1.549 -0.6449 -0.0478  0.9748
  443DG     H1310179   0.075   2.563   1.168 -0.3768  1.0173 -1.2599
  443DG     H1410180   0.071   2.698   1.060  1.5490  0.5126 -0.3964
  443DG     H1510181   0.431   2.845   1.594  3.1864 -1.1014 -1.8096
  443DG     H1610182   0.303   2.728   1.625 -0.0989 -2.3051  0.4136
  443DG     C1710183   0.142   2.744   1.253  0.3688  0.5049 -0.2441
  443DG     C1810184   0.277   2.821   1.439 -0.9854  0.8040  0.2674
  443DG     O1910185   0.244   2.715   1.347 -0.6234  0.1475  0.3553
  443DG     H2010186   0.053   2.749   1.316 -0.1296 -0.6648 -0.8057
  443DG     H2110187   0.162   2.845   1.216  2.8594 -0.6539 -2.3728
  443DG     H2210188   0.191   2.872   1.483 -1.4824 -0.7029  1.1394
  443DG     H2310189   0.331   2.903   1.392 -0.2773  0.9471  1.3002
  444DG      C110190   2.312   4.748   1.779  0.2911 -0.5738  0.1492
  444DG      C210191   2.584   4.868   2.518 -0.0370 -0.0562 -0.6698
  444DG      H310192   2.319   4.856   1.783 -1.2667 -0.4364 -0.1625
  444DG      H410193   2.206   4.734   1.757  0.3522 -0.0405 -0.5137
  444DG      H510194   2.356   4.709   1.687  1.7196 -1.0400  1.0038
  444DG      H610195   2.604   4.803   2.604 -0.4265 -1.2191 -1.4319
  444DG      H710196   2.667   4.939   2.514 -0.8226  1.0270  1.2809
  444DG      H810197   2.489   4.920   2.526 -0.3469 -0.6998  0.0187
  444DG      O910198   2.369   4.677   1.886 -0.3787 -0.4470 -0.1819
  444DG     O1010199   2.590   4.795   2.400  0.6276  0.0937  0.6182
  444DG     C1110200   2.502   4.722   1.923 -0.3369 -0.8006 -0.4934
  444DG     C1210201   2.502   4.675   2.402 -0.8673 -0.6017 -0.2931
  444DG     H1310202   2.507   4.829   1.942  0.2824 -0.9599  0.3112
  444DG     H1410203   2.569   4.722   1.837 -0.4096  1.0103 -0.5840
  444DG     H1510204   2.398   4.706   2.399 -1.3433 -1.7267  2.3741
  444DG     H1610205   2.520   4.621   2.495 -0.8380 -0.4877 -0.2324
  444DG     C1710206   2.560   4.644   2.041  0.8531 -0.4571 -0.4238
  444DG     C1810207   2.541   4.608   2.273  0.0162 -0.3423  0.0581
  444DG     O1910208   2.484   4.673   2.160 -0.4995  0.4007 -0.4420
  444DG     H2010209   2.667   4.659   2.051  0.4868  2.7843 -0.2060
  444DG     H2110210   2.551   4.539   2.017  1.0583 -0.6063  0.1329
  444DG     H2210211   2.647   4.601   2.250 -0.2548 -0.4935 -1.2762
  444DG     H2310212   2.509   4.503   2.271 -1.1273  0.0019 -0.8057
  445DG      C110213   3.418   0.675   1.851  0.2295  0.3861  0.2431
  445DG      C210214   3.951   1.158   1.742  0.4399  0.5759  0.0244
  445DG      H310215   3.438   0.669   1.744 -0.4743  0.5141  0.0957
  445DG      H410216   3.310   0.673   1.837  0.5232 -0.0444 -2.6454
  445DG      H510217   3.440   0.579   1.898 -0.0012 -0.3090 -1.0114
  445DG      H610218   4.010   1.241   1.781 -0.4994  1.9485 -1.3726
  445DG      H710219   4.014   1.070   1.724 -0.8837 -0.5441  0.6903
  445DG      H810220   3.926   1.196   1.643 -0.2579  1.5475  0.5574
  445DG      O910221   3.461   0.783   1.934  0.4991  0.6379  0.2413
  445DG     O1010222   3.829   1.135   1.808  0.2679  0.3338 -0.2137
  445DG     C1110223   3.490   0.904   1.869  0.0803 -0.1276 -0.4085
  445DG     C1210224   3.733   1.244   1.811 -0.2452  0.0512  0.8150
  445DG     H1310225   3.394   0.954   1.852  0.7650  2.0510  1.5209
  445DG     H1410226   3.543   0.892   1.774  0.6361  0.7002 -0.2166
  445DG     H1510227   3.673   1.242   1.720  1.4203  0.1293 -0.3231
  445DG     H1610228   3.781   1.342   1.807 -2.6624  1.2997  0.0554
  445DG     C1710229   3.558   1.008   1.957 -0.4578  1.2407 -0.8949
  445DG     C1810230   3.635   1.237   1.930  0.0937 -0.3774  0.8562
  445DG     O1910231   3.534   1.134   1.908 -0.2521 -0.0004 -0.1078
  445DG     H2010232   3.665   0.986   1.952 -0.4445  1.3767 -1.1855
  445DG     H2110233   3.529   0.994   2.062 -0.8777 -2.5508 -1.3657
  445DG     H2210234   3.687   1.225   2.025  1.1400 -2.7835  0.0629
  445DG     H2310235   3.580   1.331   1.943 -1.6624 -1.4298  1.4357
  446DG      C110236   2.289   3.420   4.146 -0.0918  0.6898  0.0502
  446DG      C210237   2.040   2.850   4.412 -0.1233  0.4157 -0.0685
  446DG      H310238   2.233   3.490   4.207 -1.3421  0.3787 -0.7092
  446DG      H410239   2.236   3.372   4.064  2.7739 -1.9065 -0.5214
  446DG      H510240   2.370   3.462   4.085 -1.1241 -1.9509 -3.5296
  446DG      H610241   1.976   2.876   4.328 -0.3413 -0.8206 -0.3127
  446DG      H710242   2.021   2.743   4.414 -1.1740  0.5615  2.8152
  446DG      H810243   2.000   2.895   4.503  1.0565  0.4963  0.4330
  446DG      O910244   2.328   3.311   4.227  0.4930  0.4801  0.3874
  446DG     O1010245   2.166   2.890   4.368  0.3601  0.1393 -0.0901
  446DG     C1110246   2.387   3.209   4.144 -0.7719 -0.3110 -0.3096
  446DG     C1210247   2.264   2.896   4.476  0.7184  0.5963 -0.5209
  446DG     H1310248   2.467   3.254   4.085 -0.2644  0.5705  0.9769
  446DG     H1410249   2.309   3.169   4.080  0.4292 -0.0761 -1.9863
  446DG     H1510250   2.294   2.795   4.505  0.1290  0.3258 -0.8226
  446DG     H1610251   2.223   2.947   4.563  0.2803 -0.6478  0.0238
  446DG     C1710252   2.442   3.096   4.227  0.0099 -0.0298  0.7094
  446DG     C1810253   2.385   2.955   4.407  0.3486 -0.5207  0.7477
  446DG     O1910254   2.351   3.065   4.332  0.4621 -0.3427  0.1584
  446DG     H2010255   2.538   3.119   4.273  0.7971 -2.1974  0.2725
  446DG     H2110256   2.458   3.013   4.158 -1.1072 -0.0304  0.4255
  446DG     H2210257   2.452   2.995   4.483 -1.9908  2.3866  1.4632
  446DG     H2310258   2.424   2.872   4.348 -1.5462 -0.2180 -1.0293
  447DG      C110259   0.912   0.234   1.707 -0.0909  0.7555 -0.0148
  447DG      C210260   1.035   0.617   2.319 -0.1128 -0.2273 -0.0242
  447DG      H310261   0.906   0.218   1.599  1.0477  1.4145 -0.1871
  447DG      H410262   0.830   0.297   1.742 -0.3195  0.1991  0.4620
  447DG      H510263   0.907   0.132   1.745 -0.3901  0.4181 -0.9387
  447DG      H610264   1.033   0.681   2.230  1.0591  0.1517  0.2089
  447DG      H710265   0.936   0.595   2.358  0.2306  0.2508  1.1773
  447DG      H810266   1.089   0.682   2.388 -0.1559 -1.2436  0.9953
  447DG      O910267   1.036   0.288   1.739 -0.8323 -0.2083 -0.0123
  447DG     O1010268   1.102   0.499   2.288  0.2569  0.5168  0.5876
  447DG     C1110269   1.072   0.280   1.876  0.2442  0.0110  0.5387
  447DG     C1210270   1.231   0.521   2.246 -0.1293  0.5854 -0.0937
  447DG     H1310271   1.092   0.180   1.914  0.6165  0.7868  2.4794
  447DG     H1410272   0.982   0.305   1.932 -0.5296 -0.4546 -0.4617
  447DG     H1510273   1.303   0.452   2.291 -0.6763  1.1079  1.6306
  447DG     H1610274   1.261   0.620   2.281  1.3969  0.3506 -0.6641
  447DG     C1710275   1.177   0.376   1.916  0.3020 -0.5703 -0.0676
  447DG     C1810276   1.235   0.519   2.091 -0.3335  0.0962 -0.1849
  447DG     O1910277   1.182   0.388   2.056 -0.2348  0.2339  0.7296
  447DG     H2010278   1.156   0.471   1.868 -0.9931 -1.2923 -0.9910
  447DG     H2110279   1.271   0.352   1.867  0.8833  0.4512  0.5143
  447DG     H2210280   1.172   0.598   2.052 -1.0387 -1.1672 -1.7532
  447DG     H2310281   1.337   0.532   2.053  0.5532 -0.9699  1.6879
  448DG      C110282   4.571   1.278   3.227 -0.2577  0.1921 -0.3202
  448DG      C210283   4.215   0.908   3.171 -0.2901 -0.2963  0.1819
  448DG      H310284   4.483   1.243   3.279  0.8759 -0.3991  1.2770
  448DG      H410285   4.664   1.263   3.283  0.0013  0.6996 -0.6064
  448DG      H510286   4.581   1.206   3.146  0.3455  1.2687 -1.2489
  448DG      H610287   4.255   0.849   3.254  1.6952 -1.6451 -1.6171
  448DG      H710288   4.117   0.868   3.147 -0.0575 -1.2059  0.6916
  448DG      H810289   4.276   0.880   3.085  1.7517 -3.0243  2.3197
  448DG      O910290   4.570   1.416   3.190  0.1005  0.2590  0.1069
  448DG     O1010291   4.213   1.045   3.194  0.1787 -0.3401 -0.2595
  448DG     C1110292   4.498   1.441   3.068  0.0649  0.2857 -0.1505
  448DG     C1210293   4.146   1.112   3.083  0.0412 -0.2304 -0.1826
  448DG     H1310294   4.538   1.378   2.989 -0.6242  0.7495 -0.8836
  448DG     H1410295   4.520   1.544   3.038  0.7974  0.3228  0.4697
  448DG     H1510296   4.039   1.092   3.087 -0.3271  0.7012 -3.0342
  448DG     H1610297   4.173   1.078   2.983 -1.6940  0.6235 -0.9872
  448DG     C1710298   4.341   1.426   3.080  0.7546 -0.1642  0.0774
  448DG     C1810299   4.165   1.261   3.095  0.4781  0.7275  0.1008
  448DG     O1910300   4.301   1.286   3.066  0.0271 -0.2477  0.0835
  448DG     H2010301   4.294   1.480   2.998  0.1348  0.7174  1.0026
  448DG     H2110302   4.305   1.472   3.172 -0.6869  0.3953 -0.7392
  448DG     H2210303   4.099   1.302   3.018 -0.5153 -0.6793  0.1687
  448DG     H2310304   4.133   1.292   3.194 -1.2583 -1.9245  0.4726
  449DG      C110305   3.559   4.370   4.050 -0.1254 -0.3490  0.2907
  449DG      C210306   2.876   4.649   4.220 -0.3590  0.3307  0.0151
  449DG      H310307   3.557   4.401   4.155 -0.4750  2.3113 -0.4480
  449DG      H410308   3.635   4.430   4.001  0.1415 -0.9530 -0.0429
  449DG      H510309   3.595   4.268   4.035  0.0904 -0.0090 -1.6829
  449DG      H610310   2.844   4.614   4.318 -0.9439 -1.6566 -0.8367
  449DG      H710311   2.960   4.718   4.228 -1.7006  2.0904 -0.1589
  449DG      H810312   2.789   4.699   4.178 -0.1131 -0.7791 -1.9267
  449DG      O910313   3.433   4.381   3.986 -0.1206  0.1988  0.0964
  449DG     O1010314   2.917   4.539   4.146  0.5320  0.2529  0.0566
  449DG     C1110315   3.340   4.273   4.014 -0.0341  0.2171 -0.1933
  449DG     C1210316   2.958   4.575   4.018 -0.0902  0.4031  0.3797
  449DG     H1310317   3.328   4.270   4.122  0.0514  1.5013 -0.1316
  449DG     H1410318   3.365   4.172   3.983 -0.6456 -0.1083  0.3517
  449DG     H1510319   3.027   4.659   4.016  0.7444 -0.2817 -0.8666
  449DG     H1610320   2.873   4.611   3.961 -0.3090  3.0494  2.2011
  449DG     C1710321   3.207   4.312   3.945 -0.4235 -0.6212 -0.2715
  449DG     C1810322   3.008   4.443   3.952 -0.8848 -0.1625  0.3404
  449DG     O1910323   3.128   4.407   4.012 -0.0400 -0.4818 -0.3446
  449DG     H2010324   3.147   4.221   3.942  2.3077 -2.5917  0.8162
  449DG     H2110325   3.230   4.356   3.848 -2.1703 -0.1982 -0.5276
  449DG     H2210326   2.932   4.366   3.968  0.9734 -1.9726  0.8891
  449DG     H2310327   3.029   4.459   3.846 -0.2561  3.1990  0.8564
  450DG      C110328   1.337   4.912   1.903 -0.3587 -0.7734 -0.2643
  450DG      C210329   0.617   4.875   1.930 -0.3870  0.1948  0.0338
  450DG      H310330   1.358   4.870   2.002 -2.2898  1.0436  1.0051
  450DG      H410331   1.270   4.990   1.939 -0.1999 -1.1292  0.8576
  450DG      H510332   1.426   4.957   1.859 -0.5319 -1.9579 -1.8754
  450DG      H610333   0.573   4.945   2.001 -0.9371 -1.9988  1.9840
  450DG      H710334   0.569   4.883   1.833  1.2381  0.2433 -0.8014
  450DG      H810335   0.604   4.776   1.973 -1.3062 -0.9942 -2.7925
  450DG      O910336   1.284   4.818   1.820 -0.2452 -0.2102  0.0358
  450DG     O1010337   0.751   4.913   1.905  0.1481  0.5367  0.0300
  450DG     C1110338   1.255   4.863   1.690 -0.8865 -0.1755 -0.3704
  450DG     C1210339   0.831   4.816   1.833 -0.2307 -0.0286  0.0391
  450DG     H1310340   1.219   4.785   1.623 -3.0575  0.5932 -0.1949
  450DG     H1410341   1.347   4.893   1.639 -0.6222 -1.0972 -0.4473
  450DG     H1510342   0.786   4.806   1.734 -0.4798 -1.3985  0.2615
  450DG     H1610343   0.827   4.714   1.873  1.0739  0.5857  1.8981
  450DG     C1710344   1.145   4.975   1.680  0.0190 -0.2721 -0.4156
  450DG     C1810345   0.978   4.863   1.822  0.8615 -0.2713  0.3968
  450DG     O1910346   1.008   4.932   1.694 -0.0087  0.0986  0.2136
  450DG     H2010347   1.148   5.023   1.582  0.0308 -1.4240 -0.9950
  450DG     H2110348   1.172   5.050   1.755  1.6104  0.0793 -1.2910
  450DG     H2210349   0.998   4.914   1.917 -0.9231 -1.7051  1.6253
  450DG     H2310350   1.039   4.773   1.826  1.6928  0.2734  0.3703
  451DG      C110351   1.986   2.440   1.495  0.4379  0.3319 -0.6546
  451DG      C210352   2.022   3.252   1.844 -0.6719  0.0168 -0.8190
  451DG      H310353   1.986   2.461   1.388  2.5120 -0.2818 -0.8070
  451DG      H410354   1.909   2.363   1.499  2.0696 -1.3223  0.5842
  451DG      H510355   2.081   2.400   1.530 -0.3667  0.0758  1.3704
  451DG      H610356   2.128   3.238   1.823  0.3522 -0.2219  3.5868
  451DG      H710357   1.977   3.298   1.756 -0.3538  2.9114  0.4162
  451DG      H810358   2.014   3.323   1.926 -2.1964 -0.2649 -0.6935
  451DG      O910359   1.937   2.557   1.562  0.0346  0.0952 -0.0546
  451DG     O1010360   1.976   3.124   1.875  0.1113  0.3321 -0.1180
  451DG     C1110361   1.978   2.557   1.701  0.2991 -0.4433 -0.2285
  451DG     C1210362   2.004   3.034   1.765 -0.0075  0.1156  0.3150
  451DG     H1310363   2.086   2.555   1.711  0.2915  1.0892  0.4331
  451DG     H1410364   1.938   2.469   1.752 -2.3320  0.1851 -1.0277
  451DG     H1510365   2.111   3.024   1.746  0.2519 -0.0048  1.7042
  451DG     H1610366   1.969   3.077   1.671 -0.5169  0.7067  0.7606
  451DG     C1710367   1.920   2.680   1.774  0.4466  0.4063  0.8503
  451DG     C1810368   1.926   2.907   1.808 -0.1479  0.2850  0.6557
  451DG     O1910369   1.983   2.799   1.737  0.2237  0.3486  0.8949
  451DG     H2010370   1.915   2.667   1.883  1.1730 -0.1080  0.8231
  451DG     H2110371   1.813   2.683   1.750  0.2900 -0.6866  1.3634
  451DG     H2210372   1.948   2.899   1.914  0.9594 -1.8865  0.3135
  451DG     H2310373   1.818   2.919   1.803 -0.3083 -1.2981 -0.6499
  452DG      C110374   0.827   2.525   4.724 -0.1804  0.4597 -0.4559
  452DG      C210375   0.668   3.233   4.513  0.6270 -0.0542 -0.2264
  452DG      H310376   0.890   2.458   4.782  1.6663  1.2299 -1.4914
  452DG      H410377   0.800   2.475   4.631 -0.0904 -2.0170  0.7647
  452DG      H510378   0.737   2.556   4.779 -0.9264 -0.9968 -0.8228
  452DG      H610379   0.603   3.179   4.444  0.4434  1.7147 -1.4972
  452DG      H710380   0.602   3.294   4.574 -2.0155 -3.3836  0.5160
  452DG      H810381   0.735   3.300   4.458 -1.2581  0.0963 -2.4564
  452DG      O910382   0.892   2.650   4.697  0.1619 -0.1849  0.1081
  452DG     O1010383   0.744   3.137   4.586 -0.2103 -0.4040  0.0828
  452DG     C1110384   0.922   2.718   4.815 -0.7420  0.3594 -0.0764
  452DG     C1210385   0.819   3.048   4.508  0.2784  0.3126  0.0202
  452DG     H1310386   1.001   2.665   4.870 -0.6976 -0.4661 -0.9010
  452DG     H1410387   0.836   2.727   4.881 -1.7478  0.1655 -1.3226
  452DG     H1510388   0.829   3.080   4.404 -1.7660 -0.9439 -0.6203
  452DG     H1610389   0.762   2.956   4.492 -1.8932  1.0863  2.6272
  452DG     C1710390   0.985   2.854   4.776  0.0960  0.3391 -0.2096
  452DG     C1810391   0.940   3.005   4.583 -0.5380  0.4670 -0.5084
  452DG     O1910392   0.896   2.936   4.707  0.1966 -0.0316  0.4930
  452DG     H2010393   1.077   2.835   4.722 -0.0975  0.6778 -0.6650
  452DG     H2110394   1.013   2.917   4.860 -1.4516  1.1194 -0.2442
  452DG     H2210395   1.000   2.934   4.527 -1.1108 -1.2399  0.9452
  452DG     H2310396   1.007   3.086   4.614 -0.1668  0.0042 -0.0833
  453DG      C110397   2.004   3.238   0.900 -0.0553 -0.1032  0.1656
  453DG      C210398   2.415   3.594   1.475  0.4463 -0.2253  0.2360
  453DG      H310399   1.965   3.203   0.805 -0.2361  0.4761  0.0278
  453DG      H410400   1.923   3.291   0.950 -2.4256 -1.1864 -2.2900
  453DG      H510401   2.027   3.149   0.960 -1.1524 -0.7416 -0.3262
  453DG      H610402   2.468   3.679   1.516 -1.1780  1.0927 -0.3107
  453DG      H710403   2.309   3.611   1.492  0.8311  1.7860  0.9201
  453DG      H810404   2.440   3.502   1.529  0.3285  0.5313  1.5965
  453DG      O910405   2.119   3.318   0.878 -0.6394 -0.2483  0.1826
  453DG     O1010406   2.451   3.571   1.343 -0.7588  0.0220 -0.5051
  453DG     C1110407   2.169   3.381   1.001  0.3360 -0.0611 -0.3254
  453DG     C1210408   2.435   3.686   1.262  0.5945  0.3881 -0.1730
  453DG     H1310409   2.196   3.315   1.083 -0.5979  3.0197  2.7315
  453DG     H1410410   2.087   3.438   1.045  0.9604 -0.4672  1.4467
  453DG     H1510411   2.516   3.756   1.279 -0.2576  1.3677 -0.0524
  453DG     H1610412   2.344   3.737   1.293  0.8522  2.5194 -2.6151
  453DG     C1710413   2.294   3.473   0.983  0.3923 -0.2713 -0.0946
  453DG     C1810414   2.408   3.642   1.115 -0.1251  0.0205 -0.0642
  453DG     O1910415   2.306   3.539   1.113 -0.5606 -0.0721 -0.0234
  453DG     H2010416   2.285   3.542   0.899 -0.7951 -1.2266 -0.7908
  453DG     H2110417   2.384   3.413   0.971  0.1787 -0.5066 -0.5869
  453DG     H2210418   2.383   3.737   1.067  0.0770 -0.8050 -1.8883
  453DG     H2310419   2.492   3.593   1.066  0.4661 -0.2574  1.1825
  454DG      C110420   0.007   1.340   5.451  0.5537 -0.6254  0.1269
  454DG      C210421   0.508   0.975   5.315 -0.1712 -0.3741 -0.2778
  454DG      H310422   0.057   1.379   5.539 -1.8103  0.7626  0.9643
  454DG      H410423  -0.051   1.256   5.491 -0.8519  1.2227  2.1890
  454DG      H510424  -0.063   1.419   5.423 -0.0922 -1.2208  0.0408
  454DG      H610425   0.602   0.939   5.272  0.2217 -1.2904  1.2995
  454DG      H710426   0.532   1.020   5.411  0.0277 -0.6292 -0.2090
  454DG      H810427   0.449   0.884   5.323 -0.4163 -0.1161  0.9243
  454DG      O910428   0.099   1.319   5.344  0.2680  0.0760  0.5047
  454DG     O1010429   0.465   1.074   5.230 -0.3215 -0.4591 -0.6161
  454DG     C1110430   0.041   1.275   5.217 -0.9055  0.2084  0.0428
  454DG     C1210431   0.425   1.027   5.105 -0.1828  0.7885  0.0044
  454DG     H1310432  -0.034   1.346   5.183  0.6739  1.9245  0.0087
  454DG     H1410433  -0.006   1.180   5.241  0.8920 -0.4704  1.0413
  454DG     H1510434   0.378   0.929   5.114  1.2161  0.1792  1.0091
  454DG     H1610435   0.508   1.011   5.037 -0.9408 -1.2358 -0.5237
  454DG     C1710436   0.144   1.261   5.102  0.4948  0.1084 -0.5310
  454DG     C1810437   0.325   1.128   5.041  0.8382 -0.2396  0.4360
  454DG     O1910438   0.241   1.170   5.146  0.2183  0.3740  0.1965
  454DG     H2010439   0.196   1.356   5.088 -0.1445  0.4444 -0.6413
  454DG     H2110440   0.106   1.238   5.003 -1.3090 -2.5720  0.6608
  454DG     H2210441   0.373   1.220   5.009  0.8430  0.4766  2.3581
  454DG     H2310442   0.261   1.088   4.962 -0.8613 -1.4114  2.2912
  455DG      C110443   0.847   3.395   5.422  0.3198 -0.6377  0.0257
  455DG      C210444   0.409   2.862   5.070  0.8396  0.6399 -0.4301
  455DG      H310445   0.901   3.404   5.516 -0.4798  0.9432  0.3706
  455DG      H410446   0.753   3.450   5.432 -0.8454 -2.5232 -0.2068
  455DG      H510447   0.901   3.432   5.334 -1.7982  0.4581 -0.9002
  455DG      H610448   0.408   2.952   5.008 -1.6580  0.9797 -0.0307
  455DG      H710449   0.402   2.770   5.012  0.4680 -0.7066  1.6370
  455DG      H810450   0.330   2.851   5.144 -0.8848 -0.1283 -2.2857
  455DG      O910451   0.800   3.262   5.400  0.2242 -0.0500  0.9347
  455DG     O1010452   0.520   2.873   5.157 -0.1512  0.7657  0.7013
  455DG     C1110453   0.909   3.178   5.360 -0.2280  1.1869  0.0055
  455DG     C1210454   0.647   2.846   5.098  0.1482 -0.0324  0.4823
  455DG     H1310455   0.987   3.182   5.437 -1.8179  1.4454  1.6707
  455DG     H1410456   0.956   3.213   5.268  1.5503  2.8939  1.4602
  455DG     H1510457   0.662   2.915   5.015 -1.6253 -0.9301 -0.6480
  455DG     H1610458   0.659   2.745   5.060 -2.2914 -0.8011  1.5654
  455DG     C1710459   0.877   3.029   5.334 -0.0518  0.5713 -0.4042
  455DG     C1810460   0.754   2.862   5.213 -0.4114  1.1614 -0.1225
  455DG     O1910461   0.771   3.007   5.245  0.2802  0.5362 -0.7434
  455DG     H2010462   0.864   2.981   5.431 -1.9871  1.5374 -0.1420
  455DG     H2110463   0.968   2.987   5.291  0.3453 -0.2780  1.1946
  455DG     H2210464   0.724   2.803   5.300  0.1097 -1.7326 -1.7641
  455DG     H2310465   0.853   2.829   5.180 -0.4332  2.6995 -1.8746
  456DG      C110466   1.584   3.194   3.647 -0.2806 -0.5091 -0.2864
  456DG      C210467   2.003   3.121   4.118 -0.0988  0.2464  0.0477
  456DG      H310468   1.496   3.207   3.585 -0.4563  1.7429  0.3361
  456DG      H410469   1.615   3.090   3.651  2.4630  0.1962 -0.6488
  456DG      H510470   1.669   3.248   3.605 -0.6299  1.0153  0.8632
  456DG      H610471   2.071   3.205   4.106  0.3065  0.2467  1.9520
  456DG      H710472   1.969   3.117   4.222 -1.0113 -0.8102 -0.2737
  456DG      H810473   2.065   3.031   4.111 -1.7196 -0.8865 -0.3331
  456DG      O910474   1.566   3.244   3.777 -0.1556  0.8278 -0.0179
  456DG     O1010475   1.902   3.093   4.022 -0.0672  0.1862 -0.0577
  456DG     C1110476   1.459   3.171   3.844 -0.2006 -0.7343  0.3166
  456DG     C1210477   1.844   2.962   4.050  0.2889  0.0842 -0.7073
  456DG     H1310478   1.376   3.150   3.776  1.1316 -0.4127 -1.4819
  456DG     H1410479   1.428   3.235   3.927 -0.5083  1.0654 -1.1153
  456DG     H1510480   1.796   2.955   4.147  1.2230 -2.1796 -0.3416
  456DG     H1610481   1.919   2.883   4.043 -0.0003 -0.1960 -0.6794
  456DG     C1710482   1.513   3.030   3.899  0.3481 -0.0776  0.4762
  456DG     C1810483   1.729   2.942   3.951  0.5369 -0.4090 -0.0747
  456DG     O1910484   1.635   3.048   3.973  0.0324  0.3379 -0.4367
  456DG     H2010485   1.528   2.960   3.817  0.4323 -1.0265  1.2827
  456DG     H2110486   1.444   2.986   3.972 -1.2273  0.3615 -0.7005
  456DG     H2210487   1.768   2.959   3.851  1.6963 -2.0943  0.0413
  456DG     H2310488   1.672   2.849   3.961  2.5213 -1.4704  3.2066
  457DG      C110489   4.575   0.352   2.578 -0.3805  0.5501 -0.0710
  457DG      C210490   5.252   0.526   2.198 -0.4938 -0.9559  0.2760
  457DG      H310491   4.487   0.398   2.532 -0.8713  0.0125  0.3150
  457DG      H410492   4.611   0.426   2.649  0.0886 -0.0674  0.3350
  457DG      H510493   4.530   0.268   2.631  0.0608 -0.0102 -0.5712
  457DG      H610494   5.311   0.454   2.142 -1.1928 -2.2234  1.1379
  457DG      H710495   5.212   0.605   2.134  0.1982  0.3555  1.4138
  457DG      H810496   5.329   0.579   2.255 -0.3749 -0.0227 -0.7034
  457DG      O910497   4.675   0.302   2.488 -0.0639 -0.3644 -0.2221
  457DG     O1010498   5.160   0.460   2.285  0.3169  0.2807 -0.1575
  457DG     C1110499   4.774   0.218   2.551 -0.2644 -0.1796 -0.4592
  457DG     C1210500   5.054   0.394   2.216  0.5599  1.2738  0.4071
  457DG     H1310501   4.737   0.140   2.618  2.0581  0.5474  1.8207
  457DG     H1410502   4.827   0.282   2.622  0.1258  0.3699 -1.2415
  457DG     H1510503   5.085   0.379   2.113 -3.7945  2.0655 -1.2619
  457DG     H1610504   4.972   0.466   2.205  0.5456  0.9971 -1.5620
  457DG     C1710505   4.876   0.163   2.452 -0.2784 -0.6121 -0.3624
  457DG     C1810506   5.012   0.260   2.282  0.2183 -0.0836  0.0048
  457DG     O1910507   4.912   0.283   2.377  0.4069 -0.3826 -0.6935
  457DG     H2010508   4.816   0.090   2.398 -3.3257  2.4937 -1.5518
  457DG     H2110509   4.958   0.116   2.506  0.7869  2.2127  0.6808
  457DG     H2210510   4.965   0.207   2.199  0.0504  0.0318  0.0247
  457DG     H2310511   5.099   0.202   2.313  1.1253  1.1226 -0.1811
  458DG      C110512   1.627   3.423   0.243 -0.0215 -0.0729  0.0267
  458DG      C210513   1.586   2.907   0.825  0.1856  0.1998  0.2723
  458DG      H310514   1.736   3.423   0.247  0.0040  1.4947  3.5447
  458DG      H410515   1.603   3.512   0.302  0.2675 -1.0560  1.6802
  458DG      H510516   1.588   3.440   0.143  0.6817 -1.0145 -0.4194
  458DG      H610517   1.556   2.803   0.816  1.1246 -0.1502  1.0178
  458DG      H710518   1.683   2.907   0.875 -0.2610  1.7241  1.1925
  458DG      H810519   1.519   2.958   0.894  1.9739  1.3872  1.2365
  458DG      O910520   1.586   3.311   0.311  0.6180  0.1741 -0.0543
  458DG     O1010521   1.598   2.956   0.690 -0.4270  0.0764 -0.0557
  458DG     C1110522   1.626   3.186   0.251  0.1944 -0.2196  0.2785
  458DG     C1210523   1.467   2.983   0.639 -0.1769  0.7128 -0.0109
  458DG     H1310524   1.726   3.149   0.276  0.5054 -0.4830 -1.2449
  458DG     H1410525   1.629   3.193   0.142  1.1071  1.6256  0.3845
  458DG     H1510526   1.426   3.077   0.677 -1.8206 -0.2569  0.6864
  458DG     H1610527   1.393   2.913   0.677  1.1045 -0.0137  1.2506
  458DG     C1710528   1.530   3.078   0.293  0.3251 -0.3137  0.0776
  458DG     C1810529   1.464   2.969   0.486 -0.0629  0.7892 -0.4815
  458DG     O1910530   1.532   3.083   0.431  0.3886 -0.2822 -0.4845
  458DG     H2010531   1.566   2.985   0.248 -0.8191 -0.4375 -0.6219
  458DG     H2110532   1.436   3.088   0.239  0.3317  0.3662  0.1817
  458DG     H2210533   1.520   2.880   0.456  1.2216  1.0255  1.0563
  458DG     H2310534   1.363   2.975   0.446 -0.5293 -0.3281  0.4688
  459DG      C110535   4.569   0.621   3.211 -0.0601 -0.6447 -0.2756
  459DG      C210536   4.315  -0.031   3.357  0.0873  0.3322  0.4360
  459DG      H310537   4.616   0.572   3.126  2.2055  2.2415 -0.8693
  459DG      H410538   4.653   0.657   3.271 -0.0823 -2.6035  0.9955
  459DG      H510539   4.535   0.723   3.194  4.7009  0.8047 -3.1837
  459DG      H610540   4.341  -0.059   3.255 -1.6493 -1.1286  0.3460
  459DG      H710541   4.368  -0.101   3.422 -0.8471 -0.4243  0.4015
  459DG      H810542   4.211  -0.053   3.380 -0.9123  0.3852 -3.3578
  459DG      O910543   4.499   0.527   3.288 -0.6751  0.1188 -0.2420
  459DG     O1010544   4.341   0.101   3.389  0.3291  0.3866  0.4244
  459DG     C1110545   4.422   0.583   3.389 -0.1610  0.3279  0.0024
  459DG     C1210546   4.267   0.146   3.495 -0.3382  0.2179 -0.1247
  459DG     H1310547   4.324   0.612   3.352 -0.4294 -0.6969 -0.1185
  459DG     H1410548   4.468   0.672   3.433  0.1376 -0.9288  2.3761
  459DG     H1510549   4.266   0.080   3.582  0.3076 -0.3313 -0.5344
  459DG     H1610550   4.164   0.167   3.468 -0.4623 -0.7579 -0.4365
  459DG     C1710551   4.419   0.487   3.504 -0.0336  0.4438  0.2094
  459DG     C1810552   4.336   0.278   3.546 -0.2839 -0.2245  0.2763
  459DG     O1910553   4.337   0.383   3.451  0.3044  0.3508 -0.3514
  459DG     H2010554   4.378   0.527   3.597 -1.4038 -1.9836  0.7315
  459DG     H2110555   4.520   0.454   3.529  0.4456  2.1255  0.6333
  459DG     H2210556   4.275   0.323   3.624 -0.7830 -0.4999  0.0480
  459DG     H2310557   4.435   0.257   3.588  0.4022  1.5044 -0.3625
  460DG      C110558   1.283   3.970   4.143 -0.4788  0.4700 -0.0500
  460DG      C210559   1.084   3.384   4.517 -0.0516  0.0971  0.1321
  460DG      H310560   1.347   4.028   4.077 -0.4619 -0.4053 -0.8392
  460DG      H410561   1.346   3.936   4.225  2.6252 -0.4519 -2.6144
  460DG      H510562   1.201   4.034   4.174 -1.0076 -0.3204  0.2087
  460DG      H610563   1.002   3.352   4.453 -0.1914  1.6543 -0.5204
  460DG      H710564   1.128   3.293   4.559 -0.8073 -0.8632 -1.0926
  460DG      H810565   1.038   3.431   4.603  0.9858  2.7044 -0.6326
  460DG      O910566   1.223   3.857   4.081  0.2461  0.0702 -0.2005
  460DG     O1010567   1.178   3.479   4.465  1.0294 -0.4140  0.1121
  460DG     C1110568   1.311   3.762   4.013  0.0260  0.4364 -0.0423
  460DG     C1210569   1.230   3.424   4.348 -0.0085  0.5552  0.3473
  460DG     H1310570   1.382   3.819   3.953  1.4211  1.3749  2.3554
  460DG     H1410571   1.255   3.697   3.947  1.4242 -0.8505 -0.0272
  460DG     H1510572   1.146   3.398   4.285 -1.0325  2.2585  0.9615
  460DG     H1610573   1.274   3.326   4.368  2.4833  1.3633 -0.7244
  460DG     C1710574   1.382   3.678   4.124  0.1780  0.8586  0.4846
  460DG     C1810575   1.340   3.507   4.278  0.7104 -0.3631  0.6776
  460DG     O1910576   1.281   3.597   4.188 -0.4680 -0.2478  0.0123
  460DG     H2010577   1.438   3.739   4.195  3.5865 -0.2482 -1.0197
  460DG     H2110578   1.451   3.608   4.076  0.8686  1.0378  1.1898
  460DG     H2210579   1.395   3.556   4.358  3.0697 -1.2656 -0.2984
  460DG     H2310580   1.407   3.450   4.214 -0.4618  0.2257 -1.1551
  461DG      C110581   4.327   3.795   0.379  0.0222 -0.3007  0.0939
  461DG      C210582   3.885   3.239   0.340 -0.4198  0.9962  0.3748
  461DG      H310583   4.382   3.836   0.463 -0.7816  0.3194  0.3272
  461DG      H410584   4.229   3.763   0.416 -0.7315 -0.9865 -2.2881
  461DG      H510585   4.305   3.883   0.319 -1.6960 -0.1887  0.8194
  461DG      H610586   3.923   3.220   0.440 -0.1381 -2.0258 -0.2043
  461DG      H710587   3.807   3.315   0.336 -1.6091 -0.2458 -1.0502
  461DG      H810588   3.845   3.149   0.293  0.4548 -1.3504  3.7478
  461DG      O910589   4.382   3.684   0.310  0.6712  0.0604  0.3746
  461DG     O1010590   3.990   3.293   0.266  0.8607 -0.5541  0.0161
  461DG     C1110591   4.308   3.638   0.195  0.1854  0.4009 -0.3886
  461DG     C1210592   4.111   3.230   0.263  0.6297 -0.1472 -0.0239
  461DG     H1310593   4.354   3.672   0.103 -0.9610  0.8722 -0.7990
  461DG     H1410594   4.208   3.682   0.193 -0.1457 -0.1933  1.1809
  461DG     H1510595   4.087   3.124   0.265  0.0565 -0.0173  0.6671
  461DG     H1610596   4.169   3.249   0.354  0.1653  0.7653  0.0935
  461DG     C1710597   4.297   3.483   0.213 -0.2116  0.0148 -0.9818
  461DG     C1810598   4.190   3.282   0.143 -0.2499 -0.3068 -0.2475
  461DG     O1910599   4.198   3.424   0.134  0.0910 -0.1454  0.5130
  461DG     H2010600   4.262   3.464   0.315 -1.6145 -0.3902 -1.5209
  461DG     H2110601   4.392   3.434   0.194  0.6177  0.6646  1.1234
  461DG     H2210602   4.288   3.234   0.144 -0.9647 -1.8316  1.3749
  461DG     H2310603   4.134   3.256   0.053  1.2674  0.9724 -1.6368
  462DG      C110604   2.571   0.513   4.484 -0.0079  0.4499 -0.6606
  462DG      C210605   3.213   0.276   4.347 -0.1780 -0.3188  0.2986
  462DG      H310606   2.593   0.531   4.589 -1.0084  1.2142 -0.5708
  462DG      H410607   2.463   0.501   4.473  0.2909 -2.6251 -0.9454
  462DG      H510608   2.604   0.601   4.428  1.4685  0.4122  0.0958
  462DG      H610609   3.210   0.375   4.304 -0.1441 -1.1294 -1.6498
  462DG      H710610   3.267   0.293   4.441  1.6496 -1.4695 -0.4703
  462DG      H810611   3.273   0.204   4.291 -2.3660 -2.0221  0.0016
  462DG      O910612   2.642   0.394   4.436 -0.0842  0.0051 -0.2904
  462DG     O1010613   3.082   0.227   4.353  0.2680  0.0560 -0.0910
  462DG     C1110614   2.594   0.266   4.492 -0.2020 -0.2083 -0.6321
  462DG     C1210615   3.050   0.125   4.447 -0.2987  1.0358 -0.2677
  462DG     H1310616   2.487   0.251   4.476  0.0418 -2.4138 -0.4550
  462DG     H1410617   2.613   0.254   4.598  0.4732 -0.4318 -0.7720
  462DG     H1510618   3.050   0.164   4.549 -1.0131 -1.3147  0.7016
  462DG     H1610619   3.116   0.039   4.444 -0.5971  0.8236 -1.1103
  462DG     C1710620   2.678   0.155   4.425 -0.3647  0.5195  0.5474
  462DG     C1810621   2.905   0.075   4.419 -0.8583  0.4412 -0.0412
  462DG     O1910622   2.817   0.184   4.441  0.5780 -0.1471  0.5976
  462DG     H2010623   2.663   0.153   4.317 -0.0794  0.3983  0.5110
  462DG     H2110624   2.637   0.062   4.465 -0.2249  0.2232  0.0074
  462DG     H2210625   2.906   0.040   4.315  2.1338 -1.4593  0.4900
  462DG     H2310626   2.878  -0.006   4.487  0.5413 -0.6845 -0.7453
  463DG      C110627   4.914   4.314   2.113  0.2388  0.7914 -0.6158
  463DG      C210628   5.475   4.118   1.659  0.1485 -0.3492  1.3013
  463DG      H310629   4.871   4.234   2.052 -0.1923  0.6733 -0.1691
  463DG      H410630   4.843   4.397   2.105  0.1195  1.0045  1.8199
  463DG      H510631   4.933   4.286   2.216 -1.7418  1.9805  0.1257
  463DG      H610632   5.432   4.041   1.596 -0.1665  1.6584 -1.0893
  463DG      H710633   5.545   4.157   1.585 -1.3379 -2.2239 -1.2387
  463DG      H810634   5.523   4.071   1.745  1.9647 -0.9078  0.0443
  463DG      O910635   5.030   4.369   2.050 -0.3138  0.0386  0.7316
  463DG     O1010636   5.376   4.217   1.682  0.4368  0.5049  0.1995
  463DG     C1110637   5.006   4.415   1.914  0.0314  0.0517 -0.5926
  463DG     C1210638   5.433   4.342   1.717  0.6649  0.1041  0.3438
  463DG     H1310639   4.913   4.471   1.902  0.4180  0.4108 -2.1283
  463DG     H1410640   4.991   4.328   1.850  0.2625  0.8083 -1.7007
  463DG     H1510641   5.499   4.378   1.638 -0.9270  0.1660 -1.0152
  463DG     H1610642   5.497   4.340   1.805  0.0196 -0.5181  0.8034
  463DG     C1710643   5.129   4.490   1.862  0.2678 -1.0723 -0.6111
  463DG     C1810644   5.327   4.451   1.742 -0.0314  0.3843  0.6003
  463DG     O1910645   5.230   4.396   1.822  0.2919 -0.0566 -0.3012
  463DG     H2010646   5.153   4.577   1.922  1.1530 -0.4538 -1.8125
  463DG     H2110647   5.091   4.535   1.770  0.0361 -2.1591 -1.0620
  463DG     H2210648   5.366   4.538   1.796  0.4818 -0.4015  1.5263
  463DG     H2310649   5.276   4.496   1.657 -2.3563  0.4140  1.9390
  464DG      C110650   5.168   4.922   4.958 -0.0553  0.3825 -0.2614
  464DG      C210651   5.791   4.494   4.735  0.2477  0.5931 -0.2292
  464DG      H310652   5.066   4.885   4.967 -0.5950  1.7263 -0.7174
  464DG      H410653   5.181   4.948   4.853  0.0579 -0.3084 -0.4228
  464DG      H510654   5.160   5.011   5.020  0.5838  1.1689 -1.2695
  464DG      H610655   5.834   4.592   4.712 -0.8056  1.1117 -0.0446
  464DG      H710656   5.854   4.414   4.773 -0.6632  0.9667  2.2329
  464DG      H810657   5.761   4.460   4.636  2.0958  0.5215 -0.7954
  464DG      O910658   5.259   4.829   5.009 -0.0642 -0.0704 -0.7831
  464DG     O1010659   5.672   4.511   4.818 -0.4462 -0.0489 -0.8160
  464DG     C1110660   5.394   4.872   5.034  0.0723 -0.1247 -0.7219
  464DG     C1210661   5.576   4.595   4.760 -0.1877  0.2632 -0.0997
  464DG     H1310662   5.409   4.949   5.110 -0.8766  0.7739 -1.4084
  464DG     H1410663   5.450   4.911   4.949  1.5759 -0.2056  0.1932
  464DG     H1510664   5.525   4.540   4.681 -1.5684  1.6150 -0.1970
  464DG     H1610665   5.625   4.679   4.713 -1.1333 -0.1084 -1.8210
  464DG     C1710666   5.462   4.747   5.073 -0.0659 -0.3696 -0.0321
  464DG     C1810667   5.472   4.631   4.858 -0.1934  0.3235 -0.9033
  464DG     O1910668   5.535   4.697   4.968 -0.4077  0.1025  0.2025
  464DG     H2010669   5.399   4.672   5.119 -0.2792  0.5276  1.2017
  464DG     H2110670   5.530   4.782   5.151 -0.5537  0.2597  0.1239
  464DG     H2210671   5.400   4.699   4.812  0.9925  1.3406 -1.3128
  464DG     H2310672   5.420   4.544   4.898 -1.3051  1.0368 -0.7242
  465DG      C110673   0.388   4.979   4.664  0.8002 -0.5116 -0.2301
  465DG      C210674  -0.051   4.687   4.209  0.0382  0.6075 -0.4729
  465DG      H310675   0.404   5.086   4.671 -0.7329 -0.3581  1.8847
  465DG      H410676   0.457   4.935   4.592 -0.6057  0.9210 -2.5967
  465DG      H510677   0.405   4.950   4.767  0.1369  0.0647  0.0524
  465DG      H610678  -0.071   4.598   4.270 -0.1027  0.0083 -1.3795
  465DG      H710679  -0.121   4.692   4.126 -2.3469 -0.1606  1.3925
  465DG      H810680   0.053   4.680   4.176  0.6936 -1.9455  1.7227
  465DG      O910681   0.257   4.958   4.616  0.3747  0.0071  0.3285
  465DG     O1010682  -0.051   4.804   4.285  0.1186  0.3326 -0.4047
  465DG     C1110683   0.154   5.002   4.704  0.8695  0.5210  0.1338
  465DG     C1210684  -0.158   4.826   4.375  0.0608  0.6004 -0.2273
  465DG     H1310685   0.180   5.092   4.760 -1.2222  1.1441  0.2155
  465DG     H1410686   0.143   4.918   4.773  4.3044  0.3334  0.6277
  465DG     H1510687  -0.173   4.731   4.426  1.5122 -0.5349 -1.8190
  465DG     H1610688  -0.245   4.859   4.318  1.4810  1.8334 -1.7602
  465DG     C1710689   0.028   5.034   4.626 -0.1729  0.7015  0.0759
  465DG     C1810690  -0.137   4.947   4.466  0.3335  0.5079 -0.1978
  465DG     O1910691  -0.010   4.925   4.536  0.2432  1.0581  0.2937
  465DG     H2010692   0.055   5.114   4.557  0.9435 -0.8116 -1.3190
  465DG     H2110693  -0.054   5.078   4.683 -1.0332 -1.9951  1.0658
  465DG     H2210694  -0.153   5.037   4.408  0.3551  0.4370 -0.3141
  465DG     H2310695  -0.220   4.942   4.537  0.6729  0.4988  0.2063
  466DG      C110696   3.203   2.404   5.060  0.8325 -0.3416 -0.8373
  466DG      C210697   3.681   2.046   5.581  0.5900 -0.2505  0.7845
  466DG      H310698   3.249   2.502   5.070  2.2464 -1.0116 -0.5097
  466DG      H410699   3.115   2.401   5.124  0.8021 -0.3240 -0.8780
  466DG      H510700   3.187   2.405   4.952  3.9388 -1.2443 -1.4132
  466DG      H610701   3.641   1.950   5.613 -2.9670  0.9475  0.5022
  466DG      H710702   3.785   2.052   5.551  0.4774  2.6234  0.6584
  466DG      H810703   3.675   2.117   5.664  1.5227  2.0181 -0.9529
  466DG      O910704   3.314   2.324   5.096  0.6805 -0.0815  0.4432
  466DG     O1010705   3.608   2.081   5.459  0.5030  0.3956 -0.3150
  466DG     C1110706   3.262   2.194   5.117  0.6079 -0.2912  0.4107
  466DG     C1210707   3.632   1.990   5.349 -0.3953 -0.4424  0.0918
  466DG     H1310708   3.181   2.167   5.050  2.8836  1.2752 -3.2885
  466DG     H1410709   3.229   2.204   5.220 -0.0021  1.8279  0.0575
  466DG     H1510710   3.577   1.898   5.368 -2.1279  0.9088  1.9655
  466DG     H1610711   3.737   1.960   5.341 -0.6799 -1.7778  1.1370
  466DG     C1710712   3.379   2.100   5.097  0.2557  0.2214  0.1211
  466DG     C1810713   3.587   2.046   5.216  0.5579  0.4481 -0.1660
  466DG     O1910714   3.455   2.106   5.220  0.1064  0.3282 -1.1011
  466DG     H2010715   3.426   2.121   5.001  2.0361 -0.0277  0.8934
  466DG     H2110716   3.335   2.001   5.080  2.6407 -0.8397 -0.2977
  466DG     H2210717   3.665   2.117   5.187  1.5780  0.0841  1.5499
  466DG     H2310718   3.582   1.961   5.148 -0.4672  0.9536 -0.7426
  467DG      C110719   0.622   1.357   1.690  0.0513 -0.1376 -0.3531
  467DG      C210720   0.782   0.669   1.470 -0.0352 -0.0637  0.1643
  467DG      H310721   0.660   1.395   1.785 -1.3605 -0.3317  0.3120
  467DG      H410722   0.554   1.275   1.712  1.0120 -0.6799  0.6630
  467DG      H510723   0.562   1.436   1.645 -0.4826  0.2141  0.9408
  467DG      H610724   0.732   0.609   1.394  0.1331 -1.8144  1.3729
  467DG      H710725   0.883   0.628   1.472 -0.0984 -0.8822 -4.2938
  467DG      H810726   0.733   0.643   1.564  1.4659  0.9568  1.2924
  467DG      O910727   0.716   1.316   1.596  0.1127 -0.0586  0.0485
  467DG     O1010728   0.777   0.810   1.469  0.4165 -0.1133  0.3789
  467DG     C1110729   0.823   1.226   1.625  0.0680 -0.2170 -0.0727
  467DG     C1210730   0.875   0.869   1.386 -1.1845  0.2722  0.1930
  467DG     H1310731   0.778   1.137   1.671  1.3019  0.2282  2.1448
  467DG     H1410732   0.903   1.277   1.678 -0.2935 -0.0857  0.3565
  467DG     H1510733   0.902   0.811   1.298 -2.5195 -1.9390  1.1537
  467DG     H1610734   0.968   0.875   1.442 -1.3108  0.0630  0.4264
  467DG     C1710735   0.885   1.168   1.490 -0.4415 -0.2124 -0.1397
  467DG     C1810736   0.832   1.003   1.328  0.5000 -0.5975  0.1238
  467DG     O1910737   0.780   1.092   1.425 -0.1167  0.4509  0.1671
  467DG     H2010738   0.976   1.117   1.520 -2.2047 -2.1150  2.4214
  467DG     H2110739   0.907   1.249   1.421 -0.7240 -0.0474 -0.0384
  467DG     H2210740   0.911   1.053   1.272 -0.4943  0.2176 -0.5715
  467DG     H2310741   0.763   0.981   1.247  0.5230  0.1725 -0.1042
  468DG      C110742   1.479   4.461   0.053  1.2637  0.2258 -0.9428
  468DG      C210743   0.894   4.337   0.175  0.1587  0.5080 -0.1299
  468DG      H310744   1.588   4.455   0.054  1.3052 -0.1051  2.1103
  468DG      H410745   1.446   4.493   0.151 -1.6968  0.2109 -1.8219
  468DG      H510746   1.453   4.537  -0.021 -3.4421  1.4285  1.5670
  468DG      H610747   0.868   4.251   0.113  0.8865  0.4205 -0.3210
  468DG      H710748   0.817   4.343   0.252 -0.0953  0.8110 -0.4042
  468DG      H810749   0.879   4.415   0.100  0.9190 -1.9294 -3.0528
  468DG      O910750   1.417   4.340   0.017 -0.5989 -0.0060  0.2741
  468DG     O1010751   1.027   4.325   0.222  0.2336  0.2978  0.2513
  468DG     C1110752   1.478   4.224   0.082 -0.2735  0.3762  0.0732
  468DG     C1210753   1.067   4.217   0.304  0.7324 -0.4326  0.5123
  468DG     H1310754   1.587   4.222   0.077 -0.2022 -3.9462  0.2570
  468DG     H1410755   1.447   4.133   0.031  1.6831  0.1115 -0.7372
  468DG     H1510756   1.046   4.125   0.250  0.0796  0.5711 -0.9884
  468DG     H1610757   1.016   4.217   0.401  0.3567 -0.1617  0.3152
  468DG     C1710758   1.420   4.215   0.222  0.3087 -0.5276 -0.4331
  468DG     C1810759   1.212   4.224   0.343 -0.6136  0.4415 -0.6780
  468DG     O1910760   1.276   4.193   0.222  0.2628 -0.1705  0.3702
  468DG     H2010761   1.445   4.310   0.269 -2.4730  0.6500 -1.1177
  468DG     H2110762   1.466   4.136   0.281 -1.6403  0.1431  2.1749
  468DG     H2210763   1.236   4.322   0.385  0.7204 -0.2173  0.1366
  468DG     H2310764   1.239   4.153   0.421 -2.1443  1.1696  0.5943
  469DG      C110765   1.326   5.287   1.126 -0.0369 -0.8679 -0.2064
  469DG      C210766   1.154   4.711   1.294 -0.2704 -0.4302  0.1808
  469DG      H310767   1.232   5.233   1.130  0.0338 -1.2802 -2.6021
  469DG      H410768   1.395   5.223   1.072 -0.4613 -1.3021 -0.2358
  469DG      H510769   1.310   5.374   1.061  3.2718 -1.4919 -2.0870
  469DG      H610770   1.090   4.707   1.383 -0.6212 -2.3453 -0.1122
  469DG      H710771   1.092   4.762   1.220 -2.1129 -2.4800  0.2252
  469DG      H810772   1.193   4.615   1.263 -1.0995 -0.5501 -0.5173
  469DG      O910773   1.377   5.338   1.253  0.1271 -0.4855  0.4933
  469DG     O1010774   1.255   4.791   1.337 -0.4126  0.3893 -0.4154
  469DG     C1110775   1.342   5.271   1.370  0.4760 -0.4645 -0.8874
  469DG     C1210776   1.357   4.817   1.237 -0.0927 -0.2426 -0.1360
  469DG     H1310777   1.236   5.244   1.380  0.7744 -2.2724 -2.1399
  469DG     H1410778   1.366   5.327   1.460 -1.2684 -0.2259 -0.5232
  469DG     H1510779   1.310   4.849   1.144 -0.7999 -0.2301  0.2172
  469DG     H1610780   1.415   4.727   1.215  2.2786  1.1629  0.0293
  469DG     C1710781   1.430   5.150   1.389  0.0005  0.4450 -0.3636
  469DG     C1810782   1.452   4.923   1.290  0.0784  0.2081  0.4653
  469DG     O1910783   1.382   5.049   1.294  0.1523  0.1786 -0.1538
  469DG     H2010784   1.402   5.108   1.486 -1.3075  2.8018  0.3376
  469DG     H2110785   1.537   5.170   1.384 -0.1109  0.7264 -2.3761
  469DG     H2210786   1.496   4.881   1.381  1.2507 -0.8579 -0.5575
  469DG     H2310787   1.525   4.936   1.210 -0.4562 -1.8051 -0.4032
  470DG      C110788   3.162   2.237   3.720  0.2041  0.6775  0.4360
  470DG      C210789   3.609   1.807   4.207  0.4999  0.2700 -1.0634
  470DG      H310790   3.229   2.202   3.641 -0.8877 -2.1949  0.6801
  470DG      H410791   3.147   2.344   3.709  0.6330  0.5373 -1.9120
  470DG      H510792   3.067   2.192   3.692  0.0857  2.3174 -2.0736
  470DG      H610793   3.591   1.730   4.131  1.2829  0.5857 -1.5803
  470DG      H710794   3.716   1.827   4.199  0.3245  1.7083 -0.1608
  470DG      H810795   3.588   1.772   4.308 -1.6791  0.0736 -1.5307
  470DG      O910796   3.209   2.197   3.846  0.3309  0.0747  0.2001
  470DG     O1010797   3.530   1.922   4.165 -0.4643 -0.1361  0.2998
  470DG     C1110798   3.114   2.196   3.949 -0.5658  0.0494 -0.0903
  470DG     C1210799   3.398   1.912   4.226  0.1084  0.1133 -0.2244
  470DG     H1310800   3.034   2.126   3.923  0.8603 -1.8411  0.3901
  470DG     H1410801   3.066   2.294   3.941  1.1963  1.1127  1.5001
  470DG     H1510802   3.418   1.899   4.332  4.1160 -0.4491 -0.9281
  470DG     H1610803   3.348   1.816   4.214 -0.9302  0.2062  2.5367
  470DG     C1710804   3.184   2.176   4.089  0.0208  0.1857 -0.4501
  470DG     C1810805   3.301   2.037   4.226 -0.0799 -0.8989  0.8863
  470DG     O1910806   3.234   2.047   4.099 -0.0106 -0.5327  0.3835
  470DG     H2010807   3.103   2.178   4.162 -0.4464  2.9712 -0.9576
  470DG     H2110808   3.260   2.251   4.108 -1.0877  0.9088  1.3403
  470DG     H2210809   3.231   2.034   4.310  3.0354 -0.5227  3.7328
  470DG     H2310810   3.352   2.129   4.255 -3.0533  0.8716  0.9023
  471DG      C110811   3.808   0.658   1.147 -0.3270 -0.4428  0.0855
  471DG      C210812   3.852   1.319   1.003  0.5254  0.2129  0.6163
  471DG      H310813   3.702   0.662   1.125 -0.2132 -2.2919 -0.9654
  471DG      H410814   3.804   0.587   1.229 -1.7330  0.6011  0.9546
  471DG      H510815   3.860   0.624   1.057 -1.3744  0.6232 -0.9484
  471DG      H610816   3.829   1.420   1.038  2.6815  0.6125  1.0250
  471DG      H710817   3.916   1.328   0.916 -0.0740  0.9658  0.2375
  471DG      H810818   3.764   1.259   0.982  1.4582 -1.0647  0.2583
  471DG      O910819   3.853   0.780   1.192 -0.7902 -0.2031 -0.0292
  471DG     O1010820   3.927   1.247   1.099  0.2426  0.1455 -0.3114
  471DG     C1110821   3.983   0.776   1.245  0.3301 -0.6085  0.2001
  471DG     C1210822   3.862   1.240   1.223 -0.4701  0.7946  0.4181
  471DG     H1310823   4.068   0.758   1.179  1.9382  2.6806  1.1781
  471DG     H1410824   3.988   0.704   1.327 -0.3597 -0.3817  0.4472
  471DG     H1510825   3.759   1.205   1.223  0.0532 -0.8698 -0.4000
  471DG     H1610826   3.871   1.329   1.285  0.2427 -0.1944  1.7809
  471DG     C1710827   4.005   0.908   1.314 -0.8938 -0.2226  0.0701
  471DG     C1810828   3.941   1.136   1.299 -0.0529  0.4329 -0.2599
  471DG     O1910829   3.964   1.016   1.223  0.0202 -0.1447 -0.3173
  471DG     H2010830   4.108   0.921   1.348 -0.6234 -0.2846 -0.6940
  471DG     H2110831   3.935   0.908   1.397 -0.5946 -0.5843  0.3228
  471DG     H2210832   4.037   1.177   1.329  0.3176 -0.0175 -0.8025
  471DG     H2310833   3.886   1.119   1.392  0.4933  1.1646  0.2048
  472DG      C110834   3.230   0.182   2.996  0.1311  0.4832 -0.0779
  472DG      C210835   3.366   0.708   3.393  0.1121  0.0835  0.6082
  472DG      H310836   3.204   0.084   2.957 -1.1913 -0.1758  2.2419
  472DG      H410837   3.324   0.223   2.958 -0.2199  2.1405  0.7288
  472DG      H510838   3.155   0.249   2.953 -0.2440  0.1045 -0.0253
  472DG      H610839   3.447   0.749   3.332  0.9462 -0.9499  0.9726
  472DG      H710840   3.280   0.731   3.331  0.4517 -1.6751 -0.6102
  472DG      H810841   3.355   0.771   3.481  0.8673  1.1247 -0.0162
  472DG      O910842   3.215   0.188   3.134 -0.3463 -0.5015 -0.0925
  472DG     O1010843   3.364   0.567   3.406  0.2655  0.3122 -0.0171
  472DG     C1110844   3.314   0.116   3.207 -0.1958  0.0728 -0.6462
  472DG     C1210845   3.244   0.507   3.454  0.1528  0.2530 -0.3007
  472DG     H1310846   3.412   0.130   3.162  0.0388 -1.7381 -0.7695
  472DG     H1410847   3.297   0.008   3.208 -1.5380  0.2669  0.2209
  472DG     H1510848   3.173   0.541   3.378 -1.6313 -0.3213  1.0522
  472DG     H1610849   3.207   0.548   3.548 -1.2909  2.5095 -1.7547
  472DG     C1710850   3.313   0.168   3.351 -0.4160 -0.3171  0.2376
  472DG     C1810851   3.255   0.357   3.469  0.4437  0.1250 -0.7784
  472DG     O1910852   3.293   0.304   3.343 -0.4907  0.0326 -0.2680
  472DG     H2010853   3.404   0.133   3.400  1.6638  1.6250 -2.0155
  472DG     H2110854   3.228   0.116   3.398  0.7788  0.0713  3.0458
  472DG     H2210855   3.331   0.343   3.546  2.5327  1.9821 -2.3750
  472DG     H2310856   3.158   0.317   3.501 -1.1904  1.7309 -3.3670
  473DG      C110857   4.659   0.506   0.781  0.5812 -1.0333 -0.9229
  473DG      C210858   5.031   0.962   1.396 -0.2424  0.0505 -0.4631
  473DG      H310859   4.732   0.487   0.703  0.1345  1.9701 -2.2239
  473DG      H410860   4.624   0.609   0.776  0.8198 -0.7623  1.5941
  473DG      H510861   4.581   0.434   0.759 -1.2338 -0.1480  1.9763
  473DG      H610862   4.992   1.062   1.374  0.8237  0.4068 -0.7887
  473DG      H710863   5.012   0.949   1.503 -0.5076  0.6644 -0.4287
  473DG      H810864   5.140   0.970   1.395 -0.1838 -0.3847  0.7750
  473DG      O910865   4.716   0.487   0.913 -0.1209  0.2677  0.3234
  473DG     O1010866   4.971   0.858   1.320 -0.1086  0.1288  0.7553
  473DG     C1110867   4.821   0.577   0.940 -0.4196 -0.3393 -0.7243
  473DG     C1210868   5.027   0.732   1.346 -0.5837 -0.1519 -0.1572
  473DG     H1310869   4.802   0.667   0.882  1.4521 -0.2699 -1.2783
  473DG     H1410870   4.918   0.538   0.911  0.0694 -0.5143  1.0319
  473DG     H1510871   5.050   0.707   1.450 -0.2251 -1.0449 -0.4483
  473DG     H1610872   5.131   0.729   1.314 -0.3239 -0.8625  0.7196
  473DG     C1710873   4.810   0.599   1.086 -0.0155 -0.9621 -1.1787
  473DG     C1810874   4.952   0.616   1.285  1.1873 -0.2429 -0.0950
  473DG     O1910875   4.927   0.655   1.146 -0.6106 -0.1245  0.4654
  473DG     H2010876   4.798   0.502   1.134  1.9957 -1.0658 -0.7946
  473DG     H2110877   4.720   0.657   1.105  0.5159 -0.1322 -1.1654
  473DG     H2210878   5.003   0.520   1.287 -1.9264 -2.0435 -0.5492
  473DG     H2310879   4.857   0.604   1.337  0.2367  0.9632 -1.4425
  474DG      C110880   4.457   4.113   0.523 -0.2458  0.1245  0.2487
  474DG      C210881   4.879   3.957   0.990  0.3641 -0.0388 -0.9043
  474DG      H310882   4.459   4.006   0.505 -0.9149  0.2947 -0.9148
  474DG      H410883   4.497   4.150   0.429 -2.6048  1.0404 -0.4558
  474DG      H510884   4.358   4.156   0.537 -0.2220  1.1911 -2.3289
  474DG      H610885   4.954   3.972   1.068 -0.8055 -0.3070  0.3193
  474DG      H710886   4.776   3.945   1.025  0.2711  0.6586 -0.9051
  474DG      H810887   4.904   3.865   0.938 -4.2957 -3.3650  1.9847
  474DG      O910888   4.542   4.155   0.631 -0.5039  0.5788 -0.1467
  474DG     O1010889   4.871   4.067   0.896 -0.5052  0.2236  0.1057
  474DG     C1110890   4.565   4.292   0.633  0.1296 -0.4515  0.6119
  474DG     C1210891   4.902   4.202   0.949  1.1109  0.8262  0.1131
  474DG     H1310892   4.464   4.331   0.646  0.1987 -0.0788  0.0400
  474DG     H1410893   4.599   4.322   0.534 -0.4448 -0.2324  0.4758
  474DG     H1510894   4.998   4.205   0.999  0.3170 -0.2810  1.7966
  474DG     H1610895   4.823   4.217   1.023  1.7576 -0.1085  1.0338
  474DG     C1710896   4.648   4.321   0.758 -0.3202 -0.0414  0.1951
  474DG     C1810897   4.885   4.298   0.830  0.3567 -1.0960  0.4361
  474DG     O1910898   4.780   4.266   0.740  0.7821 -0.6576 -0.2406
  474DG     H2010899   4.608   4.284   0.852 -1.3551  1.4777  0.3776
  474DG     H2110900   4.648   4.429   0.768 -0.0593  0.1023 -1.1363
  474DG     H2210901   4.873   4.400   0.864 -1.1767 -0.6051 -1.3892
  474DG     H2310902   4.979   4.305   0.774  1.2541 -1.2099  1.8903
  475DG      C110903   4.915   0.268   1.264  0.3572 -0.0718 -0.3008
  475DG      C210904   5.190  -0.371   1.371 -0.2066  0.1598  0.2263
  475DG      H310905   4.975   0.296   1.177  0.7246  0.2004  0.0366
  475DG      H410906   4.961   0.285   1.362 -0.7507 -0.8349  0.3719
  475DG      H510907   4.822   0.323   1.251 -0.6109 -0.6571  3.0895
  475DG      H610908   5.136  -0.433   1.299  0.4953 -1.2488  0.8677
  475DG      H710909   5.266  -0.321   1.311 -0.0588  1.1892  1.2497
  475DG      H810910   5.224  -0.433   1.454 -1.4227 -2.5044 -1.1473
  475DG      O910911   4.884   0.136   1.249 -0.4874  0.1867 -0.0252
  475DG     O1010912   5.093  -0.280   1.419 -0.2169 -0.2644  0.1402
  475DG     C1110913   4.793   0.084   1.349  0.3875  0.0776  0.3192
  475DG     C1210914   5.153  -0.181   1.502 -0.5839  0.7338  0.0284
  475DG     H1310915   4.738   0.004   1.299 -0.5861 -1.0092  2.9340
  475DG     H1410916   4.718   0.158   1.377  0.3970 -0.4059  1.7017
  475DG     H1510917   5.222  -0.118   1.446  1.8727 -1.1423  0.7408
  475DG     H1610918   5.213  -0.227   1.581  0.3824 -0.0145 -1.0982
  475DG     C1710919   4.866   0.027   1.469  0.9297  0.7943  0.5005
  475DG     C1810920   5.042  -0.096   1.552 -0.3491 -0.1211  0.2151
  475DG     O1910921   4.967  -0.058   1.433 -0.2863  0.3298 -0.1106
  475DG     H2010922   4.793  -0.023   1.533  0.3827  1.7757  0.6635
  475DG     H2110923   4.903   0.110   1.530 -0.3440  1.1199  0.8603
  475DG     H2210924   4.981  -0.153   1.622  0.9377 -0.5095  1.0623
  475DG     H2310925   5.084  -0.010   1.605  0.1660 -0.0454 -0.3132
  476DG      C110926   2.369   4.644   0.301 -0.3512  0.1123  0.1289
  476DG      C210927   2.705   4.173   0.723 -0.2731  0.1788 -0.1218
  476DG      H310928   2.410   4.705   0.381 -1.1024 -0.2408  0.7995
  476DG      H410929   2.261   4.649   0.296 -0.3824  0.5346  1.1037
  476DG      H510930   2.416   4.659   0.203  0.2945  0.7114  0.5244
  476DG      H610931   2.713   4.074   0.768  4.8554  0.8797  1.2114
  476DG      H710932   2.797   4.191   0.667 -0.2587  2.2506  0.4735
  476DG      H810933   2.711   4.247   0.803 -0.6008 -0.5554  0.5926
  476DG      O910934   2.396   4.505   0.332 -0.5666  0.7086 -0.3227
  476DG     O1010935   2.596   4.195   0.635  0.1959  0.0414  0.8032
  476DG     C1110936   2.339   4.402   0.252  0.1120  0.2362 -0.1600
  476DG     C1210937   2.570   4.090   0.547 -0.3558  0.2663  0.1356
  476DG     H1310938   2.402   4.385   0.164 -0.9529 -0.3205 -0.8364
  476DG     H1410939   2.238   4.431   0.225 -1.1900 -3.1785  0.5736
  476DG     H1510940   2.567   3.999   0.608  0.3662  0.4718  0.5019
  476DG     H1610941   2.653   4.088   0.476  0.5710  2.6337  1.0394
  476DG     C1710942   2.335   4.269   0.323  0.5690  0.3249  0.2363
  476DG     C1810943   2.441   4.119   0.473  0.1020  0.7742 -0.0080
  476DG     O1910944   2.443   4.251   0.416 -0.5521 -0.5571 -0.2178
  476DG     H2010945   2.332   4.191   0.246  1.2940  0.2920  0.2303
  476DG     H2110946   2.237   4.265   0.370 -0.0567  1.7488 -0.8866
  476DG     H2210947   2.430   4.042   0.397 -0.9657  1.4264 -0.5512
  476DG     H2310948   2.354   4.115   0.540  0.4986 -0.7544  0.4439
  477DG      C110949   5.370   2.092   4.660 -0.5258 -0.0808  0.4819
  477DG      C210950   5.792   2.117   4.140 -0.4539  0.3654 -0.4170
  477DG      H310951   5.386   2.188   4.611 -0.2647  0.5312  1.7246
  477DG      H410952   5.357   2.118   4.765 -0.6110 -0.2234  0.5081
  477DG      H510953   5.278   2.054   4.615  0.6741 -1.9212 -0.5708
  477DG      H610954   5.770   2.079   4.041 -0.3009  1.2463 -0.8065
  477DG      H710955   5.753   2.218   4.126 -4.4795 -0.7855  1.0907
  477DG      H810956   5.901   2.119   4.146 -0.4261 -0.6710 -0.4263
  477DG      O910957   5.476   1.997   4.639  0.0623  0.1769 -0.3006
  477DG     O1010958   5.728   2.056   4.256  0.7517 -0.1256  0.0593
  477DG     C1110959   5.593   2.027   4.714  0.3554 -0.0577  0.2882
  477DG     C1210960   5.768   1.923   4.283 -0.1694  0.2290  0.9657
  477DG     H1310961   5.569   2.029   4.820  1.1203 -1.5512  0.5225
  477DG     H1410962   5.627   2.129   4.696  1.9080 -0.3351  1.4302
  477DG     H1510963   5.875   1.905   4.295 -0.0069 -0.5337 -1.2373
  477DG     H1610964   5.732   1.861   4.201 -0.3521 -0.1244  1.3066
  477DG     C1710965   5.709   1.932   4.668 -0.1061 -0.3516 -0.2016
  477DG     C1810966   5.703   1.884   4.420 -0.2913 -0.0791 -0.5638
  477DG     O1910967   5.765   1.955   4.532 -0.0513  0.5432  0.7733
  477DG     H2010968   5.682   1.827   4.683 -0.9889 -0.2551 -0.9926
  477DG     H2110969   5.791   1.957   4.736  0.7407  2.2329 -2.0383
  477DG     H2210970   5.598   1.915   4.422 -0.0904  0.6544  1.6206
  477DG     H2310971   5.705   1.776   4.436 -1.8076 -0.0204  0.2139
  478DG      C110972   2.063   5.351   1.995 -0.2817 -0.3231  0.2329
  478DG      C210973   2.140   5.783   2.532  0.1896 -0.0032  0.5211
  478DG      H310974   2.012   5.326   1.902  0.7368 -1.2493 -0.1032
  478DG      H410975   2.133   5.270   2.015 -0.0681 -1.1593 -3.2882
  478DG      H510976   2.123   5.442   1.989 -0.3705 -0.2303  0.7136
  478DG      H610977   2.188   5.881   2.522 -0.2806  0.0237 -2.3177
  478DG      H710978   2.064   5.800   2.609 -0.0973  2.1427 -0.1622
  478DG      H810979   2.214   5.708   2.560  0.9976  0.9079  0.8929
  478DG      O910980   1.964   5.365   2.098 -0.3893  0.5684 -0.0944
  478DG     O1010981   2.076   5.732   2.416 -0.0850  0.0855  0.3915
  478DG     C1110982   1.863   5.455   2.065  0.0800 -0.1026 -0.2608
  478DG     C1210983   1.977   5.823   2.364 -0.4061 -0.0427  0.4608
  478DG     H1310984   1.785   5.435   2.139  0.3078 -0.8670 -0.2111
  478DG     H1410985   1.817   5.440   1.968 -0.6809  0.5084 -0.0019
  478DG     H1510986   2.022   5.922   2.369  0.3081 -0.3068 -0.4124
  478DG     H1610987   1.880   5.815   2.413 -1.5308  2.6879 -1.0761
  478DG     C1710988   1.905   5.601   2.078  0.3523  0.2236 -0.7129
  478DG     C1810989   1.959   5.782   2.218 -0.3594  0.8758  0.1467
  478DG     O1910990   1.917   5.643   2.208  0.2388  0.0054 -0.0600
  478DG     H2010991   1.830   5.666   2.033 -0.4277  0.9353  1.4385
  478DG     H2110992   1.989   5.624   2.013 -2.0933  2.3813 -3.3667
  478DG     H2210993   1.878   5.835   2.168 -0.0278 -0.5912 -2.0978
  478DG     H2310994   2.054   5.800   2.169  0.5225  0.3425  1.5955
  479DG      C110995   4.911   0.406   4.310 -0.0553  0.0752 -0.2902
  479DG      C210996   4.401   0.996   4.368 -0.0354  0.2308  0.3916
  479DG      H310997   4.859   0.329   4.367  0.2608 -0.3956 -0.6301
  479DG      H410998   4.997   0.447   4.362 -1.9567  3.6081  0.3249
  479DG      H510999   4.960   0.357   4.226  0.7037  2.0662 -1.0644
  479DG      H611000   4.325   1.058   4.320  0.0651 -0.4239 -0.6516
  479DG      H711001   4.357   0.909   4.415  0.3290 -0.7679 -1.0344
  479DG      H811002   4.447   1.055   4.447  1.1727 -1.0467  0.6701
  479DG      O911003   4.833   0.514   4.262 -0.5595 -0.0651  0.5120
  479DG     O1011004   4.507   0.946   4.284 -0.1261 -0.5335  0.4894
  479DG     C1111005   4.911   0.613   4.203 -0.5943 -0.5901 -0.5323
  479DG     C1211006   4.477   0.874   4.169 -0.2871  0.3108 -0.3126
  479DG     H1311007   4.989   0.566   4.143  0.4450 -0.3039  0.5661
  479DG     H1411008   4.953   0.679   4.279 -2.6890 -0.3315  0.4735
  479DG     H1511009   4.419   0.938   4.103 -1.0783  0.3407  0.3879
  479DG     H1611010   4.412   0.789   4.188  0.7101 -0.0371  1.9543
  479DG     C1711011   4.815   0.702   4.115 -0.4246 -0.1833  0.7270
  479DG     C1811012   4.609   0.830   4.104  0.1413  0.3371 -0.2952
  479DG     O1911013   4.694   0.738   4.189  0.0827  0.1000 -0.3192
  479DG     H2011014   4.784   0.655   4.022 -0.7495 -0.5398  1.0107
  479DG     H2111015   4.878   0.786   4.086 -0.5857 -0.6577 -1.1246
  479DG     H2211016   4.570   0.790   4.011  1.5286  0.3952 -0.9320
  479DG     H2311017   4.673   0.907   4.062  1.5066 -1.3114 -1.3727
  480DG      C111018   0.095   3.750   4.450  0.2510 -0.2759  0.5459
  480DG      C211019  -0.201   4.049   5.001 -0.5399 -0.4751 -0.4445
  480DG      H311020   0.128   3.754   4.347 -1.5465 -0.3826 -0.0712
  480DG      H411021   0.014   3.678   4.440  0.6009 -0.5406 -0.4930
  480DG      H511022   0.178   3.706   4.506  0.8092  0.4958  0.3384
  480DG      H611023  -0.162   3.949   5.020  1.3548  0.2675 -0.2447
  480DG      H711024  -0.180   4.097   5.097 -0.4072 -0.9057 -0.2558
  480DG      H811025  -0.310   4.048   4.992 -0.5129  0.9723 -1.2488
  480DG      O911026   0.053   3.866   4.514  0.0709  0.1710  0.1076
  480DG     O1011027  -0.142   4.112   4.892 -0.4158 -0.2872 -0.1771
  480DG     C1111028   0.157   3.961   4.520 -0.2292 -0.3626 -1.0559
  480DG     C1211029  -0.007   4.152   4.917  0.1296 -0.2199 -0.4216
  480DG     H1311030   0.199   3.982   4.421  0.1180  0.6081 -0.7118
  480DG     H1411031   0.232   3.918   4.587 -2.2906 -1.7595  0.4834
  480DG     H1511032   0.038   4.062   4.959 -0.8621  0.3156  1.9843
  480DG     H1611033  -0.006   4.231   4.992  0.3140 -0.0390 -0.6136
  480DG     C1711034   0.119   4.096   4.585  0.5426  0.1461  0.0137
  480DG     C1811035   0.051   4.189   4.784 -0.0030 -0.5995  0.7332
  480DG     O1911036   0.049   4.072   4.706 -0.0058 -0.1113  0.2554
  480DG     H2011037   0.051   4.145   4.516 -1.7548 -2.2459  0.3995
  480DG     H2111038   0.210   4.152   4.603 -0.5012  1.7160  0.6382
  480DG     H2211039   0.004   4.277   4.738 -1.4525 -1.3141  0.7786
  480DG     H2311040   0.152   4.227   4.798 -1.1070  3.2810 -0.2839
  481DG      C111041   2.275   3.669   4.528 -0.2135  0.8483  0.3962
  481DG      C211042   2.794   3.920   5.136 -0.1623 -0.1345  0.6240
  481DG      H311043   2.315   3.587   4.467 -2.6903 -0.9884  1.0724
  481DG      H411044   2.278   3.766   4.478  3.1160  1.6640  1.8923
  481DG      H511045   2.174   3.633   4.546  0.1006 -0.5482 -0.4785
  481DG      H611046   2.802   3.905   5.244  1.5750 -0.7177  0.4377
  481DG      H711047   2.864   3.859   5.079 -0.0227 -0.9996  1.6749
  481DG      H811048   2.829   4.020   5.112 -0.2049 -0.8350 -2.7994
  481DG      O911049   2.338   3.671   4.660  0.2383 -0.2553  0.2892
  481DG     O1011050   2.669   3.903   5.064  0.3302 -0.0900 -0.2486
  481DG     C1111051   2.278   3.777   4.730  0.3305  0.1028  0.2615
  481DG     C1211052   2.613   3.773   5.081 -0.1738 -0.7592 -0.5664
  481DG     H1311053   2.169   3.767   4.725  0.5080 -1.6942 -2.1247
  481DG     H1411054   2.288   3.876   4.687  1.1060 -0.8128 -1.8308
  481DG     H1511055   2.636   3.738   5.183 -0.3816  0.0345 -0.2446
  481DG     H1611056   2.669   3.698   5.026  1.8813  0.1654  0.1559
  481DG     C1711057   2.312   3.761   4.880 -0.0856  0.5769  0.5739
  481DG     C1811058   2.463   3.768   5.055  0.2473 -0.0704  0.4758
  481DG     O1911059   2.444   3.772   4.915 -0.1479  0.3942 -0.2709
  481DG     H2011060   2.273   3.673   4.930  1.6897 -0.3049  0.4847
  481DG     H2111061   2.273   3.855   4.920  1.3704  2.2069 -1.5765
  481DG     H2211062   2.421   3.676   5.098  1.5256 -0.8619  0.0884
  481DG     H2311063   2.413   3.854   5.098  0.3279 -0.7043  1.8996
  482DG      C111064   4.760   2.842   2.544 -0.0391  0.2732 -0.3724
  482DG      C211065   4.800   2.920   2.999 -0.4429 -0.3472  0.3056
  482DG      H311066   4.772   2.811   2.440 -1.5498  1.5957 -0.9821
  482DG      H411067   4.803   2.942   2.538  0.0778  0.1587 -1.7828
  482DG      H511068   4.654   2.853   2.565  0.2628  2.5001  0.2115
  482DG      H611069   4.855   3.004   2.957 -1.9842 -0.8356 -3.0575
  482DG      H711070   4.780   2.862   2.909  0.5638  1.6569 -1.2738
  482DG      H811071   4.702   2.951   3.035 -0.2687  4.6177 -2.5398
  482DG      O911072   4.811   2.750   2.639 -0.0596 -0.4455  0.5912
  482DG     O1011073   4.874   2.839   3.079 -0.6297  0.9514 -0.0014
  482DG     C1111074   4.755   2.629   2.642  0.6892 -0.6816 -0.0907
  482DG     C1211075   4.812   2.712   3.106 -0.6595  0.2451  0.2247
  482DG     H1311076   4.788   2.557   2.567  1.7535 -2.8574  2.3208
  482DG     H1411077   4.646   2.634   2.648  0.6368  1.2994 -1.6360
  482DG     H1511078   4.708   2.713   3.139 -1.1228 -0.5116 -1.1599
  482DG     H1611079   4.851   2.667   3.198 -1.4194 -0.4681  0.2116
  482DG     C1711080   4.816   2.563   2.769  0.2906 -0.7941  0.6590
  482DG     C1811081   4.841   2.608   3.007  0.0838 -0.4161 -0.9674
  482DG     O1911082   4.774   2.637   2.880 -0.0995  0.2444  0.2950
  482DG     H2011083   4.923   2.555   2.751  0.1329  2.3015 -2.5873
  482DG     H2111084   4.774   2.463   2.783 -2.7823  0.0998 -1.3678
  482DG     H2211085   4.949   2.599   3.002  0.2634  1.2339 -0.5243
  482DG     H2311086   4.813   2.509   3.045 -0.3235  0.5825  1.5432
  483DG      C111087   0.596   0.958   0.348 -0.1552  0.0451 -0.2815
  483DG      C211088   0.475   0.912   1.156 -0.1210  0.3670  0.3001
  483DG      H311089   0.688   0.959   0.406  0.4787  0.8716 -1.2640
  483DG      H411090   0.564   1.061   0.329 -0.9290  0.0463  0.9578
  483DG      H511091   0.624   0.905   0.257 -1.7594 -2.3247  0.5111
  483DG      H611092   0.559   0.859   1.201 -0.4963  0.6998  1.4031
  483DG      H711093   0.515   1.011   1.137 -3.0469  1.3739 -1.0973
  483DG      H811094   0.402   0.917   1.236  0.3798 -2.8262  1.1267
  483DG      O911095   0.486   0.910   0.411 -0.2908  0.2753  0.3834
  483DG     O1011096   0.417   0.858   1.034  0.2040  0.3704 -0.0360
  483DG     C1111097   0.472   0.959   0.551 -0.7677  0.1502  0.0620
  483DG     C1211098   0.322   0.940   0.981 -0.4850 -0.1315 -0.2301
  483DG     H1311099   0.451   1.066   0.544  1.3031  0.6590  0.7139
  483DG     H1411100   0.561   0.968   0.614 -0.1195  0.5979 -0.8962
  483DG     H1511101   0.365   1.040   0.969 -1.8274  0.3457 -1.2725
  483DG     H1611102   0.249   0.951   1.061  0.3656 -0.6211  0.6367
  483DG     C1711103   0.368   0.883   0.629  0.6507  0.1672 -0.0360
  483DG     C1811104   0.288   0.886   0.850  0.6099  0.1589  0.7013
  483DG     O1911105   0.381   0.941   0.754  0.1927  0.0507 -0.4092
  483DG     H2011106   0.392   0.777   0.642 -1.0207 -0.1278  0.8944
  483DG     H2111107   0.263   0.894   0.603 -0.2028 -2.0017  2.0989
  483DG     H2211108   0.284   0.777   0.860  0.5318  0.1787  0.8790
  483DG     H2311109   0.187   0.908   0.817 -0.5115 -2.0310  2.3470
  484DG      C111110   4.157   3.874   1.141  0.4722  0.3332  0.4461
  484DG      C211111   3.868   3.069   0.901 -0.3094  0.1440  0.3857
  484DG      H311112   4.088   3.957   1.124  0.5277  0.1808 -0.5824
  484DG      H411113   4.199   3.857   1.042  2.7618  1.1953  1.2141
  484DG      H511114   4.239   3.900   1.209  1.1504  1.1597 -0.6633
  484DG      H611115   3.812   2.976   0.915  0.6025 -0.2827  1.3791
  484DG      H711116   3.814   3.139   0.838 -0.8456 -1.7231 -1.3343
  484DG      H811117   3.961   3.042   0.851 -1.4644  0.3349 -1.9553
  484DG      O911118   4.096   3.753   1.182  0.3852 -0.1212  0.3683
  484DG     O1011119   3.912   3.134   1.017 -0.2681  0.0265  0.6569
  484DG     C1111120   4.189   3.648   1.195 -0.1465 -0.6006 -0.0743
  484DG     C1211121   3.970   3.269   1.003  0.6795  0.1627  1.1491
  484DG     H1311122   4.263   3.659   1.273 -2.2466  1.2002  1.7797
  484DG     H1411123   4.239   3.638   1.098  1.4429 -0.9531  0.7447
  484DG     H1511124   3.900   3.334   0.950  0.9024  0.7853  1.5972
  484DG     H1611125   4.066   3.264   0.951 -0.5664 -0.3714 -1.2334
  484DG     C1711126   4.116   3.525   1.224  1.0557 -0.1954 -1.3135
  484DG     C1811127   4.005   3.332   1.136  0.0399  0.4911 -0.0121
  484DG     O1911128   4.051   3.466   1.116 -0.4518 -0.1078 -0.0406
  484DG     H2011129   4.051   3.544   1.309  1.9742  0.6880 -0.7930
  484DG     H2111130   4.188   3.449   1.253  0.5061  0.4203  2.0247
  484DG     H2211131   3.920   3.332   1.205 -0.2534 -2.0808 -0.3024
  484DG     H2311132   4.083   3.280   1.191 -1.1903 -0.7560  0.6056
  485DG      C111133   5.449   3.280   4.469 -0.4210 -0.3954  0.7359
  485DG      C211134   5.864   2.870   4.139  0.3465 -0.1391  0.3947
  485DG      H311135   5.410   3.381   4.455 -0.3483 -0.6635 -1.7585
  485DG      H411136   5.503   3.272   4.563 -1.1435 -0.8332  1.1256
  485DG      H511137   5.370   3.205   4.463 -0.3568 -0.5183  1.3448
  485DG      H611138   5.947   2.816   4.093  1.1056  1.5476 -0.3000
  485DG      H711139   5.880   2.847   4.244  0.4931  0.0569  0.4145
  485DG      H811140   5.779   2.818   4.092 -0.8167  2.3943 -0.5147
  485DG      O911141   5.547   3.255   4.369 -0.2098 -0.5717 -0.4902
  485DG     O1011142   5.858   3.008   4.107  0.0868 -0.3746 -0.0802
  485DG     C1111143   5.631   3.365   4.359  0.3039  0.1525  0.1877
  485DG     C1211144   5.967   3.080   4.164  0.7694 -0.0425 -0.3044
  485DG     H1311145   5.682   3.380   4.454 -0.2384 -1.2761  0.7233
  485DG     H1411146   5.569   3.455   4.346  1.5703  0.9969 -0.1954
  485DG     H1511147   6.041   3.072   4.084 -0.3000 -1.4370 -1.2114
  485DG     H1611148   6.000   3.031   4.255 -0.6458 -0.3572  0.0630
  485DG     C1711149   5.741   3.349   4.250 -0.4130 -0.1189 -0.2907
  485DG     C1811150   5.935   3.227   4.189 -0.5014 -0.1163  0.5986
  485DG     O1911151   5.821   3.236   4.282 -0.1661  0.6067  0.3882
  485DG     H2011152   5.807   3.436   4.248 -1.7018  0.9224  0.4062
  485DG     H2111153   5.684   3.341   4.158 -1.4622 -2.4050  0.4809
  485DG     H2211154   6.017   3.279   4.238 -0.5243  0.6346 -0.1284
  485DG     H2311155   5.912   3.269   4.091  0.9952  2.3619  1.2184
  486DG      C111156   2.343   5.303   0.014  0.0842  0.1451  0.8079
  486DG      C211157   1.897   5.704   0.333 -0.3441 -1.1422 -0.5325
  486DG      H311158   2.332   5.207   0.065 -0.6753  0.6019  1.5329
  486DG      H411159   2.435   5.305  -0.045  0.8697 -1.2119  1.9283
  486DG      H511160   2.260   5.310  -0.057  0.5375 -0.2943  0.2212
  486DG      H611161   1.843   5.638   0.264  2.6079 -2.3076 -1.9201
  486DG      H711162   1.885   5.646   0.424 -0.6809 -0.4170 -0.1073
  486DG      H811163   1.850   5.800   0.353  0.6612 -0.7058 -0.2282
  486DG      O911164   2.324   5.413   0.091 -0.0455  0.0612  0.4313
  486DG     O1011165   2.030   5.713   0.283 -0.1275  0.2664 -0.4643
  486DG     C1111166   2.429   5.421   0.188  0.1969  0.2893 -0.4744
  486DG     C1211167   2.133   5.732   0.380 -0.7728 -0.4069  0.5071
  486DG     H1311168   2.532   5.410   0.156  0.9685  0.1838  1.8703
  486DG     H1411169   2.400   5.348   0.263  0.9968  1.1640  0.7174
  486DG     H1511170   2.129   5.653   0.456  0.4188 -1.5810 -0.6007
  486DG     H1611171   2.121   5.826   0.433 -2.2257 -1.7691  2.7669
  486DG     C1711172   2.424   5.552   0.246  0.7935 -0.1433 -0.5870
  486DG     C1811173   2.274   5.711   0.327  0.0381  0.0439  0.0798
  486DG     O1911174   2.290   5.577   0.287  0.0306 -0.3840 -0.8222
  486DG     H2011175   2.456   5.626   0.172  2.3422  0.9123  1.0494
  486DG     H2111176   2.501   5.557   0.323 -1.5423 -0.2520  1.9130
  486DG     H2211177   2.288   5.775   0.240 -1.0252 -0.3442 -0.3901
  486DG     H2311178   2.341   5.740   0.408 -1.3070 -2.3457  2.1744
  487DG      C111179   1.122   4.230   2.075  0.0347 -0.2370 -1.0846
  487DG      C211180   0.890   4.488   1.289 -0.5905  0.2663  0.2125
  487DG      H311181   1.185   4.277   2.150  0.8493 -1.6363 -0.8629
  487DG      H411182   1.174   4.155   2.015 -2.0258 -1.3215 -1.6451
  487DG      H511183   1.040   4.174   2.121  0.5812  0.0873  0.3090
  487DG      H611184   0.967   4.435   1.233 -2.0139  1.5676 -3.1894
  487DG      H711185   0.801   4.426   1.276 -1.1082  1.2684 -1.2523
  487DG      H811186   0.867   4.577   1.231  0.7018  0.0185 -0.7436
  487DG      O911187   1.080   4.331   1.992  0.5055  0.0183  0.3658
  487DG     O1011188   0.931   4.518   1.420 -0.3186  0.0587  0.3717
  487DG     C1111189   1.194   4.391   1.936  0.4555 -0.4576  0.1266
  487DG     C1211190   0.987   4.429   1.513  0.1796 -0.0772  0.1456
  487DG     H1311191   1.269   4.323   1.894 -0.6888 -2.2172  0.7985
  487DG     H1411192   1.237   4.444   2.021 -1.1746 -0.1877  0.8092
  487DG     H1511193   1.071   4.371   1.473 -2.0377 -2.5988 -1.1266
  487DG     H1611194   0.919   4.349   1.541 -0.5499  0.4840  0.0179
  487DG     C1711195   1.150   4.495   1.842  0.5449 -0.4925  0.3406
  487DG     C1811196   1.051   4.515   1.621 -0.0549 -0.0475 -0.9059
  487DG     O1911197   1.091   4.430   1.729 -0.1663 -0.4407 -0.1852
  487DG     H2011198   1.230   4.563   1.812  0.2422 -0.3979 -0.2637
  487DG     H2111199   1.074   4.550   1.897 -0.0452 -1.0640  0.1099
  487DG     H2211200   1.143   4.565   1.590  0.3937 -0.4765 -0.2929
  487DG     H2311201   0.970   4.573   1.665  2.4910  2.5251  0.7818
  488DG      C111202   0.500   3.469   3.839 -0.4821  0.3494 -0.6842
  488DG      C211203   0.830   3.882   4.326 -0.3441 -0.3869 -0.4787
  488DG      H311204   0.409   3.510   3.882  0.0560  0.8278  0.0281
  488DG      H411205   0.485   3.363   3.856  2.3506  0.1212  1.0572
  488DG      H511206   0.523   3.493   3.735  1.3946 -0.9029 -0.6081
  488DG      H611207   0.875   3.874   4.425  2.2097 -0.8738 -1.6000
  488DG      H711208   0.878   3.961   4.268 -0.1217  0.3489  0.6644
  488DG      H811209   0.725   3.911   4.334 -0.5146 -1.0147 -0.4088
  488DG      O911210   0.617   3.495   3.919  0.5335  0.1642 -0.2340
  488DG     O1011211   0.834   3.759   4.254  0.2349  0.1068  0.8519
  488DG     C1111212   0.741   3.438   3.881 -0.1547 -0.5118 -0.2190
  488DG     C1211213   0.963   3.705   4.237  0.2636  0.1271  0.4419
  488DG     H1311214   0.771   3.508   3.803 -0.2631 -1.7328 -1.3742
  488DG     H1411215   0.743   3.334   3.850 -0.0548  0.2010 -2.8471
  488DG     H1511216   1.008   3.693   4.336 -2.8624 -0.6685  1.9278
  488DG     H1611217   1.021   3.766   4.168  2.3234  0.3775  2.3014
  488DG     C1711218   0.839   3.435   3.998 -0.8317  0.2899  0.2950
  488DG     C1811219   0.948   3.564   4.173 -0.0414  0.2168 -0.2545
  488DG     O1911220   0.849   3.564   4.067 -0.3680 -0.1829 -0.0829
  488DG     H2011221   0.937   3.409   3.958 -1.9093 -0.4474 -2.0307
  488DG     H2111222   0.805   3.362   4.071 -0.1992  0.1948  0.5021
  488DG     H2211223   1.040   3.523   4.132  0.3838  0.8759  0.0224
  488DG     H2311224   0.905   3.498   4.249  0.0526 -0.5894 -0.8932
  489DG      C111225   1.437   1.265   0.634  0.2772 -0.1466 -0.2171
  489DG      C211226   1.793   0.800   0.929  0.4803 -0.7049  0.4929
  489DG      H311227   1.351   1.286   0.570 -1.1881  0.6141  1.8939
  489DG      H411228   1.535   1.295   0.596 -0.8533  0.1192 -3.2149
  489DG      H511229   1.409   1.316   0.726  0.5950  2.2798 -1.3931
  489DG      H611230   1.851   0.892   0.922  2.6322 -1.9753  0.7741
  489DG      H711231   1.803   0.746   1.023  0.2486 -2.4759 -0.4643
  489DG      H811232   1.838   0.744   0.847  0.9452 -0.3024  0.4693
  489DG      O911233   1.435   1.126   0.640 -0.1702  0.1883 -0.1331
  489DG     O1011234   1.659   0.823   0.891 -0.0479  0.9675 -0.0400
  489DG     C1111235   1.315   1.081   0.696 -0.8084 -0.1868  0.0648
  489DG     C1211236   1.570   0.712   0.904 -0.4794 -0.5644 -0.0450
  489DG     H1311237   1.241   1.097   0.619 -0.5634  0.5843 -0.0184
  489DG     H1411238   1.284   1.141   0.781 -2.9961 -0.1490 -0.7188
  489DG     H1511239   1.534   0.705   1.007 -0.9892 -2.2628 -0.3033
  489DG     H1611240   1.619   0.619   0.877  0.2492 -0.4626  0.8814
  489DG     C1711241   1.323   0.928   0.740 -0.5722  0.6797  0.4845
  489DG     C1811242   1.451   0.750   0.819  0.3072  0.5926  0.4848
  489DG     O1911243   1.430   0.892   0.819 -0.2626  0.0557  0.0162
  489DG     H2011244   1.315   0.875   0.646  1.8408  1.2408 -0.0969
  489DG     H2111245   1.235   0.899   0.798 -1.2719  0.1578 -0.8195
  489DG     H2211246   1.466   0.728   0.713 -0.2329  0.4963  0.4227
  489DG     H2311247   1.366   0.690   0.853  1.1436 -0.8793  0.0828
  490DG      C111248   1.912   5.207   1.100 -0.5670 -0.6448 -0.1663
  490DG      C211249   2.045   5.902   1.108 -0.0351  0.0762 -0.0602
  490DG      H311250   1.966   5.141   1.032  0.7738 -1.0693  1.2622
  490DG      H411251   1.817   5.238   1.056 -0.8360  1.7337  1.8505
  490DG      H511252   1.895   5.151   1.192  0.2900 -0.7934 -0.0937
  490DG      H611253   2.105   5.972   1.050 -0.4449  1.1158  0.7341
  490DG      H711254   1.943   5.922   1.076 -0.4333  1.0602  1.6667
  490DG      H811255   2.038   5.935   1.212 -1.6949 -0.0753 -0.0883
  490DG      O911256   1.997   5.316   1.127 -0.3652 -0.6920 -0.2545
  490DG     O1011257   2.089   5.772   1.090 -0.6404  0.7620 -0.1448
  490DG     C1111258   2.133   5.262   1.151  0.1731 -0.3077 -0.0594
  490DG     C1211259   2.198   5.749   1.184  0.1403  0.0603  0.3224
  490DG     H1311260   2.172   5.185   1.084  3.1288  1.3430 -0.3855
  490DG     H1411261   2.124   5.219   1.251  1.3547  3.5278  1.9132
  490DG     H1511262   2.167   5.752   1.289  0.5894  3.7621  0.4758
  490DG     H1611263   2.272   5.827   1.169 -0.2855  0.1939 -1.2232
  490DG     C1711264   2.234   5.381   1.157  0.2276  0.4931 -0.1079
  490DG     C1811265   2.264   5.614   1.148  0.0723 -0.0632  0.0699
  490DG     O1911266   2.171   5.504   1.169  0.1645  0.4003  0.2873
  490DG     H2011267   2.296   5.374   1.068 -1.5253  0.7708 -1.3911
  490DG     H2111268   2.299   5.370   1.245 -1.3717 -0.6718  0.9940
  490DG     H2211269   2.310   5.628   1.050 -2.0939  1.5647 -0.7903
  490DG     H2311270   2.349   5.599   1.215 -0.9597 -2.7707  0.8958
  491DG      C111271   2.716   1.661   3.341 -0.1007 -0.4735  0.3066
  491DG      C211272   3.158   2.142   3.048  0.6416  0.0052  0.3411
  491DG      H311273   2.713   1.609   3.245 -0.1997  0.5912 -0.2815
  491DG      H411274   2.611   1.686   3.359  0.7326  1.5574  3.2368
  491DG      H511275   2.766   1.595   3.412  1.6069  0.2364 -0.1829
  491DG      H611276   3.232   2.104   3.118  1.0860  0.2454  0.0100
  491DG      H711277   3.225   2.138   2.962  0.4420  0.8670  0.1423
  491DG      H811278   3.131   2.247   3.055 -0.8504 -0.0329 -3.0890
  491DG      O911279   2.792   1.782   3.330 -0.1697  0.3256 -0.1825
  491DG     O1011280   3.035   2.071   3.038 -0.1459 -0.0917  0.1820
  491DG     C1111281   2.730   1.873   3.240 -0.4840 -0.1103 -0.1745
  491DG     C1211282   2.954   2.099   2.929  0.0502  0.0286  0.0152
  491DG     H1311283   2.646   1.912   3.298 -0.1924 -0.4935  0.5196
  491DG     H1411284   2.690   1.819   3.155 -2.7650  1.7920 -0.4150
  491DG     H1511285   2.967   2.024   2.851 -0.2316  0.4992 -0.4902
  491DG     H1611286   2.985   2.196   2.890  1.1308  0.9361  2.8794
  491DG     C1711287   2.809   1.979   3.178  0.4182 -0.3739  0.3627
  491DG     C1811288   2.804   2.111   2.969 -0.5069 -0.2574  0.2447
  491DG     O1911289   2.762   1.990   3.041 -0.0810 -0.5431 -0.2958
  491DG     H2011290   2.910   1.941   3.195  0.9520  1.5555  1.9848
  491DG     H2111291   2.788   2.072   3.230 -0.5532 -0.5309  0.2548
  491DG     H2211292   2.772   2.201   3.023 -0.4946 -0.4552  0.5861
  491DG     H2311293   2.751   2.116   2.874 -2.9198 -1.5001  1.4170
  492DG      C111294   1.264   5.387   3.364 -0.5078 -1.5017  0.1161
  492DG      C211295   1.622   5.262   3.798 -0.0997 -0.1406 -0.1147
  492DG      H311296   1.289   5.285   3.336  1.9033 -1.0735  0.5164
  492DG      H411297   1.242   5.449   3.276  0.2396  0.2080  1.0941
  492DG      H511298   1.174   5.387   3.426 -0.8249  0.4060 -0.2673
  492DG      H611299   1.703   5.313   3.745 -0.5738  1.0750  0.3027
  492DG      H711300   1.669   5.234   3.892  1.1781 -1.3172 -1.0535
  492DG      H811301   1.597   5.173   3.740 -0.5089 -0.4549  0.5419
  492DG      O911302   1.371   5.433   3.436  0.1463 -0.2226 -0.3245
  492DG     O1011303   1.505   5.347   3.811 -0.0040  0.6844 -0.6477
  492DG     C1111304   1.395   5.574   3.419  0.2535 -0.3964 -0.4757
  492DG     C1211305   1.547   5.476   3.854  0.2337  0.1732 -0.6945
  492DG     H1311306   1.305   5.628   3.445  0.7459  0.0564  0.3549
  492DG     H1411307   1.413   5.594   3.313 -0.6654  2.3334 -0.1907
  492DG     H1511308   1.633   5.485   3.920 -0.9657  1.5418  0.7705
  492DG     H1611309   1.471   5.519   3.919  0.9750  1.5942 -0.7073
  492DG     C1711310   1.517   5.612   3.507 -0.0253  0.3536 -0.0421
  492DG     C1811311   1.577   5.563   3.731 -0.5548  0.1652  0.0464
  492DG     O1911312   1.478   5.551   3.625 -0.3878 -0.4161 -0.2966
  492DG     H2011313   1.499   5.719   3.513 -1.3579  0.1085  0.7535
  492DG     H2111314   1.609   5.585   3.454  0.3571  1.4468  0.0332
  492DG     H2211315   1.565   5.668   3.760 -1.6341 -0.2779  1.3487
  492DG     H2311316   1.676   5.540   3.694 -0.1941  0.6581  0.6757
  493DG      C111317   0.371   4.968   2.709 -0.0252 -0.1723  0.2329
  493DG      C211318   0.071   5.501   2.966  0.1571 -0.4362 -0.1121
  493DG      H311319   0.394   4.920   2.804  0.3104  0.6494  0.5791
  493DG      H411320   0.455   5.036   2.698  0.5810 -0.9569 -0.0586
  493DG      H511321   0.381   4.899   2.625  0.1514 -1.3637  1.1978
  493DG      H611322  -0.002   5.519   3.045  0.4978  0.3549  0.0283
  493DG      H711323   0.161   5.506   3.027  1.8424 -0.9159 -2.4400
  493DG      H811324   0.058   5.576   2.888 -4.2342 -1.7852 -0.9825
  493DG      O911325   0.254   5.047   2.713  0.4341  0.2918 -0.0243
  493DG     O1011326   0.063   5.378   2.910  0.3653  0.3983 -0.1724
  493DG     C1111327   0.144   4.978   2.659 -0.3415 -0.0730  0.6282
  493DG     C1211328  -0.063   5.360   2.842 -0.0302 -0.4081  0.2846
  493DG     H1311329   0.142   4.870   2.673 -1.9211 -0.4254 -1.6500
  493DG     H1411330   0.155   4.986   2.550  1.6676  1.0930  0.8593
  493DG     H1511331  -0.054   5.403   2.743 -0.6329 -0.1867  0.3204
  493DG     H1611332  -0.143   5.411   2.896  0.9546 -1.0913  2.5227
  493DG     C1711333   0.018   5.020   2.728 -0.6108  0.0352 -0.3579
  493DG     C1811334  -0.089   5.212   2.820 -0.0860  0.2269  0.4556
  493DG     O1911335   0.018   5.160   2.742 -0.2070  0.2028 -0.0330
  493DG     H2011336   0.018   4.984   2.831 -0.8642 -0.1248 -0.4126
  493DG     H2111337  -0.074   4.978   2.688 -0.1860 -1.3445  0.0680
  493DG     H2211338  -0.098   5.161   2.916  0.9367 -1.2988 -0.2234
  493DG     H2311339  -0.179   5.195   2.761 -0.0239 -0.9989  0.6983
  494DG      C111340   5.174   3.304   1.919  0.3324  0.0363 -0.1265
  494DG      C211341   5.033   3.970   1.929 -0.4671  0.1845 -0.0799
  494DG      H311342   5.112   3.304   2.009  1.0355 -2.2813  0.4277
  494DG      H411343   5.234   3.214   1.934  1.2951  0.6410 -0.2883
  494DG      H511344   5.106   3.292   1.835  0.1360 -1.0472  0.1720
  494DG      H611345   5.074   4.034   1.850 -0.4098 -0.7145 -0.7916
  494DG      H711346   4.925   3.965   1.925 -0.4116 -2.4982  0.5377
  494DG      H811347   5.054   4.029   2.019  0.6495 -3.2300  2.0736
  494DG      O911348   5.244   3.420   1.917 -0.2984 -0.4445  0.0252
  494DG     O1011349   5.098   3.847   1.951 -0.4893  0.1396  0.4599
  494DG     C1111350   5.336   3.437   2.028  0.3241  0.6975 -0.6409
  494DG     C1211351   5.239   3.867   1.974 -0.3103 -0.3119  0.4114
  494DG     H1311352   5.389   3.347   2.058  0.6047  1.3039  0.7404
  494DG     H1411353   5.294   3.468   2.123  0.3327 -0.3076 -0.2987
  494DG     H1511354   5.245   3.948   2.045 -0.5901  0.4064 -0.3656
  494DG     H1611355   5.300   3.910   1.894 -0.4384 -0.0893  0.4324
  494DG     C1711356   5.426   3.548   1.971  1.1610 -0.1133 -0.2702
  494DG     C1811357   5.323   3.752   2.039  0.7649 -0.6487  0.2145
  494DG     O1911358   5.343   3.659   1.939 -0.3497 -0.9224 -0.0529
  494DG     H2011359   5.481   3.507   1.886  2.0174  1.3108 -0.4342
  494DG     H2111360   5.499   3.568   2.048 -1.7285  0.0328  2.6415
  494DG     H2211361   5.409   3.797   2.087  0.7032  1.1281 -1.2574
  494DG     H2311362   5.268   3.703   2.120 -0.4747 -1.3106 -0.9760
  495DG      C111363   2.422   2.172   4.085 -0.3644  0.6313  0.0103
  495DG      C211364   2.052   1.587   4.189  0.2334  0.1418  0.1083
  495DG      H311365   2.472   2.233   4.010 -1.8235  0.5584 -1.0617
  495DG      H411366   2.493   2.135   4.158 -2.4217 -1.3378  1.1286
  495DG      H511367   2.357   2.228   4.152  0.1381  0.8407  0.3276
  495DG      H611368   1.944   1.580   4.179  0.2767 -3.5607  0.6122
  495DG      H711369   2.095   1.487   4.180  1.4613  0.4864  1.7010
  495DG      H811370   2.076   1.622   4.289 -2.8947  3.2399 -0.0387
  495DG      O911371   2.364   2.060   4.030  0.5139 -0.5928 -0.0497
  495DG     O1011372   2.110   1.677   4.100 -1.0232 -0.3356 -0.5597
  495DG     C1111373   2.295   2.085   3.900  0.6785 -0.1096  0.4103
  495DG     C1211374   2.075   1.650   3.961  0.0952 -1.0180  0.3746
  495DG     H1311375   2.365   2.114   3.821  2.4393 -0.9035  1.6247
  495DG     H1411376   2.215   2.157   3.915  1.5265  0.5441  2.0611
  495DG     H1511377   1.973   1.682   3.940  0.2488 -0.1518  0.8975
  495DG     H1611378   2.081   1.546   3.932 -0.5881 -0.8971 -0.2127
  495DG     C1711379   2.248   1.957   3.848 -0.1058  0.4586 -0.4921
  495DG     C1811380   2.167   1.735   3.879  0.5458  0.6949 -0.6094
  495DG     O1911381   2.178   1.864   3.931  0.0045 -0.1416 -0.1195
  495DG     H2011382   2.338   1.898   3.836  1.2106  1.4671  3.1780
  495DG     H2111383   2.203   1.966   3.749 -1.4198  1.6102  0.1629
  495DG     H2211384   2.261   1.687   3.855  0.6201  0.3956  0.2511
  495DG     H2311385   2.113   1.727   3.785  1.5138  0.2397 -1.1403
  496DG      C111386   4.491   4.578   0.098 -0.7667  0.9541 -0.7495
  496DG      C211387   4.703   5.121  -0.550  0.1015  0.4975  0.2584
  496DG      H311388   4.535   4.478   0.108  0.1854  1.3170 -1.2230
  496DG      H411389   4.391   4.568   0.056 -1.1972  2.5479 -0.1485
  496DG      H511390   4.476   4.628   0.193 -1.1868 -0.3764 -0.0827
  496DG      H611391   4.617   5.173  -0.508 -1.2864 -0.5040 -1.2132
  496DG      H711392   4.791   5.182  -0.530 -0.4918  1.1088  1.0524
  496DG      H811393   4.694   5.116  -0.658  0.5899 -0.8229  0.2637
  496DG      O911394   4.556   4.655   0.003  0.6198 -0.1341  0.3636
  496DG     O1011395   4.715   4.988  -0.495 -0.1077 -0.7220  0.0296
  496DG     C1111396   4.700   4.660   0.008  0.7558  1.2616 -0.4542
  496DG     C1211397   4.692   4.965  -0.363  0.2326 -0.3100  0.1787
  496DG     H1311398   4.750   4.568   0.038 -0.6568  0.4219 -0.5807
  496DG     H1411399   4.740   4.738   0.073  0.4367  0.5933  0.5631
  496DG     H1511400   4.591   4.995  -0.336  0.0814  0.1647 -0.8674
  496DG     H1611401   4.759   5.015  -0.292 -0.1704 -1.0062  1.0692
  496DG     C1711402   4.736   4.681  -0.138 -0.1561 -0.6390  0.0581
  496DG     C1811403   4.717   4.833  -0.316 -0.5616  0.8111  0.0337
  496DG     O1911404   4.696   4.815  -0.180  0.2390  0.3723  0.2640
  496DG     H2011405   4.690   4.604  -0.201  1.0877 -1.6764  0.3853
  496DG     H2111406   4.844   4.676  -0.138 -0.1493 -2.6562  2.5650
  496DG     H2211407   4.654   4.770  -0.380 -0.4494  0.7588 -0.0257
  496DG     H2311408   4.821   4.803  -0.325 -0.8996 -1.4573  2.4207
  497DG      C111409   3.887   0.396   2.606  0.2259  0.6781 -0.0526
  497DG      C211410   3.935   0.736   2.035  0.7176 -0.2272 -0.0208
  497DG      H311411   3.964   0.454   2.657 -0.7311 -1.7012  4.7612
  497DG      H411412   3.933   0.327   2.535  0.2110  0.0498  0.5294
  497DG      H511413   3.836   0.344   2.688 -2.1130  0.3235 -1.6338
  497DG      H611414   4.013   0.782   2.095 -0.2586  0.7959  0.5046
  497DG      H711415   3.989   0.656   1.985  1.1415 -0.7371  1.2256
  497DG      H811416   3.890   0.814   1.973 -2.6759 -1.5566  0.5862
  497DG      O911417   3.793   0.481   2.535 -0.3702 -0.1632 -0.8945
  497DG     O1011418   3.845   0.687   2.125  0.1286  0.3067 -0.6414
  497DG     C1111419   3.686   0.400   2.485  1.0193  0.3862  0.6800
  497DG     C1211420   3.743   0.602   2.068 -0.8710 -0.4012  0.2291
  497DG     H1311421   3.612   0.385   2.563  0.1876  0.6992 -0.0287
  497DG     H1411422   3.705   0.305   2.435 -0.4616  1.3936 -2.0261
  497DG     H1511423   3.797   0.514   2.033  0.6400  0.3864  0.4868
  497DG     H1611424   3.703   0.654   1.981  1.6957  0.6941 -0.3868
  497DG     C1711425   3.615   0.487   2.379  0.2974 -0.0994  0.4622
  497DG     C1811426   3.643   0.575   2.171 -0.1298 -0.1342 -0.5347
  497DG     O1911427   3.701   0.508   2.281 -0.6378  0.0958  0.4546
  497DG     H2011428   3.575   0.582   2.415 -1.0839 -0.5403  0.1550
  497DG     H2111429   3.541   0.420   2.335  0.3549  0.9714 -1.3636
  497DG     H2211430   3.599   0.671   2.197 -2.8719 -1.4270 -0.0359
  497DG     H2311431   3.560   0.511   2.141 -1.3847  0.2388  1.9533
  498DG      C111432   3.402   1.506   4.436  0.0701 -0.0521 -0.6447
  498DG      C211433   2.847   2.013   4.435 -0.4244  0.9429  0.2370
  498DG      H311434   3.381   1.522   4.542  3.0054 -1.5484  0.2825
  498DG      H411435   3.498   1.557   4.422  0.1532 -0.6267 -2.3123
  498DG      H511436   3.432   1.403   4.420  1.0073  0.0833  0.1134
  498DG      H611437   2.772   2.056   4.368  0.5261 -0.3589 -1.7637
  498DG      H711438   2.814   2.004   4.539 -1.6807 -0.8568 -0.2622
  498DG      H811439   2.926   2.088   4.439 -0.9475  1.5094  0.1479
  498DG      O911440   3.307   1.554   4.346 -0.4449  0.2703 -0.3340
  498DG     O1011441   2.887   1.894   4.378 -0.0036  0.1582  0.1594
  498DG     C1111442   3.176   1.504   4.368 -0.1591 -0.1624 -0.3133
  498DG     C1211443   2.944   1.918   4.247  0.1486 -0.5515  0.2529
  498DG     H1311444   3.159   1.523   4.474  0.1734 -1.8220  0.0645
  498DG     H1411445   3.157   1.400   4.344 -1.6557  0.1998 -0.8384
  498DG     H1511446   3.021   1.993   4.266 -1.4510  1.7519 -1.6989
  498DG     H1611447   2.871   1.964   4.180  0.8326 -0.7724 -0.6552
  498DG     C1711448   3.079   1.574   4.263  0.1410 -0.1422  0.3327
  498DG     C1811449   3.002   1.785   4.189  0.2554 -0.5825  0.5296
  498DG     O1911450   3.070   1.719   4.285 -0.6053  0.1809  0.4484
  498DG     H2011451   2.978   1.534   4.260 -0.1324  0.5951 -0.9871
  498DG     H2111452   3.104   1.551   4.159 -2.7336  3.3692 -1.3487
  498DG     H2211453   2.924   1.724   4.145 -0.1234  0.8328 -0.8847
  498DG     H2311454   3.062   1.808   4.100 -1.2989  0.8956 -0.2098
  499DG      C111455   3.981   3.361   3.080  0.1883  0.0313  0.3730
  499DG      C211456   3.367   2.892   3.463  0.2258 -0.3086  0.6460
  499DG      H311457   3.907   3.433   3.113 -1.5058 -1.1125 -0.7273
  499DG      H411458   4.028   3.410   2.995 -1.2065 -0.2732 -0.6269
  499DG      H511459   4.063   3.353   3.151  1.4371  1.3171 -0.8686
  499DG      H611460   3.389   2.857   3.563 -1.5114 -1.0023  0.8183
  499DG      H711461   3.285   2.964   3.471  0.5075  0.2831 -1.2026
  499DG      H811462   3.328   2.811   3.401 -0.0078 -0.0636  0.4644
  499DG      O911463   3.920   3.235   3.053 -0.0720 -0.4309 -0.0574
  499DG     O1011464   3.476   2.947   3.399 -0.2462  0.6473  0.6169
  499DG     C1111465   3.807   3.207   3.146  0.4887  0.0000 -0.0158
  499DG     C1211466   3.583   2.852   3.391  1.0523 -0.6198  0.6406
  499DG     H1311467   3.714   3.256   3.119 -0.7699 -0.4776  3.1487
  499DG     H1411468   3.831   3.252   3.242 -0.0938  1.0614 -0.3542
  499DG     H1511469   3.552   2.750   3.370  0.3974 -0.1346 -0.9136
  499DG     H1611470   3.627   2.843   3.490  1.0948  0.5755  0.7460
  499DG     C1711471   3.784   3.058   3.162 -0.5714  0.0007  0.2926
  499DG     C1811472   3.680   2.886   3.283 -0.0863 -0.3789  0.3234
  499DG     O1911473   3.716   3.024   3.275 -0.5181 -0.3168  0.5043
  499DG     H2011474   3.882   3.011   3.166 -1.1764 -1.8933 -3.2029
  499DG     H2111475   3.728   3.016   3.078  1.7156 -0.9244 -0.8482
  499DG     H2211476   3.768   2.821   3.280  0.9448  0.8759  1.9581
  499DG     H2311477   3.627   2.869   3.189  0.9356  0.9235 -0.5198
  500DG      C111478   2.737   5.167   2.790  0.1764  0.1250 -0.8201
  500DG      C211479   2.455   5.812   2.399  0.5049  0.0499 -0.3515
  500DG      H311480   2.797   5.125   2.710  1.9874 -0.1252  0.5822
  500DG      H411481   2.680   5.089   2.840 -1.1692  1.6032  0.0545
  500DG      H511482   2.798   5.215   2.867 -0.1997 -0.5242 -0.0929
  500DG      H611483   2.467   5.776   2.297 -0.5319 -0.9628 -0.1281
  500DG      H711484   2.357   5.853   2.423  0.9017 -1.1151  4.2594
  500DG      H811485   2.542   5.877   2.413  1.7181 -1.5287 -0.2495
  500DG      O911486   2.647   5.273   2.748  0.0780 -0.2147 -0.3759
  500DG     O1011487   2.460   5.691   2.475  0.0248  0.0402  0.5738
  500DG     C1111488   2.549   5.218   2.663  0.2434  0.1652 -0.0112
  500DG     C1211489   2.587   5.625   2.460 -0.6056  0.3150  0.2505
  500DG     H1311490   2.506   5.132   2.715  1.1841  0.6158  1.5933
  500DG     H1411491   2.598   5.164   2.582 -2.4551 -0.8257 -1.0625
  500DG     H1511492   2.671   5.690   2.484  0.5561 -0.7527 -0.7589
  500DG     H1611493   2.603   5.588   2.358  2.2639 -1.1056  1.1094
  500DG     C1711494   2.446   5.327   2.622  0.3041 -0.3732  0.1526
  500DG     C1811495   2.595   5.511   2.563  0.1432  0.2651 -0.1471
  500DG     O1911496   2.499   5.411   2.520  0.0031  0.0880 -0.2421
  500DG     H2011497   2.421   5.384   2.711  1.4906  0.0843  0.2068
  500DG     H2111498   2.361   5.272   2.580  1.3205 -1.9051  0.0084
  500DG     H2211499   2.699   5.478   2.566  0.9446  2.6413  0.6903
  500DG     H2311500   2.563   5.548   2.660 -1.5635  1.7222 -1.2084
  501DG      C111501   3.595   0.466   3.175  0.4402  0.0224  0.0726
  501DG      C211502   3.864   1.213   2.789  0.6907 -0.9089  0.0582
  501DG      H311503   3.501   0.517   3.155  0.6995  1.8782  3.0042
  501DG      H411504   3.589   0.458   3.283 -2.1608 -1.6954 -0.1054
  501DG      H511505   3.585   0.371   3.122 -0.9373  1.3093 -2.1520
  501DG      H611506   3.952   1.271   2.763 -0.7773  0.5031 -2.0168
  501DG      H711507   3.810   1.196   2.696  2.4050 -0.0907 -1.1481
  501DG      H811508   3.794   1.259   2.859 -0.2318 -2.4439  0.2044
  501DG      O911509   3.705   0.545   3.128  0.2958  0.1810  0.1960
  501DG     O1011510   3.922   1.091   2.841  0.2121  0.0089 -0.5223
  501DG     C1111511   3.718   0.538   2.983 -0.1310  0.2599  0.0802
  501DG     C1211512   3.827   0.986   2.857 -0.7671  0.2161  0.3703
  501DG     H1311513   3.623   0.562   2.935 -1.6600 -1.5508  2.0135
  501DG     H1411514   3.749   0.437   2.956 -2.5252 -0.9287  1.5017
  501DG     H1511515   3.756   0.978   2.775 -0.7106  1.4910  0.1641
  501DG     H1611516   3.748   1.019   2.925 -0.1493  0.7877  0.8343
  501DG     C1711517   3.827   0.634   2.934 -0.1718  0.8423  0.1652
  501DG     C1811518   3.890   0.856   2.892  0.5130  0.1263 -0.0394
  501DG     O1911519   3.778   0.764   2.906 -0.5386  0.5929  0.2105
  501DG     H2011520   3.878   0.581   2.854 -0.7632 -1.4579  1.2333
  501DG     H2111521   3.894   0.650   3.019 -0.9550  1.1770  0.7367
  501DG     H2211522   3.975   0.830   2.828  0.0064 -2.2629  0.1548
  501DG     H2311523   3.937   0.851   2.991 -0.3333  0.3179  0.3840
  502DG      C111524   2.837   3.104   0.583  0.1068  0.4179 -0.4143
  502DG      C211525   2.852   2.434   0.830  0.6395 -0.5756 -0.3361
  502DG      H311526   2.780   3.195   0.598 -1.3480 -0.6434  0.9417
  502DG      H411527   2.858   3.102   0.476  1.9182 -0.5969 -0.0821
  502DG      H511528   2.929   3.112   0.641 -0.9410 -0.1792  1.4401
  502DG      H611529   2.812   2.375   0.912  1.7996 -0.7161  0.1404
  502DG      H711530   2.850   2.372   0.740  1.6612 -0.0400 -0.7368
  502DG      H811531   2.951   2.477   0.846  0.4350 -0.7549  1.5461
  502DG      O911532   2.762   2.990   0.626 -0.0929 -0.3730 -0.1709
  502DG     O1011533   2.770   2.554   0.799 -0.3622 -0.8492 -0.0205
  502DG     C1111534   2.644   2.963   0.546  0.7362  0.0137 -0.1087
  502DG     C1211535   2.638   2.525   0.753  0.0473  0.1089  0.4295
  502DG     H1311536   2.685   2.909   0.461  2.8721 -1.5480  1.7613
  502DG     H1411537   2.594   3.050   0.504 -0.1797 -0.3591  0.1906
  502DG     H1511538   2.580   2.451   0.808 -2.9841  2.3230  0.4607
  502DG     H1611539   2.645   2.484   0.652  3.4202 -1.4336  1.1482
  502DG     C1711540   2.550   2.863   0.615  0.0478 -0.0230  0.4081
  502DG     C1811541   2.556   2.656   0.734 -1.5627  0.1708 -0.6728
  502DG     O1911542   2.623   2.741   0.640 -0.2644 -0.5179  0.6348
  502DG     H2011543   2.469   2.826   0.552 -0.5535  0.5426  0.8277
  502DG     H2111544   2.508   2.905   0.706 -1.9653  0.9410 -0.8926
  502DG     H2211545   2.459   2.632   0.689 -0.5495 -0.6888 -2.4952
  502DG     H2311546   2.545   2.710   0.828 -2.9431 -0.8833 -0.2050
  503THF     O111547   5.332   1.944   1.455  0.2654  0.0242 -0.0319
  503THF     C211548   5.469   1.923   1.475 -0.1058 -0.3064  0.7132
  503THF     C311549   5.286   2.018   1.558  1.1153 -0.1612  0.5804
  503THF     H411550   5.514   1.890   1.381  0.3130 -0.5846  1.0086
  503THF     H511551   5.482   1.846   1.551  0.1254  1.2566  2.3264
  503THF     H611552   5.197   2.076   1.533  0.7124 -0.5156  1.1511
  503THF     H711553   5.254   1.951   1.639  1.4088 -0.4407  0.4644
  503THF     C811554   5.403   2.109   1.588  0.0289 -0.8308 -0.6337
  503THF     C911555   5.521   2.060   1.514 -0.1331 -0.3424 -0.1291
  503THF    H1011556   5.428   2.105   1.694 -2.0661  3.5501  0.2391
  503THF    H1111557   5.381   2.214   1.571 -0.0341 -1.0923 -2.3214
  503THF    H1211558   5.538   2.122   1.426  0.4292 -0.6359 -0.2284
  503THF    H1311559   5.604   2.046   1.583 -1.0314  0.0837  1.0739
  504THF     O111560   4.526   2.318   0.084 -0.4323 -0.0664 -0.5824
  504THF     C211561   4.460   2.441   0.099  0.1735 -0.2152  0.5139
  504THF     C311562   4.597   2.309   0.205  0.3501 -0.0733 -0.1684
  504THF     H411563   4.389   2.455   0.018  0.2792 -2.1918  0.0121
  504THF     H511564   4.536   2.518   0.085 -2.1573  1.8155 -1.9419
  504THF     H611565   4.626   2.205   0.214  1.9233  0.3417 -0.0836
  504THF     H711566   4.687   2.370   0.200  0.4493 -0.1013  1.1403
  504THF     C811567   4.498   2.357   0.309 -0.0258 -0.3052  0.0177
  504THF     C911568   4.403   2.447   0.233 -1.0053 -0.3839  0.2040
  504THF    H1011569   4.547   2.423   0.382 -0.9662  1.4032 -0.8376
  504THF    H1111570   4.451   2.274   0.362 -1.1011  1.7518  2.5641
  504THF    H1211571   4.304   2.408   0.212 -0.9420  1.0875 -3.5348
  504THF    H1311572   4.390   2.550   0.265 -4.8917 -0.1697 -1.6402
  505THF     O111573   4.392   0.753   3.837  0.6782  0.1213 -0.1951
  505THF     C211574   4.288   0.660   3.875 -0.5213  0.0040  0.0762
  505THF     C311575   4.330   0.875   3.798 -0.2044 -0.0667 -0.4636
  505THF     H411576   4.317   0.573   3.933  2.7804 -0.6671 -2.2683
  505THF     H511577   4.247   0.624   3.780 -1.6223  0.2801  0.4363
  505THF     H611578   4.398   0.959   3.813  1.1312 -0.9787 -1.2043
  505THF     H711579   4.313   0.854   3.692 -3.1043  2.0898 -0.5501
  505THF     C811580   4.203   0.880   3.878  0.0303 -0.6803  0.3343
  505THF     C911581   4.190   0.747   3.953  0.0172 -0.0907 -0.1354
  505THF    H1011582   4.116   0.884   3.812  0.4012 -0.9316 -0.1678
  505THF    H1111583   4.200   0.964   3.948  0.1293 -1.7205  1.6129
  505THF    H1211584   4.223   0.738   4.056 -2.3364 -3.0017  0.4786
  505THF    H1311585   4.090   0.707   3.968  0.2206  0.4209  3.6142
  506THF     O111586   4.429   5.350   4.928  0.3335 -0.3021  0.0211
  506THF     C211587   4.416   5.358   4.789 -0.9640 -0.0547  0.5300
  506THF     C311588   4.297   5.334   4.981  0.3451 -0.0874  0.6086
  506THF     H411589   4.454   5.265   4.748  0.4869  0.9952 -0.5964
  506THF     H511590   4.484   5.437   4.758 -0.7145 -1.1349 -1.8855
  506THF     H611591   4.273   5.249   5.045  1.9248 -1.5449 -0.6353
  506THF     H711592   4.288   5.429   5.034  1.4771 -0.9804  2.4844
  506THF     C811593   4.199   5.329   4.862  0.4575 -0.3296 -0.2057
  506THF     C911594   4.276   5.375   4.742 -0.4438  0.1117  0.0385
  506THF    H1011595   4.109   5.390   4.873  1.2095  1.0965 -1.5667
  506THF    H1111596   4.160   5.229   4.845  1.1323 -0.8089  0.9092
  506THF    H1211597   4.256   5.318   4.651  0.3187  0.6661 -0.4956
  506THF    H1311598   4.241   5.478   4.736 -0.6849 -0.0449 -1.7303
  507THF     O111599   2.945   0.329   0.983 -0.1516  0.2073 -0.6438
  507THF     C211600   2.949   0.431   0.880 -0.1854  0.1640 -0.0195
  507THF     C311601   2.976   0.397   1.104 -0.7685  0.1797  0.1385
  507THF     H411602   2.850   0.432   0.835  0.1338  1.4956 -0.7302
  507THF     H511603   3.020   0.409   0.800 -2.2214  0.5884 -2.0269
  507THF     H611604   2.888   0.436   1.154  0.0381  0.8022  1.1219
  507THF     H711605   3.034   0.328   1.166  0.1465  1.1865  0.4449
  507THF     C811606   3.057   0.520   1.066 -0.2136  1.1779  0.1798
  507THF     C911607   2.980   0.560   0.943  0.0507 -0.6465  0.4391
  507THF    H1011608   3.160   0.490   1.047 -0.2099  1.3291 -0.0414
  507THF    H1111609   3.060   0.589   1.150 -0.1876 -0.1698  1.3159
  507THF    H1211610   2.888   0.609   0.975  0.2083 -0.1034  0.0646
  507THF    H1311611   3.028   0.632   0.877 -1.1308  0.3157  0.5969
  508THF     O111612   4.057   2.301   4.529 -0.2466 -0.6841 -0.2891
  508THF     C211613   3.978   2.404   4.580 -0.5029 -0.4945 -0.1960
  508THF     C311614   4.189   2.336   4.576 -0.7863 -0.5897 -0.5567
  508THF     H411615   3.875   2.370   4.594 -0.9206  0.6298 -0.3848
  508THF     H511616   3.973   2.479   4.501 -2.0955  0.4431  0.7345
  508THF     H611617   4.260   2.254   4.569  1.4388  1.2904 -1.2840
  508THF     H711618   4.227   2.418   4.515  0.6758 -0.7900  0.0449
  508THF     C811619   4.162   2.376   4.724  0.0988 -0.3103  0.3572
  508THF     C911620   4.041   2.459   4.703 -0.4700  0.1064  0.1867
  508THF    H1011621   4.237   2.435   4.777  0.7086  0.5079 -1.3578
  508THF    H1111622   4.133   2.291   4.786  1.1002 -0.8367  0.1180
  508THF    H1211623   3.979   2.460   4.792  0.4514 -0.6028  0.8575
  508THF    H1311624   4.083   2.557   4.679  0.7169 -0.6064 -0.7562
  509THF     O111625   3.589   0.203   0.686 -0.0615 -0.0643 -0.5596
  509THF     C211626   3.563   0.085   0.619 -0.0576  1.1295 -0.0747
  509THF     C311627   3.711   0.186   0.756  0.3698  0.3663 -0.6279
  509THF     H411628   3.636   0.072   0.539 -1.3939 -0.5361 -1.1004
  509THF     H511629   3.462   0.083   0.578  0.6339  0.8750 -1.8828
  509THF     H611630   3.802   0.200   0.699  0.0954 -3.0686 -2.1554
  509THF     H711631   3.687   0.253   0.839 -0.0496  1.2134 -1.4203
  509THF     C811632   3.699   0.039   0.805  0.1804 -0.6081  0.2709
  509THF     C911633   3.578  -0.020   0.728  0.1312  0.4417  0.2407
  509THF    H1011634   3.681   0.041   0.913  3.1614 -2.3669  0.9123
  509THF    H1111635   3.791  -0.017   0.788  0.6873  0.6514 -1.3784
  509THF    H1211636   3.594  -0.122   0.692 -2.0812 -0.1886  0.8837
  509THF    H1311637   3.492  -0.023   0.795  0.7187 -1.6947  0.9946
  510THF     O111638   4.367   3.549   0.734 -0.2935  0.3161  0.1967
  510THF     C211639   4.418   3.479   0.618  0.0141  0.1767 -0.2698
  510THF     C311640   4.236   3.507   0.758  0.3880 -0.2282  0.2305
  510THF     H411641   4.527   3.479   0.616  0.0259 -0.6229  0.0865
  510THF     H511642   4.374   3.529   0.532 -1.1593  0.7761  0.6494
  510THF     H611643   4.202   3.518   0.861 -1.1580  1.7797 -0.4177
  510THF     H711644   4.166   3.568   0.700  0.0118 -0.6352  0.2523
  510THF     C811645   4.235   3.358   0.715 -0.0099 -0.6135  0.0458
  510THF     C911646   4.355   3.340   0.632  0.5577  0.0468 -0.1809
  510THF    H1011647   4.136   3.333   0.677 -0.3827 -0.2539  0.7595
  510THF    H1111648   4.241   3.300   0.808 -1.1446 -1.1557 -0.2035
  510THF    H1211649   4.418   3.271   0.689 -0.9615 -0.7801  0.5680
  510THF    H1311650   4.329   3.285   0.542 -1.5694  1.3698 -0.4417
  511THF     O111651   2.522   4.787   4.126 -0.4458 -0.4666 -0.0742
  511THF     C211652   2.459   4.662   4.102 -0.4986 -0.6204 -0.0320
  511THF     C311653   2.448   4.895   4.063  0.1339  1.2712  0.9276
  511THF     H411654   2.381   4.663   4.178  1.5476 -0.5016  2.1911
  511THF     H511655   2.520   4.573   4.117 -1.3936 -1.0859  1.0059
  511THF     H611656   2.359   4.902   4.125 -0.0822  0.3792  0.7387
  511THF     H711657   2.504   4.988   4.055  1.8751  0.2669  1.0017
  511THF     C811658   2.401   4.829   3.934 -0.5707 -0.2968 -0.4228
  511THF     C911659   2.392   4.679   3.967  0.7228  0.1533  0.6217
  511THF    H1011660   2.478   4.838   3.857 -0.3845 -1.0840 -0.3407
  511THF    H1111661   2.310   4.870   3.890  0.6612  0.3071 -2.5991
  511THF    H1211662   2.287   4.649   3.972  0.7078  0.3729  1.8215
  511THF    H1311663   2.431   4.623   3.882  0.9536 -1.6321  1.8396
  512THF     O111664   2.094   0.723   1.393 -0.6482  0.0476 -0.1378
  512THF     C211665   2.136   0.757   1.257 -0.2313  0.4319  0.1202
  512THF     C311666   2.221   0.720   1.477 -0.4868  0.3002  0.4194
  512THF     H411667   2.149   0.866   1.255  1.2219  0.3999  2.9848
  512THF     H511668   2.069   0.720   1.180  0.4458 -0.2827 -0.1352
  512THF     H611669   2.257   0.820   1.501  0.6420  0.0340 -0.0958
  512THF     H711670   2.209   0.676   1.576  1.2171  1.5071  1.1994
  512THF     C811671   2.312   0.640   1.375  0.1895 -0.0161 -0.5081
  512THF     C911672   2.272   0.685   1.238  0.3792 -0.0521 -0.1947
  512THF    H1011673   2.293   0.536   1.399 -1.5041  1.1968  4.6615
  512THF    H1111674   2.416   0.657   1.404 -0.1927  2.4715 -0.3903
  512THF    H1211675   2.338   0.756   1.189  0.7342 -0.0292  0.3112
  512THF    H1311676   2.273   0.603   1.166  1.2571  0.3313 -0.6289
  513THF     O111677   5.134   5.148   5.417  0.1921 -0.4564  1.0616
  513THF     C211678   5.111   5.061   5.524 -0.1194 -0.3131  0.3061
  513THF     C311679   5.150   5.070   5.299  0.0171  0.3634  0.1342
  513THF     H411680   5.072   5.119   5.607 -0.6838 -0.7359  0.3378
  513THF     H511681   5.207   5.016   5.552 -0.6057 -1.2980  0.4278
  513THF     H611682   5.118   5.136   5.219  1.7405  1.2528  0.1344
  513THF     H711683   5.255   5.044   5.288  0.2021  0.5913  1.2434
  513THF     C811684   5.052   4.954   5.314 -0.2850 -0.4755 -0.0253
  513THF     C911685   5.014   4.959   5.460  0.0020  0.1079 -0.0553
  513THF    H1011686   5.082   4.851   5.295 -1.0620 -0.7060 -0.0417
  513THF    H1111687   4.954   4.961   5.267  0.4425 -1.4693 -1.7724
  513THF    H1211688   4.912   4.987   5.484 -0.1580 -0.5844  0.1018
  513THF    H1311689   5.025   4.860   5.505 -1.9334  0.5250  1.4935
  514THF     O111690   0.961   3.486   1.523  0.7991  0.0763 -0.2439
  514THF     C211691   1.090   3.534   1.468  0.1630  0.9217 -0.6436
  514THF     C311692   0.971   3.502   1.658 -0.1423  0.3870 -0.6339
  514THF     H411693   1.070   3.624   1.409 -1.4441  1.2563  0.3267
  514THF     H511694   1.116   3.457   1.396  0.0969  0.6586 -0.3856
  514THF     H611695   0.941   3.606   1.671  1.5494  0.8931 -0.5341
  514THF     H711696   0.905   3.435   1.713 -0.4448  1.1198 -0.0787
  514THF     C811697   1.123   3.479   1.692  0.1360 -0.4171  0.2928
  514THF     C911698   1.189   3.555   1.582 -0.2444 -0.3485 -0.3479
  514THF    H1011699   1.143   3.372   1.692 -0.8346 -0.6016  0.2395
  514THF    H1111700   1.161   3.515   1.788 -0.0491 -1.3556  0.7335
  514THF    H1211701   1.186   3.662   1.601  2.4208  0.0331 -1.6829
  514THF    H1311702   1.292   3.523   1.566 -0.2677  0.1382 -1.5497
  515THF     O111703   4.011   1.605   0.584  0.1512  0.0852 -0.0752
  515THF     C211704   4.004   1.582   0.728  0.5626 -0.4726  0.2669
  515THF     C311705   4.140   1.578   0.546  0.1153  0.5458 -0.4377
  515THF     H411706   3.900   1.565   0.754  0.3957 -1.9378 -1.1714
  515THF     H511707   4.047   1.667   0.781 -0.1273  0.3513 -0.4401
  515THF     H611708   4.139   1.556   0.439 -0.7383  0.9465 -0.5180
  515THF     H711709   4.205   1.664   0.566  1.9530 -1.0700  0.8754
  515THF     C811710   4.189   1.463   0.634 -0.2424  0.1610  0.8448
  515THF     C911711   4.093   1.456   0.751 -0.1008  0.7707 -0.4707
  515THF    H1011712   4.294   1.471   0.665 -0.0806  0.5779  0.2198
  515THF    H1111713   4.185   1.369   0.580  0.5846  0.6350 -0.0791
  515THF    H1211714   4.039   1.361   0.750 -0.2463  0.8485 -1.4342
  515THF    H1311715   4.139   1.470   0.848  1.9920  0.5907 -1.3759
  516THF     O111716   1.525   2.210   2.334  0.3604  0.0068 -0.5459
  516THF     C211717   1.496   2.340   2.381  0.5903  0.9083 -0.5115
  516THF     C311718   1.401   2.175   2.264 -1.3693  0.9093 -0.2616
  516THF     H411719   1.579   2.395   2.424  0.7807  0.4643 -0.3032
  516THF     H511720   1.418   2.338   2.457 -0.3427  2.1857 -1.3861
  516THF     H611721   1.408   2.084   2.203 -1.8130  1.1308 -0.6441
  516THF     H711722   1.332   2.150   2.344  0.4229 -0.1209  1.0259
  516THF     C811723   1.361   2.305   2.199  0.0401  0.5036 -0.0369
  516THF     C911724   1.443   2.412   2.268 -0.3972  0.1618  0.5599
  516THF    H1011725   1.253   2.313   2.191 -0.1650 -1.4831  0.2426
  516THF    H1111726   1.399   2.315   2.097 -2.4863  1.4356 -0.9438
  516THF    H1211727   1.525   2.458   2.213 -0.2768 -0.3377  0.3207
  516THF    H1311728   1.372   2.492   2.289 -0.3146 -0.0862  1.8504
  517THF     O111729   4.755   4.468   3.695  0.2111  0.2185 -0.5612
  517THF     C211730   4.728   4.602   3.661  0.1080  0.7293  0.3854
  517THF     C311731   4.844   4.404   3.608 -0.1692  0.3418  0.0538
  517THF     H411732   4.801   4.670   3.705  0.1453  2.3583 -1.9849
  517THF     H511733   4.628   4.625   3.696 -0.9311 -1.2004 -1.1187
  517THF     H611734   4.944   4.383   3.646 -0.3275 -1.9405 -0.6403
  517THF     H711735   4.803   4.308   3.578 -0.4400  0.5535 -0.2634
  517THF     C811736   4.849   4.489   3.487 -0.5522 -0.4000 -0.1894
  517THF     C911737   4.739   4.594   3.512 -0.1535 -0.4955  1.0572
  517THF    H1011738   4.851   4.431   3.396 -0.6278  0.5501 -0.8111
  517THF    H1111739   4.950   4.531   3.482 -1.3600  1.4979 -4.0705
  517THF    H1211740   4.775   4.691   3.477  1.1940 -1.4398 -0.2947
  517THF    H1311741   4.657   4.556   3.452  0.7598 -1.9660  0.6900
  518THF     O111742   4.451   2.435   0.648  0.1746 -0.2019  0.5376
  518THF     C211743   4.433   2.520   0.761 -0.0511  0.2546 -0.1897
  518THF     C311744   4.345   2.339   0.658 -0.1474 -0.3348  0.4855
  518THF     H411745   4.492   2.610   0.746 -0.2886  0.1782 -1.7458
  518THF     H511746   4.478   2.470   0.847 -0.9552  0.7576  0.5878
  518THF     H611747   4.322   2.293   0.562  1.1917  0.2830 -0.1650
  518THF     H711748   4.360   2.268   0.740 -0.2406 -0.3584  0.4815
  518THF     C811749   4.229   2.427   0.693  0.3455  0.1435  0.8482
  518THF     C911750   4.284   2.540   0.772  0.9817 -0.4380 -0.3713
  518THF    H1011751   4.161   2.365   0.751 -0.0003  0.3800  0.7009
  518THF    H1111752   4.186   2.460   0.599  1.8697 -0.5265 -0.1263
  518THF    H1211753   4.253   2.638   0.735 -0.6234 -0.6486  0.3417
  518THF    H1311754   4.259   2.540   0.878  1.8602 -0.1851 -0.1597
  519THF     O111755   0.232   2.897   1.819  0.3739  0.1345 -0.3656
  519THF     C211756   0.273   2.962   1.942 -0.0545  0.4974 -0.8367
  519THF     C311757   0.114   2.825   1.854  0.0952  0.5719  0.0590
  519THF     H411758   0.337   3.047   1.921  0.9723 -0.8685 -3.6855
  519THF     H511759   0.316   2.877   1.995  0.7346  1.7745  0.6462
  519THF     H611760   0.053   2.814   1.764  0.9415  2.9341 -0.8974
  519THF     H711761   0.141   2.731   1.901  0.3220  0.2949 -0.6114
  519THF     C811762   0.042   2.911   1.960  0.7320  0.3183  0.8181
  519THF     C911763   0.140   3.002   2.022  0.3118 -0.6636  0.2108
  519THF    H1011764  -0.035   2.865   2.021 -0.5428  3.1842  1.5512
  519THF    H1111765  -0.012   2.983   1.899  0.8001  0.4535  0.9167
  519THF    H1211766   0.114   3.108   2.014  0.4162 -0.7223 -1.1177
  519THF    H1311767   0.146   2.973   2.127  1.3226 -0.6281  0.1789
  520THF     O111768   1.033   2.969   0.225 -0.2070  0.4978  0.7463
  520THF     C211769   1.036   2.897   0.349  0.1978 -0.0588  0.2331
  520THF     C311770   0.958   3.092   0.241  0.9288 -0.1501  0.2312
  520THF     H411771   1.131   2.844   0.350  0.7428  0.5215 -4.1258
  520THF     H511772   0.949   2.834   0.368 -0.6078  0.7742 -0.6123
  520THF     H611773   1.020   3.180   0.227 -0.5742  0.8520 -0.4404
  520THF     H711774   0.863   3.102   0.188  1.3616 -0.3288 -0.5900
  520THF     C811775   0.929   3.099   0.387  0.2945  0.1995 -0.5198
  520THF     C911776   1.031   3.009   0.455 -0.4763 -0.4469  0.4893
  520THF    H1011777   0.826   3.065   0.399  0.3078  0.4543  0.4454
  520THF    H1111778   0.914   3.203   0.417  1.9237  0.8010 -1.6407
  520THF    H1211779   1.131   3.049   0.469 -0.5488 -0.7182  1.9083
  520THF    H1311780   0.994   2.961   0.546  0.0233  1.4026  1.7306
  521THF     O111781   0.679   0.423   2.394 -0.2173 -0.3518 -0.4098
  521THF     C211782   0.619   0.538   2.456  0.1074  0.0577 -0.0730
  521THF     C311783   0.568   0.358   2.347 -0.3958  0.0770 -0.5381
  521THF     H411784   0.578   0.604   2.380  1.3407  1.1648  0.1786
  521THF     H511785   0.688   0.600   2.515  0.2472  0.1066 -0.2858
  521THF     H611786   0.515   0.421   2.275  0.4385  4.2666  2.1700
  521THF     H711787   0.611   0.261   2.321 -0.8625 -0.2789 -0.0007
  521THF     C811788   0.478   0.344   2.470  0.1757 -0.8412  0.3635
  521THF     C911789   0.525   0.463   2.551 -0.3740 -0.6993 -0.2554
  521THF    H1011790   0.499   0.250   2.521 -0.7947 -1.1905  0.1349
  521THF    H1111791   0.377   0.355   2.432  0.3283 -1.4266 -0.2449
  521THF    H1211792   0.457   0.535   2.597 -1.7726 -1.0366 -1.6972
  521THF    H1311793   0.585   0.431   2.636 -1.0936  0.8829  0.8999
  522THF     O111794   5.229   1.540   3.832  0.1615 -0.5751 -0.3325
  522THF     C211795   5.157   1.591   3.947 -0.7769 -0.0283  0.3746
  522THF     C311796   5.308   1.648   3.778  0.5482  0.5970  0.3461
  522THF     H411797   5.220   1.602   4.035  0.1912  3.2157 -0.6091
  522THF     H511798   5.071   1.534   3.981 -0.9824  1.0365  1.7202
  522THF     H611799   5.403   1.676   3.824  0.2662  0.5165  0.9795
  522THF     H711800   5.325   1.620   3.674 -1.1089 -0.6798  0.3853
  522THF     C811801   5.210   1.773   3.782 -0.1428  0.5192 -0.9499
  522THF     C911802   5.119   1.731   3.899  0.1422 -0.5044  0.2130
  522THF    H1011803   5.143   1.793   3.698 -0.2122  2.9638 -0.3768
  522THF    H1111804   5.270   1.863   3.786 -0.2671  0.5626  1.1395
  522THF    H1211805   5.131   1.809   3.974  0.7169 -1.6147  1.3072
  522THF    H1311806   5.014   1.731   3.869  0.7623  0.4126 -2.1695
  523THF     O111807   0.057   3.154   3.730  0.5390  0.3979  0.3780
  523THF     C211808   0.117   3.105   3.611 -0.7187  0.3046 -0.8835
  523THF     C311809   0.145   3.116   3.835  0.3958 -0.1662  0.0603
  523THF     H411810   0.088   3.167   3.526 -3.3462 -0.6714 -0.7847
  523THF     H511811   0.101   2.998   3.601  0.3323  0.0004  0.4227
  523THF     H611812   0.120   3.156   3.933 -0.1185  3.8439 -1.5045
  523THF     H711813   0.152   3.009   3.852  2.6165 -0.0935 -0.1869
  523THF     C811814   0.272   3.175   3.791 -0.4797  0.5323 -0.2298
  523THF     C911815   0.268   3.126   3.644 -0.5653 -0.3741  0.5395
  523THF    H1011816   0.361   3.137   3.843 -0.0076  1.4118 -0.3623
  523THF    H1111817   0.261   3.281   3.816 -0.3365  0.2011  1.3395
  523THF    H1211818   0.316   3.205   3.587  1.3658 -1.8212  0.0341
  523THF    H1311819   0.318   3.030   3.634 -1.7696 -1.4004  3.3810
  524THF     O111820   1.379   2.327   5.238 -0.9963 -0.4405  0.5632
  524THF     C211821   1.523   2.337   5.234  0.1508 -0.5205 -0.2732
  524THF     C311822   1.352   2.188   5.227  0.5365 -0.1901  0.9721
  524THF     H411823   1.565   2.302   5.329 -0.9313  2.3902  1.4082
  524THF     H511824   1.559   2.438   5.216  0.8405 -0.9971 -1.7491
  524THF     H611825   1.374   2.136   5.320  1.1735  0.8097  1.4085
  524THF     H711826   1.245   2.188   5.208  0.7635  1.2100 -0.4961
  524THF     C811827   1.441   2.149   5.105  0.6300 -0.3429  0.3347
  524THF     C911828   1.564   2.229   5.131  0.6091 -0.2047 -0.0952
  524THF    H1011829   1.372   2.186   5.029  0.2038 -1.7911 -0.0332
  524THF    H1111830   1.458   2.041   5.096 -3.2640 -0.9818 -1.4477
  524THF    H1211831   1.641   2.162   5.170 -0.2336 -0.7701  0.6503
  524THF    H1311832   1.597   2.276   5.038  2.4185 -1.6074 -0.2326
  525THF     O111833   2.802   1.945   1.336 -0.3496  0.0050 -0.1468
  525THF     C211834   2.662   1.963   1.334  0.6855 -0.4541 -0.5607
  525THF     C311835   2.854   2.041   1.249 -0.3987  0.1715  0.1691
  525THF     H411836   2.612   2.003   1.422  0.2943  0.9435 -1.3896
  525THF     H511837   2.612   1.866   1.326  0.1865 -0.1334 -1.5267
  525THF     H611838   2.870   2.134   1.302 -0.4800  0.5789 -0.5138
  525THF     H711839   2.954   2.015   1.213  0.4967  1.6544  1.4737
  525THF     C811840   2.756   2.053   1.132  0.1468  0.5229  0.2154
  525THF     C911841   2.627   2.026   1.204  0.3570 -0.7843  0.3794
  525THF    H1011842   2.773   1.974   1.058  2.4394  0.1160  1.0849
  525THF    H1111843   2.763   2.149   1.082  0.4080  0.5603  0.3192
  525THF    H1211844   2.592   2.122   1.243  2.4678 -0.5179  1.7453
  525THF    H1311845   2.549   1.968   1.154  1.4729 -2.6355  0.7006
  526THF     O111846   4.718   4.868   2.955 -0.7183  0.3367 -0.1085
  526THF     C211847   4.591   4.863   3.019 -0.5072  0.0445 -0.6689
  526THF     C311848   4.789   4.981   3.011 -0.4439 -0.1383  0.2728
  526THF     H411849   4.561   4.758   3.023 -2.6060  0.5843  2.7662
  526THF     H511850   4.513   4.911   2.960 -0.8669 -0.3860 -0.5557
  526THF     H611851   4.896   4.965   3.002 -0.6454 -1.8963  0.6614
  526THF     H711852   4.755   5.076   2.971 -1.3494 -0.9438 -0.9708
  526THF     C811853   4.757   4.957   3.161  0.3293  0.1826  0.4985
  526THF     C911854   4.611   4.916   3.158 -0.4766 -0.3882  0.0999
  526THF    H1011855   4.782   5.035   3.233  1.9773 -2.7943  3.4035
  526THF    H1111856   4.812   4.868   3.193 -1.4649 -1.5265 -0.9000
  526THF    H1211857   4.582   4.846   3.237  0.5022 -0.7016  0.1912
  526THF    H1311858   4.563   5.014   3.170  1.7274  0.6291  1.3043
  527THF     O111859   5.371   3.086   2.190 -0.2018  0.3418  0.8406
  527THF     C211860   5.448   3.139   2.292  0.8941 -0.5381 -0.3628
  527THF     C311861   5.292   2.979   2.244 -0.5862  0.2552  0.5112
  527THF     H411862   5.482   3.232   2.245 -0.9821  0.2937 -0.1450
  527THF     H511863   5.535   3.081   2.321  0.4323 -0.1462  1.9927
  527THF     H611864   5.209   2.947   2.180 -2.0489  1.4700  1.7398
  527THF     H711865   5.354   2.889   2.248  0.8026  0.9725 -2.2276
  527THF     C811866   5.248   3.038   2.379  0.1517  0.0912  0.7729
  527THF     C911867   5.346   3.152   2.412 -0.2489  0.1199  0.4297
  527THF    H1011868   5.228   2.967   2.459 -1.3873  0.1561  0.4824
  527THF    H1111869   5.154   3.089   2.359  1.1629  1.3942 -0.9184
  527THF    H1211870   5.307   3.253   2.424 -1.2752 -0.3806  1.4117
  527THF    H1311871   5.399   3.117   2.500  0.2217 -1.4688 -0.4540
  528THF     O111872   0.686   2.113   2.958 -0.1672 -0.0307 -0.7705
  528THF     C211873   0.684   2.199   2.847 -0.0152 -0.2936  0.3074
  528THF     C311874   0.654   1.980   2.910  0.3363  0.3720  0.0863
  528THF     H411875   0.778   2.184   2.794  1.2409  0.5812  2.1963
  528THF     H511876   0.691   2.302   2.881 -2.9186  0.0068  0.2553
  528THF     H611877   0.736   1.926   2.863  1.6884  2.0380  0.4260
  528THF     H711878   0.623   1.910   2.988  1.3837  1.7039  1.7822
  528THF     C811879   0.550   2.007   2.805 -0.6672 -0.1050  0.0044
  528THF     C911880   0.561   2.150   2.761  0.0654  0.4274 -0.8139
  528THF    H1011881   0.452   1.978   2.845 -1.5630 -2.1361 -3.2609
  528THF    H1111882   0.564   1.936   2.724 -2.5711 -0.8979  0.3025
  528THF    H1211883   0.573   2.165   2.654 -1.0625  1.2658 -0.8387
  528THF    H1311884   0.479   2.209   2.804  1.9403  1.6076  1.3567
  529THF     O111885   1.173   4.638   2.265 -1.1641 -0.3043  0.0079
  529THF     C211886   1.085   4.626   2.378  0.0006 -0.2220  0.3125
  529THF     C311887   1.110   4.710   2.158  0.1082  1.0262 -1.1879
  529THF     H411888   1.069   4.719   2.433 -1.8742 -0.8555  0.9174
  529THF     H511889   1.113   4.552   2.452  0.5054 -0.0998  0.2501
  529THF     H611890   1.111   4.816   2.186 -0.1291  0.5661  0.7564
  529THF     H711891   1.160   4.702   2.062  0.0518  1.3232 -1.2444
  529THF     C811892   0.969   4.647   2.164 -0.4491 -0.2840 -0.1181
  529THF     C911893   0.950   4.597   2.309  0.0570 -0.0900  0.5025
  529THF    H1011894   0.962   4.565   2.093 -0.7900  0.6611 -1.2307
  529THF    H1111895   0.898   4.720   2.125 -1.1461  0.4082  2.3142
  529THF    H1211896   0.873   4.655   2.360  1.2999  0.2549  2.0589
  529THF    H1311897   0.918   4.492   2.315  3.5752 -1.2256  1.8102
  530THF     O111898   4.912   2.291   1.920 -0.2152  0.7401 -0.5749
  530THF     C211899   4.945   2.430   1.929  0.4912 -0.8146  0.3464
  530THF     C311900   5.006   2.244   1.823 -0.8264 -0.3866 -0.2188
  530THF     H411901   4.885   2.479   2.006 -0.4997 -0.0052 -0.9028
  530THF     H511902   4.924   2.478   1.834 -0.0166 -1.0643  0.3281
  530THF     H611903   5.010   2.135   1.822  0.9165 -0.3741 -2.3363
  530THF     H711904   4.977   2.271   1.722 -1.4119  0.1961  0.1007
  530THF     C811905   5.130   2.316   1.869 -0.7700 -0.7805 -0.4319
  530THF     C911906   5.084   2.426   1.957  0.1939  0.4306 -0.3376
  530THF    H1011907   5.180   2.355   1.781 -2.8278  1.2145 -0.8068
  530THF    H1111908   5.201   2.251   1.921  0.1717  2.1008  2.1742
  530THF    H1211909   5.100   2.406   2.063  1.1897 -2.4234 -0.9311
  530THF    H1311910   5.127   2.524   1.936  0.0688  0.4366 -0.5640
  531THF     O111911   4.800   2.114   2.933 -0.4857 -0.6214 -0.5037
  531THF     C211912   4.919   2.166   2.892 -0.1353  0.4263 -0.4943
  531THF     C311913   4.804   1.976   2.893  1.0980  0.2607 -0.4410
  531THF     H411914   4.996   2.114   2.950 -0.0251  1.5196  0.3713
  531THF     H511915   4.936   2.273   2.899 -1.4522  0.6871 -1.0205
  531THF     H611916   4.879   1.920   2.949 -0.2640 -2.9210 -1.5042
  531THF     H711917   4.713   1.922   2.918 -0.2882  3.2903  1.5979
  531THF     C811918   4.858   1.976   2.748  0.8641 -0.0271  1.0898
  531THF     C911919   4.927   2.106   2.751 -0.3563  0.4697  0.0167
  531THF    H1011920   4.782   1.959   2.671  1.7679 -3.8981  0.8210
  531THF    H1111921   4.931   1.898   2.726  1.1771  0.7175 -0.6655
  531THF    H1211922   5.033   2.081   2.737 -0.5771 -1.9553  2.0295
  531THF    H1311923   4.890   2.165   2.667  1.3861 -1.2907 -2.1188
  532THF     O111924   1.896   3.618   5.155  0.4208 -0.1130 -0.2316
  532THF     C211925   1.891   3.735   5.080 -0.5821 -0.2093 -0.6235
  532THF     C311926   1.983   3.526   5.086 -0.0848  0.8932  0.0107
  532THF     H411927   1.980   3.796   5.094 -0.5795 -0.0322 -1.3627
  532THF     H511928   1.801   3.792   5.101  0.4249  0.9573  0.6949
  532THF     H611929   2.086   3.553   5.111 -0.4738  2.7752 -0.2290
  532THF     H711930   1.962   3.423   5.115 -1.0435  0.1937 -2.9102
  532THF     C811931   1.958   3.546   4.934 -0.7826 -0.4820  0.1088
  532THF     C911932   1.879   3.679   4.940 -0.2157 -0.0714  0.0091
  532THF    H1011933   1.896   3.464   4.900 -0.8964 -0.6320  0.6605
  532THF    H1111934   2.054   3.555   4.884 -1.5092 -2.1556 -1.6815
  532THF    H1211935   1.926   3.750   4.872 -0.1443 -0.3278 -0.2074
  532THF    H1311936   1.775   3.659   4.915 -0.6620 -0.7717  2.2338
  533THF     O111937   4.396   3.068   2.647  0.2543  0.3621  0.3769
  533THF     C211938   4.517   3.137   2.685  0.0658  0.2703  0.2888
  533THF     C311939   4.382   2.950   2.729  0.3986  0.5991  0.4877
  533THF     H411940   4.514   3.246   2.679  1.1160  0.2634 -0.6241
  533THF     H511941   4.596   3.112   2.615  0.9393  2.9273  0.2143
  533THF     H611942   4.281   2.945   2.768 -0.6352  0.3927 -2.0180
  533THF     H711943   4.397   2.862   2.666 -3.3189 -0.7835  1.2616
  533THF     C811944   4.488   2.938   2.840 -0.6182 -0.2782 -0.0313
  533THF     C911945   4.543   3.084   2.826  0.1716  0.4726 -0.3560
  533THF    H1011946   4.569   2.867   2.824  0.6530  0.8145  1.1994
  533THF    H1111947   4.439   2.923   2.936  1.3780 -0.7208  0.9715
  533THF    H1211948   4.505   3.149   2.905 -0.7733 -1.4134  0.7904
  533THF    H1311949   4.652   3.089   2.831  0.2207 -0.8027  0.2536
  534THF     O111950   3.112   5.244   1.104 -0.6154  0.1631  0.1489
  534THF     C211951   3.246   5.191   1.100  0.3034 -0.2879  0.4291
  534THF     C311952   3.132   5.391   1.125 -0.1462 -0.6571  0.0652
  534THF     H411953   3.250   5.090   1.061  0.4730  0.1400 -0.6927
  534THF     H511954   3.282   5.195   1.203 -0.3718  0.6840  0.6454
  534THF     H611955   3.050   5.454   1.090 -1.4837 -2.5813 -0.4241
  534THF     H711956   3.147   5.406   1.232 -0.0933 -0.6619  0.0586
  534THF     C811957   3.253   5.415   1.036 -0.6496 -0.4327  0.0587
  534THF     C911958   3.320   5.284   1.001 -0.3500  0.4882 -0.5621
  534THF    H1011959   3.325   5.483   1.080  0.9739  0.8702 -4.0800
  534THF    H1111960   3.222   5.472   0.949 -0.7407  2.1130  1.6543
  534THF    H1211961   3.311   5.258   0.896  1.1715  1.2268 -0.9055
  534THF    H1311962   3.426   5.297   1.022 -0.2489 -0.8320 -0.1833
  535THF     O111963   3.640   3.074   0.510 -0.3281 -0.0298  0.2151
  535THF     C211964   3.542   3.036   0.420 -0.5453  0.5133  0.7428
  535THF     C311965   3.716   2.960   0.530  0.3683  0.0020  0.1352
  535THF     H411966   3.508   3.132   0.382 -0.0118  0.6865  0.6859
  535THF     H511967   3.459   2.981   0.464 -2.3523  0.6181 -2.2576
  535THF     H611968   3.810   2.976   0.583  1.0855 -0.3900 -0.9832
  535THF     H711969   3.652   2.896   0.591 -1.4373  0.5975 -1.0701
  535THF     C811970   3.738   2.889   0.400  0.1030 -0.4530  0.5103
  535THF     C911971   3.621   2.945   0.320  0.6202  0.2645  0.1075
  535THF    H1011972   3.729   2.783   0.422  1.9418 -0.1984  2.8872
  535THF    H1111973   3.835   2.908   0.354 -0.8535  2.1760 -0.6134
  535THF    H1211974   3.647   3.001   0.230 -0.7342  0.1802 -0.3533
  535THF    H1311975   3.562   2.860   0.287 -1.9458  1.5269  1.2008
  536THF     O111976   4.789   4.024   0.436  0.1119 -0.0970 -0.1976
  536THF     C211977   4.834   4.126   0.351 -0.2193 -0.2052  0.0666
  536THF     C311978   4.718   3.932   0.349 -0.1433  1.0070 -0.0550
  536THF     H411979   4.911   4.176   0.411 -0.9649 -0.8354  1.5662
  536THF     H511980   4.753   4.197   0.331  1.0748  1.6224  0.9740
  536THF     H611981   4.712   3.831   0.389 -1.5998  1.6644  1.4905
  536THF     H711982   4.618   3.968   0.323  0.2700  0.9074 -1.9549
  536THF     C811983   4.797   3.926   0.219 -0.5940  0.8795  0.2931
  536THF     C911984   4.883   4.047   0.222  0.5975 -0.9102 -0.3627
  536THF    H1011985   4.742   3.908   0.126 -1.0970 -1.7599  1.0142
  536THF    H1111986   4.868   3.846   0.242 -0.2341  0.7104 -1.2550
  536THF    H1211987   4.990   4.030   0.239  1.4318  3.3945 -0.1257
  536THF    H1311988   4.869   4.121   0.144  1.7333 -0.5574 -0.2639
  537THF     O111989   3.880   2.775   1.431  0.2272  0.2359  0.0301
  537THF     C211990   3.904   2.638   1.465 -1.0967 -0.2845 -0.4815
  537THF     C311991   3.978   2.814   1.332  0.4124  0.3475  0.5266
  537THF     H411992   3.815   2.590   1.506 -1.0382 -1.2227 -1.3955
  537THF     H511993   3.991   2.642   1.531 -0.4126  0.7377 -1.4035
  537THF     H611994   3.942   2.891   1.264  3.5639  0.8523 -0.7038
  537THF     H711995   4.060   2.867   1.380  0.2131  1.3266 -0.1957
  537THF     C811996   4.031   2.682   1.260 -0.0307 -0.2855 -0.6840
  537THF     C911997   3.951   2.572   1.335  0.2597  0.2964  0.3538
  537THF    H1011998   4.134   2.658   1.284  0.4436  1.8422 -0.4064
  537THF    H1111999   4.001   2.680   1.155 -0.1879 -0.9123 -0.6291
  537THF    H1212000   3.872   2.526   1.276  1.9232  0.5099 -2.2011
  537THF    H1312001   4.017   2.494   1.374 -0.8468 -0.2726  1.1287
  538THF     O112002   3.411   2.447   0.256  0.3895  0.3921  0.4195
  538THF     C212003   3.516   2.350   0.235  0.8068  0.5380 -1.1001
  538THF     C312004   3.445   2.562   0.177 -0.3760 -0.6152  0.2001
  538THF     H412005   3.498   2.247   0.264 -3.2450  1.3894  0.0348
  538THF     H512006   3.598   2.369   0.305  0.5550 -2.2250  0.0730
  538THF     H612007   3.365   2.635   0.169 -1.2726 -1.2809  2.3818
  538THF     H712008   3.528   2.609   0.231  1.0557 -0.7455 -1.7561
  538THF     C812009   3.473   2.503   0.046 -0.7095  0.2346  0.2507
  538THF     C912010   3.544   2.370   0.087  0.2258 -0.6353  0.2605
  538THF    H1012011   3.531   2.554  -0.031  0.4403 -2.4410 -0.7769
  538THF    H1112012   3.381   2.482  -0.010 -1.1164  1.9536  0.2104
  538THF    H1212013   3.507   2.286   0.027  1.7746 -0.9536 -0.3167
  538THF    H1312014   3.650   2.384   0.062  0.1238  0.8258  0.5659
  539THF     O112015   5.391   4.545   2.722 -0.1965  0.3783 -0.0465
  539THF     C212016   5.401   4.677   2.676  0.6455  0.2599  0.1326
  539THF     C312017   5.251   4.507   2.719 -0.8824 -0.6246  0.0823
  539THF     H412018   5.405   4.688   2.567  0.2396 -0.4679  0.0396
  539THF     H512019   5.494   4.722   2.710  1.3248 -0.2483 -0.9698
  539THF     H612020   5.226   4.480   2.617  1.1963 -0.8750 -0.4094
  539THF     H712021   5.251   4.426   2.793  1.4824 -0.5649  0.2438
  539THF     C812022   5.178   4.639   2.748  0.5417 -0.4956 -0.3487
  539THF     C912023   5.275   4.748   2.723  0.7893 -0.1835  0.2658
  539THF    H1012024   5.148   4.647   2.852 -0.1083  2.8060 -0.6685
  539THF    H1112025   5.081   4.657   2.702 -0.4237  0.8530  2.0306
  539THF    H1212026   5.243   4.824   2.652  0.1699 -1.0278 -0.3791
  539THF    H1312027   5.299   4.807   2.811  0.2876 -0.0265  0.2966
  540THF     O112028   2.659   1.365   1.711 -0.1576 -0.3194  0.2103
  540THF     C212029   2.551   1.422   1.782  0.7110  0.2070 -0.0234
  540THF     C312030   2.755   1.341   1.810 -0.4795 -0.0927 -0.3599
  540THF     H412031   2.513   1.344   1.849 -0.1690 -2.2061 -3.1063
  540THF     H512032   2.476   1.465   1.716 -0.7572 -0.2953  1.2525
  540THF     H612033   2.733   1.240   1.845 -0.6342 -0.1588 -0.6479
  540THF     H712034   2.858   1.326   1.776  0.2084  1.4448  0.9161
  540THF     C812035   2.737   1.449   1.921 -0.2186  0.4877  0.2887
  540THF     C912036   2.626   1.530   1.863  0.0966  0.1455 -0.1960
  540THF    H1012037   2.826   1.509   1.936 -0.1276  0.8407 -1.4665
  540THF    H1112038   2.698   1.408   2.014  0.2915  0.5632  0.5377
  540THF    H1212039   2.568   1.580   1.940  1.8573 -0.0250  1.3028
  540THF    H1312040   2.667   1.601   1.791  1.0983  0.3466  0.5571
  541THF     O112041   1.978   4.765   0.002 -0.8780 -0.1507  0.3832
  541THF     C212042   1.882   4.871   0.003  0.2170  0.1297  0.1786
  541THF     C312043   2.103   4.812   0.049 -0.0299  0.4066  0.0916
  541THF     H412044   1.778   4.844   0.021  0.9436 -1.5070  2.2749
  541THF     H512045   1.889   4.919  -0.095 -1.9316 -3.3039 -1.8451
  541THF     H612046   2.167   4.735   0.090  2.3016  1.5328 -1.2505
  541THF     H712047   2.161   4.864  -0.027  0.8965  0.7705  1.0315
  541THF     C812048   2.072   4.921   0.157 -0.2411 -0.1437  0.0060
  541THF     C912049   1.937   4.976   0.108 -0.1156  1.5181 -0.1267
  541THF    H1012050   2.150   4.996   0.156  0.1632 -0.5557  0.2244
  541THF    H1112051   2.062   4.868   0.252  1.0669  0.4686  0.5116
  541THF    H1212052   1.867   4.999   0.189  0.0669 -0.4283  0.6389
  541THF    H1312053   1.951   5.068   0.050 -1.2713  1.3870 -0.6391
  542THF     O112054   0.243   1.381   4.816 -0.6715  0.2562  0.7651
  542THF     C212055   0.342   1.380   4.705  0.0957  0.0129 -0.2949
  542THF     C312056   0.116   1.426   4.769 -0.2533 -0.3913 -0.1815
  542THF     H412057   0.351   1.283   4.655 -2.5898  0.5491 -2.0056
  542THF     H512058   0.440   1.404   4.747 -0.3566 -0.5264  1.1176
  542THF     H612059   0.057   1.349   4.718 -2.6808  1.6210 -0.6605
  542THF     H712060   0.057   1.471   4.849  0.0173  0.5589 -0.4999
  542THF     C812061   0.154   1.539   4.676  0.0069  0.2991 -0.4490
  542THF     C912062   0.291   1.489   4.617 -0.0372  0.4659 -0.1593
  542THF    H1012063   0.169   1.638   4.718  0.8525  0.9202 -2.1299
  542THF    H1112064   0.079   1.536   4.597 -0.7707 -1.1522  0.3059
  542THF    H1212065   0.272   1.445   4.519  1.5502 -2.0708  0.5979
  542THF    H1312066   0.359   1.575   4.613 -0.1172  0.5620  0.4576
  543THF     O112067   1.477   1.966   0.009  0.0234 -0.0839 -0.6425
  543THF     C212068   1.491   1.828   0.021 -0.8935 -0.3182  0.7555
  543THF     C312069   1.607   2.017   0.017 -0.2990  0.0417  0.1320
  543THF     H412070   1.526   1.788  -0.074 -1.0365 -0.2116  0.6579
  543THF     H512071   1.398   1.775   0.041  0.0132 -1.7932  1.1853
  543THF     H612072   1.658   1.993  -0.076  0.5875  0.5569  0.4723
  543THF     H712073   1.601   2.122   0.044 -1.3500 -0.2532  1.1425
  543THF     C812074   1.672   1.933   0.130  0.3090 -0.4528  0.3106
  543THF     C912075   1.581   1.819   0.144 -0.4663 -0.3823 -0.4785
  543THF    H1012076   1.691   2.001   0.213  1.6390 -1.7865  1.1447
  543THF    H1112077   1.764   1.903   0.079 -0.0730 -0.7025 -0.2262
  543THF    H1212078   1.626   1.724   0.174  2.8774  1.5668  1.3533
  543THF    H1312079   1.521   1.844   0.232  1.3349  0.8754  0.4601
  544THF     O112080   0.119   3.441   1.258 -0.5652  0.0659  0.0585
  544THF     C212081   0.072   3.563   1.220  0.2954 -0.7955  0.3202
  544THF     C312082   0.151   3.356   1.153  0.4108 -0.5189 -0.0686
  544THF     H412083   0.142   3.645   1.235 -1.9225  1.0043  1.3708
  544THF     H512084  -0.018   3.587   1.276  0.5496 -1.5809  1.0930
  544THF     H612085   0.248   3.312   1.174  0.9287  0.9423  0.7589
  544THF     H712086   0.061   3.294   1.151 -0.2284  0.3725 -2.2114
  544THF     C812087   0.152   3.455   1.033  0.8132  0.2229  0.3427
  544THF     C912088   0.041   3.554   1.072 -0.1087 -0.8538 -0.0049
  544THF    H1012089   0.134   3.400   0.941  1.5509 -1.4526  1.1607
  544THF    H1112090   0.242   3.517   1.030 -0.6282  2.4270 -2.1557
  544THF    H1212091   0.042   3.648   1.017  0.2890 -0.2015  1.0919
  544THF    H1312092  -0.048   3.493   1.057  0.3100 -1.4375 -0.1501
  545THF     O112093   3.110   3.697   2.170 -0.0400 -0.5939  0.6923
  545THF     C212094   3.201   3.591   2.151 -0.3191 -0.2923 -0.0928
  545THF     C312095   2.979   3.643   2.160 -0.3932 -0.2532 -0.6931
  545THF     H412096   3.228   3.530   2.238  0.0829  0.5249  0.3693
  545THF     H512097   3.300   3.622   2.117  0.7072 -3.3682 -0.2681
  545THF     H612098   2.952   3.599   2.256  1.1575  2.7591  1.2685
  545THF     H712099   2.901   3.717   2.144 -0.3394 -0.4424 -1.9007
  545THF     C812100   2.989   3.542   2.045 -0.4556  0.1510  0.4128
  545THF     C912101   3.137   3.502   2.043 -0.0877  0.0643  0.3578
  545THF    H1012102   2.950   3.582   1.952 -1.0686 -1.1624  0.0689
  545THF    H1112103   2.926   3.456   2.071  1.4923 -1.6517 -0.5253
  545THF    H1212104   3.151   3.398   2.075  1.2099 -0.7971 -2.7179
  545THF    H1312105   3.184   3.509   1.945  1.1353  0.9958  0.9910
  546THF     O112106   5.200   3.715   2.384  0.7340 -0.2920 -0.1758
  546THF     C212107   5.202   3.674   2.515 -0.1495 -0.4331 -0.0082
  546THF     C312108   5.070   3.774   2.367 -0.6514  1.1080  0.4540
  546THF     H412109   5.258   3.753   2.564 -1.0557  0.1460  0.1260
  546THF     H512110   5.271   3.590   2.526  1.0389  0.7518  2.2275
  546THF     H612111   5.095   3.872   2.326  1.7387  0.1043 -0.6795
  546THF     H712112   5.010   3.709   2.303  0.3015  0.6665 -0.0036
  546THF     C812113   4.997   3.776   2.500  0.1173 -0.0563 -0.5379
  546THF     C912114   5.066   3.661   2.575 -0.4363  0.0850  0.4725
  546THF    H1012115   4.891   3.754   2.485  0.2800  0.0898 -2.0942
  546THF    H1112116   5.015   3.874   2.545 -0.7185  0.5418 -1.4649
  546THF    H1212117   5.065   3.662   2.684 -2.1188 -0.0586  0.4761
  546THF    H1312118   5.024   3.566   2.543 -0.9397  0.9340 -1.5528
  547THF     O112119   2.268   0.273   1.533  0.4532  0.1678 -0.5386
  547THF     C212120   2.399   0.229   1.512  0.2785 -0.0890  0.9793
  547THF     C312121   2.269   0.353   1.648  0.2540 -0.1637  0.8467
  547THF     H412122   2.416   0.227   1.404 -0.6484 -0.8499  0.8362
  547THF     H512123   2.418   0.128   1.548 -0.2096  0.0588  1.6797
  547THF     H612124   2.191   0.428   1.656  0.6691  0.7923 -2.5635
  547THF     H712125   2.263   0.289   1.736  1.2783  0.4546  1.3873
  547THF     C812126   2.405   0.428   1.647  0.0323  0.1125  0.1432
  547THF     C912127   2.498   0.322   1.592  0.5801 -0.9552  0.4082
  547THF    H1012128   2.435   0.464   1.745  1.3884 -0.6489  0.0312
  547THF    H1112129   2.409   0.514   1.580  1.6519  0.0316  0.1055
  547THF    H1212130   2.570   0.366   1.523 -0.6790  0.7169  0.1008
  547THF    H1312131   2.537   0.271   1.680 -3.6361 -3.0522  1.3017
  548THF     O112132   5.336   4.187   2.594  0.1858 -0.1788 -0.2095
  548THF     C212133   5.476   4.169   2.569  0.4554 -0.6141  0.0077
  548THF     C312134   5.257   4.100   2.505 -0.2828 -0.0181 -1.1530
  548THF     H412135   5.532   4.161   2.662 -1.7341 -1.3625  1.3365
  548THF     H512136   5.513   4.255   2.514  0.9514 -1.2102 -0.6215
  548THF     H612137   5.221   4.012   2.558  0.0095  0.3478 -0.3178
  548THF     H712138   5.171   4.153   2.465  0.1796  1.5657 -0.1445
  548THF     C812139   5.353   4.041   2.405 -0.4522  0.4353 -0.3905
  548THF     C912140   5.488   4.045   2.485  0.6607  0.2889  0.6614
  548THF    H1012141   5.356   4.099   2.313 -2.1009  0.7501 -0.2768
  548THF    H1112142   5.325   3.942   2.367  1.0197  0.4016 -1.4539
  548THF    H1212143   5.502   3.960   2.551  3.0379 -1.1149 -1.4526
  548THF    H1312144   5.581   4.031   2.429  0.0054  1.1107 -0.6886
  549THF     O112145   1.402   3.994   2.555 -0.5593 -0.1253 -0.1679
  549THF     C212146   1.332   3.989   2.434  0.0495  0.5964 -0.5132
  549THF     C312147   1.417   4.129   2.606  0.5331 -0.0640 -0.4127
  549THF     H412148   1.227   4.013   2.451 -0.0809 -0.7106  0.6723
  549THF     H512149   1.329   3.897   2.376 -1.9518  1.2208 -1.5016
  549THF     H612150   1.327   4.139   2.667 -0.3200 -1.3203 -1.4081
  549THF     H712151   1.508   4.149   2.661  0.5999  0.9340 -0.8625
  549THF     C812152   1.411   4.211   2.477 -0.2978 -0.0935  0.0731
  549THF     C912153   1.395   4.106   2.360  0.3245 -0.3011  0.1787
  549THF    H1012154   1.493   4.283   2.473 -1.3356  1.1115 -0.3977
  549THF    H1112155   1.325   4.275   2.497  1.2921  1.9823  0.5870
  549THF    H1212156   1.335   4.150   2.280  1.6821  2.9552  0.7710
  549THF    H1312157   1.493   4.080   2.320  1.2764  1.2288  1.3596
  550THF     O112158   1.662   4.661   4.880  0.4069 -0.5026  0.0750
  550THF     C212159   1.619   4.684   4.745 -0.4279 -0.0790 -0.2985
  550THF     C312160   1.712   4.789   4.925 -0.1142  0.5926 -0.0883
  550THF     H412161   1.560   4.601   4.707 -0.4473  0.3890 -1.3010
  550THF     H512162   1.707   4.705   4.684 -1.0988  0.7816 -1.0008
  550THF     H612163   1.730   4.792   5.033  0.2860  0.2921 -0.1459
  550THF     H712164   1.808   4.820   4.885 -0.1949 -0.4421 -1.1255
  550THF     C812165   1.603   4.884   4.876  0.1022  0.1853 -0.5582
  550THF     C912166   1.540   4.813   4.762 -0.0894 -0.4098  0.0248
  550THF    H1012167   1.641   4.984   4.852 -1.5727  1.6844  2.4616
  550THF    H1112168   1.530   4.893   4.956 -0.2088 -0.3422 -0.7780
  550THF    H1212169   1.433   4.812   4.779  0.1012 -0.8073  1.3206
  550THF    H1312170   1.554   4.869   4.670  0.6520 -0.1572  0.2796
  551THF     O112171   0.624   4.981   1.418 -0.1826 -0.3797  0.2384
  551THF     C212172   0.628   4.856   1.484 -0.3484  0.2358 -0.2557
  551THF     C312173   0.480   5.006   1.411  0.6828 -0.7449 -0.7779
  551THF     H412174   0.591   4.875   1.585  0.4551  1.2535 -0.1415
  551THF     H512175   0.726   4.809   1.486 -0.2419  0.1669 -3.1155
  551THF     H612176   0.448   5.048   1.507  0.7141  2.4686 -2.0434
  551THF     H712177   0.454   5.078   1.334 -5.2717 -1.3522  0.1556
  551THF     C812178   0.415   4.870   1.375 -0.2085 -0.4030  0.4000
  551THF     C912179   0.521   4.768   1.423 -0.3334  0.3858 -0.2215
  551THF    H1012180   0.414   4.858   1.267  0.1328  0.6281  0.2783
  551THF    H1112181   0.314   4.856   1.414 -0.5555  0.6393 -0.1110
  551THF    H1212182   0.491   4.700   1.502 -0.2380 -0.0119 -0.5208
  551THF    H1312183   0.562   4.703   1.345  1.7400 -0.0371  1.1578
  552THF     O112184   4.936   2.018   5.103  0.4418  0.3274  0.2388
  552THF     C212185   4.993   1.893   5.149  0.2440 -0.2663  0.0447
  552THF     C312186   5.039   2.102   5.047 -0.3874  0.1746  0.0288
  552THF     H412187   4.967   1.814   5.078  2.3574 -2.6211  1.7472
  552THF     H512188   4.960   1.857   5.246 -2.0926  1.8117  0.1377
  552THF     H612189   4.993   2.151   4.962 -2.3283  1.4137  1.7007
  552THF     H712190   5.068   2.180   5.118  2.6104 -0.8813  0.1207
  552THF     C812191   5.161   2.029   5.023 -0.7794  0.2595  0.2884
  552THF     C912192   5.142   1.923   5.133 -0.4402  0.3373  0.1331
  552THF    H1012193   5.250   2.091   5.020 -0.7157  0.1307 -1.1171
  552THF    H1112194   5.163   1.981   4.925  0.6253  0.2615  0.2895
  552THF    H1212195   5.205   1.836   5.116 -0.0920  0.6688 -0.3008
  552THF    H1312196   5.183   1.981   5.217 -3.3140 -1.0929  2.7245
  553THF     O112197   1.787   0.994   1.963 -0.5134  0.2262  0.2839
  553THF     C212198   1.846   1.065   1.852  0.0612  0.5829  0.2682
  553THF     C312199   1.666   0.935   1.926  0.6924  0.3661  0.2370
  553THF     H412200   1.955   1.068   1.844 -0.0098  1.8579 -0.4736
  553THF     H512201   1.806   1.165   1.840 -1.1894  0.0170 -0.4366
  553THF     H612202   1.674   0.828   1.948  0.4637  0.2591 -0.1762
  553THF     H712203   1.576   0.977   1.972 -0.0474 -0.1003 -0.7581
  553THF     C812204   1.656   0.942   1.775 -0.1750  0.9136  0.1785
  553THF     C912205   1.789   0.988   1.724 -0.2634 -0.3346 -0.5678
  553THF    H1012206   1.577   1.012   1.749  0.4343  1.9233  0.9526
  553THF    H1112207   1.632   0.850   1.723  0.6058  0.5277  0.4865
  553THF    H1212208   1.849   0.904   1.688 -0.9326 -0.7001 -0.8476
  553THF    H1312209   1.772   1.049   1.636  1.3003 -0.7641 -1.2064
  554THF     O112210   1.347   0.301   1.471  0.4108  0.0104 -0.3429
  554THF     C212211   1.339   0.193   1.563  0.1484 -0.0729 -0.5576
  554THF     C312212   1.218   0.304   1.419  0.5833  0.4329  0.0303
  554THF     H412213   1.292   0.229   1.655  1.9312 -2.9187  1.6564
  554THF     H512214   1.443   0.169   1.589 -0.0194 -1.4776 -1.1194
  554THF     H612215   1.148   0.354   1.485  0.3089  0.0548  0.0214
  554THF     H712216   1.218   0.354   1.322  0.6569  0.4823  0.0556
  554THF     C812217   1.169   0.157   1.403 -0.3956 -0.8568  0.5542
  554THF     C912218   1.263   0.085   1.495  0.0238  0.0534  1.1164
  554THF    H1012219   1.179   0.133   1.297 -1.2166  1.0909 -0.0144
  554THF    H1112220   1.063   0.140   1.426 -0.0899 -0.8090  2.0761
  554THF    H1212221   1.221   0.011   1.563  0.1137 -2.4719 -1.3511
  554THF    H1312222   1.333   0.034   1.427  1.1296  1.9786  0.7445
  555THF     O112223   0.636   2.829   0.673  0.2035  0.4976  0.3643
  555THF     C212224   0.583   2.740   0.771  0.4361  0.0403  0.1257
  555THF     C312225   0.773   2.810   0.691  0.0593  0.6027 -0.1301
  555THF     H412226   0.477   2.740   0.747  0.3262 -2.2146  0.4065
  555THF     H512227   0.605   2.775   0.872  1.9517 -1.2079  0.2686
  555THF     H612228   0.828   2.832   0.599  1.7463 -3.5779 -0.3614
  555THF     H712229   0.812   2.874   0.770 -1.3879  1.4729 -0.0741
  555THF     C812230   0.805   2.661   0.723  0.7868  0.1078 -0.1871
  555THF     C912231   0.664   2.610   0.750  0.0744  0.3763  0.1581
  555THF    H1012232   0.863   2.653   0.815  0.8033  1.6121 -0.0392
  555THF    H1112233   0.857   2.609   0.643 -0.5976 -1.1700 -0.2934
  555THF    H1212234   0.631   2.554   0.663  1.9133  1.8707 -1.6073
  555THF    H1312235   0.647   2.539   0.831 -1.8529  0.7031  0.1061
  556THF     O112236   1.339   1.194   4.181  0.0023  0.1965 -0.1554
  556THF     C212237   1.365   1.311   4.255  0.2541  0.5853 -0.6046
  556THF     C312238   1.267   1.228   4.059 -0.0174 -0.3597 -0.2846
  556THF     H412239   1.456   1.298   4.314 -0.6759  1.1825  1.0157
  556THF     H512240   1.285   1.342   4.322  0.4771 -0.6510  0.2748
  556THF     H612241   1.289   1.153   3.983  2.3735  1.8549 -1.9458
  556THF     H712242   1.159   1.236   4.066 -0.0035  2.2386 -1.5618
  556THF     C812243   1.337   1.355   4.014 -0.6112  0.0642  0.2902
  556THF     C912244   1.385   1.419   4.143  0.0200 -0.3105  0.1898
  556THF    H1012245   1.274   1.419   3.953  0.6398  1.3617  0.3004
  556THF    H1112246   1.428   1.326   3.962  0.5311  0.4135  2.0038
  556THF    H1212247   1.492   1.442   4.139 -0.1731  0.5245 -0.6375
  556THF    H1312248   1.325   1.503   4.178  0.4781  0.1633 -0.1476
  557THF     O112249   3.080   4.329   2.449 -0.2178 -0.2901 -0.9904
  557THF     C212250   3.074   4.196   2.482  0.6828 -0.6240 -0.0687
  557THF     C312251   3.164   4.339   2.331 -0.0804 -1.0333 -0.2561
  557THF     H412252   2.977   4.164   2.445  0.1475 -1.4491  1.9254
  557THF     H512253   3.074   4.188   2.590 -1.3940  0.9047  0.1044
  557THF     H612254   3.119   4.399   2.252 -1.3392 -0.5917  0.7664
  557THF     H712255   3.253   4.394   2.361  0.9230 -1.6145 -2.0567
  557THF     C812256   3.200   4.195   2.290  0.3789 -0.3745  0.3583
  557THF     C912257   3.193   4.125   2.424  0.1913  0.2914 -0.6821
  557THF    H1012258   3.301   4.183   2.251  0.8530  0.8682  1.1362
  557THF    H1112259   3.113   4.154   2.239  0.0540  0.0763  0.5457
  557THF    H1212260   3.184   4.016   2.426 -0.0353  0.2986 -1.0335
  557THF    H1312261   3.278   4.150   2.486 -0.7308 -1.3274  1.3820
  558THF     O112262   3.330   2.037   4.678 -0.5449 -0.0715 -0.6979
  558THF     C212263   3.224   2.025   4.580  0.3749 -0.1342 -0.3026
  558THF     C312264   3.323   1.916   4.762 -0.1701 -0.4018  0.2008
  558THF     H412265   3.243   1.949   4.503  1.0553  1.6258 -1.9732
  558THF     H512266   3.210   2.122   4.532 -1.3367 -0.3601 -0.3276
  558THF     H612267   3.379   1.833   4.721 -0.0730 -0.6393  0.7938
  558THF     H712268   3.386   1.942   4.848  0.6954  0.1453 -0.5832
  558THF     C812269   3.174   1.891   4.787 -0.3235  1.1693  0.0862
  558THF     C912270   3.116   1.985   4.685  0.3806  0.1005  0.0362
  558THF    H1012271   3.148   1.924   4.888  0.8734  0.7331  0.5464
  558THF    H1112272   3.153   1.785   4.773 -0.6755  1.1341  0.8528
  558THF    H1212273   3.032   1.952   4.624  1.5645  0.1176 -1.6721
  558THF    H1312274   3.085   2.079   4.733  1.4394 -0.9013  2.9083
  559THF     O112275   0.711   0.764   3.925  0.4162  0.0995  0.0000
  559THF     C212276   0.663   0.641   3.882 -0.5678  0.0320  0.2821
  559THF     C312277   0.855   0.756   3.917  0.5154 -1.1615 -0.2488
  559THF     H412278   0.659   0.666   3.776 -0.7316  0.6687  0.4351
  559THF     H512279   0.563   0.615   3.917  0.0010  1.5480  3.2958
  559THF     H612280   0.893   0.831   3.847  2.0196 -0.9683  0.7451
  559THF     H712281   0.882   0.787   4.018  0.7377  0.8867 -0.8961
  559THF     C812282   0.895   0.612   3.893  0.1716  0.0455  0.0293
  559THF     C912283   0.768   0.535   3.918  0.0633 -0.3440 -0.4189
  559THF    H1012284   0.978   0.569   3.948  0.7641  0.1117 -0.7804
  559THF    H1112285   0.924   0.596   3.789 -0.0088  0.1152 -0.0319
  559THF    H1212286   0.745   0.453   3.849  0.3975 -0.4419 -0.4169
  559THF    H1312287   0.762   0.494   4.018 -0.7872  0.6176 -0.0575
  560THF     O112288   5.498   2.283   1.112  0.0665  0.4152 -0.3440
  560THF     C212289   5.592   2.292   1.004 -0.0257 -0.5600 -0.3302
  560THF     C312290   5.470   2.144   1.136  0.2282 -0.0766  0.7400
  560THF     H412291   5.693   2.322   1.032  0.2248  0.1814 -1.9358
  560THF     H512292   5.563   2.363   0.927 -0.6986  0.0860  0.4981
  560THF     H612293   5.560   2.107   1.184  1.4709 -1.0146 -2.1167
  560THF     H712294   5.380   2.130   1.196 -0.4692  2.2034  0.3223
  560THF     C812295   5.462   2.083   0.997  0.6118 -0.7048  0.2597
  560THF     C912296   5.574   2.156   0.929 -0.5000 -1.3877 -0.1137
  560THF    H1012297   5.365   2.111   0.957  1.2718  0.5613 -0.5130
  560THF    H1112298   5.476   1.975   0.993 -0.6722 -0.8706 -0.5415
  560THF    H1212299   5.666   2.099   0.938 -0.6419 -1.5398  0.4046
  560THF    H1312300   5.563   2.177   0.822 -0.4888 -1.1948 -0.0764
  561THF     O112301   5.438   2.353   0.608 -0.1897 -0.1536  0.1454
  561THF     C212302   5.452   2.230   0.540 -0.4878  0.1923  0.2211
  561THF     C312303   5.296   2.362   0.634 -0.4538  0.0917 -0.4246
  561THF     H412304   5.558   2.213   0.555 -0.8779 -2.0848  0.8727
  561THF     H512305   5.421   2.243   0.436 -1.1404  0.7250  0.4766
  561THF     H612306   5.269   2.436   0.710  0.2734  0.1902 -0.2520
  561THF     H712307   5.242   2.394   0.545 -0.7427 -0.1428 -0.3338
  561THF     C812308   5.258   2.223   0.678 -0.2258  0.2340 -0.1706
  561THF     C912309   5.353   2.128   0.600 -0.6703  0.0897 -0.1286
  561THF    H1012310   5.152   2.201   0.665 -0.7972  2.7847 -0.2679
  561THF    H1112311   5.285   2.214   0.783 -1.3617 -2.1600 -0.0204
  561THF    H1212312   5.411   2.066   0.669  0.2596  0.6286 -0.4026
  561THF    H1312313   5.304   2.071   0.521 -1.1554  0.3508 -0.0194
  562THF     O112314   4.446   3.986   4.630 -0.0703  0.3022  0.4023
  562THF     C212315   4.572   4.021   4.668 -0.3947  0.3959  0.5642
  562THF     C312316   4.454   3.951   4.489  0.1324 -0.6200  0.0604
  562THF     H412317   4.636   3.934   4.685 -0.4410  0.2025 -0.2053
  562THF     H512318   4.573   4.078   4.760  0.1777  2.1248 -0.4581
  562THF     H612319   4.503   3.853   4.490  1.6529  0.0843  2.4646
  562THF     H712320   4.362   3.941   4.432 -1.4560 -0.1690  2.4258
  562THF     C812321   4.540   4.053   4.429 -0.4403 -0.0805  0.3770
  562THF     C912322   4.631   4.100   4.543  0.6099  0.1237  0.0030
  562THF    H1012323   4.488   4.145   4.405 -0.0537  0.6358  2.1516
  562THF    H1112324   4.597   4.019   4.342  0.6112  0.3705  0.8680
  562THF    H1212325   4.734   4.069   4.529  0.3074 -0.7800 -0.2403
  562THF    H1312326   4.625   4.206   4.570  1.3248 -0.1150  1.1825
  563THF     O112327   4.607   1.177   1.536 -0.5677  0.0590 -0.6269
  563THF     C212328   4.473   1.168   1.489 -0.7609 -0.6634 -0.5404
  563THF     C312329   4.675   1.063   1.493 -0.4170  1.1826 -0.1733
  563THF     H412330   4.424   1.265   1.487 -1.5585 -1.0557 -2.5249
  563THF     H512331   4.423   1.088   1.544 -0.4586 -0.0067  0.7253
  563THF     H612332   4.778   1.093   1.514 -0.3730  0.9075  0.0026
  563THF     H712333   4.638   0.989   1.564 -1.2747  0.3024 -1.5018
  563THF     C812334   4.612   1.035   1.360 -0.1272  0.3367 -0.2156
  563THF     C912335   4.499   1.128   1.342 -0.1731  0.5402 -0.1800
  563THF    H1012336   4.580   0.933   1.376  0.2575  0.1665 -0.5098
  563THF    H1112337   4.695   1.037   1.289  0.4002 -0.4784  0.3668
  563THF    H1212338   4.528   1.217   1.286  0.7191  0.5646  0.2933
  563THF    H1312339   4.407   1.092   1.296 -0.4489  1.0194 -0.0123
  564THF     O112340   1.930   5.477   1.394 -0.0917 -0.0775 -0.0373
  564THF     C212341   1.881   5.383   1.485 -0.6211  0.0513  0.4177
  564THF     C312342   2.025   5.551   1.471 -0.2967 -0.0687 -0.1648
  564THF     H412343   1.948   5.298   1.497 -0.2775  0.3572  0.6809
  564THF     H512344   1.790   5.339   1.444 -0.5375 -0.1350  0.4328
  564THF     H612345   2.126   5.509   1.469  1.0937  3.0043 -0.4776
  564THF     H712346   2.030   5.652   1.430 -2.3532  0.1282 -0.0369
  564THF     C812347   1.972   5.561   1.619 -0.4751 -0.3124  0.1240
  564THF     C912348   1.865   5.456   1.617  0.4523  0.1040  0.7446
  564THF    H1012349   1.924   5.659   1.628  1.1189  0.6085 -0.9202
  564THF    H1112350   2.055   5.554   1.689  0.9002 -0.7337 -1.4730
  564THF    H1212351   1.870   5.381   1.696 -2.6028 -0.8960  0.1124
  564THF    H1312352   1.768   5.504   1.625  0.6780  0.5896  0.6209
  565THF     O112353   0.145   2.070   2.514 -0.3795 -0.2124  0.8176
  565THF     C212354   0.233   1.957   2.531 -0.0224 -0.2072  0.1418
  565THF     C312355   0.228   2.182   2.477 -0.4666 -0.3355 -0.0114
  565THF     H412356   0.181   1.873   2.486  0.8833 -1.0515  0.6384
  565THF     H512357   0.245   1.941   2.638  0.8192 -0.9840 -0.0566
  565THF     H612358   0.167   2.262   2.434 -0.6742 -0.4993 -0.0247
  565THF     H712359   0.261   2.221   2.573 -1.9324 -1.4972  1.0187
  565THF     C812360   0.337   2.127   2.388  0.3178 -0.4776 -0.3489
  565THF     C912361   0.364   1.991   2.457  0.4975 -0.8222 -0.3440
  565THF    H1012362   0.424   2.193   2.390  0.3166 -0.4766 -0.3340
  565THF    H1112363   0.306   2.116   2.284  1.1247 -1.8194 -0.4786
  565THF    H1212364   0.399   1.907   2.397  3.4183 -0.5397  0.8274
  565THF    H1312365   0.434   2.014   2.537 -2.6508  0.9595  2.1411
  566THF     O112366   1.756   0.036   4.247 -0.2627 -0.3248  0.1156
  566THF     C212367   1.836   0.128   4.165 -0.2030  0.2446 -0.0918
  566THF     C312368   1.847  -0.061   4.306  0.1577  0.0708 -0.3781
  566THF     H412369   1.866   0.220   4.216  0.4069  0.7103 -1.2704
  566THF     H512370   1.780   0.158   4.077 -0.7788 -2.0195 -0.5627
  566THF     H612371   1.887  -0.034   4.403 -0.7239 -2.8928  0.9361
  566THF     H712372   1.798  -0.158   4.320 -2.6474  1.7252  2.5997
  566THF     C812373   1.963  -0.074   4.211 -0.4221 -0.6746 -0.4020
  566THF     C912374   1.958   0.050   4.120 -1.0044 -0.7661  0.6402
  566THF    H1012375   1.940  -0.152   4.138 -1.3608 -1.5822  0.8390
  566THF    H1112376   2.061  -0.071   4.259 -1.0015  0.5041  0.7429
  566THF    H1212377   2.053   0.102   4.126  0.5159 -2.7810 -3.0064
  566THF    H1312378   1.944   0.008   4.020  2.9323 -0.5841 -0.1278
  567THF     O112379   3.376   0.835   5.322 -0.0884  0.1790 -0.3002
  567THF     C212380   3.301   0.870   5.207  0.1158  0.4851  0.1835
  567THF     C312381   3.323   0.910   5.432 -0.2120  0.5684 -0.6286
  567THF     H412382   3.202   0.827   5.218  0.3104  0.1559  0.7072
  567THF     H512383   3.346   0.838   5.114 -0.0467  1.9971 -0.4358
  567THF     H612384   3.232   0.854   5.454 -0.5358  0.9090 -1.0842
  567THF     H712385   3.393   0.912   5.516 -1.8815  4.2064  0.8932
  567THF     C812386   3.310   1.050   5.370  0.4103 -0.8869  0.2368
  567THF     C912387   3.306   1.023   5.223  0.3143  0.6065  0.4363
  567THF    H1012388   3.394   1.110   5.404  1.5575 -2.2130 -0.1491
  567THF    H1112389   3.216   1.096   5.401  1.2372 -1.5035  4.2239
  567THF    H1212390   3.230   1.075   5.165 -1.4343 -2.9519 -0.7690
  567THF    H1312391   3.393   1.058   5.167 -0.0127 -0.2017 -0.6104
  568THF     O112392   5.174   1.518   5.024  0.1727  0.2565 -0.1759
  568THF     C212393   5.249   1.430   4.942 -0.6908  0.6272 -0.7200
  568THF     C312394   5.087   1.431   5.101 -0.2265 -0.0483  0.0996
  568THF     H412395   5.324   1.390   5.011 -0.5571 -0.5635 -1.5325
  568THF     H512396   5.305   1.483   4.865  0.7857  1.3006  0.7546
  568THF     H612397   5.139   1.377   5.180 -0.3347  1.5711  1.3144
  568THF     H712398   5.014   1.485   5.161 -1.0483 -0.0243 -0.8863
  568THF     C812399   5.022   1.346   4.990  0.4346  0.1530  0.0240
  568THF     C912400   5.146   1.324   4.904 -0.0445  0.6617  0.8082
  568THF    H1012401   4.953   1.415   4.941  0.7657  0.4017 -0.0952
  568THF    H1112402   4.963   1.266   5.034 -1.6374  1.4322 -0.2716
  568THF    H1212403   5.182   1.223   4.924 -0.0470  0.6110  0.5642
  568THF    H1312404   5.121   1.333   4.798  2.0639  2.2536  0.3760
  569THF     O112405   3.883   0.750   1.668 -1.1084 -0.7457  0.1024
  569THF     C212406   3.914   0.615   1.702  0.2979 -0.3357  0.0126
  569THF     C312407   3.740   0.759   1.650  0.1738  0.7117  0.6798
  569THF     H412408   3.916   0.607   1.811  0.3689  0.8789  0.1109
  569THF     H512409   4.012   0.581   1.668  1.4447  0.5121  2.2530
  569THF     H612410   3.698   0.757   1.750 -1.0110 -2.1587  0.2192
  569THF     H712411   3.700   0.845   1.595 -0.4239  0.6997  1.0968
  569THF     C812412   3.699   0.629   1.592  0.5150 -0.1297 -0.1387
  569THF     C912413   3.796   0.528   1.648 -0.1300 -1.0567 -0.1017
  569THF    H1012414   3.718   0.626   1.485 -2.4345 -0.1511 -0.7517
  569THF    H1112415   3.599   0.592   1.616  1.2384 -1.2505  1.3012
  569THF    H1212416   3.761   0.459   1.724  0.1991 -1.8932 -0.6996
  569THF    H1312417   3.832   0.474   1.561  1.5492 -0.2806  0.0760
  570THF     O112418   3.409   3.141   4.663 -0.3293  0.4316  0.4730
  570THF     C212419   3.278   3.078   4.663  0.3587  0.6232  0.3435
  570THF     C312420   3.502   3.062   4.734  0.7408  0.4155  0.1229
  570THF     H412421   3.230   3.091   4.566  0.0798 -1.4817  0.1530
  570THF     H512422   3.210   3.113   4.741 -1.1634 -1.0596 -0.1484
  570THF     H612423   3.608   3.080   4.714  0.4494 -1.3316 -4.1138
  570THF     H712424   3.474   3.080   4.838 -2.0047  1.3494 -0.6992
  570THF     C812425   3.459   2.921   4.689 -0.4182 -0.4975 -0.2625
  570THF     C912426   3.303   2.924   4.680  0.0403 -0.1903  0.7674
  570THF    H1012427   3.495   2.842   4.755 -0.4949 -0.5714 -0.3084
  570THF    H1112428   3.504   2.910   4.590 -0.3963  1.1595 -0.4647
  570THF    H1212429   3.255   2.869   4.599  0.9311 -1.9716  1.3895
  570THF    H1312430   3.268   2.882   4.775 -0.4104 -2.4193 -0.3124
  571THF     O112431   4.743   1.626   1.396  0.2202  0.3082 -0.0425
  571THF     C212432   4.706   1.492   1.425  0.0202  0.5915  0.1165
  571THF     C312433   4.792   1.634   1.265  0.9404 -0.1709  0.0802
  571THF     H412434   4.606   1.470   1.390  0.2513  0.3724 -0.4239
  571THF     H512435   4.709   1.470   1.531 -1.0108  2.2074  0.5299
  571THF     H612436   4.719   1.689   1.206  0.6006  0.0306  0.6881
  571THF     H712437   4.879   1.697   1.250 -1.2176  2.8541 -0.5822
  571THF     C812438   4.814   1.490   1.217  0.8774  0.4097  0.5826
  571THF     C912439   4.811   1.414   1.343 -0.3799  0.4956 -0.7165
  571THF    H1012440   4.905   1.473   1.159 -0.8214 -2.8153 -1.4110
  571THF    H1112441   4.746   1.446   1.144  2.8568  0.2824 -1.2719
  571THF    H1212442   4.794   1.307   1.330  0.7495  0.4455 -1.9816
  571THF    H1312443   4.910   1.425   1.389 -1.3579 -1.1805  2.0273
  572THF     O112444   2.405   0.517   0.320 -0.2459  0.2548  0.8284
  572THF     C212445   2.428   0.530   0.459 -0.2201  0.5812 -0.0131
  572THF     C312446   2.529   0.533   0.259 -0.7252  0.3440  0.4139
  572THF     H412447   2.373   0.449   0.508  4.1414 -1.3700  2.1722
  572THF     H512448   2.401   0.618   0.517 -1.1344 -0.1750  0.7565
  572THF     H612449   2.528   0.497   0.156 -0.6803 -3.3636  1.5451
  572THF     H712450   2.545   0.641   0.256  1.9785 -0.0012 -0.7901
  572THF     C812451   2.619   0.452   0.343 -0.1507 -0.3984 -0.2293
  572THF     C912452   2.570   0.488   0.481 -0.2802 -0.5049 -0.1777
  572THF    H1012453   2.724   0.471   0.319 -0.3905 -0.0593 -1.0484
  572THF    H1112454   2.589   0.353   0.308  0.9346 -0.5272 -0.8397
  572THF    H1212455   2.587   0.406   0.551  2.7580  1.1272  1.2028
  572THF    H1312456   2.631   0.568   0.524  0.8903 -2.1567  1.3979
  573THF     O112457   1.616   4.395   0.599  0.8016  0.2313 -0.2374
  573THF     C212458   1.564   4.261   0.573  0.5369 -0.1466 -0.2703
  573THF     C312459   1.736   4.382   0.678 -0.5258  1.4486 -0.0289
  573THF     H412460   1.593   4.232   0.472 -3.1038 -2.9729 -0.7251
  573THF     H512461   1.455   4.256   0.576  0.5338 -0.5110 -0.8127
  573THF     H612462   1.819   4.366   0.609 -0.6434  0.0406  0.1175
  573THF     H712463   1.757   4.468   0.742 -1.6006  1.1450  0.7557
  573THF     C812464   1.707   4.260   0.768  0.6978 -0.3871  0.6884
  573THF     C912465   1.618   4.159   0.682 -0.2880 -0.3698 -0.0922
  573THF    H1012466   1.655   4.293   0.858 -1.9005 -0.4952 -0.6800
  573THF    H1112467   1.805   4.221   0.794  0.7612  0.0283  1.0773
  573THF    H1212468   1.668   4.070   0.642  2.2266  0.1393  1.6694
  573THF    H1312469   1.536   4.126   0.745 -0.3829 -0.3051 -0.1808
  574THF     O112470   1.618   1.826   2.941 -0.4276 -0.3029  0.2540
  574THF     C212471   1.606   1.969   2.942 -0.2941  0.3883 -0.0021
  574THF     C312472   1.508   1.773   2.869  0.0133  0.7945 -0.2102
  574THF     H412473   1.707   2.004   2.922 -0.0291 -1.1029 -1.4136
  574THF     H512474   1.556   1.990   3.036 -0.4669 -0.2355  0.0507
  574THF     H612475   1.524   1.674   2.826  1.1624 -0.2153  2.3855
  574THF     H712476   1.421   1.771   2.935  0.3013  0.6141  0.1647
  574THF     C812477   1.481   1.876   2.759  0.2074 -0.1728 -0.0428
  574THF     C912478   1.520   2.008   2.823  0.2769 -0.0504 -0.3965
  574THF    H1012479   1.382   1.884   2.714  0.7724  0.4932 -1.2254
  574THF    H1112480   1.548   1.854   2.675  1.9570  2.3119  0.5715
  574THF    H1212481   1.562   2.081   2.752 -1.2770  0.8032 -0.4748
  574THF    H1312482   1.433   2.049   2.874  1.7951 -0.7718  3.0261
  575THF     O112483   5.421   0.904   2.168  0.2161  0.4525  0.7546
  575THF     C212484   5.416   1.023   2.086  0.1233  0.1972  0.5461
  575THF     C312485   5.296   0.890   2.239 -0.3821 -0.3131  0.6886
  575THF     H412486   5.350   1.013   2.001  0.8771  0.0129 -0.0292
  575THF     H512487   5.517   1.034   2.047 -0.1046 -3.0099 -1.3479
  575THF     H612488   5.220   0.860   2.166  1.2766  1.0813 -1.7563
  575THF     H712489   5.303   0.828   2.328 -0.0543  0.6493  1.3507
  575THF     C812490   5.262   1.036   2.272  0.6176 -0.2822 -0.2611
  575THF     C912491   5.357   1.117   2.192 -0.4979 -0.3702  0.4961
  575THF    H1012492   5.261   1.039   2.381  0.8603  0.9651 -0.2811
  575THF    H1112493   5.157   1.048   2.245  0.3544  0.1226  0.9130
  575THF    H1212494   5.304   1.198   2.142 -0.8893 -1.0953 -0.3001
  575THF    H1312495   5.438   1.166   2.245 -0.3706  1.0518 -0.9236
  576THF     O112496   2.121   3.675   0.533  0.9660  0.4349  0.4577
  576THF     C212497   2.043   3.667   0.414  0.1747  0.5617 -0.1580
  576THF     C312498   2.130   3.548   0.594  1.4012 -0.4651 -0.2129
  576THF     H412499   2.098   3.617   0.334 -0.0629 -0.2979  0.1980
  576THF     H512500   2.005   3.762   0.376  1.0501  1.1968  0.5162
  576THF     H612501   2.203   3.486   0.541  0.0871 -2.2799 -0.0008
  576THF     H712502   2.156   3.566   0.698 -0.4823  0.2519  0.1886
  576THF     C812503   1.992   3.487   0.566  0.3189 -0.2954  0.3073
  576THF     C912504   1.927   3.573   0.452 -0.2407 -0.7447 -0.2108
  576THF    H1012505   1.934   3.503   0.657 -2.1992 -1.6187 -0.9639
  576THF    H1112506   2.012   3.382   0.546 -0.7785 -0.1901 -1.5023
  576THF    H1212507   1.893   3.503   0.375 -0.2012  1.7632 -2.6817
  576THF    H1312508   1.846   3.634   0.491  0.0695  0.3691 -1.2719
  577THF     O112509   1.076   3.526   3.716  0.1397  0.4001 -0.0520
  577THF     C212510   1.152   3.620   3.647  0.2523  0.1090  0.1389
  577THF     C312511   1.163   3.440   3.797 -0.3949 -0.8516  0.4864
  577THF     H412512   1.194   3.697   3.713 -2.3010  0.9922  0.9021
  577THF     H512513   1.093   3.671   3.571  0.5525  0.8512  0.3880
  577THF     H612514   1.171   3.479   3.899  0.3107  2.0316 -0.5940
  577THF     H712515   1.129   3.336   3.803 -0.7009 -0.8920 -1.3152
  577THF     C812516   1.295   3.448   3.723 -0.4374 -0.2029  0.4053
  577THF     C912517   1.275   3.530   3.602  0.4550 -0.2627  0.4011
  577THF    H1012518   1.326   3.349   3.688  0.8049 -0.5501  2.3139
  577THF    H1112519   1.372   3.479   3.794 -1.2024 -0.5270  1.3930
  577THF    H1212520   1.360   3.591   3.571  0.5559 -1.0189 -0.8779
  577THF    H1312521   1.244   3.462   3.523  1.5454  0.3311 -0.5696
  578THF     O112522   4.368   4.436   4.739 -0.4817  0.3812 -0.0144
  578THF     C212523   4.431   4.345   4.831 -0.4926  0.4445  1.1989
  578THF     C312524   4.247   4.492   4.792 -0.4340  0.4067  0.4949
  578THF     H412525   4.540   4.339   4.827 -0.6199 -2.9589 -0.1353
  578THF     H512526   4.391   4.245   4.814 -0.3648  0.3545  1.4270
  578THF     H612527   4.264   4.599   4.788  0.7499  0.2685  1.2469
  578THF     H712528   4.155   4.471   4.737  1.4630 -1.0939 -2.4191
  578THF     C812529   4.247   4.442   4.940  0.7101  0.3458 -0.3812
  578THF     C912530   4.388   4.407   4.966  0.0373  0.0238  0.7580
  578THF    H1012531   4.188   4.352   4.958 -1.0296  1.8637  2.2055
  578THF    H1112532   4.219   4.524   5.006  2.8882  0.6555  0.2278
  578THF    H1212533   4.446   4.497   4.986 -0.8923  1.8632 -3.6231
  578THF    H1312534   4.398   4.342   5.053 -1.1024 -0.5221  0.5095
  579THF     O112535   0.591   0.902   3.441  0.2575  0.0365  0.2962
  579THF     C212536   0.537   0.928   3.316  0.3920 -0.4404 -0.2661
  579THF     C312537   0.530   0.789   3.507  0.1087  0.3121 -0.3653
  579THF     H412538   0.610   0.953   3.238 -1.1313  1.9941 -1.0418
  579THF     H512539   0.459   1.003   3.329 -0.2692 -1.1214 -0.2666
  579THF     H612540   0.607   0.712   3.506  0.3963  0.5827 -2.1268
  579THF     H712541   0.489   0.817   3.604 -0.6940  0.9724 -0.8823
  579THF     C812542   0.428   0.738   3.408  0.6703  0.1295 -0.6936
  579THF     C912543   0.467   0.806   3.273 -0.0341  0.1371  0.0675
  579THF    H1012544   0.334   0.771   3.453  0.4413 -0.7221 -0.5286
  579THF    H1112545   0.436   0.630   3.394 -1.9338 -0.4794  1.5437
  579THF    H1212546   0.536   0.742   3.217  0.2967  1.4680 -1.1020
  579THF    H1312547   0.372   0.829   3.225 -0.3131  0.3551  0.7068
  580THF     O112548   1.821   3.773   2.149 -0.7114  0.4059 -0.1496
  580THF     C212549   1.781   3.883   2.069 -0.2718  0.1057  0.5271
  580THF     C312550   1.720   3.674   2.131  0.3387  0.1678 -0.2876
  580THF     H412551   1.791   3.862   1.962 -1.4082 -0.1366  0.4503
  580THF     H512552   1.843   3.966   2.103 -0.3154  0.4767 -0.2672
  580THF     H612553   1.734   3.627   2.033  0.1604  0.1182 -0.2900
  580THF     H712554   1.719   3.594   2.205 -2.4496  0.8981  0.5891
  580THF     C812555   1.586   3.756   2.138  0.3317 -0.0601 -0.0242
  580THF     C912556   1.635   3.898   2.118 -0.6891 -0.6606 -0.5670
  580THF    H1012557   1.533   3.735   2.231  2.1748  1.1156  1.3569
  580THF    H1112558   1.523   3.730   2.053  0.6063  1.0955 -0.6032
  580THF    H1212559   1.570   3.950   2.048  0.6225  0.9281 -0.6450
  580THF    H1312560   1.639   3.950   2.213 -2.5086 -0.7526 -0.4042
  581THF     O112561   3.751   3.325   4.406 -0.3122 -0.1220 -0.1607
  581THF     C212562   3.728   3.416   4.304 -0.1653  0.4417  0.1638
  581THF     C312563   3.637   3.314   4.492 -0.2901 -0.8795 -0.0624
  581THF     H412564   3.667   3.364   4.231  1.3663  0.1052 -0.9192
  581THF     H512565   3.821   3.442   4.253  0.0202  0.4012  0.4772
  581THF     H612566   3.591   3.217   4.475 -1.3740 -0.5583  0.9225
  581THF     H712567   3.669   3.308   4.597 -0.7134 -0.3025  0.1034
  581THF     C812568   3.549   3.430   4.451 -0.2247 -0.1191 -0.3023
  581THF     C912569   3.634   3.523   4.366 -1.0348  0.3812 -0.1528
  581THF    H1012570   3.524   3.495   4.535  1.2287 -0.2159  0.2487
  581THF    H1112571   3.462   3.402   4.392  0.7954 -3.3204 -0.5014
  581THF    H1212572   3.565   3.575   4.299 -0.4990 -0.0975 -1.0923
  581THF    H1312573   3.684   3.601   4.423  1.8418 -1.1681 -0.3877
  582THF     O112574   0.983   4.924   3.540 -0.1773 -0.1897  0.0646
  582THF     C212575   1.103   4.911   3.464 -0.0601 -0.6761 -0.2547
  582THF     C312576   0.963   4.808   3.607  0.2630 -0.1990 -0.2634
  582THF     H412577   1.152   5.007   3.453 -1.6046  0.1161 -0.4407
  582THF     H512578   1.087   4.857   3.370 -0.4451  2.4703 -2.1215
  582THF     H612579   0.882   4.797   3.680 -0.9911 -1.0906 -1.7210
  582THF     H712580   0.945   4.737   3.526  1.1124  1.2683 -1.7855
  582THF     C812581   1.097   4.792   3.677  0.1757 -0.1494 -0.5941
  582THF     C912582   1.186   4.824   3.559  0.3015 -0.1550 -0.0787
  582THF    H1012583   1.099   4.691   3.719 -0.7772 -0.1588 -0.5434
  582THF    H1112584   1.095   4.857   3.765 -0.9933 -0.5802 -0.2728
  582THF    H1212585   1.278   4.876   3.583  0.5379 -0.7785  0.3926
  582THF    H1312586   1.213   4.732   3.508 -0.8421 -0.6047  0.0952
  583THF     O112587   2.531   2.983   3.029  0.4978 -0.0268  0.2090
  583THF     C212588   2.406   2.940   2.968  0.7730  0.2738 -0.2589
  583THF     C312589   2.610   3.023   2.918  0.0319  0.5670  0.3044
  583THF     H412590   2.331   3.017   2.986 -0.6257 -0.9444 -0.6683
  583THF     H512591   2.371   2.849   3.019  1.2981 -0.2367 -0.8015
  583THF     H612592   2.661   3.116   2.945 -0.4041  0.9318 -0.1002
  583THF     H712593   2.691   2.951   2.909 -0.1307  0.5957 -1.8915
  583THF     C812594   2.535   3.018   2.777 -0.3765 -0.1022 -0.1860
  583THF     C912595   2.426   2.917   2.813 -0.5773  0.1084 -0.4668
  583THF    H1012596   2.604   2.996   2.696  0.6644  0.0418  0.6313
  583THF    H1112597   2.486   3.114   2.758 -0.0553  0.0312 -0.3387
  583THF    H1212598   2.342   2.934   2.745  1.4177 -0.0041 -3.1187
  583THF    H1312599   2.469   2.818   2.800  1.0153  0.7183 -0.0527
  584THF     O112600   1.163   3.985   3.343  0.3452 -0.4916  0.3240
  584THF     C212601   1.144   4.079   3.236  0.2653 -0.6592 -0.3387
  584THF     C312602   1.061   3.999   3.444  0.1648  0.6965  0.3494
  584THF     H412603   1.212   4.043   3.158 -0.8617 -1.5734 -0.9369
  584THF     H512604   1.163   4.180   3.273  1.0143 -1.4885  1.6509
  584THF     H612605   1.064   3.905   3.498 -1.0702  0.1817 -0.4271
  584THF     H712606   1.079   4.090   3.501 -0.4672  0.1089  1.5072
  584THF     C812607   0.940   4.006   3.349  0.4496  0.1193  0.5010
  584THF     C912608   1.002   4.042   3.212 -0.3171  0.2890  0.3346
  584THF    H1012609   0.869   4.078   3.389 -1.0935 -0.7681 -0.5319
  584THF    H1112610   0.885   3.912   3.340  1.1045 -0.3100  0.9386
  584THF    H1212611   1.006   3.953   3.150 -0.8998  1.4123 -1.3832
  584THF    H1312612   0.931   4.112   3.167 -0.1800 -0.0840 -0.4733
  585THF     O112613   0.447   4.753   5.222 -0.3244  0.1964 -0.6361
  585THF     C212614   0.329   4.827   5.206 -0.5863  0.2045 -0.5505
  585THF     C312615   0.540   4.770   5.119 -0.0713 -0.5224  0.4721
  585THF     H412616   0.327   4.923   5.259  0.9880  1.2027 -2.1960
  585THF     H512617   0.249   4.759   5.236  1.4576 -1.6933  0.9352
  585THF     H612618   0.632   4.806   5.164  0.0044 -1.5075  1.1250
  585THF     H712619   0.569   4.677   5.072  0.3905  0.3101 -0.9688
  585THF     C812620   0.473   4.863   5.017  0.5519  0.7442 -0.4334
  585THF     C912621   0.322   4.853   5.052 -0.4302 -0.3562 -0.2580
  585THF    H1012622   0.503   4.835   4.916  0.7781  0.5529 -0.3166
  585THF    H1112623   0.502   4.965   5.040 -1.4847  0.9054  1.7994
  585THF    H1212624   0.275   4.947   5.024  0.1735  0.2132  0.6032
  585THF    H1312625   0.279   4.767   5.001 -0.8338 -0.5444  0.3888
  586THF     O112626   1.530   3.350   1.831 -0.3371 -0.0029 -0.1729
  586THF     C212627   1.460   3.465   1.891  0.1568 -0.3233 -0.2268
  586THF     C312628   1.589   3.265   1.935 -0.1190  0.4145 -0.1674
  586THF     H412629   1.365   3.488   1.844  0.4013  0.0339 -0.5559
  586THF     H512630   1.531   3.548   1.889 -2.2101  1.9773  2.2602
  586THF     H612631   1.543   3.167   1.929  1.9617 -0.6941  0.6487
  586THF     H712632   1.694   3.247   1.913  0.5405  2.2301  1.2450
  586THF     C812633   1.563   3.331   2.068 -0.0717  0.6149  0.1373
  586THF     C912634   1.444   3.421   2.036  0.4479  0.4022  0.1746
  586THF    H1012635   1.653   3.388   2.092  0.6998  1.1573 -3.4714
  586THF    H1112636   1.545   3.263   2.151  2.7372 -1.5194 -0.8357
  586THF    H1212637   1.345   3.375   2.045  0.0555  1.4013  1.3223
  586THF    H1312638   1.453   3.510   2.099  1.8838  0.4653 -0.0876
  587THF     O112639   4.059   3.933   4.890 -0.1054 -0.0885 -0.1402
  587THF     C212640   4.199   3.917   4.869 -0.8314  0.5059  0.5171
  587THF     C312641   4.042   3.937   5.026 -0.1390  0.0603  0.7218
  587THF     H412642   4.226   3.933   4.764  2.2544 -0.6584  1.0207
  587THF     H512643   4.226   3.814   4.894  2.2967  1.4999  1.5395
  587THF     H612644   3.947   3.985   5.048  0.5881  0.8011  2.4661
  587THF     H712645   4.043   3.838   5.072 -0.6604 -0.4415 -0.3059
  587THF     C812646   4.159   4.019   5.083  0.6926  0.2579 -0.0159
  587THF     C912647   4.257   4.013   4.969  0.8225  0.3077  0.6794
  587THF    H1012648   4.195   3.980   5.178 -0.7229 -2.4284 -0.4811
  587THF    H1112649   4.115   4.119   5.090  0.1466  0.2094 -2.1604
  587THF    H1212650   4.259   4.113   4.926 -0.8076  0.2689  0.4611
  587THF    H1312651   4.357   3.986   5.002  1.1724  0.2775 -0.3883
  588THF     O112652   3.914   4.937   2.378 -0.1450 -0.3447  0.1846
  588THF     C212653   3.879   4.931   2.241  0.3950 -0.1741  0.1919
  588THF     C312654   3.815   4.861   2.445 -0.0190 -0.2796  0.4956
  588THF     H412655   3.901   4.832   2.202  0.2964  0.8303 -2.6264
  588THF     H512656   3.945   4.990   2.177 -0.1666 -0.6284 -0.8290
  588THF     H612657   3.833   4.756   2.424 -3.1458 -0.4688 -2.1395
  588THF     H712658   3.820   4.867   2.553  3.4568  0.7859  0.3957
  588THF     C812659   3.687   4.920   2.383  0.0517 -0.0047 -0.2051
  588THF     C912660   3.723   4.963   2.247 -0.4568  0.1524  0.3352
  588THF    H1012661   3.641   4.988   2.455  0.9332  1.1792 -0.7449
  588THF    H1112662   3.619   4.835   2.379 -1.2045  0.9097  0.7387
  588THF    H1212663   3.674   4.900   2.172  1.8846 -0.2287 -0.9632
  588THF    H1312664   3.702   5.067   2.226 -1.0913  0.1253  0.7846
  589THF     O112665   4.492   1.640   3.523  0.3487  0.6075 -0.0450
  589THF     C212666   4.389   1.686   3.430 -0.2941  0.3146  0.1184
  589THF     C312667   4.443   1.509   3.580 -0.2477 -0.6764 -0.2420
  589THF     H412668   4.413   1.655   3.328 -1.5919  1.4984 -0.5853
  589THF     H512669   4.394   1.794   3.415  0.0292  0.0753 -1.7750
  589THF     H612670   4.467   1.444   3.495  2.0777  0.4801 -0.5659
  589THF     H712671   4.500   1.482   3.669  1.7823  2.0387 -0.5508
  589THF     C812672   4.298   1.532   3.597  0.7208 -0.0593 -0.5656
  589THF     C912673   4.263   1.630   3.485 -0.4098  0.2030  0.6507
  589THF    H1012674   4.286   1.588   3.689  1.1981  1.2890 -1.3004
  589THF    H1112675   4.233   1.445   3.608  0.5835  0.2559  1.4839
  589THF    H1212676   4.212   1.569   3.410 -0.0598  0.1512  0.4544
  589THF    H1312677   4.194   1.707   3.520 -0.2496  0.9168 -0.5308
  590THF     O112678   3.141   1.596   3.138 -0.4347 -0.3357  0.1510
  590THF     C212679   3.044   1.708   3.148 -0.1054  0.2000 -0.3258
  590THF     C312680   3.100   1.502   3.038 -0.0516  0.0853 -0.1017
  590THF     H412681   3.082   1.803   3.185  0.9421 -0.6822  0.9723
  590THF     H512682   2.963   1.672   3.211 -1.5207 -1.1155 -2.7331
  590THF     H612683   3.188   1.471   2.983  0.6548  1.1332  0.4082
  590THF     H712684   3.062   1.418   3.095 -0.8459 -0.3209 -1.1942
  590THF     C812685   2.989   1.571   2.956  0.1918  0.2784 -0.0787
  590THF     C912686   2.996   1.716   3.006  0.7885 -0.1045  0.2610
  590THF    H1012687   2.888   1.531   2.973 -0.2406  2.1187  2.1125
  590THF    H1112688   3.015   1.560   2.851 -1.7027 -0.6343 -0.5015
  590THF    H1212689   3.069   1.765   2.942  1.6449  0.1596  1.4115
  590THF    H1312690   2.904   1.773   2.992  1.1110  0.0981 -1.2586
  591THF     O112691   4.790   2.203   3.839  0.3382  0.5680  0.2655
  591THF     C212692   4.853   2.172   3.968 -0.4879 -0.9863  0.0863
  591THF     C312693   4.865   2.130   3.744 -0.4013 -0.2344  0.0625
  591THF     H412694   4.794   2.102   4.026 -1.5402 -1.5192 -1.5510
  591THF     H512695   4.858   2.266   4.023  2.5027 -0.4917 -0.8255
  591THF     H612696   4.789   2.084   3.680 -1.1201 -1.8773  1.9912
  591THF     H712697   4.923   2.202   3.686  1.8931 -3.0416 -1.3868
  591THF     C812698   4.960   2.038   3.818  0.4784 -0.0138  0.2566
  591THF     C912699   4.996   2.123   3.940  0.1028  0.1612  0.7111
  591THF    H1012700   5.046   2.023   3.753 -0.6779 -0.9783 -1.1200
  591THF    H1112701   4.915   1.943   3.849  0.9651 -0.6495 -0.9406
  591THF    H1212702   5.041   2.068   4.023 -0.5047 -2.3862 -0.5532
  591THF    H1312703   5.057   2.207   3.908 -0.0318  1.3147  3.2170
  592THF     O112704   2.438   0.899   4.199 -0.2763 -0.0864 -0.5210
  592THF     C212705   2.532   0.837   4.284  0.1649  0.7803  0.1060
  592THF     C312706   2.469   0.882   4.064  0.0676 -0.0020 -0.3544
  592THF     H412707   2.482   0.752   4.331  2.2858 -1.5421 -1.5983
  592THF     H512708   2.564   0.899   4.368  0.4752 -0.4339  0.9103
  592THF     H612709   2.409   0.807   4.012  0.5562  0.2412 -1.2862
  592THF     H712710   2.430   0.966   4.007 -1.0901 -0.5632 -0.4151
  592THF     C812711   2.622   0.867   4.066  0.9312 -0.3283  0.1057
  592THF     C912712   2.651   0.798   4.199  0.9248  0.2739 -0.7589
  592THF    H1012713   2.664   0.968   4.069  0.1547  0.0086 -0.1974
  592THF    H1112714   2.659   0.822   3.974 -2.6007  1.3884 -2.4077
  592THF    H1212715   2.674   0.693   4.182  3.4148  0.6004  0.0670
  592THF    H1312716   2.750   0.820   4.239  1.5881 -0.0798 -2.1606
  593THF     O112717   1.547   3.531   0.820  0.4545 -0.6712 -0.3613
  593THF     C212718   1.565   3.426   0.917 -0.2616 -0.0497  0.7595
  593THF     C312719   1.618   3.479   0.699 -0.3147 -0.9715 -0.1353
  593THF     H412720   1.486   3.423   0.992  1.7978  0.1083  3.0846
  593THF     H512721   1.649   3.450   0.983 -0.8323  0.5610  1.2753
  593THF     H612722   1.549   3.500   0.617  1.0905  1.8602 -0.7190
  593THF     H712723   1.712   3.523   0.668 -0.5385 -0.6717 -0.3870
  593THF     C812724   1.649   3.331   0.720 -0.0174  0.0935 -0.4299
  593THF     C912725   1.574   3.290   0.843 -0.0658 -0.4287  0.1778
  593THF    H1012726   1.757   3.321   0.732 -0.1748 -0.5131  0.5830
  593THF    H1112727   1.620   3.274   0.632  0.5920 -1.0696  0.1068
  593THF    H1212728   1.474   3.255   0.817  0.1889 -1.0767  0.0460
  593THF    H1312729   1.624   3.210   0.899  2.2369  1.1192  0.4775
  594THF     O112730   0.361   1.014   1.616  0.4605 -0.1149  0.2467
  594THF     C212731   0.262   0.956   1.700  0.0658 -0.4920  0.5112
  594THF     C312732   0.489   0.979   1.657 -0.2032 -0.1138 -0.2453
  594THF     H412733   0.236   0.858   1.660 -1.9246  0.8804 -1.8779
  594THF     H512734   0.181   1.028   1.691  1.0622  0.8450  1.7187
  594THF     H612735   0.509   0.886   1.603  0.3207  1.7348 -3.5170
  594THF     H712736   0.568   1.049   1.630 -0.0140  0.9599  2.7803
  594THF     C812737   0.481   0.952   1.804 -0.4856 -0.7976  0.8033
  594THF     C912738   0.336   0.968   1.839  0.3375 -0.1418  0.2002
  594THF    H1012739   0.540   1.030   1.852  0.0080 -0.5423 -0.2088
  594THF    H1112740   0.523   0.859   1.840 -0.0169 -0.5503  0.9057
  594THF    H1212741   0.299   0.896   1.913 -2.2382 -0.2827 -1.1069
  594THF    H1312742   0.328   1.071   1.872 -0.8235  0.0724 -0.6704
  595THF     O112743   1.787   4.517   3.933  0.2720  0.1125 -0.1483
  595THF     C212744   1.922   4.528   3.984  0.3949 -0.4537  0.3300
  595THF     C312745   1.774   4.395   3.872 -0.2517  0.0731  0.7387
  595THF     H412746   1.926   4.591   4.072 -0.6624 -0.1717  0.1895
  595THF     H512747   1.979   4.586   3.911  0.9525  0.1078  1.2068
  595THF     H612748   1.667   4.377   3.883 -0.3852  1.0917  1.2338
  595THF     H712749   1.819   4.399   3.773  2.5913  0.0434  1.9546
  595THF     C812750   1.864   4.304   3.950 -0.2644 -0.3395 -0.0725
  595THF     C912751   1.977   4.390   3.999  0.4262 -0.2616  0.0915
  595THF    H1012752   1.908   4.225   3.889  0.2553 -0.7005  0.7629
  595THF    H1112753   1.790   4.266   4.021 -0.5055  1.1854  0.5265
  595THF    H1212754   2.000   4.359   4.101  0.2158 -1.4822 -0.2114
  595THF    H1312755   2.068   4.381   3.940  0.4398 -0.3525  0.1257
  596THF     O112756   0.730   3.468   4.908 -0.1977 -0.3759  0.2388
  596THF     C212757   0.630   3.363   4.914 -0.3829 -0.4437 -0.2683
  596THF     C312758   0.856   3.402   4.915 -0.2849 -0.2108  0.3107
  596THF     H412759   0.575   3.360   4.820 -0.1357  2.0266 -0.5412
  596THF     H512760   0.563   3.398   4.992  0.0627 -0.3493  0.0778
  596THF     H612761   0.888   3.369   4.816  0.4781  1.5535 -0.0640
  596THF     H712762   0.934   3.467   4.954 -0.7055  1.5555 -1.6307
  596THF     C812763   0.834   3.277   4.997 -0.0791  0.5084 -0.3117
  596THF     C912764   0.691   3.230   4.961 -0.8574  0.0565  0.3296
  596THF    H1012765   0.843   3.305   5.102  0.0440  0.8210 -0.4038
  596THF    H1112766   0.902   3.194   4.976 -1.4566 -0.2983 -1.8288
  596THF    H1212767   0.704   3.163   4.876  2.2728  1.5356 -0.5084
  596THF    H1312768   0.645   3.184   5.048 -0.3506 -0.6279  0.2471
  597THF     O112769   1.916   1.936   2.251 -0.1882 -0.2660 -0.2866
  597THF     C212770   1.788   2.000   2.220  0.3214  0.1171  0.0989
  597THF     C312771   1.904   1.813   2.182  0.0170 -0.4347 -0.1627
  597THF     H412772   1.794   2.108   2.232 -2.1299  0.7202 -2.8540
  597THF     H512773   1.710   1.970   2.290  0.6941  0.1476  0.5334
  597THF     H612774   2.002   1.767   2.162 -0.6792 -1.7432 -0.6951
  597THF     H712775   1.850   1.736   2.238  0.5776  0.7408  2.1081
  597THF     C812776   1.836   1.845   2.049  0.9793 -0.0794  0.5023
  597THF     C912777   1.768   1.982   2.071  0.0476  0.0486 -0.3345
  597THF    H1012778   1.766   1.763   2.032 -0.7107  1.1527  1.1844
  597THF    H1112779   1.910   1.840   1.969  0.6251 -0.4640  0.1906
  597THF    H1212780   1.825   2.061   2.021  0.8371 -0.0213  0.4358
  597THF    H1312781   1.664   1.984   2.039  0.0582  1.3475 -0.3387
  598THF     O112782   0.552   2.560   3.172 -0.1958  0.0317  0.0821
  598THF     C212783   0.475   2.449   3.213 -0.2142 -0.0449 -0.7083
  598THF     C312784   0.684   2.549   3.227  0.2084  0.4104  0.1845
  598THF     H412785   0.375   2.452   3.169 -0.1017  0.2065 -0.9552
  598THF     H512786   0.456   2.470   3.318  1.6581  2.4959 -0.7790
  598THF     H612787   0.759   2.621   3.196  1.8591 -0.5846  1.6435
  598THF     H712788   0.677   2.556   3.336 -0.2386  0.5341  0.1494
  598THF     C812789   0.709   2.404   3.183 -0.1488  0.2411  0.4787
  598THF     C912790   0.571   2.343   3.168 -0.1468  0.0422  0.2243
  598THF    H1012791   0.758   2.354   3.266 -0.5249 -0.7235  0.1406
  598THF    H1112792   0.776   2.399   3.097  1.5262 -1.7632  1.8172
  598THF    H1212793   0.543   2.317   3.066 -0.9142 -1.1851  0.7247
  598THF    H1312794   0.562   2.252   3.227  1.3822  0.5719  1.3250
  599THF     O112795   4.643   3.487   1.091  0.5533 -0.4539  0.5686
  599THF     C212796   4.563   3.490   1.211 -0.7895  0.7290  0.2935
  599THF     C312797   4.548   3.442   0.986 -0.3167  0.0100  0.3045
  599THF     H412798   4.493   3.573   1.206 -1.3528  0.1892 -2.5148
  599THF     H512799   4.618   3.490   1.305 -0.0330  0.6279 -0.1442
  599THF     H612800   4.471   3.513   0.957  0.4432  0.0376 -1.7484
  599THF     H712801   4.617   3.420   0.905 -0.8033 -3.0348  0.5849
  599THF     C812802   4.481   3.318   1.054  0.0793 -0.5266  0.2742
  599THF     C912803   4.481   3.351   1.209  0.0152  1.3059 -0.0719
  599THF    H1012804   4.547   3.233   1.038  1.3340  0.8498 -2.4846
  599THF    H1112805   4.386   3.299   1.005  1.1669 -0.1795 -2.0979
  599THF    H1212806   4.382   3.355   1.254 -0.6390 -1.9197 -1.0090
  599THF    H1312807   4.537   3.274   1.262  1.4553  1.8194 -0.7925
  600THF     O112808   0.168   3.788   3.265  0.2552 -0.0076  0.0090
  600THF     C212809   0.051   3.781   3.179  0.3667 -0.0905  0.2259
  600THF     C312810   0.157   3.890   3.361 -0.1603  0.4265  0.1904
  600THF     H412811   0.007   3.688   3.216  2.1748 -0.9805  0.2407
  600THF     H512812   0.100   3.766   3.083 -0.1195  0.3836 -0.1046
  600THF     H612813   0.185   3.864   3.463 -1.6091  2.3028  1.1289
  600THF     H712814   0.215   3.980   3.339  0.6271  0.6605  2.8389
  600THF     C812815   0.012   3.936   3.352 -0.2133 -0.7079 -0.3894
  600THF     C912816  -0.021   3.914   3.207 -0.5626 -0.1112 -0.0910
  600THF    H1012817   0.020   4.041   3.381  2.5192 -1.2612  1.1950
  600THF    H1112818  -0.052   3.875   3.415  0.0812 -1.0526 -0.4249
  600THF    H1212819  -0.126   3.905   3.183 -1.4017 -0.5315  3.2234
  600THF    H1312820   0.032   3.992   3.152 -0.6551  0.3305  0.4424
  601THF     O112821   4.677   3.470   5.463  0.5317 -0.0966  0.2425
  601THF     C212822   4.725   3.347   5.510 -0.3360  0.7692  0.5796
  601THF     C312823   4.762   3.571   5.522 -0.0416  0.4072  0.6144
  601THF     H412824   4.812   3.324   5.448  0.7426 -0.9115  2.5981
  601THF     H512825   4.659   3.265   5.484 -2.0035  1.8051  1.3784
  601THF     H612826   4.834   3.595   5.444  0.6032  2.2091  1.6963
  601THF     H712827   4.706   3.665   5.519 -1.6776 -0.5627 -1.0969
  601THF     C812828   4.815   3.512   5.654 -0.0337 -0.3878 -0.1156
  601THF     C912829   4.778   3.369   5.651 -0.1481  0.4456 -1.1378
  601THF    H1012830   4.763   3.546   5.743  2.5301  0.7369  1.0300
  601THF    H1112831   4.924   3.516   5.651 -0.0656  1.0826 -3.1382
  601THF    H1212832   4.852   3.298   5.686 -1.4281  0.6163  2.2729
  601THF    H1312833   4.695   3.361   5.721  0.4942  0.3910 -0.3759
  602THF     O112834   3.079   1.234   1.944  0.1925  0.1680 -0.5717
  602THF     C212835   3.195   1.247   2.020  0.4399 -0.2954 -0.1734
  602THF     C312836   2.987   1.131   1.985 -0.5141 -0.1717 -0.8595
  602THF     H412837   3.183   1.334   2.085  0.0998  0.2406 -0.9295
  602THF     H512838   3.282   1.261   1.956  0.3453  2.3442  0.1402
  602THF     H612839   2.912   1.171   2.054  1.0047  2.8198 -0.8001
  602THF     H712840   2.936   1.073   1.908 -0.8263 -0.9491 -0.0894
  602THF     C812841   3.076   1.038   2.057  0.1068 -0.4753  0.2355
  602THF     C912842   3.193   1.123   2.112  0.6014  0.0598 -0.3314
  602THF    H1012843   3.118   0.966   1.988  2.3057  2.6167 -1.9152
  602THF    H1112844   3.021   0.979   2.131  0.3613  1.9217  2.4949
  602THF    H1212845   3.177   1.151   2.216 -0.3172 -0.2203 -0.3872
  602THF    H1312846   3.286   1.068   2.100  0.1694 -0.9008  0.5929
  603THF     O112847   4.969   4.394   0.238 -0.0945  0.0235 -0.3443
  603THF     C212848   4.989   4.533   0.247 -0.2764 -0.1427 -0.6207
  603THF     C312849   5.097   4.336   0.246  0.6737 -0.2510 -0.1484
  603THF     H412850   5.018   4.562   0.348  2.1055 -3.1915 -0.2782
  603THF     H512851   4.895   4.582   0.222 -0.9229 -0.0359  1.7726
  603THF     H612852   5.128   4.307   0.346 -2.1480 -1.5012  0.4565
  603THF     H712853   5.087   4.244   0.188  1.9089  0.5432 -1.7048
  603THF     C812854   5.187   4.438   0.177  0.4713  0.2021 -0.3459
  603THF     C912855   5.094   4.555   0.138 -0.8322  0.1341 -0.6316
  603THF    H1012856   5.232   4.387   0.091  0.7257 -2.8669  1.4710
  603THF    H1112857   5.272   4.470   0.236 -0.6810  0.9727  0.9453
  603THF    H1212858   5.143   4.651   0.155 -0.2913 -0.0343 -1.2115
  603THF    H1312859   5.049   4.549   0.039 -1.4509 -0.2674 -0.3308
  604THF     O112860   1.399   1.956   1.948 -0.4861 -0.0256  0.1271
  604THF     C212861   1.315   2.051   1.892 -0.8970 -0.3588 -0.9293
  604THF     C312862   1.468   1.876   1.855  0.0956 -0.1399  0.0393
  604THF     H412863   1.389   2.132   1.885  0.5807 -1.6710 -1.0451
  604THF     H512864   1.235   2.103   1.945  1.5985  0.9630  1.8331
  604THF     H612865   1.549   1.937   1.815 -0.5443  1.3884  0.9901
  604THF     H712866   1.502   1.777   1.886 -1.5635 -0.8254 -0.2190
  604THF     C812867   1.375   1.872   1.730  0.2053  1.3185  0.3988
  604THF     C912868   1.294   2.002   1.745 -0.0376 -0.8086 -0.2015
  604THF    H1012869   1.317   1.783   1.757  1.5684  0.8260  1.8788
  604THF    H1112870   1.412   1.863   1.628 -2.8250  0.4740 -0.7397
  604THF    H1212871   1.327   2.081   1.677 -0.5657 -1.8139 -1.6563
  604THF    H1312872   1.190   2.002   1.715 -0.2833  0.7374  0.5434
  605THF     O112873   2.727   4.802   5.465 -0.0912 -0.1031  0.2953
  605THF     C212874   2.670   4.909   5.397  0.2303 -0.1787  0.4380
  605THF     C312875   2.689   4.809   5.604 -0.0876 -0.0737  0.2904
  605THF     H412876   2.602   4.868   5.322 -0.3311  1.3335  0.0817
  605THF     H512877   2.738   4.974   5.342  0.4127 -0.9384 -0.2470
  605THF     H612878   2.681   4.709   5.648  0.9496 -1.0902 -1.6595
  605THF     H712879   2.778   4.856   5.645  0.5144 -0.7670 -0.1899
  605THF     C812880   2.559   4.883   5.610 -1.5094  0.3169 -0.0733
  605THF     C912881   2.585   4.989   5.504  0.5942 -0.1203  0.4856
  605THF    H1012882   2.560   4.918   5.714  2.4041  0.2007  0.0977
  605THF    H1112883   2.471   4.826   5.582 -1.0000  0.1512 -1.4159
  605THF    H1212884   2.499   5.035   5.454 -0.2830 -1.1602  0.9822
  605THF    H1312885   2.644   5.067   5.551 -0.1778  0.6844  0.1600
  606THF     O112886   2.193   1.586   0.761  0.2006 -0.0465  0.1567
  606THF     C212887   2.300   1.674   0.722 -0.5851 -0.8475  0.1391
  606THF     C312888   2.135   1.534   0.637 -0.3238 -0.1770 -0.3297
  606THF     H412889   2.379   1.602   0.698 -1.1050 -1.3048 -0.2193
  606THF     H512890   2.341   1.728   0.808 -0.2694 -1.1533  0.1872
  606THF     H612891   2.185   1.447   0.595 -1.0244 -1.8388  2.0458
  606THF     H712892   2.038   1.489   0.657  0.0223 -0.4248  0.8771
  606THF     C812893   2.132   1.668   0.553 -0.4489  0.4667  1.1550
  606THF     C912894   2.258   1.750   0.593 -0.2685  0.4431  0.6831
  606THF    H1012895   2.055   1.736   0.589 -1.7758  0.3973 -1.3267
  606THF    H1112896   2.109   1.631   0.453 -2.2950 -1.4264  2.2010
  606THF    H1212897   2.343   1.754   0.525 -0.1607 -1.4448  0.6641
  606THF    H1312898   2.233   1.856   0.602 -0.3875  0.6505 -1.4443
  607THF     O112899   1.120   1.087   1.802  0.1165  0.1673 -0.8903
  607THF     C212900   1.211   1.054   1.907 -0.1890  0.5187 -0.1396
  607THF     C312901   0.995   1.010   1.812 -0.7555  0.1053  0.3080
  607THF     H412902   1.220   1.129   1.986  2.0871  0.6868 -0.5050
  607THF     H512903   1.309   1.052   1.861  1.0491  0.3951  2.3198
  607THF     H612904   0.916   1.082   1.836  0.5178  1.3898  0.7933
  607THF     H712905   0.964   0.972   1.714  0.9531  1.1356 -0.6800
  607THF     C812906   1.013   0.911   1.922  0.0222 -0.0759 -0.7192
  607THF     C912907   1.162   0.910   1.945  0.0507  0.0144  0.0262
  607THF    H1012908   0.979   0.809   1.902  1.3851 -0.8375  0.5616
  607THF    H1112909   0.959   0.943   2.011  1.4730 -1.3753  0.6999
  607THF    H1212910   1.181   0.870   2.045  1.0943 -2.0216 -0.9286
  607THF    H1312911   1.212   0.841   1.877  0.6650 -1.1186  1.5654
  608THF     O112912   4.451   3.045   4.301 -0.6225 -0.2840  0.8049
  608THF     C212913   4.519   3.112   4.405 -0.7275 -0.2315 -0.6078
  608THF     C312914   4.315   3.090   4.311 -0.5459 -0.0936  0.1903
  608THF     H412915   4.624   3.115   4.376 -0.2712  0.3067  0.9496
  608THF     H512916   4.487   3.067   4.499 -0.9376  1.0844 -0.0224
  608THF     H612917   4.249   3.071   4.227 -0.8993 -0.1230  0.4708
  608THF     H712918   4.287   3.023   4.392  0.1315 -0.0289  0.4916
  608THF     C812919   4.319   3.239   4.339  1.1045  0.3095 -0.5995
  608THF     C912920   4.456   3.251   4.409  0.6667  0.0733 -0.2642
  608THF    H1012921   4.228   3.276   4.386  1.3816 -1.0657  1.1114
  608THF    H1112922   4.337   3.297   4.248  1.2324  1.9921  0.4645
  608THF    H1212923   4.518   3.335   4.377 -0.1228  1.0325  0.6433
  608THF    H1312924   4.430   3.275   4.512 -2.4437  1.2822 -1.2043
  609THF     O112925   4.567   3.999   5.367 -0.0763 -0.1281 -0.3222
  609THF     C212926   4.514   4.114   5.431 -0.4948  0.0571  0.0991
  609THF     C312927   4.502   3.886   5.424  0.6261  0.3526  0.1874
  609THF     H412928   4.530   4.207   5.377  0.1114  0.4675  0.9658
  609THF     H512929   4.562   4.129   5.528 -1.5513  1.0505  0.4928
  609THF     H612930   4.502   3.802   5.354 -1.1806  1.8921 -1.7880
  609THF     H712931   4.554   3.833   5.504 -0.7515 -0.7385  0.4060
  609THF     C812932   4.358   3.932   5.460 -1.0125  0.0601 -0.5394
  609THF     C912933   4.369   4.081   5.445 -0.2586  0.4966 -0.1119
  609THF    H1012934   4.337   3.916   5.566 -3.9860  0.3149 -1.0080
  609THF    H1112935   4.276   3.892   5.401 -0.5036  2.0414 -2.7169
  609THF    H1212936   4.305   4.119   5.366 -1.5578  0.8780  1.0676
  609THF    H1312937   4.338   4.121   5.542  2.1115 -1.5672  1.6476
  610THF     O112938   5.235   4.118   3.038 -0.1737  0.5269  0.1128
  610THF     C212939   5.288   4.139   2.911 -0.4209  0.0812  0.0899
  610THF     C312940   5.111   4.043   3.023 -0.1353 -0.1819  0.0672
  610THF     H412941   5.388   4.182   2.915 -0.7525  0.8906 -0.1714
  610THF     H512942   5.239   4.224   2.864  0.1051 -0.6699 -1.9356
  610THF     H612943   5.104   3.996   3.121  0.8987  2.5635  1.5725
  610THF     H712944   5.018   4.099   3.014  0.6356  1.8890  3.2733
  610THF     C812945   5.138   3.961   2.899  0.6467 -0.2495 -0.3027
  610THF     C912946   5.275   4.000   2.867  0.2445  0.1159  0.4183
  610THF    H1012947   5.064   3.989   2.825 -0.2346  1.8533  1.2590
  610THF    H1112948   5.147   3.853   2.905  1.1413 -0.2063 -0.2236
  610THF    H1212949   5.341   3.930   2.919  2.2722  1.4653 -0.2186
  610THF    H1312950   5.290   4.006   2.760 -2.6467  1.7435  0.0009
  611THF     O112951   3.335   2.619   4.048  0.5114 -0.0690  0.0393
  611THF     C212952   3.198   2.600   4.063 -0.2369 -0.3378 -0.5707
  611THF     C312953   3.360   2.707   3.935  0.0879  0.1408 -0.1872
  611THF     H412954   3.156   2.670   4.135  0.9814 -1.1302  0.9720
  611THF     H512955   3.178   2.501   4.105  3.1155 -0.2994  1.4950
  611THF     H612956   3.345   2.814   3.950  1.6730  0.6341 -1.7570
  611THF     H712957   3.462   2.689   3.898  0.3938 -0.9133  1.1050
  611THF     C812958   3.260   2.647   3.832 -1.0341  0.0471  0.7043
  611THF     C912959   3.146   2.621   3.923 -0.5540 -0.0846  0.2118
  611THF    H1012960   3.311   2.552   3.812 -0.4392  0.5850 -0.4276
  611THF    H1112961   3.248   2.711   3.745  1.7749 -0.0691  0.1380
  611THF    H1212962   3.081   2.708   3.927  0.5595  0.7163  2.0737
  611THF    H1312963   3.074   2.544   3.894 -1.3413  0.1789  1.4150
  612THF     O112964   0.823   2.094   4.558  0.0772 -0.7430  0.3937
  612THF     C212965   0.789   1.960   4.550  0.0587  0.1919 -0.6083
  612THF     C312966   0.699   2.169   4.576 -0.8752 -0.4604 -0.5026
  612THF     H412967   0.788   1.905   4.645 -1.8165 -1.4253 -1.4936
  612THF     H512968   0.873   1.913   4.499  0.4541 -2.4869  2.1644
  612THF     H612969   0.678   2.171   4.682 -0.3668  0.4210 -0.4040
  612THF     H712970   0.707   2.271   4.539  0.8240  0.2889  1.6981
  612THF     C812971   0.594   2.092   4.499 -0.7029  0.3819 -0.2772
  612THF     C912972   0.652   1.953   4.481 -0.0272 -0.3827 -0.0631
  612THF    H1012973   0.571   2.133   4.400 -3.6487  0.6180  0.4086
  612THF    H1112974   0.501   2.087   4.555 -0.3036 -0.5999  0.3154
  612THF    H1212975   0.592   1.874   4.527 -4.1326  1.7958 -1.1886
  612THF    H1312976   0.669   1.939   4.374  2.0582 -2.1606  0.4326
  613THF     O112977   4.135   5.197   4.286  0.1104  0.2520  0.4022
  613THF     C212978   4.032   5.113   4.326 -0.3589  0.1368  0.3239
  613THF     C312979   4.106   5.333   4.291 -0.1356  0.1648 -0.8064
  613THF     H412980   4.042   5.084   4.431  0.1504  1.5109  0.6666
  613THF     H512981   4.046   5.026   4.262 -0.5645  0.5222 -0.2462
  613THF     H612982   4.127   5.370   4.391 -2.2585  2.1322 -0.9971
  613THF     H712983   4.173   5.394   4.231 -3.1227  2.0092 -2.5269
  613THF     C812984   3.961   5.337   4.252  0.4724 -0.1132 -0.1587
  613THF     C912985   3.908   5.190   4.288 -0.1777  0.1569 -0.4537
  613THF    H1012986   3.950   5.355   4.145 -1.1777  1.8069  0.2755
  613THF    H1112987   3.906   5.415   4.305  0.3293  0.2778 -0.8699
  613THF    H1212988   3.833   5.189   4.368  1.0119  0.7157  0.7177
  613THF    H1312989   3.861   5.145   4.201  1.1456 -0.3031 -0.9377
  614THF     O112990   4.999   4.305   1.450  0.2398 -0.5776 -0.2198
  614THF     C212991   4.959   4.211   1.356  0.5768 -0.1070 -0.3222
  614THF     C312992   5.075   4.246   1.550 -1.0871  0.3074  0.2186
  614THF     H412993   4.951   4.261   1.259  1.3740  2.7473  0.9586
  614THF     H512994   4.858   4.178   1.379  0.9809 -0.8641  0.4100
  614THF     H612995   5.179   4.278   1.547 -0.5977 -0.9482  1.9648
  614THF     H712996   5.034   4.270   1.648 -1.7847  1.1842 -0.2709
  614THF     C812997   5.082   4.099   1.521  0.0218 -0.0290 -0.0881
  614THF     C912998   5.044   4.091   1.372  0.5265 -0.2315 -0.4097
  614THF    H1012999   5.024   4.032   1.585  0.9918 -0.7467  0.0651
  614THF    H1113000   5.181   4.056   1.538 -0.6632 -1.6241  0.0672
  614THF    H1213001   5.127   4.098   1.301 -0.6852 -1.6693 -2.0610
  614THF    H1313002   4.998   3.997   1.341  0.8406 -0.9106  1.1020
  615THF     O113003   5.247   0.211   2.581 -0.1915 -1.0250 -0.1968
  615THF     C213004   5.207   0.348   2.593  0.0111 -0.1289 -0.3093
  615THF     C313005   5.279   0.163   2.712  0.2014 -0.0030 -0.0458
  615THF     H413006   5.124   0.369   2.526 -0.3912  1.0229  0.5153
  615THF     H513007   5.292   0.410   2.563  0.8857 -0.7079  0.8643
  615THF     H613008   5.289   0.055   2.711  0.1087 -0.0246 -2.0528
  615THF     H713009   5.381   0.190   2.741 -0.3195  2.4147 -0.2003
  615THF     C813010   5.175   0.234   2.798 -0.0914 -0.1673  0.8046
  615THF     C913011   5.176   0.376   2.742  0.0685 -0.0914  0.2391
  615THF    H1013012   5.192   0.242   2.905 -2.7109  2.4683  1.1570
  615THF    H1113013   5.078   0.188   2.780  0.1604 -1.4089  2.4702
  615THF    H1213014   5.083   0.432   2.751  1.0321  1.9253 -1.3672
  615THF    H1313015   5.257   0.442   2.773 -0.6037  2.1109 -2.2595
  616THF     O113016   1.492   3.209   1.182 -0.7658  0.2431 -0.2508
  616THF     C213017   1.477   3.186   1.323  0.1165  0.5430  0.2531
  616THF     C313018   1.390   3.134   1.116 -0.2729 -0.6544 -0.0351
  616THF     H413019   1.531   3.267   1.373 -2.5106  2.2070  0.5711
  616THF     H513020   1.507   3.087   1.359 -0.3445  0.4566  0.4115
  616THF     H613021   1.369   3.172   1.016  1.1129 -0.4153 -0.2489
  616THF     H713022   1.437   3.038   1.093  2.4870  0.0059  2.3308
  616THF     C813023   1.276   3.131   1.215  0.2330 -0.7707  0.0609
  616THF     C913024   1.334   3.190   1.348  0.1797 -0.6584 -0.5976
  616THF    H1013025   1.244   3.027   1.216 -0.0961 -0.6697  0.3632
  616THF    H1113026   1.189   3.190   1.184  0.5728 -1.3469 -2.1273
  616THF    H1213027   1.303   3.291   1.375  1.5046 -0.7180  1.3259
  616THF    H1313028   1.303   3.127   1.432 -1.4898  0.6419 -0.1882
  617THF     O113029   3.004   4.731   2.760 -0.1194  0.8493 -0.0075
  617THF     C213030   2.953   4.613   2.699  0.1373 -0.6797 -0.5046
  617THF     C313031   3.111   4.703   2.849  0.4665 -0.0992  0.7614
  617THF     H413032   3.009   4.591   2.608 -0.5720 -0.0720 -1.0998
  617THF     H513033   2.849   4.632   2.671 -0.6537  1.5493  3.2797
  617THF     H613034   3.204   4.674   2.801  1.7381  1.0585  2.4098
  617THF     H713035   3.124   4.796   2.905  1.8725  1.3904 -1.8244
  617THF     C813036   3.050   4.579   2.919  0.3745 -0.6486  0.4830
  617THF     C913037   2.958   4.516   2.814 -0.4693  0.0511  0.1496
  617THF    H1013038   2.998   4.624   3.003  0.4584  1.3745 -0.4823
  617THF    H1113039   3.130   4.516   2.959  1.5468  0.3368 -0.2090
  617THF    H1213040   2.991   4.416   2.785  1.9872  0.4706  1.2302
  617THF    H1313041   2.859   4.516   2.858 -0.6920  2.7158 -0.2227
  618THF     O113042   1.071   1.678   0.711 -0.3626  0.1123 -0.3603
  618THF     C213043   1.190   1.644   0.771 -0.2644  0.2397 -0.7232
  618THF     C313044   1.015   1.564   0.652  0.8136 -0.9360  1.2258
  618THF     H413045   1.220   1.717   0.847  1.3513  1.9723 -2.9054
  618THF     H513046   1.264   1.650   0.692  0.9881  0.7795  0.4417
  618THF     H613047   0.908   1.562   0.673  0.9698  0.2344  2.2443
  618THF     H713048   1.027   1.568   0.544  0.8133 -0.6142  1.2372
  618THF     C813049   1.087   1.444   0.717  0.4286 -0.4400 -0.1889
  618THF     C913050   1.179   1.505   0.822  0.1098 -0.4681  0.0625
  618THF    H1013051   1.144   1.385   0.645  1.4126  0.7863 -0.4450
  618THF    H1113052   1.016   1.377   0.765 -2.2825  2.4983  0.2425
  618THF    H1213053   1.120   1.490   0.912 -0.5349 -0.6686 -0.3853
  618THF    H1313054   1.268   1.443   0.835 -0.7189 -1.6796  0.1690
  619THF     O113055   1.918   1.272   4.207 -0.0560  0.6408  0.4910
  619THF     C213056   1.974   1.186   4.106  0.1211 -0.2834  1.0329
  619THF     C313057   1.774   1.272   4.186  0.1818 -0.2757  0.5312
  619THF     H413058   1.961   1.084   4.143  0.8041 -0.7311  0.0590
  619THF     H513059   2.079   1.215   4.103 -0.0855  0.5100  1.2261
  619THF     H613060   1.735   1.180   4.230  0.9020 -0.1761  1.3855
  619THF     H713061   1.719   1.355   4.230 -0.3232 -0.6004  0.5270
  619THF     C813062   1.763   1.291   4.036 -0.0976  0.5033  0.0526
  619THF     C913063   1.879   1.206   3.986  0.7295  0.6571  0.4835
  619THF    H1013064   1.794   1.390   4.004 -0.2437  0.3886 -0.4597
  619THF    H1113065   1.666   1.267   3.992  1.3876 -0.8713 -2.7444
  619THF    H1213066   1.847   1.103   3.971 -0.0345  1.1657 -1.8057
  619THF    H1313067   1.922   1.250   3.896 -1.4267 -2.5775 -2.3923
  620THF     O113068   4.117   0.335   0.149 -0.1727 -0.6782 -0.1561
  620THF     C213069   3.998   0.283   0.206  0.4908  0.2991 -1.0802
  620THF     C313070   4.129   0.480   0.182  0.2874  0.5835 -0.3538
  620THF     H413071   4.031   0.189   0.250 -0.9328  1.1818  2.2681
  620THF     H513072   3.917   0.270   0.135  1.6584 -2.0087 -2.0630
  620THF     H613073   4.230   0.518   0.179  1.0261 -1.1445  0.8779
  620THF     H713074   4.065   0.541   0.118 -0.9923 -0.7250 -0.3811
  620THF     C813075   4.076   0.484   0.326 -0.2617  0.1663 -1.1031
  620THF     C913076   3.963   0.392   0.312 -0.0877  0.3540 -0.1989
  620THF    H1013077   4.061   0.585   0.366  0.4758 -0.4748  0.8794
  620THF    H1113078   4.153   0.437   0.386 -0.2059  0.2475 -1.1099
  620THF    H1213079   3.922   0.350   0.404 -2.6944  0.3628 -1.2717
  620THF    H1313080   3.873   0.445   0.282  0.0963  0.6011 -0.3120
  621THF     O113081   0.585   2.224   0.988 -0.0296 -0.2539 -0.5013
  621THF     C213082   0.457   2.261   0.944 -0.3869  0.3887 -0.5342
  621THF     C313083   0.686   2.238   0.886  0.8400 -0.0922 -0.1360
  621THF     H413084   0.439   2.360   0.986  1.6963  0.9510 -0.8383
  621THF     H513085   0.386   2.190   0.987  1.5337 -1.8831 -0.8603
  621THF     H613086   0.721   2.340   0.875  0.1396  0.0192 -1.7149
  621THF     H713087   0.769   2.170   0.908  0.4890 -0.7053 -0.6575
  621THF     C813088   0.610   2.208   0.754  0.6795 -0.9384 -0.2900
  621THF     C913089   0.472   2.265   0.794  0.2025  0.8552  0.3414
  621THF    H1013090   0.603   2.101   0.736 -2.3084 -0.6951 -1.0516
  621THF    H1113091   0.651   2.267   0.671  2.6853  0.2209  1.4267
  621THF    H1213092   0.471   2.366   0.752  0.7306  0.7691  0.1032
  621THF    H1313093   0.389   2.207   0.753  0.9263  0.4673 -0.6272
  622THF     O113094   0.128   0.585   2.763  0.6252  0.2152  0.6397
  622THF     C213095   0.056   0.699   2.796  0.0722  0.6247 -0.5702
  622THF     C313096   0.091   0.548   2.632  0.0216  0.5983  0.4852
  622THF     H413097   0.096   0.754   2.881 -1.9446 -0.8579  1.4983
  622THF     H513098  -0.043   0.666   2.828  0.0130  0.6279 -0.7485
  622THF     H613099   0.160   0.484   2.577 -0.1902  0.6372  0.1731
  622THF     H713100  -0.007   0.501   2.639  0.4987 -0.4615  0.1849
  622THF     C813101   0.080   0.682   2.558 -0.0000  0.3648 -0.3169
  622THF     C913102   0.059   0.777   2.671  0.1679 -0.7911  0.0227
  622THF    H1013103   0.004   0.687   2.480 -0.4241  0.6142  0.1132
  622THF    H1113104   0.173   0.705   2.505 -0.3705  2.8403 -0.0020
  622THF    H1213105   0.132   0.858   2.666 -2.8196  2.1695  0.7920
  622THF    H1313106  -0.026   0.843   2.654  1.6291  1.7133  1.6993
  623THF     O113107   3.779   4.631   4.930  0.4712 -0.2666 -0.2818
  623THF     C213108   3.779   4.547   4.816 -0.2761 -0.1774  0.0140
  623THF     C313109   3.882   4.578   5.021  0.2395  0.5021  0.3005
  623THF     H413110   3.863   4.566   4.749 -0.0628 -1.6129 -0.1577
  623THF     H513111   3.694   4.571   4.752  0.3249 -2.8197 -1.9605
  623THF     H613112   3.976   4.620   4.986  0.1877 -1.0712 -1.9825
  623THF     H713113   3.871   4.606   5.125 -1.0084 -2.1646  0.9680
  623THF     C813114   3.865   4.423   5.004  0.8031  0.0405 -0.0530
  623THF     C913115   3.792   4.404   4.871  0.4234 -1.0119  0.4026
  623THF    H1013116   3.808   4.381   5.087  1.7314 -5.0093 -1.6020
  623THF    H1113117   3.958   4.367   5.014  0.5471 -0.1470  1.5295
  623THF    H1213118   3.861   4.350   4.806  2.1314 -0.3969  1.6334
  623THF    H1313119   3.693   4.364   4.891 -0.3810  0.2617 -0.7855
  624THF     O113120   4.337   4.732   5.083  0.4342  0.5042  0.0065
  624THF     C213121   4.289   4.734   5.218  0.2734  0.2748  0.0508
  624THF     C313122   4.276   4.845   5.016 -0.2315  0.7075 -0.6681
  624THF     H413123   4.374   4.717   5.283 -0.9458  0.9214  1.8986
  624THF     H513124   4.219   4.652   5.231  0.4668  0.0702 -0.1945
  624THF     H613125   4.345   4.880   4.940 -0.0160  1.6120 -0.0719
  624THF     H713126   4.190   4.807   4.962  2.0587 -2.3945 -2.4935
  624THF     C813127   4.263   4.951   5.122  0.4440 -0.1003 -0.2467
  624THF     C913128   4.221   4.864   5.238 -0.7516  0.4335 -0.5434
  624THF    H1013129   4.191   5.029   5.098  3.2056  2.4693 -0.6949
  624THF    H1113130   4.352   5.002   5.158 -0.9603  0.1716  3.2390
  624THF    H1213131   4.248   4.897   5.339  0.6385  0.7795 -1.0020
  624THF    H1313132   4.115   4.840   5.237 -0.5960 -0.4595  0.8069
  625THF     O113133   3.033   5.315   4.549 -0.0596  0.2679 -0.2006
  625THF     C213134   3.158   5.251   4.534 -0.4172  0.3619  0.0249
  625THF     C313135   2.948   5.224   4.625  0.3904 -0.0528  0.1937
  625THF     H413136   3.245   5.309   4.504 -0.5813  1.0340  0.8392
  625THF     H513137   3.146   5.172   4.459  1.5898 -1.5934  1.6069
  625THF     H613138   2.859   5.283   4.648  0.4637  0.8098 -1.5552
  625THF     H713139   2.913   5.142   4.562  1.3452 -0.8765  0.7112
  625THF     C813140   3.040   5.183   4.740  0.0304 -1.0375 -0.3600
  625THF     C913141   3.176   5.194   4.680  0.1288  0.3238  0.3716
  625THF    H1013142   3.022   5.079   4.768  0.1376 -0.8615  0.3735
  625THF    H1113143   3.025   5.241   4.831 -0.7140 -0.0866 -1.0595
  625THF    H1213144   3.235   5.262   4.740  0.5757 -1.1889  1.7224
  625THF    H1313145   3.229   5.099   4.676 -1.9315 -0.8718 -0.5680
  626THF     O113146   0.004   1.740   5.304 -0.5595 -0.2691  0.5950
  626THF     C213147  -0.007   1.843   5.208 -0.0684 -0.0367 -0.0484
  626THF     C313148   0.106   1.659   5.253 -0.2530  0.7788  0.3586
  626THF     H413149   0.074   1.913   5.229 -0.1718 -0.2669  1.1933
  626THF     H513150  -0.105   1.890   5.222  0.2097  0.0014  2.2671
  626THF     H613151   0.201   1.712   5.247  0.7396 -0.9676 -0.0590
  626THF     H713152   0.125   1.575   5.319 -0.1159  1.1258  0.7678
  626THF     C813153   0.055   1.637   5.113 -0.3542  0.4911 -0.0153
  626THF     C913154   0.019   1.777   5.072  0.5059  0.1224 -0.5449
  626THF    H1013155  -0.037   1.580   5.127  0.1706 -0.2864  0.3570
  626THF    H1113156   0.130   1.585   5.053  0.0200  1.7309 -0.6486
  626THF    H1213157   0.110   1.818   5.029  1.3388 -0.3225  0.7294
  626THF    H1313158  -0.067   1.789   5.006  0.2212  0.2838 -0.1516
  627THF     O113159   1.038   1.812   4.984  0.0299 -0.3741  0.2954
  627THF     C213160   1.116   1.720   4.911 -0.1438 -0.2768 -0.1646
  627THF     C313161   1.007   1.915   4.893 -0.3203  0.2814 -0.0087
  627THF     H413162   1.049   1.669   4.841  0.1321 -4.2761  2.1904
  627THF     H513163   1.156   1.643   4.977  1.5380 -1.0959 -2.0398
  627THF     H613164   0.925   1.871   4.836 -0.5406 -0.8259  1.0950
  627THF     H713165   0.965   2.005   4.937 -0.9349  0.5630 -1.1541
  627THF     C813166   1.134   1.936   4.812  0.0374 -0.1379  0.8103
  627THF     C913167   1.219   1.813   4.842  0.2764  0.2138 -0.6037
  627THF    H1013168   1.188   2.029   4.826  1.1223 -0.3337 -1.5290
  627THF    H1113169   1.110   1.925   4.706  2.6287 -1.0006  0.2293
  627THF    H1213170   1.258   1.766   4.752  1.9399 -1.6359  0.9928
  627THF    H1313171   1.303   1.844   4.904  0.0090 -0.4801  0.1170
  628THF     O113172   0.035   0.604   1.844  0.8690  0.8160  0.7146
  628THF     C213173  -0.048   0.542   1.751  0.6168 -0.6568 -0.2694
  628THF     C313174  -0.028   0.712   1.904  0.2617 -0.1759  0.3589
  628THF     H413175  -0.107   0.467   1.804  1.9028 -1.3128  0.2843
  628THF     H513176  -0.005   0.479   1.673 -0.1597  0.0088 -1.2501
  628THF     H613177  -0.071   0.679   1.999 -0.1969 -1.3367 -0.2376
  628THF     H713178   0.044   0.790   1.931 -0.0970  0.5121 -0.5994
  628THF     C813179  -0.127   0.760   1.803 -0.8437 -0.3604 -0.0592
  628THF     C913180  -0.142   0.647   1.696  0.0863 -0.3064 -0.4514
  628THF    H1013181  -0.097   0.851   1.751  2.3140 -1.3456 -0.2079
  628THF    H1113182  -0.215   0.772   1.866  0.9768 -0.9381  2.7932
  628THF    H1213183  -0.242   0.602   1.694  0.7321 -2.0754  1.9978
  628THF    H1313184  -0.113   0.682   1.597  0.2857  0.0194 -0.2777
  629THF     O113185   0.680   5.214   4.816  0.1948 -0.3230 -0.5480
  629THF     C213186   0.729   5.334   4.761  0.6920  0.1933 -0.5305
  629THF     C313187   0.726   5.206   4.950  0.5756  0.2716  0.4297
  629THF     H413188   0.648   5.407   4.763 -0.7050 -1.2912 -0.8673
  629THF     H513189   0.753   5.318   4.656 -0.6630 -0.3589 -0.7661
  629THF     H613190   0.671   5.278   5.011 -0.2255  2.0796 -2.2376
  629THF     H713191   0.728   5.105   4.989  2.0778  0.7414  1.6616
  629THF     C813192   0.869   5.261   4.938  0.0458  0.2700 -0.5711
  629THF     C913193   0.847   5.379   4.848  0.4786 -0.2436 -0.1700
  629THF    H1013194   0.935   5.197   4.879  1.1517  0.9708 -0.1325
  629THF    H1113195   0.920   5.280   5.033  0.7716  0.6890 -1.0302
  629THF    H1213196   0.821   5.459   4.916  1.4113 -1.3300  1.5392
  629THF    H1313197   0.934   5.405   4.788  2.3588  0.8739  2.8337
  630THF     O113198   4.231   0.236   4.449  0.2505 -0.0262  0.5092
  630THF     C213199   4.295   0.263   4.327 -0.6845 -0.2908 -0.8652
  630THF     C313200   4.320   0.164   4.537 -0.5416 -0.4189  0.0017
  630THF     H413201   4.241   0.337   4.268  3.8302  1.1890 -3.6340
  630THF     H513202   4.314   0.175   4.266  2.0966 -0.8192  0.5600
  630THF     H613203   4.289   0.192   4.637 -0.8868  0.6448 -0.3917
  630THF     H713204   4.324   0.058   4.511 -1.3490 -0.5574  0.4151
  630THF     C813205   4.444   0.253   4.520  0.0330  0.0231 -0.2436
  630THF     C913206   4.442   0.294   4.368  0.3780 -0.1131 -0.4476
  630THF    H1013207   4.539   0.228   4.566 -1.1560 -1.1727  1.6932
  630THF    H1113208   4.413   0.335   4.584 -0.3488 -0.6521  0.4611
  630THF    H1213209   4.454   0.402   4.377  1.9020 -0.1455 -1.6376
  630THF    H1313210   4.518   0.248   4.305 -0.3525 -0.3667 -1.1584
  631THF     O113211   3.443   0.979   1.516 -0.0219 -0.2530  0.2279
  631THF     C213212   3.442   0.855   1.447  0.3358  0.3180  0.2362
  631THF     C313213   3.523   1.074   1.442  0.6072 -0.2057  0.0683
  631THF     H413214   3.338   0.836   1.418  0.1806  0.9200  0.3956
  631THF     H513215   3.480   0.774   1.509  0.6099 -0.1133 -0.4846
  631THF     H613216   3.471   1.170   1.448  2.9157  1.1412 -0.2093
  631THF     H713217   3.615   1.068   1.500 -0.0951 -1.0663  1.1421
  631THF     C813218   3.536   1.017   1.301  0.0830 -0.0348  0.1028
  631THF     C913219   3.533   0.869   1.320  0.3785 -0.3767  0.1321
  631THF    H1013220   3.622   1.041   1.239  1.8423 -1.6291  1.8119
  631THF    H1113221   3.447   1.052   1.249  0.4819 -1.7371 -1.8520
  631THF    H1213222   3.490   0.818   1.234 -0.8638  0.0292  0.4926
  631THF    H1313223   3.635   0.839   1.344 -0.3543 -1.3433  2.3380
  632THF     O113224   2.053   3.074   0.486 -0.3298  0.3240 -0.0605
  632THF     C213225   2.062   3.000   0.360 -0.3361  0.4003 -0.2550
  632THF     C313226   1.919   3.074   0.532  0.0485  0.4933 -0.4498
  632THF     H413227   2.161   2.955   0.363 -0.1271  0.8503 -0.2347
  632THF     H513228   2.050   3.070   0.277 -3.5676  2.2419  1.5526
  632THF     H613229   1.920   3.098   0.638  2.4420 -0.5439 -0.1650
  632THF     H713230   1.862   3.146   0.474  0.4174  0.3511 -1.0046
  632THF     C813231   1.875   2.935   0.490 -0.1218  0.1005  0.0886
  632THF     C913232   1.948   2.907   0.367  0.1910 -0.0872 -0.0277
  632THF    H1013233   1.766   2.930   0.486 -0.1344 -2.6919  1.1763
  632THF    H1113234   1.908   2.873   0.574  0.1066  1.4624  1.0359
  632THF    H1213235   1.970   2.800   0.359 -0.3756 -0.0760 -2.9464
  632THF    H1313236   1.874   2.911   0.287 -0.4549  0.4585  0.5902
  633THF     O113237   3.951   2.740   2.268  0.3650 -0.2277 -0.6662
  633THF     C213238   4.058   2.707   2.358 -0.1039  0.8294  0.0914
  633THF     C313239   3.831   2.741   2.347 -0.0778 -0.9845  0.1920
  633THF     H413240   4.145   2.753   2.312 -1.2901  3.3595  0.1676
  633THF     H513241   4.054   2.601   2.380 -2.2474  0.8846  0.2060
  633THF     H613242   3.760   2.806   2.296 -0.2033 -2.5695 -1.7717
  633THF     H713243   3.787   2.641   2.352 -1.7351 -0.2415  1.3890
  633THF     C813244   3.871   2.794   2.484  0.0481  0.3600 -0.2258
  633THF     C913245   4.018   2.776   2.493 -0.3566  0.8301  0.6171
  633THF    H1013246   3.814   2.748   2.565 -0.9406 -1.0658 -1.6848
  633THF    H1113247   3.835   2.897   2.487 -0.5633  0.1510 -0.3484
  633THF    H1213248   4.071   2.871   2.502  3.1318 -0.9472  0.4095
  633THF    H1313249   4.044   2.710   2.576 -1.4172 -1.0314 -0.4470
  634THF     O113250   3.107   2.461   0.584  0.3629  0.2316  0.4244
  634THF     C213251   3.242   2.464   0.639  0.5136  0.5100 -1.0307
  634THF     C313252   3.072   2.321   0.548 -0.0165 -0.6315  1.0846
  634THF     H413253   3.244   2.502   0.741 -1.5205  1.1728 -1.1934
  634THF     H513254   3.308   2.525   0.578  0.4030  0.0593 -1.6099
  634THF     H613255   2.972   2.281   0.563  0.1093 -1.4359 -0.0525
  634THF     H713256   3.101   2.303   0.445  0.8235 -1.0311  1.3784
  634THF     C813257   3.165   2.244   0.625 -0.3432  0.0732  0.7330
  634THF     C913258   3.292   2.319   0.625  0.1355  0.0803 -0.6984
  634THF    H1013259   3.184   2.146   0.580 -0.8255  0.0442  0.5923
  634THF    H1113260   3.121   2.225   0.723 -1.1919 -1.3124  0.1121
  634THF    H1213261   3.368   2.279   0.693 -2.3902 -2.3286  0.9373
  634THF    H1313262   3.347   2.319   0.531  1.1916 -0.8369 -0.0997
  635THF     O113263   5.461   2.786   5.211  0.2188  0.3337  0.3704
  635THF     C213264   5.508   2.784   5.350 -0.4383 -0.2795  0.2160
  635THF     C313265   5.400   2.912   5.207  0.4237 -0.6509  0.1735
  635THF     H413266   5.569   2.696   5.370  1.3514 -0.1693 -3.8964
  635THF     H513267   5.418   2.770   5.411  0.7943  0.4230  2.2975
  635THF     H613268   5.379   2.941   5.104  0.4728  1.2090  0.6507
  635THF     H713269   5.302   2.910   5.253 -0.8796  0.7993 -2.3084
  635THF     C813270   5.505   3.003   5.272  0.3404  0.2665 -0.0774
  635THF     C913271   5.575   2.919   5.372 -0.2772 -0.1788 -0.4438
  635THF    H1013272   5.468   3.102   5.300  0.3247  0.2771 -0.1366
  635THF    H1113273   5.583   3.023   5.199 -0.4768  0.9494 -0.7881
  635THF    H1213274   5.683   2.929   5.373 -0.3219  0.8351 -2.0197
  635THF    H1313275   5.541   2.941   5.473 -0.2890 -0.7155 -0.3277
  636THF     O113276   0.793   3.414   2.790 -0.3682 -0.2293  0.1218
  636THF     C213277   0.664   3.368   2.764  0.2830  0.4397 -0.8585
  636THF     C313278   0.822   3.410   2.929  0.5144  0.2860  0.4301
  636THF     H413279   0.669   3.259   2.759  0.4621  0.4040 -0.0591
  636THF     H513280   0.619   3.410   2.675  0.6209  1.6976 -0.4563
  636THF     H613281   0.895   3.330   2.937  1.4507  1.1595  0.9124
  636THF     H713282   0.870   3.508   2.940  0.3874  0.6316 -1.7808
  636THF     C813283   0.684   3.370   2.996  0.2654 -0.1476  0.2728
  636THF     C913284   0.588   3.410   2.886 -0.3281 -0.2184 -0.6790
  636THF    H1013285   0.680   3.422   3.092  2.0939 -0.6407  0.6551
  636THF    H1113286   0.676   3.264   3.018  0.4088 -0.3928 -0.8089
  636THF    H1213287   0.488   3.367   2.883 -0.1592 -0.8481  1.1797
  636THF    H1313288   0.571   3.517   2.892  0.7020 -0.1206  2.6574
  637THF     O113289   4.256   3.847   3.909  0.2139  0.0192 -0.3674
  637THF     C213290   4.341   3.950   3.855 -0.4096 -0.2618 -1.5041
  637THF     C313291   4.132   3.865   3.844  0.6991  0.0328 -0.0458
  637THF     H413292   4.448   3.931   3.865 -0.2063 -1.1271 -4.2425
  637THF     H513293   4.320   4.045   3.904  1.2012 -1.0622  0.9330
  637THF     H613294   4.093   3.763   3.843  0.6464  0.0404 -1.9014
  637THF     H713295   4.066   3.937   3.892  1.5037  1.0750 -0.4932
  637THF     C813296   4.168   3.902   3.705 -0.1718 -1.1500 -0.1730
  637THF     C913297   4.303   3.960   3.710 -0.8643 -0.0298  0.3606
  637THF    H1013298   4.102   3.984   3.679  3.3935  2.2104  0.3320
  637THF    H1113299   4.152   3.814   3.642  1.4981 -3.2023  2.0524
  637THF    H1213300   4.372   3.899   3.652  0.4163  2.1860 -0.6093
  637THF    H1313301   4.315   4.066   3.685  1.6941 -0.1167  0.9526
  638THF     O113302   1.375   2.168   3.638  0.7261  0.3396 -0.3945
  638THF     C213303   1.323   2.151   3.772 -0.0701 -0.1475  0.3793
  638THF     C313304   1.507   2.222   3.649  1.0641  0.1123 -0.2728
  638THF     H413305   1.239   2.082   3.778  0.1760 -0.4436  0.4212
  638THF     H513306   1.285   2.251   3.794 -0.0124  0.5321 -2.3176
  638THF     H613307   1.577   2.184   3.575 -0.1237 -2.8020 -0.0446
  638THF     H713308   1.491   2.329   3.643  1.1532  0.2074  0.9448
  638THF     C813309   1.555   2.171   3.790 -0.2099  0.3266 -0.0066
  638THF     C913310   1.441   2.097   3.855  0.2415 -0.2724 -0.1769
  638THF    H1013311   1.586   2.263   3.839 -0.5633  0.3405  0.1941
  638THF    H1113312   1.645   2.110   3.781 -0.4805 -0.1011  0.1562
  638THF    H1213313   1.441   1.989   3.847  0.3352 -0.5287  2.5058
  638THF    H1313314   1.425   2.127   3.959  0.3709  0.0872 -0.2592
  639THF     O113315   1.219   3.090   3.564  0.6999  0.3712 -0.3847
  639THF     C213316   1.077   3.114   3.556 -0.3532  0.3898  0.3817
  639THF     C313317   1.231   2.949   3.590 -0.3051  0.7659  0.6964
  639THF     H413318   1.021   3.076   3.470 -3.0404  0.7652  1.8525
  639THF     H513319   1.065   3.222   3.547 -1.9823  0.0760 -2.8190
  639THF     H613320   1.214   2.887   3.502  0.5561  1.2066  0.2101
  639THF     H713321   1.328   2.930   3.635 -0.8145  0.6842  1.8080
  639THF     C813322   1.110   2.921   3.681  0.4617  0.1366 -0.4567
  639THF     C913323   1.025   3.039   3.680 -0.3956 -0.0953 -0.5724
  639THF    H1013324   1.134   2.905   3.786 -1.4442 -1.8713 -0.2488
  639THF    H1113325   1.069   2.823   3.657 -0.8246  0.3273  0.8355
  639THF    H1213326   0.918   3.036   3.696 -0.4334  2.1144 -0.0855
  639THF    H1313327   1.064   3.099   3.762  2.3574 -1.0758 -1.0311
  640THF     O113328   1.820   2.462   0.550 -0.3023 -0.0524 -0.2795
  640THF     C213329   1.769   2.412   0.675  0.7359  0.1497  0.3167
  640THF     C313330   1.738   2.566   0.502  0.2501  0.6577 -0.2601
  640THF     H413331   1.854   2.359   0.717  1.8374 -0.7828 -2.7913
  640THF     H513332   1.690   2.342   0.649  0.2905  1.2990 -1.6772
  640THF     H613333   1.795   2.630   0.435  2.0685 -0.9028 -0.3039
  640THF     H713334   1.654   2.512   0.458  0.3452 -0.1308  0.4819
  640THF     C813335   1.708   2.641   0.631 -0.1201 -0.5875 -0.0881
  640THF     C913336   1.716   2.540   0.742  0.6265 -0.1620  0.3564
  640THF    H1013337   1.614   2.697   0.623  0.7611  0.9769  0.1890
  640THF    H1113338   1.790   2.712   0.626 -2.0819  1.7872 -4.3010
  640THF    H1213339   1.790   2.584   0.809 -0.0452  2.4399 -0.4698
  640THF    H1313340   1.621   2.536   0.795 -0.5790 -1.8991 -1.7571
  641THF     O113341   4.383   1.271   0.939 -0.3591  0.2596  0.1146
  641THF     C213342   4.470   1.369   0.994 -0.3562  0.6849  0.4611
  641THF     C313343   4.272   1.257   1.025  0.0895 -0.0199 -0.3828
  641THF     H413344   4.536   1.413   0.920  0.2280 -1.3316 -0.2843
  641THF     H513345   4.522   1.329   1.081 -2.3794  0.7792  1.7808
  641THF     H613346   4.180   1.245   0.968 -0.9438 -1.7911  1.5025
  641THF     H713347   4.278   1.171   1.091  0.4952  0.4949  0.2715
  641THF     C813348   4.272   1.381   1.118 -0.5284 -1.0790 -0.4814
  641THF     C913349   4.373   1.470   1.052  0.0598  0.1700 -0.0514
  641THF    H1013350   4.305   1.367   1.221 -0.3867  0.0073 -0.3663
  641THF    H1113351   4.175   1.431   1.121  0.3249  0.6138  1.0565
  641THF    H1213352   4.329   1.534   0.975 -1.9480  1.0445  1.7152
  641THF    H1313353   4.428   1.536   1.120  0.0560  0.6026 -0.4617
  642THF     O113354   5.018   0.873   1.880 -0.2330  0.3198 -0.0405
  642THF     C213355   4.978   0.752   1.954  1.0032  0.2075  0.1353
  642THF     C313356   4.932   0.888   1.770 -0.0979  0.7043 -0.2029
  642THF     H413357   5.018   0.748   2.055  1.6240  0.0696 -0.1156
  642THF     H513358   5.007   0.659   1.905  0.6306  0.2559 -0.1823
  642THF     H613359   4.929   0.984   1.719  1.8161  1.0724  0.3122
  642THF     H713360   4.957   0.806   1.702 -0.5977  0.4057 -0.0298
  642THF     C813361   4.799   0.841   1.829 -0.6199  0.1198  0.5666
  642THF     C913362   4.827   0.779   1.962 -0.3938  0.4379 -0.3726
  642THF    H1013363   4.751   0.766   1.766 -2.4711 -0.0992  2.1499
  642THF    H1113364   4.733   0.928   1.831  2.1413  2.3782 -0.1954
  642THF    H1213365   4.799   0.841   2.047  0.4496  1.7964 -1.0513
  642THF    H1313366   4.764   0.690   1.972 -1.6741  1.4828  1.6674
  643THF     O113367   3.738   0.259   5.352  0.3033  0.0785  1.0302
  643THF     C213368   3.866   0.193   5.338 -0.6231  0.4028  0.7362
  643THF     C313369   3.636   0.169   5.319  0.2020  0.5273 -0.2307
  643THF     H413370   3.865   0.124   5.423  0.4774  0.3802  0.7475
  643THF     H513371   3.960   0.248   5.345  0.7972 -1.6358 -1.0593
  643THF     H613372   3.609   0.096   5.394 -0.2539 -0.8595 -1.6889
  643THF     H713373   3.547   0.224   5.287 -1.4236 -1.9092 -0.1157
  643THF     C813374   3.694   0.091   5.203 -0.3777 -0.1248  0.2174
  643THF     C913375   3.843   0.128   5.201 -0.0864 -0.2995  0.1949
  643THF    H1013376   3.647   0.107   5.106 -0.5925 -1.9304 -0.0130
  643THF    H1113377   3.687  -0.017   5.218 -1.5968 -0.2010 -0.7730
  643THF    H1213378   3.916   0.053   5.171  2.1095  1.8789 -0.3135
  643THF    H1313379   3.843   0.211   5.130 -0.8703  0.9919  1.6376
  644THF     O113380   3.996   2.990   4.668 -0.0028 -0.6741  0.0523
  644THF     C213381   3.938   3.072   4.568 -0.0510 -0.3933 -0.6890
  644THF     C313382   3.997   2.853   4.628 -0.3722  0.6802 -0.3100
  644THF     H413383   4.009   3.144   4.527 -0.7381  0.0518 -1.1029
  644THF     H513384   3.857   3.132   4.608  0.4929 -0.7783  1.0690
  644THF     H613385   4.088   2.837   4.569 -0.9346  4.6091 -2.6269
  644THF     H713386   3.987   2.781   4.710  0.2724 -0.5261 -1.2514
  644THF     C813387   3.869   2.846   4.549  0.4657 -0.4974  0.7652
  644THF     C913388   3.882   2.974   4.471 -0.2038  0.1524 -0.0196
  644THF    H1013389   3.788   2.861   4.620 -1.0871 -2.3804 -0.4824
  644THF    H1113390   3.851   2.757   4.487 -2.6867 -1.0975  2.3418
  644THF    H1213391   3.954   2.947   4.394  0.5323 -2.5649  1.4898
  644THF    H1313392   3.781   2.982   4.431 -1.7792 -1.7145  3.1813
  645THF     O113393   4.681   2.055   1.596 -1.0218 -0.0054 -0.4566
  645THF     C213394   4.672   2.009   1.461 -0.1823  0.5887 -0.3162
  645THF     C313395   4.740   2.187   1.599 -0.4315  0.2227  0.8530
  645THF     H413396   4.584   2.061   1.421  0.5771  1.3778 -0.9863
  645THF     H513397   4.647   1.904   1.452 -0.0743  0.5736 -0.4277
  645THF     H613398   4.660   2.258   1.578  1.4258  2.4219  0.8546
  645THF     H713399   4.782   2.207   1.697 -0.3958  0.8163  0.7181
  645THF     C813400   4.840   2.178   1.488  0.3183  0.0600  0.0852
  645THF     C913401   4.809   2.052   1.407 -0.0631  0.6888 -0.5098
  645THF    H1013402   4.942   2.170   1.526  0.1243  0.6211  0.7412
  645THF    H1113403   4.837   2.266   1.424 -2.3941 -0.8518 -1.2083
  645THF    H1213404   4.809   2.074   1.301  1.8946  1.1448 -0.4592
  645THF    H1313405   4.891   1.980   1.417 -0.2822  0.4973 -0.0445
  646THF     O113406   1.265   4.144   4.538  0.0085 -0.1719 -0.3813
  646THF     C213407   1.138   4.125   4.600  0.1573 -0.1009 -0.3653
  646THF     C313408   1.250   4.216   4.419 -0.2561  0.0381  0.2022
  646THF     H413409   1.144   4.162   4.702 -1.2456  2.0376 -0.9681
  646THF     H513410   1.103   4.022   4.604 -0.0402 -0.0206 -0.0401
  646THF     H613411   1.289   4.316   4.438  1.6895 -0.7271  0.4193
  646THF     H713412   1.320   4.182   4.343 -1.3616 -0.0673 -0.8079
  646THF     C813413   1.105   4.219   4.384 -0.0826  0.2267 -0.0133
  646THF     C913414   1.043   4.219   4.521  0.3010  0.4297 -0.4787
  646THF    H1013415   1.074   4.136   4.320 -0.2771 -0.2680  0.7075
  646THF    H1113416   1.090   4.308   4.323 -0.2818  0.2572  0.0778
  646THF    H1213417   1.049   4.318   4.566  0.0155  1.3131 -2.2858
  646THF    H1313418   0.941   4.181   4.527  0.4203  0.2134  0.3618
  647THF     O113419   4.550   2.370   1.391 -0.0810 -0.3055  0.1414
  647THF     C213420   4.559   2.468   1.287 -0.5074 -0.0478  0.0703
  647THF     C313421   4.423   2.323   1.403  1.1361  0.2503  0.9644
  647THF     H413422   4.573   2.429   1.186  0.4409 -1.1427  0.5923
  647THF     H513423   4.649   2.528   1.301 -0.3586  0.1321 -1.4818
  647THF     H613424   4.418   2.252   1.320 -0.7860 -0.8632  1.9739
  647THF     H713425   4.393   2.284   1.500 -1.7309  1.3651  0.6229
  647THF     C813426   4.336   2.439   1.356 -0.7579 -0.9304  0.5180
  647THF     C913427   4.431   2.540   1.291  0.6565 -0.0836  0.3710
  647THF    H1013428   4.286   2.484   1.442  0.1068 -0.9906  1.0709
  647THF    H1113429   4.254   2.405   1.293  0.4324 -0.7801 -1.1854
  647THF    H1213430   4.390   2.576   1.196 -1.8957  0.6666  1.6365
  647THF    H1313431   4.445   2.626   1.356 -1.6174 -0.0360  0.8904
  648THF     O113432   2.920   1.513   2.275  0.0740 -0.6396 -0.2680
  648THF     C213433   2.796   1.580   2.269 -0.0148  0.1537 -1.1050
  648THF     C313434   2.891   1.378   2.249  0.5753  0.2160 -0.2104
  648THF     H413435   2.765   1.598   2.166 -2.9405  2.2721  0.0320
  648THF     H513436   2.800   1.676   2.320  0.9438  0.6083 -2.0115
  648THF     H613437   2.867   1.369   2.143 -1.0922 -1.0993  0.2341
  648THF     H713438   2.961   1.299   2.276 -0.4126  0.4831  3.5724
  648THF     C813439   2.763   1.352   2.335  0.5336 -0.2953  0.4133
  648THF     C913440   2.704   1.493   2.352  0.2933 -0.2027  0.0346
  648THF    H1013441   2.791   1.313   2.433  3.3141 -0.9157 -0.5320
  648THF    H1113442   2.695   1.281   2.288  0.8705 -0.8238  0.7179
  648THF    H1213443   2.604   1.490   2.309  0.6551 -0.9626 -0.7869
  648THF    H1313444   2.699   1.522   2.456 -0.2908 -1.7534  0.4627
  649THF     O113445   1.743   4.853   1.092 -0.8430 -0.1817  0.0075
  649THF     C213446   1.877   4.823   1.146  0.0494  0.0722 -1.1632
  649THF     C313447   1.730   4.793   0.964  0.2366 -0.0634 -0.3364
  649THF     H413448   1.882   4.825   1.255 -0.0229 -2.1082 -1.0736
  649THF     H513449   1.955   4.873   1.089 -0.7897  1.2645 -1.2967
  649THF     H613450   1.628   4.756   0.957  0.1089  0.1043  0.4862
  649THF     H713451   1.752   4.872   0.892  1.6303 -1.5711 -1.6452
  649THF     C813452   1.831   4.688   0.957 -0.6444  0.6323  0.1933
  649THF     C913453   1.881   4.670   1.098  0.4836  0.1350 -0.2519
  649THF    H1013454   1.925   4.712   0.908  0.4505 -1.3266  1.2321
  649THF    H1113455   1.786   4.598   0.916 -1.4887  0.3512  1.6456
  649THF    H1213456   1.804   4.617   1.154  0.0608  2.4515  1.5379
  649THF    H1313457   1.978   4.622   1.096 -0.1558 -1.2063 -0.0581
  650THF     O113458   4.244   0.052   2.398  0.5363  0.4463 -0.0355
  650THF     C213459   4.333   0.131   2.322  0.4561  0.1501 -0.1772
  650THF     C313460   4.258  -0.087   2.368  0.6926 -0.5895 -0.6464
  650THF     H413461   4.339   0.236   2.353 -2.0091 -0.0130  1.1532
  650THF     H513462   4.280   0.129   2.227 -0.1085 -1.1417  0.1505
  650THF     H613463   4.252  -0.143   2.462  1.3222  1.5852  0.7667
  650THF     H713464   4.176  -0.115   2.302 -1.7760  0.6887  1.6580
  650THF     C813465   4.401  -0.098   2.301 -0.2581 -0.2380 -0.6124
  650THF     C913466   4.460   0.048   2.316 -0.4112  0.2731 -0.4159
  650THF    H1013467   4.401  -0.115   2.194  0.5541 -0.9223 -0.5127
  650THF    H1113468   4.464  -0.165   2.359  1.1095  0.4674 -1.2537
  650THF    H1213469   4.516   0.054   2.409 -0.3357 -0.2729 -0.4217
  650THF    H1313470   4.514   0.072   2.225 -1.1051 -0.3202 -0.9999
  651THF     O113471   0.259   3.977   0.977 -0.3152 -0.8467  0.1548
  651THF     C213472   0.250   3.993   0.837  0.5485  0.0181 -0.4826
  651THF     C313473   0.304   3.842   1.003 -0.4329  0.2309  0.3573
  651THF     H413474   0.340   4.041   0.798 -0.4323  2.3397 -0.0623
  651THF     H513475   0.173   4.067   0.814  0.6843  0.0444 -0.8535
  651THF     H613476   0.403   3.838   1.050 -0.3899  1.1565  0.3743
  651THF     H713477   0.222   3.806   1.065 -0.7419 -0.8789 -0.6725
  651THF     C813478   0.321   3.778   0.858 -0.6780  0.6919  0.1972
  651THF     C913479   0.220   3.860   0.778  0.0968  0.8344 -0.0805
  651THF    H1013480   0.288   3.674   0.850 -3.6177  1.6446 -4.2696
  651THF    H1113481   0.419   3.784   0.810 -0.0973  0.0493  1.2806
  651THF    H1213482   0.247   3.854   0.672  0.3788 -0.5049  0.0381
  651THF    H1313483   0.117   3.840   0.806 -0.2817 -0.5150 -2.1810
  652THF     O113484   3.499   4.342   2.654  0.0922  0.8966  0.1643
  652THF     C213485   3.410   4.445   2.697 -0.4900 -0.8123 -0.5340
  652THF     C313486   3.537   4.366   2.519 -0.3508  0.0487 -0.4590
  652THF     H413487   3.427   4.455   2.804  3.2555  0.0352 -1.0891
  652THF     H513488   3.303   4.424   2.690 -0.2629 -2.9498  1.2619
  652THF     H613489   3.645   4.351   2.522 -0.4487 -1.1585 -1.8581
  652THF     H713490   3.496   4.301   2.442  2.9097  0.8628 -3.1297
  652THF     C813491   3.502   4.507   2.485  0.3793 -0.7627 -0.3782
  652THF     C913492   3.453   4.570   2.613  0.2009  0.0933 -0.5374
  652THF    H1013493   3.416   4.514   2.419 -0.3755  1.4261  0.7204
  652THF    H1113494   3.585   4.564   2.444 -1.9342  2.0153 -1.5707
  652THF    H1213495   3.538   4.626   2.651 -1.3308  3.1963 -1.3801
  652THF    H1313496   3.376   4.647   2.602 -0.5779 -0.5913 -0.0734
  653THF     O113497   1.798   4.684   0.326 -0.4807  0.2135 -0.2708
  653THF     C213498   1.690   4.602   0.361  0.6584  0.1573 -0.2064
  653THF     C313499   1.842   4.758   0.437 -0.8523 -0.2378 -0.0098
  653THF     H413500   1.741   4.518   0.406 -0.3880 -0.8058 -0.7555
  653THF     H513501   1.628   4.560   0.281 -0.6528 -2.0402  1.8296
  653THF     H613502   1.912   4.705   0.501 -0.3001  1.3573  0.7609
  653THF     H713503   1.897   4.846   0.403 -0.9524 -0.4861 -0.8423
  653THF     C813504   1.710   4.794   0.511 -0.0484 -0.3728  0.1915
  653THF     C913505   1.608   4.697   0.448  0.0124 -0.2825  0.0296
  653THF    H1013506   1.676   4.897   0.494  1.0859  0.0156  0.2242
  653THF    H1113507   1.714   4.774   0.618  2.5574 -0.8596  0.0602
  653THF    H1213508   1.548   4.646   0.524 -0.9362 -0.1667 -0.6269
  653THF    H1313509   1.537   4.754   0.388  1.0680 -2.9056 -4.0555
  654THF     O113510   5.271   3.139   1.655 -0.1056 -0.0277  0.0435
  654THF     C213511   5.271   3.004   1.607  0.1553 -0.1378  0.2268
  654THF     C313512   5.220   3.228   1.551  0.5159  1.1741  0.0287
  654THF     H413513   5.167   2.973   1.593  0.2554 -0.6156  0.5073
  654THF     H513514   5.317   2.919   1.657  0.0935 -0.6059 -0.5061
  654THF     H613515   5.112   3.214   1.545  0.8334 -2.2273  0.6606
  654THF     H713516   5.259   3.330   1.550  2.0081  0.6375  0.5928
  654THF     C813517   5.278   3.162   1.425  0.4719  0.6684 -0.1912
  654THF     C913518   5.341   3.028   1.472 -0.2820  0.1277  0.5186
  654THF    H1013519   5.341   3.227   1.365  1.6958 -0.8262 -0.5950
  654THF    H1113520   5.207   3.124   1.351  0.1954 -2.1259  1.3753
  654THF    H1213521   5.314   2.949   1.402 -0.8406  0.7537  0.0204
  654THF    H1313522   5.446   3.029   1.501 -0.2822  1.8999  0.5709
  655THF     O113523   3.297   3.668   1.383 -0.4048  0.8252 -0.0757
  655THF     C213524   3.406   3.597   1.446 -0.5557  1.0149 -0.2005
  655THF     C313525   3.254   3.571   1.285  0.2119  0.1013 -0.4379
  655THF     H413526   3.366   3.531   1.523 -0.0709 -0.0187 -0.8232
  655THF     H513527   3.473   3.661   1.504 -2.2723  2.1089  0.6679
  655THF     H613528   3.200   3.490   1.335 -0.4840 -1.5220 -3.5975
  655THF     H713529   3.184   3.620   1.218 -0.9038  0.1493  0.7217
  655THF     C813530   3.378   3.520   1.223 -0.1504 -0.1372 -0.3648
  655THF     C913531   3.476   3.515   1.339  0.5665 -0.0887 -0.2172
  655THF    H1013532   3.414   3.586   1.145  0.3036  0.0211 -0.0255
  655THF    H1113533   3.359   3.423   1.176 -0.8426 -0.1785 -0.0195
  655THF    H1213534   3.482   3.411   1.369  1.6172  0.0297  0.0200
  655THF    H1313535   3.578   3.541   1.313  0.4644 -1.0213 -1.6543
  656THF     O113536   0.503   0.515   1.570 -0.1325  0.4634 -0.4893
  656THF     C213537   0.469   0.441   1.448  0.7783  0.1689  0.3188
  656THF     C313538   0.416   0.623   1.584  0.5663 -0.1531 -0.3443
  656THF     H413539   0.382   0.384   1.478 -0.3316  1.7017  0.1162
  656THF     H513540   0.547   0.370   1.422 -0.2059 -0.6596 -0.4378
  656THF     H613541   0.320   0.576   1.604  0.4613  0.2749  0.1612
  656THF     H713542   0.448   0.685   1.667 -0.4192  0.4124 -0.3742
  656THF     C813543   0.419   0.681   1.440  0.3638  0.9678 -0.2313
  656THF     C913544   0.443   0.558   1.353 -0.1665 -0.2218 -0.9923
  656THF    H1013545   0.500   0.750   1.415  0.0164  0.9938 -1.3422
  656THF    H1113546   0.322   0.723   1.414 -1.4018 -1.9842  1.0817
  656THF    H1213547   0.375   0.559   1.269 -0.0461  0.9303 -1.0834
  656THF    H1313548   0.541   0.588   1.316  0.1829  2.2104  1.5744
  657THF     O113549   0.751   2.367   0.098 -0.3955 -0.1376  0.3726
  657THF     C213550   0.800   2.429   0.215  0.0532 -0.1203  0.0886
  657THF     C313551   0.689   2.466   0.023 -0.2314  0.2074 -0.1435
  657THF     H413552   0.874   2.369   0.269  1.2333  0.5994 -0.6901
  657THF     H513553   0.718   2.446   0.285  0.4710 -1.2103  0.8720
  657THF     H613554   0.661   2.414  -0.069  1.1595 -0.5720 -0.1447
  657THF     H713555   0.593   2.496   0.066  1.1575  2.6485  1.5105
  657THF     C813556   0.781   2.582   0.027 -0.3269  0.3592 -0.2129
  657THF     C913557   0.861   2.556   0.156  0.3473 -0.6259  0.6407
  657THF    H1013558   0.729   2.676   0.047  2.7405  1.8920  1.1487
  657THF    H1113559   0.848   2.602  -0.056  1.4472  0.6843  1.2255
  657THF    H1213560   0.964   2.529   0.130 -0.0025 -0.9393 -0.4544
  657THF    H1313561   0.865   2.639   0.227  0.8159  0.6507 -0.8223
  658THF     O113562   4.142   0.201   0.536  0.0077 -0.1821  0.0042
  658THF     C213563   4.064   0.086   0.561 -0.2215  0.0547 -0.3664
  658THF     C313564   4.194   0.247   0.668  0.5517  0.0242  0.3456
  658THF     H413565   4.053   0.013   0.481  0.8442  0.7477 -1.1768
  658THF     H513566   3.964   0.123   0.583  0.7617  1.0925  2.8564
  658THF     H613567   4.286   0.305   0.663  0.3143  0.3165 -0.9662
  658THF     H713568   4.127   0.320   0.714  0.2266  1.4945 -2.3055
  658THF     C813569   4.213   0.110   0.746 -0.6972 -0.0670 -0.4810
  658THF     C913570   4.107   0.022   0.696  0.4022 -0.0037  1.1646
  658THF    H1013571   4.223   0.116   0.854  1.7921  0.8047 -0.6727
  658THF    H1113572   4.303   0.066   0.702 -1.7398 -0.8479 -1.9005
  658THF    H1213573   4.139  -0.082   0.687  1.6316  0.3080  1.6462
  658THF    H1313574   4.023   0.031   0.766 -0.3997  0.9129  0.1054
  659THF     O113575   0.251   1.984   0.608  0.3832 -0.4450 -0.1334
  659THF     C213576   0.386   1.957   0.558 -0.1609  0.5365  0.0830
  659THF     C313577   0.159   1.898   0.538  0.3524 -0.3544 -0.7323
  659THF     H413578   0.454   1.927   0.638 -0.5534  0.1660  0.2830
  659THF     H513579   0.429   2.044   0.508  1.3522  0.0054  0.3899
  659THF     H613580   0.074   1.884   0.606  0.4840 -2.1236 -0.8927
  659THF     H713581   0.133   1.954   0.448  1.0480  2.4394  0.6784
  659THF     C813582   0.236   1.775   0.501  0.0575 -0.6388  0.0118
  659THF     C913583   0.376   1.836   0.471 -0.6246 -0.3584 -0.3683
  659THF    H1013584   0.201   1.719   0.415 -0.2889 -1.7163  0.8334
  659THF    H1113585   0.245   1.704   0.583 -1.6737 -0.0353  0.7689
  659THF    H1213586   0.441   1.754   0.502 -0.6614 -0.7797 -1.3680
  659THF    H1313587   0.385   1.871   0.368  0.4767 -0.7934 -0.4268
  660THF     O113588   2.195   0.892   2.662 -0.0286 -0.7124 -0.4010
  660THF     C213589   2.246   0.900   2.532 -0.1828  0.0878  0.3222
  660THF     C313590   2.174   0.754   2.676  0.4310 -0.0252 -0.4378
  660THF     H413591   2.300   0.994   2.522 -0.3611 -0.0065 -2.0810
  660THF     H513592   2.182   0.891   2.444 -0.8798 -0.2474  0.8535
  660THF     H613593   2.158   0.738   2.783 -0.0239 -0.0985 -0.5181
  660THF     H713594   2.089   0.722   2.616  0.5854 -0.0099 -0.6667
  660THF     C813595   2.292   0.687   2.618  0.9530  0.3196  0.4025
  660THF     C913596   2.352   0.788   2.523 -0.0656 -0.1449 -0.8008
  660THF    H1013597   2.268   0.586   2.584 -0.3833  0.1128  1.8115
  660THF    H1113598   2.363   0.677   2.701 -1.0113  2.2912  2.4652
  660THF    H1213599   2.438   0.829   2.577 -1.5037  0.6251  1.0459
  660THF    H1313600   2.387   0.760   2.424 -0.8870 -0.6583 -0.9558
  661THF     O113601   0.909   5.042   1.010 -0.3966 -0.1788  0.1086
  661THF     C213602   0.848   4.960   1.113  0.0084  0.6065  0.3353
  661THF     C313603   1.045   5.070   1.060  0.3039  0.4408 -0.0439
  661THF     H413604   0.886   4.858   1.114 -0.1226  0.5343  2.4647
  661THF     H513605   0.740   4.947   1.117 -0.1579  2.0833  2.4097
  661THF     H613606   1.089   4.970   1.064 -1.9864 -0.7133 -1.5796
  661THF     H713607   1.090   5.140   0.989 -0.7723  2.8567  1.5073
  661THF     C813608   1.008   5.121   1.199 -0.0551 -0.1961  0.1852
  661THF     C913609   0.881   5.039   1.230 -0.5194  0.4193 -0.0045
  661THF    H1013610   0.991   5.228   1.209  1.4591  0.0195  0.6927
  661THF    H1113611   1.080   5.104   1.278  0.6371  1.8291  0.0511
  661THF    H1213612   0.914   4.966   1.305  1.4313  0.7981 -0.4376
  661THF    H1313613   0.803   5.096   1.281  1.2882  1.1558  2.1025
  662THF     O113614   3.975   0.174   2.034  0.3021  0.5926  0.2698
  662THF     C213615   3.939   0.221   2.160 -0.3625  0.1468  0.5273
  662THF     C313616   3.867   0.094   1.972 -0.3818  0.1560 -0.5474
  662THF     H413617   3.948   0.329   2.166  1.2441  0.0558  0.0737
  662THF     H513618   4.003   0.176   2.235 -0.4120  0.8664  1.0131
  662THF     H613619   3.805   0.158   1.909 -0.5629  0.5809  0.0547
  662THF     H713620   3.895   0.002   1.921  1.4307  0.2798  0.1557
  662THF     C813621   3.780   0.054   2.094  0.0830 -0.4180  0.5271
  662THF     C913622   3.801   0.173   2.187  0.6337  0.4483  0.3708
  662THF    H1013623   3.812  -0.036   2.145 -1.0702 -0.6043  0.9408
  662THF    H1113624   3.678   0.033   2.062  0.2811 -0.1523 -0.3200
  662THF    H1213625   3.722   0.240   2.154 -3.3247 -3.0172  1.8457
  662THF    H1313626   3.776   0.145   2.289 -1.4602  1.1896  0.1209
  663THF     O113627   2.909   2.603   5.437  0.4711  0.6231 -0.2519
  663THF     C213628   2.804   2.592   5.342  0.1600 -0.3347 -0.0163
  663THF     C313629   2.930   2.743   5.465  0.0507  0.2211  0.2733
  663THF     H413630   2.747   2.500   5.353  1.5474 -1.1260  0.8098
  663THF     H513631   2.846   2.596   5.241  1.1611  0.2236  0.4108
  663THF     H613632   2.910   2.768   5.570  1.5107  2.1722  0.1384
  663THF     H713633   3.034   2.773   5.452 -0.0111  0.9478  1.3433
  663THF     C813634   2.824   2.822   5.377 -0.0536  0.7308 -0.1788
  663THF     C913635   2.716   2.715   5.365 -0.5505  0.1069 -0.3136
  663THF    H1013636   2.859   2.853   5.279  0.3080  3.1848  0.6768
  663THF    H1113637   2.786   2.910   5.429  0.0359  0.0173  1.1462
  663THF    H1213638   2.658   2.714   5.457 -1.4059  2.1426 -0.7758
  663THF    H1313639   2.642   2.738   5.288 -1.5954  1.1610  0.9558
  664THF     O113640   0.363   4.441   1.349 -0.1369 -0.0473 -0.0733
  664THF     C213641   0.377   4.303   1.376 -0.0081  0.0466  0.1067
  664THF     C313642   0.237   4.482   1.396 -0.3010 -0.1698 -0.5059
  664THF     H413643   0.446   4.302   1.461 -1.8928  0.6968  1.7233
  664THF     H513644   0.414   4.254   1.286  2.2591  1.5280  0.1594
  664THF     H613645   0.236   4.493   1.505  0.8169 -0.9161 -0.4105
  664THF     H713646   0.206   4.574   1.347  2.2652  0.1538 -1.6465
  664THF     C813647   0.151   4.360   1.363  0.0854 -0.4350  0.5207
  664THF     C913648   0.240   4.247   1.410 -0.2135 -0.8219  0.3793
  664THF    H1013649   0.143   4.358   1.254  1.5535  1.6689  0.3034
  664THF    H1113650   0.049   4.372   1.399  0.1638  1.8707  0.1180
  664THF    H1213651   0.229   4.234   1.518  1.3836  0.1030  0.6832
  664THF    H1313652   0.189   4.161   1.365 -3.2376  1.5830 -1.1481
  665THF     O113653   2.702   0.756   3.486  0.0452 -0.2739  0.0067
  665THF     C213654   2.715   0.845   3.596 -0.1190  0.6249  0.7871
  665THF     C313655   2.566   0.713   3.474  0.2256 -0.3234  0.6099
  665THF     H413656   2.676   0.941   3.560  2.4555  0.8338 -1.8155
  665THF     H513657   2.822   0.855   3.613 -0.0768  2.0551 -0.1193
  665THF     H613658   2.521   0.789   3.409 -1.1547 -3.2424 -2.1009
  665THF     H713659   2.546   0.614   3.434  3.1804 -1.0792  0.7080
  665THF     C813660   2.510   0.728   3.614 -0.0626 -0.4241  0.1342
  665THF     C913661   2.620   0.790   3.701 -0.6937  0.3971  0.4469
  665THF    H1013662   2.467   0.635   3.654  1.2804 -1.6469 -1.1783
  665THF    H1113663   2.431   0.801   3.599  0.3112 -0.1571 -0.5560
  665THF    H1213664   2.578   0.862   3.772 -2.4986 -1.1298  1.0151
  665THF    H1313665   2.671   0.713   3.759 -1.5017 -1.9103 -1.7171
  666THF     O113666   5.167   4.511   5.294 -0.4839 -0.6088 -0.2147
  666THF     C213667   5.056   4.539   5.214  0.5271 -0.1561  0.6993
  666THF     C313668   5.201   4.376   5.265  0.3887  0.7762 -0.2058
  666THF     H413669   5.031   4.645   5.211 -1.8164 -0.6544 -0.9379
  666THF     H513670   4.966   4.481   5.236  1.0973 -1.5796 -0.5206
  666THF     H613671   5.303   4.356   5.298  0.1977  1.3197  0.7540
  666THF     H713672   5.126   4.309   5.308 -0.2928  1.2241 -0.6746
  666THF     C813673   5.201   4.378   5.109  0.6462  0.1177  0.4535
  666THF     C913674   5.111   4.500   5.077 -0.2590  0.1418  0.8036
  666THF    H1013675   5.167   4.282   5.071  1.3308  0.9445 -2.5224
  666THF    H1113676   5.302   4.388   5.070  0.6273 -2.1135 -0.2576
  666THF    H1213677   5.156   4.594   5.048  0.7805 -0.9326 -1.2507
  666THF    H1313678   5.036   4.476   5.001 -0.6488  2.1716  0.5046
  667THF     O113679   2.964   2.813   3.581  0.6375  0.2297 -0.3376
  667THF     C213680   2.822   2.842   3.551  0.2662  0.4261  0.2652
  667THF     C313681   3.018   2.742   3.473  0.6711  0.3646  0.5323
  667THF     H413682   2.824   2.945   3.515  0.1011  0.3694  0.0921
  667THF     H513683   2.756   2.826   3.636 -1.6055  2.3937 -0.7207
  667THF     H613684   3.113   2.778   3.433  0.7674 -0.3063  0.1392
  667THF     H713685   3.043   2.646   3.517 -0.3262  0.3365  1.0576
  667THF     C813686   2.911   2.740   3.371 -0.3289  0.1959  0.2310
  667THF     C913687   2.779   2.745   3.443  0.4383  0.5814  0.5239
  667THF    H1013688   2.906   2.655   3.303 -2.3495  1.7549 -1.7119
  667THF    H1113689   2.925   2.833   3.315  1.3103 -0.2031 -0.0621
  667THF    H1213690   2.701   2.795   3.386  0.4624 -0.5047 -0.5149
  667THF    H1313691   2.744   2.647   3.479  0.2702  0.3810 -0.1673
  668THF     O113692   4.255   2.199   2.081 -0.4075  0.0330 -0.2593
  668THF     C213693   4.246   2.319   2.161  0.1591  0.0019  0.1648
  668THF     C313694   4.256   2.238   1.943  0.1875  0.2124  0.2693
  668THF     H413695   4.299   2.324   2.256  0.4136  3.8509  0.0087
  668THF     H513696   4.140   2.323   2.189  0.4031 -2.6487  1.8732
  668THF     H613697   4.354   2.229   1.896 -0.8619 -0.7418 -1.8189
  668THF     H713698   4.185   2.172   1.893  0.0013 -1.2803  2.3770
  668THF     C813699   4.221   2.385   1.934  0.8543  0.3201  0.5544
  668THF     C913700   4.273   2.438   2.061 -0.1327 -0.3668  0.8030
  668THF    H1013701   4.114   2.402   1.925  0.9893  0.1726 -2.5254
  668THF    H1113702   4.258   2.434   1.844 -2.2988  2.8883  0.4742
  668THF    H1213703   4.378   2.464   2.074 -0.0507  0.8004 -1.6702
  668THF    H1313704   4.219   2.529   2.088 -0.5456 -0.7825  1.4195
  669THF     O113705   4.096   4.919   0.334 -0.0116 -0.4176  0.1743
  669THF     C213706   4.166   4.902   0.459 -0.1797 -0.4968 -0.8423
  669THF     C313707   4.160   4.836   0.243  0.4800  0.5158  0.3020
  669THF     H413708   4.110   4.955   0.535  0.7683  0.5271 -0.8410
  669THF     H513709   4.263   4.951   0.457  0.2999 -0.9931  3.0073
  669THF     H613710   4.097   4.832   0.154 -0.8937 -2.7622  1.2714
  669THF     H713711   4.256   4.880   0.217  0.5397  1.1347  1.4887
  669THF     C813712   4.175   4.709   0.320 -0.6224  0.1523 -0.1232
  669THF     C913713   4.184   4.750   0.466  0.4049  0.2473  0.0049
  669THF    H1013714   4.261   4.655   0.281  0.1402  1.0546  0.2839
  669THF    H1113715   4.093   4.641   0.296 -0.8927  0.1033  0.8707
  669THF    H1213716   4.102   4.700   0.518  0.5761  0.3769  0.4095
  669THF    H1313717   4.277   4.718   0.513  0.9759 -0.3620 -1.4760
  670THF     O113718   2.894   3.289   2.354  0.0727 -0.1065  0.4978
  670THF     C213719   2.863   3.163   2.286  0.2345 -0.3300 -0.0800
  670THF     C313720   2.770   3.364   2.359  0.2186  1.0283 -0.1921
  670THF     H413721   2.940   3.089   2.309  1.9692  1.8622  1.6498
  670THF     H513722   2.862   3.194   2.181 -1.1371  0.6702  0.1979
  670THF     H613723   2.785   3.443   2.434 -0.3810  0.2030  0.8257
  670THF     H713724   2.750   3.397   2.257  0.8037  0.8744 -0.3586
  670THF     C813725   2.668   3.251   2.396 -0.7725 -0.6517  0.1960
  670THF     C913726   2.712   3.123   2.322 -0.2663  0.9279 -0.0434
  670THF    H1013727   2.564   3.283   2.400 -0.1940  1.2224  1.6629
  670THF    H1113728   2.679   3.243   2.504  2.8178 -0.7125 -0.0535
  670THF    H1213729   2.696   3.037   2.387  0.0701 -0.1104 -1.2968
  670THF    H1313730   2.661   3.099   2.229  1.2300  1.7787 -1.1191
  671THF     O113731   4.986   1.412   0.734 -0.4075  0.2339 -0.8940
  671THF     C213732   4.875   1.476   0.678  0.3491  0.3359  0.6479
  671THF     C313733   5.018   1.301   0.650 -0.4220 -0.6970  0.5221
  671THF     H413734   4.900   1.524   0.584 -0.7426 -0.2769  0.0176
  671THF     H513735   4.834   1.552   0.744  1.1845  0.0011  1.5809
  671THF     H613736   5.092   1.348   0.585 -0.3043 -0.2552  0.9683
  671THF     H713737   5.060   1.215   0.702 -1.1787 -0.5184  1.4629
  671THF     C813738   4.894   1.245   0.591  0.2959  0.3498  0.3986
  671THF     C913739   4.787   1.351   0.639 -0.0721 -0.3493 -0.0015
  671THF    H1013740   4.871   1.143   0.624  1.2191  0.1756  0.5287
  671THF    H1113741   4.905   1.245   0.482  1.9286 -2.1021  0.4883
  671THF    H1213742   4.708   1.365   0.566 -0.3999 -2.7551 -0.2154
  671THF    H1313743   4.724   1.310   0.718 -1.3270 -0.3682 -0.9731
  672THF     O113744   1.813   2.203   5.388  0.3103 -0.1472  0.0886
  672THF     C213745   1.928   2.126   5.354  0.0286  0.3464  0.8155
  672THF     C313746   1.844   2.336   5.337 -0.6353 -0.1754  0.0660
  672THF     H413747   1.917   2.091   5.251 -0.2025  0.2182  0.8828
  672THF     H513748   1.930   2.035   5.415  1.1567  0.7678  1.4426
  672THF     H613749   1.836   2.352   5.229  1.4184 -0.2298 -0.1507
  672THF     H713750   1.780   2.415   5.374 -0.2725  1.0089 -1.7287
  672THF     C813751   1.992   2.361   5.382 -0.7091 -0.5794  0.2689
  672THF     C913752   2.053   2.220   5.370 -0.4582 -0.4889 -0.4831
  672THF    H1013753   1.997   2.402   5.483 -2.1090  0.4604 -0.0541
  672THF    H1113754   2.043   2.429   5.314  0.8851 -2.4699 -0.5270
  672THF    H1213755   2.125   2.208   5.289  0.9927  0.1764  0.6477
  672THF    H1313756   2.102   2.208   5.466 -1.5991  0.9592  0.3190
  673THF     O113757   5.099   1.944   0.897 -0.4010 -0.2127 -0.5689
  673THF     C213758   4.989   2.032   0.887  0.3167  0.2166 -0.5076
  673THF     C313759   5.059   1.820   0.961 -0.2886  0.0945 -0.2079
  673THF     H413760   4.995   2.115   0.817 -0.5981  2.2067  1.6215
  673THF     H513761   4.959   2.065   0.987 -1.3006 -2.3063 -0.0618
  673THF     H613762   5.120   1.741   0.916  0.2250  0.1865  0.3098
  673THF     H713763   5.081   1.824   1.068 -0.0570 -0.6360 -0.2234
  673THF     C813764   4.911   1.806   0.939 -0.3596  0.0880  0.2335
  673THF     C913765   4.884   1.922   0.842 -0.1801 -0.3445 -0.0019
  673THF    H1013766   4.863   1.834   1.033 -3.8444 -0.8633 -1.1082
  673THF    H1113767   4.880   1.708   0.903 -0.3072  0.3457 -0.5208
  673THF    H1213768   4.891   1.887   0.739 -1.2641  0.4348 -0.3508
  673THF    H1313769   4.783   1.959   0.858 -0.1405  0.5764 -1.6922
  674THF     O113770   0.310   0.430   4.157  0.1374  0.5092 -0.5169
  674THF     C213771   0.334   0.298   4.123 -0.9185  0.0833  0.1704
  674THF     C313772   0.306   0.437   4.307 -0.9327 -0.0629  0.2348
  674THF     H413773   0.437   0.265   4.128 -0.7837 -0.0171 -2.2547
  674THF     H513774   0.299   0.279   4.021 -1.6642 -0.3622  0.5003
  674THF     H613775   0.399   0.474   4.349  0.1735 -2.2956 -0.0679
  674THF     H713776   0.220   0.494   4.341  0.1796  1.1490  1.1069
  674THF     C813777   0.295   0.293   4.356 -0.3434  0.3935 -0.9408
  674THF     C913778   0.258   0.216   4.228  0.9019 -0.3240  0.0654
  674THF    H1013779   0.219   0.280   4.433 -1.5117  2.7991 -1.5813
  674THF    H1113780   0.393   0.259   4.390 -1.6602 -0.6013  2.2127
  674THF    H1213781   0.294   0.116   4.253  0.7492 -0.6217 -0.8532
  674THF    H1313782   0.152   0.224   4.204  0.9581  0.2153 -0.0092
  675THF     O113783   5.490   2.459   2.186  0.1379 -0.3265 -0.2230
  675THF     C213784   5.490   2.548   2.074  0.1316  0.0610 -0.3313
  675THF     C313785   5.560   2.347   2.145  0.2246 -0.3468 -0.8527
  675THF     H413786   5.585   2.603   2.076  0.8235 -1.1400  0.4952
  675THF     H513787   5.411   2.623   2.083  0.1661  0.1346 -0.6218
  675THF     H613788   5.666   2.374   2.142  0.4978 -1.4219 -1.9984
  675THF     H713789   5.551   2.268   2.220 -0.8539 -0.6697 -1.3039
  675THF     C813790   5.505   2.318   2.011 -0.2958  0.7702  0.5139
  675THF     C913791   5.482   2.459   1.950 -0.0333 -0.6825  0.6070
  675THF    H1013792   5.411   2.263   2.011  0.1952 -0.0997 -0.4236
  675THF    H1113793   5.572   2.267   1.942 -1.1233 -0.5377  0.6221
  675THF    H1213794   5.569   2.473   1.886  0.3707  0.6615  1.4260
  675THF    H1313795   5.386   2.472   1.899 -0.8265 -3.8480  1.0638
  676THF     O113796   3.517   4.014   2.130  0.3309  0.4389 -0.0019
  676THF     C213797   3.589   4.039   2.253 -0.1009 -0.8036  0.5892
  676THF     C313798   3.475   3.875   2.129  0.1924  0.1153  0.0607
  676THF     H413799   3.565   4.136   2.296 -4.8493 -2.0362  1.3549
  676THF     H513800   3.696   4.031   2.239  0.3425  2.0362  1.6557
  676THF     H613801   3.396   3.853   2.057  2.5926  0.6900 -2.9551
  676THF     H713802   3.569   3.822   2.121  0.7877  1.1680 -0.1617
  676THF     C813803   3.426   3.857   2.275  0.4159  0.3281  0.4241
  676THF     C913804   3.528   3.939   2.353 -0.0679  0.3650 -0.1534
  676THF    H1013805   3.405   3.756   2.311  0.4618  0.5273  1.0271
  676THF    H1113806   3.325   3.894   2.292 -0.7488 -2.0763 -0.7599
  676THF    H1213807   3.478   3.982   2.440 -0.6657  1.8125 -1.1930
  676THF    H1313808   3.608   3.868   2.379 -0.5394 -0.6245 -1.3194
  677THF     O113809   0.834   1.900   0.207  0.6075 -0.2003  0.0070
  677THF     C213810   0.762   2.033   0.208  0.2532  1.1519  0.5277
  677THF     C313811   0.868   1.875   0.343 -0.4563 -0.0040  0.8396
  677THF     H413812   0.706   2.044   0.115 -1.7687 -2.8555  1.0584
  677THF     H513813   0.833   2.116   0.205 -0.0985  1.4266 -0.7180
  677THF     H613814   0.897   1.771   0.353  1.0723  0.3711  0.5446
  677THF     H713815   0.951   1.940   0.369  0.1628 -1.6751  3.4509
  677THF     C813816   0.739   1.916   0.411 -0.3219 -0.0842  0.3835
  677THF     C913817   0.676   2.034   0.335  0.4244  0.6065 -0.5371
  677THF    H1013818   0.763   1.942   0.514  1.4532  0.3669 -0.0987
  677THF    H1113819   0.667   1.834   0.417 -0.3137 -0.0766  0.5846
  677THF    H1213820   0.570   2.028   0.311  0.3711  0.7359 -0.3392
  677THF    H1313821   0.684   2.118   0.403 -3.0003 -1.3884  2.6896
  678THF     O113822   2.462   0.750   1.722  0.7740 -0.6198 -0.5346
  678THF     C213823   2.429   0.760   1.863 -0.2446  0.7049 -0.5513
  678THF     C313824   2.592   0.796   1.698 -0.2072 -0.1945  0.3767
  678THF     H413825   2.474   0.673   1.911 -2.9755 -0.3512  0.2906
  678THF     H513826   2.322   0.748   1.880 -1.0266  1.7388 -3.9982
  678THF     H613827   2.662   0.713   1.707 -0.8445 -0.6355  1.3650
  678THF     H713828   2.605   0.831   1.595  0.9209 -1.3557  0.1053
  678THF     C813829   2.612   0.893   1.819 -0.5820  0.4921 -0.1151
  678THF     C913830   2.489   0.889   1.913 -1.2169  0.2134  0.4250
  678THF    H1013831   2.634   0.995   1.789  1.8614  0.1646  0.3978
  678THF    H1113832   2.695   0.863   1.883 -2.0220 -1.2236  1.0722
  678THF    H1213833   2.494   0.901   2.021 -1.7456  1.4703  0.3327
  678THF    H1313834   2.412   0.963   1.889 -1.1699 -0.4597 -2.1202
  679THF     O113835   2.894   0.968   1.490  0.4238  0.3850 -0.0250
  679THF     C213836   2.908   1.014   1.622 -0.1657  0.0974  0.1034
  679THF     C313837   2.994   0.876   1.466  0.1684  0.2358 -0.7219
  679THF     H413838   2.819   1.059   1.665  0.0653 -0.4357  1.1768
  679THF     H513839   2.983   1.093   1.633  0.0116 -0.0104 -0.3109
  679THF     H613840   2.963   0.823   1.375 -2.1511  2.2899 -1.2242
  679THF     H713841   3.096   0.910   1.450  0.1426  1.2568  1.0674
  679THF     C813842   2.997   0.794   1.589 -0.4301  0.1845  0.1427
  679THF     C913843   2.964   0.895   1.694  0.4252 -0.0823  0.3637
  679THF    H1013844   3.092   0.742   1.602 -0.6479 -0.6111 -1.2652
  679THF    H1113845   2.917   0.721   1.576 -0.2622 -0.3682  1.9578
  679THF    H1213846   2.885   0.867   1.763  0.0160  0.4062  0.1017
  679THF    H1313847   3.054   0.929   1.746  0.2906 -1.2102  1.3804
  680THF     O113848   3.663   1.818   0.535 -0.3921 -0.2807 -0.3753
  680THF     C213849   3.739   1.700   0.511 -1.4786 -0.3676  0.4388
  680THF     C313850   3.626   1.884   0.414 -0.0385  0.4986  0.0170
  680THF     H413851   3.741   1.636   0.599  0.0621 -1.3922 -0.3020
  680THF     H513852   3.836   1.742   0.483 -0.8187 -1.9178  0.3356
  680THF     H613853   3.525   1.924   0.409 -1.1437 -1.9629  1.1008
  680THF     H713854   3.709   1.952   0.392  0.6677 -0.8306 -1.7103
  680THF     C813855   3.637   1.769   0.306  0.2803  0.1375  0.1645
  680THF     C913856   3.681   1.641   0.386 -0.3701  0.0509  0.5255
  680THF    H1013857   3.715   1.793   0.234 -0.6118  2.6744 -0.0599
  680THF    H1113858   3.541   1.760   0.255  0.6407  0.5108 -0.5906
  680THF    H1213859   3.592   1.582   0.405 -1.3681  1.5326  0.6260
  680THF    H1313860   3.754   1.582   0.330 -0.9937  0.9272 -1.2740
  681THF     O113861   2.621   3.459   5.219  0.9423  0.4389  0.2497
  681THF     C213862   2.509   3.443   5.305 -0.2057 -0.6690  0.4213
  681THF     C313863   2.658   3.323   5.195  0.1775 -0.5972  0.2312
  681THF     H413864   2.412   3.424   5.259 -0.3619  0.4651  0.2309
  681THF     H513865   2.495   3.537   5.359 -1.3697 -0.5111 -0.1331
  681THF     H613866   2.593   3.278   5.120  0.4263 -1.6178  0.6183
  681THF     H713867   2.760   3.319   5.159 -0.2036  0.2696 -1.0240
  681THF     C813868   2.650   3.249   5.326  0.5134 -0.2701  0.1911
  681THF     C913869   2.544   3.331   5.400  0.3365  0.1178  0.1654
  681THF    H1013870   2.745   3.236   5.377  0.1409  0.8076  1.1941
  681THF    H1113871   2.613   3.147   5.318  0.4511 -0.3512  1.3417
  681THF    H1213872   2.452   3.276   5.420  0.0449  0.8146  0.7958
  681THF    H1313873   2.582   3.379   5.490  0.0949 -0.0352  0.3499
  682THF     O113874   2.985   0.871   5.473  0.4333 -0.1032 -0.0366
  682THF     C213875   2.871   0.782   5.448 -0.1383  0.6545 -0.1551
  682THF     C313876   3.016   0.886   5.613 -0.7379 -0.9210  0.6148
  682THF     H413877   2.870   0.729   5.353  0.0843  0.2081  0.0873
  682THF     H513878   2.775   0.834   5.451 -1.9318 -2.4081 -0.2352
  682THF     H613879   3.115   0.845   5.630  0.4215  0.9689 -1.1828
  682THF     H713880   3.016   0.989   5.647  0.8248 -0.4785 -0.6178
  682THF     C813881   2.918   0.796   5.684  0.3506 -0.2036  0.0175
  682THF     C913882   2.866   0.702   5.572  0.2614  0.5700  0.3415
  682THF    H1013883   2.829   0.850   5.716  0.6998  0.1692  0.3743
  682THF    H1113884   2.964   0.745   5.768  0.3561 -0.1566  0.0430
  682THF    H1213885   2.937   0.621   5.555  2.1881  2.8136 -3.8601
  682THF    H1313886   2.768   0.656   5.582  0.1996  0.7565  0.6012
  683THF     O113887   4.454   1.941   3.016  0.4245 -0.4773  0.0442
  683THF     C213888   4.370   1.894   3.118 -0.5102 -0.0359  0.3194
  683THF     C313889   4.448   2.083   3.002  0.7232 -0.7167  0.0201
  683THF     H413890   4.441   1.848   3.187  1.0467 -1.1747 -1.9303
  683THF     H513891   4.314   1.814   3.069  0.8860 -0.8508  0.0054
  683THF     H613892   4.546   2.124   2.978 -0.4071  1.0359 -1.9124
  683THF     H713893   4.381   2.115   2.923  1.7712  2.7547  0.3582
  683THF     C813894   4.388   2.139   3.130 -0.5496  0.0726  0.2712
  683THF     C913895   4.298   2.020   3.166 -0.3818 -0.2283 -0.1803
  683THF    H1013896   4.337   2.231   3.102  0.2184  0.8845  1.4774
  683THF    H1113897   4.450   2.155   3.218 -0.2484 -1.3175  0.3293
  683THF    H1213898   4.269   2.011   3.271 -2.3501  1.1461 -0.5527
  683THF    H1313899   4.206   2.035   3.110 -0.0693 -0.7589 -0.8449
  684THF     O113900   2.570   1.333   4.046 -0.3396  0.8926 -0.5547
  684THF     C213901   2.514   1.276   4.163  0.7688  0.4496 -0.9046
  684THF     C313902   2.464   1.323   3.950 -0.1688  0.0617  0.9673
  684THF     H413903   2.559   1.322   4.251  1.9600 -1.1100 -0.6529
  684THF     H513904   2.533   1.169   4.167 -0.3619  0.2226 -1.0651
  684THF     H613905   2.484   1.394   3.870  0.8871 -0.6723  0.5642
  684THF     H713906   2.471   1.221   3.910  2.2444  1.0644 -1.4983
  684THF     C813907   2.327   1.332   4.017 -0.2671  0.0767  0.4935
  684THF     C913908   2.364   1.310   4.163  0.1786 -0.0182 -0.3829
  684THF    H1013909   2.257   1.253   3.991 -2.0611  1.9388 -0.6375
  684THF    H1113910   2.274   1.427   4.003  1.4274  0.6438 -2.9563
  684THF    H1213911   2.333   1.398   4.219  0.2282  0.4297 -1.0431
  684THF    H1313912   2.318   1.218   4.200  0.2382  0.6473  1.3949
  685THF     O113913   3.975   1.960   0.321 -0.2555 -0.0048  0.1582
  685THF     C213914   4.066   2.006   0.424 -0.0651  0.7337 -0.1600
  685THF     C313915   4.054   1.926   0.212  0.0516 -0.5543 -0.3410
  685THF     H413916   4.091   1.913   0.474 -0.8576 -0.0797 -1.2130
  685THF     H513917   4.019   2.078   0.491 -0.6928  0.3816 -0.2153
  685THF     H613918   4.097   1.828   0.233 -1.1168 -0.7833  1.1277
  685THF     H713919   3.994   1.914   0.122  0.9282  2.4186 -1.4538
  685THF     C813920   4.151   2.041   0.202 -0.5192 -0.0780  0.3240
  685THF     C913921   4.187   2.066   0.347 -0.1527 -0.1133  0.3367
  685THF    H1013922   4.085   2.122   0.170 -0.7541  0.6300  2.4426
  685THF    H1113923   4.243   2.028   0.146 -0.8454 -0.3400 -0.1587
  685THF    H1213924   4.277   2.013   0.377 -1.2312 -1.4106  1.4355
  685THF    H1313925   4.206   2.173   0.353 -2.4797  0.3311  1.0371
  686THF     O113926   3.669   2.496   2.148 -0.3819  0.0841  0.0710
  686THF     C213927   3.570   2.393   2.141  0.4763 -0.2901 -0.1529
  686THF     C313928   3.796   2.432   2.153  0.1441 -0.7277 -0.4046
  686THF     H413929   3.538   2.390   2.037  1.8285  2.0922 -0.6946
  686THF     H513930   3.486   2.416   2.207  0.5258 -0.5559  0.0052
  686THF     H613931   3.875   2.481   2.096  1.1658 -0.4897  1.1633
  686THF     H713932   3.835   2.411   2.252  1.0348 -1.7058 -0.9367
  686THF     C813933   3.773   2.294   2.090 -0.1454 -0.1972  0.3554
  686THF     C913934   3.638   2.267   2.157  0.3247 -0.3482 -0.1746
  686THF    H1013935   3.851   2.225   2.123 -1.2652 -1.4885  0.4235
  686THF    H1113936   3.783   2.294   1.981  1.6567 -1.0741  0.4797
  686THF    H1213937   3.588   2.183   2.109  1.4293 -2.1594  1.6863
  686THF    H1313938   3.657   2.241   2.261  2.0837  0.0735 -0.3591
  687THF     O113939   3.171   3.583   2.955 -0.1577 -0.0523  0.1428
  687THF     C213940   3.074   3.658   2.881 -0.2404 -0.3981  0.1042
  687THF     C313941   3.142   3.592   3.094  0.4396  0.2227  0.5039
  687THF     H413942   2.999   3.588   2.843  0.7813 -1.2393 -0.4119
  687THF     H513943   3.127   3.706   2.798 -0.9317  1.9837  0.9743
  687THF     H613944   3.125   3.496   3.141 -0.1718  0.9487  1.8254
  687THF     H713945   3.231   3.637   3.139 -1.8085  3.8186  1.7814
  687THF     C813946   3.032   3.701   3.114 -0.1572  0.1900 -0.2551
  687THF     C913947   3.016   3.757   2.974  0.4899 -0.3902 -0.5173
  687THF    H1013948   3.050   3.762   3.202  0.1762  0.7337 -0.6909
  687THF    H1113949   2.938   3.648   3.124 -1.1827  1.8236 -0.8401
  687THF    H1213950   2.910   3.779   2.959  0.5243  0.7796  0.7251
  687THF    H1313951   3.077   3.847   2.968  0.9111 -0.7535 -2.2332
  688THF     O113952   4.405   2.769   1.008 -0.0751  0.0995 -0.9956
  688THF     C213953   4.282   2.843   1.024 -0.1175  0.8297 -1.1394
  688THF     C313954   4.500   2.865   0.974  0.2108  0.7335 -0.1188
  688THF     H413955   4.263   2.878   1.125 -0.4370 -1.9623 -0.1410
  688THF     H513956   4.184   2.796   1.011  0.4422 -0.5177 -0.6792
  688THF     H613957   4.556   2.910   1.056  1.6199  0.4706 -0.8950
  688THF     H713958   4.576   2.805   0.923 -1.1697 -0.2130 -1.1076
  688THF     C813959   4.433   2.973   0.888  0.1650  0.0940 -0.1615
  688THF     C913960   4.285   2.951   0.925  0.3890 -0.0524  0.4457
  688THF    H1013961   4.447   2.959   0.781 -0.4958 -1.6835 -0.0442
  688THF    H1113962   4.480   3.069   0.910  2.5135 -1.2430  1.1611
  688THF    H1213963   4.240   3.039   0.972  3.4398  1.2671  1.1837
  688THF    H1313964   4.221   2.930   0.840 -2.3549  0.3058  2.3130
  689THF     O113965   1.986   0.875   4.303 -0.4585  0.3219 -0.0364
  689THF     C213966   1.947   0.734   4.302 -0.9493  0.5204  0.0995
  689THF     C313967   1.868   0.938   4.349  0.8120 -0.1195  0.1864
  689THF     H413968   1.995   0.686   4.388  2.4724 -0.9271 -2.3720
  689THF     H513969   1.995   0.700   4.210  0.6221  0.2051  0.9802
  689THF     H613970   1.868   0.928   4.457 -0.5422  2.2932  0.4847
  689THF     H713971   1.865   1.047   4.346  0.9303 -0.1147  0.2291
  689THF     C813972   1.757   0.863   4.279 -0.3340  0.4227  0.4075
  689THF     C913973   1.797   0.717   4.290  0.3998 -0.0808 -0.2679
  689THF    H1013974   1.752   0.892   4.174 -2.4992 -3.9930 -0.9669
  689THF    H1113975   1.660   0.869   4.327  0.6069  3.3585  2.1787
  689THF    H1213976   1.760   0.672   4.382  1.0945 -1.0501 -0.4562
  689THF    H1313977   1.760   0.667   4.200 -1.1886  2.2544 -1.0274
  690THF     O113978   4.996   1.235   4.262  0.4019 -0.3404  0.5013
  690THF     C213979   4.912   1.336   4.311 -0.0985 -0.4460  0.1345
  690THF     C313980   4.923   1.118   4.293 -0.5103  0.0360 -0.7932
  690THF     H413981   4.949   1.431   4.272 -0.1850 -0.1854  0.6821
  690THF     H513982   4.903   1.337   4.420 -0.1853  1.2162  0.1451
  690THF     H613983   4.964   1.024   4.257 -0.7081 -0.2154 -0.3726
  690THF     H713984   4.913   1.111   4.401 -0.1696  1.0751 -0.6869
  690THF     C813985   4.793   1.148   4.228  0.2167  0.6658  0.1535
  690THF     C913986   4.774   1.291   4.251 -0.5952  0.6155 -0.3941
  690THF    H1013987   4.715   1.091   4.278  0.5597  0.6946  0.7317
  690THF    H1113988   4.797   1.121   4.122 -0.1427 -0.7905  0.4929
  690THF    H1213989   4.757   1.349   4.161  1.9422  3.8853  1.0269
  690THF    H1313990   4.699   1.316   4.326 -0.3307  2.4260 -0.7002
  691THF     O113991   4.713   1.733   3.950 -0.4371 -0.1805  0.0628
  691THF     C213992   4.731   1.819   4.061 -0.1397  0.0790  0.5813
  691THF     C313993   4.665   1.604   3.988 -0.0226 -1.0217 -0.1877
  691THF     H413994   4.679   1.911   4.036 -0.2871 -0.2881 -0.5150
  691THF     H513995   4.828   1.860   4.090 -1.1674  2.5052  0.7676
  691THF     H613996   4.606   1.556   3.909 -1.3027 -0.1741  0.2281
  691THF     H713997   4.750   1.542   4.016  1.3455  0.2163 -1.4325
  691THF     C813998   4.576   1.641   4.108  0.3051  0.2145  0.1878
  691THF     C913999   4.660   1.749   4.177  0.1836  0.0920 -0.4279
  691THF    H1014000   4.562   1.557   4.175 -1.1773  0.4976  0.2662
  691THF    H1114001   4.480   1.682   4.077 -1.0651 -1.6257  1.7619
  691THF    H1214002   4.595   1.814   4.235  0.1423  0.6227 -1.0690
  691THF    H1314003   4.737   1.712   4.245 -0.5152  0.5008  0.6095
  692THF     O114004   3.293   1.811   0.877  0.8250 -0.0394  0.2723
  692THF     C214005   3.408   1.800   0.786  0.6712  0.4647  0.4310
  692THF     C314006   3.274   1.944   0.909  0.0857  0.3216 -0.3318
  692THF     H414007   3.370   1.800   0.683 -0.3874 -0.0279  0.8046
  692THF     H514008   3.463   1.712   0.818  0.5014 -0.5185 -1.7708
  692THF     H614009   3.214   1.992   0.831 -2.2340 -2.4943 -0.4527
  692THF     H714010   3.219   1.962   1.002 -0.5361  2.4304 -1.0474
  692THF     C814011   3.415   1.994   0.914 -0.0549 -0.6779  0.3794
  692THF     C914012   3.489   1.927   0.801  0.1804  0.4837  0.6476
  692THF    H1014013   3.464   1.970   1.008  0.7145  1.6292  0.6476
  692THF    H1114014   3.436   2.101   0.914  2.5045 -1.1109  0.0278
  692THF    H1214015   3.476   1.986   0.710  0.7720 -0.8763 -0.3649
  692THF    H1314016   3.596   1.908   0.807 -0.1050 -1.1119  0.9452
  693THF     O114017   3.369   5.077   3.209  0.0598  0.3562  0.3736
  693THF     C214018   3.224   5.097   3.213 -0.3529  0.5248  0.0177
  693THF     C314019   3.420   5.198   3.145  0.1245 -0.5729 -0.4250
  693THF     H414020   3.211   5.172   3.290 -0.6261  2.5356 -1.8870
  693THF     H514021   3.177   5.000   3.231 -0.0089  0.4954  0.8067
  693THF     H614022   3.418   5.286   3.209 -2.0519 -1.2831  0.5818
  693THF     H714023   3.521   5.183   3.109  0.1045  1.4203 -1.4106
  693THF     C814024   3.308   5.223   3.029  0.3152 -0.4493 -0.7357
  693THF     C914025   3.188   5.155   3.076 -0.3750  0.1234  0.4041
  693THF    H1014026   3.354   5.178   2.941 -0.8298  2.0365 -2.7251
  693THF    H1114027   3.294   5.331   3.020  1.0796 -0.4586 -2.5210
  693THF    H1214028   3.101   5.219   3.090 -0.8632  0.0881 -2.0603
  693THF    H1314029   3.164   5.082   2.999  1.0468  0.7969 -0.7336
  694THF     O114030   4.557   2.481   2.411 -0.6594  0.2489 -0.6448
  694THF     C214031   4.625   2.368   2.346 -0.5248 -0.6467  0.3938
  694THF     C314032   4.558   2.591   2.317 -0.4343 -0.0074  0.3163
  694THF     H414033   4.540   2.311   2.308 -0.1040 -0.4594 -0.8510
  694THF     H514034   4.680   2.307   2.418  0.1660 -1.1117 -0.5109
  694THF     H614035   4.479   2.565   2.248 -0.0549  1.0443 -0.5402
  694THF     H714036   4.538   2.683   2.374  0.8394  0.8071 -0.5072
  694THF     C814037   4.697   2.572   2.262 -0.7390 -0.4133  0.2877
  694THF     C914038   4.727   2.424   2.243 -0.1783  0.0295  0.9698
  694THF    H1014039   4.766   2.608   2.338  0.4049 -0.1993 -0.8327
  694THF    H1114040   4.704   2.636   2.175 -1.6493  1.6217  1.6364
  694THF    H1214041   4.697   2.401   2.141 -0.4687  1.8918  0.5919
  694THF    H1314042   4.834   2.404   2.250 -0.2645 -0.2609  1.5333
  695THF     O114043   1.398   5.042   0.260 -0.1692 -0.1433 -0.4792
  695THF     C214044   1.382   5.172   0.204  0.1228  0.7226 -0.0795
  695THF     C314045   1.508   4.981   0.201  0.3636 -0.1096 -0.0297
  695THF     H414046   1.319   5.220   0.279 -1.2246 -1.7172  0.4664
  695THF     H514047   1.345   5.164   0.102 -0.3691  2.5663 -0.0623
  695THF     H614048   1.543   4.902   0.267 -1.6098  0.2776  1.5879
  695THF     H714049   1.485   4.944   0.101 -0.1920  1.8907 -0.7035
  695THF     C814050   1.604   5.098   0.212  0.2627 -0.3062 -0.0851
  695THF     C914051   1.520   5.221   0.212  0.2928  0.4936 -0.4499
  695THF    H1014052   1.671   5.097   0.125 -0.4609 -2.1423 -0.6660
  695THF    H1114053   1.664   5.090   0.303  1.2257  0.9433 -0.5736
  695THF    H1214054   1.552   5.280   0.298 -0.9790  0.7874 -0.1536
  695THF    H1314055   1.548   5.285   0.129  1.4394  2.2982  1.2459
  696THF     O114056   3.042   1.262   0.468 -0.1736  0.0504  0.4760
  696THF     C214057   2.995   1.296   0.340  0.4095 -0.6016 -0.1484
  696THF     C314058   3.152   1.177   0.445 -0.6213 -0.0414  0.1680
  696THF     H414059   2.929   1.383   0.338  1.7350  0.4537  0.8639
  696THF     H514060   2.928   1.219   0.301  2.5706 -2.1534 -1.0053
  696THF     H614061   3.216   1.164   0.533  0.0906 -1.8696 -0.5788
  696THF     H714062   3.114   1.079   0.419 -1.1381 -0.2060  1.4647
  696THF     C814063   3.227   1.235   0.321  0.0159  0.0202  0.4720
  696THF     C914064   3.119   1.318   0.256 -0.3984 -0.0278  0.5691
  696THF    H1014065   3.285   1.163   0.264  0.5512  1.2999 -0.6478
  696THF    H1114066   3.298   1.303   0.369 -0.4110  0.3569  0.6309
  696THF    H1214067   3.144   1.424   0.252  0.2688 -0.1917  0.2045
  696THF    H1314068   3.098   1.274   0.159  1.0680 -0.8954  0.6174
  697THF     O114069   5.258   1.762   2.656  0.1644  0.2600  0.3979
  697THF     C214070   5.347   1.654   2.680 -0.1974  0.1059  0.1221
  697THF     C314071   5.251   1.791   2.521  0.1044 -0.0206  0.0601
  697THF     H414072   5.280   1.573   2.652 -1.6746 -0.3090  4.1410
  697THF     H514073   5.388   1.633   2.779 -0.8489  0.6803  0.5191
  697THF     H614074   5.188   1.717   2.470 -1.7726  2.1286 -0.9071
  697THF     H714075   5.208   1.888   2.497 -1.5642  0.0915  3.0094
  697THF     C814076   5.395   1.758   2.474  0.0834  0.2021  0.2880
  697THF     C914077   5.462   1.686   2.588 -0.5943 -0.6520  0.1597
  697THF    H1014078   5.461   1.844   2.460  1.8316 -1.2747 -0.9620
  697THF    H1114079   5.397   1.701   2.382  1.1792 -0.8047  0.9102
  697THF    H1214080   5.512   1.593   2.560 -1.2935 -1.2977  1.0016
  697THF    H1314081   5.529   1.760   2.630  0.4714 -0.2656 -2.0686
  698THF     O114082   0.276   1.754   1.015 -0.9741 -0.2876 -0.8679
  698THF     C214083   0.188   1.803   1.114  0.5140 -0.0264 -0.0065
  698THF     C314084   0.193   1.753   0.896 -0.1340  0.2840  0.7767
  698THF     H414085   0.168   1.909   1.100  2.7114  0.4200 -0.1533
  698THF     H514086   0.243   1.803   1.208  2.3276 -2.0786 -0.9688
  698THF     H614087   0.177   1.856   0.865 -1.9426 -0.6566 -1.8512
  698THF     H714088   0.241   1.704   0.811 -0.1214  0.4685  0.6759
  698THF     C814089   0.061   1.691   0.945  0.4034  0.1669 -0.3052
  698THF     C914090   0.074   1.708   1.097  0.5641 -0.3453  0.1981
  698THF    H1014091   0.054   1.586   0.917  0.3113  0.2975 -0.7863
  698THF    H1114092  -0.024   1.740   0.899 -0.0174 -0.6854 -0.4583
  698THF    H1214093  -0.018   1.750   1.138 -1.0278 -2.2606 -1.1972
  698THF    H1314094   0.095   1.614   1.148 -1.0822 -0.6169  0.4377
  699THF     O114095   1.998   3.421   4.575  0.3411 -0.5254  0.1653
  699THF     C214096   1.942   3.323   4.661 -0.3324 -0.2865  0.1270
  699THF     C314097   2.119   3.367   4.520 -0.1684  1.0052  0.0433
  699THF     H414098   1.836   3.335   4.681 -0.1235  2.4228  0.1036
  699THF     H514099   2.000   3.323   4.754  1.6491 -0.2026 -1.0582
  699THF     H614100   2.140   3.411   4.423  1.4127  0.1618 -0.0240
  699THF     H714101   2.207   3.388   4.580 -0.0611  3.1051 -0.7642
  699THF     C814102   2.100   3.214   4.516  0.5606  0.0036 -0.3549
  699THF     C914103   1.973   3.191   4.591 -0.2999  0.1868  0.2535
  699THF    H1014104   2.184   3.173   4.572 -1.7191 -2.1785  1.6908
  699THF    H1114105   2.095   3.184   4.411 -0.1689 -0.2273 -0.2571
  699THF    H1214106   1.904   3.155   4.516  1.6186 -2.5007 -0.3489
  699THF    H1314107   1.984   3.108   4.660 -0.5078  0.0198  0.0846
  700THF     O114108   4.919   3.247   0.571 -0.4573 -0.6687 -0.2375
  700THF     C214109   4.876   3.127   0.510  0.5500  0.7639  0.6024
  700THF     C314110   4.898   3.240   0.716  0.4820  0.1599  0.2322
  700THF     H414111   4.952   3.050   0.505  0.7936  0.9174  1.7818
  700THF     H514112   4.851   3.138   0.404  0.7638 -0.8777  0.3586
  700THF     H614113   4.970   3.170   0.759  1.4557  1.6664  1.1594
  700THF     H714114   4.894   3.344   0.750 -0.5549  1.0536 -2.3547
  700THF     C814115   4.764   3.171   0.709 -0.3476 -0.3641  0.0165
  700THF     C914116   4.766   3.062   0.601 -0.5287  0.2099 -0.0894
  700THF    H1014117   4.692   3.250   0.690  0.0160  0.9619  3.4686
  700THF    H1114118   4.735   3.123   0.802 -0.6643 -1.9315 -0.8470
  700THF    H1214119   4.801   2.966   0.638  0.2820  0.8171  0.7882
  700THF    H1314120   4.671   3.041   0.553 -1.3567 -3.6876  2.7917
  701THF     O114121   2.072   3.789   4.014 -0.1003 -0.7209  0.0715
  701THF     C214122   2.120   3.911   3.967 -0.0463 -0.1855 -0.1847
  701THF     C314123   2.051   3.806   4.152 -0.2008 -0.2488 -0.3214
  701THF     H414124   2.053   3.996   3.983 -2.2333 -1.9805  0.7843
  701THF     H514125   2.139   3.902   3.860 -0.4553 -0.7035 -0.2193
  701THF     H614126   1.964   3.873   4.157  0.6240  1.0631 -2.1455
  701THF     H714127   2.042   3.712   4.206  1.3104 -1.5796 -2.2440
  701THF     C814128   2.165   3.897   4.205  0.4905 -0.0203 -0.3663
  701THF     C914129   2.231   3.937   4.069  0.3864  0.1444  0.1742
  701THF    H1014130   2.237   3.843   4.267  1.9466  1.3599 -0.7959
  701THF    H1114131   2.116   3.985   4.247 -0.3029 -0.5421 -0.1744
  701THF    H1214132   2.270   4.038   4.081 -0.4272  0.1665  3.8062
  701THF    H1314133   2.308   3.863   4.049  1.7782  1.3892  0.7679
  702THF     O114134   2.384   4.449   4.299 -0.4844  0.4404  0.1155
  702THF     C214135   2.382   4.310   4.265 -0.2789  0.4592 -0.5182
  702THF     C314136   2.490   4.463   4.388 -0.5801 -0.2466  0.0346
  702THF     H414137   2.331   4.302   4.169  2.4161  0.5701 -2.0392
  702THF     H514138   2.329   4.252   4.341  0.1848  1.2818  0.4567
  702THF     H614139   2.513   4.564   4.421 -1.4193 -0.0492  0.0095
  702THF     H714140   2.468   4.424   4.487 -0.6250 -0.1398  0.0664
  702THF     C814141   2.609   4.375   4.338 -0.2672  0.4459  0.2301
  702THF     C914142   2.532   4.263   4.261 -0.2657  0.2737 -0.4213
  702THF    H1014143   2.667   4.331   4.420  0.4836  0.4096 -0.3169
  702THF    H1114144   2.678   4.437   4.282  0.0406 -0.7045 -0.7082
  702THF    H1214145   2.581   4.271   4.164  1.9379  0.8538  0.6817
  702THF    H1314146   2.538   4.167   4.311 -1.3664 -0.4625 -1.6300
  703THF     O114147   2.788   4.326   5.351 -0.2407 -0.1007 -0.2403
  703THF     C214148   2.763   4.194   5.408 -0.4079  0.4272 -0.2184
  703THF     C314149   2.691   4.412   5.381  0.7800  0.1295 -0.1092
  703THF     H414150   2.799   4.174   5.509 -1.2914  0.4030  0.1096
  703THF     H514151   2.780   4.105   5.349 -0.7807 -1.5301  2.4549
  703THF     H614152   2.701   4.460   5.479  0.0452 -1.6243  0.8686
  703THF     H714153   2.687   4.492   5.307 -1.6102 -0.0599 -0.2691
  703THF     C814154   2.571   4.327   5.362 -0.0837  0.0911 -0.2959
  703THF     C914155   2.613   4.203   5.431 -0.6325 -0.3930  0.6931
  703THF    H1014156   2.553   4.320   5.255 -0.7778  0.8161 -0.2312
  703THF    H1114157   2.481   4.371   5.405 -2.1505 -1.4041 -2.8101
  703THF    H1214158   2.596   4.206   5.539 -0.1509 -2.8989  0.9043
  703THF    H1314159   2.564   4.121   5.379 -0.3878 -1.3015  1.8317
  704THF     O114160   0.783   3.525   3.314  0.8841  0.4134 -0.0483
  704THF     C214161   0.848   3.406   3.364  0.3240  1.4322 -0.4686
  704THF     C314162   0.881   3.619   3.302 -0.4876 -0.0645  0.0382
  704THF     H414163   0.798   3.311   3.342  1.5860  0.8987 -1.1595
  704THF     H514164   0.867   3.402   3.471  0.2151  0.1802 -0.4794
  704THF     H614165   0.845   3.700   3.239 -0.9370 -0.2553  0.0480
  704THF     H714166   0.907   3.671   3.394 -0.0599  0.1413 -0.1960
  704THF     C814167   1.003   3.543   3.241  0.9485 -0.4772  0.2731
  704THF     C914168   0.979   3.405   3.288  0.3560  0.4057 -0.3587
  704THF    H1014169   1.096   3.587   3.276  0.8708 -0.0941  0.0099
  704THF    H1114170   1.004   3.536   3.132 -0.4936 -0.6687  0.2511
  704THF    H1214171   0.958   3.339   3.204  0.4969 -0.1175  0.0065
  704THF    H1314172   1.065   3.361   3.340 -0.7125 -2.3389 -0.7281
  705THF     O114173   1.859   2.783   5.380 -0.3247 -0.1566  0.3302
  705THF     C214174   1.747   2.863   5.360 -0.1433  0.0906 -0.5435
  705THF     C314175   1.963   2.871   5.424  0.2308 -0.8089  0.1736
  705THF     H414176   1.651   2.813   5.374 -1.2284  1.8144 -1.4894
  705THF     H514177   1.749   2.904   5.259 -0.2544  1.6693  0.0636
  705THF     H614178   2.026   2.825   5.499  2.2143 -1.9881 -2.0891
  705THF     H714179   2.027   2.896   5.339 -0.3875  1.9242  0.4027
  705THF     C814180   1.903   3.007   5.473  0.3805  0.1807  0.3801
  705THF     C914181   1.749   2.975   5.461  0.9412  0.1019  0.1522
  705THF    H1014182   1.924   3.080   5.395 -0.7314  2.2477  1.9284
  705THF    H1114183   1.930   3.045   5.572 -0.5824  0.3343  0.5982
  705THF    H1214184   1.699   2.950   5.555  1.6658  0.2553  0.5938
  705THF    H1314185   1.705   3.069   5.429 -0.8426 -0.7689 -0.0524
  706THF     O114186   0.575   1.816   4.778 -0.2932 -0.3173 -0.4053
  706THF     C214187   0.547   1.895   4.897  0.1912  0.2901  0.0848
  706THF     C314188   0.601   1.686   4.823 -0.2178  0.2956  0.4383
  706THF     H414189   0.501   1.990   4.870  0.8567  0.5441 -0.1660
  706THF     H514190   0.634   1.916   4.959  1.3464 -2.4392 -0.4798
  706THF     H614191   0.605   1.613   4.741  0.1937  0.1136  0.6216
  706THF     H714192   0.698   1.687   4.871  0.4216  2.1392 -0.8039
  706THF     C814193   0.496   1.661   4.927 -0.0621  0.5547 -0.3949
  706THF     C914194   0.452   1.798   4.974 -0.5027  0.4224  0.8487
  706THF    H1014195   0.540   1.616   5.016 -1.0807  0.5913  0.1332
  706THF    H1114196   0.406   1.614   4.886 -1.5245  2.3485  0.6152
  706THF    H1214197   0.354   1.832   4.943 -0.5680  1.2857  1.9638
  706THF    H1314198   0.447   1.808   5.082  1.4189  0.6906  0.9599
  707THF     O114199   4.459   5.165   4.517  0.1486 -0.2326  0.7224
  707THF     C214200   4.574   5.103   4.462  0.1810  0.2938  0.1712
  707THF     C314201   4.365   5.058   4.541 -0.0401 -0.7428 -0.5834
  707THF     H414202   4.664   5.165   4.464  0.5579 -0.1508 -1.2983
  707THF     H514203   4.555   5.081   4.357  2.4729 -0.5587 -0.1285
  707THF     H614204   4.283   5.074   4.611  0.0250 -1.6509 -0.2844
  707THF     H714205   4.329   5.019   4.446 -0.7560  2.9341 -1.9930
  707THF     C814206   4.450   4.948   4.594  0.1832  0.6570 -0.0490
  707THF     C914207   4.584   4.972   4.538  0.6865  0.8053  0.5167
  707THF    H1014208   4.417   4.850   4.558  1.9986 -0.0113 -0.0126
  707THF    H1114209   4.443   4.955   4.702  0.7680 -2.6892  0.3046
  707THF    H1214210   4.648   4.979   4.626 -1.4623 -0.7831  2.3275
  707THF    H1314211   4.610   4.876   4.493 -0.7874  0.5939  0.0593
  708THF     O114212   5.467   1.203   1.511 -0.5488 -0.3458  0.6137
  708THF     C214213   5.496   1.091   1.422  1.0131  0.0085  0.1926
  708THF     C314214   5.356   1.277   1.453  0.0624  0.1569 -0.2585
  708THF     H414215   5.418   1.015   1.436 -1.1782  1.9973 -0.6377
  708THF     H514216   5.590   1.037   1.436  0.5812 -0.6005  0.8516
  708THF     H614217   5.256   1.242   1.479 -0.5428  3.3201  2.3443
  708THF     H714218   5.350   1.382   1.484 -0.3528 -0.3999  1.6823
  708THF     C814219   5.373   1.268   1.307  0.2019 -0.2140 -0.4611
  708THF     C914220   5.487   1.163   1.290  0.1308 -0.0019  0.1652
  708THF    H1014221   5.413   1.360   1.263  1.8377 -0.6068  0.1135
  708THF    H1114222   5.285   1.246   1.247 -0.5394 -0.9506  0.8609
  708THF    H1214223   5.468   1.087   1.215  0.7201 -2.2853  2.1737
  708THF    H1314224   5.579   1.217   1.267  0.6353 -0.6480  0.5965
  709THF     O114225   3.160   4.863   0.639 -0.1876  0.0113  0.3063
  709THF     C214226   3.131   4.772   0.533 -0.6881  0.1678 -0.0590
  709THF     C314227   3.281   4.841   0.698 -0.2607  0.0097  0.8878
  709THF     H414228   3.063   4.808   0.457 -0.0312 -1.5563 -1.5225
  709THF     H514229   3.073   4.692   0.578 -0.6964  0.9921  1.4730
  709THF     H614230   3.322   4.931   0.742  0.6732 -0.3107  0.7134
  709THF     H714231   3.266   4.771   0.781 -0.4489 -2.5466 -1.1743
  709THF     C814232   3.368   4.769   0.587 -0.2815 -0.2238 -0.4552
  709THF     C914233   3.268   4.738   0.477 -0.5545 -0.2137 -0.5592
  709THF    H1014234   3.394   4.668   0.619  1.1075 -0.4051 -2.0342
  709THF    H1114235   3.461   4.814   0.554 -0.4559 -0.0295 -0.6842
  709THF    H1214236   3.287   4.809   0.396  1.5796  1.9846  1.6920
  709THF    H1314237   3.274   4.633   0.448  1.2909  0.0923 -1.4407
  710THF     O114238   2.723   5.182   4.019 -0.7144  0.2155  0.0749
  710THF     C214239   2.763   5.068   3.945 -0.0160  0.1109 -0.6183
  710THF     C314240   2.748   5.156   4.157 -0.3849  0.5656  0.7407
  710THF     H414241   2.782   5.083   3.839  0.5452 -1.3628 -0.7411
  710THF     H514242   2.693   4.986   3.961  0.7461 -0.6728 -1.1973
  710THF     H614243   2.769   5.243   4.218 -0.3231 -0.6730  2.5450
  710THF     H714244   2.656   5.111   4.195 -1.8218  3.1448  0.5136
  710THF     C814245   2.867   5.058   4.155 -0.2884 -0.0452 -0.0350
  710THF     C914246   2.897   5.050   4.011 -0.7140  0.0442 -0.2182
  710THF    H1014247   2.853   4.961   4.203 -0.4904  0.1478  0.2972
  710THF    H1114248   2.941   5.089   4.229 -0.2641 -0.9630  0.3421
  710THF    H1214249   2.973   5.125   3.989 -1.3187  0.7094 -0.1088
  710THF    H1314250   2.939   4.952   3.991  0.9559  0.4233  1.1851
  711THF     O114251   0.767   1.307   5.174 -0.0153 -0.2675  0.5324
  711THF     C214252   0.773   1.446   5.134 -0.2697  0.1149  0.3966
  711THF     C314253   0.904   1.270   5.194  0.3557  0.0913  0.1376
  711THF     H414254   0.781   1.508   5.223  1.0084  0.1072  0.3102
  711THF     H514255   0.682   1.474   5.082  0.8170  0.0270 -1.6209
  711THF     H614256   0.957   1.313   5.279  1.1758  2.0936 -1.3178
  711THF     H714257   0.908   1.161   5.197 -2.1598 -0.0522  0.2727
  711THF     C814258   0.977   1.336   5.073  0.2132 -0.0241 -1.0824
  711THF     C914259   0.895   1.461   5.057  0.1389 -0.1392 -0.1058
  711THF    H1014260   0.960   1.268   4.989 -0.3494  0.5279 -1.4205
  711THF    H1114261   1.084   1.356   5.081  0.1737 -0.3865  1.0226
  711THF    H1214262   0.933   1.555   5.097 -0.6779  0.7246 -1.2781
  711THF    H1314263   0.874   1.467   4.950 -0.0942 -1.8094 -0.1856
  712THF     O114264   3.013   3.709   5.282  0.1145 -0.3665 -0.8658
  712THF     C214265   3.052   3.694   5.425  0.2672  0.2881  0.2088
  712THF     C314266   2.969   3.574   5.241 -0.3701 -0.6215 -0.1952
  712THF     H414267   3.034   3.792   5.471  0.3061  1.6316 -2.4625
  712THF     H514268   3.159   3.679   5.429  0.3522  0.9424  0.7436
  712THF     H614269   2.879   3.575   5.178 -0.5893 -1.8735  0.0728
  712THF     H714270   3.044   3.526   5.179 -1.3402 -1.4348 -0.7851
  712THF     C814271   2.954   3.478   5.360 -0.4227 -0.0291  0.0393
  712THF     C914272   2.974   3.574   5.472  0.1175 -0.3938 -0.7762
  712THF    H1014273   3.041   3.413   5.364  0.6867  1.1560 -2.5226
  712THF    H1114274   2.864   3.417   5.367  0.4024 -1.6152 -2.0882
  712THF    H1214275   2.876   3.602   5.509 -0.0114 -2.0004  0.1875
  712THF    H1314276   3.015   3.528   5.562  0.4698 -1.4392 -1.4464
  713THF     O114277   5.060   2.388   1.194  0.8243  0.7786  0.2187
  713THF     C214278   4.922   2.403   1.160  0.6837  0.0910  0.6416
  713THF     C314279   5.129   2.331   1.084 -0.4182  0.3405  0.1970
  713THF     H414280   4.878   2.457   1.243 -1.2512 -3.7584  2.3565
  713THF     H514281   4.873   2.307   1.145 -1.3323  1.3417 -1.4336
  713THF     H614282   5.235   2.338   1.107  0.0847 -1.9887 -1.1357
  713THF     H714283   5.089   2.229   1.084  0.8223 -0.2923 -3.1508
  713THF     C814284   5.076   2.426   0.970  0.2309  0.7151 -0.2602
  713THF     C914285   4.943   2.481   1.029 -0.0115 -0.4952 -0.5369
  713THF    H1014286   5.068   2.376   0.874 -0.0414  0.6073 -0.1804
  713THF    H1114287   5.131   2.516   0.941  1.3796  0.0488 -0.2255
  713THF    H1214288   4.937   2.590   1.032 -1.2603 -0.5345 -0.9896
  713THF    H1314289   4.857   2.452   0.969 -1.8040  0.6768  1.3353
  714THF     O114290   4.413   4.530   2.536  0.3756  0.1447 -0.0626
  714THF     C214291   4.308   4.446   2.499  0.4751  0.6261  0.4917
  714THF     C314292   4.529   4.456   2.515  0.3530  0.0731  0.1838
  714THF     H414293   4.208   4.491   2.491  0.7968  1.3536  0.4507
  714THF     H514294   4.286   4.367   2.570 -2.7934  1.3120  0.4284
  714THF     H614295   4.619   4.516   2.519  0.5849 -0.1122 -1.6133
  714THF     H714296   4.545   4.380   2.592 -3.9620 -2.1570 -0.7623
  714THF     C814297   4.505   4.386   2.378  0.1291  0.2954 -0.0153
  714THF     C914298   4.350   4.374   2.375 -0.2991 -0.8715  0.4879
  714THF    H1014299   4.550   4.289   2.355 -0.9664 -0.0011 -0.9887
  714THF    H1114300   4.546   4.443   2.295 -0.8073  1.0261  0.0131
  714THF    H1214301   4.310   4.431   2.292 -2.7725 -1.5684  1.1225
  714THF    H1314302   4.335   4.266   2.366  3.1156 -1.2944 -2.2912
  715THF     O114303   4.290   2.988   0.582  0.4854 -0.4191  0.2058
  715THF     C214304   4.382   2.918   0.497 -0.3578 -0.0852 -0.1736
  715THF     C314305   4.157   2.972   0.538 -0.0207 -0.4252 -0.3195
  715THF     H414306   4.408   2.823   0.545  0.0453 -1.4267 -2.8246
  715THF     H514307   4.477   2.969   0.481 -0.1954  0.0487  1.1281
  715THF     H614308   4.085   2.941   0.614  0.8819 -0.8335  0.3909
  715THF     H714309   4.121   3.069   0.502  0.2530 -0.9893 -2.2366
  715THF     C814310   4.162   2.880   0.416 -0.3516  0.1200 -0.1729
  715THF     C914311   4.305   2.897   0.368 -0.1918  0.4705  0.2959
  715THF    H1014312   4.087   2.920   0.349  0.2640 -0.6666 -1.3630
  715THF    H1114313   4.135   2.780   0.450  1.5694 -0.7704 -1.1052
  715THF    H1214314   4.334   2.810   0.309  0.8418 -0.7794  2.5239
  715THF    H1314315   4.319   2.983   0.303  0.3656  2.5764  2.9985
  716THF     O114316   0.484   1.205   4.146  0.7120 -0.2717  0.3994
  716THF     C214317   0.614   1.163   4.190 -0.9321 -0.3094 -0.2832
  716THF     C314318   0.424   1.093   4.079 -0.0176  0.1609 -0.4883
  716THF     H414319   0.603   1.100   4.278 -1.9624  0.4959  0.1778
  716THF     H514320   0.683   1.245   4.214 -0.4863 -1.3600  2.3080
  716THF     H614321   0.363   1.030   4.145  0.0596  0.3067 -0.2762
  716THF     H714322   0.351   1.132   4.008  0.8122 -1.2724 -2.2126
  716THF     C814323   0.533   1.012   4.015  0.2788 -0.7371 -0.0574
  716THF     C914324   0.661   1.070   4.074  0.2518  0.1731 -0.2312
  716THF    H1014325   0.534   1.022   3.907  0.2009  0.1501  0.0112
  716THF    H1114326   0.519   0.905   4.030 -2.5154 -0.6981 -1.7726
  716THF    H1214327   0.735   0.999   4.112 -0.1384 -0.0132  0.1866
  716THF    H1314328   0.713   1.132   4.001 -0.2630  0.9923  0.0831
  717THF     O114329   4.522   3.597   3.195 -0.3253  0.0545 -0.5748
  717THF     C214330   4.535   3.625   3.062 -0.0301 -0.3292  0.1209
  717THF     C314331   4.409   3.665   3.243  0.3499 -0.5732  0.3566
  717THF     H414332   4.456   3.573   3.007 -0.8123  0.5710  0.3755
  717THF     H514333   4.636   3.599   3.028  0.2375  0.9033 -0.0770
  717THF     H614334   4.326   3.609   3.200 -0.0373  0.0903  0.2294
  717THF     H714335   4.407   3.661   3.352 -0.1017 -2.2607  0.3210
  717THF     C814336   4.441   3.805   3.185 -0.8066 -0.5945  0.4837
  717THF     C914337   4.529   3.785   3.063 -0.3277  0.1226 -0.0541
  717THF    H1014338   4.514   3.842   3.256  1.2122  0.2772 -1.9215
  717THF    H1114339   4.366   3.883   3.173  1.6372  1.8235  0.0500
  717THF    H1214340   4.496   3.826   2.968  0.8704 -0.7999 -0.8901
  717THF    H1314341   4.630   3.818   3.085  0.2530 -0.6093 -1.5194
  718THF     O114342   0.657   2.710   3.703 -0.2787  0.1064  0.2581
  718THF     C214343   0.604   2.582   3.684 -0.3658 -0.3816 -0.1357
  718THF     C314344   0.564   2.786   3.775 -0.7562 -0.2396  0.1194
  718THF     H414345   0.631   2.531   3.776  0.1124 -0.4542 -0.3155
  718THF     H514346   0.652   2.530   3.602  1.0963 -0.3271  0.6600
  718THF     H614347   0.571   2.760   3.881 -1.8817 -0.6162  0.1206
  718THF     H714348   0.586   2.891   3.758  0.4501 -0.5886 -0.5014
  718THF     C814349   0.427   2.735   3.722 -0.0756  0.0246 -0.0754
  718THF     C914350   0.450   2.596   3.681 -1.0161  0.3459 -0.0202
  718THF    H1014351   0.404   2.803   3.640 -3.3440 -1.8162 -0.8455
  718THF    H1114352   0.342   2.738   3.790 -0.0687  0.6604 -0.0873
  718THF    H1214353   0.412   2.507   3.731 -1.0585 -0.0689 -0.7782
  718THF    H1314354   0.412   2.585   3.579 -0.0268  1.3269 -0.5183
  719THF     O114355   3.316   5.394   0.575 -0.2491  0.8381 -0.1671
  719THF     C214356   3.367   5.311   0.473 -0.1972 -0.2916  0.3704
  719THF     C314357   3.178   5.353   0.586  0.1373  0.2739 -0.0481
  719THF     H414358   3.476   5.304   0.472  0.0208  1.3722 -3.3005
  719THF     H514359   3.335   5.358   0.380  1.1411 -3.8735 -2.1418
  719THF     H614360   3.151   5.385   0.687  0.2739 -1.8903  0.7397
  719THF     H714361   3.109   5.393   0.512  1.7288 -0.1608 -1.8484
  719THF     C814362   3.176   5.201   0.562  0.3794  0.5212  0.0751
  719THF     C914363   3.309   5.170   0.499 -0.4245  0.1861  0.3674
  719THF    H1014364   3.105   5.181   0.482  1.5156  1.8867 -1.3389
  719THF    H1114365   3.161   5.150   0.657 -4.4519  1.1127 -0.1027
  719THF    H1214366   3.373   5.111   0.566 -0.1648 -0.3756 -0.3677
  719THF    H1314367   3.298   5.109   0.410 -0.0439 -0.2513  0.6143
  720THF     O114368   4.755   3.083   2.277 -0.4410 -0.5013 -0.5926
  720THF     C214369   4.811   3.173   2.375 -0.0762 -0.4315  1.1890
  720THF     C314370   4.774   3.137   2.146  0.1351  0.7177 -0.6685
  720THF     H414371   4.910   3.131   2.397  1.2279 -0.0993 -3.1634
  720THF     H514372   4.752   3.180   2.466 -0.1804 -0.5172  1.1282
  720THF     H614373   4.814   3.064   2.076 -0.9073 -2.0030  1.4079
  720THF     H714374   4.675   3.166   2.112 -0.4538  0.0558  0.4410
  720THF     C814375   4.866   3.265   2.164  0.4597  0.2537  0.3799
  720THF     C914376   4.832   3.307   2.305 -0.1333  0.2055 -0.2925
  720THF    H1014377   4.845   3.351   2.101 -2.1052 -1.3113 -1.1100
  720THF    H1114378   4.971   3.241   2.147 -0.0143 -1.7093 -0.1172
  720THF    H1214379   4.910   3.361   2.358 -0.0047  2.3536 -2.5122
  720THF    H1314380   4.738   3.361   2.299 -0.0960  0.5066  1.2859
  721THF     O114381   4.210   1.059   2.156  0.4349 -0.6144  0.2776
  721THF     C214382   4.109   1.103   2.066  0.4835 -0.3193  0.1760
  721THF     C314383   4.149   1.052   2.277  0.0536 -0.4901 -0.5224
  721THF     H414384   4.086   1.024   1.995 -0.7186 -0.3336  0.5670
  721THF     H514385   4.149   1.186   2.008 -1.0207  0.4474  0.1954
  721THF     H614386   4.179   0.972   2.345 -0.9027 -1.9527 -1.7622
  721THF     H714387   4.175   1.145   2.329  2.3077 -1.7532  0.7728
  721THF     C814388   3.996   1.058   2.260  0.3942  0.3935 -0.1343
  721THF     C914389   3.985   1.156   2.150 -0.2497 -0.7006 -0.5358
  721THF    H1014390   3.933   1.094   2.341  1.5400  0.8096  0.6049
  721THF    H1114391   3.947   0.965   2.234 -2.9089  1.7871  0.6395
  721THF    H1214392   3.888   1.141   2.103 -0.7143  1.7666 -0.4847
  721THF    H1314393   4.008   1.258   2.182  0.7284 -0.8713 -0.6693
  722THF     O114394   1.289   3.959   3.744 -0.3535 -0.3280  0.3450
  722THF     C214395   1.358   3.925   3.626 -0.0783 -0.5004  0.1616
  722THF     C314396   1.350   4.083   3.790 -0.3341  0.4910  0.1801
  722THF     H414397   1.298   3.864   3.558  0.9913  0.0954 -1.3743
  722THF     H514398   1.451   3.877   3.655 -0.9494 -1.3945  1.5935
  722THF     H614399   1.268   4.135   3.839 -2.2751 -0.4422 -1.8766
  722THF     H714400   1.435   4.068   3.856  0.1155  1.1627 -0.2317
  722THF     C814401   1.387   4.160   3.669  0.2876  0.4457  0.5019
  722THF     C914402   1.396   4.053   3.556 -0.3284 -0.4133 -1.4668
  722THF    H1014403   1.475   4.222   3.687 -0.9327  3.4945 -2.8434
  722THF    H1114404   1.312   4.236   3.647  0.8311  0.6960 -0.5349
  722THF    H1214405   1.325   4.089   3.481 -1.1042  2.6509  0.5515
  722THF    H1314406   1.499   4.042   3.524  0.0131  0.8707 -0.8995
  723THF     O114407   0.057   0.504   3.607  0.2101 -0.5298 -0.8083
  723THF     C214408   0.138   0.588   3.526  0.1296 -0.5319  0.1314
  723THF     C314409  -0.078   0.534   3.575  0.6335  0.3896 -0.3958
  723THF     H414410   0.170   0.544   3.432  0.8324  0.9310 -0.3367
  723THF     H514411   0.223   0.625   3.583  1.6629 -1.4609 -1.4551
  723THF     H614412  -0.102   0.477   3.486 -0.3835 -0.4203  0.3720
  723THF     H714413  -0.150   0.502   3.651  1.3357 -0.8748 -0.2363
  723THF     C814414  -0.079   0.686   3.567 -0.1842 -0.3840  0.3745
  723THF     C914415   0.049   0.707   3.485 -0.5353 -0.0528  0.2012
  723THF    H1014416  -0.073   0.735   3.664 -0.6091  0.1208  0.1519
  723THF    H1114417  -0.165   0.724   3.511  0.7211  1.4552  0.1517
  723THF    H1214418   0.034   0.705   3.377  2.3824  1.1121 -0.3070
  723THF    H1314419   0.098   0.803   3.503 -0.0258 -0.4280  0.8362
  724THF     O114420   4.392   3.356   5.115  0.3256 -0.1715 -0.2651
  724THF     C214421   4.447   3.294   5.231 -0.1997 -0.4035 -0.1071
  724THF     C314422   4.292   3.448   5.152  0.6361 -0.0494 -0.3613
  724THF     H414423   4.553   3.272   5.226  0.3133  1.7255  0.3644
  724THF     H514424   4.399   3.197   5.239  0.7182 -0.7990  0.8704
  724THF     H614425   4.323   3.550   5.130 -0.9505  1.0759  2.0854
  724THF     H714426   4.207   3.437   5.084 -1.2432  0.4695  1.7562
  724THF     C814427   4.271   3.426   5.304  0.2924 -0.2657 -0.0097
  724THF     C914428   4.403   3.378   5.346  0.0739  0.7769 -0.2523
  724THF    H1014429   4.192   3.353   5.321  0.9992 -1.1355 -0.3762
  724THF    H1114430   4.223   3.515   5.345 -1.1365 -1.4309  0.9402
  724THF    H1214431   4.474   3.460   5.348  0.6217  0.3000  1.3163
  724THF    H1314432   4.392   3.321   5.439 -2.7815  0.7119 -0.5429
  725THF     O114433   4.027   3.649   3.248 -0.7853 -0.2502 -0.6867
  725THF     C214434   4.054   3.622   3.384 -0.4614  1.1209 -0.1971
  725THF     C314435   3.961   3.774   3.250 -0.1407  0.0313  0.0535
  725THF     H414436   4.137   3.680   3.425  0.9968  0.4836 -2.1184
  725THF     H514437   4.081   3.517   3.395  0.0326  1.0897 -1.6042
  725THF     H614438   4.039   3.847   3.272 -0.8949  1.3293 -1.4329
  725THF     H714439   3.919   3.792   3.151 -0.8338 -1.4405  0.0451
  725THF     C814440   3.855   3.759   3.357  0.5715  0.4563 -0.5738
  725THF     C914441   3.921   3.657   3.456 -0.2894  0.1719  0.1249
  725THF    H1014442   3.775   3.701   3.310  0.9675 -0.9603  0.4144
  725THF    H1114443   3.822   3.858   3.387 -2.6191 -0.7102  0.1936
  725THF    H1214444   3.955   3.685   3.556  2.2411 -0.1955 -0.5637
  725THF    H1314445   3.861   3.566   3.455  0.8552 -0.6085 -0.9119
  726THF     O114446   1.189   5.433   2.847  0.3340 -0.2211 -0.2109
  726THF     C214447   1.307   5.489   2.781  0.2838  0.6352  0.9320
  726THF     C314448   1.149   5.504   2.965  0.3428 -0.1223  0.2276
  726THF     H414449   1.277   5.518   2.680  3.4018 -3.8732 -1.6816
  726THF     H514450   1.374   5.403   2.772 -0.5694 -0.1780  2.0824
  726THF     H614451   1.043   5.524   2.974  0.9289  2.7554  2.2011
  726THF     H714452   1.184   5.447   3.051  1.3173 -0.0674 -0.1100
  726THF     C814453   1.228   5.634   2.957 -0.5307 -0.5369 -0.0473
  726THF     C914454   1.351   5.601   2.871  0.3412 -0.1876 -0.1096
  726THF    H1014455   1.268   5.673   3.050  0.6576 -1.3029 -0.2174
  726THF    H1114456   1.164   5.712   2.915 -2.0471 -1.7667 -0.0838
  726THF    H1214457   1.381   5.689   2.814 -1.5438 -0.2165 -1.2246
  726THF    H1314458   1.432   5.576   2.940 -2.1030  0.2902  3.2262
  727THF     O114459   0.008   0.219   1.277  0.3523  0.0748  0.3354
  727THF     C214460  -0.042   0.349   1.288  0.5127 -0.7344  0.3674
  727THF     C314461  -0.096   0.131   1.220 -0.0026  0.0058  0.1802
  727THF     H414462   0.030   0.399   1.222  1.1039 -1.4994  0.4157
  727THF     H514463  -0.011   0.411   1.372  0.4976  0.8527 -0.7374
  727THF     H614464  -0.047   0.048   1.170  1.6759  0.6594  0.6402
  727THF     H714465  -0.154   0.095   1.305  2.5487 -2.2941  1.0784
  727THF     C814466  -0.186   0.228   1.139  0.2558  0.0666  0.2256
  727THF     C914467  -0.185   0.347   1.232  1.0071  0.2774 -0.1504
  727THF    H1014468  -0.284   0.183   1.123 -0.1913  0.0024  2.7795
  727THF    H1114469  -0.143   0.256   1.043 -0.4389 -1.2229 -0.4987
  727THF    H1214470  -0.217   0.438   1.181  2.0572  1.1456  0.6782
  727THF    H1314471  -0.257   0.341   1.314  0.1184 -1.2145 -1.0131
  728THF     O114472   3.021   5.356   3.627 -0.4015 -0.5937 -0.0200
  728THF     C214473   3.034   5.495   3.609  0.0936  0.3703  0.0123
  728THF     C314474   2.982   5.333   3.762 -0.4067  0.2588  0.3579
  728THF     H414475   3.021   5.520   3.503 -1.6452 -1.6712 -0.3184
  728THF     H514476   3.132   5.522   3.649  0.2014  1.4514 -0.9072
  728THF     H614477   2.934   5.235   3.772 -0.7869  0.4947  0.9349
  728THF     H714478   3.063   5.343   3.834  2.3556 -0.2644 -2.4581
  728THF     C814479   2.877   5.445   3.782  0.5750 -0.4224 -0.3790
  728THF     C914480   2.920   5.562   3.693 -0.1809  0.5201  0.6452
  728THF    H1014481   2.875   5.479   3.886 -1.2746  0.0478 -0.5179
  728THF    H1114482   2.775   5.408   3.767  0.3787 -0.7202  1.5211
  728THF    H1214483   2.846   5.602   3.624  1.0930  2.0868  0.1306
  728THF    H1314484   2.950   5.652   3.748  1.7311 -0.7610  1.8302
  729THF     O114485   2.715   5.100   2.144 -0.1134 -0.0139 -0.3627
  729THF     C214486   2.762   4.974   2.205  0.0298  0.2544 -0.1711
  729THF     C314487   2.728   5.086   2.003 -0.4295 -0.5363  0.2373
  729THF     H414488   2.695   4.889   2.195 -1.4349  1.2581  0.7591
  729THF     H514489   2.787   4.984   2.310 -1.1482 -2.1371  0.4061
  729THF     H614490   2.638   5.033   1.972  0.5510 -2.4178  0.4043
  729THF     H714491   2.739   5.182   1.953 -1.9513 -0.3277  0.2717
  729THF     C814492   2.853   5.005   1.981 -0.7962 -0.1339  0.0811
  729THF     C914493   2.876   4.943   2.116  0.7820 -0.0384  0.9890
  729THF    H1014494   2.938   5.066   1.950  0.2833 -1.7318 -0.2387
  729THF    H1114495   2.847   4.932   1.901 -1.1934  0.9313 -0.8773
  729THF    H1214496   2.894   4.835   2.114 -1.9941 -0.6373  2.5589
  729THF    H1314497   2.969   4.983   2.157  1.1401  0.6127 -0.3872
  730THF     O114498   1.484   3.853   4.921  0.3791  0.2203  0.2466
  730THF     C214499   1.472   3.740   5.010  0.1672 -0.2410  0.2906
  730THF     C314500   1.347   3.897   4.880 -0.1605  0.1067  0.4587
  730THF     H414501   1.544   3.743   5.091 -2.1062  0.8361  2.3712
  730THF     H514502   1.484   3.646   4.955 -2.6907 -0.5453  0.0175
  730THF     H614503   1.321   4.003   4.892 -1.0471 -0.0886  0.3350
  730THF     H714504   1.321   3.881   4.776 -1.6331  3.7268  0.1265
  730THF     C814505   1.250   3.810   4.958 -0.0387 -0.0090 -0.3855
  730THF     C914506   1.332   3.742   5.063  0.5905 -0.3577 -0.4561
  730THF    H1014507   1.197   3.738   4.896 -2.6411  0.7621  0.8156
  730THF    H1114508   1.181   3.868   5.019  0.8629  0.9384 -0.2456
  730THF    H1214509   1.333   3.813   5.146  1.5641 -0.7339 -0.1274
  730THF    H1314510   1.301   3.641   5.088  0.5994 -0.7732 -2.0695
  731THF     O114511   0.626   1.186   2.093 -0.0815  0.3805  0.0893
  731THF     C214512   0.507   1.262   2.117 -0.1445  0.1537  0.8197
  731THF     C314513   0.739   1.246   2.170  0.1723  0.6055 -0.1711
  731THF     H414514   0.421   1.196   2.110  0.4630 -0.7725  1.6942
  731THF     H514515   0.498   1.349   2.051  0.7000  2.3177  3.3632
  731THF     H614516   0.795   1.161   2.210  0.2318  0.8014  0.1638
  731THF     H714517   0.802   1.300   2.099 -2.1039  3.6206 -0.0530
  731THF     C814518   0.670   1.340   2.276 -0.3428 -0.7074 -0.7966
  731THF     C914519   0.519   1.308   2.258 -0.0428 -0.1464  0.3949
  731THF    H1014520   0.674   1.444   2.243 -2.8047 -0.6032 -1.0288
  731THF    H1114521   0.688   1.321   2.381 -0.9310  0.7255 -0.4139
  731THF    H1214522   0.484   1.231   2.327  0.3475  0.5715  1.4182
  731THF    H1314523   0.466   1.400   2.285  0.2985  0.4941 -1.0070
  732THF     O114524   3.878   0.024   2.623 -0.2766  0.0326  0.2466
  732THF     C214525   4.008   0.010   2.673 -0.6001  0.3642 -0.5109
  732THF     C314526   3.862  -0.051   2.509  0.0775 -0.2408 -0.0806
  732THF     H414527   4.009   0.050   2.774  1.1911 -0.4015 -0.1851
  732THF     H514528   4.073   0.065   2.605  0.4633  1.5577  1.3797
  732THF     H614529   3.760  -0.083   2.488 -0.7166  0.8053  1.9198
  732THF     H714530   3.896   0.006   2.422  1.2258 -0.8501 -0.0537
  732THF     C814531   3.952  -0.170   2.531 -0.7112 -0.3366  0.0768
  732THF     C914532   4.018  -0.142   2.658  0.4935 -0.4143  0.2486
  732THF    H1014533   4.013  -0.182   2.441 -1.9558  0.7089 -0.9473
  732THF    H1114534   3.898  -0.265   2.532  2.7037 -2.4488  0.5272
  732THF    H1214535   3.971  -0.188   2.745 -0.6732 -1.5025 -0.9017
  732THF    H1314536   4.123  -0.169   2.649  0.7668 -0.3206  2.5143
  733THF     O114537   2.794   4.457   3.615 -0.1235 -0.2338 -0.2879
  733THF     C214538   2.791   4.597   3.623  0.2126  0.6991 -0.3846
  733THF     C314539   2.669   4.413   3.560  0.4177 -0.4741  0.4652
  733THF     H414540   2.810   4.625   3.519  0.0808 -0.6675 -0.8019
  733THF     H514541   2.867   4.649   3.680 -0.6218  2.4231 -0.7876
  733THF     H614542   2.676   4.392   3.453 -1.3245 -0.3585  0.3086
  733THF     H714543   2.634   4.319   3.603  1.5192 -1.0594  0.1182
  733THF     C814544   2.573   4.529   3.589 -0.4694 -0.1691 -0.5205
  733THF     C914545   2.652   4.621   3.681  0.0381 -0.1061  0.0218
  733THF    H1014546   2.468   4.515   3.611  0.2663 -1.3470  2.7459
  733THF    H1114547   2.563   4.588   3.498 -0.6295  0.5286 -0.0569
  733THF    H1214548   2.623   4.726   3.685 -0.9993 -0.3766 -0.0470
  733THF    H1314549   2.664   4.583   3.782  0.9484 -0.7063 -0.3027
  734THF     O114550   2.752   5.379   5.251 -0.1051  0.3643 -0.2415
  734THF     C214551   2.798   5.250   5.306  0.1164 -0.1969 -0.2251
  734THF     C314552   2.848   5.417   5.157  0.4523  0.0151  0.0049
  734THF     H414553   2.768   5.165   5.246 -1.7747 -1.2614  2.0398
  734THF     H514554   2.760   5.230   5.406  0.8199 -2.5712 -0.3916
  734THF     H614555   2.857   5.349   5.072  0.2460 -0.3421  0.2650
  734THF     H714556   2.834   5.515   5.112 -0.0131 -1.1787 -2.6298
  734THF     C814557   2.971   5.396   5.239 -0.7870 -0.5462 -0.1403
  734THF     C914558   2.948   5.271   5.318 -0.7421 -0.1529  0.1366
  734THF    H1014559   2.990   5.471   5.315 -2.3110  0.5748 -0.8203
  734THF    H1114560   3.060   5.388   5.176 -1.3449 -0.8284 -0.9003
  734THF    H1214561   3.000   5.194   5.261 -0.4251  0.6302 -0.6531
  734THF    H1314562   2.983   5.269   5.421  1.4161  0.3211 -0.5491
  735THF     O114563   0.608   4.598   0.072  0.3782  0.2639  0.0672
  735THF     C214564   0.678   4.608  -0.054  0.2783 -0.0486  0.3060
  735THF     C314565   0.494   4.512   0.044  0.0870  0.2091  0.8755
  735THF     H414566   0.777   4.646  -0.030  0.6892 -0.8485 -0.0970
  735THF     H514567   0.646   4.699  -0.105  2.0952 -0.0722 -0.9874
  735THF     H614568   0.481   4.430   0.115  1.6871 -0.5109  0.3859
  735THF     H714569   0.397   4.562   0.040  0.2438  0.4881  0.5502
  735THF     C814570   0.503   4.463  -0.099 -0.8474 -0.3917  0.0907
  735THF     C914571   0.652   4.487  -0.139  0.0790  0.1546 -0.4902
  735THF    H1014572   0.441   4.527  -0.162 -0.1388  1.3005  1.0287
  735THF    H1114573   0.466   4.361  -0.103  1.5193 -1.5352  2.9197
  735THF    H1214574   0.711   4.403  -0.102 -0.8407 -0.5268 -0.5058
  735THF    H1314575   0.662   4.499  -0.247 -0.7726  0.6658 -0.5208
  736THF     O114576   5.377   1.385   4.556  0.0445 -0.1362 -0.1361
  736THF     C214577   5.387   1.322   4.435 -0.8012 -0.3352  0.2950
  736THF     C314578   5.250   1.450   4.569 -0.7580 -0.0722  0.3519
  736THF     H414579   5.327   1.232   4.449  0.4109 -1.1988  0.0754
  736THF     H514580   5.489   1.295   4.407 -0.4571  0.8564  0.3700
  736THF     H614581   5.169   1.377   4.577  1.2228 -2.4679 -0.0493
  736THF     H714582   5.256   1.523   4.649  2.9424  1.4071 -1.0516
  736THF     C814583   5.258   1.527   4.433 -0.5751  0.3553  0.3457
  736THF     C914584   5.324   1.425   4.345 -0.1264 -0.3571  0.3208
  736THF    H1014585   5.322   1.615   4.440  0.1195 -0.2239  1.7176
  736THF    H1114586   5.163   1.563   4.393 -0.9758 -0.4226  0.5777
  736THF    H1214587   5.243   1.375   4.292 -0.3591 -0.4808  0.7861
  736THF    H1314588   5.393   1.469   4.272 -3.1326  1.6776 -1.5059
  737THF     O114589   1.782   4.963   3.312  0.2879  0.4469  0.1596
  737THF     C214590   1.720   5.092   3.276 -0.1838 -0.2723 -0.1451
  737THF     C314591   1.819   4.974   3.450 -0.2507  0.1872 -0.4736
  737THF     H414592   1.631   5.072   3.217 -0.4557 -0.1488  0.2238
  737THF     H514593   1.791   5.157   3.224  0.7789 -1.2837 -0.1429
  737THF     H614594   1.748   4.927   3.518 -1.4583  0.5097 -1.4574
  737THF     H714595   1.916   4.933   3.476 -0.1581  1.5379  1.5489
  737THF     C814596   1.830   5.121   3.478 -0.9459  0.2629  0.2650
  737THF     C914597   1.696   5.164   3.410 -0.1776  0.6836 -0.0742
  737THF    H1014598   1.913   5.169   3.425 -1.5275  0.0281 -0.8931
  737THF    H1114599   1.837   5.159   3.580  0.5852 -0.3274  0.4141
  737THF    H1214600   1.606   5.138   3.465 -0.0960  1.2708  0.3365
  737THF    H1314601   1.694   5.271   3.392 -1.2646  0.3537 -2.2993
  738THF     O114602   4.694   4.813   0.404 -0.3058 -0.4423  0.2875
  738THF     C214603   4.620   4.699   0.446  0.4609 -0.4780  0.3879
  738THF     C314604   4.665   4.921   0.490  0.4265  0.3043  0.5634
  738THF     H414605   4.674   4.620   0.394 -0.7205 -0.4415 -0.9681
  738THF     H514606   4.518   4.700   0.407  1.1184 -2.5124 -1.6549
  738THF     H614607   4.756   4.979   0.479  0.0233  0.5025 -2.7611
  738THF     H714608   4.584   4.982   0.451 -0.3633 -0.9605  0.1442
  738THF     C814609   4.647   4.858   0.625 -0.0499 -0.7572 -0.1435
  738THF     C914610   4.630   4.710   0.601 -0.5745  0.4169 -0.2921
  738THF    H1014611   4.552   4.892   0.667  0.6169  0.6367  0.2915
  738THF    H1114612   4.731   4.872   0.692 -0.0777 -2.3462  0.2483
  738THF    H1214613   4.719   4.654   0.632 -1.1155 -0.0793  0.3771
  738THF    H1314614   4.540   4.661   0.638 -0.2295 -2.3473 -2.7625
  739THF     O114615   4.028   4.865   1.868 -0.0539 -0.0698  0.6492
  739THF     C214616   3.955   4.763   1.918  0.2044  0.1085 -0.1063
  739THF     C314617   3.952   4.951   1.788 -0.8371 -0.2199 -0.3216
  739THF     H414618   3.980   4.753   2.024 -0.3596 -0.2917 -0.0052
  739THF     H514619   3.984   4.662   1.888 -0.2266  0.2629 -1.0727
  739THF     H614620   3.994   5.052   1.778 -0.3137 -0.4946 -1.0134
  739THF     H714621   3.950   4.911   1.687 -2.6279 -0.9095 -0.0352
  739THF     C814622   3.816   4.947   1.856 -0.3988  0.3628 -0.2066
  739THF     C914623   3.809   4.801   1.910 -0.3741 -0.0619 -0.1934
  739THF    H1014624   3.741   4.979   1.784  0.6386 -0.1806 -1.5625
  739THF    H1114625   3.816   5.013   1.943 -1.3654  0.2970 -0.1465
  739THF    H1214626   3.775   4.785   2.012  0.7848 -3.9896 -0.2648
  739THF    H1314627   3.751   4.737   1.845 -1.9362  0.4034  0.6998
  740THF     O114628   4.909   0.725   0.103  0.2541  0.0044  0.4650
  740THF     C214629   4.918   0.687  -0.036  0.3598 -0.0788 -0.0847
  740THF     C314630   4.824   0.630   0.166 -0.2493 -0.4711  1.0664
  740THF     H414631   4.992   0.607  -0.038  0.1353 -0.3019  0.2503
  740THF     H514632   4.958   0.766  -0.099  3.4809 -2.1156 -0.8488
  740THF     H614633   4.884   0.547   0.202 -1.1279 -1.6674 -0.1087
  740THF     H714634   4.786   0.676   0.257 -2.1620 -0.9950  0.5792
  740THF     C814635   4.723   0.591   0.060 -0.7384  0.1906 -0.4988
  740THF     C914636   4.775   0.642  -0.070 -0.5690  0.1108 -0.0546
  740THF    H1014637   4.623   0.631   0.078  0.4531  1.9965  3.2493
  740THF    H1114638   4.728   0.484   0.077  1.4404  0.4203  0.6763
  740THF    H1214639   4.771   0.571  -0.153 -1.9266 -0.0730  0.1318
  740THF    H1314640   4.708   0.719  -0.111 -1.1815 -0.2726  0.2075
  741THF     O114641   5.453   2.260   4.976  0.5258 -0.3327 -0.0882
  741THF     C214642   5.519   2.200   5.085  0.4558 -0.0758 -0.1758
  741THF     C314643   5.547   2.345   4.923 -0.6697 -0.6467  0.4136
  741THF     H414644   5.577   2.121   5.038  0.0756  0.7068 -2.0591
  741THF     H514645   5.454   2.150   5.157 -0.8136  1.5070 -0.1556
  741THF     H614646   5.634   2.290   4.886  1.1555  1.7848  0.7734
  741THF     H714647   5.510   2.416   4.849  0.0391  1.3686  1.9101
  741THF     C814648   5.602   2.417   5.047 -0.0467  0.0916 -0.0973
  741THF     C914649   5.584   2.315   5.158  0.7193 -0.1868  0.1239
  741THF    H1014650   5.561   2.517   5.058  1.8228  0.9373 -0.4673
  741THF    H1114651   5.707   2.446   5.037  0.5033 -2.0360 -1.2608
  741THF    H1214652   5.679   2.276   5.195  1.4290 -1.0011 -2.3205
  741THF    H1314653   5.519   2.357   5.234  0.0165 -0.1113 -0.5042
  742THF     O114654   2.659   3.175   1.825 -0.3537 -0.6467 -0.4657
  742THF     C214655   2.604   3.302   1.783 -0.5527  0.4182  0.4989
  742THF     C314656   2.801   3.180   1.833 -0.1177 -0.1606 -0.0618
  742THF     H414657   2.605   3.372   1.867  1.6139  0.8685  0.1421
  742THF     H514658   2.502   3.292   1.746  0.0728 -1.4481 -0.8457
  742THF     H614659   2.841   3.195   1.933  0.3539  2.1839 -0.5346
  742THF     H714660   2.841   3.088   1.792 -0.0354 -0.2250  0.1609
  742THF     C814661   2.851   3.289   1.741  0.5672 -0.7089  0.0424
  742THF     C914662   2.717   3.347   1.686 -0.2559 -0.4434  0.3123
  742THF    H1014663   2.918   3.262   1.660  1.0642 -0.6309  0.4231
  742THF    H1114664   2.897   3.373   1.793  0.7394  0.0183 -1.2360
  742THF    H1214665   2.728   3.455   1.688 -1.0928 -0.3164 -0.9465
  742THF    H1314666   2.700   3.316   1.583 -2.0152 -0.7383  0.6707
  743THF     O114667   3.984   3.984   0.358  0.3592 -0.2101  0.3939
  743THF     C214668   3.870   4.056   0.395 -0.4370 -0.3998 -0.6369
  743THF     C314669   4.103   4.050   0.371  0.4290 -0.3550  0.3897
  743THF     H414670   3.814   3.995   0.466 -1.1650  0.1911 -0.6891
  743THF     H514671   3.816   4.067   0.301 -2.2327 -0.9246  0.2906
  743THF     H614672   4.157   4.022   0.461 -1.0331  0.0082  1.4144
  743THF     H714673   4.164   4.036   0.282 -0.2619 -0.6174 -0.0528
  743THF     C814674   4.061   4.197   0.384  0.0706 -0.1869  0.3385
  743THF     C914675   3.923   4.182   0.458 -0.2326 -0.6503 -0.2182
  743THF    H1014676   4.048   4.239   0.285 -0.0599 -0.7441  0.1137
  743THF    H1114677   4.138   4.251   0.439  0.6892  1.5686 -2.0928
  743THF    H1214678   3.935   4.162   0.564 -1.1350  1.4821  0.3489
  743THF    H1314679   3.855   4.265   0.440  0.5561  0.5617  2.0020
  744THF     O114680   5.077   1.603   3.105  0.2501  0.3139 -0.0754
  744THF     C214681   5.081   1.581   2.967 -0.1651  0.2397 -0.1815
  744THF     C314682   4.969   1.530   3.156  0.2083 -0.2760  0.6117
  744THF     H414683   5.180   1.596   2.923  0.2121  2.7204  1.3529
  744THF     H514684   5.023   1.653   2.910 -1.5295 -0.6446  0.0310
  744THF     H614685   4.967   1.524   3.265  0.1406  0.2969  0.6405
  744THF     H714686   4.879   1.583   3.123 -0.9045 -2.7527 -0.6675
  744THF     C814687   4.981   1.390   3.090  0.6397 -0.0228 -0.1017
  744THF     C914688   5.040   1.432   2.955 -0.0882  0.3774  0.0387
  744THF    H1014689   4.885   1.341   3.079 -0.4342  2.1395 -0.8964
  744THF    H1114690   5.048   1.319   3.140 -1.1641  0.1386  2.7840
  744THF    H1214691   5.126   1.369   2.935  0.4209  0.8571  0.6373
  744THF    H1314692   4.959   1.416   2.884 -0.0980  1.2063 -0.1571
  745THF     O114693   2.319   2.459   3.997  0.0909  0.0801 -0.5006
  745THF     C214694   2.242   2.535   3.899 -0.6277  0.0406 -0.4041
  745THF     C314695   2.324   2.530   4.120  1.0214 -0.6716 -0.0544
  745THF     H414696   2.202   2.475   3.817  1.4470 -0.1416 -1.3699
  745THF     H514697   2.311   2.611   3.861 -0.0241  0.4816  1.4659
  745THF     H614698   2.328   2.459   4.203 -1.3625  1.7011  2.2855
  745THF     H714699   2.411   2.595   4.122 -0.9526  2.1257  0.2335
  745THF     C814700   2.195   2.616   4.120 -0.4156  0.0532 -0.4307
  745THF     C914701   2.142   2.606   3.984 -0.1194  0.0935  0.2147
  745THF    H1014702   2.215   2.720   4.145  1.6356 -0.5730  0.7997
  745THF    H1114703   2.131   2.565   4.192  0.8899  1.1424  1.5782
  745THF    H1214704   2.050   2.547   3.980 -1.7516  2.5127 -1.1561
  745THF    H1314705   2.119   2.700   3.934 -0.9009 -0.1135  0.1677
  746THF     O114706   1.949   3.800   0.955  0.0026  0.2436 -0.1951
  746THF     C214707   2.007   3.791   1.081 -0.6573 -0.5630  0.1428
  746THF     C314708   1.862   3.686   0.947  0.4679 -0.1106  0.2183
  746THF     H414709   2.043   3.888   1.116 -2.6239 -0.0778  0.9740
  746THF     H514710   2.087   3.718   1.072  1.2221  1.4474 -0.3360
  746THF     H614711   1.772   3.732   0.907 -0.6357 -2.7434 -0.4994
  746THF     H714712   1.884   3.607   0.875 -2.2553 -0.4606 -0.3352
  746THF     C814713   1.829   3.634   1.085  0.3825 -0.1171 -0.0892
  746THF     C914714   1.905   3.734   1.181 -0.5285  0.0297  0.7502
  746THF    H1014715   1.871   3.534   1.092  0.2933 -0.1185  0.4923
  746THF    H1114716   1.723   3.620   1.109  0.2003 -1.6724 -1.6170
  746THF    H1214717   1.847   3.816   1.224  0.5317  0.8826  0.5903
  746THF    H1314718   1.975   3.685   1.248 -1.1311  0.0161  1.3862
  747THF     O114719   5.106   4.628   4.108 -0.7268  0.9464  0.3908
  747THF     C214720   5.098   4.483   4.101 -0.0526 -0.3653  0.6898
  747THF     C314721   5.107   4.679   3.976  0.6478 -0.5639 -0.2494
  747THF     H414722   5.046   4.441   4.187 -1.9690  1.1243  0.3237
  747THF     H514723   5.195   4.437   4.080  0.2544  0.9363 -0.9253
  747THF     H614724   5.078   4.784   3.979  1.9189 -0.1713 -1.0374
  747THF     H714725   5.206   4.671   3.932  1.2129 -0.8416  1.0400
  747THF     C814726   5.003   4.589   3.895 -0.0140  0.1161 -0.5476
  747THF     C914727   5.006   4.460   3.981 -0.1546 -0.4020 -0.2652
  747THF    H1014728   5.025   4.577   3.788  0.8073 -0.7707 -0.2988
  747THF    H1114729   4.902   4.629   3.890  0.6359  1.9130 -0.0942
  747THF    H1214730   4.905   4.425   4.004  0.1168  0.3265  2.3129
  747THF    H1314731   5.049   4.374   3.929  0.4913 -0.5189  0.4585
  748THF     O114732   3.617   5.135   2.847  0.7223 -0.3869 -0.4246
  748THF     C214733   3.697   5.021   2.867 -1.1246 -1.4353  0.5467
  748THF     C314734   3.552   5.120   2.729  0.4535 -0.6530  0.1986
  748THF     H414735   3.732   5.010   2.969  0.2297  1.3645  0.4761
  748THF     H514736   3.790   5.025   2.810 -1.5972  1.9667 -0.2286
  748THF     H614737   3.467   5.188   2.722 -0.7821 -2.1927 -0.3444
  748THF     H714738   3.614   5.143   2.642 -0.9481 -1.4947 -1.0613
  748THF     C814739   3.505   4.974   2.728 -0.2050 -0.3206 -0.1781
  748THF     C914740   3.612   4.906   2.814 -0.0612  0.5524 -0.3801
  748THF    H1014741   3.508   4.932   2.627  0.3167  1.0106 -0.7353
  748THF    H1114742   3.401   4.959   2.758  0.3732 -0.8538  1.6962
  748THF    H1214743   3.562   4.852   2.894  1.1168 -0.0374 -0.0120
  748THF    H1314744   3.667   4.828   2.760  1.1823 -0.4723  2.1603
  749THF     O114745   2.145   4.665   4.773  0.1494 -0.1889 -0.2603
  749THF     C214746   2.215   4.781   4.750  0.4685  0.3134 -0.3046
  749THF     C314747   2.126   4.595   4.651  0.1769  0.4215 -0.2025
  749THF     H414748   2.321   4.761   4.735 -0.4013 -3.3304 -3.1750
  749THF     H514749   2.198   4.849   4.833  0.5408  0.3157 -0.2921
  749THF     H614750   2.202   4.518   4.639 -0.5089 -0.1795 -0.8480
  749THF     H714751   2.032   4.542   4.667  1.3127 -1.6811 -0.2347
  749THF     C814752   2.136   4.707   4.546  0.4911  0.4110 -0.6754
  749THF     C914753   2.157   4.831   4.621  1.0099 -0.1758 -0.5623
  749THF    H1014754   2.050   4.708   4.479 -0.1402  0.9215  0.1368
  749THF    H1114755   2.226   4.681   4.490  0.4609  1.5892 -1.3060
  749THF    H1214756   2.225   4.901   4.572 -0.5451  0.4777 -1.8933
  749THF    H1314757   2.061   4.884   4.622  0.2432 -1.5206  0.5631
  750THF     O114758   3.403   3.735   0.124 -0.1641 -0.3364 -0.4245
  750THF     C214759   3.542   3.759   0.107  0.2784  0.4098  0.1618
  750THF     C314760   3.326   3.850   0.098 -0.4433 -0.3183  0.0174
  750THF     H414761   3.579   3.737   0.007 -0.9483  0.9243 -0.4196
  750THF     H514762   3.607   3.703   0.174  2.8800  1.4188 -1.3579
  750THF     H614763   3.321   3.871  -0.009 -2.8354  0.0400  0.1598
  750THF     H714764   3.224   3.843   0.135 -0.1797 -0.4066  0.7528
  750THF     C814765   3.404   3.956   0.174  0.5015  0.3753 -0.9011
  750THF     C914766   3.543   3.908   0.146 -0.2222 -0.5703 -0.0720
  750THF    H1014767   3.386   3.957   0.281  1.8594  2.6005 -0.6266
  750THF    H1114768   3.396   4.059   0.139  3.9493  2.1889  2.8442
  750THF    H1214769   3.572   3.956   0.052 -1.0673 -0.4160 -0.2614
  750THF    H1314770   3.617   3.941   0.219 -0.0268  3.2313 -1.7376
  751THF     O114771   5.266   4.652   0.710  0.5502 -0.3412 -0.1890
  751THF     C214772   5.181   4.733   0.796  0.4646  0.7856  0.4670
  751THF     C314773   5.196   4.622   0.600  1.0975 -0.2211  0.4295
  751THF     H414774   5.172   4.830   0.749 -1.0956  0.6491  0.4102
  751THF     H514775   5.206   4.749   0.901 -1.9694  0.8498  1.1039
  751THF     H614776   5.184   4.699   0.524 -0.7296 -0.9210 -0.0330
  751THF     H714777   5.240   4.535   0.552  2.0774  0.6081 -0.2396
  751THF     C814778   5.051   4.599   0.649 -0.3189 -0.4403 -0.1427
  751THF     C914779   5.050   4.650   0.786  0.6312 -0.3969  0.1014
  751THF    H1014780   5.022   4.495   0.635 -1.8708  0.1225 -1.3553
  751THF    H1114781   4.977   4.657   0.596 -0.0111  1.7515  1.6878
  751THF    H1214782   4.963   4.704   0.822  0.9102 -0.7788  1.4122
  751THF    H1314783   5.060   4.562   0.851  2.3040  0.1485  0.6471
  752THF     O114784   3.270   2.269   1.098  0.0627  0.1864  0.7280
  752THF     C214785   3.132   2.279   1.107  0.1441  0.1704 -0.2819
  752THF     C314786   3.312   2.404   1.081  0.0738 -0.3229 -0.0346
  752THF     H414787   3.107   2.208   1.186  1.8399 -1.6052 -1.2356
  752THF     H514788   3.083   2.244   1.016  1.6548 -1.7152 -0.4541
  752THF     H614789   3.413   2.420   1.121 -0.0673  1.3674 -0.2793
  752THF     H714790   3.305   2.426   0.974 -1.1666  1.0846  0.3219
  752THF     C814791   3.217   2.492   1.160  0.2631 -0.1506 -0.2610
  752THF     C914792   3.091   2.423   1.144 -0.1670  0.4852 -0.1850
  752THF    H1014793   3.216   2.597   1.131  2.2633  0.6493  2.1896
  752THF    H1114794   3.256   2.489   1.261  0.8098  0.2843 -0.4587
  752THF    H1214795   3.025   2.418   1.230 -0.0004 -1.1236 -0.1121
  752THF    H1314796   3.030   2.465   1.064  0.5609  0.5788 -0.6973
  753THF     O114797   4.665   1.458   5.225 -0.0727 -0.4031 -0.3802
  753THF     C214798   4.639   1.464   5.363 -0.5454 -0.0012  0.6887
  753THF     C314799   4.652   1.324   5.177 -0.6179  0.0816 -0.3873
  753THF     H414800   4.549   1.522   5.381 -1.3638  0.2243 -3.1783
  753THF     H514801   4.727   1.505   5.412  0.6640 -0.3778 -1.0624
  753THF     H614802   4.550   1.306   5.144 -0.4322 -0.3067 -0.7681
  753THF     H714803   4.728   1.304   5.101  2.8092  3.0602  1.8858
  753THF     C814804   4.683   1.248   5.298 -0.0763 -0.4770  0.1916
  753THF     C914805   4.628   1.326   5.411 -0.4522  0.9380 -0.1274
  753THF    H1014806   4.789   1.229   5.319  0.3888  0.8954 -0.7638
  753THF    H1114807   4.646   1.147   5.278  3.1987 -1.2370 -3.2877
  753THF    H1214808   4.526   1.291   5.425  0.4490 -1.0780  2.3153
  753THF    H1314809   4.679   1.309   5.506 -0.1765 -1.0846 -0.5746
  754PF6-    P114810   2.807   4.945   3.144  0.1446 -0.2510  0.1976
  754PF6-    F214811   2.755   4.828   3.045  0.0320  0.1840  0.0050
  754PF6-    F314812   2.864   5.053   3.249 -0.3091  0.4283 -0.2892
  754PF6-    F414813   2.876   5.019   3.013  0.2889 -0.2915 -0.3359
  754PF6-    F514814   2.740   4.866   3.270 -0.0244 -0.2073  0.2915
  754PF6-    F614815   2.940   4.866   3.168 -0.5856 -0.3211 -0.0437
  754PF6-    F714816   2.671   5.024   3.119  0.2560 -0.0884 -0.7466
  755PF6-    P114817   2.731   0.728   2.212  0.5112 -0.6226 -0.5080
  755PF6-    F214818   2.758   0.697   2.056 -0.5828  0.2364  0.2343
  755PF6-    F314819   2.696   0.747   2.365 -0.2315 -0.1109 -0.1468
  755PF6-    F414820   2.574   0.702   2.187 -0.0709  0.0571 -0.8019
  755PF6-    F514821   2.891   0.742   2.236  0.0355  0.0217  0.2842
  755PF6-    F614822   2.719   0.884   2.183 -0.1342  0.4297  0.4366
  755PF6-    F714823   2.746   0.568   2.247  0.3065 -0.1452 -0.4462
  756PF6-    P114824   4.611   1.375   4.683  0.4105  0.4106  0.1329
  756PF6-    F214825   4.586   1.248   4.585  0.1856  0.4317 -0.0916
  756PF6-    F314826   4.636   1.495   4.779 -0.6072 -0.6381  0.1056
  756PF6-    F414827   4.602   1.277   4.807  0.2060 -0.0829 -0.8559
  756PF6-    F514828   4.617   1.479   4.558 -0.3453  0.5238  0.2361
  756PF6-    F614829   4.451   1.391   4.698 -0.3189 -0.1825 -0.3392
  756PF6-    F714830   4.768   1.352   4.672 -0.0989 -0.1744 -0.5018
  757PF6-    P114831   0.419   3.763   4.165 -0.1721  0.4468  0.1386
  757PF6-    F214832   0.449   3.799   4.011 -0.1674  0.0861  0.4739
  757PF6-    F314833   0.401   3.736   4.318 -0.5732 -0.5266 -0.1069
  757PF6-    F414834   0.301   3.659   4.132 -0.3098 -0.4126 -0.3318
  757PF6-    F514835   0.539   3.863   4.202  0.2835  0.1404  0.0759
  757PF6-    F614836   0.319   3.886   4.169  0.3738 -0.7351  0.1439
  757PF6-    F714837   0.524   3.636   4.165  0.2390  0.6363 -0.1085
  758PF6-    P114838   1.246   2.624   0.687  0.0134 -0.1007  0.0301
  758PF6-    F214839   1.175   2.538   0.574  0.0420  0.5742  0.2889
  758PF6-    F314840   1.299   2.712   0.811  0.1128 -0.5493  0.3668
  758PF6-    F414841   1.322   2.493   0.734  0.3392  0.5502 -0.2198
  758PF6-    F514842   1.170   2.760   0.640  0.3183  0.3210 -0.1469
  758PF6-    F614843   1.119   2.596   0.781 -0.3021 -0.3017 -0.0221
  758PF6-    F714844   1.372   2.663   0.596 -0.0635 -0.0563 -0.3557
  759PF6-    P114845   0.314   0.342   4.863  0.0991 -0.1441 -0.1429
  759PF6-    F214846   0.431   0.454   4.867  0.3428 -0.4177 -0.2931
  759PF6-    F314847   0.200   0.229   4.866 -0.1744  0.0635 -0.1045
  759PF6-    F414848   0.215   0.449   4.938 -0.0240  0.4984  0.0815
  759PF6-    F514849   0.418   0.241   4.792 -0.2849 -0.3721 -0.3551
  759PF6-    F614850   0.367   0.292   5.002 -0.0334 -0.4271 -0.2532
  759PF6-    F714851   0.275   0.396   4.721  0.4136 -0.3189  0.1063
  760PF6-    P114852   3.987   5.231   5.295  0.0728  0.4189 -0.1357
  760PF6-    F214853   3.925   5.209   5.446 -0.1750 -0.3284 -0.4048
  760PF6-    F314854   4.038   5.257   5.143 -0.2109 -0.1191  0.3444
  760PF6-    F414855   3.837   5.275   5.245 -0.0689 -0.0310 -0.1342
  760PF6-    F514856   4.132   5.189   5.345  0.4533 -0.3641  0.2644
  760PF6-    F614857   3.956   5.077   5.255  0.0607  0.4461 -0.0212
  760PF6-    F714858   4.021   5.384   5.335  0.7966 -0.5092  0.0228
  761PF6-    P114859   0.438   1.576   2.691  0.1079 -0.1841 -0.0361
  761PF6-    F214860   0.520   1.636   2.569  0.5581  0.8909 -0.1091
  761PF6-    F314861   0.355   1.517   2.811  0.6025  0.5390 -0.4128
  761PF6-    F414862   0.535   1.449   2.693 -0.1834  0.0740  0.0265
  761PF6-    F514863   0.348   1.709   2.676 -0.1046 -0.1198 -0.3309
  761PF6-    F614864   0.345   1.500   2.581 -0.5533  0.5096 -0.1269
  761PF6-    F714865   0.536   1.650   2.793 -0.2102 -0.5465 -0.4429
  762PF6-    P114866   5.066   0.556   3.307  0.3395 -0.0859 -0.0949
  762PF6-    F214867   5.107   0.592   3.159 -0.0879  0.5988 -0.6007
  762PF6-    F314868   5.021   0.524   3.461 -0.1619  0.2885  0.0506
  762PF6-    F414869   5.023   0.412   3.259 -0.0757  0.2185 -0.5614
  762PF6-    F514870   5.106   0.705   3.353 -0.0823 -0.0062 -0.0881
  762PF6-    F614871   4.909   0.603   3.282  0.0274  0.0095  0.2820
  762PF6-    F714872   5.217   0.511   3.335 -0.0596  0.5511  0.2498
  763PF6-    P114873   0.536   2.300   5.083 -0.0169 -0.2007  0.0511
  763PF6-    F214874   0.399   2.288   4.997  0.1974 -0.2837  0.1331
  763PF6-    F314875   0.673   2.303   5.168 -0.5682 -0.6310  0.1324
  763PF6-    F414876   0.556   2.449   5.024  0.2471 -0.5508  0.2905
  763PF6-    F514877   0.516   2.150   5.145  0.1769  0.2924 -0.4050
  763PF6-    F614878   0.618   2.235   4.957 -0.1765  0.0395  0.4068
  763PF6-    F714879   0.459   2.357   5.215 -0.3720  0.5638  0.1554
  764PF6-    P114880   0.214   1.708   3.602 -0.1552  0.1453 -0.1451
  764PF6-    F214881   0.243   1.552   3.608  0.2200  0.7205  0.1294
  764PF6-    F314882   0.192   1.864   3.598  0.7245 -0.4800 -0.5329
  764PF6-    F414883   0.208   1.703   3.446  0.0941  0.8637 -0.4567
  764PF6-    F514884   0.222   1.711   3.758 -0.2296 -0.0805 -0.0698
  764PF6-    F614885   0.372   1.734   3.594 -0.3721 -0.4659  0.5216
  764PF6-    F714886   0.056   1.684   3.603 -0.0906  0.1735  0.1472
  765PF6-    P114887   3.311   2.460   3.278  0.4021  0.2514 -0.0724
  765PF6-    F214888   3.317   2.459   3.116 -0.2865  0.2444 -0.5068
  765PF6-    F314889   3.300   2.459   3.437 -0.2628 -0.1822 -0.1843
  765PF6-    F414890   3.454   2.405   3.286  0.0125  0.0007  0.4714
  765PF6-    F514891   3.162   2.515   3.270  0.5465  0.2049 -0.2731
  765PF6-    F614892   3.258   2.311   3.272  0.0065  0.1047  0.1999
  765PF6-    F714893   3.363   2.616   3.278 -0.1971  0.0241 -0.1207
  766PF6-    P114894   0.800   0.056   3.232 -0.1159  0.0754 -0.0119
  766PF6-    F214895   0.955   0.084   3.211 -0.3688  0.2947 -0.2018
  766PF6-    F314896   0.641   0.014   3.245  0.7352 -0.1591  0.3084
  766PF6-    F414897   0.841  -0.083   3.297 -0.5238 -0.1547  0.3482
  766PF6-    F514898   0.761   0.196   3.166  0.4084 -0.3595 -0.4461
  766PF6-    F614899   0.800  -0.008   3.087  0.2675  0.0437 -0.2619
  766PF6-    F714900   0.806   0.126   3.373 -0.3409 -0.3947 -0.2683
  767PF6-    P114901   1.440   5.332   1.880 -0.1916 -0.3960 -0.2322
  767PF6-    F214902   1.431   5.396   1.735 -0.4666 -0.2627  0.0136
  767PF6-    F314903   1.443   5.272   2.021  0.0032  0.3152 -0.0529
  767PF6-    F414904   1.348   5.447   1.936  0.3185  0.4778  0.3234
  767PF6-    F514905   1.534   5.212   1.819  0.0773 -0.7571 -0.2309
  767PF6-    F614906   1.571   5.418   1.919 -0.3072 -0.1134  0.1798
  767PF6-    F714907   1.302   5.259   1.845 -0.1741 -0.0550 -0.2559
  768PF6-    P114908   0.476   5.300   2.409  0.2645  0.4971  0.0440
  768PF6-    F214909   0.501   5.460   2.439 -0.1354 -0.2896  0.3816
  768PF6-    F314910   0.458   5.145   2.369 -0.2673  0.0119  0.5591
  768PF6-    F414911   0.592   5.309   2.295  0.0550  0.4773 -0.0003
  768PF6-    F514912   0.361   5.283   2.524  0.1683 -0.7104  0.6680
  768PF6-    F614913   0.362   5.346   2.309 -0.1533  0.6793  0.3950
  768PF6-    F714914   0.597   5.266   2.510  0.0513 -0.2631  0.2917
  769PF6-    P114915   0.314   3.208   2.562 -0.1131  0.5773 -0.2481
  769PF6-    F214916   0.181   3.127   2.597  0.0940 -0.1415 -0.1447
  769PF6-    F314917   0.452   3.290   2.525  0.4088  0.0999  0.4034
  769PF6-    F414918   0.346   3.225   2.719  0.2815 -0.0503  0.1397
  769PF6-    F514919   0.286   3.192   2.406  0.3535  0.2441  0.2379
  769PF6-    F614920   0.234   3.347   2.565 -0.4189 -0.4206  0.0364
  769PF6-    F714921   0.396   3.068   2.552 -0.3801 -0.1640  0.0036
  770PF6-    P114922   4.839   1.605   2.535 -0.0301 -0.5659 -0.4252
  770PF6-    F214923   4.936   1.601   2.662  0.0631 -0.1167 -0.5608
  770PF6-    F314924   4.734   1.601   2.416  0.2574  0.5280  0.3971
  770PF6-    F414925   4.743   1.699   2.615 -0.6075  0.1986 -0.1711
  770PF6-    F514926   4.934   1.503   2.464  0.2880 -0.1605 -0.2090
  770PF6-    F614927   4.766   1.485   2.609 -0.2844  0.0209 -0.2744
  770PF6-    F714928   4.925   1.731   2.473  0.5898 -0.5631 -0.0385
  771PF6-    P114929   2.729   4.431   1.109 -0.2648 -0.1337 -0.2114
  771PF6-    F214930   2.632   4.553   1.163 -0.2887 -0.1686 -0.0200
  771PF6-    F314931   2.823   4.317   1.056 -0.2910  0.1075 -0.1169
  771PF6-    F414932   2.853   4.491   1.198  0.2091 -0.1736  0.1348
  771PF6-    F514933   2.607   4.368   1.019  0.1980 -0.1329 -0.3140
  771PF6-    F614934   2.772   4.522   0.984  0.4611 -0.0612 -0.5321
  771PF6-    F714935   2.678   4.335   1.234  0.2299 -0.5335  0.5739
  772PF6-    P114936   4.346   2.892   5.411  0.0393  0.0568  0.1332
  772PF6-    F214937   4.359   3.031   5.485 -0.0738  0.2212  0.2937
  772PF6-    F314938   4.319   2.751   5.338  0.5320  0.0426  0.3867
  772PF6-    F414939   4.245   2.964   5.312 -0.3129  0.2719 -0.2095
  772PF6-    F514940   4.436   2.818   5.523 -0.0841 -0.4858  0.2609
  772PF6-    F614941   4.223   2.865   5.507 -0.1561  0.0219 -0.5262
  772PF6-    F714942   4.477   2.923   5.318 -0.0346  0.0837 -0.1252
  773PF6-    P114943   0.121   3.040   0.872 -0.2583 -0.0376 -0.0243
  773PF6-    F214944   0.062   2.981   0.735  0.1979  0.4045 -0.1431
  773PF6-    F314945   0.178   3.098   1.010  0.0196 -0.3774 -0.2290
  773PF6-    F414946   0.165   3.176   0.800 -0.2614  0.4276 -0.1120
  773PF6-    F514947   0.077   2.907   0.953  0.1172 -0.0631  0.0064
  773PF6-    F614948   0.267   2.975   0.845 -0.4943 -0.5583  0.4571
  773PF6-    F714949  -0.020   3.103   0.898 -0.1735  0.6115 -0.0459
  774PF6-    P114950   2.636   2.316   2.595 -0.0268  0.0010  0.2144
  774PF6-    F214951   2.725   2.413   2.685 -0.2150  0.2135 -0.1302
  774PF6-    F314952   2.551   2.213   2.504 -0.0032  0.0900 -0.1404
  774PF6-    F414953   2.513   2.416   2.614 -0.3861 -0.0950  0.1991
  774PF6-    F514954   2.760   2.216   2.575  0.1031 -0.3651  0.1002
  774PF6-    F614955   2.593   2.235   2.724  0.2360  0.3308 -0.1670
  774PF6-    F714956   2.687   2.402   2.470 -0.1436  0.1621  0.2456
  775PF6-    P114957   5.143   4.222   4.486  0.2523 -0.7923  0.2821
  775PF6-    F214958   5.237   4.106   4.427 -0.1628 -0.1148  0.6218
  775PF6-    F314959   5.044   4.333   4.547  0.2114 -0.2140  0.0723
  775PF6-    F414960   5.063   4.227   4.347 -0.0690 -0.0307  0.1401
  775PF6-    F514961   5.230   4.218   4.618  0.1289 -0.0295 -0.4334
  775PF6-    F614962   5.236   4.333   4.424 -0.4574 -0.0097 -0.2749
  775PF6-    F714963   5.041   4.109   4.539 -0.0953  0.2555 -0.1101
  776PF6-    P114964   5.493   4.192   0.444 -0.0864  0.0245 -0.1227
  776PF6-    F214965   5.371   4.276   0.490  0.2812  0.0768  0.2818
  776PF6-    F314966   5.616   4.110   0.388 -0.5834  0.2657 -0.8488
  776PF6-    F414967   5.423   4.053   0.485  0.1210  0.2289  0.0974
  776PF6-    F514968   5.563   4.332   0.405 -0.2135  0.0624 -0.1497
  776PF6-    F614969   5.564   4.202   0.595 -0.0722  0.2446  0.1864
  776PF6-    F714970   5.423   4.177   0.308 -0.4142  0.5285  0.0344
  777PF6-    P114971   3.905   1.485   4.065  0.1770 -0.3753 -0.0042
  777PF6-    F214972   3.829   1.625   4.044  0.1826 -0.3217 -0.5456
  777PF6-    F314973   3.980   1.340   4.077 -0.1003  0.0390  0.0564
  777PF6-    F414974   3.899   1.506   4.226  0.4677  0.0724  0.1109
  777PF6-    F514975   3.905   1.465   3.905 -0.1697  0.2234  0.1100
  777PF6-    F614976   4.042   1.567   4.053  0.4381 -0.3820  0.0266
  777PF6-    F714977   3.769   1.404   4.066  0.1832  0.1830  0.2509
  778PF6-    P114978   4.162   4.344   0.860  0.0760  0.1618  0.4725
  778PF6-    F214979   4.243   4.422   0.738  0.0277 -0.3595  0.2912
  778PF6-    F314980   4.092   4.265   0.973  0.2052  0.2357 -0.0153
  778PF6-    F414981   4.302   4.341   0.941  0.2358 -0.7530  0.1254
  778PF6-    F514982   4.025   4.344   0.779 -0.6759 -0.1087  0.1687
  778PF6-    F614983   4.198   4.210   0.790 -0.0407  0.0995  0.6042
  778PF6-    F714984   4.117   4.484   0.924  0.0853  0.2645  0.0060
  779PF6-    P114985   1.081   3.074   4.169 -0.1519 -0.2666  0.0652
  779PF6-    F214986   1.219   3.151   4.120  0.2688  0.1147 -0.0228
  779PF6-    F314987   0.951   2.988   4.214 -0.4105  0.0191 -0.1886
  779PF6-    F414988   1.114   3.109   4.325  0.2478  0.1155  0.6262
  779PF6-    F514989   1.043   3.038   4.017  0.1600  0.0508  0.2615
  779PF6-    F614990   1.166   2.938   4.181  0.4995 -0.5287 -0.2731
  779PF6-    F714991   0.997   3.215   4.161  0.0600  0.1715 -0.3469
  780PF6-    P114992   5.332   3.285   4.950 -0.3771 -0.2724  0.1475
  780PF6-    F214993   5.313   3.289   4.789  0.5041 -0.1545  0.6230
  780PF6-    F314994   5.353   3.283   5.116  0.1677  0.3535 -0.2299
  780PF6-    F414995   5.465   3.201   4.934 -0.6136  0.5557  0.6168
  780PF6-    F514996   5.199   3.368   4.965 -0.0471  0.2521 -0.3188
  780PF6-    F614997   5.249   3.150   4.961  0.1367  0.3539  0.7351
  780PF6-    F714998   5.419   3.419   4.939 -0.6280  0.4372  0.4049
  781PF6-    P114999   3.299   5.008   1.793 -0.1477  0.0661 -0.1481
  781PF6-    F215000   3.260   5.060   1.941  0.1222  0.3210  0.1846
  781PF6-    F315001   3.331   4.953   1.649 -0.3322  0.4193 -0.3791
  781PF6-    F415002   3.148   5.031   1.752 -0.0417 -0.2840 -0.0444
  781PF6-    F515003   3.448   4.971   1.843  0.0807 -1.0145 -0.1168
  781PF6-    F615004   3.265   4.862   1.843 -0.1917  0.7359 -0.0407
  781PF6-    F715005   3.344   5.155   1.751  0.4558  0.4909 -0.4083
  782PF6-    P115006   2.763   5.112   0.428  0.2023  0.0908 -0.0361
  782PF6-    F215007   2.683   4.981   0.391 -0.4473  0.4902  0.9727
  782PF6-    F315008   2.850   5.246   0.465  0.2951 -0.4093 -0.1550
  782PF6-    F415009   2.624   5.187   0.456 -0.0634 -0.6118  0.0240
  782PF6-    F515010   2.901   5.037   0.389  0.2002 -0.3604  0.3779
  782PF6-    F615011   2.755   5.156   0.279 -0.2496  0.1367 -0.4198
  782PF6-    F715012   2.772   5.066   0.580  0.0002  0.2450  0.2961
  783PF6-    P115013   2.396   1.489   0.200 -0.2004 -0.0933 -0.1251
  783PF6-    F215014   2.423   1.362   0.111 -0.7274  0.8399 -0.4447
  783PF6-    F315015   2.366   1.617   0.288  0.2061  0.0041 -0.2665
  783PF6-    F415016   2.330   1.398   0.311 -0.9020 -0.1522 -0.1046
  783PF6-    F515017   2.462   1.582   0.090  0.4726 -0.5906 -0.5336
  783PF6-    F615018   2.258   1.507   0.131  0.2994 -0.2420 -0.3210
  783PF6-    F715019   2.539   1.466   0.275 -0.0179 -0.8049  0.0014
  784PF6-    P115020   0.103   1.276   0.482 -0.1747  0.0029 -0.2551
  784PF6-    F215021   0.132   1.270   0.639 -0.5468  0.3165  0.2941
  784PF6-    F315022   0.070   1.284   0.328  0.0687 -0.4515 -0.2414
  784PF6-    F415023   0.100   1.437   0.500  0.3553 -0.1481  0.0719
  784PF6-    F515024   0.098   1.116   0.468 -0.1685  0.3744 -0.3362
  784PF6-    F615025  -0.050   1.273   0.521 -0.0838  0.0295  0.0816
  784PF6-    F715026   0.258   1.272   0.442 -0.1414 -0.5811 -0.4073
  785PF6-    P115027   4.012   2.008   2.360 -0.2055  0.3152 -0.1036
  785PF6-    F215028   4.002   2.163   2.327  0.1810  0.3851  0.0915
  785PF6-    F315029   4.013   1.852   2.394 -0.2860  0.4940  0.3938
  785PF6-    F415030   3.948   1.972   2.221 -0.2969  0.4395 -0.0236
  785PF6-    F515031   4.085   2.047   2.499 -0.1502 -0.2267  0.3036
  785PF6-    F615032   3.869   2.021   2.424  0.2519 -0.0404 -0.0200
  785PF6-    F715033   4.155   2.003   2.291  0.0205  0.0926  0.1933
  786PF6-    P115034   1.674   1.032   3.056 -0.2371 -0.4131 -0.2428
  786PF6-    F215035   1.603   0.896   3.107 -0.0226  0.2500  0.0496
  786PF6-    F315036   1.756   1.166   2.999  0.0719  0.0589  0.0641
  786PF6-    F415037   1.766   1.032   3.188  0.8392  0.1026  0.3516
  786PF6-    F515038   1.584   1.036   2.928  0.0327  0.3144  0.0083
  786PF6-    F615039   1.562   1.117   3.135 -0.2900  0.1097 -0.0802
  786PF6-    F715040   1.778   0.942   2.978  0.4234  0.0868 -0.1519
  787PF6-    P115041   1.117   3.744   2.109  0.1469 -0.2602  0.3634
  787PF6-    F215042   1.153   3.715   1.955  0.3160  0.5212  0.0235
  787PF6-    F315043   1.086   3.782   2.262  0.3511 -0.4072 -0.2545
  787PF6-    F415044   1.188   3.886   2.096 -0.1592  0.3405 -0.0306
  787PF6-    F515045   1.042   3.605   2.123  0.2819 -0.0205 -0.0222
  787PF6-    F615046   1.257   3.677   2.149 -0.4290  0.3348 -0.5446
  787PF6-    F715047   0.983   3.820   2.062 -0.0422  0.2468 -0.3918
  788PF6-    P115048   5.224   0.155   4.230 -0.1496  0.1126 -0.1301
  788PF6-    F215049   5.069   0.122   4.220  0.0740  0.4449 -0.6900
  788PF6-    F315050   5.384   0.195   4.242 -0.0464  0.0709  0.3115
  788PF6-    F415051   5.199   0.277   4.135 -0.0910 -0.1440  0.8205
  788PF6-    F515052   5.253   0.035   4.331 -0.1522 -0.0791  0.8276
  788PF6-    F615053   5.254   0.061   4.107  0.0892  0.0672  0.1625
  788PF6-    F715054   5.186   0.254   4.346 -0.3732 -0.6058  0.2640
  789PF6-    P115055   2.538   2.092   0.623  0.3992 -0.0672 -0.1214
  789PF6-    F215056   2.516   1.971   0.513 -0.7281  0.5477  0.3821
  789PF6-    F315057   2.554   2.200   0.740 -0.1451 -0.4665  0.3086
  789PF6-    F415058   2.449   2.009   0.732  0.1144 -0.3766  0.7061
  789PF6-    F515059   2.624   2.177   0.517 -0.6935 -0.6728 -0.2406
  789PF6-    F615060   2.407   2.167   0.579  0.4968 -0.0916 -0.1460
  789PF6-    F715061   2.668   2.019   0.674  0.3342 -0.1978 -0.1640
  790PF6-    P115062   2.333   5.260   1.682 -0.0939 -0.1084  0.1280
  790PF6-    F215063   2.373   5.411   1.649 -0.1167 -0.4132  0.1165
  790PF6-    F315064   2.287   5.111   1.724 -0.2269  0.2624  0.6664
  790PF6-    F415065   2.337   5.218   1.527  0.0595 -0.1313  0.2159
  790PF6-    F515066   2.331   5.300   1.841 -0.5986  0.7482 -0.1269
  790PF6-    F615067   2.180   5.306   1.669  0.0341 -0.1862 -0.5327
  790PF6-    F715068   2.486   5.217   1.701  0.3352  0.2198 -0.0159
  791PF6-    P115069   5.170   2.546   0.197 -0.4560  0.1179 -0.3728
  791PF6-    F215070   5.120   2.439   0.089  0.0355  0.1830 -0.3536
  791PF6-    F315071   5.215   2.652   0.307  0.1199 -0.0310 -0.6504
  791PF6-    F415072   5.302   2.576   0.112  0.2053 -0.2496  0.5340
  791PF6-    F515073   5.041   2.507   0.282  0.2004  0.6476 -0.2427
  791PF6-    F615074   5.247   2.436   0.283  0.7102 -0.4376 -0.5189
  791PF6-    F715075   5.095   2.664   0.118 -0.0913  0.4024 -0.1401
  792PF6-    P115076   1.421   1.302   5.133  0.3536  0.0858 -0.1488
  792PF6-    F215077   1.513   1.318   5.003 -0.0229 -0.4818  0.1372
  792PF6-    F315078   1.319   1.279   5.259  0.4512  0.0865 -0.0383
  792PF6-    F415079   1.525   1.189   5.180  0.0331  0.6105  0.0262
  792PF6-    F515080   1.326   1.414   5.079  0.2786 -0.1924  0.2994
  792PF6-    F615081   1.334   1.194   5.050 -0.1736  0.1192  0.5297
  792PF6-    F715082   1.507   1.409   5.211 -0.3718  0.0658  0.2977
  793PF6-    P115083   0.639   5.469   4.036 -0.2109 -0.0555  0.1166
  793PF6-    F215084   0.738   5.420   3.914  0.3639 -0.1899 -0.2362
  793PF6-    F315085   0.537   5.521   4.143 -0.0428  0.2338  0.9229
  793PF6-    F415086   0.591   5.595   3.945 -0.6296 -0.1973  0.3247
  793PF6-    F515087   0.688   5.343   4.126  0.0223 -0.3129  0.3419
  793PF6-    F615088   0.755   5.566   4.095  0.2965 -0.1832  0.2233
  793PF6-    F715089   0.524   5.375   3.975 -0.4760  0.4688 -0.0035
  794PF6-    P115090   1.579   2.853   2.194 -0.7886 -0.4596  0.1338
  794PF6-    F215091   1.517   2.865   2.045 -0.1852 -0.3491  0.0330
  794PF6-    F315092   1.641   2.851   2.342  0.2335  0.2389  0.9456
  794PF6-    F415093   1.694   2.959   2.160 -0.5050  0.3653  0.4157
  794PF6-    F515094   1.464   2.748   2.234 -0.4008 -0.0399 -0.6129
  794PF6-    F615095   1.681   2.736   2.148  0.4479  0.6686  0.1524
  794PF6-    F715096   1.479   2.973   2.239  0.2092  0.0845  0.1461
  795PF6-    P115097   4.455   4.955   3.590  0.0397  0.3337 -0.0048
  795PF6-    F215098   4.495   4.841   3.488 -0.0797  0.0621 -0.6743
  795PF6-    F315099   4.416   5.071   3.698  0.4246 -0.2346 -0.4028
  795PF6-    F415100   4.371   4.852   3.670  0.2253  0.3500  0.2648
  795PF6-    F515101   4.548   5.064   3.511 -0.1076  0.2074  0.0435
  795PF6-    F615102   4.329   4.993   3.498  0.4078 -0.4694 -0.0039
  795PF6-    F715103   4.589   4.911   3.675 -0.0472 -0.5054  0.1726
  796PF6-    P115104   4.320   0.822   5.459  0.0945  0.2083 -0.4255
  796PF6-    F215105   4.314   0.790   5.303 -0.4157 -0.2944 -0.3069
  796PF6-    F315106   4.322   0.853   5.615  0.0543 -0.0710 -0.3321
  796PF6-    F415107   4.176   0.748   5.471 -0.1924  0.4105  0.4099
  796PF6-    F515108   4.462   0.891   5.449  0.0907  0.2863  0.0935
  796PF6-    F615109   4.247   0.960   5.427  0.1602 -0.8537  0.0152
  796PF6-    F715110   4.390   0.681   5.490 -0.0693 -0.6163  0.2926
  797PF6-    P115111   3.300   3.191   1.639 -0.0204 -0.2252  0.3297
  797PF6-    F215112   3.326   3.121   1.787  0.1567  0.0346  0.2198
  797PF6-    F315113   3.285   3.260   1.493  0.3337 -0.0371  0.4951
  797PF6-    F415114   3.392   3.084   1.570 -0.0078  0.0042 -0.1483
  797PF6-    F515115   3.203   3.297   1.714  0.4550 -0.4390 -0.7412
  797PF6-    F615116   3.430   3.286   1.673 -0.3176 -0.0629 -0.3436
  797PF6-    F715117   3.168   3.099   1.603 -0.4670  0.7493  0.5599
  798PF6-    P115118   3.139   0.773   3.776 -0.2367  0.8609  0.5774
  798PF6-    F215119   3.111   0.792   3.618 -0.6075  0.5559 -0.1095
  798PF6-    F315120   3.174   0.757   3.930  0.5573 -0.4051 -0.5713
  798PF6-    F415121   3.293   0.738   3.748 -0.4310  0.2437 -0.4025
  798PF6-    F515122   2.991   0.810   3.805  0.3274  0.1418  0.3432
  798PF6-    F615123   3.097   0.618   3.764 -0.2670  0.0156 -0.6189
  798PF6-    F715124   3.170   0.926   3.782 -0.5726  0.0872  0.2766
  799PF6-    P115125   2.422   2.921   0.134 -0.3220  0.0403  0.0965
  799PF6-    F215126   2.263   2.919   0.148 -0.1285  0.3758 -0.3326
  799PF6-    F315127   2.585   2.919   0.121  0.1281 -0.2978  0.3538
  799PF6-    F415128   2.409   3.072   0.092 -0.2327 -0.3383  0.0878
  799PF6-    F515129   2.428   2.765   0.180  0.2874 -0.1481  0.0693
  799PF6-    F615130   2.407   2.880  -0.020  0.0860  0.4047 -0.5100
  799PF6-    F715131   2.438   2.971   0.290 -0.0395 -1.3124  0.1001
  800PF6-    P115132   4.530   2.663   4.681 -0.2127 -0.1762 -0.5173
  800PF6-    F215133   4.578   2.819   4.696 -0.1521  0.4837  0.0837
  800PF6-    F315134   4.487   2.515   4.669 -0.6176 -0.0914 -0.1970
  800PF6-    F415135   4.482   2.658   4.834  0.0830  0.4110  0.9982
  800PF6-    F515136   4.580   2.666   4.532  0.0906  0.0384  0.1546
  800PF6-    F615137   4.675   2.618   4.723  0.1932 -0.6648 -0.1753
  800PF6-    F715138   4.382   2.710   4.635 -0.2198 -0.4814  0.0597
  801PF6-    P115139   2.006   4.131   3.482  0.3110  0.1864 -0.1457
  801PF6-    F215140   2.065   3.985   3.526 -0.0089 -0.0299 -0.1071
  801PF6-    F315141   1.950   4.276   3.440  0.2681 -0.0674  0.2994
  801PF6-    F415142   1.981   4.169   3.635  0.2163 -0.2827  0.0607
  801PF6-    F515143   2.026   4.089   3.328  0.5717 -0.2706 -0.0144
  801PF6-    F615144   1.860   4.075   3.477 -0.3303  0.3078 -0.5095
  801PF6-    F715145   2.153   4.194   3.490 -0.0948  0.2527 -0.0508
  802PF6-    P115146   1.027   4.308   2.871 -0.5986 -0.4620 -0.1800
  802PF6-    F215147   1.002   4.303   2.717  0.2337 -0.2773 -0.4242
  802PF6-    F315148   1.057   4.311   3.027 -0.7435  0.2438 -0.2796
  802PF6-    F415149   0.878   4.347   2.899  0.7604 -0.0524  0.2594
  802PF6-    F515150   1.175   4.264   2.848 -0.2532  0.5939 -0.6083
  802PF6-    F615151   1.062   4.464   2.863  0.0895  0.4907 -0.3392
  802PF6-    F715152   0.990   4.153   2.885 -0.0941 -0.4120  0.1590
  803PF6-    P115153   1.597   0.448   0.056  0.6173 -0.2355  0.0052
  803PF6-    F215154   1.576   0.293   0.075  0.3227  0.4394 -0.2227
  803PF6-    F315155   1.611   0.604   0.023 -0.1665 -0.0242  0.8252
  803PF6-    F415156   1.737   0.444   0.126 -0.0641 -0.3311 -0.7380
  803PF6-    F515157   1.449   0.440  -0.017  0.1428  0.1693 -0.1488
  803PF6-    F615158   1.522   0.480   0.195  0.1208  0.5933 -0.2404
  803PF6-    F715159   1.663   0.416  -0.089  0.2863  0.2777 -1.0349
  804PF6-    P115160   3.396   1.347   4.903  0.3717  0.3725  0.4919
  804PF6-    F215161   3.519   1.364   5.008 -0.0485 -0.6053  0.1616
  804PF6-    F315162   3.278   1.323   4.792 -0.5906 -0.2224  0.0851
  804PF6-    F415163   3.456   1.207   4.847  0.4651 -0.7111  0.0938
  804PF6-    F515164   3.332   1.481   4.949 -0.0959  0.0333  0.2332
  804PF6-    F615165   3.485   1.422   4.791  0.5950 -0.2767 -0.1711
  804PF6-    F715166   3.309   1.270   5.008  0.0356 -0.3243 -0.2288
  805PF6-    P115167   3.208   3.090   0.052  0.0174  0.3090  0.5544
  805PF6-    F215168   3.080   3.122  -0.035 -0.7052 -0.0469  0.1744
  805PF6-    F315169   3.334   3.054   0.137 -0.5511 -0.2404 -0.3420
  805PF6-    F415170   3.189   3.234   0.130  0.4782  0.1777  0.1518
  805PF6-    F515171   3.234   2.954  -0.032  0.0720  0.0432 -0.2911
  805PF6-    F615172   3.298   3.171  -0.053 -0.5866  0.9453 -0.4627
  805PF6-    F715173   3.122   3.010   0.159  0.0984  0.0468  0.1034
  806PF6-    P115174   3.251   0.227   4.969 -0.2147 -0.4901 -0.0429
  806PF6-    F215175   3.400   0.210   5.029  0.2901  0.3224  0.1116
  806PF6-    F315176   3.103   0.234   4.902 -0.1597 -0.6458  0.5386
  806PF6-    F415177   3.299   0.169   4.831  0.0986  0.0123  0.0014
  806PF6-    F515178   3.201   0.291   5.104  0.3931  0.6738 -0.2377
  806PF6-    F615179   3.290   0.370   4.910 -0.2208 -0.1652 -0.5692
  806PF6-    F715180   3.221   0.075   5.027  0.0963 -0.6994  0.2231
  807PF6-    P115181   0.848   5.448   5.435  0.4897 -0.1661  0.3743
  807PF6-    F215182   0.815   5.425   5.282  0.6828  0.2421  0.0610
  807PF6-    F315183   0.875   5.469   5.591  0.0851 -0.0279 -0.6821
  807PF6-    F415184   0.714   5.375   5.477  0.2811  0.1803 -0.7258
  807PF6-    F515185   0.987   5.519   5.395 -0.2150  0.0133  0.2426
  807PF6-    F615186   0.764   5.585   5.432  0.1190 -0.6922  0.2641
  807PF6-    F715187   0.918   5.308   5.439 -0.3836  0.0071 -0.5071
  808PF6-    P115188   2.710   2.323   4.910  0.3761 -0.0100 -0.3977
  808PF6-    F215189   2.831   2.222   4.933 -0.4908  0.0688  0.4423
  808PF6-    F315190   2.585   2.429   4.889  0.0023  0.1900 -0.4127
  808PF6-    F415191   2.707   2.359   5.068  0.0403 -0.2451  0.4189
  808PF6-    F515192   2.710   2.278   4.753 -0.3497 -0.2050 -0.2208
  808PF6-    F615193   2.609   2.202   4.941 -0.3903 -0.5113  0.2945
  808PF6-    F715194   2.809   2.437   4.878 -0.0168  0.5710  0.0885
  809PF6-    P115195   3.929   1.862   3.357 -0.0171 -0.0592  0.1290
  809PF6-    F215196   3.810   1.812   3.263 -0.8135  0.1485 -0.1795
  809PF6-    F315197   4.048   1.914   3.444 -0.1623 -0.2881 -0.2479
  809PF6-    F415198   4.018   1.890   3.224 -0.1320 -0.1315 -0.2429
  809PF6-    F515199   3.849   1.837   3.491  0.0056 -0.3737  0.1005
  809PF6-    F615200   3.989   1.715   3.361 -0.0873  0.3110 -0.1947
  809PF6-    F715201   3.871   2.004   3.347 -0.5195  0.2586  0.1516
  810PF6-    P115202   1.791   2.692   3.606  0.0876 -0.0983  0.0367
  810PF6-    F215203   1.872   2.830   3.603  0.5522  0.1104  0.1090
  810PF6-    F315204   1.712   2.552   3.594 -0.2939 -0.0525 -0.1564
  810PF6-    F415205   1.916   2.624   3.526  0.2132 -0.3481 -0.3991
  810PF6-    F515206   1.666   2.761   3.676  0.7495  0.2926  0.7536
  810PF6-    F615207   1.729   2.732   3.465  0.7673 -0.0417  0.3669
  810PF6-    F715208   1.857   2.655   3.751  0.4059  0.7606  0.3705
  811PF6-    P115209   3.730   4.224   1.222 -0.3521 -0.4292  0.9044
  811PF6-    F215210   3.841   4.278   1.322 -0.3035 -0.1587  0.4051
  811PF6-    F315211   3.610   4.171   1.130  0.6536 -0.6103 -0.1730
  811PF6-    F415212   3.829   4.113   1.156  0.0624 -0.1697 -0.1014
  811PF6-    F515213   3.624   4.333   1.292  0.1619 -0.0262  0.4397
  811PF6-    F615214   3.772   4.327   1.107  0.3742  0.6684 -0.5714
  811PF6-    F715215   3.693   4.108   1.330 -0.4906  0.2236  0.6000
  812PF6-    P115216   1.068   3.906   5.417  0.0151  0.2258 -0.1329
  812PF6-    F215217   1.133   3.841   5.548 -0.3308 -0.1555  0.5102
  812PF6-    F315218   1.000   3.981   5.290  0.2506  0.5877  0.2972
  812PF6-    F415219   1.186   3.856   5.324  0.5073  0.5536  0.1254
  812PF6-    F515220   0.940   3.959   5.501  0.0336  0.2045  0.3468
  812PF6-    F615221   1.150   4.041   5.450  0.6111 -0.1664  0.3108
  812PF6-    F715222   0.987   3.774   5.382 -0.1838 -0.1318  0.8423
  813PF6-    P115223   2.711   0.904   4.720  0.4693 -0.4655  0.0360
  813PF6-    F215224   2.603   0.907   4.599 -0.1292  0.2098 -0.3712
  813PF6-    F315225   2.816   0.900   4.840  0.1068  0.5464 -0.1963
  813PF6-    F415226   2.742   1.057   4.697  0.4370 -0.0751  0.4354
  813PF6-    F515227   2.672   0.745   4.752 -0.1883  0.1287  0.0472
  813PF6-    F615228   2.827   0.856   4.617 -0.2580  0.4179  0.0403
  813PF6-    F715229   2.593   0.946   4.821  0.1468  0.4373  0.3980
  814PF6-    P115230   0.773   4.486   4.857  0.2006  0.2273  0.3891
  814PF6-    F215231   0.925   4.457   4.900  0.5758  0.0317 -0.0696
  814PF6-    F315232   0.627   4.514   4.803 -0.7276  0.1740 -0.0024
  814PF6-    F415233   0.718   4.475   5.011 -0.3676  0.0723 -0.4205
  814PF6-    F515234   0.826   4.494   4.709  0.6569 -0.3646  0.3537
  814PF6-    F615235   0.749   4.326   4.841 -0.3493 -0.0051 -0.4280
  814PF6-    F715236   0.793   4.644   4.879 -0.2963 -0.5229  0.1318
  815PF6-    P115237   1.288   0.332   0.972 -0.1922 -0.4804  0.1151
  815PF6-    F215238   1.262   0.202   1.066 -0.6773 -0.2633  0.1542
  815PF6-    F315239   1.318   0.455   0.870 -0.2330  0.2768 -0.2923
  815PF6-    F415240   1.401   0.247   0.889  0.1705 -0.7137 -0.7541
  815PF6-    F515241   1.176   0.419   1.050  0.5738  0.1093 -0.1056
  815PF6-    F615242   1.403   0.382   1.069  0.1785  0.0572  0.2883
  815PF6-    F715243   1.173   0.282   0.872 -0.4753 -0.0379 -0.2027
  816PF6-    P115244   4.398   5.150   0.915 -0.0425  0.3545  0.0693
  816PF6-    F215245   4.547   5.196   0.959 -0.1802 -0.1145 -0.2224
  816PF6-    F315246   4.249   5.103   0.866  0.1174  0.2357 -0.2506
  816PF6-    F415247   4.354   5.304   0.895  0.0691  0.1415 -0.3529
  816PF6-    F515248   4.442   4.991   0.942  0.4633 -0.0526 -0.2205
  816PF6-    F615249   4.360   5.159   1.071  0.6847 -0.2957  0.2782
  816PF6-    F715250   4.450   5.133   0.762  0.2822 -0.2525 -0.1009
  817PF6-    P115251   0.130   4.836   3.119 -0.2498 -0.1335  0.3045
  817PF6-    F215252   0.226   4.917   3.223 -0.0024  0.0232  0.1189
  817PF6-    F315253   0.037   4.748   3.020  0.0975  0.1072 -0.6454
  817PF6-    F415254   0.057   4.969   3.071 -0.2971 -0.1222  0.2735
  817PF6-    F515255   0.193   4.700   3.175 -0.5866 -0.2860  0.0061
  817PF6-    F615256   0.023   4.825   3.237 -0.4245  0.1606 -0.1123
  817PF6-    F715257   0.234   4.848   2.999 -0.5147 -0.3029  0.1799
  818PF6-    P115258   5.187   1.013   5.323  0.1963 -0.3820 -0.5580
  818PF6-    F215259   5.331   0.994   5.394  0.1362 -0.1963  0.4121
  818PF6-    F315260   5.042   1.036   5.250 -0.3796  0.0346  0.1061
  818PF6-    F415261   5.163   1.143   5.411  0.2099  0.1571 -0.1691
  818PF6-    F515262   5.217   0.885   5.231  0.3473  0.1302 -0.1521
  818PF6-    F615263   5.124   0.925   5.441  0.0002  0.7454  0.2198
  818PF6-    F715264   5.256   1.102   5.214  0.1999  0.7526  0.1776
  819PF6-    P115265   2.155   4.477   0.707 -0.1834  0.2706  0.1744
  819PF6-    F215266   2.042   4.582   0.686  0.2684 -0.0891 -0.3215
  819PF6-    F315267   2.267   4.359   0.723 -0.0175 -0.1023  0.0266
  819PF6-    F415268   2.138   4.429   0.553  0.0061 -0.3001  0.2647
  819PF6-    F515269   2.180   4.529   0.858  0.0841 -0.1478 -0.2119
  819PF6-    F615270   2.046   4.368   0.761 -0.0480 -0.1065  0.1206
  819PF6-    F715271   2.268   4.575   0.658  0.3471 -0.1947  0.6191
  820PF6-    P115272   3.914   4.383   5.463 -0.0651 -0.0373  0.2746
  820PF6-    F215273   3.933   4.498   5.572 -0.1844 -0.1157  0.0601
  820PF6-    F315274   3.889   4.263   5.362 -0.1880 -0.4736 -0.3274
  820PF6-    F415275   4.058   4.324   5.499 -0.0189 -0.2040 -0.0412
  820PF6-    F515276   3.770   4.443   5.434 -0.2484  0.1194  0.4963
  820PF6-    F615277   3.983   4.474   5.349  0.0845 -0.0694  0.2245
  820PF6-    F715278   3.846   4.287   5.574 -0.2605 -0.1046 -0.3369
  821PF6-    P115279   4.025   1.561   1.549  0.1992  0.1359 -0.1240
  821PF6-    F215280   3.883   1.508   1.602  0.1294  1.0057  0.1973
  821PF6-    F315281   4.162   1.616   1.500 -0.6796  0.0873  0.4277
  821PF6-    F415282   3.956   1.709   1.537  0.4523 -0.7481  0.7367
  821PF6-    F515283   4.083   1.412   1.558 -0.1740 -0.2795 -0.0281
  821PF6-    F615284   3.983   1.526   1.401  0.2083  0.3411  0.3928
  821PF6-    F715285   4.065   1.586   1.700 -0.0673 -0.3114 -0.6588
  822PF6-    P115286   0.451   1.832   1.476 -0.0069  0.0356 -0.0422
  822PF6-    F215287   0.611   1.841   1.462  0.6704 -0.1182  0.1988
  822PF6-    F315288   0.287   1.835   1.489 -0.4988 -0.5987  0.1025
  822PF6-    F415289   0.444   1.976   1.406 -0.1208  0.1113  0.2468
  822PF6-    F515290   0.467   1.688   1.542  0.1028 -0.1853  0.2332
  822PF6-    F615291   0.462   1.896   1.624 -0.0791  0.0733  0.0302
  822PF6-    F715292   0.437   1.757   1.335 -0.2894 -0.4840  0.1548
  823PF6-    P115293   0.525   2.355   2.006 -0.1561  0.0039  0.1098
  823PF6-    F215294   0.509   2.421   1.863  0.2445 -0.0884 -0.1563
  823PF6-    F315295   0.532   2.294   2.156 -0.3986 -0.5127  0.4520
  823PF6-    F415296   0.364   2.326   2.009 -0.1625 -0.1642 -0.1621
  823PF6-    F515297   0.683   2.376   1.998 -0.3317  0.2946 -0.2646
  823PF6-    F615298   0.495   2.500   2.073  0.9540  0.0396  0.8108
  823PF6-    F715299   0.556   2.212   1.944  0.4774  0.1164 -0.4992
  824PF6-    P115300   3.612   1.038   0.407  0.4509  0.3240  0.0878
  824PF6-    F215301   3.564   1.080   0.263  0.4361 -0.1963  0.1605
  824PF6-    F315302   3.658   1.000   0.553 -0.0432 -0.3014 -0.1446
  824PF6-    F415303   3.724   0.943   0.347 -0.3638 -0.3132  0.1488
  824PF6-    F515304   3.499   1.129   0.472  0.4067 -0.6329  0.4860
  824PF6-    F615305   3.517   0.910   0.412  0.0353  0.0375  0.3835
  824PF6-    F715306   3.714   1.158   0.408  0.3343  0.1042 -0.2088
  825PF6-    P115307   1.992   3.048   2.792 -0.3566  0.1044 -0.5454
  825PF6-    F215308   1.898   3.010   2.667 -0.2724  0.4704 -0.2452
  825PF6-    F315309   2.092   3.079   2.917 -0.7581  0.1925  0.5379
  825PF6-    F415310   1.923   3.184   2.808 -0.0975 -0.2359  0.2335
  825PF6-    F515311   2.057   2.907   2.770  0.1312 -0.2738  0.2464
  825PF6-    F615312   2.100   3.114   2.696 -0.0352  0.1967 -0.4494
  825PF6-    F715313   1.887   2.982   2.895 -0.6531 -0.0307  0.3149
  826PF6-    P115314   2.406   1.345   3.453 -0.2000  0.1749  0.1174
  826PF6-    F215315   2.251   1.293   3.443  0.1277 -0.1639 -0.0297
  826PF6-    F315316   2.560   1.385   3.467 -0.3610 -0.1808  0.1237
  826PF6-    F415317   2.410   1.274   3.601  0.0843  0.0259  0.7004
  826PF6-    F515318   2.402   1.405   3.303  0.5414 -0.4905 -0.2237
  826PF6-    F615319   2.363   1.484   3.518 -0.3134  0.1161  0.0965
  826PF6-    F715320   2.448   1.207   3.387  0.3883  0.4576 -0.1060
  827PF6-    P115321   4.782   0.430   1.637 -0.0882  0.2497 -0.4304
  827PF6-    F215322   4.931   0.371   1.618  0.2608  0.3537  0.4283
  827PF6-    F315323   4.637   0.495   1.663  0.0933  0.6489  0.2906
  827PF6-    F415324   4.728   0.290   1.673  0.2068  0.8605 -0.0420
  827PF6-    F515325   4.833   0.575   1.600  0.2800  0.5641 -0.5168
  827PF6-    F615326   4.749   0.407   1.480 -0.4137  0.2731 -0.0088
  827PF6-    F715327   4.818   0.465   1.787  0.1822  0.2429 -0.0377
  828PF6-    P115328   0.054   2.649   3.354 -0.1492 -0.1031 -0.3532
  828PF6-    F215329  -0.033   2.519   3.398 -0.1353  0.2890  0.4794
  828PF6-    F315330   0.141   2.773   3.305  0.1700 -0.2238  0.0462
  828PF6-    F415331   0.068   2.709   3.505  0.1837  0.5332 -0.7972
  828PF6-    F515332   0.047   2.603   3.200 -0.1731  0.0079 -0.0644
  828PF6-    F615333  -0.081   2.741   3.335  0.0719  0.2357 -0.2558
  828PF6-    F715334   0.191   2.571   3.373 -0.4139 -0.6819  0.1553
  829PF6-    P115335   0.380   0.023   0.535 -0.1610  0.1137  0.2432
  829PF6-    F215336   0.358  -0.126   0.490 -0.0059 -0.0260 -0.0345
  829PF6-    F315337   0.403   0.177   0.568 -0.2484  0.0749  0.2877
  829PF6-    F415338   0.407  -0.015   0.688 -0.0625  0.0390  1.1220
  829PF6-    F515339   0.356   0.066   0.385 -0.2803  0.7102  0.2246
  829PF6-    F615340   0.224   0.032   0.570 -0.1859 -0.1534  0.8920
  829PF6-    F715341   0.535   0.013   0.502  0.5634  0.0014  0.0127
  830PF6-    P115342   1.169   1.775   4.056  0.2445 -0.3663  0.1316
  830PF6-    F215343   1.136   1.621   4.076 -0.3087  0.0039  0.0961
  830PF6-    F315344   1.196   1.931   4.044  0.3555  0.1307  0.0975
  830PF6-    F415345   1.299   1.741   3.973 -0.3786 -0.7859 -0.0315
  830PF6-    F515346   1.039   1.803   4.143 -0.3603  0.1319  0.1933
  830PF6-    F615347   1.254   1.764   4.187 -0.0627  0.3236  0.4283
  830PF6-    F715348   1.079   1.787   3.925  0.8003 -0.2995 -0.6033
  831PF6-    P115349   4.400   3.459   1.619 -0.1248  0.4405 -0.0882
  831PF6-    F215350   4.412   3.572   1.498  0.2032  0.4708 -0.0095
  831PF6-    F315351   4.397   3.351   1.738  0.6485 -0.1290  0.6459
  831PF6-    F415352   4.241   3.444   1.603 -0.0970 -0.8623  0.0587
  831PF6-    F515353   4.559   3.463   1.637 -0.2983  0.2089  0.1496
  831PF6-    F615354   4.370   3.579   1.722  0.1076  0.0641 -0.2690
  831PF6-    F715355   4.414   3.345   1.509 -0.1703  0.3202 -0.2944
  832PF6-    P115356   4.936   5.364   2.879  0.3913 -0.0632  0.3479
  832PF6-    F215357   4.985   5.218   2.825  0.1712 -0.2742 -0.4486
  832PF6-    F315358   4.894   5.513   2.933 -0.5401  0.0523 -0.0111
  832PF6-    F415359   4.988   5.426   2.743  0.3728 -0.5457  0.0928
  832PF6-    F515360   4.884   5.291   3.016 -0.4580  0.0101  0.0405
  832PF6-    F615361   5.078   5.386   2.945 -0.0718  0.0959 -0.2812
  832PF6-    F715362   4.789   5.342   2.815 -0.4864 -0.1464  0.9037
  833PF6-    P115363   4.832   4.926   1.825  0.3574  0.2488 -0.3276
  833PF6-    F215364   4.980   4.878   1.791  0.4495 -0.5108 -0.4846
  833PF6-    F315365   4.683   4.970   1.860 -0.3095 -0.0695  0.1056
  833PF6-    F415366   4.791   4.775   1.854  0.0552 -0.2912  0.6052
  833PF6-    F515367   4.870   5.079   1.798  0.1930 -0.4688 -0.8430
  833PF6-    F615368   4.790   4.908   1.674  0.3636  0.0898 -0.5511
  833PF6-    F715369   4.880   4.940   1.979  0.6895  0.5146  0.4111
  834PF6-    P115370   2.594   3.691   1.961  0.1908  0.2558 -0.1740
  834PF6-    F215371   2.728   3.741   1.890 -0.4572 -0.0824 -0.6860
  834PF6-    F315372   2.466   3.631   2.039 -0.4746 -0.4541 -0.1017
  834PF6-    F415373   2.505   3.814   1.901 -0.2972 -0.1292 -0.0803
  834PF6-    F515374   2.682   3.570   2.023  0.1875 -0.2365 -0.0322
  834PF6-    F615375   2.626   3.779   2.088 -0.2537  0.0555 -0.1425
  834PF6-    F715376   2.556   3.603   1.837  0.0001 -0.4611  0.2278
  835PF6-    P115377   1.624   1.667   0.608  0.1700  0.2661  0.0798
  835PF6-    F215378   1.718   1.555   0.554 -0.1631  0.0803 -0.2309
  835PF6-    F315379   1.530   1.785   0.656  0.2841  0.4298  0.0118
  835PF6-    F415380   1.653   1.737   0.471 -0.2626  0.1070  0.2915
  835PF6-    F515381   1.595   1.591   0.742 -0.3049  0.3979  0.3729
  835PF6-    F615382   1.742   1.744   0.669 -0.0266  0.4837 -0.0240
  835PF6-    F715383   1.501   1.600   0.537 -0.4115 -0.2380  0.1372
  836PF6-    P115384   3.882   4.402   2.237  0.6801 -0.0613 -0.2157
  836PF6-    F215385   3.939   4.249   2.237  0.3285  0.0430  0.4913
  836PF6-    F315386   3.828   4.557   2.240 -0.0430  0.2818 -0.2619
  836PF6-    F415387   3.856   4.398   2.076  0.1393  0.7902 -0.4256
  836PF6-    F515388   3.918   4.409   2.397  0.0373 -0.3545  0.1290
  836PF6-    F615389   4.031   4.455   2.203  0.4695  0.2449 -0.1177
  836PF6-    F715390   3.728   4.353   2.262 -0.2082  0.0668 -0.0323
  837PF6-    P115391   1.126   2.588   2.973 -0.3768  0.2135  0.1638
  837PF6-    F215392   1.003   2.506   2.909 -0.4150  0.0557  0.1520
  837PF6-    F315393   1.248   2.673   3.037 -0.3093 -0.5130 -0.1105
  837PF6-    F415394   1.025   2.665   3.080  0.6128  0.0517  0.1337
  837PF6-    F515395   1.225   2.517   2.870 -0.2088  0.4012  0.4850
  837PF6-    F615396   1.111   2.706   2.866  0.9187  0.1196 -0.3341
  837PF6-    F715397   1.155   2.472   3.085  0.0276 -0.5398  0.0610
  838PF6-    P115398   1.525   0.431   4.085 -0.5331  0.0263 -0.3368
  838PF6-    F215399   1.654   0.348   4.032  0.2130 -0.4377  0.3113
  838PF6-    F315400   1.396   0.504   4.134  0.0026 -0.6555  0.3695
  838PF6-    F415401   1.454   0.386   3.952 -0.5295 -0.3207 -0.5530
  838PF6-    F515402   1.595   0.472   4.225  0.0918 -0.1122  0.3374
  838PF6-    F615403   1.577   0.565   4.007  0.1719  0.5029 -0.1442
  838PF6-    F715404   1.469   0.299   4.152  0.4388  0.1505  0.0880
  839PF6-    P115405   2.305   2.113   1.644 -0.3398  0.2420  0.0558
  839PF6-    F215406   2.269   2.127   1.488 -0.5415  0.7520  0.3130
  839PF6-    F315407   2.342   2.107   1.801  0.2907  0.3196 -0.1771
  839PF6-    F415408   2.334   2.264   1.650  0.2951  0.2423 -0.5795
  839PF6-    F515409   2.282   1.955   1.631  0.3423  0.2357 -0.4994
  839PF6-    F615410   2.461   2.094   1.613 -0.4746 -0.7446 -0.3371
  839PF6-    F715411   2.150   2.143   1.675 -0.6559 -0.4297 -0.2010
  840PF6-    P115412   5.074   0.049   0.405 -0.5998 -0.0214  0.0473
  840PF6-    F215413   5.079  -0.067   0.296 -0.1742  0.7435 -0.2547
  840PF6-    F315414   5.067   0.172   0.516  0.1335  0.3070 -0.0128
  840PF6-    F415415   5.003  -0.057   0.508 -0.0707  0.2448  1.1614
  840PF6-    F515416   5.152   0.142   0.308  0.0011  0.0773  0.1772
  840PF6-    F615417   4.932   0.090   0.346 -0.0552  0.4890 -0.1180
  840PF6-    F715418   5.216   0.008   0.465 -0.4828 -0.7816 -0.0010
  841PF6-    P115419   4.256   0.558   2.925 -0.2803  0.4996  0.0313
  841PF6-    F215420   4.320   0.424   3.005  0.2090 -0.1676 -0.0812
  841PF6-    F315421   4.186   0.681   2.851  0.8640 -0.2481 -0.4393
  841PF6-    F415422   4.202   0.613   3.071 -0.2180  0.5717 -0.3386
  841PF6-    F515423   4.310   0.500   2.785 -0.0867  0.0222 -0.0638
  841PF6-    F615424   4.115   0.471   2.907  0.4201 -0.2559  0.0684
  841PF6-    F715425   4.389   0.642   2.952 -0.0071  0.3335  0.9508
  842PF6-    P115426   2.218   5.185   5.013 -0.1571  0.2891 -0.6574
  842PF6-    F215427   2.239   5.160   4.854  0.3936 -0.0020 -0.2504
  842PF6-    F315428   2.177   5.211   5.168 -0.4112  0.0074 -0.0986
  842PF6-    F415429   2.237   5.345   4.984 -0.1498 -0.0390 -0.2448
  842PF6-    F515430   2.205   5.026   5.035 -0.4141  0.0323  0.4158
  842PF6-    F615431   2.380   5.169   5.046 -0.0293  0.1550 -0.1426
  842PF6-    F715432   2.057   5.195   4.980  0.1438 -0.0867  0.0846
  843PF6-    P115433   2.927   3.963   0.277  0.1213  0.0893  0.0859
  843PF6-    F215434   2.800   4.058   0.260  0.1753  0.6756  0.1307
  843PF6-    F315435   3.055   3.877   0.307 -0.0752  0.0682  0.3011
  843PF6-    F415436   2.993   4.025   0.144 -0.0655  0.1185 -0.1008
  843PF6-    F515437   2.864   3.924   0.418 -0.3357  0.2253 -0.2258
  843PF6-    F615438   2.862   3.842   0.199  0.4518  0.6034 -0.5806
  843PF6-    F715439   2.995   4.084   0.361 -0.2435  0.6516 -0.1928
  844PF6-    P115440   2.047   4.095   4.572 -0.0846 -0.0629  0.1162
  844PF6-    F215441   2.000   3.940   4.579 -0.0990 -0.0409  0.2961
  844PF6-    F315442   2.096   4.247   4.565 -0.1957  0.3342  0.2431
  844PF6-    F415443   2.143   4.073   4.701  0.0821 -0.3263  0.4263
  844PF6-    F515444   1.950   4.120   4.449 -0.0606  0.5833 -0.0599
  844PF6-    F615445   1.925   4.141   4.665 -0.2304 -0.0851  0.3374
  844PF6-    F715446   2.167   4.057   4.472 -0.0252 -0.2386  0.1155
  845PF6-    P115447   1.862   0.269   3.259  0.3931 -0.4908  0.2137
  845PF6-    F215448   1.895   0.263   3.101  0.6761  0.2279  0.2288
  845PF6-    F315449   1.831   0.259   3.417 -0.1401 -0.2345 -0.1982
  845PF6-    F415450   1.776   0.401   3.238 -0.5806  0.0641  0.2707
  845PF6-    F515451   1.942   0.132   3.281  0.2091 -0.3898  1.0014
  845PF6-    F615452   1.996   0.353   3.286  0.3464 -0.0369 -0.1800
  845PF6-    F715453   1.727   0.187   3.227 -0.0815  0.0336 -0.3299
  846PF6-    P115454   4.024   0.734   4.448 -0.0627 -0.2246  0.2396
  846PF6-    F215455   3.948   0.641   4.554  0.6565 -0.4612 -0.0804
  846PF6-    F315456   4.096   0.819   4.333 -0.2227  0.0062 -0.1316
  846PF6-    F415457   4.125   0.801   4.551  0.1446  0.1792  0.0126
  846PF6-    F515458   3.926   0.673   4.337 -0.0335 -0.4114 -0.5291
  846PF6-    F615459   3.918   0.856   4.468 -0.5236 -0.0150 -0.2146
  846PF6-    F715460   4.128   0.614   4.425  0.5034  0.3798  0.6230
  847PF6-    P115461   4.601   3.915   2.289 -0.3987  0.2004 -0.0823
  847PF6-    F215462   4.556   3.771   2.231  0.0045 -0.1316  0.4898
  847PF6-    F315463   4.650   4.059   2.344  0.0904  0.1923 -0.4905
  847PF6-    F415464   4.453   3.969   2.271  0.2834  0.4100 -0.0997
  847PF6-    F515465   4.753   3.865   2.300 -0.1581  0.0766  0.2152
  847PF6-    F615466   4.640   3.968   2.140 -0.2449  0.1945  0.3472
  847PF6-    F715467   4.564   3.858   2.440 -0.0644  0.4168 -0.0020
  848PF6-    P115468   5.480   4.969   1.071  0.3131  0.2815  0.3120
  848PF6-    F215469   5.331   4.931   1.028 -0.3547 -0.6470 -0.2554
  848PF6-    F315470   5.632   5.009   1.115  0.1524 -0.1331  0.1500
  848PF6-    F415471   5.506   5.011   0.915 -0.1128  0.3645 -0.1649
  848PF6-    F515472   5.444   4.927   1.223  0.1399  0.3579 -0.0245
  848PF6-    F615473   5.534   4.822   1.030 -0.4298  0.1792  1.0083
  848PF6-    F715474   5.435   5.116   1.112 -1.0747 -0.3093  0.5789
  849PF6-    P115475   0.850   4.327   0.744  0.3767  0.4917 -0.1837
  849PF6-    F215476   0.802   4.301   0.890 -0.0190 -0.3940  0.3611
  849PF6-    F315477   0.889   4.359   0.587 -0.0791  0.8955  0.0214
  849PF6-    F415478   0.948   4.442   0.795  0.1853  0.2990 -0.1373
  849PF6-    F515479   0.751   4.209   0.704  0.8526 -0.1325  0.1215
  849PF6-    F615480   0.729   4.430   0.726  0.1343 -0.4065 -0.7806
  849PF6-    F715481   0.974   4.220   0.759 -0.2283 -0.3692  0.2326
  850PF6-    P115482   3.709   4.010   3.712 -0.0057 -0.3600 -0.3326
  850PF6-    F215483   3.851   4.064   3.656  0.5887 -0.2028 -0.3954
  850PF6-    F315484   3.569   3.953   3.763 -0.3801 -0.1138  0.2953
  850PF6-    F415485   3.762   3.860   3.694  0.3382  0.3142  0.5201
  850PF6-    F515486   3.661   4.160   3.725  0.0083 -0.4084  0.0952
  850PF6-    F615487   3.657   4.019   3.565 -0.2512  0.4599 -0.2292
  850PF6-    F715488   3.772   4.018   3.858  0.2957 -0.5165  0.1955
  851PF6-    P115489   1.116   4.447   4.016  0.0343  0.0223 -0.0363
  851PF6-    F215490   1.074   4.593   3.968  0.3235 -0.6123  0.1094
  851PF6-    F315491   1.158   4.303   4.068 -0.0850 -0.5242  0.2817
  851PF6-    F415492   1.173   4.509   4.152 -0.1545  0.0680  0.3297
  851PF6-    F515493   1.047   4.380   3.889 -0.5002  0.0680 -0.2367
  851PF6-    F615494   1.256   4.467   3.936 -0.3588  0.1254 -0.8599
  851PF6-    F715495   0.978   4.439   4.093 -0.2206  0.3704 -0.3118
  852PF6-    P115496   3.136   0.323   1.558 -0.4590  0.0078 -0.2141
  852PF6-    F215497   3.045   0.289   1.432 -0.3083  0.3316 -0.1595
  852PF6-    F315498   3.232   0.360   1.686 -0.3864 -0.4804  0.0498
  852PF6-    F415499   3.240   0.382   1.463  0.1190 -0.2625  0.5211
  852PF6-    F515500   3.029   0.261   1.655  0.0799 -0.0769 -0.1848
  852PF6-    F615501   3.210   0.178   1.545 -0.0035 -0.0477  0.3948
  852PF6-    F715502   3.063   0.465   1.569 -0.6735  0.3870 -0.1830
  853PF6-    P115503   2.191   0.887   0.881  0.3226  0.1710 -0.1810
  853PF6-    F215504   2.186   1.038   0.845 -0.3686 -0.5231 -0.0847
  853PF6-    F315505   2.199   0.732   0.926  0.1138 -0.3970  0.3811
  853PF6-    F415506   2.290   0.856   0.760 -0.1468  0.1135  0.6079
  853PF6-    F515507   2.106   0.912   1.010  0.1875 -0.0666 -0.3622
  853PF6-    F615508   2.065   0.857   0.783  0.7044  0.5778  0.5063
  853PF6-    F715509   2.320   0.913   0.967 -1.0469  0.3856 -0.5815
  854Na+     N115510   5.155   2.824   4.989  0.4422 -0.0191 -0.1797
  855Na+     N115511   3.937   2.986   1.671 -0.0745 -0.2705 -0.0569
  856Na+     N115512   5.364   3.950   4.634 -0.2273 -0.1088  0.2651
  857Na+     N115513   5.393   3.355   3.714 -0.3165  0.3255  0.3412
  858Na+     N115514   3.365   1.708   3.607  0.4996 -0.2161 -0.0605
  859Na+     N115515   4.113   1.465   4.646  0.2688  0.0012  0.0850
  860Na+     N115516   2.586   3.370   0.528 -0.3114 -0.6435 -0.1387
  861Na+     N115517   0.714   3.793   4.040  0.2732  0.4453  0.0799
  862Na+     N115518   4.781   4.992   2.213 -0.1174 -0.5623  0.1073
  863Na+     N115519   3.627   1.203   4.029  0.0772  0.1350 -0.1770
  864Na+     N115520   0.595   3.970   2.488 -0.0852 -0.3457  0.2133
  865Na+     N115521   2.603   3.708   4.732 -0.2152  0.5996 -0.1150
  866Na+     N115522   4.462   0.722   2.032 -0.1250  0.2509  0.0783
  867Na+     N115523   3.297   4.594   1.840 -0.1908  0.4535 -0.5900
  868Na+     N115524   5.008   0.884   0.236 -0.4225 -0.0391  0.4215
  869Na+     N115525   0.164   4.927   4.350  0.1067 -0.1136  0.0205
  870Na+     N115526   0.446   1.598   1.114 -0.1684  0.1827  0.1715
  871Na+     N115527   1.171   4.282   0.018 -0.1578 -0.4565 -0.4626
  872Na+     N115528   0.783   0.301   0.076  0.2683 -0.1024  0.0703
  873Na+     N115529   2.035   2.350   0.543 -0.3126 -0.3480  0.2954
  874Na+     N115530   2.814   1.432   0.907  0.3822 -0.4683 -0.2075
  875Na+     N115531   4.312   4.150   3.106 -0.1300 -0.4759 -0.3614
  876Na+     N115532   3.428   0.592   4.896  0.0214 -0.3505  0.0541
  877Na+     N115533   1.900   3.749   2.758  0.7354  0.2010 -0.0242
  878Na+     N115534   3.814   5.004   1.250  0.1781  0.2046 -0.4961
  879Na+     N115535   2.846   2.730   0.648  0.0639 -0.2034 -0.1407
  880Na+     N115536   0.435   4.560   0.770 -0.1506  0.2332  0.5626
  881Na+     N115537   0.290   1.155   5.378 -0.0526  0.3991  0.2909
  882Na+     N115538   0.121   1.679   1.965  0.3335 -0.3670  0.2796
  883Na+     N115539   4.644   4.848   1.485  0.4581 -0.5218  0.4836
  884Na+     N115540   2.579   0.218   3.141  0.6451 -0.6038  0.0501
  885Na+     N115541   0.850   3.021   2.070 -0.1489  0.0847  0.0499
  886Na+     N115542   2.118   1.551   2.772  0.4056 -0.5179 -0.0380
  887Na+     N115543   1.942   1.789   1.323  0.1463 -0.2429  0.4139
  888Na+     N115544   2.125   0.090   0.107  0.1762 -0.4422 -0.3335
  889Na+     N115545   3.986   0.952   5.271  0.7446  0.0416  0.7955
  890Na+     N115546   0.805   2.449   4.083 -0.8990 -0.0493 -0.5116
  891Na+     N115547   1.650   4.500   3.188  0.2456 -0.4161  0.0470
  892Na+     N115548   4.755   4.028   0.682  0.1365 -0.4627 -0.7124
  893Na+     N115549   3.729   1.810   3.008 -0.1217 -0.4628 -0.2158
  894Na+     N115550   1.156   0.586   3.027  0.2494 -0.5719  0.0798
  895Na+     N115551   3.126   2.754   2.715 -0.1433  0.1472 -0.0443
  896Na+     N115552   0.391   2.798   2.648  0.3458 -0.0199 -0.1703
  897Na+     N115553   5.081   5.427   0.738  0.3801  0.6494  0.1503
  898Na+     N115554   4.719   2.133   5.092  0.3328  0.3411  0.3783
  899Na+     N115555   0.543   0.004   1.018 -0.3696 -0.1638  0.0961
  900Na+     N115556   4.839   0.880   2.714  0.6534 -0.2721  0.2691
  901Na+     N115557   1.807   1.223   0.050  0.0935 -0.2513 -0.5812
  902Na+     N115558   3.499   1.944   1.963 -0.4822 -0.0845 -0.3095
  903Na+     N115559   1.004   1.809   3.007  0.0162 -0.1281  0.0858
  904Na+     N115560   1.282   1.053   4.423 -0.0766  0.0818 -0.0948
  905Na+     N115561   5.003   5.424   3.648 -0.2478  0.0523  0.0301
  906Na+     N115562   1.623   4.444   5.005  0.1919  0.7004  0.1082
  907Na+     N115563   5.004   1.014   3.662 -0.1647 -0.2214  0.6362
  908Na+     N115564   2.200   1.896   4.178  0.4976 -0.6114 -0.3726
  909Na+     N115565   2.895   5.158   1.150  0.3651 -0.3294  0.4003
  910Na+     N115566   2.635   1.566   4.988 -0.5894 -0.1404 -0.0282
  911Na+     N115567   4.556   3.383   4.927  0.9180  0.7400 -0.6626
  912Na+     N115568   3.373   5.005   5.348 -0.7382  0.1887  0.3309
  913Na+     N115569   4.325   1.965   2.135  0.0194 -0.5384 -0.0939
  914Na+     N115570   2.027   4.275   1.480  0.5880 -0.2279 -0.6661
  915Na+     N115571   0.036   1.952   3.155 -0.2380 -0.1182 -0.0401
  916Na+     N115572   3.577   0.794   0.651  0.1374  0.1301 -0.2228
  917Na+     N115573   1.231   5.235   4.401 -0.5049 -0.0497 -0.2683
  918Na+     N115574   1.623   1.012   0.753  0.2751  0.4231  0.5303
  919Na+     N115575   2.877   0.384   4.322 -0.8310  0.0474 -0.2100
  920Na+     N115576   4.359   0.313   3.232  0.3713 -0.3738 -0.1436
  921Na+     N115577   0.459   2.629   1.258  0.2069  0.2372 -0.1741
  922Na+     N115578   0.808   5.368   2.382 -0.4501 -0.1670  0.2663
  923Na+     N115579   1.352   2.901   2.901 -0.0036  0.4969 -0.8556
  924Na+     N115580   0.625   3.683   4.818  0.1421 -0.7708  0.3015
  925Na+     N115581   4.224   2.119   3.878  0.0111  0.5683  0.4097
  926Na+     N115582   0.356   4.505   3.218 -0.3077  0.4583 -0.3206
  927Na+     N115583   2.486   4.421   0.575 -0.2329 -0.1869  0.3360
  928Na+     N115584   3.811   2.872   5.151 -0.2676  0.6046 -0.0066
  929Na+     N115585   5.432   0.765   4.594  0.0868  0.4993  0.1886
  930Na+     N115586   2.977   1.977   0.090 -0.3277  0.3725 -0.2810
  931Na+     N115587   0.179   5.390   3.592 -0.7268 -0.1311  0.8176
  932Na+     N115588   2.319   2.884   2.225 -0.3993 -0.1530 -0.2229
  933Na+     N115589   1.927   0.069   1.169  0.3006 -0.0081  0.5340
  934Na+     N115590   4.761   0.733   4.808 -0.1686  0.2649 -0.3565
  935Na+     N115591   4.440   5.302   0.184 -0.0238  0.0628  0.2342
  936Na+     N115592   0.287   2.638   0.250  0.2310  0.1281 -0.8376
  937Na+     N115593   2.956   0.191   1.973 -0.1324  0.6100  0.0246
  938Na+     N115594   0.747   4.992   0.377  0.2955  0.4931 -0.0678
  939Na+     N115595   2.053   5.203   2.275 -0.0329 -0.0264 -0.0660
  940Na+     N115596   3.168   3.847   1.433  0.4220  0.2125  0.1492
  941Na+     N115597   5.126   3.619   1.854  0.0835  0.6458  0.2280
  942Na+     N115598   2.291   2.565   3.187  0.1987  0.3029 -0.2840
  943Na+     N115599   4.169   4.011   1.788 -0.1793 -0.2937 -0.3633
  944Na+     N115600   3.852   4.180   0.930  0.0384  0.0880 -0.3508
  945Na+     N115601   0.998   1.829   0.028 -0.4240  0.0145 -0.0039
  946Na+     N115602   3.611   4.561   3.355 -0.2893  0.1528  0.0898
  947Na+     N115603   1.726   3.263   3.942 -0.5144 -0.1498  0.2116
  948Na+     N115604   0.245   5.292   2.732  0.4063 -0.4239 -0.1620
  949Na+     N115605   0.557   3.680   0.297 -0.4402 -0.1699  0.1633
  950Na+     N115606   1.904   0.850   3.624  0.0285 -0.3097 -0.0032
  951Na+     N115607   0.080   5.465   5.418  0.2333 -0.0596 -0.1484
  952Na+     N115608   3.355   4.275   5.113 -0.5308  0.3067 -0.0292
  953Na+     N115609   1.263   5.405   3.700  0.1189 -0.1997  0.5895
   5.49883   5.49883   5.49883
