DG-THF-PF6-Na    Amber RESP
15609
    1DG      C1    1   4.714   2.133   2.098 -0.2329  0.7069  0.3006
    1DG      C2    2   3.846   1.890   2.277 -0.6132  0.3216 -0.0663
    1DG      H3    3   4.705   2.107   1.992 -2.3252 -1.0418  0.8309
    1DG      H4    4   4.817   2.130   2.131  0.1912 -2.1893 -0.9718
    1DG      H5    5   4.676   2.235   2.102 -1.9240  0.1648 -0.5079
    1DG      H6    6   3.761   1.885   2.346 -0.7290 -1.4887 -0.2893
    1DG      H7    7   3.813   1.962   2.202 -2.2172  2.6629  2.6356
    1DG      H8    8   3.847   1.791   2.232  1.3178  1.0343 -1.7073
    1DG      O9    9   4.645   2.042   2.171 -0.2562 -0.1296 -0.4029
    1DG     O10   10   3.972   1.909   2.348 -0.0077 -0.5112  0.2341
    1DG     C11   11   4.511   2.045   2.125 -0.2992  0.5153  0.3643
    1DG     C12   12   4.065   1.975   2.262  1.1297 -0.0676  0.2425
    1DG     H13   13   4.495   1.972   2.045 -2.9922 -0.1452  1.4016
    1DG     H14   14   4.477   2.141   2.088 -1.4995 -0.5713 -1.5167
    1DG     H15   15   4.039   2.081   2.256 -0.0563 -0.1935  2.0355
    1DG     H16   16   4.058   1.932   2.163 -2.6842 -3.4413  1.6922
    1DG     C17   17   4.427   2.008   2.251  0.2113 -0.6944  0.0293
    1DG     C18   18   4.202   1.954   2.311 -0.5996 -0.6631 -0.6506
    1DG     O19   19   4.292   2.002   2.214  0.1867  1.1764 -0.2121
    1DG     H20   20   4.438   2.083   2.329 -3.2223 -0.4321  0.4259
    1DG     H21   21   4.452   1.909   2.289  1.2407  0.3119  2.1189
    1DG     H22   22   4.225   2.007   2.403  2.0933 -2.8916  0.0687
    1DG     H23   23   4.224   1.851   2.337 -0.0695 -0.4857 -0.3914
    2DG      C1   24   1.761   0.290   1.195 -0.0718 -0.2725  0.0528
    2DG      C2   25   2.012   0.444   2.056 -0.0678 -0.2120 -1.1968
    2DG      H3   26   1.654   0.306   1.178 -0.2061 -2.2980 -1.4880
    2DG      H4   27   1.758   0.181   1.187 -0.3353 -0.3446  1.0324
    2DG      H5   28   1.810   0.331   1.106  0.5333  0.7995  0.8622
    2DG      H6   29   2.002   0.502   2.147  1.5027 -1.3564 -0.2311
    2DG      H7   30   2.009   0.339   2.087  1.9128  0.0870  0.2183
    2DG      H8   31   2.109   0.465   2.010  0.3115 -1.2893 -0.9208
    2DG      O9   32   1.815   0.342   1.323 -0.3180 -0.0447 -0.1904
    2DG     O10   33   1.907   0.490   1.976  0.8706  0.2756 -0.6197
    2DG     C11   34   1.740   0.325   1.436  0.3301 -0.0777  0.0560
    2DG     C12   35   1.883   0.406   1.865 -0.0662  0.0474 -0.2814
    2DG     H13   36   1.721   0.218   1.446  0.2598 -0.0382  0.3424
    2DG     H14   37   1.635   0.355   1.426  0.4556 -0.0506 -1.5191
    2DG     H15   38   1.880   0.300   1.893  0.3135  0.2129  0.4089
    2DG     H16   39   1.982   0.405   1.818  0.9282 -0.5863  1.7022
    2DG     C17   40   1.799   0.392   1.561 -0.7070 -0.6498 -0.8356
    2DG     C18   41   1.746   0.426   1.802 -0.2207  0.0950 -0.6185
    2DG     O19   42   1.729   0.351   1.679  0.5071 -0.3276 -0.2867
    2DG     H20   43   1.792   0.501   1.556 -1.1896 -0.4107  2.5383
    2DG     H21   44   1.903   0.362   1.574 -1.1885 -2.0401  0.0510
    2DG     H22   45   1.663   0.397   1.867 -1.8130 -0.3806 -2.7333
    2DG     H23   46   1.725   0.531   1.779  0.4148  0.9801  2.3900
    3DG      C1   47   3.507   1.438   2.856  0.1487  0.5032 -0.5750
    3DG      C2   48   4.118   1.771   3.002  0.3649  0.3881 -0.1226
    3DG      H3   49   3.492   1.538   2.815  0.0940  0.3056 -1.0440
    3DG      H4   50   3.456   1.418   2.950 -1.5113 -0.8251 -1.6847
    3DG      H5   51   3.477   1.368   2.778  0.5634  0.7697 -0.9807
    3DG      H6   52   4.059   1.862   2.989  0.5490  0.5648  0.2737
    3DG      H7   53   4.126   1.754   3.109 -0.1683  0.0263 -0.1405
    3DG      H8   54   4.219   1.795   2.966 -0.2035  0.6063 -1.6784
    3DG      O9   55   3.647   1.429   2.879 -0.8088 -0.0953 -0.3698
    3DG     O10   56   4.059   1.654   2.939 -0.3939 -0.8624 -0.0154
    3DG     C11   57   3.705   1.304   2.927  0.7880  0.1285 -0.3485
    3DG     C12   58   4.115   1.532   2.980  0.0749  0.0691  0.1369
    3DG     H13   59   3.645   1.228   2.877  0.7111  1.3289 -2.2092
    3DG     H14   60   3.689   1.282   3.033  1.7709 -1.4694 -0.5010
    3DG     H15   61   4.117   1.509   3.086  0.7032  0.2992  0.1831
    3DG     H16   62   4.223   1.537   2.963  0.2171 -1.3360  0.5082
    3DG     C17   63   3.844   1.282   2.883  0.4469 -0.1364 -0.5409
    3DG     C18   64   4.056   1.406   2.903  0.1511  0.1092  0.1320
    3DG     O19   65   3.916   1.396   2.944  0.0754  0.4199 -0.4006
    3DG     H20   66   3.848   1.295   2.775 -0.7395  0.5495 -0.5145
    3DG     H21   67   3.887   1.188   2.920  0.9179  0.2200 -0.1650
    3DG     H22   68   4.065   1.429   2.797  1.6535 -1.7917 -0.2118
    3DG     H23   69   4.120   1.319   2.916  3.8145  1.9926 -3.3013
    4DG      C1   70   1.464   0.986   5.463  0.0702 -0.2260 -0.5245
    4DG      C2   71   1.804   0.354   5.315  0.9059 -0.3384 -0.5792
    4DG      H3   72   1.474   1.082   5.413 -0.5795  0.5808  0.8271
    4DG      H4   73   1.437   1.009   5.566  3.2361  0.3400  0.2691
    4DG      H5   74   1.373   0.933   5.433 -1.3022  0.9373  1.3255
    4DG      H6   75   1.755   0.357   5.218 -2.1022 -1.9960  0.7260
    4DG      H7   76   1.897   0.299   5.301  2.9836  2.8337 -0.2282
    4DG      H8   77   1.749   0.294   5.388 -0.5802 -0.4750 -1.7794
    4DG      O9   78   1.586   0.904   5.444 -0.0648 -0.4490 -0.0630
    4DG     O10   79   1.825   0.479   5.369  0.0876  0.0740  0.6573
    4DG     C11   80   1.704   0.976   5.443  0.5405 -0.0016  0.0328
    4DG     C12   81   1.914   0.566   5.300 -0.1973 -0.8289 -0.3868
    4DG     H13   82   1.691   1.049   5.523  0.5028  1.4918 -1.2732
    4DG     H14   83   1.714   1.020   5.344  0.5800 -2.8259 -1.3231
    4DG     H15   84   1.875   0.578   5.199 -0.8302 -0.2693 -0.0824
    4DG     H16   85   2.014   0.527   5.284  0.7507  0.9794  0.7901
    4DG     C17   86   1.824   0.888   5.463 -0.5840  0.2271 -0.1831
    4DG     C18   87   1.931   0.693   5.379 -0.1275 -0.1129  0.2997
    4DG     O19   88   1.807   0.760   5.392 -0.0481 -0.7447  0.4132
    4DG     H20   89   1.835   0.845   5.562 -0.4270  0.2857 -0.1755
    4DG     H21   90   1.908   0.949   5.429 -1.0717  1.1077  0.1570
    4DG     H22   91   1.976   0.675   5.477  2.4737 -1.5353 -1.0759
    4DG     H23   92   1.996   0.750   5.313 -0.8906 -2.8763 -3.0923
    5DG      C1   93   3.477   2.390   3.386  0.4363  0.2351  0.3306
    5DG      C2   94   3.872   2.687   2.959 -0.4235  0.0826  0.0345
    5DG      H3   95   3.426   2.314   3.445 -0.6574  0.7764  0.1010
    5DG      H4   96   3.397   2.447   3.340 -0.2359 -0.3320  0.7919
    5DG      H5   97   3.534   2.455   3.452  1.1967  1.8735 -1.8100
    5DG      H6   98   3.960   2.694   2.895 -1.2628  0.1343 -1.1510
    5DG      H7   99   3.794   2.748   2.913  0.4615  0.2069 -1.3541
    5DG      H8  100   3.896   2.740   3.051 -1.2767  2.1732 -0.8700
    5DG      O9  101   3.563   2.335   3.283  0.2091  0.5236 -0.8984
    5DG     O10  102   3.826   2.552   2.980  0.5442 -0.5066  0.3025
    5DG     C11  103   3.662   2.252   3.339  0.6395  0.0993 -0.5691
    5DG     C12  104   3.937   2.461   2.989  0.1261 -0.0668 -0.5862
    5DG     H13  105   3.613   2.156   3.351 -2.4627  1.7511  1.3259
    5DG     H14  106   3.708   2.290   3.430  0.5720  0.1972 -0.5744
    5DG     H15  107   4.009   2.501   3.060  0.0608  1.5574 -1.3978
    5DG     H16  108   4.001   2.449   2.902 -0.4292  1.0680 -1.1734
    5DG     C17  109   3.769   2.231   3.234 -0.1557 -0.5172  0.0598
    5DG     C18  110   3.875   2.329   3.042 -0.6785  0.1755  0.1419
    5DG     O19  111   3.800   2.348   3.166  0.1720 -0.4762 -0.6708
    5DG     H20  112   3.750   2.147   3.168  0.7893 -1.8496  1.3964
    5DG     H21  113   3.856   2.175   3.269  0.0821 -0.0112  0.2930
    5DG     H22  114   3.816   2.276   2.968 -0.6689  0.7886 -0.3076
    5DG     H23  115   3.961   2.266   3.065 -0.7967  0.4517  1.4346
    6DG      C1  116   2.660   2.178   0.700  0.6375 -0.2107 -0.1255
    6DG      C2  117   2.026   2.136   0.500  0.0996 -0.3553  0.1238
    6DG      H3  118   2.723   2.267   0.695  0.3648 -0.0473 -0.8842
    6DG      H4  119   2.670   2.141   0.598  1.4448  1.1134 -0.5473
    6DG      H5  120   2.698   2.110   0.775  0.5870 -0.6137 -0.4608
    6DG      H6  121   2.047   2.157   0.395  3.4598  1.3576  1.0150
    6DG      H7  122   2.049   2.030   0.512  0.3065 -0.1385  1.8716
    6DG      H8  123   1.921   2.153   0.522  0.5118  1.4649  0.8732
    6DG      O9  124   2.525   2.220   0.722  0.1191 -0.3755  0.1002
    6DG     O10  125   2.091   2.231   0.583 -0.0251  0.1927 -0.3793
    6DG     C11  126   2.507   2.263   0.859  0.2718  0.0658  0.1287
    6DG     C12  127   2.056   2.210   0.722 -0.8091 -0.2402  0.5707
    6DG     H13  128   2.594   2.322   0.889 -0.2141  0.0702  1.5877
    6DG     H14  129   2.489   2.179   0.925 -1.8227  0.3263 -0.0625
    6DG     H15  130   2.069   2.106   0.753  2.4177  0.9627  3.9494
    6DG     H16  131   1.950   2.231   0.737 -1.3310 -2.0889 -0.2415
    6DG     C17  132   2.371   2.340   0.862 -0.1936 -0.8584  0.9160
    6DG     C18  133   2.146   2.296   0.812  0.3684  0.3872  0.2718
    6DG     O19  134   2.280   2.251   0.793 -0.0345  0.2985  0.5118
    6DG     H20  135   2.378   2.441   0.820  0.6433 -0.9356  0.8449
    6DG     H21  136   2.351   2.348   0.969 -0.5434 -1.6728  0.9198
    6DG     H22  137   2.136   2.403   0.799  0.5172  0.6211  1.9469
    6DG     H23  138   2.124   2.277   0.917  1.4412 -0.4233  0.3816
    7DG      C1  139   0.476   3.507   3.079 -0.0295 -0.6832  0.2802
    7DG      C2  140   0.839   3.101   3.453  0.3860 -0.1948 -0.8466
    7DG      H3  141   0.377   3.464   3.095 -0.5642 -0.2007 -1.4196
    7DG      H4  142   0.525   3.438   3.011 -1.5382 -0.7568 -0.7797
    7DG      H5  143   0.467   3.607   3.035 -0.6169  0.1736  2.2242
    7DG      H6  144   0.937   3.076   3.494 -0.5625 -2.7679  0.0947
    7DG      H7  145   0.759   3.050   3.508  0.7969 -0.7503 -0.7582
    7DG      H8  146   0.836   3.063   3.351 -1.2759  1.3680 -1.4213
    7DG      O9  147   0.566   3.502   3.192  0.1202  0.4552  0.1965
    7DG     O10  148   0.822   3.241   3.448  0.3820  0.0939  0.3339
    7DG     C11  149   0.514   3.578   3.298  0.8026  0.0824  0.1300
    7DG     C12  150   0.835   3.313   3.568 -0.5639 -0.0223  0.2508
    7DG     H13  151   0.418   3.552   3.342 -0.2663  3.5766  0.1667
    7DG     H14  152   0.496   3.683   3.277  2.3292  0.2673 -0.3782
    7DG     H15  153   0.927   3.298   3.625 -0.6504  0.8229  0.6154
    7DG     H16  154   0.759   3.275   3.637  0.5824 -1.8937  0.5750
    7DG     C17  155   0.615   3.572   3.412  0.0550  1.2193  0.3888
    7DG     C18  156   0.794   3.460   3.532 -0.6069  0.1945  0.0896
    7DG     O19  157   0.671   3.444   3.458  0.7865  0.8997  0.1218
    7DG     H20  158   0.584   3.632   3.498 -0.1877  1.5354  0.0817
    7DG     H21  159   0.699   3.629   3.373  0.3332 -0.4315 -1.6068
    7DG     H22  160   0.787   3.526   3.618  2.5295 -1.0215  1.3951
    7DG     H23  161   0.865   3.508   3.465  0.1138 -0.6755  0.2215
    8DG      C1  162   1.733   0.280   3.808  0.0640 -0.3341 -0.1054
    8DG      C2  163   1.313   0.419   3.383  1.3180  0.2356 -0.0398
    8DG      H3  164   1.664   0.197   3.800  0.6264 -0.7825 -0.3939
    8DG      H4  165   1.679   0.340   3.882 -2.2294  1.1187 -2.7644
    8DG      H5  166   1.834   0.251   3.840 -0.5338  0.0315  2.3250
    8DG      H6  167   1.357   0.348   3.314  0.8674 -0.9275  0.8282
    8DG      H7  168   1.237   0.363   3.439 -1.1564  2.8662 -0.5460
    8DG      H8  169   1.253   0.492   3.330  0.1267 -1.3450 -0.9417
    8DG      O9  170   1.745   0.341   3.682  0.5009 -0.2445 -0.0620
    8DG     O10  171   1.401   0.490   3.470  0.3773  0.6209  0.3519
    8DG     C11  172   1.792   0.479   3.681  0.1044  0.6029 -0.1130
    8DG     C12  173   1.471   0.585   3.398  0.3966  0.4633  0.4084
    8DG     H13  174   1.882   0.488   3.743 -0.8426 -1.9610  1.8241
    8DG     H14  175   1.714   0.538   3.730 -0.7866  3.3159 -4.2910
    8DG     H15  176   1.430   0.685   3.404  0.8540  0.6046  1.4326
    8DG     H16  177   1.484   0.562   3.293  2.3717 -2.2846  1.1331
    8DG     C17  178   1.819   0.506   3.538  0.0201  0.2378 -0.8703
    8DG     C18  179   1.609   0.611   3.474  0.1059 -0.1427 -0.2760
    8DG     O19  180   1.689   0.489   3.469 -0.8499 -0.0472 -0.1246
    8DG     H20  181   1.884   0.426   3.505 -1.1804 -1.1804  0.1116
    8DG     H21  182   1.860   0.606   3.519 -2.7886  1.3504 -1.6818
    8DG     H22  183   1.656   0.696   3.424 -0.0387 -1.1310 -2.1873
    8DG     H23  184   1.589   0.635   3.579 -2.0633 -0.8530 -0.4727
    9DG      C1  185   3.251   0.655   0.329  0.1012  0.4132 -0.1859
    9DG      C2  186   3.829   0.435   0.581 -0.5557 -0.5588  0.0203
    9DG      H3  187   3.291   0.734   0.266  0.4141 -0.1789 -0.7390
    9DG      H4  188   3.253   0.691   0.432  2.1201 -1.5541  0.5409
    9DG      H5  189   3.156   0.619   0.289  1.3869 -0.7545 -2.3599
    9DG      H6  190   3.766   0.454   0.668  0.0543 -1.9081  0.7732
    9DG      H7  191   3.895   0.356   0.614  2.0466  1.7353  0.6682
    9DG      H8  192   3.896   0.521   0.575 -1.2236 -0.0972 -1.1640
    9DG      O9  193   3.339   0.544   0.324 -0.3817  1.1397 -0.1123
    9DG     O10  194   3.768   0.387   0.459 -0.3752  0.0777  0.2335
    9DG     C11  195   3.352   0.480   0.201  0.0252  0.2738  0.7295
    9DG     C12  196   3.688   0.265   0.482 -0.7907 -0.0446 -0.9231
    9DG     H13  197   3.430   0.536   0.150 -0.2686  1.4489  1.5398
    9DG     H14  198   3.264   0.456   0.142  1.3127 -0.5263 -0.9615
    9DG     H15  199   3.623   0.289   0.566 -0.5503  0.6386 -0.9275
    9DG     H16  200   3.757   0.184   0.508  0.9915  1.5871 -0.3539
    9DG     C17  201   3.423   0.343   0.235 -0.8713  0.8128 -0.3487
    9DG     C18  202   3.602   0.245   0.365  0.4381  0.2864 -0.5909
    9DG     O19  203   3.538   0.362   0.317  0.0607  0.0018  0.2417
    9DG     H20  204   3.451   0.285   0.148 -0.6759 -0.4059  0.5090
    9DG     H21  205   3.353   0.273   0.281  0.3351 -1.6666 -2.1268
    9DG     H22  206   3.665   0.206   0.285 -0.3244  0.0318 -1.0868
    9DG     H23  207   3.520   0.176   0.384 -0.4798  0.9177 -2.0602
   10DG      C1  208   1.464   1.996   1.960  0.1982 -0.4150  0.3006
   10DG      C2  209   1.610   1.821   2.720 -0.2856  0.2462 -0.0264
   10DG      H3  210   1.381   1.992   2.032  0.5683 -0.7270  0.7197
   10DG      H4  211   1.409   1.964   1.872 -0.2687  0.0368  0.4265
   10DG      H5  212   1.509   2.094   1.944  0.2715 -0.6260 -0.8316
   10DG      H6  213   1.654   1.920   2.708 -0.7893  0.2875 -1.8349
   10DG      H7  214   1.550   1.822   2.812 -1.4099 -0.0504 -0.7351
   10DG      H8  215   1.698   1.758   2.733  1.8722  3.2758  1.4017
   10DG      O9  216   1.563   1.902   1.984 -0.0168 -0.1631 -0.2306
   10DG     O10  217   1.523   1.785   2.616 -0.2654 -0.3707  0.7841
   10DG     C11  218   1.516   1.768   2.010  0.0495  0.2892 -0.1651
   10DG     C12  219   1.592   1.799   2.495 -0.6418  0.3876 -0.4509
   10DG     H13  220   1.598   1.699   1.989  1.3707  2.5847 -3.3679
   10DG     H14  221   1.439   1.731   1.942  1.0676 -2.1640 -0.1042
   10DG     H15  222   1.663   1.717   2.483  0.7163  1.1620  1.7409
   10DG     H16  223   1.647   1.893   2.486  0.3259 -0.3691 -3.9900
   10DG     C17  224   1.454   1.746   2.148 -0.1829  0.0144 -0.9035
   10DG     C18  225   1.491   1.790   2.380 -0.6061 -0.2412 -0.5289
   10DG     O19  226   1.550   1.784   2.249 -0.0445  0.0925  0.5512
   10DG     H20  227   1.443   1.638   2.154 -0.6633  0.0721 -0.7497
   10DG     H21  228   1.364   1.805   2.162  0.7477  1.3735 -0.3476
   10DG     H22  229   1.428   1.704   2.402  0.2693 -0.5152  1.0426
   10DG     H23  230   1.432   1.882   2.380 -0.0069  0.1493 -0.7692
   11DG      C1  231   2.982   1.931   4.577  0.1460  0.1303  0.0190
   11DG      C2  232   2.716   2.556   5.005 -0.4043  0.3092 -0.0171
   11DG      H3  233   3.091   1.923   4.581  0.3001  2.0384  1.0549
   11DG      H4  234   2.951   1.979   4.485  0.8961  2.5723  0.9406
   11DG      H5  235   2.942   1.830   4.580  1.3335 -0.3819 -0.6574
   11DG      H6  236   2.629   2.496   4.979 -0.8920  0.8812  0.2706
   11DG      H7  237   2.694   2.628   5.084 -1.3613 -0.4449  0.4202
   11DG      H8  238   2.751   2.606   4.915 -1.1184  2.5429  0.8644
   11DG      O9  239   2.945   2.008   4.688 -0.4377  0.1996  0.1840
   11DG     O10  240   2.799   2.457   5.066 -0.1390 -0.0050  0.3157
   11DG     C11  241   2.990   1.967   4.817  0.4215  0.6402 -0.0359
   11DG     C12  242   2.831   2.349   4.975  0.7433 -0.1566  0.5009
   11DG     H13  243   3.099   1.966   4.810  0.3418 -0.1210 -1.7648
   11DG     H14  244   2.958   1.865   4.838  2.6112 -0.5692 -2.0160
   11DG     H15  245   2.859   2.377   4.874 -2.6551 -1.0224 -0.8239
   11DG     H16  246   2.746   2.281   4.969 -0.1521  1.0567 -1.5231
   11DG     C17  247   2.939   2.055   4.933 -0.0287  0.5192 -0.3251
   11DG     C18  248   2.940   2.261   5.026 -0.4664  0.0952  0.2437
   11DG     O19  249   3.001   2.181   4.925  0.6578 -0.1737 -0.1795
   11DG     H20  250   2.965   2.005   5.026  2.9940  2.0867 -0.1851
   11DG     H21  251   2.831   2.063   4.924 -0.0135  0.4771 -0.5444
   11DG     H22  252   3.029   2.314   5.061  1.4262 -1.0245 -2.4849
   11DG     H23  253   2.898   2.210   5.112 -2.3092  1.7278  0.3861
   12DG      C1  254   3.536   5.337   0.046  1.0464 -0.8867  0.2204
   12DG      C2  255   3.839   5.507  -0.674 -0.5502 -0.1524  0.4502
   12DG      H3  256   3.613   5.392   0.101 -0.2195  1.2626 -0.0416
   12DG      H4  257   3.515   5.237   0.083  2.0465 -1.7479 -1.4170
   12DG      H5  258   3.456   5.410   0.052  5.1720  4.3456 -0.2696
   12DG      H6  259   3.937   5.549  -0.697  0.3937 -1.8786  1.1132
   12DG      H7  260   3.846   5.398  -0.678 -0.9002 -0.1246 -1.5837
   12DG      H8  261   3.758   5.539  -0.739 -0.5872  0.9946  1.0341
   12DG      O9  262   3.564   5.318  -0.086 -0.3140  0.0998 -0.1886
   12DG     O10  263   3.799   5.557  -0.551  0.6204 -0.3587 -0.2459
   12DG     C11  264   3.679   5.237  -0.098  0.2207  0.0178  0.5200
   12DG     C12  265   3.733   5.461  -0.470  0.6924 -0.2467  0.1796
   12DG     H13  266   3.657   5.144  -0.151  1.7271 -1.1766  1.8644
   12DG     H14  267   3.719   5.190  -0.007 -0.2090 -2.3482 -0.4316
   12DG     H15  268   3.637   5.427  -0.509 -0.1231  2.7841 -0.7878
   12DG     H16  269   3.716   5.521  -0.381  2.8159  1.5342 -0.5183
   12DG     C17  270   3.786   5.308  -0.182  0.5172 -0.8540 -0.6522
   12DG     C18  271   3.823   5.340  -0.419 -0.2239  0.4472 -0.2992
   12DG     O19  272   3.772   5.257  -0.312  0.0892 -0.1997  0.5556
   12DG     H20  273   3.886   5.292  -0.141  0.1921 -0.9480  0.1209
   12DG     H21  274   3.766   5.413  -0.165  1.9688 -0.3517 -1.8796
   12DG     H22  275   3.839   5.265  -0.496  1.1102  0.7319 -0.3312
   12DG     H23  276   3.922   5.379  -0.392 -0.0262 -0.2792  0.0507
   13DG      C1  277   4.123   4.720   3.709  0.3771  0.2159 -0.3898
   13DG      C2  278   3.611   4.680   3.935 -0.7049  0.0070  0.1498
   13DG      H3  279   4.132   4.681   3.608  0.6268  0.8580 -0.6212
   13DG      H4  280   4.029   4.687   3.754  0.1215  0.0687 -1.0306
   13DG      H5  281   4.210   4.684   3.764  0.7618  1.4063 -0.1828
   13DG      H6  282   3.636   4.635   3.839 -0.2848 -1.3667  0.8669
   13DG      H7  283   3.622   4.599   4.007 -0.5732 -1.2731 -1.2624
   13DG      H8  284   3.506   4.707   3.927 -0.1707  1.5341 -2.9796
   13DG      O9  285   4.139   4.856   3.686  0.8641 -0.2011 -0.4248
   13DG     O10  286   3.693   4.792   3.961  0.0024 -0.1719  0.1875
   13DG     C11  287   4.158   4.931   3.808 -0.1487 -0.7441  0.4422
   13DG     C12  288   3.675   4.899   3.867 -0.8475  1.3746 -0.1080
   13DG     H13  289   4.250   4.988   3.793 -0.7404 -0.2417 -1.6886
   13DG     H14  290   4.176   4.868   3.895  1.2201  1.2733  1.7216
   13DG     H15  291   3.578   4.944   3.888 -1.5127  0.7227 -1.6201
   13DG     H16  292   3.668   4.858   3.766 -0.3509  2.2182 -0.4961
   13DG     C17  293   4.033   5.016   3.851  0.1009 -0.2150  0.6806
   13DG     C18  294   3.798   4.998   3.878  0.7816  0.5537 -0.0249
   13DG     O19  295   3.919   4.935   3.834 -0.0483 -0.8225 -0.1101
   13DG     H20  296   4.016   5.110   3.800  1.2386  0.0656  0.7989
   13DG     H21  297   4.058   5.055   3.950 -0.9256  1.9395  0.1270
   13DG     H22  298   3.766   5.079   3.813 -0.9966 -0.8329 -0.9746
   13DG     H23  299   3.798   5.044   3.977 -1.9167  0.6177  0.0412
   14DG      C1  300   5.257   2.842   4.429 -0.0743  0.2051  0.4873
   14DG      C2  301   5.734   3.380   4.140  0.4582  0.1877 -0.3493
   14DG      H3  302   5.308   2.762   4.482 -1.6982 -1.6249 -0.5388
   14DG      H4  303   5.193   2.789   4.358  1.0663 -0.4321 -0.1018
   14DG      H5  304   5.200   2.904   4.498  0.4857 -0.2118  1.3394
   14DG      H6  305   5.794   3.402   4.229  2.3877 -2.6748 -0.8272
   14DG      H7  306   5.794   3.397   4.051 -0.4469  0.6103 -0.8881
   14DG      H8  307   5.650   3.450   4.138  1.1048  0.9701 -0.8459
   14DG      O9  308   5.351   2.923   4.357  0.5178 -0.0013  0.4971
   14DG     O10  309   5.685   3.252   4.146 -0.4864 -0.0123  0.4557
   14DG     C11  310   5.468   2.964   4.432 -0.3218  0.0776 -1.0577
   14DG     C12  311   5.783   3.146   4.169  0.4392  0.3042 -0.6794
   14DG     H13  312   5.516   2.875   4.473 -2.1464 -0.0184  1.0923
   14DG     H14  313   5.450   3.034   4.514 -2.1239 -0.1838 -1.1875
   14DG     H15  314   5.849   3.176   4.251 -1.6736  2.1651  0.4460
   14DG     H16  315   5.847   3.132   4.082  1.3442 -0.2409  0.0556
   14DG     C17  316   5.563   3.041   4.341 -0.4648 -0.1418  0.3278
   14DG     C18  317   5.730   3.004   4.175  0.0538  0.7615 -0.5160
   14DG     O19  318   5.674   2.974   4.303 -0.1472  0.1145 -0.7057
   14DG     H20  319   5.597   3.127   4.400 -1.8399  0.7299 -0.1102
   14DG     H21  320   5.506   3.087   4.260  0.2896  0.1435 -0.0467
   14DG     H22  321   5.655   2.986   4.097  0.2205  1.6695 -0.8963
   14DG     H23  322   5.813   2.936   4.155  0.4610  0.8952  0.6408
   15DG      C1  323   1.661   4.288   2.347  0.5435 -0.2582  0.5599
   15DG      C2  324   2.137   3.965   2.783  0.8879 -0.1643  0.1157
   15DG      H3  325   1.570   4.277   2.405  1.6381 -1.1864  2.1981
   15DG      H4  326   1.663   4.210   2.272 -1.0708 -0.2301  0.4626
   15DG      H5  327   1.659   4.377   2.284 -0.6306 -1.3135 -0.9612
   15DG      H6  328   2.072   3.884   2.751  0.0770  0.7818 -0.7337
   15DG      H7  329   2.230   3.971   2.728  0.0177 -1.9110 -1.6620
   15DG      H8  330   2.160   3.939   2.887 -0.9041 -1.6447  0.2063
   15DG      O9  331   1.773   4.289   2.430  0.4482 -0.0029 -0.2957
   15DG     O10  332   2.055   4.087   2.766  0.3244  0.3718 -0.2474
   15DG     C11  333   1.795   4.412   2.491 -0.2383 -0.8684  0.4929
   15DG     C12  334   2.117   4.220   2.775 -0.2330 -0.6079  0.6806
   15DG     H13  335   1.710   4.423   2.559  0.3348  1.5423  0.8957
   15DG     H14  336   1.785   4.494   2.421 -3.0373  0.4974  2.3168
   15DG     H15  337   2.176   4.225   2.684 -1.5185 -1.9184 -0.2817
   15DG     H16  338   2.180   4.226   2.863 -1.4777  0.5310  1.5303
   15DG     C17  339   1.919   4.419   2.577  0.0388 -0.4636 -0.1735
   15DG     C18  340   2.013   4.336   2.784  0.1168 -0.0279 -0.2792
   15DG     O19  341   1.911   4.323   2.678 -0.7665  0.1666  0.2029
   15DG     H20  342   1.912   4.518   2.623 -0.5006 -0.4990 -0.1641
   15DG     H21  343   2.016   4.410   2.529 -0.2907  0.3479 -1.0363
   15DG     H22  344   1.964   4.325   2.880 -0.5818 -0.6956 -0.6986
   15DG     H23  345   2.067   4.431   2.782 -1.4239  0.9375  1.3422
   16DG      C1  346   2.200   2.511   3.705 -0.4912 -0.1479  0.1210
   16DG      C2  347   2.744   3.159   3.418  0.3013  0.4996 -0.1499
   16DG      H3  348   2.232   2.462   3.613  1.1695  1.1494 -0.0323
   16DG      H4  349   2.109   2.556   3.664 -1.7157 -3.0352 -0.6167
   16DG      H5  350   2.170   2.439   3.782  0.3157 -1.6510 -0.9193
   16DG      H6  351   2.801   3.241   3.464  2.5445  1.2017 -3.7734
   16DG      H7  352   2.809   3.116   3.343 -0.6390 -0.3336 -0.5020
   16DG      H8  353   2.668   3.218   3.367  1.3879 -0.2829 -2.8636
   16DG      O9  354   2.304   2.599   3.748 -0.2348 -0.0250 -0.0789
   16DG     O10  355   2.697   3.067   3.510 -0.2976 -0.1336 -0.1404
   16DG     C11  356   2.385   2.654   3.655 -0.7278 -0.4533  0.2318
   16DG     C12  357   2.614   2.966   3.452 -1.0596  0.7008  0.1511
   16DG     H13  358   2.327   2.692   3.571 -0.8412 -1.9230 -0.3802
   16DG     H14  359   2.448   2.578   3.610  0.1692  0.0024  0.6802
   16DG     H15  360   2.669   2.935   3.364 -1.4965  1.1583 -0.2913
   16DG     H16  361   2.521   3.012   3.418  0.0655  2.1188 -1.1131
   16DG     C17  362   2.474   2.753   3.731 -0.2351 -0.3281  1.2825
   16DG     C18  363   2.600   2.840   3.541 -0.0269  0.5635  0.4066
   16DG     O19  364   2.507   2.858   3.643 -0.0539  0.1571  0.0243
   16DG     H20  365   2.563   2.709   3.777 -0.5719 -0.3036  1.9793
   16DG     H21  366   2.415   2.790   3.816 -1.9389 -1.8608  0.8225
   16DG     H22  367   2.563   2.757   3.481  0.2169  0.5584  0.2610
   16DG     H23  368   2.699   2.814   3.580  1.6585  3.3576 -1.6040
   17DG      C1  369   2.162   2.868   3.912 -0.3781 -0.7257 -0.3292
   17DG      C2  370   1.648   3.247   3.649  0.4952 -0.0327  0.2954
   17DG      H3  371   2.168   2.936   3.997  1.0930 -0.0184 -0.9591
   17DG      H4  372   2.233   2.898   3.834 -2.1292 -0.2801 -1.8336
   17DG      H5  373   2.188   2.773   3.957  0.0461 -1.0014 -1.1372
   17DG      H6  374   1.723   3.327   3.651  2.4557 -1.8061  1.4267
   17DG      H7  375   1.575   3.269   3.572 -1.7152 -1.4006  1.8754
   17DG      H8  376   1.599   3.259   3.746  1.0735  0.3477  0.5493
   17DG      O9  377   2.035   2.860   3.852 -0.4871  0.5441 -0.0838
   17DG     O10  378   1.703   3.113   3.627  0.3187  0.3152 -0.0077
   17DG     C11  379   1.938   2.824   3.946 -0.2366 -0.2816 -0.4027
   17DG     C12  380   1.600   3.011   3.652 -0.1062 -0.2621 -0.4625
   17DG     H13  381   1.943   2.907   4.017 -0.3490 -0.6739  0.0741
   17DG     H14  382   1.959   2.741   4.013 -1.4913  0.0575  0.4548
   17DG     H15  383   1.628   2.931   3.583 -0.1921  0.1714 -1.0162
   17DG     H16  384   1.496   3.035   3.627 -0.5478 -1.5867  0.0323
   17DG     C17  385   1.796   2.821   3.878 -0.5058  0.3359  0.6729
   17DG     C18  386   1.613   2.970   3.796 -0.4897  0.4987 -0.2850
   17DG     O19  387   1.750   2.957   3.838  0.0905  0.8272 -0.6802
   17DG     H20  388   1.724   2.779   3.949 -1.7012 -0.4002 -0.8887
   17DG     H21  389   1.792   2.748   3.796  1.4883  0.4142  0.4729
   17DG     H22  390   1.579   3.049   3.863  0.9832  1.2730 -0.3994
   17DG     H23  391   1.556   2.879   3.815 -0.3058  0.0191 -1.8901
   18DG      C1  392   1.856   1.789   0.700  0.4974  0.4424 -0.6200
   18DG      C2  393   1.258   1.728   0.395 -0.3149 -0.3443  0.5515
   18DG      H3  394   1.863   1.712   0.624  2.6716 -0.0644  0.0168
   18DG      H4  395   1.853   1.749   0.802 -0.4899  1.3394 -0.2673
   18DG      H5  396   1.936   1.862   0.694 -1.9598  3.2985 -1.0732
   18DG      H6  397   1.210   1.677   0.478 -1.6642 -1.2913 -0.7421
   18DG      H7  398   1.183   1.770   0.327 -1.9092 -3.1923  0.4109
   18DG      H8  399   1.315   1.651   0.343 -0.3253 -1.4894  2.1743
   18DG      O9  400   1.737   1.860   0.664 -0.2624 -0.4505 -0.3263
   18DG     O10  401   1.356   1.830   0.427 -0.0296  0.0445 -0.2403
   18DG     C11  402   1.695   1.946   0.763  0.4577 -0.4334 -0.0961
   18DG     C12  403   1.298   1.943   0.484 -0.4942 -0.7636 -0.9559
   18DG     H13  404   1.777   2.008   0.801  1.3331 -1.3986 -0.3488
   18DG     H14  405   1.654   1.890   0.847  0.8095 -0.5659 -0.0080
   18DG     H15  406   1.219   1.931   0.559  0.7143 -0.0201  0.4880
   18DG     H16  407   1.247   2.003   0.408  0.4133 -1.0952 -1.8443
   18DG     C17  408   1.590   2.035   0.698 -0.8084 -0.3232  0.4817
   18DG     C18  409   1.409   2.036   0.546  0.0302  0.3602  0.0661
   18DG     O19  410   1.497   1.959   0.618 -0.1843  0.2004  0.1734
   18DG     H20  411   1.633   2.118   0.643  2.2408 -1.1614  1.4096
   18DG     H21  412   1.534   2.078   0.781 -0.4055 -0.3032  0.7456
   18DG     H22  413   1.460   2.087   0.465  0.0640 -1.9455 -1.4765
   18DG     H23  414   1.372   2.114   0.612 -2.4915  0.3684 -1.2318
   19DG      C1  415   0.622   5.160   5.286  0.0562  0.0410  0.3340
   19DG      C2  416  -0.222   5.376   5.557  0.3869  0.1076 -0.1735
   19DG      H3  417   0.655   5.097   5.203  0.1748 -2.0084  1.8916
   19DG      H4  418   0.685   5.135   5.371 -0.6510 -1.5343  0.4195
   19DG      H5  419   0.628   5.263   5.249 -0.5127 -0.8454 -2.4588
   19DG      H6  420  -0.181   5.358   5.656 -0.0904  0.2223  0.0472
   19DG      H7  421  -0.206   5.482   5.538  1.4036 -0.1482 -0.8055
   19DG      H8  422  -0.330   5.365   5.547 -0.1199  4.2153 -0.8001
   19DG      O9  423   0.483   5.142   5.326  0.1053  0.2463  0.1518
   19DG     O10  424  -0.146   5.296   5.468  0.0229 -0.5459 -0.2545
   19DG     C11  425   0.436   5.233   5.420  0.2413 -0.2121 -0.3546
   19DG     C12  426  -0.010   5.330   5.459 -0.1906 -0.1685 -0.3484
   19DG     H13  427   0.458   5.335   5.389  0.4518  0.1382  0.9080
   19DG     H14  428   0.482   5.216   5.517 -0.0015 -0.4550 -0.2777
   19DG     H15  429   0.037   5.320   5.557  2.5003 -0.6639 -1.6095
   19DG     H16  430  -0.001   5.436   5.435 -0.4472  0.1455  0.8522
   19DG     C17  431   0.285   5.217   5.449 -0.4604 -0.0506 -0.3797
   19DG     C18  432   0.057   5.238   5.365 -0.5126  0.0942  0.4844
   19DG     O19  433   0.197   5.265   5.343 -0.9639  0.3168 -0.7089
   19DG     H20  434   0.261   5.286   5.530  2.0289 -1.6932  1.9153
   19DG     H21  435   0.255   5.115   5.475 -0.9161  0.5656  1.7550
   19DG     H22  436   0.035   5.136   5.396 -0.8241  0.3395  1.0828
   19DG     H23  437   0.023   5.255   5.263  1.1841  2.2655  0.1990
   20DG      C1  438   2.694   4.013   4.085 -0.1337 -0.3940  0.0740
   20DG      C2  439   2.434   4.584   3.960 -0.0749  0.1635 -0.0914
   20DG      H3  440   2.610   3.958   4.041 -0.8809 -0.6046  1.6778
   20DG      H4  441   2.679   4.029   4.192 -0.5009 -0.6163  0.0579
   20DG      H5  442   2.784   3.954   4.071  0.7082  0.5640  1.2305
   20DG      H6  443   2.341   4.532   3.934 -0.9475 -0.1571  3.2341
   20DG      H7  444   2.434   4.583   4.069 -1.9541  1.7392 -0.0290
   20DG      H8  445   2.422   4.687   3.928 -0.9818  0.1985  0.3420
   20DG      O9  446   2.716   4.139   4.033  0.0912 -0.6367  0.4113
   20DG     O10  447   2.546   4.526   3.899  0.2903 -0.2100 -0.3660
   20DG     C11  448   2.836   4.206   4.086 -0.7612 -0.0273 -0.2183
   20DG     C12  449   2.659   4.616   3.908 -0.3369  0.1807  0.1384
   20DG     H13  450   2.914   4.132   4.103 -0.8055  0.3414  1.8999
   20DG     H14  451   2.808   4.252   4.181 -0.5261  1.2866 -0.7698
   20DG     H15  452   2.660   4.661   4.007 -4.0339 -0.1791  0.4846
   20DG     H16  453   2.650   4.692   3.831 -2.1917  1.0879  1.1728
   20DG     C17  454   2.885   4.326   3.988  0.6809 -0.1816 -0.2108
   20DG     C18  455   2.786   4.536   3.898  0.3832  0.0270 -0.4105
   20DG     O19  456   2.772   4.413   3.973  0.4784 -0.3312 -0.5782
   20DG     H20  457   2.901   4.292   3.885 -1.0721  0.9821 -0.9232
   20DG     H21  458   2.969   4.390   4.015  0.9765  0.0622 -1.6155
   20DG     H22  459   2.800   4.515   3.792  0.3291  0.5553 -0.5270
   20DG     H23  460   2.873   4.594   3.928  1.9819 -1.0625 -2.6754
   21DG      C1  461   2.454   4.963   1.032  0.4528  0.1758 -0.2001
   21DG      C2  462   1.939   4.806   0.587  0.5146  0.3423 -0.0001
   21DG      H3  463   2.454   4.967   1.141 -0.3738 -1.7471 -0.0941
   21DG      H4  464   2.524   5.040   1.001  0.8015  0.1227  0.4219
   21DG      H5  465   2.481   4.868   0.987 -1.5700  0.4827 -2.2142
   21DG      H6  466   1.835   4.796   0.557  0.5757 -1.0039  0.1692
   21DG      H7  467   2.000   4.875   0.529  1.4106  2.2567  2.9729
   21DG      H8  468   1.980   4.705   0.575 -1.5280 -0.4366 -0.8193
   21DG      O9  469   2.320   4.982   0.986 -0.4345 -0.0867 -0.1515
   21DG     O10  470   1.959   4.855   0.720 -0.3238  0.3522  0.1170
   21DG     C11  471   2.269   5.105   1.024 -0.4153  0.1089  0.0080
   21DG     C12  472   1.909   4.992   0.740 -0.3542  0.0121  0.2199
   21DG     H13  473   2.305   5.188   0.964  0.9707 -0.3708  0.1391
   21DG     H14  474   2.308   5.136   1.121 -1.7366  0.3270  0.4894
   21DG     H15  475   1.800   4.990   0.733 -0.6287 -0.8311  3.2604
   21DG     H16  476   1.951   5.055   0.662  0.2748 -3.2163 -2.2981
   21DG     C17  477   2.119   5.102   1.015  0.0370  0.3019  0.2597
   21DG     C18  478   1.938   5.034   0.885  0.3189 -0.2042 -0.0931
   21DG     O19  479   2.080   5.040   0.894  0.3730  0.5164  0.1213
   21DG     H20  480   2.065   5.197   1.011 -2.2423 -0.9802 -1.6128
   21DG     H21  481   2.071   5.055   1.101 -3.9416 -1.5499 -2.6844
   21DG     H22  482   1.886   5.125   0.914  1.1853 -0.3575  2.1199
   21DG     H23  483   1.889   4.963   0.952  0.4585 -1.6778 -1.4743
   22DG      C1  484   4.950   3.150   0.264 -0.0299 -0.1278 -0.0820
   22DG      C2  485   5.078   3.778   0.273 -0.2795 -0.9499 -0.4764
   22DG      H3  486   4.928   3.071   0.192  1.2502  0.3684 -1.0332
   22DG      H4  487   4.938   3.112   0.366  2.2377  1.1055  0.7025
   22DG      H5  488   5.048   3.191   0.241 -0.5575 -0.4649 -3.3791
   22DG      H6  489   5.075   3.885   0.252 -1.6623 -0.8356  0.2195
   22DG      H7  490   5.082   3.750   0.378 -0.3592  0.5997 -0.0383
   22DG      H8  491   5.180   3.758   0.239  0.6349  2.5005 -0.1064
   22DG      O9  492   4.863   3.264   0.245  0.5692 -0.0936  0.2362
   22DG     O10  493   4.980   3.695   0.212 -0.1899 -0.0833  0.0496
   22DG     C11  494   4.726   3.270   0.287  0.7255 -0.0946 -0.3659
   22DG     C12  495   4.847   3.733   0.257 -0.1828  0.1940  0.3567
   22DG     H13  496   4.732   3.264   0.395 -1.4997 -3.4068 -0.2930
   22DG     H14  497   4.668   3.188   0.244 -2.2686  2.2123 -1.0614
   22DG     H15  498   4.827   3.828   0.208 -0.8442 -0.4284 -0.6056
   22DG     H16  499   4.852   3.752   0.364  0.8267  0.8513  0.2041
   22DG     C17  500   4.667   3.411   0.253  0.1412 -0.5827  0.5844
   22DG     C18  501   4.727   3.636   0.227  0.2515 -0.8510  0.1541
   22DG     O19  502   4.768   3.509   0.271 -0.0516 -0.0247 -0.0119
   22DG     H20  503   4.574   3.440   0.301 -1.2599 -0.1250 -2.1915
   22DG     H21  504   4.637   3.407   0.148 -1.1269 -0.8131  0.9439
   22DG     H22  505   4.630   3.664   0.268 -1.2132 -1.9264 -2.3827
   22DG     H23  506   4.714   3.629   0.119  1.2973 -0.5845 -0.0029
   23DG      C1  507   0.138   2.226   5.298 -0.7385 -0.2180  0.8057
   23DG      C2  508   0.700   1.816   5.318  0.0149  0.2881  0.4737
   23DG      H3  509   0.068   2.296   5.344 -2.6650 -0.1994 -1.9309
   23DG      H4  510   0.092   2.135   5.260 -0.2885 -0.3962  0.6800
   23DG      H5  511   0.177   2.272   5.207 -1.3965 -0.7395  0.2517
   23DG      H6  512   0.753   1.862   5.235  1.1265  1.3524  1.7373
   23DG      H7  513   0.773   1.751   5.367 -1.4246 -2.8711 -1.2663
   23DG      H8  514   0.625   1.754   5.268 -1.7452  2.0988  0.7095
   23DG      O9  515   0.249   2.190   5.382  0.3907  0.5291  0.3849
   23DG     O10  516   0.645   1.913   5.396 -0.4728 -0.2753  0.1153
   23DG     C11  517   0.204   2.097   5.480 -0.0316 -0.3467  0.4643
   23DG     C12  518   0.610   1.859   5.526 -0.4796  0.6020  0.6570
   23DG     H13  519   0.166   2.002   5.441  0.7217 -0.1839 -0.7347
   23DG     H14  520   0.115   2.133   5.531  0.4651 -0.7619  1.6663
   23DG     H15  521   0.694   1.826   5.586 -1.3507  0.0080  1.5725
   23DG     H16  522   0.550   1.770   5.514  0.5959  0.0816 -1.3064
   23DG     C17  523   0.306   2.065   5.587 -0.1378 -0.2006 -0.3915
   23DG     C18  524   0.519   1.954   5.600 -0.8471 -1.1676 -0.5686
   23DG     O19  525   0.429   2.034   5.525 -0.0157  0.1427  0.3040
   23DG     H20  526   0.266   1.985   5.649  1.2011  0.7505  1.7897
   23DG     H21  527   0.322   2.155   5.646  0.2678 -0.5159 -0.0216
   23DG     H22  528   0.468   1.896   5.677 -1.2746  1.7572  1.5425
   23DG     H23  529   0.577   2.036   5.643 -1.9446  1.2857 -3.4064
   24DG      C1  530   4.438   2.723   2.762  0.0453 -0.7138 -0.0192
   24DG      C2  531   3.883   2.551   3.517 -0.2811 -0.2901  0.5790
   24DG      H3  532   4.426   2.619   2.730 -0.7822 -1.1283  1.5330
   24DG      H4  533   4.531   2.759   2.718  1.9938 -1.6116  2.9796
   24DG      H5  534   4.354   2.782   2.726 -1.1815 -2.2027  0.2758
   24DG      H6  535   3.859   2.589   3.617  0.3665 -0.5653  0.8490
   24DG      H7  536   3.796   2.573   3.456 -0.4840 -2.5300 -0.0073
   24DG      H8  537   3.902   2.444   3.511  1.2326 -0.0133 -0.0320
   24DG      O9  538   4.446   2.745   2.905  0.0315 -0.0348  0.2306
   24DG     O10  539   3.991   2.623   3.465 -0.3220  0.1352  0.0662
   24DG     C11  540   4.336   2.676   2.968 -0.1192 -0.0374  0.5230
   24DG     C12  541   4.042   2.578   3.341  0.3792 -0.3234  0.4971
   24DG     H13  542   4.350   2.569   2.980  1.3239  0.4187  4.3547
   24DG     H14  543   4.245   2.695   2.911  0.0477  0.7727  0.5170
   24DG     H15  544   3.958   2.582   3.272 -0.3083 -0.5455  1.2974
   24DG     H16  545   4.087   2.479   3.354 -0.8784 -0.8733  0.7593
   24DG     C17  546   4.294   2.731   3.107  0.2951  0.0276  0.5000
   24DG     C18  547   4.152   2.678   3.297 -0.1770  0.7837 -0.5065
   24DG     O19  548   4.186   2.650   3.163 -0.4993  0.9610 -0.1706
   24DG     H20  549   4.257   2.833   3.097 -2.7079 -1.0781 -0.5619
   24DG     H21  550   4.376   2.720   3.179  0.0056  2.4277  1.2957
   24DG     H22  551   4.132   2.783   3.317  0.4467  0.6389  0.9841
   24DG     H23  552   4.227   2.642   3.367 -1.1605 -0.4092 -0.0372
   25DG      C1  553   4.074   4.644   0.432 -0.3065 -0.3419  0.3074
   25DG      C2  554   3.286   4.720   0.502  0.7344  0.0544 -0.1762
   25DG      H3  555   4.112   4.721   0.500 -1.6317  0.9256 -0.3294
   25DG      H4  556   4.035   4.694   0.343  1.0548 -1.2734 -0.8584
   25DG      H5  557   4.152   4.576   0.399  0.2211  0.6352 -0.5242
   25DG      H6  558   3.196   4.660   0.511  0.6148  0.0396 -1.3021
   25DG      H7  559   3.290   4.794   0.582  1.7162 -0.7483  0.5406
   25DG      H8  560   3.265   4.775   0.410 -1.2220 -0.7493 -0.2460
   25DG      O9  561   3.968   4.578   0.495 -0.0517  0.3864 -0.3541
   25DG     O10  562   3.408   4.648   0.476  0.3624  0.2657 -0.0632
   25DG     C11  563   3.902   4.483   0.412  0.5643  0.0578  0.4693
   25DG     C12  564   3.466   4.578   0.592 -0.8521  0.8368 -0.1333
   25DG     H13  565   3.976   4.405   0.400  1.2040  0.5098  1.3555
   25DG     H14  566   3.875   4.536   0.321 -2.1553  1.8200  2.1364
   25DG     H15  567   3.388   4.543   0.660  1.9167 -0.5670  2.5195
   25DG     H16  568   3.530   4.646   0.647  1.3523 -0.6133 -0.7957
   25DG     C17  569   3.776   4.425   0.482 -0.3813 -0.0994 -0.1786
   25DG     C18  570   3.556   4.458   0.555  0.3681  0.8507  0.0825
   25DG     O19  571   3.674   4.522   0.496  0.0246 -0.0421  0.2737
   25DG     H20  572   3.820   4.388   0.575 -1.3897 -1.5622 -0.2364
   25DG     H21  573   3.752   4.331   0.431  3.7367 -0.6317 -1.5160
   25DG     H22  574   3.591   4.401   0.641  0.4504  0.5568 -0.1476
   25DG     H23  575   3.512   4.385   0.488  0.0366  0.1493  1.0346
   26DG      C1  576   4.686   1.185   5.046 -0.0438  0.5702 -0.2706
   26DG      C2  577   4.677   1.888   4.476 -0.8066  0.7383 -0.1921
   26DG      H3  578   4.770   1.200   5.113 -1.2115 -1.1191  1.6817
   26DG      H4  579   4.664   1.080   5.030  0.4938  0.0938  1.8746
   26DG      H5  580   4.594   1.225   5.090  0.4211 -1.6325  3.0211
   26DG      H6  581   4.718   1.887   4.375 -0.1712  2.4410  0.0063
   26DG      H7  582   4.573   1.920   4.479 -1.5714 -1.4450  4.4768
   26DG      H8  583   4.736   1.957   4.537 -0.0484 -0.7132  0.7749
   26DG      O9  584   4.726   1.224   4.914  0.2278  0.0325 -0.2793
   26DG     O10  585   4.693   1.759   4.541 -0.3574 -0.7496 -0.3632
   26DG     C11  586   4.757   1.361   4.894 -0.7050  0.3504 -0.0345
   26DG     C12  587   4.832   1.713   4.553 -0.2324 -0.2044 -0.2110
   26DG     H13  588   4.844   1.397   4.948  0.1491  1.4714 -2.0547
   26DG     H14  589   4.669   1.412   4.933 -0.6504 -0.4879  1.2429
   26DG     H15  590   4.875   1.766   4.637 -4.1586 -1.5023  2.9567
   26DG     H16  591   4.885   1.744   4.463  0.5217  4.9967  1.7097
   26DG     C17  592   4.781   1.388   4.748 -0.9173 -0.1744 -0.9023
   26DG     C18  593   4.827   1.561   4.586  0.1865  0.2623  0.5789
   26DG     O19  594   4.789   1.531   4.720  0.1715 -0.2267  0.5128
   26DG     H20  595   4.713   1.341   4.678 -1.0082  1.3477 -1.8942
   26DG     H21  596   4.878   1.342   4.727  0.2531  1.1231  1.2540
   26DG     H22  597   4.756   1.515   4.517  1.7258 -1.0262 -0.2275
   26DG     H23  598   4.927   1.518   4.576 -1.5018 -3.8955 -0.7025
   27DG      C1  599   4.693   4.225   0.160 -0.5918 -0.2310  0.1395
   27DG      C2  600   5.146   3.938   0.786  0.1117  0.0823 -0.3691
   27DG      H3  601   4.683   4.127   0.114 -2.2670  1.2755 -3.0191
   27DG      H4  602   4.677   4.305   0.088  0.9331 -0.3057 -0.3030
   27DG      H5  603   4.626   4.234   0.246 -2.0527 -2.1690 -0.7253
   27DG      H6  604   5.111   3.862   0.856  3.9083 -1.7653 -0.2038
   27DG      H7  605   5.251   3.938   0.818 -0.6171 -0.2126  2.2178
   27DG      H8  606   5.102   4.034   0.812 -0.0670  0.3476 -1.5585
   27DG      O9  607   4.824   4.228   0.208 -0.3589 -0.4359  0.6365
   27DG     O10  608   5.129   3.905   0.653  0.3587  1.2537  0.4808
   27DG     C11  609   4.851   4.135   0.305 -0.4070  0.1629  0.4503
   27DG     C12  610   5.218   3.953   0.555  0.0607 -0.5546 -0.1221
   27DG     H13  611   4.876   4.040   0.257  0.2999 -0.1824  1.4809
   27DG     H14  612   4.774   4.112   0.379  0.3643 -1.3513  0.8287
   27DG     H15  613   5.235   3.872   0.485 -2.0726 -0.0371 -1.3508
   27DG     H16  614   5.316   3.980   0.593 -0.9454 -0.3672  2.5833
   27DG     C17  615   4.982   4.184   0.376  0.2444  0.4502 -0.2884
   27DG     C18  616   5.161   4.082   0.484  0.0840 -0.5734  0.0186
   27DG     O19  617   5.025   4.073   0.458  0.1414 -0.2546  0.7873
   27DG     H20  618   4.961   4.274   0.434  0.0796 -0.4628  1.1351
   27DG     H21  619   5.063   4.222   0.314 -0.3422  3.1822  0.5073
   27DG     H22  620   5.173   4.162   0.557  1.9006 -0.8282  0.0447
   27DG     H23  621   5.225   4.109   0.400  2.0122 -0.1232  1.5598
   28DG      C1  622   4.756   3.446   3.173 -0.0580 -0.5529 -0.2292
   28DG      C2  623   4.270   3.698   3.461  0.1934 -0.5170  0.3166
   28DG      H3  624   4.715   3.477   3.077  0.1074  0.2844 -0.0326
   28DG      H4  625   4.831   3.369   3.156  0.0302 -0.8451  1.3630
   28DG      H5  626   4.804   3.529   3.223 -2.5901 -0.0786  1.6232
   28DG      H6  627   4.315   3.752   3.545  1.8662  2.0554 -2.0272
   28DG      H7  628   4.297   3.744   3.366 -0.8034 -0.4981  0.0362
   28DG      H8  629   4.162   3.695   3.468  0.0334  0.5963 -1.2346
   28DG      O9  630   4.660   3.385   3.262 -0.0050  0.1661 -0.1467
   28DG     O10  631   4.324   3.566   3.456 -0.1601 -0.2878 -0.4768
   28DG     C11  632   4.713   3.320   3.376  1.1243  0.3275 -0.7719
   28DG     C12  633   4.339   3.509   3.586 -0.6614  0.3852 -0.1898
   28DG     H13  634   4.780   3.387   3.430 -1.5005  0.6644  2.3922
   28DG     H14  635   4.771   3.229   3.357  0.4251 -0.0225 -1.2563
   28DG     H15  636   4.251   3.471   3.638 -1.7480  0.8350 -1.6333
   28DG     H16  637   4.393   3.571   3.658  1.1108 -1.3732  0.0877
   28DG     C17  638   4.599   3.279   3.476  0.6311  0.5981  0.3073
   28DG     C18  639   4.412   3.375   3.574 -0.3844  0.3599  0.0389
   28DG     O19  640   4.524   3.399   3.493  0.1514  0.2287 -0.1955
   28DG     H20  641   4.631   3.239   3.572  0.7551 -1.9294 -0.7121
   28DG     H21  642   4.538   3.198   3.435  1.6115  0.7455 -1.5466
   28DG     H22  643   4.445   3.345   3.673 -0.3641  2.8982  0.8845
   28DG     H23  644   4.347   3.306   3.520 -0.8233  2.1969 -1.9655
   29DG      C1  645   2.533   4.920   5.209  0.3054 -1.4080  0.0528
   29DG      C2  646   1.897   5.105   5.811  0.2447 -0.2362 -0.4944
   29DG      H3  647   2.523   4.811   5.217  1.2923 -1.4037  2.2816
   29DG      H4  648   2.636   4.941   5.178  0.0233  0.3321  0.2182
   29DG      H5  649   2.457   4.968   5.148 -0.9247 -2.5550  0.6250
   29DG      H6  650   1.831   5.019   5.798 -0.3118  0.2918 -1.2341
   29DG      H7  651   1.933   5.108   5.914  1.1466  1.1535 -0.8255
   29DG      H8  652   1.833   5.189   5.782 -1.0452 -1.6295 -1.8927
   29DG      O9  653   2.513   4.997   5.337  0.3056 -0.0375 -0.0088
   29DG     O10  654   2.010   5.096   5.733  0.2998  0.2562  0.1417
   29DG     C11  655   2.375   5.015   5.379  0.3388  0.1311 -0.0621
   29DG     C12  656   2.104   5.192   5.747 -0.0819  0.2731  1.1748
   29DG     H13  657   2.316   4.927   5.352 -0.9150  1.0350 -0.3786
   29DG     H14  658   2.332   5.098   5.324 -0.1548 -0.9250 -1.3248
   29DG     H15  659   2.104   5.226   5.851 -1.2308  3.4147  0.2687
   29DG     H16  660   2.086   5.280   5.685 -0.1403  0.1844  1.0654
   29DG     C17  661   2.366   5.041   5.534 -0.1693 -0.1040 -0.2400
   29DG     C18  662   2.238   5.119   5.716  0.2143 -0.5411 -0.3289
   29DG     O19  663   2.243   5.094   5.572 -0.1104 -0.4748 -0.2391
   29DG     H20  664   2.445   5.111   5.560 -0.1187 -0.3145  0.1720
   29DG     H21  665   2.393   4.951   5.589  0.5632  0.3052  0.0840
   29DG     H22  666   2.325   5.173   5.753  0.1655 -0.6366 -0.0727
   29DG     H23  667   2.241   5.026   5.773  3.0871 -1.3426 -1.6154
   30DG      C1  668   1.187   4.885   1.224 -0.4424 -0.8688 -0.4541
   30DG      C2  669   0.575   4.766   0.744 -0.2784  0.5577 -0.2864
   30DG      H3  670   1.214   4.978   1.275  0.0008 -0.5027 -1.3409
   30DG      H4  671   1.229   4.891   1.124  1.3782 -0.5724  0.2808
   30DG      H5  672   1.236   4.803   1.275 -0.0472 -1.1497 -1.2699
   30DG      H6  673   0.468   4.750   0.751 -0.3800 -0.0482 -2.5253
   30DG      H7  674   0.618   4.838   0.813  1.5445  1.5851 -2.3511
   30DG      H8  675   0.582   4.803   0.642 -2.9175  0.9756 -0.3773
   30DG      O9  676   1.046   4.866   1.228 -0.3276  0.7956 -0.4495
   30DG     O10  677   0.654   4.650   0.772  0.0694 -0.2601 -0.4900
   30DG     C11  678   1.006   4.767   1.133  0.4368  0.5504  0.3856
   30DG     C12  679   0.632   4.592   0.900 -0.1884 -0.2909  0.1964
   30DG     H13  680   1.014   4.670   1.181  2.5603  1.1509  1.3700
   30DG     H14  681   1.067   4.768   1.042 -0.2962  0.1188 -0.1208
   30DG     H15  682   0.688   4.499   0.892  2.2330  1.0532  0.5487
   30DG     H16  683   0.527   4.567   0.915 -0.3339  1.0231  1.5918
   30DG     C17  684   0.868   4.802   1.083  0.3229 -0.1140  0.3902
   30DG     C18  685   0.674   4.681   1.016 -0.0603  0.2696 -0.1544
   30DG     O19  686   0.815   4.695   1.003 -0.1213  0.1297 -0.1656
   30DG     H20  687   0.881   4.892   1.023  1.3029  0.4087  1.3496
   30DG     H21  688   0.803   4.827   1.167  0.3595 -0.2426  0.4579
   30DG     H22  689   0.618   4.774   1.019  1.7084  1.4201 -1.3318
   30DG     H23  690   0.646   4.629   1.108  0.2132 -1.1528 -0.8327
   31DG      C1  691   4.879   0.369   5.476  0.6738 -0.4260  0.3601
   31DG      C2  692   4.445   0.062   5.011 -0.2165 -0.1443  0.0423
   31DG      H3  693   4.940   0.458   5.492  0.2608  0.0731 -0.7437
   31DG      H4  694   4.923   0.282   5.524 -1.4456 -0.1861  2.9861
   31DG      H5  695   4.780   0.387   5.518 -0.3227  0.4215 -2.2023
   31DG      H6  696   4.383   0.146   5.040  0.0663  0.4426 -0.9750
   31DG      H7  697   4.421   0.041   4.906 -2.7819 -0.6197  0.6697
   31DG      H8  698   4.433  -0.038   5.051  0.8371  0.5841  2.3021
   31DG      O9  699   4.861   0.356   5.340 -0.1926  0.1907  0.9193
   31DG     O10  700   4.580   0.099   5.030 -0.4811  0.1583  0.2980
   31DG     C11  701   4.982   0.327   5.270  0.3814 -0.8416 -0.4454
   31DG     C12  702   4.612   0.229   4.991 -0.0146  0.1366  0.2816
   31DG     H13  703   5.039   0.249   5.322  1.5348  1.4917  2.0308
   31DG     H14  704   5.038   0.420   5.266 -0.2163 -0.3411  1.8024
   31DG     H15  705   4.575   0.295   5.070 -0.9966 -0.2009  0.1155
   31DG     H16  706   4.560   0.254   4.899  0.5508 -2.0323 -0.6817
   31DG     C17  707   4.953   0.285   5.124 -0.7841 -0.1904 -0.0558
   31DG     C18  708   4.762   0.251   4.991  0.0921  0.5031 -0.3566
   31DG     O19  709   4.818   0.239   5.126  0.1479 -0.7330  0.2616
   31DG     H20  710   5.032   0.232   5.071 -1.2136  0.2119 -1.1274
   31DG     H21  711   4.953   0.377   5.066 -2.9015 -0.3391 -0.3776
   31DG     H22  712   4.794   0.164   4.934 -0.2261  0.3403 -0.2854
   31DG     H23  713   4.786   0.350   4.951  2.2369  0.5424  0.8702
   32DG      C1  714   0.547   3.004   4.516  0.3983 -0.7064  0.4965
   32DG      C2  715   0.779   2.464   4.700 -0.5729  0.6098 -0.8128
   32DG      H3  716   0.601   3.065   4.443 -1.7655 -0.7847 -1.3089
   32DG      H4  717   0.480   3.055   4.585 -1.6424 -1.4509 -0.8265
   32DG      H5  718   0.475   2.958   4.447  0.8845  2.1356 -2.1381
   32DG      H6  719   0.801   2.544   4.629  2.1069 -0.1211 -0.9234
   32DG      H7  720   0.793   2.366   4.655 -1.7221  1.3222 -2.8046
   32DG      H8  721   0.681   2.468   4.748 -0.5901  0.0683 -0.8002
   32DG      O9  722   0.638   2.915   4.573  0.0840  0.0034  0.4391
   32DG     O10  723   0.873   2.497   4.812 -0.9212 -0.0438  0.0718
   32DG     C11  724   0.693   2.985   4.683  0.4216 -0.0699  0.0648
   32DG     C12  725   0.831   2.599   4.903 -0.7508  0.7910  0.0299
   32DG     H13  726   0.617   2.982   4.761 -0.9200  1.7378 -1.1031
   32DG     H14  727   0.720   3.090   4.674  1.5799 -0.1052  2.3133
   32DG     H15  728   0.894   2.581   4.990  0.8733  0.0620 -1.2561
   32DG     H16  729   0.727   2.581   4.932 -1.0193 -0.4750 -1.6231
   32DG     C17  730   0.826   2.911   4.711  0.4363 -0.2511  0.3498
   32DG     C18  731   0.859   2.744   4.871 -0.1057 -0.3235  0.1168
   32DG     O19  732   0.799   2.777   4.747  0.0792 -0.4140 -0.4488
   32DG     H20  733   0.891   2.966   4.778 -0.4179 -0.0631  1.0419
   32DG     H21  734   0.893   2.894   4.627  0.1504  0.4483 -0.0287
   32DG     H22  735   0.831   2.806   4.956  0.2936  1.3440 -0.9323
   32DG     H23  736   0.964   2.752   4.847  0.7345 -2.3848  2.5906
   33DG      C1  737   3.837   1.877   4.508 -0.6253 -0.3810  0.4234
   33DG      C2  738   4.399   1.856   4.195  0.1941 -0.0750  0.4073
   33DG      H3  739   3.889   1.964   4.549 -2.6169 -0.0428  2.4096
   33DG      H4  740   3.770   1.851   4.589  1.8350  0.6618  2.9484
   33DG      H5  741   3.779   1.912   4.422 -2.6101 -2.5932  0.7547
   33DG      H6  742   4.374   1.958   4.167 -0.4545 -0.4355 -0.3558
   33DG      H7  743   4.454   1.853   4.289  0.9217  1.2973  0.0529
   33DG      H8  744   4.463   1.825   4.112 -1.0096 -1.2872 -0.1156
   33DG      O9  745   3.921   1.773   4.467  0.2315  0.1109 -0.1391
   33DG     O10  746   4.285   1.773   4.197 -0.3810 -0.3366  0.2415
   33DG     C11  747   3.856   1.658   4.408 -0.3685  0.6845  0.6183
   33DG     C12  748   4.307   1.640   4.240  0.1165 -0.6040  0.2936
   33DG     H13  749   3.788   1.703   4.337  0.1438  1.6679  0.7296
   33DG     H14  750   3.801   1.601   4.483 -1.6749  0.6696 -0.3193
   33DG     H15  751   4.365   1.621   4.330 -1.2113 -0.5175  1.2142
   33DG     H16  752   4.365   1.596   4.160 -0.5344  0.6233 -0.8911
   33DG     C17  753   3.966   1.562   4.360  0.0542  0.0812  0.2527
   33DG     C18  754   4.174   1.564   4.250  0.8365 -0.3785 -0.6810
   33DG     O19  755   4.075   1.639   4.317  0.3619  0.0995  0.1343
   33DG     H20  756   3.936   1.496   4.278  0.3951  0.8870 -0.5380
   33DG     H21  757   3.999   1.506   4.447  1.6820 -0.0007 -0.3805
   33DG     H22  758   4.140   1.539   4.149  0.0003  0.3931 -0.5921
   33DG     H23  759   4.192   1.475   4.310  0.2589  1.5706  2.5909
   34DG      C1  760   3.896   3.642   0.467  0.6617  0.3852  0.8389
   34DG      C2  761   3.378   3.408   0.906  0.3386  0.1410 -0.2692
   34DG      H3  762   3.964   3.670   0.548  1.4015  2.3711 -0.4009
   34DG      H4  763   3.855   3.730   0.417 -2.3401 -1.6032 -0.5148
   34DG      H5  764   3.950   3.589   0.390 -0.4268 -1.6305  1.3865
   34DG      H6  765   3.313   3.328   0.942  2.3032 -0.9978  0.8991
   34DG      H7  766   3.438   3.441   0.991  2.0408  0.5620 -1.5817
   34DG      H8  767   3.309   3.490   0.884 -1.5011 -0.8221  1.5490
   34DG      O9  768   3.779   3.569   0.493 -0.0164 -0.4694  0.5586
   34DG     O10  769   3.462   3.358   0.803 -0.0978  0.4320 -0.4675
   34DG     C11  770   3.807   3.447   0.561 -0.6390  0.1720  0.3899
   34DG     C12  771   3.400   3.324   0.689 -0.2567  0.4983  0.1397
   34DG     H13  772   3.886   3.459   0.635 -0.2077 -1.1071  0.1522
   34DG     H14  773   3.836   3.367   0.494 -2.3448 -1.0325  1.0135
   34DG     H15  774   3.365   3.417   0.644  1.7064  1.2983  0.1664
   34DG     H16  775   3.305   3.276   0.713  0.0977 -0.5482 -0.4751
   34DG     C17  776   3.687   3.392   0.628 -0.3436 -0.3390  0.0558
   34DG     C18  777   3.493   3.250   0.587 -0.1037 -0.4744 -0.5187
   34DG     O19  778   3.600   3.332   0.531 -0.0808  0.0795 -0.5397
   34DG     H20  779   3.637   3.476   0.678  1.6812  1.0037 -0.0742
   34DG     H21  780   3.721   3.319   0.700 -0.9061 -1.4188 -0.7494
   34DG     H22  781   3.547   3.174   0.644  1.1311  0.5124 -0.3124
   34DG     H23  782   3.423   3.211   0.513 -2.2242 -0.1725  1.2434
   35DG      C1  783   0.705   0.313   4.299 -0.3212 -0.5044 -0.0446
   35DG      C2  784   0.933   0.181   4.743  0.0375 -0.4110 -0.4557
   35DG      H3  785   0.672   0.415   4.277  0.5962 -0.3247 -0.6730
   35DG      H4  786   0.681   0.245   4.217  0.6221 -0.1357 -0.6482
   35DG      H5  787   0.814   0.320   4.301 -0.4369  1.7611  1.6347
   35DG      H6  788   1.036   0.191   4.707  0.2051  2.6574  0.5361
   35DG      H7  789   0.873   0.256   4.692  0.9417  0.4663 -0.2819
   35DG      H8  790   0.932   0.200   4.850  0.6851 -0.2492 -0.4676
   35DG      O9  791   0.677   0.266   4.431  0.2512  0.3013  0.4018
   35DG     O10  792   0.895   0.044   4.714  0.0779 -0.3687  0.7806
   35DG     C11  793   0.538   0.259   4.446  0.2180 -0.2393 -0.9216
   35DG     C12  794   0.780  -0.001   4.789 -0.0142  0.2719 -0.2735
   35DG     H13  795   0.485   0.201   4.371  0.6821  0.5107 -1.8490
   35DG     H14  796   0.493   0.359   4.441 -0.5389 -0.3314  2.0326
   35DG     H15  797   0.806  -0.005   4.895  1.5423  1.1350 -0.6020
   35DG     H16  798   0.760  -0.104   4.758 -2.7455 -0.0779  2.2244
   35DG     C17  799   0.534   0.215   4.595  0.1916  0.3572  0.2393
   35DG     C18  800   0.657   0.092   4.760 -0.4152 -0.0509 -0.3365
   35DG     O19  801   0.648   0.125   4.619 -0.7679 -0.3800 -0.3661
   35DG     H20  802   0.444   0.161   4.623  0.5558  0.7834  2.3929
   35DG     H21  803   0.540   0.303   4.658  1.6365  0.1533  0.4214
   35DG     H22  804   0.565   0.039   4.784  1.1803 -2.8397  0.0232
   35DG     H23  805   0.662   0.180   4.824 -0.0239  0.4609 -1.0528
   36DG      C1  806   3.196   0.803   3.792 -0.2002  0.5229 -0.3535
   36DG      C2  807   3.313   1.264   3.762 -0.4665  0.2164  0.2420
   36DG      H3  808   3.110   0.750   3.833  1.1326 -1.1253  0.4392
   36DG      H4  809   3.266   0.721   3.775  0.5841  0.5836  2.1096
   36DG      H5  810   3.170   0.842   3.694 -0.6850  0.4271 -0.2655
   36DG      H6  811   3.254   1.178   3.794  1.9027 -1.7129 -0.2188
   36DG      H7  812   3.252   1.315   3.688 -0.4760  0.3643  0.3509
   36DG      H8  813   3.399   1.222   3.710 -0.6024  0.0392  0.1628
   36DG      O9  814   3.249   0.909   3.871 -0.2065 -0.3439  0.1346
   36DG     O10  815   3.348   1.351   3.865 -0.2105  0.2812 -0.5094
   36DG     C11  816   3.271   0.884   4.013  0.4776  0.3321 -0.0630
   36DG     C12  817   3.469   1.315   3.941  0.4463 -0.1673  0.2683
   36DG     H13  818   3.354   0.814   4.021 -0.0330 -0.1554  1.3307
   36DG     H14  819   3.183   0.839   4.058  0.3745 -0.1292 -0.7240
   36DG     H15  820   3.510   1.406   3.985 -0.2285 -0.6485  1.9800
   36DG     H16  821   3.558   1.276   3.892 -0.7913 -0.1550 -2.1264
   36DG     C17  822   3.310   1.013   4.088 -0.5138 -0.0150 -0.2521
   36DG     C18  823   3.421   1.222   4.051  0.2927  0.0280 -0.2778
   36DG     O19  824   3.382   1.094   4.003 -0.6832 -0.4028  0.2643
   36DG     H20  825   3.348   0.993   4.188 -1.2935 -0.5851 -0.0588
   36DG     H21  826   3.218   1.070   4.104 -0.1312  0.4455  0.3792
   36DG     H22  827   3.498   1.218   4.128  3.1044 -0.6157 -2.9178
   36DG     H23  828   3.338   1.269   4.104  0.7652  0.3291  0.2052
   37DG      C1  829   0.569   5.338   4.437  0.4507  0.0462  0.0334
   37DG      C2  830   1.132   5.597   4.442 -0.2595  0.2666  0.2801
   37DG      H3  831   0.507   5.427   4.427  0.3662 -0.0885 -0.6949
   37DG      H4  832   0.603   5.325   4.540 -0.0325 -0.7435  0.1020
   37DG      H5  833   0.514   5.250   4.405  0.4172  0.0590  0.0555
   37DG      H6  834   1.186   5.507   4.411 -0.7876  0.1688 -0.3840
   37DG      H7  835   1.213   5.670   4.449 -0.9708  0.8974  2.5000
   37DG      H8  836   1.102   5.578   4.545 -0.1885 -1.2620  0.0530
   37DG      O9  837   0.686   5.367   4.359  0.4949  0.6020 -0.5643
   37DG     O10  838   1.033   5.643   4.359 -0.0631 -0.3979  0.1467
   37DG     C11  839   0.646   5.422   4.231 -0.0204 -0.0797  1.0481
   37DG     C12  840   1.061   5.651   4.221 -0.1562  0.2668 -0.0078
   37DG     H13  841   0.589   5.514   4.244 -1.8712 -1.1932  1.3115
   37DG     H14  842   0.586   5.352   4.174  0.7391  0.8262 -0.9598
   37DG     H15  843   1.169   5.658   4.205  0.1855 -1.3793  1.2703
   37DG     H16  844   1.009   5.730   4.168  0.6859  0.4879 -0.5156
   37DG     C17  845   0.772   5.437   4.149  0.9208 -0.4048  0.3845
   37DG     C18  846   1.002   5.519   4.169  0.4974 -0.5111 -0.0087
   37DG     O19  847   0.864   5.521   4.219  0.1976 -0.8701  0.0916
   37DG     H20  848   0.756   5.468   4.046 -0.3928 -1.3565  0.2731
   37DG     H21  849   0.816   5.337   4.140 -0.1883 -0.7912 -1.3355
   37DG     H22  850   0.997   5.510   4.061 -1.0484 -0.2109  0.0141
   37DG     H23  851   1.050   5.433   4.215  0.7662 -0.3465  0.0224
   38DG      C1  852   2.641   3.413   0.874 -0.1449  0.8590 -0.0145
   38DG      C2  853   2.879   3.961   0.577  0.5745 -0.1012  0.2029
   38DG      H3  854   2.606   3.502   0.926 -0.6576 -0.4585  2.0159
   38DG      H4  855   2.639   3.334   0.950  1.3500  0.3885 -0.4294
   38DG      H5  856   2.558   3.387   0.809  0.8476  0.2748 -1.0780
   38DG      H6  857   2.798   3.997   0.641 -0.4618 -1.2788 -0.3916
   38DG      H7  858   2.949   4.039   0.550  1.0354 -0.4055  0.5087
   38DG      H8  859   2.818   3.929   0.492 -1.1409  0.0768  1.3125
   38DG      O9  860   2.771   3.441   0.807 -0.1986  1.0100  0.6954
   38DG     O10  861   2.946   3.867   0.653 -0.4268  0.0655 -0.5518
   38DG     C11  862   2.885   3.459   0.895  0.4604  0.3374  0.4337
   38DG     C12  863   3.042   3.794   0.590 -0.6658 -0.0576 -0.1798
   38DG     H13  864   2.895   3.373   0.962 -2.1104 -0.5456 -0.1717
   38DG     H14  865   2.856   3.539   0.963 -0.2793  0.1221  0.3768
   38DG     H15  866   3.120   3.857   0.549 -0.9117 -0.2445 -0.9482
   38DG     H16  867   2.988   3.743   0.510  1.6502  0.9959 -2.5189
   38DG     C17  868   3.011   3.513   0.820  0.4930 -0.2357  0.0014
   38DG     C18  869   3.101   3.695   0.698  0.2842  1.1246  0.2193
   38DG     O19  870   2.985   3.632   0.751 -0.2792 -0.2857  0.3013
   38DG     H20  871   3.072   3.439   0.768 -0.6442 -2.9863  2.3001
   38DG     H21  872   3.081   3.540   0.899 -0.0530  1.4837 -0.0668
   38DG     H22  873   3.161   3.620   0.646  0.3085  1.7116 -0.6042
   38DG     H23  874   3.161   3.743   0.775 -1.3724  2.4265  0.7629
   39DG      C1  875   4.790   4.028   0.818 -0.0953  0.8412 -0.1343
   39DG      C2  876   4.307   3.609   0.373 -0.3412  0.2072  0.2077
   39DG      H3  877   4.819   3.935   0.866  3.1273  1.9201  0.1991
   39DG      H4  878   4.774   4.107   0.892  0.1084 -0.6405  1.5594
   39DG      H5  879   4.876   4.053   0.757 -0.2948  1.8106 -0.0427
   39DG      H6  880   4.348   3.514   0.340  1.0192  0.8773 -0.1215
   39DG      H7  881   4.289   3.606   0.480 -3.4078  1.5457 -0.1573
   39DG      H8  882   4.213   3.624   0.318 -1.4109 -0.7193  1.7038
   39DG      O9  883   4.671   4.016   0.745 -0.0624  0.4338  0.2745
   39DG     O10  884   4.386   3.712   0.326 -1.0107  0.0789 -0.0599
   39DG     C11  885   4.687   3.932   0.627 -0.1868  0.5986 -0.2388
   39DG     C12  886   4.338   3.838   0.352 -0.0796  0.1025 -1.1525
   39DG     H13  887   4.713   3.831   0.660 -1.8050  0.9035  2.1242
   39DG     H14  888   4.776   3.963   0.571  1.0795 -0.4458  1.0957
   39DG     H15  889   4.287   3.860   0.445  0.3637 -0.1077 -0.8588
   39DG     H16  890   4.259   3.860   0.280  0.6428 -0.1898 -2.0496
   39DG     C17  891   4.561   3.938   0.542  0.4269 -0.2604  0.0925
   39DG     C18  892   4.460   3.930   0.327 -0.5247 -0.2617  0.1621
   39DG     O19  893   4.574   3.898   0.409 -0.5608 -0.2673  0.8506
   39DG     H20  894   4.518   4.037   0.551  0.0119 -0.4141 -0.1865
   39DG     H21  895   4.484   3.875   0.587  0.5983 -1.0821 -0.7282
   39DG     H22  896   4.498   3.931   0.226 -0.4405  3.2092  0.1260
   39DG     H23  897   4.432   4.035   0.333 -0.8246 -0.2374 -1.3941
   40DG      C1  898   1.140   4.303   4.668 -0.2623  0.3291 -0.3427
   40DG      C2  899   1.135   4.001   4.157  0.0122 -0.3762  0.5408
   40DG      H3  900   1.121   4.274   4.771 -1.9921  2.3142 -0.0488
   40DG      H4  901   1.053   4.365   4.649 -1.9791 -1.8044  0.1881
   40DG      H5  902   1.220   4.377   4.666  2.2448 -2.1910 -2.2790
   40DG      H6  903   1.149   4.089   4.219  0.7737  0.4381 -0.7261
   40DG      H7  904   1.189   4.014   4.063  0.8166 -1.0097  0.8990
   40DG      H8  905   1.035   3.984   4.118  0.3043  0.8328 -0.8533
   40DG      O9  906   1.171   4.206   4.568  0.0738 -0.2473 -0.2986
   40DG     O10  907   1.188   3.886   4.222  0.2842 -0.9300  0.5687
   40DG     C11  908   1.296   4.140   4.590 -0.5612 -0.4655  0.1270
   40DG     C12  909   1.111   3.833   4.326  0.5316  0.8802  0.6586
   40DG     H13  910   1.305   4.107   4.693 -2.0769 -0.1823  0.3764
   40DG     H14  911   1.378   4.211   4.578 -1.8477  1.1676  0.6460
   40DG     H15  912   1.143   3.730   4.344 -2.0751  0.0685  0.9824
   40DG     H16  913   1.008   3.831   4.292  0.3946  0.0184  1.0798
   40DG     C17  914   1.323   4.016   4.502 -0.5101  0.3931 -0.2055
   40DG     C18  915   1.117   3.920   4.454  0.5784  0.1206  0.5570
   40DG     O19  916   1.238   3.906   4.528  0.2052  0.7111  0.0221
   40DG     H20  917   1.418   3.984   4.546 -0.1115  0.9040 -0.6810
   40DG     H21  918   1.344   4.032   4.396 -1.0840  3.5253  0.0730
   40DG     H22  919   1.085   4.021   4.429  0.0289 -0.5857 -1.9661
   40DG     H23  920   1.036   3.886   4.519  0.4562  0.5925  0.6552
   41DG      C1  921   5.283   5.054   3.649  0.3392 -0.2955 -0.0071
   41DG      C2  922   5.972   4.599   3.857 -0.4542  0.1582 -0.2270
   41DG      H3  923   5.322   5.152   3.624  0.4339 -0.1949  0.5351
   41DG      H4  924   5.215   5.078   3.730  1.2934  2.2242  0.1189
   41DG      H5  925   5.222   5.001   3.576  1.3144  1.8232 -2.5254
   41DG      H6  926   6.053   4.660   3.897 -1.1748 -0.2380  1.9984
   41DG      H7  927   5.986   4.494   3.885  1.3237  0.7789  1.3866
   41DG      H8  928   5.972   4.595   3.748 -0.6163 -1.2885 -0.2038
   41DG      O9  929   5.393   4.982   3.700 -0.7013  0.1151 -0.1367
   41DG     O10  930   5.850   4.650   3.905 -0.3365  0.6620  0.8393
   41DG     C11  931   5.363   4.853   3.747  0.9271 -0.4969 -0.2479
   41DG     C12  932   5.827   4.788   3.881 -0.1046  0.6415 -0.1153
   41DG     H13  933   5.366   4.784   3.662 -1.5992 -2.5570  1.1892
   41DG     H14  934   5.265   4.856   3.793  1.6263  1.4870  1.2489
   41DG     H15  935   5.843   4.807   3.775  3.0303 -1.2423 -0.0899
   41DG     H16  936   5.900   4.852   3.931  0.4059 -0.7411  0.9637
   41DG     C17  937   5.458   4.816   3.861 -0.1646  0.2193 -0.6491
   41DG     C18  938   5.691   4.839   3.922  0.8994 -0.0100 -0.1852
   41DG     O19  939   5.592   4.809   3.823  0.2896 -0.0922 -0.2605
   41DG     H20  940   5.432   4.714   3.888  0.3312 -0.2648 -1.9054
   41DG     H21  941   5.444   4.880   3.948  0.9020 -2.5960  1.7840
   41DG     H22  942   5.662   4.792   4.017  0.9166  1.2068  0.4448
   41DG     H23  943   5.686   4.945   3.945 -1.0040  0.0616 -0.7478
   42DG      C1  944   3.040   5.413   2.765  0.8280  0.0857 -0.3147
   42DG      C2  945   3.247   5.146   2.086  0.2861  0.1548  0.1471
   42DG      H3  946   2.962   5.337   2.755  0.8565 -0.0890  0.7424
   42DG      H4  947   2.999   5.512   2.747 -1.2757 -0.0686  2.8431
   42DG      H5  948   3.077   5.406   2.867 -1.5529  2.7177  0.8457
   42DG      H6  949   3.338   5.128   2.028 -0.1141 -1.2040 -0.0951
   42DG      H7  950   3.182   5.059   2.081  0.9538 -0.4468  1.4563
   42DG      H8  951   3.184   5.219   2.036 -1.7912 -2.6919 -1.6782
   42DG      O9  952   3.134   5.382   2.668  0.0561  0.2042  0.3016
   42DG     O10  953   3.277   5.190   2.217  0.4563  0.4706 -0.4931
   42DG     C11  954   3.217   5.275   2.707 -0.0233 -0.0111  0.4059
   42DG     C12  955   3.351   5.092   2.285  0.4848  0.3527  0.4371
   42DG     H13  956   3.165   5.182   2.726  0.0973 -0.2149 -0.2426
   42DG     H14  957   3.256   5.296   2.807 -0.4035 -2.3741  1.1048
   42DG     H15  958   3.431   5.066   2.216 -2.1190  0.5906 -2.9227
   42DG     H16  959   3.285   5.006   2.300 -0.2624 -0.3704 -5.0088
   42DG     C17  960   3.334   5.243   2.615 -0.3735  0.4425  0.3586
   42DG     C18  961   3.408   5.151   2.410  0.4873 -0.5229 -0.0377
   42DG     O19  962   3.292   5.199   2.486  0.6969  0.8517 -0.3078
   42DG     H20  963   3.408   5.175   2.657  0.5290  0.3785 -1.2258
   42DG     H21  964   3.395   5.332   2.595  1.2343 -0.9457 -1.3377
   42DG     H22  965   3.451   5.067   2.466  0.9836 -0.7026 -0.6787
   42DG     H23  966   3.476   5.235   2.400  0.6560 -0.6021  0.4019
   43DG      C1  967   4.687   3.664   2.821 -0.2405 -0.0783  0.5421
   43DG      C2  968   5.207   3.150   2.564 -0.3429 -0.1055 -0.1391
   43DG      H3  969   4.643   3.645   2.919 -0.6623  0.0872  0.3876
   43DG      H4  970   4.608   3.728   2.781 -0.0651  0.0514  0.4021
   43DG      H5  971   4.779   3.721   2.832  1.6074 -2.4334 -1.4428
   43DG      H6  972   5.199   3.063   2.499  1.5289  0.7070 -1.5630
   43DG      H7  973   5.306   3.194   2.552 -1.5560  3.0790  0.4181
   43DG      H8  974   5.191   3.126   2.669  2.5537 -0.5142  0.2893
   43DG      O9  975   4.702   3.554   2.736  0.1106  0.3582 -0.5580
   43DG     O10  976   5.120   3.250   2.509  1.3655  0.2581  0.3622
   43DG     C11  977   4.739   3.607   2.609  0.3462  0.3228  0.4089
   43DG     C12  978   4.982   3.206   2.536 -0.3811  0.0761 -0.4387
   43DG     H13  979   4.830   3.667   2.616  0.0822  0.9149 -1.0007
   43DG     H14  980   4.654   3.669   2.583  0.0150  0.2217  1.2049
   43DG     H15  981   4.956   3.210   2.642  0.1950  0.9581 -0.3131
   43DG     H16  982   4.972   3.102   2.507  1.5912 -0.6263  1.1782
   43DG     C17  983   4.765   3.499   2.499 -0.4468 -0.3579  0.1526
   43DG     C18  984   4.885   3.298   2.467  0.4718 -0.4828  0.8901
   43DG     O19  985   4.871   3.419   2.541 -0.1378 -0.0718 -0.1196
   43DG     H20  986   4.796   3.537   2.402 -0.8432  0.2127  0.2450
   43DG     H21  987   4.677   3.435   2.494 -0.2009 -0.7451  0.6487
   43DG     H22  988   4.906   3.313   2.361 -1.3952 -1.9909  0.2617
   43DG     H23  989   4.801   3.230   2.479 -0.6140  0.6589  0.0875
   44DG      C1  990   1.844   5.275   4.145  0.5314 -0.3644 -0.3925
   44DG      C2  991   2.261   5.877   4.559  0.1667  0.0859  0.0798
   44DG      H3  992   1.741   5.292   4.175  0.8153  0.6830  0.0416
   44DG      H4  993   1.848   5.177   4.098 -2.1065 -0.0530 -1.4265
   44DG      H5  994   1.856   5.338   4.057  0.7677  1.6296  0.9942
   44DG      H6  995   2.265   5.925   4.657 -0.5659 -1.0042  0.6635
   44DG      H7  996   2.339   5.918   4.495 -0.0235  1.2625  0.5801
   44DG      H8  997   2.162   5.909   4.527  0.9323 -0.0895 -2.6867
   44DG      O9  998   1.930   5.317   4.244 -1.0069  0.8733 -0.9564
   44DG     O10  999   2.268   5.731   4.565  0.5025 -0.6503  0.2376
   44DG     C11 1000   2.069   5.293   4.209  0.1790 -0.4363  0.2747
   44DG     C12 1001   2.208   5.683   4.447  0.1133  0.3785 -0.2929
   44DG     H13 1002   2.083   5.354   4.120 -0.4566  0.1095  0.5343
   44DG     H14 1003   2.080   5.188   4.180 -3.3134 -0.8790  0.1405
   44DG     H15 1004   2.243   5.739   4.360  0.2522  1.7823  0.6392
   44DG     H16 1005   2.100   5.694   4.440 -0.2545 -1.3939  1.6553
   44DG     C17 1006   2.162   5.348   4.318  0.2862 -0.5826 -0.7114
   44DG     C18 1007   2.237   5.530   4.434  0.6056 -0.5534 -0.2129
   44DG     O19 1008   2.145   5.485   4.343 -0.1508  0.1259  0.4534
   44DG     H20 1009   2.269   5.336   4.297  0.8013  0.2372  1.2094
   44DG     H21 1010   2.140   5.294   4.410  0.4077  1.5179  0.6425
   44DG     H22 1011   2.341   5.527   4.403  0.7761  1.0959  0.0898
   44DG     H23 1012   2.221   5.462   4.517  1.0941 -3.3879 -2.3032
   45DG      C1 1013   0.941   0.726   5.178 -0.2220 -0.3530  0.4284
   45DG      C2 1014   1.558   0.413   4.884 -0.2389  0.1277 -0.3280
   45DG      H3 1015   0.883   0.813   5.148 -0.8864 -0.7639  0.5006
   45DG      H4 1016   1.011   0.763   5.253  1.9086  0.8346 -2.0187
   45DG      H5 1017   0.864   0.659   5.219 -0.3100  0.0040  0.8594
   45DG      H6 1018   1.555   0.304   4.888  2.0198 -0.0197 -1.0283
   45DG      H7 1019   1.640   0.438   4.817 -1.3714 -1.7171 -2.5720
   45DG      H8 1020   1.583   0.457   4.980 -0.5926  1.3819 -0.7940
   45DG      O9 1021   1.008   0.678   5.069  0.1827 -0.2023 -0.1607
   45DG     O10 1022   1.426   0.466   4.854  0.0913  0.1184 -0.4618
   45DG     C11 1023   0.965   0.548   5.021 -0.6798  0.0843  0.3031
   45DG     C12 1024   1.343   0.383   4.770 -0.2950 -0.2964 -0.0407
   45DG     H13 1025   0.858   0.563   5.009 -0.3854  0.4848 -2.2940
   45DG     H14 1026   0.993   0.461   5.081  1.3724 -0.0431 -0.7519
   45DG     H15 1027   1.332   0.288   4.823 -2.2687 -0.5012 -0.7537
   45DG     H16 1028   1.391   0.361   4.675  1.2667  1.1542  0.3450
   45DG     C17 1029   1.020   0.525   4.878 -0.0857  0.1328  0.4846
   45DG     C18 1030   1.215   0.469   4.754 -0.0642 -0.2733  0.1487
   45DG     O19 1031   1.157   0.492   4.889  0.2933 -0.3717  0.0377
   45DG     H20 1032   0.998   0.610   4.813 -1.2323 -0.7571 -0.3374
   45DG     H21 1033   0.972   0.441   4.828  1.8260 -2.7862  3.1714
   45DG     H22 1034   1.236   0.559   4.695  1.5007 -1.3937 -1.0831
   45DG     H23 1035   1.149   0.410   4.691 -1.2550  1.3209 -0.1464
   46DG      C1 1036   3.640   4.238   2.104 -0.3350  0.4484 -0.1902
   46DG      C2 1037   3.344   3.812   1.644 -0.2090  0.4708 -0.4194
   46DG      H3 1038   3.659   4.343   2.122  0.8526  0.0760  0.8503
   46DG      H4 1039   3.734   4.185   2.089 -1.1095 -1.4862  1.3114
   46DG      H5 1040   3.593   4.194   2.192 -1.1786  0.2742 -0.7145
   46DG      H6 1041   3.280   3.800   1.556 -0.9495  1.0353  0.0332
   46DG      H7 1042   3.434   3.758   1.613 -1.3547 -2.5417  1.1193
   46DG      H8 1043   3.295   3.763   1.727 -1.0048  2.4440  0.3346
   46DG      O9 1044   3.550   4.220   1.999  0.4060  0.1975 -0.0236
   46DG     O10 1045   3.369   3.942   1.681  0.1384 -0.6342  0.5601
   46DG     C11 1046   3.431   4.296   2.026  0.5109 -0.3028 -0.3009
   46DG     C12 1047   3.253   4.021   1.681 -0.0798  0.2709 -0.7021
   46DG     H13 1048   3.448   4.399   2.058  1.8520 -0.8772  0.9596
   46DG     H14 1049   3.380   4.254   2.112  1.4213  1.2163  1.0609
   46DG     H15 1050   3.185   3.968   1.748 -1.6071  0.8367 -1.7612
   46DG     H16 1051   3.209   4.020   1.582  0.2952 -0.0779 -0.8699
   46DG     C17 1052   3.339   4.309   1.904  0.2728  0.3646  0.1969
   46DG     C18 1053   3.275   4.169   1.728  0.9663  0.0767  0.0229
   46DG     O19 1054   3.329   4.172   1.857 -0.4530  0.4530 -0.4463
   46DG     H20 1055   3.392   4.384   1.845  1.5465  1.8175  3.0087
   46DG     H21 1056   3.239   4.345   1.931 -1.0671 -2.3858 -0.7015
   46DG     H22 1057   3.340   4.212   1.652  0.9584 -1.0856 -0.6645
   46DG     H23 1058   3.180   4.223   1.734 -0.0716 -1.7913  1.5019
   47DG      C1 1059   0.387   5.065   3.517  0.8266 -0.1422 -0.2364
   47DG      C2 1060   0.858   5.003   3.036  0.0623 -0.4345  0.5617
   47DG      H3 1061   0.357   5.122   3.605 -0.6549 -0.8703 -0.2281
   47DG      H4 1062   0.481   5.021   3.550  0.3435 -1.1086 -0.1043
   47DG      H5 1063   0.310   4.989   3.505  0.6519 -0.3776  1.9761
   47DG      H6 1064   0.828   5.029   2.935  1.8596 -2.7010 -0.6545
   47DG      H7 1065   0.963   5.029   3.056 -0.8825  3.8730  1.0320
   47DG      H8 1066   0.832   4.898   3.040  1.9963 -0.9301  1.9802
   47DG      O9 1067   0.414   5.148   3.402  0.4451 -0.4797 -0.0128
   47DG     O10 1068   0.765   5.080   3.116  0.7996 -0.5541  0.0210
   47DG     C11 1069   0.492   5.263   3.425 -0.4668 -0.1749  0.0863
   47DG     C12 1070   0.782   5.222   3.094 -0.3327  0.4010 -0.5743
   47DG     H13 1071   0.593   5.238   3.460 -0.5521  1.6785  1.8916
   47DG     H14 1072   0.451   5.316   3.511 -0.3927 -0.8041  0.5198
   47DG     H15 1073   0.752   5.244   2.991 -0.6870  0.3609 -0.4831
   47DG     H16 1074   0.888   5.243   3.102  0.2695 -2.1902 -1.0631
   47DG     C17 1075   0.499   5.338   3.293  0.0590 -0.6299 -0.3418
   47DG     C18 1076   0.702   5.298   3.198 -0.0470  0.7396  0.3536
   47DG     O19 1077   0.565   5.265   3.194 -0.2616  0.4604 -0.4162
   47DG     H20 1078   0.532   5.440   3.314  0.3693 -1.0508  1.3758
   47DG     H21 1079   0.400   5.353   3.250 -0.0400  1.2636  0.4659
   47DG     H22 1080   0.741   5.270   3.295  0.8374  0.8291  0.0323
   47DG     H23 1081   0.724   5.405   3.198  3.9235  0.0563 -0.0077
   48DG      C1 1082   2.352   1.964   4.635 -0.2170 -0.6298 -0.6625
   48DG      C2 1083   2.766   2.363   4.221  0.1374 -0.3222 -0.8778
   48DG      H3 1084   2.246   1.982   4.624 -0.2139 -0.8141 -1.0117
   48DG      H4 1085   2.365   1.886   4.710 -2.9128  1.1156  1.8401
   48DG      H5 1086   2.393   1.944   4.536 -0.9262  1.1872 -1.3608
   48DG      H6 1087   2.847   2.302   4.181  1.6041  1.4173 -0.6962
   48DG      H7 1088   2.675   2.316   4.183 -0.6853  0.0470  0.5685
   48DG      H8 1089   2.771   2.470   4.198  1.5605  0.3540  2.1502
   48DG      O9 1090   2.407   2.085   4.687  0.0254  0.2103 -0.1509
   48DG     O10 1091   2.766   2.364   4.363 -0.3291 -0.1214 -0.2696
   48DG     C11 1092   2.549   2.084   4.681 -0.1682  0.0215  0.9801
   48DG     C12 1093   2.664   2.446   4.426 -0.9364 -0.3885  0.1974
   48DG     H13 1094   2.593   2.043   4.590  0.5369  4.8727 -1.1758
   48DG     H14 1095   2.578   2.029   4.770  0.0768 -2.9196 -0.7872
   48DG     H15 1096   2.563   2.431   4.387  0.0511 -2.8523 -1.6831
   48DG     H16 1097   2.692   2.550   4.408  0.0954 -0.2257  2.4232
   48DG     C17 1098   2.610   2.225   4.696  0.5686 -0.0447 -0.0251
   48DG     C18 1099   2.652   2.425   4.571 -0.1267 -0.3657 -1.4008
   48DG     O19 1100   2.571   2.314   4.586  0.0337 -0.4034  0.4033
   48DG     H20 1101   2.716   2.223   4.719  1.3024 -3.5268 -2.8557
   48DG     H21 1102   2.573   2.262   4.792  1.3546  0.2905  0.1546
   48DG     H22 1103   2.745   2.425   4.628 -0.0899 -1.5380 -1.4354
   48DG     H23 1104   2.604   2.510   4.619  0.2487 -1.4233  0.9985
   49DG      C1 1105   0.013   0.694   4.052  0.3420 -0.3804 -0.3714
   49DG      C2 1106   0.073   1.403   4.035 -0.2333 -0.5105 -0.3225
   49DG      H3 1107   0.103   0.673   4.110  0.0390 -0.0736  0.2075
   49DG      H4 1108  -0.024   0.602   4.006 -3.7350  2.0801 -2.5704
   49DG      H5 1109  -0.063   0.722   4.124 -0.9324  0.2467 -1.9028
   49DG      H6 1110   0.102   1.420   3.931 -0.2395  0.3710 -0.1857
   49DG      H7 1111   0.019   1.490   4.073  2.9855  0.8668  1.5455
   49DG      H8 1112   0.170   1.394   4.084  0.9208  0.7690 -2.2130
   49DG      O9 1113   0.032   0.799   3.966 -0.7529  1.0411 -0.0054
   49DG     O10 1114   0.007   1.283   4.064 -0.6232 -0.2366 -0.5081
   49DG     C11 1115  -0.086   0.812   3.884  0.5725 -0.4255 -0.7577
   49DG     C12 1116  -0.123   1.276   4.013 -0.9395 -0.1180  0.7392
   49DG     H13 1117  -0.144   0.720   3.884  0.4824 -0.4495  1.8107
   49DG     H14 1118  -0.062   0.832   3.780  0.1792 -2.1993 -1.2279
   49DG     H15 1119  -0.130   1.320   3.914  0.4580 -0.9448  0.2503
   49DG     H16 1120  -0.170   1.350   4.078 -0.2721 -0.7261  1.9627
   49DG     C17 1121  -0.184   0.917   3.940  0.2507 -0.0857 -0.2147
   49DG     C18 1122  -0.188   1.137   4.023  0.2469  0.0608 -0.1423
   49DG     O19 1123  -0.119   1.039   3.941 -0.0157 -0.3281  0.4158
   49DG     H20 1124  -0.219   0.883   4.038  0.7972  0.5673  0.2218
   49DG     H21 1125  -0.274   0.924   3.878 -0.5336 -1.2856  0.7411
   49DG     H22 1126  -0.183   1.096   4.125 -1.2762 -2.0906 -0.8495
   49DG     H23 1127  -0.292   1.153   3.995  0.1443 -1.9746 -1.1118
   50DG      C1 1128   3.610   2.583   4.926  0.3021 -0.7812  0.4940
   50DG      C2 1129   3.199   2.903   4.609 -0.3114 -0.3182 -0.0522
   50DG      H3 1130   3.645   2.671   4.873 -0.1149 -0.8992  0.0215
   50DG      H4 1131   3.676   2.497   4.909 -0.2673 -0.9482 -0.9704
   50DG      H5 1132   3.615   2.605   5.033 -1.3834 -2.5753  0.9984
   50DG      H6 1133   3.193   2.975   4.691  0.3045 -1.5737  1.1224
   50DG      H7 1134   3.295   2.922   4.562 -0.6568 -0.2205 -0.7262
   50DG      H8 1135   3.121   2.925   4.536 -0.4583  0.5101  0.3415
   50DG      O9 1136   3.474   2.571   4.891  0.3962  1.0649  0.3234
   50DG     O10 1137   3.194   2.775   4.667  0.2400  0.1445  0.0941
   50DG     C11 1138   3.395   2.474   4.966  0.7623 -0.5404  0.3287
   50DG     C12 1139   3.075   2.752   4.740  0.3069  0.1757 -0.1850
   50DG     H13 1140   3.366   2.530   5.055  0.1387  0.0910 -0.2658
   50DG     H14 1141   3.450   2.385   4.997  3.0425  0.3837 -0.8684
   50DG     H15 1142   2.988   2.761   4.675 -0.0285 -0.6220  0.1289
   50DG     H16 1143   3.065   2.826   4.820 -0.3165  0.1905 -0.2690
   50DG     C17 1144   3.262   2.453   4.884 -0.2186  0.9288  0.3563
   50DG     C18 1145   3.082   2.604   4.798  0.0219  0.8890 -0.0066
   50DG     O19 1146   3.215   2.587   4.851 -0.8663 -0.6464 -0.6953
   50DG     H20 1147   3.187   2.410   4.950 -0.5751  0.1550 -0.5377
   50DG     H21 1148   3.280   2.403   4.789  2.4366  2.0095  0.1987
   50DG     H22 1149   3.005   2.586   4.874 -1.4852  0.5119 -1.5615
   50DG     H23 1150   3.066   2.537   4.714 -1.2131  0.4329  0.5579
   51DG      C1 1151   2.246   0.943   5.364  0.2000 -0.0572  0.0133
   51DG      C2 1152   2.845   0.971   4.798 -0.5017 -0.1716 -0.0204
   51DG      H3 1153   2.192   0.856   5.401  1.3334 -0.5968  0.4551
   51DG      H4 1154   2.172   1.016   5.333 -1.3598 -1.2612  0.7288
   51DG      H5 1155   2.310   0.977   5.445  0.0441 -0.8182  0.4705
   51DG      H6 1156   2.951   0.946   4.789 -0.0802  1.2554  0.6853
   51DG      H7 1157   2.808   0.975   4.695  1.4843  1.2178 -0.7434
   51DG      H8 1158   2.845   1.064   4.855 -0.0830 -0.5859  0.6697
   51DG      O9 1159   2.327   0.902   5.252  0.2036 -0.5536  0.0528
   51DG     O10 1160   2.788   0.877   4.873 -0.3891  0.0448  0.1243
   51DG     C11 1161   2.248   0.838   5.151 -0.2711  0.2361 -0.4888
   51DG     C12 1162   2.661   0.933   4.920 -0.8616  0.0402 -0.0479
   51DG     H13 1163   2.188   0.913   5.101  0.8899  1.4224 -0.1586
   51DG     H14 1164   2.186   0.757   5.190  1.9095 -1.1947  0.2236
   51DG     H15 1165   2.616   0.996   4.843 -0.0707 -0.4995 -0.9719
   51DG     H16 1166   2.682   0.999   5.004 -2.2855 -2.0388  2.0612
   51DG     C17 1167   2.353   0.785   5.058  1.3531  0.1136 -0.1572
   51DG     C18 1168   2.565   0.819   4.951  0.9305  0.4550  0.1428
   51DG     O19 1169   2.459   0.872   5.033  0.2774  0.3355 -0.2839
   51DG     H20 1170   2.310   0.756   4.962 -0.1461  1.8929 -0.0863
   51DG     H21 1171   2.388   0.694   5.108  2.8758  2.3328  3.1427
   51DG     H22 1172   2.529   0.776   4.858 -1.7505 -0.8227  1.6661
   51DG     H23 1173   2.626   0.742   4.998 -1.1655 -1.2862  0.1584
   52DG      C1 1174   3.580   5.310   3.700  0.2886 -0.3598 -0.4515
   52DG      C2 1175   2.922   5.153   3.782  0.4192  0.0636  1.4294
   52DG      H3 1176   3.646   5.236   3.654 -0.6262 -0.5188 -1.5304
   52DG      H4 1177   3.643   5.375   3.761 -0.2368 -3.6529  4.0887
   52DG      H5 1178   3.533   5.363   3.618  0.7981 -0.8026 -1.0480
   52DG      H6 1179   2.853   5.070   3.768  0.8856 -0.1773  0.4740
   52DG      H7 1180   2.856   5.238   3.764  1.3799  0.4700 -0.5381
   52DG      H8 1181   2.996   5.141   3.702  0.4713 -0.8860  1.6142
   52DG      O9 1182   3.491   5.241   3.780  0.2191 -0.3000  0.3350
   52DG     O10 1183   2.986   5.171   3.901 -0.1011 -0.4919 -0.4809
   52DG     C11 1184   3.448   5.316   3.895  0.2898 -0.4174 -0.6256
   52DG     C12 1185   3.068   5.061   3.938  0.4296  0.1107 -0.0917
   52DG     H13 1186   3.364   5.381   3.870  0.9045  0.7822  0.2974
   52DG     H14 1187   3.523   5.386   3.933 -1.4097 -0.0904  2.5076
   52DG     H15 1188   3.119   5.019   3.851  1.5249  1.5020 -0.1499
   52DG     H16 1189   3.004   4.983   3.978 -0.9776  1.7567  1.0260
   52DG     C17 1190   3.389   5.221   4.008  0.1065  0.1220 -0.8531
   52DG     C18 1191   3.183   5.111   4.042  0.6819  0.3389  0.1592
   52DG     O19 1192   3.257   5.202   3.964  0.1135 -0.3027 -0.1257
   52DG     H20 1193   3.384   5.262   4.108 -0.5594  1.6415 -1.4773
   52DG     H21 1194   3.448   5.129   4.005  0.0774  0.1022 -0.8291
   52DG     H22 1195   3.135   5.163   4.125  1.2197 -1.2166  1.4826
   52DG     H23 1196   3.231   5.020   4.077  2.2401  0.7421 -0.8258
   53DG      C1 1197   2.300   2.688   4.875 -0.1449  1.0165 -0.8645
   53DG      C2 1198   2.732   3.305   5.059  0.3628 -0.2138  1.0233
   53DG      H3 1199   2.212   2.705   4.937 -0.2009  1.1041 -0.9668
   53DG      H4 1200   2.373   2.615   4.909  0.7078  2.1743 -0.1225
   53DG      H5 1201   2.269   2.673   4.771  0.2503  1.4482 -1.0458
   53DG      H6 1202   2.779   3.393   5.013 -2.3726  1.2109  0.7489
   53DG      H7 1203   2.650   3.344   5.119 -1.3164  0.8791 -1.7778
   53DG      H8 1204   2.796   3.254   5.132 -0.1857 -0.1776  1.5372
   53DG      O9 1205   2.380   2.801   4.857 -0.0332 -0.0177 -0.1333
   53DG     O10 1206   2.678   3.213   4.967 -0.3636  0.2754  0.4685
   53DG     C11 1207   2.412   2.865   4.979 -1.0269  0.1433 -0.2056
   53DG     C12 1208   2.579   3.263   4.883 -0.6564  0.4499 -0.6436
   53DG     H13 1209   2.466   2.803   5.052 -0.0107  1.1540 -0.0684
   53DG     H14 1210   2.333   2.920   5.030  1.1897  3.0826  0.3000
   53DG     H15 1211   2.631   3.344   4.832  1.6791 -1.0371 -0.8091
   53DG     H16 1212   2.494   3.306   4.935 -0.9722  0.4636 -1.1608
   53DG     C17 1213   2.509   2.973   4.939  0.3645 -0.4845  0.5294
   53DG     C18 1214   2.530   3.151   4.785  0.2108  0.2516 -0.4001
   53DG     O19 1215   2.450   3.053   4.845 -0.4767 -0.2201 -0.0966
   53DG     H20 1216   2.600   2.932   4.896  1.9843  1.5151  1.8676
   53DG     H21 1217   2.537   3.029   5.028  0.8097  2.2069 -1.1899
   53DG     H22 1218   2.476   3.190   4.700 -1.8340 -2.8591 -0.6845
   53DG     H23 1219   2.612   3.092   4.744  0.8241 -0.5738  1.8262
   54DG      C1 1220   3.481   5.340   3.200  0.6146  0.2446 -0.3103
   54DG      C2 1221   4.030   4.849   3.352 -0.7359  0.3979 -0.3363
   54DG      H3 1222   3.475   5.418   3.276 -3.1279  0.6619 -0.8363
   54DG      H4 1223   3.422   5.256   3.237  0.4911  1.0591  1.4188
   54DG      H5 1224   3.426   5.390   3.121  0.1725  0.3090  0.0315
   54DG      H6 1225   4.020   4.743   3.372 -0.7088  0.4673  0.0592
   54DG      H7 1226   4.138   4.860   3.345 -0.3508 -0.5650  2.5820
   54DG      H8 1227   3.986   4.900   3.439  0.4789 -0.0431  0.5632
   54DG      O9 1228   3.610   5.301   3.153  0.3186  0.0540  0.6342
   54DG     O10 1229   3.959   4.897   3.247 -0.0990 -0.0826 -0.0716
   54DG     C11 1230   3.585   5.210   3.045  0.0764 -0.2357 -0.4002
   54DG     C12 1231   4.014   5.016   3.192 -0.4688  0.2197 -0.1919
   54DG     H13 1232   3.531   5.260   2.965  1.9880  0.7212 -1.1585
   54DG     H14 1233   3.513   5.130   3.064  1.2450 -0.9137  1.4598
   54DG     H15 1234   4.116   5.006   3.155 -0.5465  2.9871 -1.3663
   54DG     H16 1235   4.027   5.097   3.264 -0.7442 -0.3148  0.4824
   54DG     C17 1236   3.723   5.160   2.996  0.2367 -0.8518  0.5623
   54DG     C18 1237   3.938   5.068   3.073  0.3791 -0.0775  0.5570
   54DG     O19 1238   3.802   5.110   3.106 -0.3602  0.1790 -0.5108
   54DG     H20 1239   3.784   5.240   2.953 -0.7384 -0.5595 -0.3351
   54DG     H21 1240   3.721   5.090   2.912  1.7827 -1.1992  0.7863
   54DG     H22 1241   4.004   5.137   3.020 -2.8416  1.8605 -1.3247
   54DG     H23 1242   3.931   4.979   3.011  1.5736  0.2916 -0.1416
   55DG      C1 1243   1.742   1.184   3.826 -0.8725 -0.4568 -0.1813
   55DG      C2 1244   1.470   0.491   4.090  0.8661 -0.2657 -0.4714
   55DG      H3 1245   1.773   1.170   3.722  0.0794  0.2301 -0.0116
   55DG      H4 1246   1.822   1.222   3.891 -1.8893 -1.8334  1.9995
   55DG      H5 1247   1.662   1.257   3.816 -0.3353  0.4130  1.4828
   55DG      H6 1248   1.376   0.544   4.105  1.9885  1.5910  0.4813
   55DG      H7 1249   1.451   0.390   4.054 -0.5136 -0.4282  0.6342
   55DG      H8 1250   1.507   0.483   4.192  0.8634 -3.3007 -0.6236
   55DG      O9 1251   1.695   1.063   3.879 -0.1703 -0.2417 -0.2203
   55DG     O10 1252   1.567   0.569   4.016 -0.0894 -0.3991  0.0554
   55DG     C11 1253   1.619   0.988   3.786 -0.2060  0.0914 -0.5852
   55DG     C12 1254   1.607   0.689   4.076  0.2329 -0.0174 -0.4589
   55DG     H13 1255   1.668   0.972   3.690 -0.6156 -1.3966 -0.5660
   55DG     H14 1256   1.533   1.048   3.755 -0.1661 -0.0480 -0.9672
   55DG     H15 1257   1.654   0.664   4.171 -1.4778  0.0661  0.4605
   55DG     H16 1258   1.521   0.754   4.096  0.8840  0.8485 -0.4102
   55DG     C17 1259   1.567   0.857   3.839  0.4668  0.1788 -0.0106
   55DG     C18 1260   1.709   0.763   3.992  0.6186 -0.4003  0.8335
   55DG     O19 1261   1.659   0.751   3.861  0.4073  0.5647  0.0567
   55DG     H20 1262   1.499   0.830   3.758  0.1622 -3.8361  1.3203
   55DG     H21 1263   1.512   0.882   3.930  1.6467  1.0498  0.4916
   55DG     H22 1264   1.726   0.863   4.032  0.0041  0.8363 -1.8131
   55DG     H23 1265   1.805   0.710   3.998  1.0763  0.4346  1.0454
   56DG      C1 1266   4.021   4.195   0.985  0.7839  0.1940  0.6837
   56DG      C2 1267   3.838   4.134   0.107  0.4265  0.2518  0.3993
   56DG      H3 1268   3.916   4.167   0.987  1.2395 -2.0156 -1.1753
   56DG      H4 1269   4.046   4.297   0.954  0.7148  0.0324  0.0840
   56DG      H5 1270   4.054   4.170   1.086  0.5838 -1.2050  0.4242
   56DG      H6 1271   3.911   4.064   0.067 -0.4859 -0.4811 -0.0173
   56DG      H7 1272   3.742   4.085   0.094 -0.1371  1.7442 -1.4885
   56DG      H8 1273   3.840   4.221   0.041  1.0620 -1.9222 -2.6192
   56DG      O9 1274   4.081   4.102   0.886  0.7453  0.2318 -0.4882
   56DG     O10 1275   3.861   4.160   0.243 -0.1985 -0.2066 -0.0620
   56DG     C11 1276   4.010   4.098   0.755  0.3476  0.7156  0.2574
   56DG     C12 1277   3.881   4.055   0.334 -0.2019  0.1607  0.8426
   56DG     H13 1278   3.974   4.198   0.730 -1.2395  0.3880  1.1600
   56DG     H14 1279   3.920   4.037   0.756 -0.0770  1.2497 -1.5715
   56DG     H15 1280   3.935   3.974   0.284  1.8284  3.0296 -2.0695
   56DG     H16 1281   3.786   4.012   0.367  0.6428 -1.8851  0.7214
   56DG     C17 1282   4.089   4.037   0.643 -0.5677 -0.4267  0.0582
   56DG     C18 1283   3.966   4.100   0.448  0.2715  0.4320  0.5613
   56DG     O19 1284   4.001   3.995   0.541 -0.1041 -0.0461 -0.0367
   56DG     H20 1285   4.141   3.949   0.681  0.7556  0.7237  1.0229
   56DG     H21 1286   4.174   4.102   0.621 -1.0535  0.4785  0.8095
   56DG     H22 1287   4.057   4.136   0.400 -0.3855  1.5947  0.1439
   56DG     H23 1288   3.916   4.183   0.497  1.0186  2.0858 -1.3146
   57DG      C1 1289   2.916   5.434   1.279  0.7296 -0.6771  0.1717
   57DG      C2 1290   2.227   5.853   1.589 -0.4873  0.1740  0.3924
   57DG      H3 1291   2.883   5.331   1.262  3.5227 -1.3414 -2.1301
   57DG      H4 1292   2.976   5.433   1.370  1.5989  0.1426 -0.3760
   57DG      H5 1293   2.992   5.468   1.209  0.7583  2.8153  1.7189
   57DG      H6 1294   2.152   5.918   1.544  1.8420  1.0364 -2.5385
   57DG      H7 1295   2.201   5.754   1.551 -1.8340  0.9298 -0.7516
   57DG      H8 1296   2.216   5.849   1.697  1.0165  0.0171  0.5619
   57DG      O9 1297   2.809   5.530   1.264 -0.0592 -0.2421  0.0866
   57DG     O10 1298   2.352   5.904   1.543  0.4334  0.5002 -0.3455
   57DG     C11 1299   2.854   5.649   1.316 -0.2933  1.1793 -1.2371
   57DG     C12 1300   2.461   5.811   1.549  0.1195  0.2668 -0.2556
   57DG     H13 1301   2.937   5.685   1.256  0.5868 -0.2048 -0.8936
   57DG     H14 1302   2.900   5.631   1.413  1.1688  0.2735 -2.0508
   57DG     H15 1303   2.431   5.707   1.561  2.1361 -0.4514 -1.0539
   57DG     H16 1304   2.521   5.824   1.639  1.0091 -1.2680 -0.5952
   57DG     C17 1305   2.740   5.757   1.315 -0.9095  0.1452 -0.4979
   57DG     C18 1306   2.545   5.838   1.425 -0.1768  0.5483 -0.7697
   57DG     O19 1307   2.643   5.729   1.417  0.1539  0.3377 -0.2583
   57DG     H20 1308   2.689   5.767   1.220 -0.6536 -1.1702 -0.7948
   57DG     H21 1309   2.798   5.847   1.335  1.1789 -1.0967 -0.6162
   57DG     H22 1310   2.487   5.837   1.333 -2.3193 -0.3911  0.5233
   57DG     H23 1311   2.595   5.934   1.439  1.0780 -0.0506 -0.9799
   58DG      C1 1312   1.863   5.284   1.223 -0.0279 -0.0881  0.4191
   58DG      C2 1313   2.542   5.266   1.286  0.0650  0.1170 -0.0981
   58DG      H3 1314   1.761   5.321   1.232 -0.2170 -0.4927 -0.0328
   58DG      H4 1315   1.858   5.176   1.220 -0.2271 -0.0543 -1.1677
   58DG      H5 1316   1.907   5.327   1.132 -0.4064 -1.3268 -0.3707
   58DG      H6 1317   2.634   5.290   1.233  0.5389 -0.5601  0.3907
   58DG      H7 1318   2.555   5.286   1.392 -0.5091 -2.1351  0.4715
   58DG      H8 1319   2.524   5.158   1.278 -0.7376 -0.1210  3.1982
   58DG      O9 1320   1.954   5.328   1.320 -0.0068  0.0239  0.2009
   58DG     O10 1321   2.431   5.334   1.231  0.1053 -0.2537 -0.2268
   58DG     C11 1322   1.959   5.469   1.336  0.0149 -0.3612  0.6990
   58DG     C12 1323   2.438   5.477   1.252 -0.1723 -0.1264 -0.4729
   58DG     H13 1324   1.971   5.494   1.442  0.2148  0.2710  0.5326
   58DG     H14 1325   1.865   5.516   1.309 -0.6778 -1.6354  0.7997
   58DG     H15 1326   2.516   5.528   1.197 -0.6385 -1.1956 -2.1875
   58DG     H16 1327   2.453   5.497   1.358 -1.3219 -1.6658  0.0253
   58DG     C17 1328   2.070   5.543   1.261  0.5555 -0.5901  0.0310
   58DG     C18 1329   2.302   5.545   1.226  0.0795  1.0205  0.7234
   58DG     O19 1330   2.199   5.494   1.300  0.2689  0.1142  0.6551
   58DG     H20 1331   2.071   5.648   1.290 -0.7175 -0.2539 -1.0414
   58DG     H21 1332   2.058   5.547   1.153 -2.4441  2.7413  0.3140
   58DG     H22 1333   2.300   5.654   1.237 -1.9193  0.9843  1.0025
   58DG     H23 1334   2.274   5.527   1.122 -0.1046  0.2813  0.8982
   59DG      C1 1335   4.466   1.468   0.069  0.7094 -0.1415 -0.0981
   59DG      C2 1336   4.620   1.072   0.465  0.0425  0.4710 -0.2914
   59DG      H3 1337   4.428   1.402  -0.010  0.2275 -0.6535  0.5478
   59DG      H4 1338   4.574   1.475   0.055  0.4776  0.0186 -2.0668
   59DG      H5 1339   4.397   1.551   0.057 -0.7871 -1.3836 -0.4975
   59DG      H6 1340   4.718   1.052   0.423  0.6152  1.8293  0.3087
   59DG      H7 1341   4.592   0.997   0.539  1.8031  1.0812  1.0529
   59DG      H8 1342   4.543   1.068   0.387  2.1708 -1.7623 -2.4275
   59DG      O9 1343   4.455   1.409   0.195  0.2399  0.0019  0.1718
   59DG     O10 1344   4.615   1.194   0.536  0.1485  0.4507  0.0606
   59DG     C11 1345   4.310   1.415   0.228 -0.1975 -0.7947  0.1933
   59DG     C12 1346   4.503   1.209   0.630  0.3774  0.2147 -0.3321
   59DG     H13 1347   4.246   1.394   0.143 -1.9436  1.2617  0.9142
   59DG     H14 1348   4.273   1.507   0.273 -1.1273  0.0741 -2.2105
   59DG     H15 1349   4.504   1.307   0.678  0.4386  0.4674 -0.8407
   59DG     H16 1350   4.491   1.130   0.704 -1.0108  1.8316  1.2573
   59DG     C17 1351   4.304   1.300   0.331 -0.6164 -0.4673 -0.4878
   59DG     C18 1352   4.376   1.220   0.542 -0.1957  0.0095  0.1638
   59DG     O19 1353   4.395   1.320   0.443 -0.6300 -0.2969  0.4535
   59DG     H20 1354   4.330   1.205   0.283  0.7488 -0.8984  1.0200
   59DG     H21 1355   4.203   1.293   0.372  0.1020  0.1530  1.5048
   59DG     H22 1356   4.345   1.128   0.493  0.9855  0.8399 -2.2490
   59DG     H23 1357   4.290   1.242   0.606 -1.6001 -2.5934 -0.6636
   60DG      C1 1358   0.842   4.756   3.817  0.0385  0.4490  0.7027
   60DG      C2 1359   0.711   4.898   4.539 -0.2877 -0.2119  0.7089
   60DG      H3 1360   0.864   4.784   3.714  1.2388 -1.4808  0.3833
   60DG      H4 1361   0.801   4.655   3.818 -0.3690  0.5284 -2.0065
   60DG      H5 1362   0.935   4.755   3.875  0.0098 -0.5322  0.7549
   60DG      H6 1363   0.680   4.998   4.568 -1.2277 -0.9890  2.5634
   60DG      H7 1364   0.618   4.841   4.543 -0.3344 -0.1692  0.2201
   60DG      H8 1365   0.781   4.876   4.620  2.1377  1.1856 -0.8543
   60DG      O9 1366   0.746   4.839   3.874 -0.1628  0.0624 -0.1706
   60DG     O10 1367   0.780   4.909   4.410  0.1500 -0.4608  0.6673
   60DG     C11 1368   0.783   4.974   3.868  0.4061  0.3488 -0.0313
   60DG     C12 1369   0.684   4.936   4.302 -0.5511 -0.4644  0.4856
   60DG     H13 1370   0.767   5.014   3.768 -0.6643  1.5311  0.5910
   60DG     H14 1371   0.883   4.999   3.904 -0.2832  2.6488  0.4843
   60DG     H15 1372   0.633   5.026   4.335  1.1935  1.2409 -1.2025
   60DG     H16 1373   0.614   4.852   4.296  0.9486 -2.0837  3.2021
   60DG     C17 1374   0.684   5.051   3.961  0.1260 -0.2096  0.6686
   60DG     C18 1375   0.756   4.971   4.172 -0.4768 -0.2837  0.3026
   60DG     O19 1376   0.649   4.986   4.080  0.0847 -0.0510  0.2011
   60DG     H20 1377   0.598   5.060   3.895  1.1362  0.2349 -0.6442
   60DG     H21 1378   0.714   5.155   3.973 -0.9121  0.2599 -0.5255
   60DG     H22 1379   0.810   5.064   4.182  0.6455 -1.0335  1.5003
   60DG     H23 1380   0.831   4.897   4.144  0.5930 -0.1581  2.6095
   61DG      C1 1381   3.579   4.103   0.580 -0.0308  0.2276  0.1655
   61DG      C2 1382   3.044   3.612   0.233  0.0630 -0.0380  0.3219
   61DG      H3 1383   3.538   4.118   0.679 -0.1384  0.4753  0.0841
   61DG      H4 1384   3.538   4.174   0.508  0.2868 -0.5871 -0.8482
   61DG      H5 1385   3.688   4.115   0.581 -0.1094  1.5547 -1.4236
   61DG      H6 1386   2.947   3.586   0.277  1.2651 -3.1866  1.3716
   61DG      H7 1387   3.017   3.709   0.191 -0.8026 -0.1549  0.5837
   61DG      H8 1388   3.062   3.532   0.162  1.6187 -0.1401  0.7923
   61DG      O9 1389   3.564   3.968   0.530 -0.2443 -0.0969  0.8306
   61DG     O10 1390   3.138   3.620   0.334  0.0339  0.3141  0.1442
   61DG     C11 1391   3.490   3.875   0.614 -0.3865 -0.1580 -0.2985
   61DG     C12 1392   3.275   3.622   0.283  0.7325  0.6307 -0.1910
   61DG     H13 1393   3.385   3.907   0.620 -0.1077  1.3603 -2.4427
   61DG     H14 1394   3.548   3.879   0.706  2.6543 -1.3293 -2.0408
   61DG     H15 1395   3.293   3.716   0.232  0.3881  1.8599  1.8314
   61DG     H16 1396   3.292   3.546   0.207 -1.5986 -1.5501  1.3164
   61DG     C17 1397   3.496   3.733   0.555 -0.5264  0.7596  0.2116
   61DG     C18 1398   3.379   3.604   0.394  0.4756 -0.4411  0.4253
   61DG     O19 1399   3.394   3.730   0.458  0.4763 -0.7670  0.3654
   61DG     H20 1400   3.488   3.660   0.636  1.8571  1.3051  1.0240
   61DG     H21 1401   3.591   3.727   0.502  0.0573  2.9005  0.9352
   61DG     H22 1402   3.357   3.516   0.454 -0.9854 -2.9974 -3.4217
   61DG     H23 1403   3.471   3.572   0.345  1.7297  0.4283  2.1202
   62DG      C1 1404   1.297   2.829   1.973 -0.4070 -0.1906 -0.2488
   62DG      C2 1405   0.894   2.486   2.596 -0.2895 -0.5527  0.4283
   62DG      H3 1406   1.389   2.804   1.921  1.1907 -1.0976  2.7617
   62DG      H4 1407   1.315   2.800   2.077  1.0971  0.7256 -0.2295
   62DG      H5 1408   1.290   2.937   1.959 -0.3462 -0.4450 -2.5648
   62DG      H6 1409   0.801   2.540   2.579 -1.8620 -1.5231  4.5934
   62DG      H7 1410   0.884   2.381   2.569  2.8169 -0.5391 -1.2606
   62DG      H8 1411   0.906   2.487   2.705 -0.2400 -0.7197  0.4244
   62DG      O9 1412   1.192   2.751   1.934  0.3645  0.4022 -0.1040
   62DG     O10 1413   0.997   2.551   2.523 -0.1512  0.2462  0.0927
   62DG     C11 1414   1.067   2.774   1.988  0.6791  0.4010 -0.2856
   62DG     C12 1415   0.976   2.565   2.381 -0.1645 -0.6527  0.3504
   62DG     H13 1416   1.016   2.695   1.932  1.9329 -0.6599  0.0289
   62DG     H14 1417   1.028   2.870   1.955 -1.3503  0.7425  2.6610
   62DG     H15 1418   0.884   2.621   2.361  0.9733  1.1664  0.0154
   62DG     H16 1419   0.960   2.466   2.337 -0.2231  0.2659 -1.8244
   62DG     C17 1420   1.048   2.779   2.138  0.1046 -0.3653  0.8197
   62DG     C18 1421   1.103   2.640   2.321  0.3975  0.4407 -0.3006
   62DG     O19 1422   1.085   2.652   2.184 -0.7497  0.1737 -0.5658
   62DG     H20 1423   0.944   2.804   2.159  0.1503  1.4403 -0.8257
   62DG     H21 1424   1.117   2.852   2.180  0.6309 -0.4245  0.0878
   62DG     H22 1425   1.112   2.734   2.375 -1.5025 -0.0558  0.9941
   62DG     H23 1426   1.186   2.571   2.336  1.6867  2.1151  0.4387
   63DG      C1 1427   0.288   4.309   0.294 -0.5924 -0.1927  0.2248
   63DG      C2 1428  -0.089   4.333   0.610 -0.0949  0.3499 -0.5276
   63DG      H3 1429   0.187   4.336   0.265  0.1452  2.0075 -0.4544
   63DG      H4 1430   0.292   4.201   0.306 -2.7478 -0.2841  0.4020
   63DG      H5 1431   0.363   4.347   0.224 -0.6824  0.6614  0.5818
   63DG      H6 1432  -0.150   4.279   0.682 -1.2107  1.6383 -0.4586
   63DG      H7 1433  -0.157   4.358   0.529  1.4925  1.5345 -1.5678
   63DG      H8 1434  -0.008   4.273   0.568  1.6914  2.5804 -0.4712
   63DG      O9 1435   0.315   4.379   0.414 -0.0890  0.7331  0.1521
   63DG     O10 1436  -0.045   4.441   0.692  0.0409 -0.3928  0.0679
   63DG     C11 1437   0.316   4.524   0.406 -0.5580 -0.1849  0.7955
   63DG     C12 1438   0.065   4.420   0.781 -0.4378 -0.6939 -0.0023
   63DG     H13 1439   0.228   4.571   0.364 -0.4662  0.5043  1.3541
   63DG     H14 1440   0.407   4.562   0.359 -1.7729  1.6888 -0.1655
   63DG     H15 1441   0.055   4.328   0.839  0.7857 -1.2201 -0.5915
   63DG     H16 1442   0.050   4.502   0.851  2.1887  1.9574 -2.2971
   63DG     C17 1443   0.326   4.563   0.555 -0.2933 -0.3549 -0.2776
   63DG     C18 1444   0.204   4.428   0.712  0.1224 -0.0646 -0.3562
   63DG     O19 1445   0.201   4.541   0.623 -0.1713  0.3362 -0.5988
   63DG     H20 1446   0.355   4.667   0.556 -0.2798 -0.3215 -1.6391
   63DG     H21 1447   0.412   4.510   0.594  0.0189 -1.2230 -2.0102
   63DG     H22 1448   0.278   4.441   0.790 -0.0179 -1.0650 -0.0470
   63DG     H23 1449   0.240   4.343   0.654 -0.7620 -0.1058 -0.8602
   64DG      C1 1450   2.198   2.547   0.524 -0.3790 -0.3238  0.6192
   64DG      C2 1451   2.285   2.007   0.245 -0.5620 -0.4296  0.3912
   64DG      H3 1452   2.219   2.646   0.565  2.2401 -0.1042 -0.9747
   64DG      H4 1453   2.173   2.480   0.605  2.1929 -0.5987  1.2874
   64DG      H5 1454   2.121   2.553   0.447 -0.7811 -0.0927  1.0341
   64DG      H6 1455   2.194   1.979   0.299  0.8315 -0.3760  2.8807
   64DG      H7 1456   2.246   2.034   0.147  1.7746 -1.2857 -0.8321
   64DG      H8 1457   2.341   1.914   0.253  0.4225  0.0795 -0.3787
   64DG      O9 1458   2.310   2.499   0.447  0.6155  0.1713  0.5185
   64DG     O10 1459   2.357   2.109   0.315  0.2055 -0.3261  0.1141
   64DG     C11 1460   2.432   2.508   0.515 -0.0042  0.2111 -1.0132
   64DG     C12 1461   2.496   2.079   0.325 -0.0425  0.7665  0.9304
   64DG     H13 1462   2.430   2.454   0.610 -1.2668  1.6696 -0.1746
   64DG     H14 1463   2.463   2.612   0.515  0.0245  0.2083 -1.7616
   64DG     H15 1464   2.530   2.026   0.236 -0.6111  1.5120  0.2500
   64DG     H16 1465   2.520   2.034   0.421  0.4371 -1.1912 -0.0486
   64DG     C17 1466   2.535   2.432   0.425  0.3577  0.2310 -0.0840
   64DG     C18 1467   2.557   2.219   0.321 -0.3574 -0.1047  0.1910
   64DG     O19 1468   2.505   2.295   0.429 -0.2561  0.5612 -0.0017
   64DG     H20 1469   2.635   2.444   0.467  0.5939  0.2919 -0.6628
   64DG     H21 1470   2.526   2.466   0.322 -1.7166  0.0498 -0.0072
   64DG     H22 1471   2.666   2.207   0.318 -0.3981 -0.4228  0.0157
   64DG     H23 1472   2.533   2.271   0.229  0.7944 -1.1071 -0.7097
   65DG      C1 1473   3.796   3.041   2.524  0.7151 -0.0496  0.4633
   65DG      C2 1474   3.337   3.042   2.048 -0.2450 -0.3774  0.9783
   65DG      H3 1475   3.829   3.061   2.626 -0.2029 -0.6729  0.9063
   65DG      H4 1476   3.845   3.095   2.444 -0.9250  0.9618  0.0984
   65DG      H5 1477   3.821   2.935   2.512  1.3719  0.1422  0.0643
   65DG      H6 1478   3.356   3.131   1.987  0.9599 -1.4091 -0.2208
   65DG      H7 1479   3.387   2.949   2.020 -1.1890 -0.5038 -0.3595
   65DG      H8 1480   3.232   3.027   2.024  0.0485 -2.7052  0.9372
   65DG      O9 1481   3.660   3.070   2.510 -0.2948 -0.4300 -0.2042
   65DG     O10 1482   3.352   3.077   2.187  0.0997 -0.8079  0.0117
   65DG     C11 1483   3.621   3.200   2.551 -0.6665  0.7851  0.2392
   65DG     C12 1484   3.266   3.183   2.232 -0.2679  0.3223  0.1088
   65DG     H13 1485   3.679   3.280   2.504 -2.9923  2.0161 -0.7189
   65DG     H14 1486   3.642   3.214   2.657 -0.5797 -0.6978  0.4312
   65DG     H15 1487   3.166   3.153   2.202  1.4882 -3.1550 -3.2188
   65DG     H16 1488   3.279   3.279   2.181 -0.0067 -0.2326 -0.8988
   65DG     C17 1489   3.463   3.213   2.543 -0.8976  0.1964  0.7920
   65DG     C18 1490   3.293   3.203   2.380  0.0430  0.1561  0.3592
   65DG     O19 1491   3.428   3.225   2.401 -0.3114  1.0334 -0.2019
   65DG     H20 1492   3.418   3.297   2.597 -2.8228 -0.1757 -0.1401
   65DG     H21 1493   3.424   3.117   2.577 -1.5381  0.3754  0.5636
   65DG     H22 1494   3.235   3.282   2.427 -0.0804  0.3422 -0.1018
   65DG     H23 1495   3.271   3.106   2.427 -0.1097 -0.1277 -0.2874
   66DG      C1 1496   0.119   2.249   0.873  0.2746 -0.0240  0.5937
   66DG      C2 1497   0.009   2.886   0.860 -0.3131  0.1278 -0.2520
   66DG      H3 1498   0.137   2.170   0.946  0.7992 -0.3476  0.1183
   66DG      H4 1499   0.213   2.283   0.832 -0.1171  0.7192  0.2943
   66DG      H5 1500   0.058   2.204   0.794  1.2642 -0.8391  0.2670
   66DG      H6 1501   0.054   2.983   0.841  0.3197 -0.1959 -0.4176
   66DG      H7 1502   0.079   2.826   0.918 -1.0202 -1.9294 -1.4033
   66DG      H8 1503  -0.007   2.827   0.769  2.8653 -1.3858  0.0314
   66DG      O9 1504   0.049   2.353   0.937  0.3057 -0.1287  0.0484
   66DG     O10 1505  -0.122   2.910   0.925  0.0130  0.4935  0.1037
   66DG     C11 1506   0.115   2.435   1.025  0.1625 -0.7310 -0.1874
   66DG     C12 1507  -0.203   2.797   0.948  0.1923  0.5761  0.4430
   66DG     H13 1508   0.198   2.492   0.983  0.4966  0.6716  2.2104
   66DG     H14 1509   0.176   2.387   1.102 -1.1768 -1.4579  0.4592
   66DG     H15 1510  -0.221   2.749   0.852  0.1205 -0.8149  1.1224
   66DG     H16 1511  -0.301   2.827   0.982 -0.6678  2.1128 -2.9470
   66DG     C17 1512   0.017   2.533   1.086  0.0530  0.1680  0.5949
   66DG     C18 1513  -0.149   2.691   1.043 -0.0867  0.0078 -0.4572
   66DG     O19 1514  -0.042   2.604   0.984  0.7870 -0.4997  0.3700
   66DG     H20 1515   0.061   2.602   1.158 -0.5562 -0.2945  1.4212
   66DG     H21 1516  -0.055   2.468   1.135 -1.6724 -0.2778 -2.2504
   66DG     H22 1517  -0.121   2.757   1.125  1.3470  0.4291 -1.2588
   66DG     H23 1518  -0.225   2.625   1.085  0.5037 -0.9961 -0.9357
   67DG      C1 1519   2.650   4.173   4.618  0.0329 -0.0249 -0.4814
   67DG      C2 1520   3.078   3.733   4.851 -0.6698 -0.2018  0.2667
   67DG      H3 1521   2.678   4.232   4.706 -1.2970 -1.2069  0.8064
   67DG      H4 1522   2.584   4.102   4.669 -0.9289  1.4824  0.4697
   67DG      H5 1523   2.605   4.232   4.538 -1.6943 -2.1124 -1.1378
   67DG      H6 1524   3.041   3.793   4.935 -2.9623  0.9931 -1.4932
   67DG      H7 1525   3.031   3.635   4.855  0.3977 -0.7850 -0.6783
   67DG      H8 1526   3.185   3.713   4.861 -0.4747  0.3976 -0.4869
   67DG      O9 1527   2.769   4.107   4.578 -0.4215  0.5766 -0.1175
   67DG     O10 1528   3.051   3.802   4.727  0.2023 -0.3149 -0.3436
   67DG     C11 1529   2.744   4.007   4.481 -0.5998 -0.5311  0.3326
   67DG     C12 1530   3.096   3.739   4.612  0.0808  1.0015  0.1991
   67DG     H13 1531   2.690   4.063   4.405  0.1422  0.1474  0.2987
   67DG     H14 1532   2.688   3.922   4.519  2.4447 -3.2436 -0.7890
   67DG     H15 1533   3.066   3.634   4.609  1.5885  0.3853  2.7757
   67DG     H16 1534   3.205   3.741   4.617  0.3936 -3.6291 -0.0397
   67DG     C17 1535   2.873   3.958   4.429 -0.4436  0.0813 -0.5326
   67DG     C18 1536   3.057   3.820   4.495  0.2518  0.6426  1.2634
   67DG     O19 1537   2.925   3.861   4.522 -0.0904 -0.0243  0.5295
   67DG     H20 1538   2.938   4.043   4.410  2.8316 -2.3443 -1.1392
   67DG     H21 1539   2.863   3.899   4.338  0.2280 -1.9265  0.6112
   67DG     H22 1540   3.122   3.907   4.485  0.9051 -0.0107 -0.5162
   67DG     H23 1541   3.062   3.774   4.397 -0.0880  0.5877  1.2710
   68DG      C1 1542   4.256   0.414   0.350 -0.4219  0.5475  0.3101
   68DG      C2 1543   4.124   0.846  -0.305 -0.2641  0.6521 -0.2265
   68DG      H3 1544   4.252   0.323   0.290  1.1658  2.2030 -2.5112
   68DG      H4 1545   4.212   0.414   0.450  2.3664  1.0021  1.6543
   68DG      H5 1546   4.363   0.438   0.350  0.3740 -2.5249 -0.4130
   68DG      H6 1547   4.221   0.892  -0.288  1.0638 -1.6774 -1.0449
   68DG      H7 1548   4.117   0.781  -0.392 -3.9900  0.6311 -0.0699
   68DG      H8 1549   4.052   0.921  -0.337 -0.1831  0.6374 -0.4485
   68DG      O9 1550   4.203   0.519   0.278  0.6158 -0.2830 -0.6412
   68DG     O10 1551   4.092   0.776  -0.185  0.0998 -0.0710 -0.0928
   68DG     C11 1552   4.072   0.487   0.237  0.8006 -0.1902 -0.7297
   68DG     C12 1553   4.093   0.850  -0.061  0.2986  0.5411  0.1578
   68DG     H13 1554   4.019   0.417   0.302 -0.0231 -0.7165 -1.9304
   68DG     H14 1555   4.081   0.417   0.154 -1.0064  0.9042 -1.9225
   68DG     H15 1556   4.031   0.936  -0.084 -0.2510 -0.0133 -0.4722
   68DG     H16 1557   4.190   0.896  -0.043 -0.7892  2.5658  1.2117
   68DG     C17 1558   3.995   0.615   0.211 -0.0142 -0.5966 -0.2913
   68DG     C18 1559   4.000   0.786   0.043 -0.4135  0.9461 -0.6218
   68DG     O19 1560   4.066   0.677   0.103  0.3696 -0.2260 -0.2957
   68DG     H20 1561   3.975   0.680   0.296 -1.1478 -1.3348  0.0246
   68DG     H21 1562   3.895   0.582   0.182 -0.1466 -0.4727  0.0271
   68DG     H22 1563   3.992   0.861   0.121 -0.1601  1.7337 -1.3343
   68DG     H23 1564   3.901   0.760   0.007 -0.3878 -0.0593 -0.0133
   69DG      C1 1565   3.772   2.869   1.324  0.3439 -0.2635 -0.9976
   69DG      C2 1566   3.731   3.615   1.333 -0.0300 -0.7195 -0.0638
   69DG      H3 1567   3.869   2.870   1.275  0.1488 -0.1653 -1.3862
   69DG      H4 1568   3.716   2.789   1.276 -1.5133  1.3704 -1.6771
   69DG      H5 1569   3.785   2.849   1.430 -2.1059 -0.5776 -0.7061
   69DG      H6 1570   3.823   3.622   1.274  0.0138  1.4016  0.1941
   69DG      H7 1571   3.659   3.653   1.261  0.7797  0.8983 -0.0726
   69DG      H8 1572   3.739   3.694   1.407 -2.5706 -0.6978  0.2751
   69DG      O9 1573   3.700   2.997   1.312 -0.2465  0.6351 -0.9874
   69DG     O10 1574   3.703   3.485   1.385  0.3146  0.3116 -0.1132
   69DG     C11 1575   3.574   2.989   1.384 -0.0458  0.4645  0.1930
   69DG     C12 1576   3.595   3.476   1.479  0.4502 -0.5667 -0.8254
   69DG     H13 1577   3.595   2.965   1.488 -3.1594 -1.3278  0.5126
   69DG     H14 1578   3.520   2.901   1.350  0.7083 -0.4243  1.2542
   69DG     H15 1579   3.525   3.560   1.480  0.7465 -0.2492  2.4984
   69DG     H16 1580   3.629   3.477   1.582 -0.5128  1.4814 -0.4786
   69DG     C17 1581   3.504   3.122   1.389  0.0656 -0.9408 -0.4256
   69DG     C18 1582   3.517   3.348   1.446  0.3668  0.9333  0.0422
   69DG     O19 1583   3.591   3.227   1.432 -0.2055  0.0217  0.1198
   69DG     H20 1584   3.410   3.128   1.444  0.3199 -0.0838 -0.0580
   69DG     H21 1585   3.484   3.155   1.287 -0.3652  0.3933  0.0553
   69DG     H22 1586   3.432   3.337   1.513  0.2692 -0.4210 -0.2687
   69DG     H23 1587   3.461   3.370   1.355 -2.5203 -1.7753  0.9896
   70DG      C1 1588   2.234   1.461   3.521 -0.2418 -0.1976 -0.1852
   70DG      C2 1589   2.311   1.677   4.201 -0.4181  0.0294  0.0491
   70DG      H3 1590   2.205   1.367   3.568  2.0911 -1.4648 -1.1163
   70DG      H4 1591   2.249   1.448   3.414  0.7232  1.3105 -0.2532
   70DG      H5 1592   2.151   1.532   3.525  1.7415  2.3435 -1.6573
   70DG      H6 1593   2.354   1.753   4.266  0.1543  0.6836 -1.0717
   70DG      H7 1594   2.206   1.704   4.212  0.1325  1.1623  4.1797
   70DG      H8 1595   2.305   1.584   4.259 -0.4583 -0.9209 -1.4278
   70DG      O9 1596   2.345   1.525   3.602 -0.4054  0.1232  0.8368
   70DG     O10 1597   2.376   1.668   4.075  0.0567  0.3596  0.1062
   70DG     C11 1598   2.368   1.663   3.556 -0.7829  0.2161 -0.5270
   70DG     C12 1599   2.388   1.800   4.014 -0.1702  0.5342  0.0912
   70DG     H13 1600   2.275   1.719   3.560 -1.1653 -0.3657 -0.9509
   70DG     H14 1601   2.408   1.669   3.455  0.6728 -1.1141 -0.0780
   70DG     H15 1602   2.442   1.866   4.081  1.3291 -0.7092  0.1461
   70DG     H16 1603   2.289   1.845   4.003 -1.2342 -1.6557  0.2526
   70DG     C17 1604   2.451   1.742   3.652 -0.1910  0.3044 -0.5123
   70DG     C18 1605   2.460   1.810   3.878 -1.2683 -0.5558  0.2314
   70DG     O19 1606   2.394   1.738   3.779  0.2378  0.3612  0.1008
   70DG     H20 1607   2.468   1.842   3.611 -2.2081  3.0402  4.3546
   70DG     H21 1608   2.552   1.702   3.658  0.3002  1.5988  0.4509
   70DG     H22 1609   2.477   1.911   3.840 -0.4417 -1.0393 -0.7419
   70DG     H23 1610   2.564   1.778   3.876 -0.3946  2.0521  0.0124
   71DG      C1 1611   2.451   1.464   1.055  0.3885 -0.1759  0.5932
   71DG      C2 1612   2.759   1.179   1.759  0.0530 -0.1302  1.0158
   71DG      H3 1613   2.385   1.548   1.034 -0.4289 -0.4979  1.7978
   71DG      H4 1614   2.396   1.370   1.057  1.5511 -0.9705 -1.4534
   71DG      H5 1615   2.512   1.453   0.965 -1.4200 -1.0363 -0.5832
   71DG      H6 1616   2.662   1.228   1.771 -1.2575 -1.9799 -1.0881
   71DG      H7 1617   2.742   1.076   1.791 -0.2748 -0.3087  0.2830
   71DG      H8 1618   2.847   1.222   1.806  1.0171  0.7987 -1.4439
   71DG      O9 1619   2.533   1.479   1.173  0.2461  0.4956  0.0154
   71DG     O10 1620   2.785   1.194   1.619  0.8375 -0.0865 -0.3407
   71DG     C11 1621   2.582   1.351   1.219  0.2473  0.1960 -0.0568
   71DG     C12 1622   2.855   1.313   1.581 -0.4504 -0.0534 -0.5103
   71DG     H13 1623   2.636   1.303   1.137 -1.2841 -1.6398 -0.0288
   71DG     H14 1624   2.500   1.284   1.242 -0.0913  0.4939 -0.3903
   71DG     H15 1625   2.949   1.327   1.634 -0.5430 -0.8086 -0.1226
   71DG     H16 1626   2.792   1.400   1.600  0.5200  0.1479  2.3933
   71DG     C17 1627   2.691   1.383   1.322 -0.0918  0.5085 -0.6070
   71DG     C18 1628   2.887   1.299   1.431  0.1699  0.3200 -0.1088
   71DG     O19 1629   2.772   1.271   1.339  0.3745 -0.4114 -0.2790
   71DG     H20 1630   2.633   1.382   1.414  0.0778  0.5179 -0.4999
   71DG     H21 1631   2.739   1.479   1.304 -2.1337  1.4292 -1.4719
   71DG     H22 1632   2.944   1.386   1.398  0.4262 -0.3015 -1.3765
   71DG     H23 1633   2.953   1.216   1.407 -0.6259 -0.1653 -0.6668
   72DG      C1 1634   0.074   1.483   3.666  0.3013  0.4590  0.3387
   72DG      C2 1635   0.555   1.436   3.142 -0.2809 -0.1853  0.3814
   72DG      H3 1636   0.103   1.535   3.757  0.8127  1.2228 -0.2471
   72DG      H4 1637   0.006   1.404   3.698  1.4818 -0.3935  0.8237
   72DG      H5 1638   0.027   1.540   3.586  0.8113  0.0311 -0.2741
   72DG      H6 1639   0.468   1.500   3.152 -0.0750 -0.0621  1.5312
   72DG      H7 1640   0.645   1.495   3.158 -0.1384 -0.9021  2.6966
   72DG      H8 1641   0.558   1.390   3.043  2.4559  0.4321  0.1033
   72DG      O9 1642   0.175   1.391   3.625  0.7148  0.0147 -0.0717
   72DG     O10 1643   0.555   1.327   3.237 -0.5467 -0.0589  0.1675
   72DG     C11 1644   0.283   1.466   3.581 -0.1742 -0.6541  0.0788
   72DG     C12 1645   0.436   1.250   3.226  0.0374 -0.6097 -0.5776
   72DG     H13 1646   0.335   1.527   3.655 -0.8170 -1.0034  0.8282
   72DG     H14 1647   0.246   1.536   3.505 -1.6177  0.1927  1.4986
   72DG     H15 1648   0.442   1.180   3.142 -1.2723  0.1134 -1.3112
   72DG     H16 1649   0.355   1.321   3.210  0.5907  0.2851  0.4580
   72DG     C17 1650   0.389   1.367   3.519  0.8645 -0.3639 -0.2045
   72DG     C18 1651   0.403   1.181   3.364  0.2204  0.1976 -0.1701
   72DG     O19 1652   0.318   1.270   3.441  0.0593 -0.1160 -0.0315
   72DG     H20 1653   0.447   1.323   3.600  3.2228  0.4196 -1.3658
   72DG     H21 1654   0.465   1.424   3.467  1.2493 -1.3564 -0.7652
   72DG     H22 1655   0.334   1.098   3.348  0.9325 -0.5583  0.5728
   72DG     H23 1656   0.489   1.129   3.408  0.0246 -0.3604 -0.4376
   73DG      C1 1657   3.025   4.046   0.916 -0.1820  0.2671  0.0521
   73DG      C2 1658   2.739   4.720   0.773 -0.5373  0.3117  0.1671
   73DG      H3 1659   3.074   3.959   0.872 -0.1980 -0.2780  1.0817
   73DG      H4 1660   2.919   4.037   0.894 -0.3652  0.6925  0.7378
   73DG      H5 1661   3.040   4.032   1.023  1.3059  1.2542  0.0068
   73DG      H6 1662   2.661   4.724   0.697 -0.9347  0.2380  0.5649
   73DG      H7 1663   2.749   4.622   0.821  0.3535  0.0280 -0.5696
   73DG      H8 1664   2.716   4.792   0.851  1.0699  1.6073 -0.5013
   73DG      O9 1665   3.078   4.171   0.880  0.2343  0.2277  1.0064
   73DG     O10 1666   2.861   4.770   0.711  0.3356  0.5115 -0.1785
   73DG     C11 1667   2.987   4.270   0.840  0.2786  0.0794 -0.5400
   73DG     C12 1668   2.974   4.760   0.789 -1.2803  0.8938  1.0225
   73DG     H13 1669   2.920   4.301   0.921  2.4498  2.3740  0.5099
   73DG     H14 1670   2.932   4.242   0.750  0.3173 -0.1315 -0.4981
   73DG     H15 1671   2.968   4.776   0.897 -0.0216  0.1052  1.2278
   73DG     H16 1672   3.039   4.838   0.748  0.3715 -0.4548  1.0180
   73DG     C17 1673   3.065   4.395   0.809 -0.0063  0.3704  0.5686
   73DG     C18 1674   3.047   4.620   0.757  0.4450  0.0432  0.5699
   73DG     O19 1675   2.982   4.507   0.794 -0.1986  0.2385 -0.7196
   73DG     H20 1676   3.139   4.374   0.731  1.2230  0.0583  1.7892
   73DG     H21 1677   3.132   4.406   0.894  1.6787 -1.1962 -0.4863
   73DG     H22 1678   3.055   4.615   0.648  0.4438 -0.2588  0.5831
   73DG     H23 1679   3.150   4.626   0.794  1.5152 -0.1281 -2.0961
   74DG      C1 1680   4.822   2.417   2.307  1.1735  0.4574 -0.8798
   74DG      C2 1681   4.706   2.319   1.712 -0.3128 -0.1319  0.1900
   74DG      H3 1682   4.775   2.450   2.399 -0.0668 -1.0626 -0.9195
   74DG      H4 1683   4.826   2.308   2.302  2.2038  0.4946 -1.0658
   74DG      H5 1684   4.763   2.444   2.220 -1.4305 -0.3267  0.5346
   74DG      H6 1685   4.641   2.381   1.651  1.8192  1.7910 -0.2881
   74DG      H7 1686   4.804   2.345   1.672  0.1935 -1.5703  0.4398
   74DG      H8 1687   4.687   2.212   1.700 -1.2833 -0.0320  0.7237
   74DG      O9 1688   4.950   2.467   2.316 -0.3669  0.3620 -0.1873
   74DG     O10 1689   4.692   2.359   1.844  0.3566  0.4277 -0.0163
   74DG     C11 1690   5.038   2.402   2.220 -0.0752 -0.6649  0.8827
   74DG     C12 1691   4.737   2.488   1.875  0.2046 -0.4198 -0.4714
   74DG     H13 1692   5.040   2.293   2.219  1.4689 -0.6611 -0.0010
   74DG     H14 1693   5.142   2.419   2.251 -0.7146  2.3146  1.6979
   74DG     H15 1694   4.678   2.532   1.956  1.3414 -1.5857  1.0661
   74DG     H16 1695   4.708   2.558   1.797  0.6277  2.0158  1.4004
   74DG     C17 1696   5.030   2.462   2.080 -0.6628 -0.2662  0.1928
   74DG     C18 1697   4.889   2.495   1.896  0.3886  0.1247  0.1120
   74DG     O19 1698   4.903   2.483   2.035  0.4158  0.0511 -0.2149
   74DG     H20 1699   5.091   2.399   2.017  0.9951  3.0127 -1.7393
   74DG     H21 1700   5.089   2.553   2.088  0.1593 -0.7016 -0.7827
   74DG     H22 1701   4.946   2.417   1.846 -0.4373 -0.5651  0.2253
   74DG     H23 1702   4.934   2.586   1.858  0.5785 -0.2433 -0.5635
   75DG      C1 1703   1.131   0.537   3.905 -0.1188 -0.4283  0.2078
   75DG      C2 1704   1.327   1.294   3.508 -0.5437  0.6209  0.4050
   75DG      H3 1705   1.194   0.448   3.902  1.7063  0.8537 -1.2592
   75DG      H4 1706   1.031   0.510   3.938 -0.1925  0.8900  1.1544
   75DG      H5 1707   1.187   0.591   3.981 -0.6580 -0.4412  0.6191
   75DG      H6 1708   1.302   1.327   3.408 -2.0035 -0.6113  0.3391
   75DG      H7 1709   1.283   1.373   3.569  0.2572  0.4540  1.2338
   75DG      H8 1710   1.434   1.296   3.529 -0.9305  2.5044  2.5532
   75DG      O9 1711   1.123   0.612   3.790 -0.1068  0.0316  0.3492
   75DG     O10 1712   1.282   1.161   3.543  0.0444  0.6982  0.0670
   75DG     C11 1713   1.237   0.693   3.756  0.7119 -0.0883  0.2659
   75DG     C12 1714   1.318   1.066   3.440 -0.4965  0.1133 -0.1230
   75DG     H13 1715   1.330   0.639   3.744  0.2578 -0.8148 -0.0789
   75DG     H14 1716   1.245   0.767   3.836  1.1579  0.8915 -0.6534
   75DG     H15 1717   1.424   1.041   3.436 -0.4401  0.5833 -1.9050
   75DG     H16 1718   1.302   1.100   3.338  1.8735  0.5902 -0.3857
   75DG     C17 1719   1.195   0.762   3.626 -0.2875  1.1106  1.2826
   75DG     C18 1720   1.242   0.933   3.466  0.6193 -0.5366  0.7178
   75DG     O19 1721   1.275   0.879   3.599 -0.1046  0.1508  0.2033
   75DG     H20 1722   1.088   0.780   3.614 -0.4727 -0.1076  0.9436
   75DG     H21 1723   1.220   0.694   3.544  0.4856 -0.0908  2.4689
   75DG     H22 1724   1.135   0.949   3.457  0.3693 -1.0679  2.3670
   75DG     H23 1725   1.269   0.852   3.398 -0.6700  0.1665 -0.6695
   76DG      C1 1726   1.323   0.892   2.035 -1.1314  0.2898 -0.1064
   76DG      C2 1727   1.058   0.896   2.622 -0.2505  0.4270 -0.1426
   76DG      H3 1728   1.408   0.841   2.080 -0.6733  1.0152 -0.1223
   76DG      H4 1729   1.338   0.999   2.049 -0.2863  0.2530 -0.6427
   76DG      H5 1730   1.323   0.877   1.927  1.2402 -0.0132 -0.1181
   76DG      H6 1731   1.103   0.796   2.627 -2.5825 -0.6241  2.7171
   76DG      H7 1732   1.130   0.967   2.662  0.3418 -0.8164  1.1002
   76DG      H8 1733   0.979   0.902   2.696  0.3224  0.3369  0.4909
   76DG      O9 1734   1.202   0.846   2.088  0.1805  0.1417 -0.1372
   76DG     O10 1735   1.001   0.916   2.493  0.0267  0.1384  0.3935
   76DG     C11 1736   1.092   0.895   2.021 -0.5842  0.0793 -0.7744
   76DG     C12 1737   0.900   0.818   2.454 -0.4878 -0.5472  0.9290
   76DG     H13 1738   1.089   0.870   1.915  0.8030  1.4828 -1.1793
   76DG     H14 1739   1.090   1.004   2.014  1.3955  0.3158  1.1404
   76DG     H15 1740   0.808   0.823   2.512 -1.2023 -0.9903 -0.1294
   76DG     H16 1741   0.942   0.717   2.461  2.8865  0.7144  0.3195
   76DG     C17 1742   0.962   0.846   2.092  0.5425 -0.7145  0.0332
   76DG     C18 1743   0.876   0.840   2.303 -0.0430 -0.7501  0.2654
   76DG     O19 1744   0.990   0.859   2.230 -0.4088  0.1910  0.3803
   76DG     H20 1745   0.931   0.743   2.073 -1.5640  0.0743 -1.2106
   76DG     H21 1746   0.883   0.918   2.071  0.6770 -0.3674  0.7067
   76DG     H22 1747   0.826   0.752   2.264  0.3060 -0.6821 -0.3557
   76DG     H23 1748   0.807   0.923   2.287 -1.1796 -1.8125 -0.4904
   77DG      C1 1749   4.359   4.326   0.213 -0.1293 -0.7500  0.3972
   77DG      C2 1750   3.775   4.077  -0.406 -0.1306  0.2393 -0.7205
   77DG      H3 1751   4.403   4.302   0.309  0.5822  0.4849  0.4023
   77DG      H4 1752   4.273   4.391   0.233 -0.1218 -0.9850  1.2304
   77DG      H5 1753   4.429   4.390   0.159 -0.9463 -0.2937 -0.1493
   77DG      H6 1754   3.795   3.974  -0.433 -0.7564  0.1071 -0.6991
   77DG      H7 1755   3.670   4.072  -0.378  0.0952  1.7437  0.5758
   77DG      H8 1756   3.790   4.136  -0.497  0.7844 -1.4471 -1.7020
   77DG      O9 1757   4.327   4.208   0.144 -0.2247  0.0102  0.3253
   77DG     O10 1758   3.870   4.110  -0.302 -0.3948 -0.1134  0.2133
   77DG     C11 1759   4.231   4.230   0.045 -0.5242 -0.0371 -0.4006
   77DG     C12 1760   4.005   4.075  -0.334 -0.2528 -0.6275  0.3933
   77DG     H13 1761   4.268   4.303  -0.027  1.8425  1.2495  1.9539
   77DG     H14 1762   4.136   4.268   0.082  0.5760  0.0429  2.6037
   77DG     H15 1763   4.038   4.176  -0.357 -0.6664  0.0471  2.5589
   77DG     H16 1764   4.006   4.003  -0.416 -3.7322 -0.8348  0.3850
   77DG     C17 1765   4.207   4.102  -0.030 -0.2837  0.5456 -0.7908
   77DG     C18 1766   4.092   4.024  -0.221 -0.0388  0.7651  0.9942
   77DG     O19 1767   4.114   4.136  -0.132  0.3941 -0.5183 -0.1331
   77DG     H20 1768   4.177   4.026   0.042  3.1755  0.0864  0.3264
   77DG     H21 1769   4.294   4.058  -0.079 -2.0671 -1.0061 -2.7697
   77DG     H22 1770   4.043   3.942  -0.169  2.0465 -1.6130 -0.5127
   77DG     H23 1771   4.176   3.972  -0.269 -1.4419 -1.0294  0.3482
   78DG      C1 1772   3.008   1.537   3.599 -0.0755  0.1206 -0.1469
   78DG      C2 1773   2.744   0.967   3.251 -0.2197  0.6692 -0.6011
   78DG      H3 1774   3.097   1.475   3.585  0.6389  1.1128 -0.1322
   78DG      H4 1775   2.958   1.520   3.695  2.0015 -1.4945  0.7560
   78DG      H5 1776   3.051   1.637   3.593 -1.0180  0.5636  0.2729
   78DG      H6 1777   2.762   0.919   3.347  1.7271  3.4543  0.5882
   78DG      H7 1778   2.651   0.932   3.206 -0.1950  0.8872 -0.8284
   78DG      H8 1779   2.833   0.946   3.192 -0.3310 -1.0078 -0.2116
   78DG      O9 1780   2.922   1.507   3.491  0.1065  0.5727 -0.5926
   78DG     O10 1781   2.741   1.105   3.262 -0.0113  0.0223 -0.0730
   78DG     C11 1782   2.806   1.583   3.468  0.1141  0.9411 -0.3767
   78DG     C12 1783   2.630   1.144   3.339  0.0141  0.1143  0.7290
   78DG     H13 1784   2.846   1.673   3.420  0.3801  0.8627 -0.3034
   78DG     H14 1785   2.745   1.608   3.555 -0.0970  0.6132 -0.4273
   78DG     H15 1786   2.639   1.110   3.442  2.7645 -1.0257  0.2100
   78DG     H16 1787   2.543   1.107   3.286  1.6204 -2.3448 -0.3849
   78DG     C17 1788   2.719   1.502   3.362  0.1257 -0.6720  0.5215
   78DG     C18 1789   2.613   1.302   3.318 -0.0491  0.2941 -0.0866
   78DG     O19 1790   2.728   1.359   3.379 -0.2472  0.1680  0.2571
   78DG     H20 1791   2.751   1.542   3.266  0.9061  0.6178  1.2782
   78DG     H21 1792   2.617   1.541   3.360 -0.4832 -2.2547 -1.2424
   78DG     H22 1793   2.608   1.328   3.212 -0.4380  2.6810  0.4492
   78DG     H23 1794   2.520   1.323   3.371 -1.8130 -4.4131 -0.8637
   79DG      C1 1795   5.232   4.482   3.726 -0.4087 -0.2103  0.0910
   79DG      C2 1796   5.437   4.182   3.172  0.1585 -0.1509  0.6051
   79DG      H3 1797   5.324   4.527   3.764 -0.6495  2.6354 -2.3664
   79DG      H4 1798   5.153   4.514   3.794 -1.3864  1.9224 -1.9131
   79DG      H5 1799   5.201   4.524   3.631 -2.0036  1.2366  1.1840
   79DG      H6 1800   5.534   4.229   3.188 -0.1505  0.3238  1.1263
   79DG      H7 1801   5.472   4.093   3.120  0.9779  0.1553  0.6228
   79DG      H8 1802   5.384   4.252   3.107 -1.3291 -0.3423  1.5755
   79DG      O9 1803   5.239   4.337   3.719  0.2700  0.3596 -0.0054
   79DG     O10 1804   5.375   4.159   3.298 -0.2890  0.0893 -0.1075
   79DG     C11 1805   5.101   4.291   3.700  0.0712 -0.3414  0.3327
   79DG     C12 1806   5.243   4.121   3.288  0.1798  0.2855  0.2609
   79DG     H13 1807   5.039   4.357   3.640  0.4900  0.7362  1.0689
   79DG     H14 1808   5.056   4.274   3.798 -2.0146 -3.1157 -0.9390
   79DG     H15 1809   5.239   4.044   3.211  1.9912  1.6242 -1.2719
   79DG     H16 1810   5.185   4.209   3.261 -0.0567  0.7364  2.0981
   79DG     C17 1811   5.132   4.161   3.629  0.1914  0.5300 -0.8313
   79DG     C18 1812   5.181   4.070   3.416  0.3030 -0.3396  0.1709
   79DG     O19 1813   5.189   4.183   3.495  0.5550 -0.0198 -0.3039
   79DG     H20 1814   5.039   4.105   3.621  0.5341 -0.0541 -0.7728
   79DG     H21 1815   5.189   4.090   3.688  0.9658  0.9740 -1.0350
   79DG     H22 1816   5.075   4.048   3.409 -0.2622  1.1620  2.7655
   79DG     H23 1817   5.245   3.988   3.449  1.4577  0.1195 -0.8641
   80DG      C1 1818   5.490   1.212   3.227 -0.9003 -0.2825 -0.2155
   80DG      C2 1819   4.892   0.975   3.262 -0.4285  0.0858 -0.4072
   80DG      H3 1820   5.590   1.243   3.256 -1.2658  0.2635  0.5061
   80DG      H4 1821   5.479   1.235   3.121  1.6426 -0.4229 -0.5575
   80DG      H5 1822   5.484   1.104   3.238 -1.0493 -0.4829 -1.9236
   80DG      H6 1823   4.889   0.989   3.154  0.4173  1.6892 -0.2467
   80DG      H7 1824   4.866   0.869   3.266  0.0631 -0.0479 -0.6553
   80DG      H8 1825   4.808   1.032   3.300 -0.4363  0.0114 -0.3135
   80DG      O9 1826   5.387   1.283   3.291  0.5072 -0.1521  0.5565
   80DG     O10 1827   5.020   1.007   3.301 -0.8985  0.0362  0.1648
   80DG     C11 1828   5.400   1.292   3.425 -0.0391  0.1704  0.0431
   80DG     C12 1829   5.021   1.027   3.441  0.5528  0.2955  0.4223
   80DG     H13 1830   5.357   1.382   3.468 -1.0928 -0.7749  1.0337
   80DG     H14 1831   5.504   1.305   3.454 -0.4439  0.0405  1.6491
   80DG     H15 1832   4.968   0.942   3.484 -1.0570  0.7061 -0.6905
   80DG     H16 1833   4.970   1.119   3.469 -1.1530 -0.6929  0.6954
   80DG     C17 1834   5.341   1.172   3.504  0.1456  0.3405  0.8252
   80DG     C18 1835   5.162   1.029   3.497  0.6928  0.0030 -0.0294
   80DG     O19 1836   5.210   1.155   3.463 -0.2883  0.2971  0.2530
   80DG     H20 1837   5.359   1.188   3.611 -1.3699  0.2004  1.1153
   80DG     H21 1838   5.393   1.079   3.481 -0.9721  0.1695 -1.2435
   80DG     H22 1839   5.167   1.010   3.604  1.9595  1.2023  0.1620
   80DG     H23 1840   5.219   0.946   3.456 -1.8088 -1.4666 -0.7226
   81DG      C1 1841   3.869   2.994   1.706  0.9616  0.8293  0.2406
   81DG      C2 1842   3.764   3.319   1.106  0.0323  0.8400 -0.5588
   81DG      H3 1843   3.889   3.049   1.798 -0.5494  1.3971  0.2646
   81DG      H4 1844   3.909   2.893   1.707 -2.8261 -0.8384 -0.7700
   81DG      H5 1845   3.760   2.988   1.705  0.8295  2.2487  1.7640
   81DG      H6 1846   3.738   3.420   1.138 -2.6560 -0.1380  0.6806
   81DG      H7 1847   3.787   3.304   1.000  0.3387 -1.7517 -0.1857
   81DG      H8 1848   3.676   3.256   1.120 -0.6597  2.0827  1.0408
   81DG      O9 1849   3.931   3.029   1.584  0.1141  0.3372 -0.0927
   81DG     O10 1850   3.860   3.251   1.185 -0.0312  0.5212 -0.0868
   81DG     C11 1851   4.063   3.082   1.602  0.8356  0.2057  0.5192
   81DG     C12 1852   3.990   3.297   1.178 -0.7010  0.4459 -0.4680
   81DG     H13 1853   4.130   3.022   1.663  1.7369 -1.5584 -2.0712
   81DG     H14 1854   4.051   3.176   1.658  0.8433  0.5707 -0.0883
   81DG     H15 1855   3.990   3.396   1.225  1.0564 -1.1777  3.3598
   81DG     H16 1856   4.022   3.298   1.074  1.9484  1.2464  0.2512
   81DG     C17 1857   4.131   3.107   1.467  0.8341 -0.2665  0.0272
   81DG     C18 1858   4.089   3.202   1.254 -0.4390 -0.3876 -0.0526
   81DG     O19 1859   4.045   3.191   1.386  0.2142 -0.1782 -0.6159
   81DG     H20 1860   4.147   3.018   1.406  0.2815 -0.8424  0.6981
   81DG     H21 1861   4.231   3.147   1.480  0.9413 -0.7709  0.8363
   81DG     H22 1862   4.093   3.106   1.203  3.0981 -0.9179  0.9308
   81DG     H23 1863   4.193   3.234   1.267 -0.4732 -0.6188  0.8528
   82DG      C1 1864   4.829   4.717   2.780 -0.1713 -0.0739  0.0262
   82DG      C2 1865   4.229   5.042   2.416  0.2718 -0.2886 -0.1297
   82DG      H3 1866   4.883   4.692   2.872  2.2028  3.2461 -0.2822
   82DG      H4 1867   4.901   4.753   2.706  1.7373 -1.8666  0.8949
   82DG      H5 1868   4.780   4.631   2.736 -0.0858  0.0426 -0.3000
   82DG      H6 1869   4.284   5.037   2.322 -1.4720 -1.8248 -1.1330
   82DG      H7 1870   4.191   4.945   2.449  0.0791 -0.0914  0.2392
   82DG      H8 1871   4.147   5.109   2.390 -1.5549 -1.8350  1.3210
   82DG      O9 1872   4.719   4.802   2.807  0.1818  0.0480 -0.4517
   82DG     O10 1873   4.318   5.118   2.494  0.0014  0.4670 -0.3961
   82DG     C11 1874   4.760   4.926   2.864 -0.2972  0.1923  0.1860
   82DG     C12 1875   4.447   5.063   2.519 -0.1820  0.0928 -0.0697
   82DG     H13 1876   4.854   4.960   2.819  0.0804  1.5243  1.9038
   82DG     H14 1877   4.790   4.920   2.968  0.6327  1.0100 -0.0205
   82DG     H15 1878   4.513   5.106   2.443 -0.4898  1.9804  0.6606
   82DG     H16 1879   4.450   4.955   2.512 -1.3225 -0.1423  2.1382
   82DG     C17 1880   4.641   5.018   2.831 -0.5390 -0.2677 -0.7877
   82DG     C18 1881   4.487   5.095   2.665 -0.4966 -0.3989 -0.7429
   82DG     O19 1882   4.613   5.028   2.691  0.2718 -0.1395  0.2928
   82DG     H20 1883   4.668   5.119   2.863  1.7254 -0.9796 -0.2582
   82DG     H21 1884   4.552   5.001   2.892 -2.0165  0.3844 -2.6405
   82DG     H22 1885   4.498   5.202   2.684  2.6475 -0.6042 -0.8094
   82DG     H23 1886   4.413   5.052   2.732 -0.4769  0.5760 -0.0625
   83DG      C1 1887   4.177   2.835   0.649  0.2640  0.0885  0.2923
   83DG      C2 1888   4.327   2.717   1.326 -0.6986  0.0114 -0.0360
   83DG      H3 1889   4.137   2.792   0.557 -2.6523  0.7353  1.1448
   83DG      H4 1890   4.216   2.936   0.633  1.6424 -0.2505  1.3650
   83DG      H5 1891   4.096   2.835   0.722  0.7955  2.4292  0.9695
   83DG      H6 1892   4.374   2.762   1.413 -0.5434  0.5125 -0.3792
   83DG      H7 1893   4.226   2.698   1.363  0.6188 -0.3687  3.8337
   83DG      H8 1894   4.384   2.624   1.315  1.3763  1.3485 -1.4020
   83DG      O9 1895   4.279   2.747   0.695 -0.0107 -0.2806 -0.0611
   83DG     O10 1896   4.339   2.777   1.204 -0.0422 -0.4898  0.2942
   83DG     C11 1897   4.411   2.801   0.664  0.2062  0.6778 -0.9254
   83DG     C12 1898   4.471   2.800   1.159 -0.3106 -0.3861 -0.2969
   83DG     H13 1899   4.426   2.865   0.577  0.5632 -0.4399 -1.7183
   83DG     H14 1900   4.475   2.715   0.643  1.0795 -0.1030  3.8986
   83DG     H15 1901   4.527   2.710   1.135  2.4148  0.2492  2.9163
   83DG     H16 1902   4.522   2.848   1.243 -0.8593  0.4739 -0.4461
   83DG     C17 1903   4.452   2.881   0.791 -0.1387 -0.0410 -0.3536
   83DG     C18 1904   4.477   2.893   1.031  0.0931  0.1184 -0.3012
   83DG     O19 1905   4.453   2.810   0.919 -0.2846  0.2324 -0.0610
   83DG     H20 1906   4.397   2.975   0.799  0.3159  0.1553  0.6544
   83DG     H21 1907   4.556   2.911   0.779 -0.5364  1.9873  0.7455
   83DG     H22 1908   4.405   2.975   1.032  2.9378  2.7609 -0.3937
   83DG     H23 1909   4.575   2.937   1.018 -0.1359  0.7086 -0.0407
   84DG      C1 1910   4.203   3.217   0.369 -0.4984 -0.9475 -1.0536
   84DG      C2 1911   4.894   3.111  -0.111 -0.3150 -0.2056 -0.5879
   84DG      H3 1912   4.096   3.221   0.385 -0.4667 -3.4956  0.2419
   84DG      H4 1913   4.239   3.313   0.407 -3.0620 -0.3689  0.0712
   84DG      H5 1914   4.237   3.132   0.429  1.5975  1.0745  0.8144
   84DG      H6 1915   4.948   3.033  -0.056 -0.4206  0.0335 -0.1397
   84DG      H7 1916   4.913   3.086  -0.215  0.2749 -1.0561 -0.2933
   84DG      H8 1917   4.961   3.195  -0.092 -0.7561  0.2126 -0.8847
   84DG      O9 1918   4.219   3.189   0.234 -0.7798  0.2140 -0.4117
   84DG     O10 1919   4.756   3.114  -0.071 -0.1666  0.0611  0.2699
   84DG     C11 1920   4.348   3.220   0.177  0.1693 -0.4547 -0.2306
   84DG     C12 1921   4.679   3.194  -0.163 -0.7417  0.4752 -1.2864
   84DG     H13 1922   4.427   3.182   0.241 -0.6483 -1.8122  0.0054
   84DG     H14 1923   4.359   3.329   0.174 -0.8606 -0.3476 -0.5666
   84DG     H15 1924   4.705   3.165  -0.265  1.3607 -0.0188 -0.6584
   84DG     H16 1925   4.699   3.297  -0.134 -0.8414  1.0599 -3.1743
   84DG     C17 1926   4.368   3.159   0.039 -0.6409 -0.4442  0.2287
   84DG     C18 1927   4.531   3.173  -0.139  0.4118 -0.3762  0.1316
   84DG     O19 1928   4.502   3.187  -0.001  0.0439 -0.0674 -0.4323
   84DG     H20 1929   4.306   3.194  -0.044  0.3744 -1.6289 -1.0834
   84DG     H21 1930   4.353   3.051   0.045  0.9420 -0.7521 -0.6923
   84DG     H22 1931   4.478   3.246  -0.201  1.5064 -0.4204 -0.9087
   84DG     H23 1932   4.492   3.075  -0.165 -0.0052 -0.6813  1.8202
   85DG      C1 1933   4.487   4.422   2.506 -0.5265 -0.0116  0.0029
   85DG      C2 1934   4.074   3.830   2.133  0.6509  0.1067  0.1977
   85DG      H3 1935   4.427   4.513   2.519  0.4629  0.5290  0.8932
   85DG      H4 1936   4.580   4.461   2.466 -0.5096  0.0964  0.1447
   85DG      H5 1937   4.514   4.370   2.598  0.6071  0.3571 -0.1069
   85DG      H6 1938   4.081   3.778   2.037 -1.8250  0.2923 -0.1382
   85DG      H7 1939   4.101   3.753   2.206 -1.4149 -1.1764 -0.2986
   85DG      H8 1940   3.970   3.859   2.146  0.2014 -1.0247 -0.6723
   85DG      O9 1941   4.429   4.338   2.400 -0.2385  0.3162 -0.7319
   85DG     O10 1942   4.153   3.947   2.129  0.5875  0.3831  0.1911
   85DG     C11 1943   4.519   4.250   2.338  0.1919 -0.2766  0.2282
   85DG     C12 1944   4.149   4.014   2.251  0.0611  0.0649 -0.0322
   85DG     H13 1945   4.551   4.173   2.408 -2.2289 -0.7564  0.8951
   85DG     H14 1946   4.609   4.308   2.316  0.1673 -0.3290 -0.0152
   85DG     H15 1947   4.186   3.955   2.335 -0.5263 -0.4508 -0.1233
   85DG     H16 1948   4.046   4.043   2.271 -0.4358 -0.2370 -1.9734
   85DG     C17 1949   4.480   4.191   2.203  0.0087  0.7949  0.0443
   85DG     C18 1950   4.238   4.134   2.237  1.4339 -0.1422  0.5594
   85DG     O19 1951   4.377   4.090   2.228  0.4178 -0.1804  0.4453
   85DG     H20 1952   4.563   4.144   2.149 -0.5308  1.1407 -1.1098
   85DG     H21 1953   4.431   4.266   2.142 -0.4416  1.9223  1.7022
   85DG     H22 1954   4.211   4.211   2.165  1.2008  1.5764  2.3950
   85DG     H23 1955   4.230   4.202   2.321 -0.9442  0.7831 -0.3333
   86DG      C1 1956   5.069   2.080   1.900 -0.0334 -0.2760 -0.3415
   86DG      C2 1957   5.078   2.727   1.341 -0.3050 -0.3039  0.2980
   86DG      H3 1958   5.117   2.152   1.967  0.5495 -2.2259  1.4298
   86DG      H4 1959   5.127   1.989   1.916  1.4535  0.8748  1.0848
   86DG      H5 1960   4.970   2.070   1.943 -0.1317  0.6946 -0.3157
   86DG      H6 1961   5.089   2.676   1.245  0.4511 -0.6150  0.5377
   86DG      H7 1962   4.977   2.764   1.357 -0.1412  0.3716 -0.2088
   86DG      H8 1963   5.143   2.814   1.338  0.6057 -0.9742 -0.1009
   86DG      O9 1964   5.067   2.132   1.765  0.1547 -0.4857  0.5332
   86DG     O10 1965   5.122   2.648   1.447 -0.3551 -0.3743  0.4745
   86DG     C11 1966   5.192   2.170   1.717 -0.5122  0.4708 -0.1452
   86DG     C12 1967   5.052   2.529   1.467 -0.1124  0.4070  0.2341
   86DG     H13 1968   5.269   2.094   1.723 -0.3826  0.5552 -0.6950
   86DG     H14 1969   5.227   2.261   1.766  0.3984  0.2350 -0.3422
   86DG     H15 1970   5.025   2.483   1.372  0.2984 -0.2073  0.4048
   86DG     H16 1971   4.966   2.550   1.530 -0.1384  2.3440 -0.3928
   86DG     C17 1972   5.174   2.186   1.570  0.1784 -0.5708  0.1438
   86DG     C18 1973   5.138   2.426   1.534  0.2627 -0.1181  0.0467
   86DG     O19 1974   5.083   2.298   1.533  0.1820  0.5417 -0.2041
   86DG     H20 1975   5.151   2.099   1.508 -1.5121  0.6130 -0.9643
   86DG     H21 1976   5.277   2.205   1.537  0.0825  1.6655  0.9701
   86DG     H22 1977   5.230   2.415   1.476 -0.0510 -1.0954 -0.2828
   86DG     H23 1978   5.154   2.456   1.637 -0.8334  1.8770 -0.3055
   87DG      C1 1979   1.766   3.238   0.858 -0.0635 -0.1417  0.9538
   87DG      C2 1980   2.028   2.935   1.616 -0.9542  0.0611 -0.0458
   87DG      H3 1981   1.856   3.261   0.801  0.5143 -0.9405  1.5389
   87DG      H4 1982   1.673   3.291   0.835 -0.4127  0.2816  3.1065
   87DG      H5 1983   1.735   3.145   0.810 -2.0631  1.6937 -1.6299
   87DG      H6 1984   1.994   2.889   1.709  0.6638 -2.7164 -0.6836
   87DG      H7 1985   2.017   2.855   1.542  0.8046 -0.6002  0.3408
   87DG      H8 1986   2.133   2.961   1.625 -1.1451  0.8345 -0.0064
   87DG      O9 1987   1.777   3.237   0.998 -0.4372  0.4727  0.5091
   87DG     O10 1988   1.947   3.039   1.566  0.4381 -0.1182  0.2974
   87DG     C11 1989   1.814   3.353   1.063  0.4504  0.0716 -0.1693
   87DG     C12 1990   1.968   3.071   1.431  0.0692  0.4587  0.0108
   87DG     H13 1991   1.748   3.436   1.037  0.0174  0.6141  2.3628
   87DG     H14 1992   1.917   3.380   1.042 -0.2565  2.4893 -0.7931
   87DG     H15 1993   1.939   2.982   1.375 -1.6824  0.7505  0.4093
   87DG     H16 1994   2.073   3.067   1.402 -0.2450 -4.5216 -1.4301
   87DG     C17 1995   1.818   3.331   1.214 -0.0032  0.2951 -0.2017
   87DG     C18 1996   1.890   3.190   1.391  0.0713 -0.4719 -0.0020
   87DG     O19 1997   1.881   3.211   1.251 -0.0733  0.2334 -0.1225
   87DG     H20 1998   1.713   3.330   1.243 -0.4235  0.6627 -1.6319
   87DG     H21 1999   1.873   3.412   1.263 -0.1448 -0.5213  1.3516
   87DG     H22 2000   1.789   3.197   1.430 -0.4657 -2.9648 -0.7923
   87DG     H23 2001   1.942   3.273   1.439  0.8227 -2.1776  2.2720
   88DG      C1 2002   3.832   1.162   3.536  0.1265 -0.0903 -0.0449
   88DG      C2 2003   4.453   0.767   3.472 -0.1976 -0.4159  0.4960
   88DG      H3 2004   3.753   1.177   3.609 -0.3494 -0.5020 -0.4679
   88DG      H4 2005   3.802   1.141   3.433  1.3475 -2.0129 -0.0670
   88DG      H5 2006   3.903   1.245   3.527  0.6883 -0.5210  0.3362
   88DG      H6 2007   4.418   0.730   3.375  0.7708 -0.4698  0.1479
   88DG      H7 2008   4.537   0.830   3.441 -1.0101 -0.6283 -2.4904
   88DG      H8 2009   4.497   0.681   3.522  3.8971  0.1355 -1.7072
   88DG      O9 2010   3.909   1.052   3.576 -0.0736 -0.2843 -0.3721
   88DG     O10 2011   4.355   0.813   3.565 -0.1359 -0.8816 -0.0289
   88DG     C11 2012   3.971   1.061   3.700 -0.1556  0.3015 -0.5811
   88DG     C12 2013   4.253   0.715   3.573 -0.1381  0.1436  0.3047
   88DG     H13 2014   3.910   1.114   3.773 -0.0744 -0.5097  0.0867
   88DG     H14 2015   4.065   1.115   3.691 -0.0009  0.0743 -0.3356
   88DG     H15 2016   4.305   0.625   3.604  1.3620  1.5464  2.1295
   88DG     H16 2017   4.203   0.700   3.478  0.0206 -0.5399  0.3281
   88DG     C17 2018   3.999   0.921   3.748 -0.4466 -0.3159  0.5553
   88DG     C18 2019   4.149   0.753   3.675 -0.1146  0.0941  0.0183
   88DG     O19 2020   4.101   0.884   3.658  0.2885  0.1120 -0.5274
   88DG     H20 2021   3.912   0.856   3.750  0.3406 -1.4362 -0.1902
   88DG     H21 2022   4.030   0.913   3.852 -0.3716  0.6525  0.6198
   88DG     H22 2023   4.064   0.685   3.665 -0.0920  0.2129 -1.0772
   88DG     H23 2024   4.196   0.738   3.772 -1.6464  1.3647  0.9977
   89DG      C1 2025   2.885   2.504   3.386  0.3014  0.0103 -0.6951
   89DG      C2 2026   3.056   3.252   3.194 -0.4015 -0.2162 -0.7827
   89DG      H3 2027   2.922   2.430   3.457  2.1423 -0.4122 -2.0313
   89DG      H4 2028   2.816   2.453   3.319  0.5272 -1.4645  0.1541
   89DG      H5 2029   2.833   2.575   3.452  1.1247  0.1655 -0.1931
   89DG      H6 2030   3.157   3.239   3.154  0.1167 -0.5495  0.5923
   89DG      H7 2031   2.983   3.225   3.118 -0.1500 -3.2717 -0.0433
   89DG      H8 2032   3.050   3.356   3.228 -0.9788  0.4321 -2.7065
   89DG      O9 2033   2.998   2.563   3.303  0.5062  0.3212  0.0609
   89DG     O10 2034   3.046   3.172   3.302 -0.3187  0.0391  0.5555
   89DG     C11 2035   3.110   2.587   3.380  0.6550 -0.2873 -0.2189
   89DG     C12 2036   3.053   3.037   3.268  0.5790  0.8134 -1.0470
   89DG     H13 2037   3.199   2.590   3.317  2.1099 -1.5992  1.6554
   89DG     H14 2038   3.132   2.507   3.450  0.8742  0.1294  0.1978
   89DG     H15 2039   3.140   3.013   3.206  1.9440  3.0203 -0.0978
   89DG     H16 2040   2.975   3.006   3.198  1.8950 -0.9652 -1.8056
   89DG     C17 2041   3.097   2.724   3.451 -0.5391  0.6131 -0.3327
   89DG     C18 2042   3.076   2.953   3.399 -0.3407  0.0439  0.4829
   89DG     O19 2043   3.056   2.820   3.362 -0.1705 -0.8595  0.1064
   89DG     H20 2044   3.192   2.746   3.498 -0.2319  1.2430 -1.2217
   89DG     H21 2045   3.041   2.726   3.544  1.0390  1.1656  0.6398
   89DG     H22 2046   3.178   2.958   3.438  0.2509  1.1283 -1.1113
   89DG     H23 2047   3.006   2.980   3.478  0.2464  0.5289  0.8438
   90DG      C1 2048   3.740   4.955   0.723 -0.8872 -0.1224 -0.2153
   90DG      C2 2049   3.918   5.182   0.236 -0.4663  0.8746  0.7879
   90DG      H3 2050   3.738   5.061   0.701 -0.6538  0.0219  0.4118
   90DG      H4 2051   3.816   4.943   0.801 -1.3582 -0.1903  0.2397
   90DG      H5 2052   3.648   4.925   0.774 -0.3916  0.5442  1.1177
   90DG      H6 2053   3.859   5.143   0.319  0.3229 -0.5678  0.6920
   90DG      H7 2054   4.022   5.186   0.270 -0.8486  0.8457  2.0316
   90DG      H8 2055   3.887   5.285   0.218  0.9546  1.2561  0.3682
   90DG      O9 2056   3.755   4.868   0.608 -0.2964  0.3683 -0.1830
   90DG     O10 2057   3.914   5.108   0.128 -0.4114  0.3326  0.2866
   90DG     C11 2058   3.645   4.888   0.516 -0.3174 -0.6113  0.0885
   90DG     C12 2059   3.948   4.972   0.146  0.6820  0.3841  0.1423
   90DG     H13 2060   3.617   4.993   0.510  1.7676  0.1468  2.0209
   90DG     H14 2061   3.560   4.831   0.553 -0.7492 -0.2761 -0.3806
   90DG     H15 2062   4.025   4.958   0.222  1.4141 -1.5560 -0.8841
   90DG     H16 2063   3.989   4.930   0.055 -0.3771  0.8653 -0.5811
   90DG     C17 2064   3.678   4.840   0.374  0.0028 -0.1113  0.1327
   90DG     C18 2065   3.822   4.894   0.195  0.2970  0.0377 -0.1762
   90DG     O19 2066   3.787   4.916   0.329 -0.8790  0.0270  0.3727
   90DG     H20 2067   3.590   4.848   0.311 -1.2313 -1.3315  1.5963
   90DG     H21 2068   3.699   4.733   0.368  0.6840  0.0968 -1.6856
   90DG     H22 2069   3.742   4.902   0.122  2.0759  1.5868 -2.0644
   90DG     H23 2070   3.843   4.787   0.202  0.2376  0.1065  1.3005
   91DG      C1 2071   2.307   5.106   1.808 -0.1046  0.5660 -0.2274
   91DG      C2 2072   2.926   4.867   2.034  0.0012 -0.3140 -0.3345
   91DG      H3 2073   2.290   5.006   1.767  0.6973  0.5723 -0.6097
   91DG      H4 2074   2.351   5.158   1.723 -0.7722  0.1390 -0.8487
   91DG      H5 2075   2.214   5.156   1.833  0.0724  0.3451  0.9262
   91DG      H6 2076   2.957   4.910   1.939 -0.3563  1.4953  0.3305
   91DG      H7 2077   2.992   4.893   2.117 -1.0263 -1.4593  0.8835
   91DG      H8 2078   2.920   4.761   2.006 -1.4090  0.2005 -2.2300
   91DG      O9 2079   2.398   5.092   1.918  0.5409 -0.3386 -0.2739
   91DG     O10 2080   2.792   4.916   2.062 -0.1745  0.0674  0.0091
   91DG     C11 2081   2.333   5.067   2.044 -0.2662  0.4462 -0.0991
   91DG     C12 2082   2.735   4.875   2.182 -0.1096  0.4105  0.5587
   91DG     H13 2083   2.293   4.966   2.037 -0.4492  0.5442 -0.4936
   91DG     H14 2084   2.255   5.138   2.074 -0.9098 -0.1435 -0.3371
   91DG     H15 2085   2.812   4.868   2.259  2.0280 -2.7085 -1.6349
   91DG     H16 2086   2.677   4.783   2.179  0.0089  0.3584 -0.7196
   91DG     C17 2087   2.445   5.080   2.146 -0.5897  0.0682  0.3845
   91DG     C18 2088   2.636   4.976   2.229  0.6777  0.6465 -0.9273
   91DG     O19 2089   2.547   4.983   2.120 -0.5684  0.3695  0.4325
   91DG     H20 2090   2.418   5.077   2.251  1.2472  0.3369  0.8980
   91DG     H21 2091   2.494   5.177   2.135  1.4864 -1.0253 -0.6539
   91DG     H22 2092   2.585   4.946   2.322  0.3058  0.8994 -1.0471
   91DG     H23 2093   2.677   5.075   2.247 -0.1964  0.7755  0.6019
   92DG      C1 2094   1.591   2.949   0.175 -0.2464  0.0452  0.7095
   92DG      C2 2095   1.370   2.907  -0.503  0.8288 -0.5605  0.3856
   92DG      H3 2096   1.631   3.050   0.182 -1.4699  0.4928  1.6503
   92DG      H4 2097   1.670   2.886   0.134 -1.6146 -0.5084 -1.2187
   92DG      H5 2098   1.575   2.918   0.278  1.0751 -0.9175  0.6524
   92DG      H6 2099   1.388   2.985  -0.576 -1.2348 -0.3561  0.0400
   92DG      H7 2100   1.475   2.883  -0.483  0.8281 -0.0815  0.9711
   92DG      H8 2101   1.322   2.829  -0.562 -0.0080 -0.4939  0.9599
   92DG      O9 2102   1.480   2.939   0.088 -0.3972  0.3306 -0.0883
   92DG     O10 2103   1.294   2.957  -0.395 -0.2235  0.1588 -0.0726
   92DG     C11 2104   1.402   3.062   0.083  0.2210  0.4323  0.1007
   92DG     C12 2105   1.251   2.848  -0.308  0.2136  0.1820 -0.4520
   92DG     H13 2106   1.457   3.144   0.038  0.0171  0.2868 -0.4233
   92DG     H14 2107   1.375   3.088   0.185 -2.9253 -0.3614 -0.4186
   92DG     H15 2108   1.338   2.791  -0.276 -0.2299  1.1819  2.8905
   92DG     H16 2109   1.175   2.783  -0.349 -1.7891  1.0463  1.6977
   92DG     C17 2110   1.270   3.026   0.010  0.1901 -0.2761 -0.4654
   92DG     C18 2111   1.199   2.910  -0.186 -0.2558 -0.1404  0.1830
   92DG     O19 2112   1.308   2.975  -0.118  0.3206 -0.0483 -1.0066
   92DG     H20 2113   1.213   3.117  -0.004 -0.5388 -0.7093 -0.3219
   92DG     H21 2114   1.201   2.971   0.074 -1.0557  2.2647  0.4831
   92DG     H22 2115   1.120   2.981  -0.212  1.4430  1.0844 -1.9477
   92DG     H23 2116   1.142   2.840  -0.125 -0.3700 -0.3876 -0.2002
   93DG      C1 2117   0.378   2.952   3.838  0.6674 -0.2504  0.7940
   93DG      C2 2118   1.021   2.851   4.268  0.0200  0.0332  0.6923
   93DG      H3 2119   0.444   2.909   3.763  0.5576  0.8821  0.0139
   93DG      H4 2120   0.329   3.040   3.797  3.8098  1.3544  0.1588
   93DG      H5 2121   0.306   2.882   3.880  0.2981 -0.5661 -0.3412
   93DG      H6 2122   0.990   2.766   4.330  2.3946  0.0170  1.9918
   93DG      H7 2123   1.116   2.836   4.217 -1.1915  2.2181 -2.4707
   93DG      H8 2124   1.041   2.934   4.336  1.0009 -0.4571  1.0318
   93DG      O9 2125   0.466   2.992   3.938  0.0879 -0.5752  0.0566
   93DG     O10 2126   0.921   2.890   4.174 -0.0055  0.1394 -0.0295
   93DG     C11 2127   0.564   3.084   3.887  0.5122  0.0277  0.1842
   93DG     C12 2128   0.808   2.939   4.246 -0.2371 -0.5739 -0.8813
   93DG     H13 2129   0.502   3.165   3.847  0.3887  0.4196  1.1552
   93DG     H14 2130   0.625   3.032   3.813 -0.3104  1.0881 -1.3150
   93DG     H15 2131   0.831   3.022   4.313 -1.9751  0.0403 -0.9868
   93DG     H16 2132   0.771   2.859   4.310 -1.4650  0.2627 -0.4846
   93DG     C17 2133   0.636   3.158   3.995 -0.7810 -0.1187  0.0454
   93DG     C18 2134   0.686   2.989   4.159  0.2222  0.1537 -0.1365
   93DG     O19 2135   0.737   3.078   4.060  0.2066 -0.9119 -0.0381
   93DG     H20 2136   0.552   3.189   4.056 -1.8356 -0.6519 -1.0830
   93DG     H21 2137   0.687   3.243   3.949  1.4913 -1.8086 -0.7771
   93DG     H22 2138   0.630   2.902   4.125  0.8689 -0.3324  0.0162
   93DG     H23 2139   0.608   3.037   4.218 -2.3124 -5.0064  1.3017
   94DG      C1 2140   2.393   4.247   4.157  0.2402 -0.1947 -0.5626
   94DG      C2 2141   2.713   4.117   3.608 -0.0599  0.3229 -0.1236
   94DG      H3 2142   2.411   4.353   4.136  1.2823 -0.3594 -0.5370
   94DG      H4 2143   2.484   4.205   4.197 -0.3834 -0.7659  0.2889
   94DG      H5 2144   2.323   4.236   4.240 -0.6080  0.3267 -1.1845
   94DG      H6 2145   2.712   4.226   3.608  2.9692  0.4447  0.2849
   94DG      H7 2146   2.809   4.082   3.646  0.6287  1.3464 -0.8442
   94DG      H8 2147   2.712   4.089   3.502 -0.9771  1.7890 -0.5225
   94DG      O9 2148   2.360   4.186   4.031  0.1941  0.1075  0.1500
   94DG     O10 2149   2.598   4.087   3.668 -0.1693 -0.3150  0.2023
   94DG     C11 2150   2.317   4.050   4.047 -0.2167 -0.2124  0.3427
   94DG     C12 2151   2.570   3.949   3.674 -0.8665  0.0141 -0.8720
   94DG     H13 2152   2.229   4.039   4.110  0.2719 -0.3735  1.0159
   94DG     H14 2153   2.400   4.000   4.097  2.1538 -0.7077 -3.6819
   94DG     H15 2154   2.648   3.901   3.732 -0.6904 -0.3225 -1.3779
   94DG     H16 2155   2.580   3.906   3.574 -1.5985 -2.5029  0.0572
   94DG     C17 2156   2.291   3.988   3.912 -0.2674  0.3376 -0.1607
   94DG     C18 2157   2.430   3.927   3.717  0.0011 -0.2441  0.7450
   94DG     O19 2158   2.411   4.001   3.840 -0.3731 -0.2837 -0.1708
   94DG     H20 2159   2.211   4.033   3.853 -3.1874 -2.9687  0.9373
   94DG     H21 2160   2.270   3.881   3.916  0.7072 -0.0820 -3.0957
   94DG     H22 2161   2.363   3.967   3.642  0.6579  0.6975  0.6436
   94DG     H23 2162   2.399   3.822   3.718  1.7690 -0.7991  0.9534
   95DG      C1 2163   1.954   0.373   4.935  0.1254  0.2935 -0.8272
   95DG      C2 2164   1.239   0.185   5.029  0.3635  0.2401 -1.0029
   95DG      H3 2165   2.016   0.352   4.848 -1.2972 -1.0466 -1.5614
   95DG      H4 2166   2.012   0.437   5.002 -0.8800  0.8532 -0.4708
   95DG      H5 2167   1.871   0.433   4.898  0.3807  0.8235 -0.5600
   95DG      H6 2168   1.158   0.166   5.100  0.6243  0.9648 -0.4974
   95DG      H7 2169   1.263   0.291   5.033  1.2019  0.1459 -2.7911
   95DG      H8 2170   1.193   0.186   4.930 -1.3449  2.6194 -0.2830
   95DG      O9 2171   1.901   0.267   5.004 -0.1362 -0.1911 -0.3117
   95DG     O10 2172   1.358   0.109   5.045  0.4832 -0.4974 -0.2279
   95DG     C11 2173   1.835   0.168   4.932  0.9673 -0.0671  0.0186
   95DG     C12 2174   1.427   0.111   5.170  0.3779  0.0360 -0.8004
   95DG     H13 2175   1.900   0.091   4.890 -1.0150 -2.5194  1.1931
   95DG     H14 2176   1.771   0.205   4.852 -0.0052  2.2380  1.7523
   95DG     H15 2177   1.374   0.057   5.248 -1.1402  0.1743 -1.7031
   95DG     H16 2178   1.452   0.214   5.196 -0.1597  0.7618 -2.9247
   95DG     C17 2179   1.751   0.073   5.012  0.1096  0.3736  0.0032
   95DG     C18 2180   1.564   0.045   5.139 -0.3205  0.2885 -0.2667
   95DG     O19 2181   1.645   0.140   5.079  0.0420 -0.1568 -0.5545
   95DG     H20 2182   1.811   0.031   5.092 -1.2501  1.3346  1.6217
   95DG     H21 2183   1.710  -0.005   4.948 -0.7950  0.8994 -0.0835
   95DG     H22 2184   1.613   0.014   5.231  1.6187 -1.2090 -1.7136
   95DG     H23 2185   1.549  -0.042   5.075 -2.1724  1.0368 -0.9492
   96DG      C1 2186   2.806   3.253   4.524 -0.0084 -0.2374  0.0762
   96DG      C2 2187   2.522   3.476   3.827  0.8812 -0.8009  0.9416
   96DG      H3 2188   2.723   3.186   4.504 -0.3088 -0.3244  1.5077
   96DG      H4 2189   2.816   3.245   4.633 -0.8820  1.1393  0.2902
   96DG      H5 2190   2.899   3.218   4.480  1.1708 -0.6272  2.6590
   96DG      H6 2191   2.576   3.546   3.763 -1.4380  2.4120  2.2335
   96DG      H7 2192   2.549   3.378   3.787  1.2176 -0.1956 -0.3572
   96DG      H8 2193   2.417   3.500   3.810  1.5019  2.2015  0.7888
   96DG      O9 2194   2.789   3.395   4.501  0.1340 -0.4029 -0.1934
   96DG     O10 2195   2.556   3.500   3.968  0.7309 -0.5086 -0.0109
   96DG     C11 2196   2.757   3.408   4.365  0.3499 -0.3224  0.1304
   96DG     C12 2197   2.597   3.637   4.000 -0.6239 -0.7022  0.1844
   96DG     H13 2198   2.680   3.339   4.332 -0.3989  0.0083  1.1575
   96DG     H14 2199   2.848   3.403   4.305 -0.2070  1.4346 -0.9549
   96DG     H15 2200   2.534   3.716   3.959  2.4913  2.2401  0.5964
   96DG     H16 2201   2.695   3.646   3.953 -0.7992  1.5195  0.1440
   96DG     C17 2202   2.714   3.553   4.339  0.3664 -0.3072  0.4097
   96DG     C18 2203   2.609   3.662   4.151 -0.4686 -0.1153 -0.1448
   96DG     O19 2204   2.689   3.559   4.199 -0.0384  0.3575 -0.4502
   96DG     H20 2205   2.776   3.632   4.381 -0.4865  2.1807 -2.6272
   96DG     H21 2206   2.616   3.567   4.387  0.3249 -1.7970  0.8287
   96DG     H22 2207   2.660   3.758   4.161 -0.1142 -0.2075 -0.9998
   96DG     H23 2208   2.512   3.670   4.200  0.7739  0.0040  2.4253
   97DG      C1 2209   2.833   5.182   0.203 -0.8780  0.0694 -0.4216
   97DG      C2 2210   2.318   4.383   0.205 -0.0777  0.2810 -0.5533
   97DG      H3 2211   2.885   5.237   0.125  1.6385 -0.1517  0.9877
   97DG      H4 2212   2.917   5.140   0.259 -0.2712 -0.0749 -1.4208
   97DG      H5 2213   2.773   5.243   0.271  0.9130  1.1371  0.2592
   97DG      H6 2214   2.289   4.308   0.132 -1.2896  1.1421 -0.9954
   97DG      H7 2215   2.358   4.342   0.297 -0.1536 -1.5064 -1.2823
   97DG      H8 2216   2.225   4.435   0.225 -0.1261  0.2636 -0.7295
   97DG      O9 2217   2.758   5.080   0.146 -0.2124  0.3872  0.1100
   97DG     O10 2218   2.395   4.477   0.135 -0.3684 -0.2042  0.2091
   97DG     C11 2219   2.706   4.984   0.236 -0.1394  0.0436  0.0524
   97DG     C12 2220   2.428   4.585   0.218  0.2725  0.5625 -0.5755
   97DG     H13 2221   2.612   5.020   0.276 -0.5042 -0.2593 -0.5160
   97DG     H14 2222   2.769   4.965   0.323 -0.0508  0.1411  0.0096
   97DG     H15 2223   2.475   4.553   0.311 -0.0916  2.2869  0.2285
   97DG     H16 2224   2.336   4.632   0.252  0.0023  0.2442 -0.8591
   97DG     C17 2225   2.689   4.844   0.179  0.3233  0.1548  0.4555
   97DG     C18 2226   2.531   4.672   0.149  0.0419 -0.2949  0.1132
   97DG     O19 2227   2.571   4.784   0.235  0.2647 -0.2059 -0.9006
   97DG     H20 2228   2.772   4.776   0.200 -1.1649 -1.1354  2.4828
   97DG     H21 2229   2.676   4.869   0.074 -4.7137 -0.0145  0.7964
   97DG     H22 2230   2.617   4.611   0.123  0.9589  1.5174 -1.3847
   97DG     H23 2231   2.475   4.701   0.060  1.4068 -0.8322 -0.9571
   98DG      C1 2232   2.139   5.299   2.940 -0.1657  0.5419  0.5444
   98DG      C2 2233   2.622   5.118   3.506  0.4902  0.3672 -0.0739
   98DG      H3 2234   2.078   5.217   2.976 -1.1627  0.8720 -0.3485
   98DG      H4 2235   2.195   5.263   2.853 -1.8769  3.4161 -1.9411
   98DG      H5 2236   2.073   5.374   2.897 -0.4830 -0.3089 -0.4926
   98DG      H6 2237   2.633   5.140   3.612  0.1610 -0.0781  0.0508
   98DG      H7 2238   2.584   5.017   3.495 -0.2326  0.6130  0.1120
   98DG      H8 2239   2.718   5.100   3.457  2.4882 -0.0683  3.6355
   98DG      O9 2240   2.222   5.345   3.042 -0.5913 -0.2999 -0.2449
   98DG     O10 2241   2.529   5.198   3.435  0.2471  0.0394 -0.8797
   98DG     C11 2242   2.159   5.425   3.142  0.4975 -0.1906  0.3838
   98DG     C12 2243   2.417   5.246   3.516 -0.4435  1.1675 -0.3452
   98DG     H13 2244   2.076   5.369   3.184 -2.0390  0.8087 -2.8623
   98DG     H14 2245   2.117   5.510   3.087  0.3315  0.7025  1.8356
   98DG     H15 2246   2.452   5.268   3.617 -0.2741  0.5428 -0.2637
   98DG     H16 2247   2.350   5.162   3.535  0.0486  0.7831 -0.2827
   98DG     C17 2248   2.237   5.453   3.273  0.2129 -0.1729 -0.4353
   98DG     C18 2249   2.345   5.366   3.464  0.6465 -0.6497 -0.1147
   98DG     O19 2250   2.283   5.336   3.338  0.6679 -0.8889 -0.0422
   98DG     H20 2251   2.172   5.513   3.337 -0.6621 -2.0919  0.5328
   98DG     H21 2252   2.327   5.512   3.254  1.5812 -1.6528  1.0923
   98DG     H22 2253   2.275   5.390   3.543  1.5879  0.9606  0.2770
   98DG     H23 2254   2.420   5.444   3.448  3.0891 -3.0876 -1.4013
   99DG      C1 2255   0.020   3.786   4.480 -0.0330  0.6899 -0.2347
   99DG      C2 2256   0.557   4.365   4.425 -0.4640  0.2870  0.1162
   99DG      H3 2257  -0.051   3.752   4.404  0.8049 -1.3035 -0.1983
   99DG      H4 2258  -0.018   3.749   4.576 -2.5528  1.7162 -0.7622
   99DG      H5 2259   0.121   3.745   4.478  0.8213  2.7328 -1.6354
   99DG      H6 2260   0.582   4.408   4.328 -1.9538 -0.2743 -0.5347
   99DG      H7 2261   0.504   4.445   4.477  0.1858  0.8728 -0.0964
   99DG      H8 2262   0.646   4.330   4.477 -1.1823 -0.9306  0.5738
   99DG      O9 2263   0.042   3.925   4.466 -0.0087 -0.7584 -0.7329
   99DG     O10 2264   0.468   4.267   4.397  0.7231 -0.8874 -0.4003
   99DG     C11 2265   0.078   3.955   4.332 -0.3437 -0.5902 -0.1178
   99DG     C12 2266   0.433   4.174   4.500  0.6529  0.2235  0.2761
   99DG     H13 2267  -0.006   3.932   4.267 -0.4014  0.5414 -0.4612
   99DG     H14 2268   0.167   3.905   4.294 -0.5082 -0.3488 -0.8427
   99DG     H15 2269   0.407   4.221   4.594 -0.1915 -1.2655  0.8270
   99DG     H16 2270   0.516   4.103   4.505  0.9934  0.5421 -0.5341
   99DG     C17 2271   0.111   4.110   4.324 -0.7679  0.0254  0.7009
   99DG     C18 2272   0.319   4.089   4.436 -0.7139  0.0468  0.3218
   99DG     O19 2273   0.199   4.158   4.421  0.4146  0.5134  0.3628
   99DG     H20 2274   0.022   4.172   4.326  0.1574  1.4083  0.2908
   99DG     H21 2275   0.148   4.118   4.221 -3.1208 -1.1983 -0.3141
   99DG     H22 2276   0.347   4.053   4.337  1.1516  1.1378  0.4147
   99DG     H23 2277   0.299   3.999   4.494 -0.9020  0.6046  1.1409
  100DG      C1 2278   0.522   3.634   1.512 -0.1846  0.3290  0.5688
  100DG      C2 2279   0.683   4.016   1.055 -0.5373  0.1242  0.4539
  100DG      H3 2280   0.505   3.529   1.537  0.4214 -0.3917 -1.7385
  100DG      H4 2281   0.452   3.701   1.561  1.3663  0.8573  2.1464
  100DG      H5 2282   0.618   3.653   1.559  1.6023 -1.5788 -2.0125
  100DG      H6 2283   0.702   4.040   1.159 -0.7198 -0.8961  0.7318
  100DG      H7 2284   0.769   3.983   0.997 -2.3472 -1.2101 -1.6144
  100DG      H8 2285   0.641   4.104   1.004 -1.1076 -0.6601 -0.4758
  100DG      O9 2286   0.556   3.650   1.378 -0.3314 -0.1984 -0.1579
  100DG     O10 2287   0.588   3.919   1.082 -0.3442  0.0575  0.3852
  100DG     C11 2288   0.488   3.547   1.303 -0.0779  0.5051 -0.3663
  100DG     C12 2289   0.547   3.832   0.969 -0.1546 -0.5325  0.2533
  100DG     H13 2290   0.392   3.523   1.348  0.6210 -2.0150 -0.1028
  100DG     H14 2291   0.540   3.453   1.321 -0.4874  0.8775  3.5870
  100DG     H15 2292   0.626   3.759   0.956 -0.0011 -0.2705 -0.3109
  100DG     H16 2293   0.548   3.888   0.875  2.1186  2.8595  2.0897
  100DG     C17 2294   0.478   3.582   1.156 -0.0082 -0.6860  0.4059
  100DG     C18 2295   0.412   3.765   1.007  0.1523  0.3767  0.1770
  100DG     O19 2296   0.410   3.711   1.138  0.3586  0.1328 -0.3577
  100DG     H20 2297   0.429   3.510   1.091  1.2394 -0.3101 -1.0058
  100DG     H21 2298   0.574   3.577   1.103 -0.5685 -0.1671 -0.7065
  100DG     H22 2299   0.332   3.839   1.015  0.3959  0.7469 -0.7407
  100DG     H23 2300   0.374   3.693   0.934  0.4993  1.0909 -0.7259
  101DG      C1 2301   5.418   2.786   4.047 -0.7287  0.3575  0.3860
  101DG      C2 2302   4.837   2.597   4.491  0.0004  0.2688  1.0296
  101DG      H3 2303   5.505   2.754   3.989 -0.4584  0.3271  0.8074
  101DG      H4 2304   5.451   2.798   4.150  0.4623 -1.5588  0.2736
  101DG      H5 2305   5.384   2.883   4.009 -0.4236  0.7486  1.0834
  101DG      H6 2306   4.785   2.510   4.532 -0.9667 -0.3867 -1.4414
  101DG      H7 2307   4.924   2.624   4.552  0.9266 -1.5127  0.5861
  101DG      H8 2308   4.766   2.679   4.486  0.6700  0.8116  0.0226
  101DG      O9 2309   5.310   2.688   4.050 -0.3071  0.4188 -0.1146
  101DG     O10 2310   4.874   2.572   4.361  0.0823  0.3338 -0.2172
  101DG     C11 2311   5.197   2.697   3.963  0.4519  0.1670 -0.2888
  101DG     C12 2312   4.995   2.501   4.340  0.4941 -0.6935 -0.4006
  101DG     H13 2313   5.237   2.685   3.863  1.1122  1.6187 -0.2271
  101DG     H14 2314   5.149   2.795   3.968 -2.9059 -1.3819  0.9683
  101DG     H15 2315   4.998   2.406   4.393 -0.2615 -0.0592  0.8299
  101DG     H16 2316   5.082   2.546   4.389  0.0501 -0.2416 -0.0107
  101DG     C17 2317   5.103   2.581   4.007 -0.1033  0.0603 -0.2209
  101DG     C18 2318   5.016   2.480   4.193 -0.7076 -0.1334  0.3514
  101DG     O19 2319   5.082   2.593   4.141 -0.1935  0.2614 -0.6522
  101DG     H20 2320   5.152   2.487   3.979  0.4593  0.3945 -0.3708
  101DG     H21 2321   5.009   2.581   3.952 -0.0737  0.5291 -0.2739
  101DG     H22 2322   5.078   2.394   4.167  1.8689  1.4341  1.0234
  101DG     H23 2323   4.920   2.453   4.148 -0.9523 -1.7453  1.7162
  102DG      C1 2324   0.830   3.956   2.720  0.0443 -0.0149  0.5398
  102DG      C2 2325   0.290   3.756   2.252 -0.5660  0.4672 -0.0519
  102DG      H3 2326   0.798   4.060   2.712  0.8163  0.1805 -0.2364
  102DG      H4 2327   0.853   3.922   2.619  1.3218 -0.4995  0.9666
  102DG      H5 2328   0.915   3.964   2.788 -1.2370  1.2072  2.0587
  102DG      H6 2329   0.296   3.864   2.235  0.7050  0.2583 -1.0899
  102DG      H7 2330   0.273   3.712   2.154 -0.0086 -0.6772  0.3536
  102DG      H8 2331   0.210   3.731   2.321 -0.5273 -1.1434 -0.5543
  102DG      O9 2332   0.733   3.880   2.786  0.2701 -0.1360  0.3908
  102DG     O10 2333   0.416   3.712   2.305  0.5182 -0.4554 -0.3359
  102DG     C11 2334   0.749   3.744   2.799 -0.6799  0.3621  0.8240
  102DG     C12 2335   0.430   3.744   2.446 -0.1811  0.1035  0.0674
  102DG     H13 2336   0.678   3.710   2.874 -1.0536  1.4999  1.0030
  102DG     H14 2337   0.853   3.733   2.831 -0.0617  3.0379 -0.0091
  102DG     H15 2338   0.354   3.703   2.513 -0.1337  1.6769  1.1543
  102DG     H16 2339   0.424   3.851   2.468 -0.6818 -0.2498  1.7969
  102DG     C17 2340   0.716   3.672   2.671  0.3834  0.8426  0.1038
  102DG     C18 2341   0.567   3.700   2.488  0.8274  0.5994  0.3959
  102DG     O19 2342   0.590   3.721   2.625 -0.0771  0.0042 -0.0741
  102DG     H20 2343   0.697   3.566   2.688  1.7285  0.2007 -2.0162
  102DG     H21 2344   0.800   3.677   2.602 -0.5545  2.0838 -0.9983
  102DG     H22 2345   0.592   3.595   2.471  0.2020  0.6473 -0.9979
  102DG     H23 2346   0.640   3.750   2.424 -1.4332  0.3742 -2.6336
  103DG      C1 2347   4.398   4.363   4.255  0.2037  0.0672 -0.0287
  103DG      C2 2348   3.859   3.810   4.323 -0.5781 -0.1939  0.1002
  103DG      H3 2349   4.449   4.355   4.159  0.1735 -0.2461 -0.0217
  103DG      H4 2350   4.472   4.409   4.321  1.3674  1.6893 -2.3412
  103DG      H5 2351   4.322   4.436   4.229 -0.1858  0.5893  2.3033
  103DG      H6 2352   3.831   3.720   4.378  0.5115 -1.0170 -0.6450
  103DG      H7 2353   3.781   3.881   4.298 -0.5146 -0.4303 -0.8118
  103DG      H8 2354   3.886   3.752   4.235 -2.1792 -2.6541  1.0949
  103DG      O9 2355   4.349   4.243   4.296  0.2230  0.3739 -0.3933
  103DG     O10 2356   3.967   3.877   4.362 -0.8160 -0.3841 -0.0941
  103DG     C11 2357   4.247   4.191   4.205 -0.5782  0.4994  0.4856
  103DG     C12 2358   4.085   3.797   4.378 -0.8910  0.4292 -0.0020
  103DG     H13 2359   4.314   4.150   4.129  0.5596  1.8994  0.6859
  103DG     H14 2360   4.187   4.266   4.154  0.5692  1.5493  0.6374
  103DG     H15 2361   4.091   3.727   4.295  1.6594  1.4460 -0.7720
  103DG     H16 2362   4.056   3.748   4.471  1.2630  2.0544  1.6480
  103DG     C17 2363   4.157   4.085   4.274  0.5434  0.3460 -0.0089
  103DG     C18 2364   4.201   3.892   4.398 -0.3634 -0.4388  0.2430
  103DG     O19 2365   4.243   3.970   4.292  0.1179 -0.3659  0.0837
  103DG     H20 2366   4.072   4.060   4.211 -1.8067  1.0854  2.6532
  103DG     H21 2367   4.118   4.121   4.369  0.1122  0.8878 -0.3877
  103DG     H22 2368   4.194   3.949   4.490  2.8984  1.2264 -0.3750
  103DG     H23 2369   4.282   3.823   4.421 -0.5402 -0.6569  0.2139
  104DG      C1 2370   0.631   3.111   0.456  0.2807 -0.6163  0.0254
  104DG      C2 2371   0.185   3.372   0.933  1.0199 -0.3310  0.2657
  104DG      H3 2372   0.681   3.068   0.542  1.7270  1.6491  0.3959
  104DG      H4 2373   0.706   3.148   0.386  1.4774 -1.0385  1.0447
  104DG      H5 2374   0.588   3.018   0.419  1.3824 -1.7894  1.5945
  104DG      H6 2375   0.166   3.419   1.029  0.6583 -0.7492  0.4035
  104DG      H7 2376   0.141   3.275   0.958 -0.3784  0.6816  1.9298
  104DG      H8 2377   0.287   3.368   0.893  0.8331 -0.1262 -0.2413
  104DG      O9 2378   0.528   3.203   0.482 -0.4783 -0.1767 -0.4017
  104DG     O10 2379   0.102   3.433   0.840  0.1544 -0.3712 -0.2745
  104DG     C11 2380   0.565   3.313   0.569  0.1365  0.1763 -0.3364
  104DG     C12 2381   0.102   3.361   0.713  0.6153  0.6167  0.3828
  104DG     H13 2382   0.648   3.370   0.527 -0.4409  2.1233  1.0060
  104DG     H14 2383   0.599   3.271   0.663 -0.0965  0.5965 -0.0608
  104DG     H15 2384   0.002   3.371   0.672  0.6751 -0.1203  0.0453
  104DG     H16 2385   0.117   3.257   0.741 -4.7563 -0.6453 -0.2877
  104DG     C17 2386   0.437   3.401   0.570 -0.3500  0.0135  0.4978
  104DG     C18 2387   0.208   3.415   0.615  0.7086  0.1315  0.5008
  104DG     O19 2388   0.330   3.352   0.644  0.3141 -0.0427 -0.1022
  104DG     H20 2389   0.418   3.421   0.464 -0.9859  2.5559  1.0252
  104DG     H21 2390   0.459   3.503   0.601 -0.4347  0.5736 -1.1409
  104DG     H22 2391   0.176   3.391   0.514  1.0275 -2.2589  0.9008
  104DG     H23 2392   0.228   3.520   0.636 -1.0635  0.2171  2.0593
  105DG      C1 2393   3.298   0.340   0.597  1.0903 -0.2335  1.0399
  105DG      C2 2394   3.701   0.858   0.456  0.8464 -0.2646  0.4374
  105DG      H3 2395   3.206   0.323   0.653  0.4438  1.4720  0.5478
  105DG      H4 2396   3.363   0.252   0.607 -0.1101 -1.4781 -1.2844
  105DG      H5 2397   3.263   0.349   0.494  1.8882  0.1975  0.7969
  105DG      H6 2398   3.711   0.965   0.438 -1.2086  0.2410  1.9585
  105DG      H7 2399   3.757   0.833   0.545 -0.5034  0.3253  1.4856
  105DG      H8 2400   3.760   0.804   0.382  0.7266 -0.1547  0.2581
  105DG      O9 2401   3.358   0.464   0.611 -0.5702 -0.0714  0.1123
  105DG     O10 2402   3.564   0.822   0.447 -0.0183 -0.1146  0.9112
  105DG     C11 2403   3.389   0.500   0.742 -1.1032 -0.5240 -0.6473
  105DG     C12 2404   3.474   0.892   0.524 -0.2450 -0.6975  0.7437
  105DG     H13 2405   3.491   0.466   0.758 -0.5312  1.1890 -0.4986
  105DG     H14 2406   3.324   0.461   0.821  1.6492  1.5458  2.9525
  105DG     H15 2407   3.380   0.880   0.469 -0.7034  0.8538  1.1374
  105DG     H16 2408   3.499   0.997   0.518 -1.0942 -0.5033  0.3935
  105DG     C17 2409   3.395   0.650   0.759 -0.3204  0.2579  0.0530
  105DG     C18 2410   3.468   0.845   0.669  0.1378  0.7639 -0.1485
  105DG     O19 2411   3.454   0.705   0.646  0.3727  0.1374  0.0899
  105DG     H20 2412   3.442   0.680   0.853 -0.5195 -2.4326  1.0737
  105DG     H21 2413   3.294   0.690   0.752  0.4954  2.1866 -2.4374
  105DG     H22 2414   3.565   0.855   0.719 -0.4203 -1.0196  1.4050
  105DG     H23 2415   3.385   0.889   0.723 -1.5031 -0.4810 -1.5533
  106DG      C1 2416   0.215   4.868   2.522 -1.4095  0.0553  0.0356
  106DG      C2 2417   0.263   4.490   2.000 -0.6834 -0.3513  0.0644
  106DG      H3 2418   0.308   4.899   2.475 -1.1221 -2.2019 -1.0263
  106DG      H4 2419   0.223   4.890   2.629 -1.3763 -1.7294  0.4369
  106DG      H5 2420   0.130   4.927   2.488 -0.2264  2.3965  0.8770
  106DG      H6 2421   0.338   4.566   1.977 -1.0713 -0.7408 -2.8702
  106DG      H7 2422   0.304   4.389   1.988 -0.9017 -0.7100  1.9322
  106DG      H8 2423   0.196   4.499   1.915 -0.3087  2.3355 -0.0129
  106DG      O9 2424   0.192   4.734   2.496 -0.1043 -1.0057 -0.2312
  106DG     O10 2425   0.193   4.511   2.121 -0.4999 -0.1922 -0.5865
  106DG     C11 2426   0.083   4.669   2.552 -0.5724 -0.3689  0.4291
  106DG     C12 2427   0.090   4.415   2.141  0.3688 -0.1465  0.7685
  106DG     H13 2428  -0.003   4.734   2.565  0.2901  1.0081 -0.4295
  106DG     H14 2429   0.107   4.649   2.657 -1.1592  1.8691  1.0361
  106DG     H15 2430   0.133   4.314   2.143 -0.0804 -0.3434  0.3629
  106DG     H16 2431   0.024   4.426   2.056  3.0804  0.5340 -1.4137
  106DG     C17 2432   0.042   4.530   2.492 -0.0683  0.2736 -0.0677
  106DG     C18 2433   0.027   4.429   2.276 -0.7715 -0.1590 -0.7020
  106DG     O19 2434   0.082   4.534   2.353  0.5868  0.5660 -1.0602
  106DG     H20 2435  -0.067   4.534   2.488 -0.0211  3.1348 -0.3852
  106DG     H21 2436   0.072   4.444   2.552 -0.8474 -0.5822 -0.8517
  106DG     H22 2437  -0.076   4.456   2.257 -0.0476  1.9797 -1.8840
  106DG     H23 2438   0.034   4.334   2.330  2.5208 -0.2073 -0.9640
  107DG      C1 2439   1.471   4.344   1.184  0.1178  0.3880  0.0362
  107DG      C2 2440   1.691   4.353   1.839 -0.0333 -0.4196 -0.8095
  107DG      H3 2441   1.371   4.380   1.208 -0.5395 -1.7811  0.8129
  107DG      H4 2442   1.455   4.277   1.099 -2.6331  2.2217 -1.0394
  107DG      H5 2443   1.530   4.431   1.157  3.0647  0.3139  5.0697
  107DG      H6 2444   1.586   4.380   1.857 -0.4973 -1.8147 -1.2956
  107DG      H7 2445   1.715   4.271   1.907 -0.2824  0.1536 -0.0033
  107DG      H8 2446   1.760   4.434   1.863  0.7761 -1.8652  2.2898
  107DG      O9 2447   1.544   4.277   1.291 -0.1653  0.6299  0.4614
  107DG     O10 2448   1.698   4.311   1.703  0.2665  0.1183  0.0386
  107DG     C11 2449   1.666   4.234   1.240 -0.2906  0.1277 -0.7899
  107DG     C12 2450   1.828   4.266   1.671  0.0052 -0.6968  0.4635
  107DG     H13 2451   1.733   4.315   1.212  3.9360 -2.5085  0.6936
  107DG     H14 2452   1.645   4.185   1.145 -3.0289 -2.1617  0.8527
  107DG     H15 2453   1.838   4.168   1.719  0.2543 -1.1408 -0.4752
  107DG     H16 2454   1.911   4.327   1.705 -0.1195 -1.4867  2.3064
  107DG     C17 2455   1.747   4.137   1.333  0.4095  0.3024  0.4974
  107DG     C18 2456   1.841   4.247   1.519  0.2297 -0.0554  0.2577
  107DG     O19 2457   1.737   4.170   1.466 -0.2456  0.3576  0.1748
  107DG     H20 2458   1.848   4.119   1.296  0.1124  0.9205 -0.6666
  107DG     H21 2459   1.699   4.039   1.327  0.1984  0.2679  2.1802
  107DG     H22 2460   1.851   4.347   1.475  1.6081  1.1853  3.1493
  107DG     H23 2461   1.934   4.200   1.487 -0.4051 -0.4226 -1.1130
  108DG      C1 2462   2.977   1.240   3.952 -0.0201 -0.4558  0.6234
  108DG      C2 2463   2.414   1.121   3.705  0.7313 -0.0758  0.5312
  108DG      H3 2464   3.056   1.217   3.880 -1.1773 -0.0090 -0.8467
  108DG      H4 2465   3.016   1.255   4.052 -2.8232 -3.3084  2.3119
  108DG      H5 2466   2.947   1.334   3.905 -1.9513  0.4658  3.4294
  108DG      H6 2467   2.478   1.131   3.617 -1.4171 -1.0554 -1.2564
  108DG      H7 2468   2.314   1.084   3.681 -0.0449  0.2045  3.0445
  108DG      H8 2469   2.384   1.222   3.734 -1.7111 -0.3866 -0.6069
  108DG      O9 2470   2.864   1.155   3.952 -0.2314  0.1305 -0.6840
  108DG     O10 2471   2.483   1.062   3.817  0.0891  0.3607 -0.2854
  108DG     C11 2472   2.903   1.019   3.974  0.1948 -0.4018  0.3102
  108DG     C12 2473   2.505   0.928   3.796  0.1194 -0.0921 -0.4191
  108DG     H13 2474   2.923   1.006   4.080 -1.0348 -1.0937  0.4705
  108DG     H14 2475   2.990   1.008   3.908 -1.1125  0.0102 -1.5688
  108DG     H15 2476   2.570   0.908   3.711 -1.9483 -1.8884 -1.6916
  108DG     H16 2477   2.410   0.878   3.774  0.3924 -0.8419  0.0869
  108DG     C17 2478   2.790   0.923   3.920  0.0643  0.0391  0.0746
  108DG     C18 2479   2.565   0.866   3.920 -0.0463 -0.1468  0.3620
  108DG     O19 2480   2.665   0.953   3.975 -0.7135  0.1572  0.3370
  108DG     H20 2481   2.826   0.822   3.936 -1.8345 -0.4195  1.8805
  108DG     H21 2482   2.773   0.937   3.813 -0.4459  1.6048  0.3368
  108DG     H22 2483   2.488   0.853   3.997  0.0314 -3.5178  0.0302
  108DG     H23 2484   2.592   0.764   3.895  0.7696  0.5248 -1.6923
  109DG      C1 2485   1.063   3.694   4.801 -0.0538  0.3052  0.0551
  109DG      C2 2486   1.455   3.320   5.316  0.0371 -0.4803  0.1458
  109DG      H3 2487   1.039   3.661   4.700  1.2669  1.9551 -0.8554
  109DG      H4 2488   1.142   3.769   4.800  2.4894 -2.1590  0.4262
  109DG      H5 2489   0.969   3.729   4.842  0.8337  3.0197 -0.0422
  109DG      H6 2490   1.507   3.394   5.377 -0.5515 -0.9977  1.3061
  109DG      H7 2491   1.361   3.291   5.363  0.6275 -1.1027  0.9838
  109DG      H8 2492   1.521   3.234   5.327 -2.4261 -2.2018  2.7561
  109DG      O9 2493   1.117   3.583   4.866  0.4443  0.1646 -0.4111
  109DG     O10 2494   1.447   3.352   5.182 -0.1964 -0.7173  0.2452
  109DG     C11 2495   1.055   3.558   4.995  0.0091  0.1022 -0.3335
  109DG     C12 2496   1.398   3.256   5.091  0.1511  0.2613  0.1975
  109DG     H13 2497   0.958   3.511   4.978  0.0091  0.7679 -2.5185
  109DG     H14 2498   1.046   3.650   5.053 -1.3930 -0.3949  0.2778
  109DG     H15 2499   1.442   3.158   5.110 -1.0323 -0.0834  1.3200
  109DG     H16 2500   1.426   3.274   4.988 -1.0013  0.4095 -0.1098
  109DG     C17 2501   1.134   3.467   5.085 -0.0754  0.0129  0.1035
  109DG     C18 2502   1.245   3.249   5.083 -0.0692 -0.5070  0.9804
  109DG     O19 2503   1.172   3.352   5.010  0.5159 -0.0597 -0.1970
  109DG     H20 2504   1.082   3.451   5.180  1.9064  1.2211  1.4473
  109DG     H21 2505   1.216   3.525   5.126 -0.2337  0.4229 -0.1577
  109DG     H22 2506   1.208   3.163   5.027 -2.3014  0.3385  1.0529
  109DG     H23 2507   1.204   3.236   5.183 -1.1314 -1.1984  0.4708
  110DG      C1 2508   1.927   1.992   2.023  0.2572  0.6236 -1.0510
  110DG      C2 2509   2.330   1.250   2.054 -0.0778 -0.2159 -0.6253
  110DG      H3 2510   2.006   2.064   1.999 -0.3033  0.9205 -2.0371
  110DG      H4 2511   1.879   2.012   2.119 -0.2884 -0.9342 -0.9770
  110DG      H5 2512   1.852   2.006   1.946 -0.5815  3.3550  0.1375
  110DG      H6 2513   2.417   1.311   2.075 -0.7845  0.9293 -0.9641
  110DG      H7 2514   2.338   1.144   2.080  0.1171  0.0286  0.3449
  110DG      H8 2515   2.304   1.262   1.949 -2.5969 -1.5276 -0.2387
  110DG      O9 2516   1.977   1.856   2.021  0.2014  0.3643 -0.1648
  110DG     O10 2517   2.212   1.291   2.124  0.3046 -0.0328  0.6693
  110DG     C11 2518   1.874   1.762   2.027 -0.8263 -0.2042  0.7056
  110DG     C12 2519   2.164   1.419   2.087  0.0922  0.6058 -1.2817
  110DG     H13 2520   1.803   1.773   1.944  1.3345  1.7552 -1.0109
  110DG     H14 2521   1.811   1.776   2.115 -2.0653  0.0221 -0.1717
  110DG     H15 2522   2.135   1.412   1.982 -0.2295 -0.6483 -1.1266
  110DG     H16 2523   2.240   1.495   2.102  1.3661 -0.8158 -0.2927
  110DG     C17 2524   1.915   1.609   2.035  0.1638  0.0968 -0.4145
  110DG     C18 2525   2.042   1.452   2.178  0.8022 -0.1052  0.2169
  110DG     O19 2526   1.986   1.583   2.155 -0.5606 -0.9230 -0.4036
  110DG     H20 2527   1.980   1.594   1.948  2.4994  1.3957  0.9890
  110DG     H21 2528   1.825   1.548   2.030 -0.0987  0.5021 -0.6496
  110DG     H22 2529   1.971   1.374   2.151  1.0499  0.2967 -1.7851
  110DG     H23 2530   2.065   1.442   2.284  0.4653  0.8504  0.3859
  111DG      C1 2531   3.870   1.630   5.104  0.5895  0.0573 -0.0505
  111DG      C2 2532   3.995   2.481   5.182  0.1457 -0.0469  0.6553
  111DG      H3 2533   3.807   1.573   5.036  0.0167 -1.1174  1.4068
  111DG      H4 2534   3.824   1.618   5.202  0.3812  1.6741  0.0845
  111DG      H5 2535   3.966   1.579   5.102 -0.0619 -1.1771 -1.6865
  111DG      H6 2536   4.010   2.574   5.125 -0.6779 -0.0869  0.3642
  111DG      H7 2537   3.942   2.507   5.273 -1.8811 -2.6386  0.3293
  111DG      H8 2538   4.090   2.431   5.200  1.2425  1.0881 -1.4503
  111DG      O9 2539   3.880   1.764   5.063  0.4310  0.6107 -0.0619
  111DG     O10 2540   3.912   2.400   5.102 -0.5252  0.0492 -0.3704
  111DG     C11 2541   3.752   1.825   5.079 -0.0393  0.4095 -0.0581
  111DG     C12 2542   3.877   2.287   5.178  0.7123 -0.3185 -0.1500
  111DG     H13 2543   3.715   1.815   5.181 -2.6774 -0.5838 -1.0205
  111DG     H14 2544   3.684   1.766   5.018  0.1865  0.0679  0.0199
  111DG     H15 2545   3.786   2.301   5.238  0.6096  0.0661 -0.3935
  111DG     H16 2546   3.955   2.250   5.244  0.5283 -1.0447 -0.3228
  111DG     C17 2547   3.760   1.965   5.028 -0.0436 -0.1556 -0.9051
  111DG     C18 2548   3.844   2.180   5.080 -0.3325 -0.1138  0.1127
  111DG     O19 2549   3.812   2.048   5.136 -0.1256 -0.0727  0.3025
  111DG     H20 2550   3.662   2.008   5.009  0.1518  0.4841 -0.5106
  111DG     H21 2551   3.807   1.973   4.930  0.7680 -0.5088 -0.5592
  111DG     H22 2552   3.761   2.202   5.013 -0.6661 -3.1447 -0.6287
  111DG     H23 2553   3.936   2.170   5.021  1.2236  3.5823  1.6085
  112DG      C1 2554   2.992   0.280   5.097 -0.0560  0.1027 -0.3869
  112DG      C2 2555   3.161   0.558   5.385 -0.1594 -0.4335 -0.1296
  112DG      H3 2556   2.971   0.175   5.115 -0.8324  0.1160 -1.1298
  112DG      H4 2557   3.049   0.338   5.169  1.2793 -0.6744 -0.7764
  112DG      H5 2558   3.057   0.288   5.010  3.2881  0.9156  1.9950
  112DG      H6 2559   3.202   0.458   5.403  0.0723 -0.4821 -0.8960
  112DG      H7 2560   3.106   0.554   5.290  0.6204 -4.6616 -0.5958
  112DG      H8 2561   3.245   0.625   5.368  1.8783 -2.2402  2.1002
  112DG      O9 2562   2.881   0.358   5.054  0.0787 -0.4259  0.1279
  112DG     O10 2563   3.093   0.624   5.490  0.2295 -0.2349  0.2197
  112DG     C11 2564   2.771   0.366   5.134  0.0934 -0.4464 -0.0580
  112DG     C12 2565   2.976   0.559   5.535 -0.1688 -0.2278 -0.2398
  112DG     H13 2566   2.759   0.267   5.178 -1.2106 -1.4505 -2.4634
  112DG     H14 2567   2.679   0.377   5.077 -1.7504 -0.2395  2.7671
  112DG     H15 2568   2.938   0.620   5.617 -0.2324  0.2253 -0.5995
  112DG     H16 2569   3.002   0.457   5.564 -0.6022 -0.3575 -0.3099
  112DG     C17 2570   2.780   0.484   5.231  0.1568  0.0732  0.5899
  112DG     C18 2571   2.858   0.569   5.434 -0.2728 -0.4243  0.1405
  112DG     O19 2572   2.882   0.474   5.329  0.0054  0.6227  0.2702
  112DG     H20 2573   2.677   0.502   5.261 -0.6891 -1.6275 -1.0603
  112DG     H21 2574   2.801   0.570   5.168  0.0671 -0.9701 -0.9191
  112DG     H22 2575   2.757   0.546   5.467 -0.5296  0.0620 -0.3034
  112DG     H23 2576   2.852   0.667   5.386 -2.2950 -0.4146  0.3485
  113DG      C1 2577   2.451   3.672   2.964  0.2659 -0.1463  0.1825
  113DG      C2 2578   2.308   3.210   2.435  0.1599  0.2664 -0.2498
  113DG      H3 2579   2.522   3.613   3.024  0.8771 -1.8046 -2.0350
  113DG      H4 2580   2.349   3.661   3.000  0.0928 -0.8498 -0.4990
  113DG      H5 2581   2.478   3.777   2.962  1.7157 -0.4551 -3.4200
  113DG      H6 2582   2.361   3.163   2.352 -0.2298  1.6266 -1.3087
  113DG      H7 2583   2.304   3.132   2.511  1.3197  0.2751 -0.1557
  113DG      H8 2584   2.209   3.244   2.405 -0.9677 -1.5577  1.1963
  113DG      O9 2585   2.475   3.628   2.827  0.0729 -0.2495 -0.0204
  113DG     O10 2586   2.399   3.314   2.476 -0.3581 -0.3973  0.2845
  113DG     C11 2587   2.430   3.727   2.735  0.4287  0.0906 -0.3496
  113DG     C12 2588   2.404   3.421   2.381 -0.0464  0.0212 -0.3183
  113DG     H13 2589   2.456   3.826   2.770  0.5434 -0.0836  0.0604
  113DG     H14 2590   2.321   3.719   2.737  0.5582 -2.6034  0.8847
  113DG     H15 2591   2.306   3.464   2.361 -0.6155 -0.0636  2.0543
  113DG     H16 2592   2.457   3.386   2.292 -1.0319 -2.1062 -0.1181
  113DG     C17 2593   2.494   3.689   2.601  0.3834  0.6626  0.4352
  113DG     C18 2594   2.495   3.531   2.432  0.2748 -0.2622 -0.6616
  113DG     O19 2595   2.437   3.568   2.563  0.0468 -0.3002 -0.4164
  113DG     H20 2596   2.601   3.671   2.616 -0.1640 -3.7209  0.3790
  113DG     H21 2597   2.484   3.764   2.522  0.2115  0.4276  0.2303
  113DG     H22 2598   2.589   3.483   2.460  1.2330  1.8353 -0.0618
  113DG     H23 2599   2.510   3.609   2.358  0.2237 -0.1745 -0.5797
  114DG      C1 2600   1.453   4.932   1.786 -0.2326  0.3085 -0.0946
  114DG      C2 2601   1.624   5.184   2.215 -0.2942 -0.2212 -0.3495
  114DG      H3 2602   1.349   4.902   1.770 -0.1771  1.1902 -2.5867
  114DG      H4 2603   1.502   4.978   1.700 -0.2265  0.0109 -0.2561
  114DG      H5 2604   1.444   5.003   1.867  2.7439  1.9462 -1.0430
  114DG      H6 2605   1.569   5.260   2.160 -0.0532 -0.2389 -0.6175
  114DG      H7 2606   1.581   5.183   2.315  0.6932 -1.1692  0.0925
  114DG      H8 2607   1.727   5.220   2.221  0.9062 -3.4523  1.0941
  114DG      O9 2608   1.548   4.830   1.829 -0.4259  0.2040  0.0825
  114DG     O10 2609   1.616   5.050   2.166 -0.1886 -0.1887 -0.1405
  114DG     C11 2610   1.508   4.760   1.947 -0.8321  0.1153  0.1431
  114DG     C12 2611   1.689   4.969   2.264 -0.4345  0.2863  0.4546
  114DG     H13 2612   1.458   4.666   1.924 -1.8137  0.4092  1.0400
  114DG     H14 2613   1.453   4.818   2.021  0.3402  2.0162 -0.3782
  114DG     H15 2614   1.661   4.989   2.367 -2.3189 -1.4380  0.3548
  114DG     H16 2615   1.793   4.999   2.254 -0.5340  0.3881 -0.3970
  114DG     C17 2616   1.630   4.699   2.021 -0.0308 -0.5018  0.9407
  114DG     C18 2617   1.676   4.821   2.230  0.4969 -0.2485  0.2968
  114DG     O19 2618   1.707   4.800   2.095  0.2900 -0.3525  0.1652
  114DG     H20 2619   1.702   4.661   1.949  0.5155  1.8841  0.1385
  114DG     H21 2620   1.591   4.619   2.084 -0.7845 -0.6281  0.3197
  114DG     H22 2621   1.753   4.777   2.293  1.0675 -4.0648 -2.6446
  114DG     H23 2622   1.575   4.783   2.248 -0.0083  1.1731  0.5412
  115DG      C1 2623   3.693   0.330   4.828  0.2974 -0.4754  0.5538
  115DG      C2 2624   4.165   0.490   4.349 -0.0086 -0.4884 -0.1209
  115DG      H3 2625   3.604   0.276   4.862 -0.9950 -0.6462 -2.7016
  115DG      H4 2626   3.691   0.437   4.849 -2.3699  0.0396 -1.6777
  115DG      H5 2627   3.784   0.295   4.875  1.0971  0.0995 -0.5117
  115DG      H6 2628   4.222   0.479   4.441 -0.5460 -3.0095 -0.0108
  115DG      H7 2629   4.230   0.479   4.262  0.0985  0.9890 -0.2591
  115DG      H8 2630   4.134   0.594   4.354  0.3576 -0.3163 -1.2267
  115DG      O9 2631   3.722   0.325   4.689 -0.2823 -0.7717 -0.4154
  115DG     O10 2632   4.059   0.398   4.367  0.2007 -0.2461 -1.0249
  115DG     C11 2633   3.625   0.370   4.601  0.7331 -0.4587  0.2961
  115DG     C12 2634   3.968   0.402   4.256  0.0050  1.1434  0.0448
  115DG     H13 2635   3.602   0.476   4.613 -0.8805 -0.7790  0.2657
  115DG     H14 2636   3.531   0.324   4.631  0.3207  1.3267  1.9271
  115DG     H15 2637   4.014   0.360   4.167  0.0090  2.0712 -0.4019
  115DG     H16 2638   3.940   0.505   4.237 -0.7824  0.7691 -0.8876
  115DG     C17 2639   3.664   0.326   4.459 -0.1661 -0.6018  0.1372
  115DG     C18 2640   3.830   0.346   4.293 -0.3546  0.2454  0.2546
  115DG     O19 2641   3.790   0.388   4.423 -0.3424 -0.5685 -0.2079
  115DG     H20 2642   3.590   0.351   4.383 -2.5706 -1.0467  2.1976
  115DG     H21 2643   3.671   0.218   4.468  1.0422 -0.3489  3.3077
  115DG     H22 2644   3.756   0.382   4.222  0.9673  1.8503 -0.3587
  115DG     H23 2645   3.853   0.242   4.270  0.8883  0.5696 -0.0171
  116DG      C1 2646   4.183   0.644   3.052 -0.5156  0.2814 -0.3834
  116DG      C2 2647   4.728   0.747   2.612  0.2518 -0.0137 -0.5998
  116DG      H3 2648   4.253   0.634   3.136 -0.2034 -2.5836 -0.8754
  116DG      H4 2649   4.164   0.546   3.010  0.4385 -0.2969  0.4848
  116DG      H5 2650   4.087   0.672   3.096 -0.4117  1.3355 -0.7935
  116DG      H6 2651   4.805   0.702   2.674 -1.5903 -1.5406  0.7129
  116DG      H7 2652   4.686   0.666   2.553  2.7884  0.1053 -2.7333
  116DG      H8 2653   4.771   0.803   2.529 -1.4607  0.0967 -1.4656
  116DG      O9 2654   4.225   0.742   2.955  0.8471 -0.1710  0.2150
  116DG     O10 2655   4.616   0.810   2.677 -0.5668 -0.5895  0.2269
  116DG     C11 2656   4.136   0.750   2.841  0.4853  0.3088 -0.2419
  116DG     C12 2657   4.523   0.863   2.583 -0.2566 -0.4546  0.1314
  116DG     H13 2658   4.029   0.768   2.846  0.5899  1.1258 -0.7274
  116DG     H14 2659   4.149   0.651   2.796 -0.1442  0.6995 -1.3107
  116DG     H15 2660   4.488   0.788   2.512 -1.3030  0.1147  0.0347
  116DG     H16 2661   4.567   0.947   2.530 -0.9173  1.0537  1.8707
  116DG     C17 2662   4.207   0.852   2.749 -0.4801 -0.0698 -0.0075
  116DG     C18 2663   4.406   0.916   2.660 -0.2154 -0.1723 -0.1568
  116DG     O19 2664   4.345   0.811   2.721  0.3524  0.8526 -0.1570
  116DG     H20 2665   4.207   0.949   2.799  0.0686 -0.7299  1.3100
  116DG     H21 2666   4.144   0.862   2.661 -1.9563 -0.0136  1.0332
  116DG     H22 2667   4.432   0.990   2.736 -3.1547 -0.2392  1.0232
  116DG     H23 2668   4.338   0.962   2.588  0.6524  1.8210  0.2280
  117DG      C1 2669   2.997   2.685   2.611  0.3795  0.3336 -0.0739
  117DG      C2 2670   3.517   2.274   2.928 -0.2984  0.2551  0.0287
  117DG      H3 2671   2.918   2.757   2.632  0.7115  0.5567  0.4261
  117DG      H4 2672   2.958   2.612   2.539  0.2834 -1.0601  1.3332
  117DG      H5 2673   3.080   2.748   2.578 -0.3567  2.5843  2.0871
  117DG      H6 2674   3.623   2.299   2.925  0.0419 -0.9226  1.4230
  117DG      H7 2675   3.525   2.177   2.977  2.0641 -0.5132 -1.7045
  117DG      H8 2676   3.473   2.253   2.830  1.9665 -2.7511 -0.5011
  117DG      O9 2677   3.030   2.619   2.739  0.2007  0.5774  0.0933
  117DG     O10 2678   3.436   2.363   2.997 -0.3531  0.0861  0.1312
  117DG     C11 2679   3.064   2.706   2.844 -0.5056 -0.0303  0.4083
  117DG     C12 2680   3.310   2.314   3.032  0.4262  0.3093 -0.1395
  117DG     H13 2681   2.990   2.779   2.876 -1.9313 -1.1760 -0.1605
  117DG     H14 2682   3.154   2.764   2.823  0.4175 -1.6063 -0.1853
  117DG     H15 2683   3.321   2.261   3.127 -0.0110  1.0784  0.3509
  117DG     H16 2684   3.264   2.239   2.967  1.9753 -2.5048  1.8252
  117DG     C17 2685   3.092   2.609   2.956 -0.0141  0.1385  0.5240
  117DG     C18 2686   3.223   2.436   3.063  0.7222 -0.0794  0.0567
  117DG     O19 2687   3.201   2.516   2.945  0.7175  0.2278 -0.0791
  117DG     H20 2688   3.001   2.552   2.975 -0.2879  0.6260  0.6789
  117DG     H21 2689   3.117   2.671   3.042  0.7474 -1.2508  1.3525
  117DG     H22 2690   3.131   2.393   3.104  1.5729 -3.3459 -1.1243
  117DG     H23 2691   3.270   2.489   3.146  2.2186 -2.1969  0.6487
  118DG      C1 2692   5.420   0.512   0.037  0.2225 -0.2860  0.4577
  118DG      C2 2693   5.876   0.133   0.298  0.5353  0.2973 -0.9303
  118DG      H3 2694   5.488   0.501  -0.047  0.8269  3.4020  0.3129
  118DG      H4 2695   5.448   0.609   0.076  0.6700 -1.1157  2.2887
  118DG      H5 2696   5.316   0.516   0.004 -0.3537 -0.3619  2.1842
  118DG      H6 2697   5.900   0.054   0.227  2.2716  1.5832 -1.8330
  118DG      H7 2698   5.922   0.229   0.276 -0.1404  1.2458  1.4871
  118DG      H8 2699   5.907   0.101   0.397  3.8623  0.6483 -1.7408
  118DG      O9 2700   5.436   0.410   0.133 -0.3817  0.0711 -0.3017
  118DG     O10 2701   5.735   0.155   0.299  1.1804  0.2659  0.2677
  118DG     C11 2702   5.347   0.300   0.113  0.7219 -0.2792 -0.2813
  118DG     C12 2703   5.666   0.028   0.303 -0.3258  0.0020 -0.0784
  118DG     H13 2704   5.383   0.264   0.017 -0.0777  1.0360 -1.1205
  118DG     H14 2705   5.243   0.330   0.098  0.7455 -0.9733 -2.2045
  118DG     H15 2706   5.700  -0.039   0.382 -0.7405 -0.8383 -0.6055
  118DG     H16 2707   5.669  -0.024   0.207 -0.7006 -0.8116  0.3430
  118DG     C17 2708   5.362   0.211   0.231 -0.1779 -0.0150  0.0786
  118DG     C18 2709   5.528   0.073   0.333  0.0589  0.0039  0.2952
  118DG     O19 2710   5.496   0.166   0.231  0.1903  0.2455  0.1475
  118DG     H20 2711   5.285   0.134   0.219 -1.1919  1.1965 -1.6418
  118DG     H21 2712   5.330   0.257   0.325 -1.5277 -2.4143  0.9038
  118DG     H22 2713   5.460  -0.011   0.349  0.7410 -0.3387  1.5267
  118DG     H23 2714   5.514   0.114   0.433 -0.2586 -1.0598  0.6972
  119DG      C1 2715   5.477   4.953   4.205 -0.5131  0.0699  0.9453
  119DG      C2 2716   5.660   4.571   4.748  0.2970  0.0968  0.0896
  119DG      H3 2717   5.527   4.952   4.108 -2.8563  2.6939 -0.4678
  119DG      H4 2718   5.430   5.051   4.210 -2.5071 -0.8822  1.9069
  119DG      H5 2719   5.391   4.886   4.202 -0.3783 -0.0859  0.4366
  119DG      H6 2720   5.666   4.576   4.857  2.6571  1.3674 -0.0365
  119DG      H7 2721   5.560   4.535   4.723 -0.1215  0.9203  0.5337
  119DG      H8 2722   5.745   4.507   4.724  0.0147  0.0341 -0.7347
  119DG      O9 2723   5.564   4.923   4.314  0.4568  0.3903  0.6247
  119DG     O10 2724   5.676   4.694   4.683 -0.0007  0.1304  0.3078
  119DG     C11 2725   5.687   4.992   4.298  0.5609  0.1092  0.0193
  119DG     C12 2726   5.799   4.754   4.705  0.2479 -0.6684  0.6841
  119DG     H13 2727   5.672   5.085   4.243 -0.5315 -0.3117 -0.4117
  119DG     H14 2728   5.752   4.950   4.221  2.8003  2.1766  0.6673
  119DG     H15 2729   5.872   4.682   4.670 -1.2729 -1.9250 -0.0044
  119DG     H16 2730   5.806   4.774   4.812  1.8073  2.4048  0.1382
  119DG     C17 2731   5.766   5.008   4.424  0.1683  0.4939  0.6568
  119DG     C18 2732   5.801   4.890   4.626  0.2880  0.1409 -0.8684
  119DG     O19 2733   5.764   4.878   4.490 -0.1021 -0.2552 -0.4819
  119DG     H20 2734   5.718   5.082   4.488  1.1200  1.8288 -0.1359
  119DG     H21 2735   5.868   5.033   4.394 -0.0126  0.5305  0.0707
  119DG     H22 2736   5.739   4.963   4.678 -2.0213  0.2707 -3.5858
  119DG     H23 2737   5.897   4.940   4.641 -0.7920  2.0794 -0.0990
  120DG      C1 2738   2.240   2.341   0.086  0.0161 -0.8991  0.2352
  120DG      C2 2739   1.425   2.010   0.119 -0.7908 -0.0973 -0.1090
  120DG      H3 2740   2.223   2.346  -0.021  1.4983 -1.6195 -0.0545
  120DG      H4 2741   2.312   2.261   0.100  0.8077 -0.7049 -2.2886
  120DG      H5 2742   2.290   2.429   0.127 -1.7366  0.1992  0.1594
  120DG      H6 2743   1.351   1.964   0.185 -1.4035 -2.1637 -2.0947
  120DG      H7 2744   1.371   2.049   0.032 -1.0706 -0.0413  0.0882
  120DG      H8 2745   1.490   1.928   0.091  0.2337  0.9200 -0.8191
  120DG      O9 2746   2.114   2.330   0.158  0.4724 -0.3198 -0.0267
  120DG     O10 2747   1.502   2.106   0.187  0.3050  0.5814 -0.1379
  120DG     C11 2748   2.014   2.424   0.113  0.2654 -0.0249  0.0499
  120DG     C12 2749   1.625   2.144   0.127  0.6138  0.2451 -0.3135
  120DG     H13 2750   2.007   2.422   0.004 -0.1710  0.1214  0.0751
  120DG     H14 2751   2.047   2.527   0.126  0.6099 -0.2115  0.7197
  120DG     H15 2752   1.615   2.183   0.026  1.2667  0.0005 -0.4768
  120DG     H16 2753   1.679   2.050   0.112 -2.8572 -1.9862 -0.0769
  120DG     C17 2754   1.879   2.399   0.182 -0.2635 -0.1057 -0.3152
  120DG     C18 2755   1.699   2.249   0.215  0.6205  0.3328 -0.3642
  120DG     O19 2756   1.824   2.273   0.147  0.2130 -0.3159  0.3328
  120DG     H20 2757   1.811   2.481   0.158  0.0925  2.0743  4.7890
  120DG     H21 2758   1.892   2.402   0.290  1.2204 -0.1868 -0.4743
  120DG     H22 2759   1.631   2.334   0.219  0.5449  0.2184  1.3132
  120DG     H23 2760   1.719   2.222   0.319  2.1998 -2.5706 -1.2913
  121DG      C1 2761   3.193   1.619   3.906 -0.0438  0.1645  0.0577
  121DG      C2 2762   2.935   1.493   4.632  0.4410  0.1776  0.1309
  121DG      H3 2763   3.295   1.625   3.946 -0.2539  0.4982  0.5504
  121DG      H4 2764   3.196   1.691   3.825  1.3029  1.1261  0.9146
  121DG      H5 2765   3.181   1.517   3.870 -0.1061  0.5159 -0.9296
  121DG      H6 2766   2.901   1.397   4.593  3.8166 -1.5303  0.9476
  121DG      H7 2767   3.027   1.482   4.689  0.1284 -2.1311  0.2890
  121DG      H8 2768   2.865   1.545   4.697  1.2915  1.3429  0.1489
  121DG      O9 2769   3.079   1.639   4.004 -0.4418 -0.5986  0.4343
  121DG     O10 2770   2.962   1.584   4.527  0.3055  0.3014 -0.4602
  121DG     C11 2771   3.113   1.753   4.080  0.2663 -0.4099  0.6185
  121DG     C12 2772   3.052   1.524   4.439  0.4420  0.3477 -0.0001
  121DG     H13 2773   3.095   1.831   4.007  2.8036  0.5643  0.9213
  121DG     H14 2774   3.217   1.750   4.114  0.5138  1.4662  0.1626
  121DG     H15 2775   3.012   1.428   4.408 -1.3397  0.9083  0.4556
  121DG     H16 2776   3.144   1.491   4.487  1.6866  2.4100 -0.8229
  121DG     C17 2777   3.020   1.788   4.189  0.0572 -0.4938  0.2615
  121DG     C18 2778   3.088   1.601   4.315  0.1268 -0.1787 -0.5612
  121DG     O19 2779   2.976   1.683   4.274  0.2328 -0.0787 -0.2405
  121DG     H20 2780   2.928   1.829   4.146  1.2406 -0.2525 -2.1946
  121DG     H21 2781   3.054   1.872   4.249 -1.1233  0.6275 -0.5653
  121DG     H22 2782   3.174   1.663   4.338 -0.8411  1.3424 -0.9208
  121DG     H23 2783   3.118   1.519   4.249  1.3257 -0.8435  0.7586
  122DG      C1 2784   0.206   5.059   1.771  0.1321 -0.1790  1.0362
  122DG      C2 2785  -0.343   5.431   1.515  0.4071  0.3180  0.4148
  122DG      H3 2786   0.268   4.970   1.778  1.1987  0.4179 -0.4514
  122DG      H4 2787   0.237   5.139   1.838 -1.3894 -0.5492  2.2406
  122DG      H5 2788   0.207   5.100   1.670  0.8451  1.1756  1.5612
  122DG      H6 2789  -0.325   5.478   1.419  1.4647 -0.0948  0.3952
  122DG      H7 2790  -0.444   5.388   1.511 -0.5182  2.3697  0.4497
  122DG      H8 2791  -0.324   5.504   1.594 -0.9932 -0.0335  1.1227
  122DG      O9 2792   0.071   5.030   1.807  0.3286 -0.3632 -0.6593
  122DG     O10 2793  -0.245   5.326   1.540  0.5473  0.0118  0.5859
  122DG     C11 2794   0.012   4.927   1.730 -0.5072  0.6643 -0.1573
  122DG     C12 2795  -0.276   5.253   1.655 -0.1436 -0.3189 -0.3561
  122DG     H13 2796   0.050   4.830   1.762 -2.2466 -0.7989 -2.2284
  122DG     H14 2797   0.033   4.935   1.623 -1.2790  0.0296 -0.3661
  122DG     H15 2798  -0.376   5.210   1.662  0.1555 -0.9323  0.2724
  122DG     H16 2799  -0.266   5.315   1.744  1.8764 -1.1477  0.0520
  122DG     C17 2800  -0.136   4.919   1.754 -0.4656  0.3480 -0.1914
  122DG     C18 2801  -0.186   5.135   1.659 -0.2670  0.1830  0.0943
  122DG     O19 2802  -0.193   5.051   1.774 -0.4190  0.7422 -0.4566
  122DG     H20 2803  -0.151   4.879   1.855  2.3042 -1.2672 -0.3178
  122DG     H21 2804  -0.202   4.860   1.690  0.3913  1.0473 -1.7626
  122DG     H22 2805  -0.178   5.072   1.570  3.4400 -0.3482  0.6585
  122DG     H23 2806  -0.085   5.173   1.644 -0.3542 -0.2179 -1.7060
  123DG      C1 2807   4.494   3.535   0.686 -0.0357 -0.2347 -0.9753
  123DG      C2 2808   4.210   3.601   1.436  0.1989  0.2487  0.2761
  123DG      H3 2809   4.486   3.573   0.584 -3.9671 -0.0671 -0.7567
  123DG      H4 2810   4.422   3.453   0.686  0.3824 -0.6066 -1.0379
  123DG      H5 2811   4.589   3.494   0.719 -1.0378 -2.2282 -0.4551
  123DG      H6 2812   4.124   3.603   1.503  1.9314 -0.2565  2.6179
  123DG      H7 2813   4.252   3.500   1.438 -0.4432 -0.0351  2.5668
  123DG      H8 2814   4.278   3.677   1.473 -0.0918  0.6079  0.0715
  123DG      O9 2815   4.453   3.636   0.785 -0.3034  0.0309 -0.2961
  123DG     O10 2816   4.179   3.635   1.297 -0.3274  0.6036  0.6735
  123DG     C11 2817   4.318   3.677   0.776  0.0309 -0.2857  0.1300
  123DG     C12 2818   4.297   3.673   1.221  0.2629 -0.1126  0.2443
  123DG     H13 2819   4.269   3.588   0.816  3.4895 -1.4160  2.3665
  123DG     H14 2820   4.297   3.705   0.673  1.0993 -1.8912 -0.5732
  123DG     H15 2821   4.376   3.604   1.249  1.5347  0.7261 -1.1474
  123DG     H16 2822   4.332   3.773   1.246 -1.5489  0.6890 -0.2453
  123DG     C17 2823   4.317   3.795   0.872  0.3629 -0.7657 -0.1056
  123DG     C18 2824   4.269   3.666   1.070 -0.1163  0.8619 -0.1039
  123DG     O19 2825   4.354   3.759   1.005 -0.4268  0.2178  0.1570
  123DG     H20 2826   4.218   3.840   0.878  0.4703 -0.6323  0.7169
  123DG     H21 2827   4.389   3.870   0.841  0.2428  0.7629  2.9347
  123DG     H22 2828   4.303   3.573   1.026  0.2807  1.8573 -1.9722
  123DG     H23 2829   4.165   3.677   1.037 -0.1952 -1.1108 -0.6114
  124DG      C1 2830   1.576   1.612   0.811 -1.2776  0.0577  0.9245
  124DG      C2 2831   1.837   1.876   0.290  0.1960 -0.3036 -0.0296
  124DG      H3 2832   1.508   1.538   0.853 -1.3498 -1.0245 -1.0168
  124DG      H4 2833   1.523   1.707   0.824  0.0913  1.0552 -0.4601
  124DG      H5 2834   1.675   1.619   0.855 -0.6174 -3.0647  0.1603
  124DG      H6 2835   1.894   1.873   0.198 -0.7796 -0.9793 -0.6303
  124DG      H7 2836   1.782   1.969   0.303  1.5847  0.8031 -1.6211
  124DG      H8 2837   1.908   1.859   0.371 -0.6863 -0.3334  0.7565
  124DG      O9 2838   1.585   1.598   0.667 -0.3256  1.0545 -0.5281
  124DG     O10 2839   1.758   1.759   0.292 -0.6071  0.3251  0.3616
  124DG     C11 2840   1.636   1.472   0.640  0.7971  0.4237 -0.5807
  124DG     C12 2841   1.846   1.646   0.266 -0.2407  0.3293  0.6076
  124DG     H13 2842   1.582   1.396   0.696 -1.9314  1.6227 -1.4074
  124DG     H14 2843   1.739   1.470   0.676  0.6087  2.5522  0.1910
  124DG     H15 2844   1.944   1.643   0.313  0.3196 -0.6254 -0.5653
  124DG     H16 2845   1.873   1.627   0.162 -0.3069  2.2272  0.2134
  124DG     C17 2846   1.641   1.445   0.491 -0.1822 -0.2489 -0.4658
  124DG     C18 2847   1.766   1.525   0.304 -0.1798 -0.4027  0.0553
  124DG     O19 2848   1.714   1.552   0.435 -0.3196 -0.1152  0.5447
  124DG     H20 2849   1.543   1.432   0.447  1.0151 -1.7710 -2.9148
  124DG     H21 2850   1.679   1.344   0.474 -0.1330 -0.3465  0.2027
  124DG     H22 2851   1.687   1.511   0.230  0.7009 -0.4086 -0.8998
  124DG     H23 2852   1.831   1.437   0.302  0.4579  0.0620  0.3050
  125DG      C1 2853   5.314   2.795   1.760 -0.0508  0.2303  0.4537
  125DG      C2 2854   5.188   3.346   2.157 -0.6279  0.0030 -0.2219
  125DG      H3 2855   5.381   2.771   1.842  0.8009  1.5612  0.1860
  125DG      H4 2856   5.382   2.850   1.694  0.4187 -1.7658 -0.8477
  125DG      H5 2857   5.280   2.708   1.704 -1.1308  1.5797 -1.0872
  125DG      H6 2858   5.277   3.308   2.208  0.0624  1.0551 -0.5989
  125DG      H7 2859   5.223   3.431   2.097  1.0097 -0.9704 -0.7220
  125DG      H8 2860   5.120   3.386   2.232 -1.0127 -0.5537 -0.2749
  125DG      O9 2861   5.207   2.872   1.810 -0.6752 -0.3824  0.2663
  125DG     O10 2862   5.136   3.236   2.078  0.0333 -0.0611 -0.1561
  125DG     C11 2863   5.114   2.910   1.699 -0.7079  0.1014  0.6093
  125DG     C12 2864   5.026   3.284   2.002  0.2860  0.7383 -0.4916
  125DG     H13 2865   5.066   2.818   1.667  1.1248 -0.8823  0.5800
  125DG     H14 2866   5.167   2.953   1.614 -1.9363 -0.1502 -0.3157
  125DG     H15 2867   5.059   3.366   1.938  0.8081  0.4112 -0.6431
  125DG     H16 2868   4.947   3.306   2.073  1.6469  1.1356  0.9477
  125DG     C17 2869   5.007   2.996   1.754  0.1849 -0.4035 -0.5000
  125DG     C18 2870   4.973   3.178   1.902 -0.3425 -0.6964 -0.0278
  125DG     O19 2871   5.066   3.107   1.824  0.0742  0.0250  0.4559
  125DG     H20 2872   4.942   2.933   1.814  0.8985 -0.4391  0.2498
  125DG     H21 2873   4.952   3.044   1.673 -0.5227  3.6595  2.0860
  125DG     H22 2874   4.920   3.108   1.967  1.7979 -2.3186  0.0901
  125DG     H23 2875   4.895   3.218   1.838 -0.9342 -3.7788 -1.4490
  126DG      C1 2876   0.955   5.450   2.812  0.1005  0.1214  0.2427
  126DG      C2 2877   1.239   5.070   2.295 -0.6953 -0.7277 -0.9410
  126DG      H3 2878   1.018   5.532   2.779  0.9854 -1.5254 -2.5472
  126DG      H4 2879   0.942   5.464   2.919 -2.5073 -0.8785  0.1413
  126DG      H5 2880   0.859   5.458   2.761  1.1016 -0.3243 -1.8085
  126DG      H6 2881   1.273   4.975   2.253  3.2717  0.0189  0.1732
  126DG      H7 2882   1.143   5.065   2.243  0.1246  2.7650 -3.0836
  126DG      H8 2883   1.307   5.151   2.269 -0.4907 -0.5582  0.0732
  126DG      O9 2884   1.010   5.319   2.781  0.3566 -0.3788 -0.6290
  126DG     O10 2885   1.217   5.057   2.437  0.3591  0.5888  0.0621
  126DG     C11 2886   1.134   5.296   2.847  0.1078 -0.2521 -0.9476
  126DG     C12 2887   1.340   5.019   2.510  0.0854 -0.4053 -0.1409
  126DG     H13 2888   1.123   5.295   2.956  0.0314 -0.6443 -0.9565
  126DG     H14 2889   1.207   5.372   2.819 -1.2865  1.2717 -0.6164
  126DG     H15 2890   1.411   5.102   2.503 -0.2460 -0.0426  0.6722
  126DG     H16 2891   1.368   4.925   2.464 -0.5011 -0.0889 -1.1857
  126DG     C17 2892   1.194   5.153   2.818  0.5095 -0.7706 -0.2722
  126DG     C18 2893   1.306   5.018   2.660 -0.5771 -0.1591 -0.5889
  126DG     O19 2894   1.219   5.125   2.682  0.4126  0.1753 -0.0205
  126DG     H20 2895   1.116   5.086   2.853 -0.9714  0.1482 -1.6925
  126DG     H21 2896   1.286   5.135   2.874  1.2934 -0.6753 -1.5035
  126DG     H22 2897   1.269   4.923   2.697 -1.7131  1.1926  2.0920
  126DG     H23 2898   1.396   5.031   2.721 -0.9795 -0.4768  0.0892
  127DG      C1 2899   2.607   1.007   0.940 -0.6741 -0.5653  0.0193
  127DG      C2 2900   2.427   1.112   1.488 -0.0937 -0.5415  0.4593
  127DG      H3 2901   2.533   0.956   0.879 -0.1105  1.5908 -2.6785
  127DG      H4 2902   2.702   1.005   0.886  0.3165 -1.8681  1.7218
  127DG      H5 2903   2.571   1.108   0.961 -1.5939 -0.9103  0.1067
  127DG      H6 2904   2.418   1.212   1.446  0.8926 -0.4294  0.4959
  127DG      H7 2905   2.328   1.090   1.527  0.0036  0.2016  1.1477
  127DG      H8 2906   2.503   1.119   1.566 -0.2643  0.2093  0.5618
  127DG      O9 2907   2.637   0.942   1.064 -0.4103 -0.2377  0.1359
  127DG     O10 2908   2.469   1.022   1.392  0.0170 -0.1678  0.1235
  127DG     C11 2909   2.629   0.802   1.051 -0.1522 -0.5270  0.3122
  127DG     C12 2910   2.433   0.892   1.422  0.2410  0.3974 -0.2207
  127DG     H13 2911   2.707   0.763   0.984  1.5326  1.3426  1.0868
  127DG     H14 2912   2.534   0.767   1.011  0.2385 -0.9815 -0.2500
  127DG     H15 2913   2.324   0.894   1.429  0.1960 -0.7944 -0.3139
  127DG     H16 2914   2.492   0.864   1.509 -1.4928  1.2953  1.3250
  127DG     C17 2915   2.667   0.737   1.187 -0.2723 -0.3235  0.6076
  127DG     C18 2916   2.472   0.806   1.309  0.2985  0.8680  0.0395
  127DG     O19 2917   2.613   0.819   1.292  0.0544 -0.4885 -0.1853
  127DG     H20 2918   2.776   0.732   1.193 -0.1607  1.7773  1.1830
  127DG     H21 2919   2.626   0.637   1.190 -1.3088  0.0959  0.7781
  127DG     H22 2920   2.457   0.700   1.330  0.5324  0.8492  0.1253
  127DG     H23 2921   2.414   0.828   1.219 -0.4820 -1.0259  0.0370
  128DG      C1 2922   1.158   1.014   5.172  0.6321 -0.0706 -0.3651
  128DG      C2 2923   1.216   1.337   4.558 -0.0473  0.7696 -0.3315
  128DG      H3 2924   1.085   1.083   5.214  0.6439 -1.3448  1.9007
  128DG      H4 2925   1.209   0.970   5.258  0.5982  0.9591  0.1979
  128DG      H5 2926   1.102   0.937   5.119  0.1964  0.0716 -0.1173
  128DG      H6 2927   1.171   1.249   4.511  1.0262 -1.1705  2.0442
  128DG      H7 2928   1.136   1.409   4.540 -2.0853 -1.7825 -2.1630
  128DG      H8 2929   1.300   1.373   4.499 -0.4029  2.1971  0.0002
  128DG      O9 2930   1.248   1.091   5.096 -0.3290  0.4112 -0.5345
  128DG     O10 2931   1.241   1.307   4.693 -0.2204 -0.0151  0.3140
  128DG     C11 2932   1.292   1.205   5.180  0.3669  0.1118 -0.5360
  128DG     C12 2933   1.276   1.424   4.765  0.0244 -0.3322 -0.0596
  128DG     H13 2934   1.354   1.170   5.263  0.9699 -0.3513 -1.1608
  128DG     H14 2935   1.208   1.261   5.221  0.3808 -1.6184  2.0929
  128DG     H15 2936   1.186   1.473   4.802 -0.6575 -1.0872 -0.6734
  128DG     H16 2937   1.326   1.492   4.695 -0.7014  0.7679  0.4619
  128DG     C17 2938   1.383   1.283   5.088 -0.1862 -0.0085 -0.8905
  128DG     C18 2939   1.372   1.400   4.880  0.3889 -0.5304 -0.0914
  128DG     O19 2940   1.301   1.343   4.990 -0.1205 -0.5686  0.3165
  128DG     H20 2941   1.451   1.213   5.039 -1.5061 -0.7573 -1.7381
  128DG     H21 2942   1.438   1.361   5.140 -0.7942  0.3110 -0.7170
  128DG     H22 2943   1.438   1.326   4.834 -0.0663  0.7333 -2.9427
  128DG     H23 2944   1.436   1.486   4.900 -0.3041 -0.2251  0.8571
  129DG      C1 2945   1.753   3.613   5.267 -0.3740  0.5742  0.1471
  129DG      C2 2946   2.364   3.326   5.255 -0.1816  0.6449 -0.0356
  129DG      H3 2947   1.742   3.699   5.201 -1.2225 -0.5681 -1.2657
  129DG      H4 2948   1.775   3.626   5.373 -0.0251 -1.5870  0.3903
  129DG      H5 2949   1.657   3.563   5.268  0.1498 -0.4667  0.0855
  129DG      H6 2950   2.433   3.243   5.239 -0.8861 -0.1830  1.0957
  129DG      H7 2951   2.422   3.409   5.215  0.8406 -0.5027 -1.0564
  129DG      H8 2952   2.361   3.326   5.364 -1.9760 -3.2870  0.0741
  129DG      O9 2953   1.848   3.528   5.200 -0.4976  0.4666 -0.3320
  129DG     O10 2954   2.237   3.303   5.212 -0.0923  0.3630  0.6068
  129DG     C11 2955   1.813   3.495   5.072  0.3490 -0.5608  0.2887
  129DG     C12 2956   2.220   3.304   5.071  0.3080  0.1385 -0.4731
  129DG     H13 2957   1.786   3.579   5.008 -1.5628 -1.1914  0.2134
  129DG     H14 2958   1.723   3.435   5.067 -0.4694  0.4715  2.0503
  129DG     H15 2959   2.293   3.234   5.029  0.7169  2.2301 -3.5751
  129DG     H16 2960   2.235   3.399   5.020  0.9596  0.4856  0.3414
  129DG     C17 2961   1.934   3.426   5.008 -0.2853 -0.5287 -0.6175
  129DG     C18 2962   2.080   3.251   5.048  0.7607  0.2042 -0.0708
  129DG     O19 2963   1.978   3.326   5.098  0.2411 -0.6597 -0.0467
  129DG     H20 2964   2.002   3.511   4.998 -1.0601 -0.0098 -1.6161
  129DG     H21 2965   1.914   3.384   4.910 -0.8509  1.7996 -1.5694
  129DG     H22 2966   2.070   3.238   4.940 -1.9578  0.3364  0.1037
  129DG     H23 2967   2.058   3.154   5.092  1.9385 -0.1937 -0.3002
  130DG      C1 2968   1.950   2.247   1.356  0.0140 -0.3079  0.6684
  130DG      C2 2969   1.424   2.589   1.697  0.0579  0.2001 -0.1674
  130DG      H3 2970   1.947   2.306   1.263  2.6386 -0.4369  0.4472
  130DG      H4 2971   2.021   2.165   1.345  2.5861  1.7921  0.5385
  130DG      H5 2972   1.992   2.323   1.422  1.8497 -0.7777  0.0851
  130DG      H6 2973   1.418   2.650   1.607 -0.5418  0.2103 -0.1220
  130DG      H7 2974   1.320   2.573   1.723 -0.3569  1.9881 -0.5910
  130DG      H8 2975   1.484   2.650   1.765  0.7923  0.1409 -0.7411
  130DG      O9 2976   1.817   2.203   1.399 -0.1182 -0.8423 -0.4114
  130DG     O10 2977   1.492   2.463   1.683 -0.1754 -0.3248  0.3710
  130DG     C11 2978   1.826   2.108   1.501 -0.1808  0.9959 -0.0673
  130DG     C12 2979   1.419   2.364   1.607 -0.0086 -0.5427 -0.2027
  130DG     H13 2980   1.881   2.149   1.585 -2.5162  1.0730  1.5159
  130DG     H14 2981   1.877   2.017   1.467  0.4824  0.6739  1.7167
  130DG     H15 2982   1.410   2.398   1.504  1.9583  0.6667 -0.0271
  130DG     H16 2983   1.323   2.347   1.654 -0.0376  0.9409  0.3192
  130DG     C17 2984   1.674   2.085   1.548 -0.5494  0.1583  0.3284
  130DG     C18 2985   1.480   2.218   1.625  0.8389 -0.0389 -0.4886
  130DG     O19 2986   1.613   2.213   1.569  0.4666  0.1795  0.1621
  130DG     H20 2987   1.679   2.014   1.631  2.2519 -1.6310 -1.2207
  130DG     H21 2988   1.624   2.025   1.472  0.6361  2.0214 -2.0779
  130DG     H22 2989   1.471   2.198   1.731 -3.1325 -1.9421 -0.9802
  130DG     H23 2990   1.411   2.157   1.566 -0.4622  1.1619 -0.2753
  131DG      C1 2991   2.886   3.019   0.953  0.2275  0.2073 -0.1822
  131DG      C2 2992   2.862   2.821   1.605 -0.6891  0.5144  0.2719
  131DG      H3 2993   2.937   2.984   0.863  0.6404  1.8690 -0.6346
  131DG      H4 2994   2.886   3.127   0.962 -0.2444  0.3251 -1.4779
  131DG      H5 2995   2.783   2.983   0.952 -0.3361  1.7311 -0.0316
  131DG      H6 2996   2.780   2.893   1.599 -1.9296 -0.9410 -1.7009
  131DG      H7 2997   2.812   2.724   1.607  1.0721 -0.4591 -0.7066
  131DG      H8 2998   2.921   2.831   1.696  0.4410 -0.7086 -0.3012
  131DG      O9 2999   2.949   2.977   1.076 -0.4501  0.1153  0.0890
  131DG     O10 3000   2.936   2.833   1.487 -0.1284  0.2954  0.2999
  131DG     C11 3001   3.095   3.004   1.077 -0.3086 -0.7552 -0.7449
  131DG     C12 3002   3.060   2.767   1.496 -0.3606  0.4715 -0.0979
  131DG     H13 3003   3.107   3.104   1.119  0.4587 -1.2257  0.2084
  131DG     H14 3004   3.146   3.009   0.981  1.2108  1.2947  0.0776
  131DG     H15 3005   3.048   2.662   1.522  0.6612  0.6694  1.3003
  131DG     H16 3006   3.125   2.816   1.569  0.4566  0.8615 -1.0596
  131DG     C17 3007   3.166   2.895   1.169  0.3460 -0.3882 -0.1071
  131DG     C18 3008   3.128   2.773   1.359  0.3135  0.8464  0.4190
  131DG     O19 3009   3.114   2.901   1.297 -0.3997  0.6265 -0.4296
  131DG     H20 3010   3.274   2.911   1.169  0.2834  0.0563  0.7779
  131DG     H21 3011   3.154   2.797   1.123  1.4146  0.0313 -1.3587
  131DG     H22 3012   3.234   2.749   1.371 -0.0555 -0.6366  0.9610
  131DG     H23 3013   3.082   2.701   1.292  1.0393  1.0967 -0.3744
  132DG      C1 3014   4.956   3.461   1.509 -0.6000 -0.2383 -0.3244
  132DG      C2 3015   4.503   3.354   1.020  0.8312  0.1147  0.2724
  132DG      H3 3016   4.997   3.521   1.428  0.3805 -1.5340 -0.8317
  132DG      H4 3017   5.027   3.379   1.512 -1.7122 -1.2525 -0.7915
  132DG      H5 3018   4.968   3.510   1.605  0.7719 -0.0864 -0.5598
  132DG      H6 3019   4.523   3.445   0.963  0.1630 -0.0977 -0.3189
  132DG      H7 3020   4.527   3.278   0.946 -3.4110 -0.3900 -0.8581
  132DG      H8 3021   4.394   3.344   1.018  0.7213  1.1988 -1.2009
  132DG      O9 3022   4.823   3.430   1.478  0.2912 -0.3758 -0.0427
  132DG     O10 3023   4.557   3.331   1.151  0.0566 -0.5594 -0.0757
  132DG     C11 3024   4.776   3.334   1.570  0.0809  0.0733  0.2813
  132DG     C12 3025   4.530   3.201   1.196  0.5458 -0.2067  0.0194
  132DG     H13 3026   4.776   3.379   1.670  0.3997  1.1697 -0.1921
  132DG     H14 3027   4.840   3.246   1.575  1.2107  0.8888  4.3387
  132DG     H15 3028   4.617   3.140   1.171 -0.2232 -1.6595  0.6935
  132DG     H16 3029   4.437   3.155   1.161  0.4543 -1.0183  1.2376
  132DG     C17 3030   4.637   3.300   1.533  0.4876 -0.0370 -0.4446
  132DG     C18 3031   4.517   3.209   1.349  0.0337  0.1265  0.6771
  132DG     O19 3032   4.632   3.273   1.397 -0.3285  0.1956  0.2738
  132DG     H20 3033   4.575   3.384   1.562  0.3532 -0.4925  0.6346
  132DG     H21 3034   4.612   3.212   1.593 -0.9947 -0.2281 -1.3115
  132DG     H22 3035   4.435   3.272   1.381  0.6673  0.8794  0.8328
  132DG     H23 3036   4.517   3.106   1.385  0.0870 -0.4352 -0.8232
  133DG      C1 3037   4.799   1.143   0.899 -0.7235 -0.6175  0.1173
  133DG      C2 3038   4.805   1.801   0.963  0.1479 -0.2444 -0.0659
  133DG      H3 3039   4.828   1.038   0.905  0.8674 -0.3096 -1.3079
  133DG      H4 3040   4.852   1.174   0.809  2.3998 -3.2562  0.8798
  133DG      H5 3041   4.693   1.159   0.875 -1.7947 -1.6567  3.5480
  133DG      H6 3042   4.826   1.793   0.856  0.7579  0.3342  0.0023
  133DG      H7 3043   4.698   1.813   0.982  0.6021  2.9971  0.9707
  133DG      H8 3044   4.850   1.894   0.997 -2.7379  1.3355 -0.2777
  133DG      O9 3045   4.854   1.223   0.995 -0.4911 -0.0697  0.3384
  133DG     O10 3046   4.852   1.683   1.030  0.7024  0.2982 -0.0734
  133DG     C11 3047   4.814   1.191   1.127 -0.3054  0.9572  0.4077
  133DG     C12 3048   4.811   1.678   1.168  0.0404  0.2587  0.2529
  133DG     H13 3049   4.844   1.090   1.154  0.7611  0.8404 -1.1015
  133DG     H14 3050   4.706   1.194   1.143 -0.3128  1.3391  0.3030
  133DG     H15 3051   4.704   1.702   1.165  0.1372  0.6399 -0.3579
  133DG     H16 3052   4.847   1.762   1.228 -0.0448  0.3462  0.1827
  133DG     C17 3053   4.874   1.307   1.211 -0.2062  0.2637  0.0893
  133DG     C18 3054   4.854   1.547   1.229 -0.0823  0.2105 -0.2772
  133DG     O19 3055   4.802   1.424   1.178  0.4140 -0.7465  0.6077
  133DG     H20 3056   4.976   1.322   1.176 -0.9233  1.3731 -1.6732
  133DG     H21 3057   4.875   1.289   1.318  0.8592 -2.8382 -0.3448
  133DG     H22 3058   4.962   1.532   1.217  0.2990  1.3043  1.3763
  133DG     H23 3059   4.836   1.532   1.335  2.2640 -0.1953  0.1338
  134DG      C1 3060   1.876   0.067   2.119 -0.1056 -0.1345  0.1931
  134DG      C2 3061   2.387   0.540   2.365 -0.1870  0.1375  0.2777
  134DG      H3 3062   1.823   0.116   2.038  1.6769  1.7804  0.0922
  134DG      H4 3063   1.862   0.126   2.210  0.6141 -1.5384  1.2569
  134DG      H5 3064   1.851  -0.037   2.138  1.5092 -0.1981  2.3616
  134DG      H6 3065   2.467   0.599   2.322  0.5980 -2.3313 -1.8935
  134DG      H7 3066   2.296   0.597   2.344 -1.2324 -0.9157  1.7473
  134DG      H8 3067   2.406   0.550   2.472  0.6893  0.5379  0.0886
  134DG      O9 3068   2.016   0.081   2.081 -0.2573 -0.5715  0.3501
  134DG     O10 3069   2.367   0.407   2.329  0.2629 -0.5321  0.0585
  134DG     C11 3070   2.093   0.008   2.184  0.0708 -0.3726 -0.6039
  134DG     C12 3071   2.392   0.384   2.189  0.2682  0.2361  0.7109
  134DG     H13 3072   2.074  -0.098   2.171 -1.7946 -0.2870  1.0604
  134DG     H14 3073   2.058   0.044   2.281 -1.6776  0.9865 -1.6653
  134DG     H15 3074   2.492   0.413   2.159 -0.2736 -0.6749 -2.3457
  134DG     H16 3075   2.325   0.443   2.126 -0.1237 -1.1702 -0.2439
  134DG     C17 3076   2.236   0.041   2.163 -0.1207 -0.3799 -0.2044
  134DG     C18 3077   2.385   0.228   2.156 -0.3601  0.2318  0.3462
  134DG     O19 3078   2.254   0.178   2.191 -0.5772  0.0611  0.4416
  134DG     H20 3079   2.264   0.009   2.062  0.5217 -4.1652  1.0239
  134DG     H21 3080   2.307  -0.017   2.222  1.4444  2.2311  0.6648
  134DG     H22 3081   2.417   0.209   2.054  0.4134  1.8610  0.2480
  134DG     H23 3082   2.465   0.178   2.212  1.4950 -1.1482 -3.1971
  135DG      C1 3083   1.785   2.545   1.487  1.0313 -0.3567 -0.0173
  135DG      C2 3084   1.337   2.080   1.226  0.7054  0.0164  0.1763
  135DG      H3 3085   1.862   2.536   1.411  0.4805 -1.8316 -0.4230
  135DG      H4 3086   1.801   2.466   1.560  1.2676  0.2604  0.6185
  135DG      H5 3087   1.795   2.638   1.544 -2.8846 -0.3726  1.0297
  135DG      H6 3088   1.232   2.062   1.205  0.7510  1.8466 -2.1419
  135DG      H7 3089   1.403   2.045   1.146 -1.4485 -0.9936 -1.2332
  135DG      H8 3090   1.359   2.020   1.314  2.9670 -0.8896 -0.9178
  135DG      O9 3091   1.654   2.536   1.425  0.2248  0.1631  0.3025
  135DG     O10 3092   1.373   2.218   1.245  0.2076 -0.5671  0.4557
  135DG     C11 3093   1.625   2.635   1.329 -0.0995  0.8696 -0.1651
  135DG     C12 3094   1.332   2.308   1.140  0.0849  0.3402 -0.5420
  135DG     H13 3095   1.688   2.628   1.240  2.5344 -0.3322  1.6534
  135DG     H14 3096   1.657   2.729   1.376  0.6297  0.0219  1.0952
  135DG     H15 3097   1.224   2.294   1.128  0.0617  1.0752 -1.3324
  135DG     H16 3098   1.390   2.289   1.049  1.9389 -1.4594  0.9317
  135DG     C17 3099   1.477   2.611   1.293  0.1557 -0.1415  0.0826
  135DG     C18 3100   1.337   2.447   1.194  0.0584  0.2638  0.1517
  135DG     O19 3101   1.470   2.478   1.242  0.3112 -0.1371  0.0361
  135DG     H20 3102   1.438   2.683   1.222 -2.5930  0.9648  2.5391
  135DG     H21 3103   1.412   2.609   1.380 -3.2581 -2.3090 -2.2578
  135DG     H22 3104   1.309   2.504   1.105  3.3019 -0.2956 -1.3606
  135DG     H23 3105   1.268   2.463   1.277  0.5211  0.1516  0.5650
  136DG      C1 3106   0.919   3.197   2.126 -1.0114  0.0673  0.3073
  136DG      C2 3107   0.426   3.394   2.690  0.7088  0.3239 -0.2306
  136DG      H3 3108   1.022   3.205   2.091 -1.0557  0.4076  0.2558
  136DG      H4 3109   0.888   3.290   2.174  0.8631 -0.5393  2.9373
  136DG      H5 3110   0.864   3.187   2.033 -1.3428 -1.1160  0.6103
  136DG      H6 3111   0.406   3.498   2.718  2.4628  0.6020  0.1483
  136DG      H7 3112   0.359   3.373   2.607  0.6599 -1.1522  0.1568
  136DG      H8 3113   0.387   3.328   2.768  1.6663 -2.4047 -1.9270
  136DG      O9 3114   0.871   3.094   2.207 -0.2369  0.5698 -0.1998
  136DG     O10 3115   0.567   3.376   2.667  0.5991 -0.3789  0.0540
  136DG     C11 3116   0.950   3.067   2.326 -0.7966 -0.2214  0.2095
  136DG     C12 3117   0.595   3.267   2.587  0.1520  0.1444 -0.1330
  136DG     H13 3118   1.057   3.061   2.308 -0.4121 -0.9372  2.3918
  136DG     H14 3119   0.915   2.975   2.374  1.2122 -0.0484  2.1784
  136DG     H15 3120   0.537   3.285   2.497  1.0668  3.0406 -0.2437
  136DG     H16 3121   0.571   3.172   2.634 -0.2957  0.1597 -0.3315
  136DG     C17 3122   0.920   3.180   2.428 -0.3553  0.6589 -0.1438
  136DG     C18 3123   0.744   3.267   2.552  0.6866 -0.0039 -0.1953
  136DG     O19 3124   0.780   3.190   2.441 -0.1318  0.3514  0.0910
  136DG     H20 3125   0.964   3.275   2.399 -0.7702  1.8512  2.8520
  136DG     H21 3126   0.963   3.159   2.526 -0.0527 -1.8396 -0.7333
  136DG     H22 3127   0.794   3.363   2.544  0.0212  0.4610  0.9703
  136DG     H23 3128   0.786   3.221   2.641  0.8990 -0.4824 -0.5362
  137DG      C1 3129   1.994   1.827   3.496  0.3277  0.6305  0.1095
  137DG      C2 3130   2.632   2.356   3.511  0.2111  0.1258  0.1651
  137DG      H3 3131   2.085   1.768   3.482  0.7339  1.1529  0.5296
  137DG      H4 3132   1.951   1.857   3.400  0.9993 -0.5820 -0.5888
  137DG      H5 3133   1.916   1.782   3.558  1.6507  1.0049  2.1057
  137DG      H6 3134   2.668   2.449   3.553  2.3913 -1.0274  1.0296
  137DG      H7 3135   2.712   2.295   3.468  1.7568  1.0664  1.5744
  137DG      H8 3136   2.555   2.383   3.439 -0.1522  0.6824  0.7525
  137DG      O9 3137   2.038   1.949   3.561 -0.0175  0.0485 -0.8966
  137DG     O10 3138   2.562   2.288   3.621 -0.0929  0.3949  0.1734
  137DG     C11 3139   2.098   1.930   3.689 -0.0646  0.2044  0.4360
  137DG     C12 3140   2.488   2.174   3.583  0.1094  0.1312  0.3948
  137DG     H13 3141   2.167   1.845   3.693  0.0661  0.1413 -1.7220
  137DG     H14 3142   2.013   1.914   3.755  0.1802  1.2544  1.0278
  137DG     H15 3143   2.556   2.091   3.598 -3.6097 -2.8813  2.6214
  137DG     H16 3144   2.446   2.174   3.483 -0.2247 -0.3975  0.5307
  137DG     C17 3145   2.174   2.053   3.734  0.8267 -0.7481  0.0258
  137DG     C18 3146   2.384   2.162   3.694 -0.1524 -0.0927 -0.3773
  137DG     O19 3147   2.290   2.063   3.645  0.2615  0.4663 -0.5484
  137DG     H20 3148   2.201   2.038   3.839  1.6792 -3.6981 -0.5182
  137DG     H21 3149   2.117   2.144   3.717  3.2080  0.4596 -2.2971
  137DG     H22 3150   2.433   2.123   3.783  0.6553 -0.7812 -1.0989
  137DG     H23 3151   2.339   2.256   3.723 -0.9523 -1.4394  3.2533
  138DG      C1 3152   0.552   0.302   1.120  0.5169  0.1003  0.4190
  138DG      C2 3153   0.029  -0.057   1.488 -0.1066 -0.0744  0.1711
  138DG      H3 3154   0.641   0.309   1.057  1.1298 -0.5685  1.1825
  138DG      H4 3155   0.518   0.403   1.146 -3.7713 -0.9027 -0.5331
  138DG      H5 3156   0.471   0.268   1.055  1.7377 -0.5094 -0.8319
  138DG      H6 3157   0.007  -0.162   1.471 -1.7189  0.3059 -0.3384
  138DG      H7 3158  -0.016  -0.028   1.583 -2.1760  2.0760 -1.3477
  138DG      H8 3159  -0.030  -0.012   1.408 -1.3395  1.7887  2.0142
  138DG      O9 3160   0.570   0.222   1.238  0.5070  0.0155 -0.1275
  138DG     O10 3161   0.170  -0.034   1.471 -0.7905  0.0840  0.1122
  138DG     C11 3162   0.587   0.080   1.225  0.5553 -0.6863  0.1601
  138DG     C12 3163   0.254  -0.136   1.514  0.0851 -0.5890  0.7946
  138DG     H13 3164   0.690   0.068   1.191  0.3777 -0.0617 -0.6407
  138DG     H14 3165   0.528   0.049   1.139 -0.0638  0.2175  0.2408
  138DG     H15 3166   0.255  -0.209   1.434  1.1744 -0.2128  0.4501
  138DG     H16 3167   0.225  -0.179   1.610 -1.0250  1.0289  1.2256
  138DG     C17 3168   0.556   0.001   1.351  0.0710  0.4454  0.0826
  138DG     C18 3169   0.400  -0.079   1.511  0.0030  0.9947  0.5915
  138DG     O19 3170   0.422  -0.011   1.390 -0.3372 -0.0660  0.0017
  138DG     H20 3171   0.610   0.045   1.435 -0.2985  0.3513  0.3764
  138DG     H21 3172   0.593  -0.101   1.337 -2.0082 -0.5096  1.0596
  138DG     H22 3173   0.409  -0.008   1.593  1.9595 -0.0559  1.3415
  138DG     H23 3174   0.464  -0.167   1.511 -2.1475 -0.6658  0.3909
  139DG      C1 3175   2.381   2.006   2.481 -0.1309  0.5950  0.2071
  139DG      C2 3176   2.164   1.376   2.586 -0.2233 -0.3846  0.6109
  139DG      H3 3177   2.327   1.993   2.387 -0.9239 -0.2596  0.7641
  139DG      H4 3178   2.447   2.093   2.478  1.0312 -0.1461  2.1165
  139DG      H5 3179   2.306   2.014   2.560  0.8040  2.3476  0.9766
  139DG      H6 3180   2.088   1.402   2.512  0.8457  1.3849  0.0779
  139DG      H7 3181   2.193   1.271   2.587  0.5962 -0.3402 -3.1809
  139DG      H8 3182   2.119   1.404   2.681 -0.3152 -1.7505  0.9970
  139DG      O9 3183   2.461   1.896   2.519 -0.3608 -0.1144 -0.2422
  139DG     O10 3184   2.271   1.467   2.572 -0.0700 -0.2598 -0.2551
  139DG     C11 3185   2.572   1.870   2.428 -0.0570  0.8040 -0.5650
  139DG     C12 3186   2.336   1.445   2.444 -0.2865 -0.0150 -1.0807
  139DG     H13 3187   2.655   1.937   2.450  0.6339  0.1399 -1.0796
  139DG     H14 3188   2.537   1.900   2.329 -3.5640  0.6923  0.5140
  139DG     H15 3189   2.275   1.485   2.363  0.6999 -0.2431 -1.9685
  139DG     H16 3190   2.352   1.341   2.415  2.2234  0.3416 -1.1806
  139DG     C17 3191   2.591   1.715   2.436 -0.3990  0.5269 -0.0737
  139DG     C18 3192   2.475   1.511   2.448 -0.4474  0.3287  0.1899
  139DG     O19 3193   2.463   1.653   2.436  0.0269  0.4554  0.2877
  139DG     H20 3194   2.647   1.694   2.527 -1.2259 -1.5732  0.0260
  139DG     H21 3195   2.663   1.687   2.359 -0.6584  1.4722 -0.6640
  139DG     H22 3196   2.526   1.477   2.538  0.5374 -1.4763 -0.9923
  139DG     H23 3197   2.543   1.469   2.374 -1.8592 -0.4904 -0.6904
  140DG      C1 3198   5.195   0.734   0.937 -0.2870 -0.4337  0.5253
  140DG      C2 3199   5.148   0.216   1.264  0.1812  0.8014  0.2515
  140DG      H3 3200   5.281   0.710   1.000 -0.0455 -2.1390 -0.3884
  140DG      H4 3201   5.220   0.773   0.838  0.7501 -2.7120 -0.1860
  140DG      H5 3202   5.151   0.635   0.928  1.0189 -0.9661 -0.3636
  140DG      H6 3203   5.195   0.219   1.165 -1.6605  1.9361 -0.6417
  140DG      H7 3204   5.215   0.188   1.345 -1.0719 -0.3364  0.9240
  140DG      H8 3205   5.077   0.134   1.251  0.7649  0.5212 -1.4965
  140DG      O9 3206   5.113   0.825   1.007 -0.2144 -0.1789 -0.1206
  140DG     O10 3207   5.094   0.343   1.301  0.6935 -0.1355  0.8332
  140DG     C11 3208   5.124   0.827   1.149  0.9183 -0.4807 -0.2907
  140DG     C12 3209   4.983   0.373   1.222 -0.4430  0.7146  0.2801
  140DG     H13 3210   5.090   0.923   1.188 -2.6327 -2.3748  1.7733
  140DG     H14 3211   5.222   0.810   1.194  0.5444 -2.3483 -0.1014
  140DG     H15 3212   4.902   0.306   1.249  0.6536 -0.5812  0.4726
  140DG     H16 3213   5.020   0.359   1.120  1.3616 -1.2337  1.1198
  140DG     C17 3214   5.025   0.738   1.214 -0.7063 -0.0343 -0.3370
  140DG     C18 3215   4.948   0.520   1.242 -0.0501  0.3141 -0.0842
  140DG     O19 3216   5.047   0.603   1.184 -0.9114 -0.3159 -0.0569
  140DG     H20 3217   4.924   0.758   1.177 -0.1541 -1.3019 -2.6906
  140DG     H21 3218   5.035   0.755   1.322  1.3837  1.5836 -0.7369
  140DG     H22 3219   4.856   0.526   1.183 -0.7107 -2.2816  0.5569
  140DG     H23 3220   4.921   0.547   1.344 -0.8683  3.2236 -0.9640
  141DG      C1 3221   3.275   1.236   5.024 -0.4308 -0.1265  0.4536
  141DG      C2 3222   3.440   1.916   4.813 -0.2760 -0.0033  0.4083
  141DG      H3 3223   3.331   1.142   5.030  0.1277  0.0180 -1.7142
  141DG      H4 3224   3.222   1.228   4.929 -0.7506 -0.0092  0.6211
  141DG      H5 3225   3.208   1.247   5.109 -0.0095  1.5379  0.5940
  141DG      H6 3226   3.538   1.959   4.833 -0.7066 -0.1606  3.2380
  141DG      H7 3227   3.409   1.915   4.708 -1.1196 -0.0214  0.6470
  141DG      H8 3228   3.361   1.972   4.864 -1.6531 -2.0385  0.6098
  141DG      O9 3229   3.377   1.337   5.027  0.5487 -0.2562 -0.0283
  141DG     O10 3230   3.436   1.781   4.855  0.1509  0.3908 -0.6721
  141DG     C11 3231   3.317   1.464   5.069  0.7874  0.2231  0.6783
  141DG     C12 3232   3.510   1.690   4.785  0.3285  0.6034  1.1100
  141DG     H13 3233   3.272   1.455   5.168  0.4156 -0.9063  0.4209
  141DG     H14 3234   3.235   1.494   5.005  1.4966  0.7816  0.0101
  141DG     H15 3235   3.611   1.724   4.807  0.0288  1.1785  1.6341
  141DG     H16 3236   3.487   1.688   4.678 -0.5608 -2.1483  1.2750
  141DG     C17 3237   3.414   1.576   5.073  0.0007  0.4466 -0.6278
  141DG     C18 3238   3.505   1.550   4.846 -0.2622  0.1637  0.4236
  141DG     O19 3239   3.529   1.556   4.989 -0.3098  0.1838  0.2508
  141DG     H20 3240   3.460   1.583   5.171 -1.3894 -0.2846  0.1063
  141DG     H21 3241   3.363   1.671   5.058 -2.5128 -0.8254 -0.6230
  141DG     H22 3242   3.406   1.514   4.820 -1.1256  1.6409  1.4859
  141DG     H23 3243   3.575   1.484   4.795 -0.5049  0.0885  0.1895
  142DG      C1 3244   4.480   5.378   0.339 -0.1367  0.3546 -0.1645
  142DG      C2 3245   4.614   5.126  -0.303 -0.3470 -0.4128 -0.2271
  142DG      H3 3246   4.433   5.409   0.433 -0.3100 -0.2052 -0.0672
  142DG      H4 3247   4.552   5.456   0.312 -0.2740  0.3906 -0.4279
  142DG      H5 3248   4.547   5.292   0.346  1.0071  1.3507  3.6081
  142DG      H6 3249   4.679   5.039  -0.314 -0.0461 -0.2541  0.2682
  142DG      H7 3250   4.565   5.163  -0.393  1.1683  1.5519 -0.3185
  142DG      H8 3251   4.685   5.205  -0.280 -0.0778 -0.6596 -0.2020
  142DG      O9 3252   4.399   5.375   0.223 -0.0674  0.2883  0.3247
  142DG     O10 3253   4.516   5.109  -0.200 -0.4943  0.4842  0.5003
  142DG     C11 3254   4.314   5.259   0.226 -0.2845 -0.0975 -0.1125
  142DG     C12 3255   4.568   5.082  -0.074  0.3236  0.0488 -0.1269
  142DG     H13 3256   4.224   5.287   0.281 -0.2112  2.5890 -1.1636
  142DG     H14 3257   4.357   5.181   0.288 -0.3432 -0.8669 -1.0172
  142DG     H15 3258   4.646   5.155  -0.051  0.7542 -0.6355  0.6308
  142DG     H16 3259   4.603   4.979  -0.061 -0.7479 -0.2472  0.5233
  142DG     C17 3260   4.265   5.218   0.084 -0.1317  0.1159 -0.3538
  142DG     C18 3261   4.447   5.084   0.023  0.3889 -0.1950 -0.1926
  142DG     O19 3262   4.377   5.203   0.001 -0.3557 -0.0398  0.2433
  142DG     H20 3263   4.212   5.306   0.047 -1.4391  0.2221  1.5805
  142DG     H21 3264   4.195   5.135   0.083  0.3183 -0.2619 -0.3069
  142DG     H22 3265   4.377   5.003   0.004 -1.0166  1.0661 -0.6266
  142DG     H23 3266   4.476   5.086   0.128  0.5439  0.2139 -0.2406
  143DG      C1 3267   0.624   3.443   2.086 -0.1212 -0.1429 -0.0041
  143DG      C2 3268   0.537   3.123   1.438  0.0067 -0.6116 -0.3074
  143DG      H3 3269   0.663   3.375   2.162  0.3180  0.9965  0.8271
  143DG      H4 3270   0.518   3.432   2.062 -0.7775  3.5752  0.5622
  143DG      H5 3271   0.638   3.546   2.120 -0.7118 -0.4352  1.1463
  143DG      H6 3272   0.514   3.204   1.369  0.1206 -0.8536 -0.6360
  143DG      H7 3273   0.571   3.046   1.369 -0.9182 -0.5474 -0.8587
  143DG      H8 3274   0.450   3.084   1.491  0.9273  1.2318  2.7677
  143DG      O9 3275   0.695   3.422   1.964 -0.2634  0.3089  0.2186
  143DG     O10 3276   0.628   3.182   1.527  0.2702 -0.3887  0.7230
  143DG     C11 3277   0.703   3.537   1.877 -0.1195  0.7717  0.4248
  143DG     C12 3278   0.734   3.262   1.476  0.5292 -0.1692 -0.1444
  143DG     H13 3279   0.748   3.621   1.931 -0.6533  0.0657  2.0208
  143DG     H14 3280   0.601   3.571   1.861  0.2998  1.3058 -1.3297
  143DG     H15 3281   0.698   3.345   1.416  1.4398 -0.9305 -1.7901
  143DG     H16 3282   0.792   3.202   1.406  0.7891  1.7577 -1.6875
  143DG     C17 3283   0.781   3.503   1.751 -0.4113  0.0896  0.6212
  143DG     C18 3284   0.811   3.315   1.599 -0.1313 -0.0328 -0.0919
  143DG     O19 3285   0.723   3.387   1.683 -0.7308  0.3394 -0.5541
  143DG     H20 3286   0.884   3.500   1.788  1.1272 -2.0392 -3.2901
  143DG     H21 3287   0.785   3.589   1.684 -0.8926  0.7941  1.4701
  143DG     H22 3288   0.848   3.225   1.649  0.9453  0.3265 -0.2081
  143DG     H23 3289   0.899   3.375   1.576  0.6406 -0.4612  1.5474
  144DG      C1 3290   1.319   0.145   1.252  0.0163  0.1656  0.0966
  144DG      C2 3291   1.171  -0.471   1.529 -0.0088 -1.1532  0.2283
  144DG      H3 3292   1.213   0.120   1.248 -0.0762  0.2603 -5.4371
  144DG      H4 3293   1.364   0.058   1.204  0.3927  0.5339 -0.2267
  144DG      H5 3294   1.321   0.225   1.177 -4.4337  1.1025  0.7414
  144DG      H6 3295   1.086  -0.491   1.463  0.4177  0.8489 -1.0111
  144DG      H7 3296   1.265  -0.514   1.496  0.1988 -0.2956 -0.3305
  144DG      H8 3297   1.154  -0.519   1.625  2.0891 -3.6229 -0.5465
  144DG      O9 3298   1.357   0.192   1.378  0.1356  0.1474 -0.0847
  144DG     O10 3299   1.172  -0.331   1.544 -0.3800  0.0093  0.0907
  144DG     C11 3300   1.364   0.091   1.479 -0.3423  0.3627  0.0289
  144DG     C12 3301   1.153  -0.276   1.679 -0.1666  0.4666  0.2033
  144DG     H13 3302   1.404   0.136   1.570  0.9743 -1.6586  0.5244
  144DG     H14 3303   1.434   0.011   1.455  0.9800  1.3014  0.6391
  144DG     H15 3304   1.243  -0.303   1.735 -0.1753  1.1714  0.5666
  144DG     H16 3305   1.065  -0.322   1.724 -0.8426  1.0722 -0.4728
  144DG     C17 3306   1.227   0.016   1.508  0.2042  0.2646 -0.0075
  144DG     C18 3307   1.125  -0.121   1.678  0.2441 -0.0118 -0.2107
  144DG     O19 3308   1.242  -0.067   1.623 -0.3620 -0.4446  0.4945
  144DG     H20 3309   1.204  -0.046   1.422 -0.9698 -1.3563  1.4108
  144DG     H21 3310   1.151   0.091   1.528  0.4995  1.1947 -2.1549
  144DG     H22 3311   1.039  -0.093   1.618  1.5113 -1.0975 -2.7073
  144DG     H23 3312   1.109  -0.088   1.781 -0.2937  1.8374 -0.8369
  145DG      C1 3313   2.135   1.948   1.044  0.0809  0.4679  0.3986
  145DG      C2 3314   1.755   1.570   1.716  0.2332 -0.7394  0.1113
  145DG      H3 3315   2.169   1.855   1.000  0.2411  0.8106 -0.2024
  145DG      H4 3316   2.220   2.014   1.030  1.4642 -1.2436  0.4187
  145DG      H5 3317   2.044   1.970   0.989  0.4001  0.8443  0.0181
  145DG      H6 3318   1.654   1.606   1.701  0.9758  2.3076  1.5377
  145DG      H7 3319   1.751   1.481   1.652  2.0382  1.2482 -3.0422
  145DG      H8 3320   1.751   1.540   1.821 -1.4116 -0.8108  0.0489
  145DG      O9 3321   2.111   1.932   1.182 -0.1726 -0.1675 -0.0071
  145DG     O10 3322   1.853   1.666   1.703 -0.1734 -0.0476  0.3342
  145DG     C11 3323   2.225   1.896   1.261 -0.7857  0.3283  0.5191
  145DG     C12 3324   1.880   1.705   1.564 -0.5395 -0.0365 -0.4971
  145DG     H13 3325   2.312   1.961   1.265 -0.2386 -0.4601  1.8875
  145DG     H14 3326   2.258   1.795   1.240 -0.1056  0.1716  2.1678
  145DG     H15 3327   1.804   1.766   1.515  1.2400  0.8364 -2.3111
  145DG     H16 3328   1.889   1.611   1.509 -2.1663 -1.3721  1.3593
  145DG     C17 3329   2.169   1.901   1.407  0.4805  0.0003  0.1148
  145DG     C18 3330   2.017   1.790   1.552  0.8750 -0.3012  0.1635
  145DG     O19 3331   2.061   1.803   1.419  0.3067  0.2055 -0.5007
  145DG     H20 3332   2.133   2.000   1.434 -1.7066 -0.7306  0.0887
  145DG     H21 3333   2.250   1.872   1.473  0.8184  0.0318 -0.2838
  145DG     H22 3334   2.009   1.892   1.591  1.6802 -0.3729  0.5370
  145DG     H23 3335   2.102   1.743   1.602  1.0107  1.3967  1.6312
  146DG      C1 3336   4.236   2.011   3.339 -0.1980 -0.0387  0.5472
  146DG      C2 3337   3.884   2.163   2.624 -0.2833 -0.2107 -0.1658
  146DG      H3 3338   4.307   2.063   3.403  0.2572 -1.4123  1.1949
  146DG      H4 3339   4.233   1.903   3.356  0.6347 -0.2226 -0.3697
  146DG      H5 3340   4.140   2.061   3.347  0.1686  0.9052 -0.6693
  146DG      H6 3341   3.824   2.087   2.674  0.3593  0.9314  2.4897
  146DG      H7 3342   3.814   2.246   2.620 -1.1647 -0.8663  1.0482
  146DG      H8 3343   3.905   2.136   2.520 -0.5322  1.6405 -0.7291
  146DG      O9 3344   4.274   2.026   3.202 -0.1394  0.3543 -0.2073
  146DG     O10 3345   4.005   2.182   2.691  0.1431 -0.5556 -0.1507
  146DG     C11 3346   4.271   2.159   3.156 -0.0488 -0.5799  0.0424
  146DG     C12 3347   4.071   2.057   2.723 -0.1786 -0.6303  0.8083
  146DG     H13 3348   4.345   2.218   3.210 -2.4926  0.6284  2.3057
  146DG     H14 3349   4.171   2.200   3.170 -0.1318 -0.3605 -1.1185
  146DG     H15 3350   4.091   2.009   2.628  0.0638 -0.3081  0.6951
  146DG     H16 3351   4.006   1.987   2.775 -1.4104  1.1434  1.7624
  146DG     C17 3352   4.294   2.150   3.003 -0.1859  0.3054  0.0126
  146DG     C18 3353   4.200   2.084   2.801 -0.4135 -0.4437 -0.2121
  146DG     O19 3354   4.178   2.118   2.937 -0.0879  0.0220 -0.3295
  146DG     H20 3355   4.384   2.091   2.983 -0.7235 -0.5886  0.2003
  146DG     H21 3356   4.326   2.248   2.966 -2.2980  1.0934  0.1430
  146DG     H22 3357   4.260   1.993   2.809  2.0897  1.1181 -0.0494
  146DG     H23 3358   4.265   2.156   2.750  2.6731 -3.0567 -0.2794
  147DG      C1 3359   3.015   0.217   0.879  0.3504 -0.3920  0.2810
  147DG      C2 3360   2.861  -0.384   0.572 -0.5467  0.8483 -0.6002
  147DG      H3 3361   2.974   0.285   0.805 -1.3759 -1.3563  0.3039
  147DG      H4 3362   3.083   0.268   0.948  0.9735 -2.0442  0.9572
  147DG      H5 3363   2.924   0.181   0.928 -0.9405  0.5648 -1.3194
  147DG      H6 3364   2.880  -0.365   0.678 -1.8201  0.1952 -0.2327
  147DG      H7 3365   2.754  -0.375   0.555 -0.8231  0.9296  0.9667
  147DG      H8 3366   2.893  -0.489   0.569  1.5031  1.3727  0.5455
  147DG      O9 3367   3.083   0.121   0.803 -0.0479  0.6510  0.2764
  147DG     O10 3368   2.925  -0.289   0.485  0.2289  0.4664 -0.0653
  147DG     C11 3369   3.117   0.016   0.886  0.4570  0.0373 -0.0161
  147DG     C12 3370   3.070  -0.287   0.502  1.2419  0.9323  0.6659
  147DG     H13 3371   3.029  -0.016   0.942 -1.0399 -0.0559 -2.2705
  147DG     H14 3372   3.201   0.041   0.951  1.1387 -0.8488 -0.5270
  147DG     H15 3373   3.110  -0.207   0.440  1.8833  1.3295  1.5647
  147DG     H16 3374   3.102  -0.379   0.453 -2.2055 -0.9844  1.6892
  147DG     C17 3375   3.170  -0.107   0.807  0.3143 -0.5220 -0.0990
  147DG     C18 3376   3.133  -0.270   0.642  0.1299  0.9028  0.5515
  147DG     O19 3377   3.077  -0.155   0.709 -0.3938 -0.6547  0.0392
  147DG     H20 3378   3.196  -0.193   0.868 -0.1697 -1.3703 -1.0677
  147DG     H21 3379   3.266  -0.085   0.760  0.3832 -0.8095 -0.0925
  147DG     H22 3380   3.106  -0.354   0.706 -1.5783  0.8518 -0.1799
  147DG     H23 3381   3.241  -0.265   0.630  0.2043 -0.5736  0.3916
  148DG      C1 3382   4.956   1.961   0.466 -0.4182  0.9518  0.1176
  148DG      C2 3383   5.126   2.112   1.202 -0.2311 -0.0456 -0.2858
  148DG      H3 3384   5.004   1.931   0.372  2.0104 -0.7149  1.7720
  148DG      H4 3385   4.873   2.028   0.446 -0.0990  1.6460  1.0624
  148DG      H5 3386   4.909   1.868   0.499  0.9601  0.4018  0.6191
  148DG      H6 3387   5.089   2.012   1.226 -2.7670  0.4636 -1.7604
  148DG      H7 3388   5.197   2.151   1.276  0.5237 -1.7544 -0.0565
  148DG      H8 3389   5.038   2.175   1.206 -1.0998 -1.1450 -1.2672
  148DG      O9 3390   5.037   2.010   0.569  0.2089 -0.3556 -0.1505
  148DG     O10 3391   5.168   2.124   1.069 -0.1915  0.1728  0.0312
  148DG     C11 3392   5.139   1.929   0.611 -0.1018  0.2219  0.3808
  148DG     C12 3393   5.292   2.059   1.054  0.4122  0.5757 -0.4151
  148DG     H13 3394   5.196   1.893   0.525  2.0776 -0.6481  2.1073
  148DG     H14 3395   5.113   1.834   0.657 -1.3118  0.0757 -0.5466
  148DG     H15 3396   5.286   1.955   1.086  2.7255 -0.1519 -2.0922
  148DG     H16 3397   5.368   2.123   1.100  1.7582 -0.9773 -0.3599
  148DG     C17 3398   5.252   2.008   0.683  0.2713  0.8601 -0.9670
  148DG     C18 3399   5.324   2.073   0.903 -0.3943 -0.2131 -0.1728
  148DG     O19 3400   5.223   2.011   0.821 -0.3525  0.5479 -0.4053
  148DG     H20 3401   5.279   2.107   0.648 -0.7879  1.9017  1.0005
  148DG     H21 3402   5.342   1.948   0.674 -0.8035 -0.8000 -1.1966
  148DG     H22 3403   5.328   2.176   0.868 -0.1042 -0.3319 -0.4872
  148DG     H23 3404   5.420   2.023   0.892  0.1585  0.7162  0.2762
  149DG      C1 3405   2.874   5.111   2.931  0.3230  0.0743  0.4025
  149DG      C2 3406   3.453   4.819   2.631  0.4575  0.7751 -0.8075
  149DG      H3 3407   2.869   5.006   2.902 -0.4548  0.4141 -0.7523
  149DG      H4 3408   2.818   5.175   2.863  0.1142 -1.2323 -0.6951
  149DG      H5 3409   2.829   5.107   3.030 -0.9495 -0.6138 -0.1878
  149DG      H6 3410   3.444   4.710   2.626 -0.3164  0.7482  0.5194
  149DG      H7 3411   3.401   4.873   2.552 -0.4670  2.4840  0.8894
  149DG      H8 3412   3.559   4.844   2.633  1.3857 -2.5477  1.6877
  149DG      O9 3413   3.004   5.155   2.964 -0.0833  0.9460  0.5618
  149DG     O10 3414   3.398   4.851   2.760 -0.1933  0.9953  0.4369
  149DG     C11 3415   3.058   5.096   3.085 -0.2433  0.2105 -0.8705
  149DG     C12 3416   3.260   4.829   2.783 -0.1737  0.0327 -0.2513
  149DG     H13 3417   3.013   5.003   3.118 -0.2925  0.3901 -0.4265
  149DG     H14 3418   3.047   5.164   3.170  0.6000 -0.8359  0.1020
  149DG     H15 3419   3.223   4.727   2.769  0.8844 -0.7449  2.1270
  149DG     H16 3420   3.199   4.886   2.713  0.2900  0.4736 -0.2916
  149DG     C17 3421   3.213   5.075   3.071  0.5608  1.0186  0.0571
  149DG     C18 3422   3.218   4.879   2.927  0.8275  0.2453  0.4349
  149DG     O19 3423   3.260   5.017   2.949 -0.1318  0.2860  0.7000
  149DG     H20 3424   3.252   5.015   3.154  2.8223 -1.4150 -2.5338
  149DG     H21 3425   3.259   5.173   3.084 -0.2040  1.2039  1.5317
  149DG     H22 3426   3.111   4.883   2.943  0.9049  0.1205  0.9984
  149DG     H23 3427   3.259   4.820   3.009 -0.1556 -0.2585  0.5759
  150DG      C1 3428   4.478   0.024   3.592  0.5556  0.0589  0.6198
  150DG      C2 3429   4.458   0.183   4.310 -0.6978 -0.3510  0.6244
  150DG      H3 3430   4.528   0.118   3.573 -0.1024  0.5285  1.1488
  150DG      H4 3431   4.423  -0.020   3.509 -0.3668  0.9519  0.7386
  150DG      H5 3432   4.567  -0.038   3.602  2.2174  1.9942 -1.4284
  150DG      H6 3433   4.512   0.230   4.228 -2.2696  1.6548  0.6462
  150DG      H7 3434   4.405   0.270   4.350  0.8684  1.1501 -0.4075
  150DG      H8 3435   4.528   0.150   4.386  0.3174  0.7222  0.1886
  150DG      O9 3436   4.390   0.032   3.703 -0.2850 -0.2176  0.1455
  150DG     O10 3437   4.366   0.087   4.265  0.6660  0.5213  0.2042
  150DG     C11 3438   4.351  -0.094   3.761 -0.6739  0.2809 -0.3633
  150DG     C12 3439   4.273   0.153   4.187 -0.3848 -0.5096 -0.2976
  150DG     H13 3440   4.444  -0.136   3.799 -1.3774  0.9904  2.4021
  150DG     H14 3441   4.312  -0.156   3.680  1.1521 -1.3362 -0.0727
  150DG     H15 3442   4.318   0.235   4.130 -0.6556 -0.3001 -0.2093
  150DG     H16 3443   4.200   0.202   4.250  0.8526  1.5319 -0.3627
  150DG     C17 3444   4.249  -0.075   3.885  0.1287 -0.2473 -0.0821
  150DG     C18 3445   4.214   0.050   4.092  0.0820 -0.0139  0.4733
  150DG     O19 3446   4.303   0.019   3.982  0.6822 -0.6539  0.5671
  150DG     H20 3447   4.215  -0.166   3.935  2.5423 -0.3448  1.5150
  150DG     H21 3448   4.155  -0.039   3.843  0.1495 -0.4167 -0.2745
  150DG     H22 3449   4.181  -0.044   4.137  3.4566 -1.5162  0.1121
  150DG     H23 3450   4.122   0.096   4.056  0.3855  0.9607  0.8974
  151DG      C1 3451   3.544   3.851   3.856 -0.5538  0.0704  0.0957
  151DG      C2 3452   2.839   3.728   3.400  0.0644 -0.0089 -0.2540
  151DG      H3 3453   3.549   3.941   3.796 -0.8745  0.6866  0.9676
  151DG      H4 3454   3.624   3.777   3.857  0.8182  1.4933  1.8132
  151DG      H5 3455   3.536   3.885   3.959 -2.8552  0.4411 -0.1530
  151DG      H6 3456   2.768   3.711   3.480  1.6071 -0.7899  1.0104
  151DG      H7 3457   2.829   3.834   3.375 -1.2296  0.5041  2.1286
  151DG      H8 3458   2.824   3.671   3.308 -0.2275 -1.2245  0.5295
  151DG      O9 3459   3.437   3.755   3.831  0.5926 -0.4839 -0.8178
  151DG     O10 3460   2.972   3.701   3.450 -0.8113 -0.4066 -0.3194
  151DG     C11 3461   3.406   3.728   3.694 -0.0199  0.5759 -0.1724
  151DG     C12 3462   3.012   3.568   3.450  0.4342  0.3340 -0.2128
  151DG     H13 3463   3.491   3.705   3.628  0.6941  0.1064  0.8835
  151DG     H14 3464   3.368   3.822   3.656  0.8219  1.0181  0.0430
  151DG     H15 3465   3.065   3.551   3.356  0.6657 -3.0258  0.4071
  151DG     H16 3466   2.922   3.506   3.449  1.5341 -1.3176 -1.4954
  151DG     C17 3467   3.297   3.615   3.694 -0.1401  0.0400 -0.6532
  151DG     C18 3468   3.111   3.545   3.569  0.0742 -0.0564 -0.4883
  151DG     O19 3469   3.224   3.624   3.576 -0.1243 -0.1214 -0.1173
  151DG     H20 3470   3.236   3.622   3.784  1.6044  2.0739  0.4740
  151DG     H21 3471   3.349   3.519   3.694 -0.9248 -0.3941 -1.1004
  151DG     H22 3472   3.048   3.566   3.656 -2.1214  1.3440 -2.3170
  151DG     H23 3473   3.127   3.437   3.571 -0.5656 -0.1502 -0.3315
  152DG      C1 3474   1.848   3.966   2.384  0.3154 -0.0657 -0.0671
  152DG      C2 3475   1.816   3.656   1.631  0.2595 -0.0560  0.7269
  152DG      H3 3476   1.889   4.058   2.425  1.0517  0.1780 -1.3038
  152DG      H4 3477   1.866   3.892   2.462 -1.2895  0.1402  0.5411
  152DG      H5 3478   1.740   3.981   2.378  0.3386  0.2156  0.2202
  152DG      H6 3479   1.778   3.705   1.541  3.2487  0.3321 -0.4639
  152DG      H7 3480   1.920   3.627   1.613 -0.3022 -2.4500  1.0787
  152DG      H8 3481   1.761   3.563   1.643  0.6105 -0.4146 -0.3333
  152DG      O9 3482   1.910   3.933   2.262 -0.5077  0.0487 -0.3404
  152DG     O10 3483   1.820   3.734   1.745  0.5058 -0.4702  0.4304
  152DG     C11 3484   1.873   3.805   2.209  0.5397 -0.2414  0.5689
  152DG     C12 3485   1.698   3.783   1.799  0.0623  0.4535 -0.0261
  152DG     H13 3486   1.834   3.731   2.279  1.1001  1.2271  2.5105
  152DG     H14 3487   1.959   3.761   2.159 -0.9203 -1.4570 -0.9880
  152DG     H15 3488   1.613   3.774   1.732 -1.0346  1.4267  1.1659
  152DG     H16 3489   1.714   3.883   1.840  1.1468  0.2754  0.0306
  152DG     C17 3490   1.769   3.806   2.102  0.2283 -0.2017  0.1675
  152DG     C18 3491   1.668   3.690   1.918 -0.3797  0.0884 -0.1582
  152DG     O19 3492   1.766   3.690   2.032 -0.4665 -0.8053  0.2965
  152DG     H20 3493   1.789   3.889   2.035 -3.0141  0.5094 -0.0558
  152DG     H21 3494   1.675   3.837   2.147  0.8689 -0.0020  1.4284
  152DG     H22 3495   1.569   3.714   1.956 -0.7538 -1.4379 -0.0723
  152DG     H23 3496   1.651   3.587   1.886  0.1520 -0.4751  1.3040
  153DG      C1 3497   4.434   1.346   1.303 -0.4271 -0.2897 -0.5255
  153DG      C2 3498   4.652   0.806   0.944  0.2299  0.0122 -0.2110
  153DG      H3 3499   4.471   1.276   1.378  1.6453 -2.5616 -3.4406
  153DG      H4 3500   4.378   1.429   1.347  1.5665  0.7572  0.1673
  153DG      H5 3501   4.526   1.394   1.271 -0.6629 -0.6465 -1.7816
  153DG      H6 3502   4.746   0.793   0.998  0.0773  1.7061  0.5015
  153DG      H7 3503   4.587   0.718   0.947  1.6547 -1.1242 -0.9570
  153DG      H8 3504   4.683   0.823   0.841  0.2401 -0.5633 -0.3100
  153DG      O9 3505   4.373   1.282   1.198  0.3666 -0.2532 -0.6147
  153DG     O10 3506   4.580   0.915   0.998 -0.1174  0.3454  0.1761
  153DG     C11 3507   4.383   1.357   1.076  0.5925 -0.4746  0.2089
  153DG     C12 3508   4.443   0.923   0.953  0.2000  0.8137  1.1077
  153DG     H13 3509   4.483   1.384   1.045  0.7574  0.3238  1.3528
  153DG     H14 3510   4.324   1.449   1.079  1.5581  0.3583 -2.8437
  153DG     H15 3511   4.389   0.838   0.995  1.8757 -0.9165 -0.0191
  153DG     H16 3512   4.442   0.917   0.844  0.4185  1.7349  1.0499
  153DG     C17 3513   4.322   1.279   0.963 -0.3123 -0.4548  0.0820
  153DG     C18 3514   4.374   1.045   1.009  0.4362 -0.0414  0.9100
  153DG     O19 3515   4.399   1.165   0.928 -0.3940 -0.2075 -0.1007
  153DG     H20 3516   4.303   1.350   0.882 -3.4683  2.6717  3.2478
  153DG     H21 3517   4.219   1.246   0.976 -0.4609 -0.5816 -1.2012
  153DG     H22 3518   4.267   1.026   0.994  1.1269 -1.8212 -2.9937
  153DG     H23 3519   4.395   1.053   1.116  1.0767 -0.8786  0.8508
  154DG      C1 3520   5.175   1.572   0.178 -0.0413 -0.5022 -0.1284
  154DG      C2 3521   5.891   1.621   0.564 -0.2494 -0.3429 -0.0230
  154DG      H3 3522   5.069   1.549   0.163 -0.3663 -0.0819  1.3517
  154DG      H4 3523   5.223   1.580   0.080  1.0615  2.5927  0.5706
  154DG      H5 3524   5.162   1.669   0.224  0.6023 -0.6733  0.4212
  154DG      H6 3525   5.874   1.577   0.663 -0.7765 -0.3950 -0.1377
  154DG      H7 3526   5.989   1.599   0.521  0.5539 -0.6517  1.8283
  154DG      H8 3527   5.902   1.729   0.570 -1.1275 -0.1249 -1.7640
  154DG      O9 3528   5.225   1.466   0.258  0.0538 -0.2282 -0.1953
  154DG     O10 3529   5.776   1.598   0.483 -0.6751 -0.1361 -0.3242
  154DG     C11 3530   5.336   1.506   0.331  0.1158 -0.1993 -0.4240
  154DG     C12 3531   5.790   1.631   0.344 -1.1581 -0.1924  0.1520
  154DG     H13 3532   5.363   1.428   0.403  3.1333 -0.0958 -1.2813
  154DG     H14 3533   5.320   1.605   0.374 -1.0993  0.0247 -1.3465
  154DG     H15 3534   5.891   1.603   0.315 -1.2585 -0.7170  0.2972
  154DG     H16 3535   5.781   1.737   0.322 -0.6593 -0.3644 -0.9572
  154DG     C17 3536   5.454   1.505   0.246  0.1531 -0.2121 -0.0522
  154DG     C18 3537   5.699   1.550   0.263 -0.4908  0.4305  0.6424
  154DG     O19 3538   5.569   1.556   0.322 -0.2561 -1.4084  0.4762
  154DG     H20 3539   5.444   1.557   0.151 -1.4532 -0.5426 -0.0831
  154DG     H21 3540   5.475   1.406   0.205  1.1295 -0.0039 -0.0993
  154DG     H22 3541   5.692   1.582   0.159 -2.2556 -1.3417  0.1548
  154DG     H23 3542   5.722   1.444   0.261  0.2536  0.5823  0.7722
  155DG      C1 3543   4.366   1.181   3.014 -0.1374 -0.2475  0.4674
  155DG      C2 3544   3.686   0.712   3.035 -0.5587  0.1994 -0.1743
  155DG      H3 3545   4.354   1.283   2.978 -1.8520  0.3452  2.5284
  155DG      H4 3546   4.399   1.105   2.943 -0.0631  0.6267 -0.4569
  155DG      H5 3547   4.448   1.187   3.085  0.7115  1.8446 -0.5985
  155DG      H6 3548   3.606   0.760   2.979 -1.2258 -0.9649 -0.2467
  155DG      H7 3549   3.761   0.661   2.973  1.8930  3.2488  0.0171
  155DG      H8 3550   3.625   0.637   3.085 -0.0972  0.7857  1.3313
  155DG      O9 3551   4.249   1.117   3.058 -0.5572  0.0760  0.2431
  155DG     O10 3552   3.748   0.790   3.139  0.4325  0.3217  0.2010
  155DG     C11 3553   4.204   1.174   3.178  0.6576 -0.9179  0.1302
  155DG     C12 3554   3.811   0.903   3.080  0.3194  0.3472  0.1783
  155DG     H13 3555   4.179   1.279   3.166  1.7701 -0.7709 -1.1316
  155DG     H14 3556   4.286   1.177   3.251  2.0030  0.2427 -1.3538
  155DG     H15 3557   3.746   0.976   3.031  0.5536 -1.4283 -3.0623
  155DG     H16 3558   3.877   0.883   2.996 -0.4844  2.1770 -0.9615
  155DG     C17 3559   4.086   1.090   3.240 -0.5269 -0.3443  0.1538
  155DG     C18 3560   3.895   0.967   3.188  0.4355  1.0368  0.5731
  155DG     O19 3561   3.988   1.062   3.148 -0.3303  0.1460  0.6124
  155DG     H20 3562   4.045   1.143   3.326 -1.0604  0.8549 -0.8201
  155DG     H21 3563   4.132   0.999   3.278 -1.3537 -1.0366 -0.4750
  155DG     H22 3564   3.831   1.000   3.270 -0.6459  0.1224  0.1249
  155DG     H23 3565   3.954   0.883   3.224  0.3397  0.2210 -1.0729
  156DG      C1 3566   1.318   0.294   0.570  0.1282 -0.3676 -0.9323
  156DG      C2 3567   1.528   0.686   0.245 -0.6503  0.3739 -0.5600
  156DG      H3 3568   1.283   0.366   0.644  2.8789  0.9582 -0.8171
  156DG      H4 3569   1.348   0.204   0.624  1.2057 -0.3463 -1.4826
  156DG      H5 3570   1.239   0.266   0.500 -1.3374 -1.0553  0.9057
  156DG      H6 3571   1.559   0.790   0.249  1.1005 -0.1330 -0.1143
  156DG      H7 3572   1.440   0.692   0.181  0.5551  0.2109 -2.2874
  156DG      H8 3573   1.486   0.651   0.339 -1.2484 -1.6836 -1.5337
  156DG      O9 3574   1.432   0.341   0.511 -0.6997 -0.3642  0.2273
  156DG     O10 3575   1.630   0.607   0.186 -0.3738 -0.1169  0.0057
  156DG     C11 3576   1.536   0.372   0.603 -0.1435 -0.3741  0.1405
  156DG     C12 3577   1.748   0.587   0.264  0.5043  0.6051 -0.2248
  156DG     H13 3578   1.533   0.314   0.695 -0.3830  0.3491  0.5964
  156DG     H14 3579   1.520   0.475   0.637  1.6080 -0.2915  0.8053
  156DG     H15 3580   1.803   0.681   0.274 -2.1048  2.1014  1.4675
  156DG     H16 3581   1.827   0.529   0.217  0.2783 -0.3327  0.5259
  156DG     C17 3582   1.678   0.351   0.542  0.3015  0.5181 -0.1733
  156DG     C18 3583   1.726   0.539   0.405 -0.2592  0.6272  0.6830
  156DG     O19 3584   1.694   0.404   0.406 -0.6528 -0.0047 -0.8747
  156DG     H20 3585   1.695   0.244   0.549 -1.7579  0.2167  0.9081
  156DG     H21 3586   1.750   0.403   0.606  1.0071  0.4781 -0.9246
  156DG     H22 3587   1.822   0.548   0.456  0.2025  1.5965 -0.3197
  156DG     H23 3588   1.654   0.592   0.467  0.1011  2.0916 -0.0950
  157DG      C1 3589   2.555   0.447   3.178 -0.0121  0.6260  0.2672
  157DG      C2 3590   2.587   0.253   2.507  0.3670  0.7985 -0.2057
  157DG      H3 3591   2.449   0.465   3.160 -0.3997 -0.0668  1.7360
  157DG      H4 3592   2.587   0.542   3.221  1.5247 -0.0407  0.6718
  157DG      H5 3593   2.564   0.368   3.252  2.7434  0.6342  0.0226
  157DG      H6 3594   2.596   0.147   2.486 -1.0177  0.2630  1.6162
  157DG      H7 3595   2.480   0.259   2.526  0.5941  0.2861  1.3567
  157DG      H8 3596   2.615   0.313   2.420  1.4398  1.2971  0.4625
  157DG      O9 3597   2.627   0.423   3.062 -0.2781  0.3970  0.1173
  157DG     O10 3598   2.648   0.282   2.627 -0.1091 -0.3317 -0.3158
  157DG     C11 3599   2.760   0.400   3.081 -0.1886 -0.6820 -0.9215
  157DG     C12 3600   2.792   0.270   2.621 -0.4431 -0.1351  0.9682
  157DG     H13 3601   2.786   0.300   3.115  1.0461  0.6325  2.3347
  157DG     H14 3602   2.792   0.469   3.158 -3.1212  1.4508 -1.4260
  157DG     H15 3603   2.820   0.292   2.518 -1.1620  1.0300  1.0088
  157DG     H16 3604   2.817   0.167   2.646 -3.5803 -1.1610  0.3277
  157DG     C17 3605   2.844   0.423   2.958  0.6080 -0.6589 -0.1616
  157DG     C18 3606   2.853   0.361   2.721 -0.5814 -0.1834  0.2286
  157DG     O19 3607   2.784   0.350   2.843 -0.1876 -0.0654  0.2004
  157DG     H20 3608   2.948   0.402   2.980  0.3444 -2.5192 -0.5462
  157DG     H21 3609   2.845   0.528   2.929  1.3423 -0.9606 -1.3365
  157DG     H22 3610   2.955   0.333   2.745 -0.8330 -1.1498  0.2367
  157DG     H23 3611   2.851   0.464   2.688 -0.3801 -0.5870 -1.0694
  158DG      C1 3612   5.440   0.275   1.536 -0.1884 -0.6469 -0.1620
  158DG      C2 3613   5.689  -0.123   2.006 -0.2448 -0.7744  0.1047
  158DG      H3 3614   5.409   0.210   1.454  0.1353  1.3849 -1.9946
  158DG      H4 3615   5.546   0.269   1.560  0.5166  0.2102 -2.6820
  158DG      H5 3616   5.417   0.376   1.501  1.6525  0.2143  0.9478
  158DG      H6 3617   5.722  -0.053   2.083 -0.5517  0.1334 -0.5705
  158DG      H7 3618   5.643  -0.214   2.045  1.9378 -1.9597  0.0664
  158DG      H8 3619   5.773  -0.153   1.942  0.1741  0.1409  0.2119
  158DG      O9 3620   5.370   0.259   1.656  0.7749  0.2261 -0.3345
  158DG     O10 3621   5.601  -0.048   1.926  1.0147 -0.6981 -0.3691
  158DG     C11 3622   5.406   0.348   1.761  0.3315 -0.0809  0.3549
  158DG     C12 3623   5.459  -0.052   1.958 -0.4512 -0.2440 -0.5321
  158DG     H13 3624   5.374   0.450   1.736 -1.2119 -0.5802  0.2064
  158DG     H14 3625   5.513   0.361   1.775 -0.2182  1.9270  4.0832
  158DG     H15 3626   5.448  -0.060   2.066 -0.2552 -3.0792 -0.6449
  158DG     H16 3627   5.427  -0.147   1.916  0.8087 -0.0693 -1.9519
  158DG     C17 3628   5.356   0.303   1.897  0.1746 -0.3024  0.3276
  158DG     C18 3629   5.385   0.068   1.904 -0.2744  0.4245  0.2193
  158DG     O19 3630   5.424   0.194   1.956  0.0940 -0.2701  0.1492
  158DG     H20 3631   5.249   0.282   1.895  0.1977 -0.5509  1.0747
  158DG     H21 3632   5.373   0.385   1.967  1.3559 -1.6628  1.7065
  158DG     H22 3633   5.378   0.068   1.795 -2.0160 -2.0381  0.2413
  158DG     H23 3634   5.278   0.057   1.921 -0.2747  1.5087  1.0650
  159DG      C1 3635   2.710   3.662   0.423  1.1239 -0.0079  0.1624
  159DG      C2 3636   2.790   3.824   1.074 -0.0748  0.5822  0.3058
  159DG      H3 3637   2.745   3.558   0.426  0.3272 -0.2609  2.0832
  159DG      H4 3638   2.795   3.727   0.403 -1.4891  3.3068 -0.9917
  159DG      H5 3639   2.641   3.670   0.338  2.2540  2.1472 -0.6313
  159DG      H6 3640   2.883   3.770   1.056 -0.9439 -0.6648 -0.6445
  159DG      H7 3641   2.814   3.929   1.058  0.5307  0.6570  1.5628
  159DG      H8 3642   2.754   3.815   1.176  1.5050  0.6155  0.9013
  159DG      O9 3643   2.652   3.699   0.544 -0.4709  0.2378 -0.2806
  159DG     O10 3644   2.691   3.777   0.983 -0.3133  0.1737  0.4041
  159DG     C11 3645   2.534   3.627   0.569  0.4540 -0.1255  0.1528
  159DG     C12 3646   2.568   3.846   0.996 -0.4639 -0.3063  0.5128
  159DG     H13 3647   2.549   3.523   0.600 -0.0942 -0.0382  0.7313
  159DG     H14 3648   2.473   3.619   0.479  0.2464  0.6683  0.2133
  159DG     H15 3649   2.583   3.945   0.953 -0.2718 -0.7569 -0.5034
  159DG     H16 3650   2.541   3.855   1.101  0.9086 -1.5627  1.0181
  159DG     C17 3651   2.450   3.698   0.680 -0.5103  0.2124  0.5810
  159DG     C18 3652   2.474   3.764   0.910  1.3874 -0.3523  0.6292
  159DG     O19 3653   2.538   3.751   0.778  0.8128 -0.5580 -0.5239
  159DG     H20 3654   2.373   3.634   0.721 -0.4646  1.5378  2.9282
  159DG     H21 3655   2.394   3.783   0.640 -0.9664 -0.5164 -0.3630
  159DG     H22 3656   2.458   3.667   0.957 -0.9390 -0.7725 -0.8593
  159DG     H23 3657   2.371   3.799   0.897  1.4563 -0.5108 -0.3929
  160DG      C1 3658   1.772   0.710   4.773  0.8905  0.1022  0.1798
  160DG      C2 3659   2.498   1.279   4.718  0.5212 -0.3878  0.4691
  160DG      H3 3660   1.806   0.728   4.672 -0.7347  0.2062 -0.3701
  160DG      H4 3661   1.725   0.803   4.806 -1.2571 -0.4112 -1.1986
  160DG      H5 3662   1.702   0.627   4.772  1.5767 -0.4739 -0.9245
  160DG      H6 3663   2.431   1.361   4.746  2.6141  1.5727  0.0234
  160DG      H7 3664   2.568   1.272   4.802 -0.9736  1.2649  1.9519
  160DG      H8 3665   2.548   1.315   4.629 -0.8748 -1.2753 -0.7188
  160DG      O9 3666   1.890   0.684   4.853 -0.1103 -0.3264  0.2635
  160DG     O10 3667   2.430   1.157   4.695 -0.1592 -0.5806  0.7969
  160DG     C11 3668   1.972   0.799   4.876 -0.2445 -0.4009 -0.6876
  160DG     C12 3669   2.330   1.113   4.780 -0.3544  0.2109  0.3077
  160DG     H13 3670   2.035   0.779   4.962 -0.7024 -1.6933 -0.6266
  160DG     H14 3671   1.911   0.882   4.912  1.8100  0.1134  1.9187
  160DG     H15 3672   2.264   1.198   4.797  0.5697  0.6974  1.5518
  160DG     H16 3673   2.373   1.085   4.876  0.0268  0.4725  0.2160
  160DG     C17 3674   2.080   0.835   4.775 -0.0210 -0.5099 -0.2060
  160DG     C18 3675   2.255   0.994   4.721  0.0490 -0.2020  0.3156
  160DG     O19 3676   2.153   0.951   4.817 -0.1313 -0.1305  0.2187
  160DG     H20 3677   2.038   0.856   4.676  1.4772  1.5426 -0.4745
  160DG     H21 3678   2.157   0.758   4.770  2.1194  1.4844  0.3342
  160DG     H22 3679   2.210   1.033   4.629 -0.4179  0.3955  0.7839
  160DG     H23 3680   2.322   0.914   4.693 -0.6123 -0.7059  0.1518
  161DG      C1 3681   4.686   3.668   3.507  0.5266  0.3094  0.1437
  161DG      C2 3682   4.288   3.464   3.069 -0.5804  0.4182  0.2905
  161DG      H3 3683   4.615   3.600   3.554  2.7037 -2.7048 -0.5877
  161DG      H4 3684   4.716   3.736   3.586 -1.9534  0.5186  0.9797
  161DG      H5 3685   4.775   3.615   3.474 -0.5708 -1.8678  0.4893
  161DG      H6 3686   4.182   3.483   3.056 -0.3923  0.2336 -2.1015
  161DG      H7 3687   4.328   3.436   2.971 -0.7967  0.6695  0.1316
  161DG      H8 3688   4.304   3.384   3.141  1.2577 -1.0951 -1.6332
  161DG      O9 3689   4.619   3.735   3.393 -0.0598  0.3583  0.2826
  161DG     O10 3690   4.353   3.578   3.115 -0.5798 -0.0528  0.0557
  161DG     C11 3691   4.708   3.813   3.311 -0.0465  0.3405 -0.8088
  161DG     C12 3692   4.359   3.680   3.017  0.1174  0.0401  0.3763
  161DG     H13 3693   4.796   3.757   3.279  0.3821  0.8346 -0.5166
  161DG     H14 3694   4.746   3.899   3.366 -3.5603  0.1626  2.2634
  161DG     H15 3695   4.257   3.710   2.997  0.1071 -0.9382 -1.1760
  161DG     H16 3696   4.409   3.637   2.931 -0.7843 -0.2372 -0.0155
  161DG     C17 3697   4.622   3.864   3.194  0.1538 -0.0139 -0.2149
  161DG     C18 3698   4.447   3.795   3.049 -0.3493 -0.6913 -0.6732
  161DG     O19 3699   4.530   3.759   3.155  1.0284  0.0953 -0.5961
  161DG     H20 3700   4.688   3.899   3.115  0.1578  3.5334  1.1970
  161DG     H21 3701   4.558   3.948   3.221  1.5197  1.0281 -0.1252
  161DG     H22 3702   4.490   3.826   2.954 -1.4235  1.6411 -0.4686
  161DG     H23 3703   4.383   3.876   3.086  0.9452  0.5979 -1.1628
  162DG      C1 3704   1.793   3.217   5.402  0.0992  0.2851 -0.6299
  162DG      C2 3705   2.241   3.733   5.298 -0.3979 -0.1982  0.5348
  162DG      H3 3706   1.786   3.109   5.413  2.1466  0.3317  2.1791
  162DG      H4 3707   1.765   3.247   5.301 -2.2770 -1.4891 -0.5973
  162DG      H5 3708   1.736   3.261   5.483  2.5794 -1.2963  2.1588
  162DG      H6 3709   2.348   3.747   5.312 -0.2342 -1.8954  1.1680
  162DG      H7 3710   2.226   3.727   5.190  0.6725  1.7276  0.2203
  162DG      H8 3711   2.189   3.822   5.334 -0.7114 -1.2757  2.9368
  162DG      O9 3712   1.923   3.241   5.429 -0.7041 -0.6853 -0.1156
  162DG     O10 3713   2.195   3.616   5.356 -0.1271  0.9532  0.1028
  162DG     C11 3714   1.980   3.200   5.550  0.2804  0.3199 -0.1821
  162DG     C12 3715   2.184   3.638   5.497 -0.2089  0.2927 -0.3412
  162DG     H13 3716   1.997   3.094   5.536  0.3278  0.1441  1.0508
  162DG     H14 3717   1.898   3.217   5.621 -0.6489 -0.4409 -1.0506
  162DG     H15 3718   2.094   3.691   5.528  0.7628  1.5790  0.4411
  162DG     H16 3719   2.254   3.711   5.538  0.3146 -1.7593  2.7386
  162DG     C17 3720   2.105   3.285   5.587  0.8331  0.7285 -0.2724
  162DG     C18 3721   2.202   3.510   5.573 -0.4244  0.2232 -0.2119
  162DG     O19 3722   2.096   3.419   5.540  0.2026 -0.2316 -0.3540
  162DG     H20 3723   2.188   3.236   5.537  0.2756  0.6622 -1.1561
  162DG     H21 3724   2.126   3.288   5.694  1.8171  1.7443 -0.4774
  162DG     H22 3725   2.298   3.462   5.553 -1.6830 -1.8090 -1.8457
  162DG     H23 3726   2.216   3.537   5.677  1.3456 -2.5628  0.3662
  163DG      C1 3727   1.359   0.300   3.775  0.4831 -0.4540 -0.8680
  163DG      C2 3728   1.710   0.242   3.201 -0.2508  0.5292 -0.5752
  163DG      H3 3729   1.335   0.250   3.870  1.4971  1.9110  0.7181
  163DG      H4 3730   1.264   0.333   3.734 -0.5126  0.0059  1.5961
  163DG      H5 3731   1.430   0.381   3.795  0.6575 -1.2402  2.3587
  163DG      H6 3732   1.766   0.166   3.145 -2.0304 -0.3895 -1.1906
  163DG      H7 3733   1.650   0.302   3.133 -0.4574 -0.1566 -1.0156
  163DG      H8 3734   1.790   0.302   3.244  0.6264 -2.1267  1.8295
  163DG      O9 3735   1.424   0.200   3.700 -0.1245  0.0747  0.5188
  163DG     O10 3736   1.626   0.182   3.296 -0.6705 -0.0612 -0.5890
  163DG     C11 3737   1.339   0.079   3.681 -0.3534 -0.0727 -0.5949
  163DG     C12 3738   1.554   0.068   3.250  0.7819  0.2405  1.0107
  163DG     H13 3739   1.239   0.110   3.650  0.6667  1.9550 -2.0156
  163DG     H14 3740   1.317   0.034   3.778 -0.8885  1.5089  0.0516
  163DG     H15 3741   1.614   0.004   3.186  1.0632  1.3081  0.1844
  163DG     H16 3742   1.479   0.105   3.180  0.9720  0.7925  1.0910
  163DG     C17 3743   1.411  -0.008   3.579 -0.4419  0.9311  0.0822
  163DG     C18 3744   1.499  -0.016   3.363 -0.4293 -0.1490  0.3265
  163DG     O19 3745   1.440   0.069   3.466  0.2816  0.2775 -0.5424
  163DG     H20 3746   1.346  -0.089   3.547  0.4249  1.3310 -3.0186
  163DG     H21 3747   1.512  -0.038   3.607 -0.3751 -0.8298 -1.8319
  163DG     H22 3748   1.427  -0.086   3.320 -1.8429  0.6726  1.2691
  163DG     H23 3749   1.576  -0.084   3.399 -0.1371  0.7636  1.4897
  164DG      C1 3750   2.233   2.133   1.710  0.1679  0.2361 -0.7778
  164DG      C2 3751   2.587   1.916   1.112  0.1115 -0.0424 -0.1613
  164DG      H3 3752   2.247   2.178   1.808  1.1551 -1.8109  0.0850
  164DG      H4 3753   2.131   2.094   1.705 -0.6230  2.2851 -2.5993
  164DG      H5 3754   2.241   2.207   1.630  0.4704  1.7026  0.5719
  164DG      H6 3755   2.624   1.823   1.068 -0.1904 -0.1598 -0.1686
  164DG      H7 3756   2.481   1.928   1.092  0.1135  1.9067  0.7219
  164DG      H8 3757   2.648   1.999   1.075  0.9384 -1.0871 -1.2237
  164DG      O9 3758   2.340   2.037   1.687  0.2476  0.0300 -0.1894
  164DG     O10 3759   2.600   1.924   1.255  0.5317  0.2284  0.4029
  164DG     C11 3760   2.464   2.102   1.683  0.1864  0.0842  0.4979
  164DG     C12 3761   2.590   1.802   1.321  0.2184 -0.1510 -0.7120
  164DG     H13 3762   2.510   2.124   1.779  2.5253 -0.8419 -0.3402
  164DG     H14 3763   2.469   2.189   1.619 -0.1928  0.1127  0.5043
  164DG     H15 3764   2.650   1.715   1.293  0.0524 -0.4572 -0.1274
  164DG     H16 3765   2.485   1.775   1.316 -1.2477  4.6480 -0.6524
  164DG     C17 3766   2.562   1.997   1.633 -0.2808 -0.0283  0.9205
  164DG     C18 3767   2.637   1.850   1.458 -0.0795 -0.1384 -0.1493
  164DG     O19 3768   2.543   1.947   1.509  0.3562  0.3546 -0.3680
  164DG     H20 3769   2.561   1.914   1.704  0.8063 -2.3379 -1.6092
  164DG     H21 3770   2.662   2.040   1.643  0.6760 -1.8235 -0.3047
  164DG     H22 3771   2.633   1.764   1.525 -0.6024 -1.1706 -1.4581
  164DG     H23 3772   2.742   1.882   1.452 -0.2786  0.4813 -0.4103
  165DG      C1 3773   2.925   5.196   1.862 -0.6515  0.1227  0.1088
  165DG      C2 3774   2.440   4.729   1.904 -0.1324  0.3120 -0.0115
  165DG      H3 3775   2.962   5.278   1.800  2.1843 -0.4680  0.9067
  165DG      H4 3776   2.998   5.134   1.913 -1.0951 -0.3992  0.1160
  165DG      H5 3777   2.864   5.229   1.946 -1.5925 -0.4110 -0.3395
  165DG      H6 3778   2.345   4.775   1.877 -1.3925 -1.7054  0.7235
  165DG      H7 3779   2.424   4.625   1.878 -0.4673  0.0160  1.2786
  165DG      H8 3780   2.453   4.761   2.008 -2.5492  3.1459 -0.4447
  165DG      O9 3781   2.840   5.109   1.787 -0.3045  0.3063 -0.2625
  165DG     O10 3782   2.542   4.786   1.825 -0.2016  0.6167  0.7312
  165DG     C11 3783   2.905   5.049   1.675  0.0377  0.3537 -0.2603
  165DG     C12 3784   2.547   4.753   1.688 -1.2932 -0.4981 -0.8676
  165DG     H13 3785   2.947   4.958   1.715  0.0032  1.5458  2.7127
  165DG     H14 3786   2.969   5.126   1.631 -1.7534  0.6931 -2.4703
  165DG     H15 3787   2.458   4.799   1.646 -0.9515  0.6894 -0.3341
  165DG     H16 3788   2.559   4.646   1.669  2.0899 -0.2039 -1.1111
  165DG     C17 3789   2.806   5.012   1.575  0.4884 -0.1326  0.2703
  165DG     C18 3790   2.678   4.815   1.627  0.2981 -0.0020  0.6603
  165DG     O19 3791   2.686   4.962   1.634 -0.2565 -0.6522 -0.0908
  165DG     H20 3792   2.856   4.942   1.508  0.1517  0.6766 -0.8672
  165DG     H21 3793   2.775   5.093   1.509 -2.7636 -0.4071  1.2728
  165DG     H22 3794   2.767   4.787   1.684 -0.2065 -0.6661  1.1338
  165DG     H23 3795   2.690   4.780   1.525 -0.1379  2.0947 -0.1604
  166DG      C1 3796   3.655   2.283   2.327  0.1457  0.7330  0.6299
  166DG      C2 3797   3.202   2.330   2.638  0.4321 -0.1716  0.9088
  166DG      H3 3798   3.761   2.308   2.323  0.4973 -0.8170 -0.6176
  166DG      H4 3799   3.622   2.220   2.409  0.9260 -1.4774 -0.6620
  166DG      H5 3800   3.590   2.371   2.314 -0.4644  0.1159 -0.7290
  166DG      H6 3801   3.150   2.264   2.707  1.6684 -0.2719  1.7740
  166DG      H7 3802   3.305   2.306   2.665  0.7573 -0.5821 -0.5689
  166DG      H8 3803   3.165   2.432   2.648 -0.8827 -0.4974 -0.3338
  166DG      O9 3804   3.660   2.201   2.206  0.2577 -0.2776 -0.1458
  166DG     O10 3805   3.189   2.288   2.507  0.2485 -0.3816  0.3425
  166DG     C11 3806   3.550   2.113   2.182 -0.2310 -0.1264 -0.1601
  166DG     C12 3807   3.262   2.371   2.407  0.3016  0.8048 -0.5076
  166DG     H13 3808   3.546   2.046   2.268  0.1380 -0.1679 -0.1753
  166DG     H14 3809   3.585   2.059   2.094 -1.2980 -1.9736  0.4855
  166DG     H15 3810   3.363   2.390   2.442  0.3394 -2.2141  1.3532
  166DG     H16 3811   3.209   2.466   2.400 -3.6010 -1.2773 -3.6710
  166DG     C17 3812   3.417   2.172   2.149 -0.6285 -0.3499  0.0437
  166DG     C18 3813   3.274   2.315   2.264  0.3331  0.4430 -0.7750
  166DG     O19 3814   3.361   2.205   2.271  0.2771  0.3762 -0.5022
  166DG     H20 3815   3.349   2.102   2.101 -2.9400  0.5116  1.8534
  166DG     H21 3816   3.427   2.260   2.085 -3.9330  0.8523  0.9358
  166DG     H22 3817   3.179   2.296   2.213  0.2898  1.5359 -1.1181
  166DG     H23 3818   3.317   2.397   2.208  1.2672  0.2327 -0.3738
  167DG      C1 3819   3.962   3.978   3.888  0.3111 -0.0097 -0.1315
  167DG      C2 3820   3.483   4.120   3.520  0.4356  0.2056  0.6855
  167DG      H3 3821   4.043   3.944   3.953 -0.7127 -0.8626  0.7439
  167DG      H4 3822   3.883   4.025   3.946 -1.3899 -0.0736 -2.2674
  167DG      H5 3823   4.000   4.058   3.825 -0.0282  1.2429  1.1975
  167DG      H6 3824   3.486   4.191   3.437 -0.2515 -1.5169 -0.9014
  167DG      H7 3825   3.445   4.024   3.484  1.2168 -0.1193  0.7050
  167DG      H8 3826   3.428   4.157   3.606 -1.5593 -0.5559 -0.1981
  167DG      O9 3827   3.908   3.873   3.808 -0.3008 -0.3492 -0.4193
  167DG     O10 3828   3.622   4.101   3.552 -0.1961 -0.1320  0.4007
  167DG     C11 3829   3.993   3.815   3.705 -0.0918  0.0163 -0.8287
  167DG     C12 3830   3.705   4.094   3.443 -0.0804 -0.4125 -0.0052
  167DG     H13 3831   3.946   3.721   3.676  1.9142 -0.7571 -1.6880
  167DG     H14 3832   4.097   3.801   3.734 -0.0533  1.3227 -0.2436
  167DG     H15 3833   3.704   4.186   3.384  0.7101  0.3659  1.1351
  167DG     H16 3834   3.660   4.014   3.385  0.5239 -0.0929 -0.9284
  167DG     C17 3835   3.982   3.912   3.589 -0.6551 -0.0247 -0.0838
  167DG     C18 3836   3.846   4.062   3.491  0.1349  0.2486  0.3266
  167DG     O19 3837   3.854   3.940   3.562  0.0657  0.3283  0.1165
  167DG     H20 3838   4.024   3.864   3.501  1.2437  0.7038  0.3771
  167DG     H21 3839   4.047   3.997   3.608 -2.6829  1.3946  0.9247
  167DG     H22 3840   3.909   4.059   3.402 -0.1506 -1.5344  0.1465
  167DG     H23 3841   3.890   4.139   3.553 -0.1533 -1.0504  2.2358
  168DG      C1 3842   4.995   4.723   3.614  0.5915 -0.5918 -0.4156
  168DG      C2 3843   4.478   4.618   3.225  0.9432  0.6089  0.2853
  168DG      H3 3844   5.056   4.809   3.643  2.1823 -0.8598 -2.7081
  168DG      H4 3845   5.037   4.692   3.518  0.8544  1.6930 -1.0991
  168DG      H5 3846   4.994   4.646   3.691  1.1067  0.2633  0.4698
  168DG      H6 3847   4.384   4.662   3.192  0.8319  0.2472  0.1170
  168DG      H7 3848   4.548   4.620   3.141  0.4748 -2.9127 -0.3181
  168DG      H8 3849   4.467   4.512   3.247 -0.1402  0.9027  1.2694
  168DG      O9 3850   4.856   4.758   3.597 -0.6780 -0.2648  0.6442
  168DG     O10 3851   4.507   4.676   3.353 -1.0923  0.2704  0.3833
  168DG     C11 3852   4.796   4.793   3.717  0.2320 -0.3750  0.0305
  168DG     C12 3853   4.427   4.634   3.465 -0.1267 -0.4249 -0.1973
  168DG     H13 3854   4.834   4.872   3.782  2.6134  0.5614 -2.3242
  168DG     H14 3855   4.789   4.702   3.777 -0.6541  0.6039  1.4740
  168DG     H15 3856   4.468   4.537   3.492 -0.7059 -1.0561 -1.5010
  168DG     H16 3857   4.321   4.645   3.441 -0.1403  2.0603  0.6475
  168DG     C17 3858   4.653   4.838   3.685 -0.0521  0.1641  0.7141
  168DG     C18 3859   4.466   4.726   3.584  0.7849  0.2258  0.0783
  168DG     O19 3860   4.605   4.736   3.596 -0.2690 -0.0646  0.1570
  168DG     H20 3861   4.646   4.933   3.633  0.8278  0.9193  1.9092
  168DG     H21 3862   4.593   4.846   3.776 -0.7972 -0.4478  0.2952
  168DG     H22 3863   4.425   4.825   3.564 -0.8094 -0.4723 -0.2576
  168DG     H23 3864   4.418   4.676   3.668  0.9295 -1.8174 -0.9932
  169DG      C1 3865   1.349   5.240   1.174  0.1195  0.7797 -0.0281
  169DG      C2 3866   1.948   4.725   1.210  0.1125  0.2376 -0.0247
  169DG      H3 3867   1.401   5.316   1.115 -0.8609  1.2268 -0.3274
  169DG      H4 3868   1.369   5.263   1.279  1.0581  2.3682 -0.5240
  169DG      H5 3869   1.242   5.239   1.156  0.4132 -1.6620 -2.1212
  169DG      H6 3870   1.966   4.619   1.196 -0.0610  0.0432  1.1738
  169DG      H7 3871   2.029   4.791   1.177  0.4114 -0.3144 -0.4051
  169DG      H8 3872   1.938   4.729   1.318  1.2270 -2.1168  0.2105
  169DG      O9 3873   1.396   5.109   1.148  0.3240  0.4047  0.1008
  169DG     O10 3874   1.837   4.776   1.139 -0.0720  0.3181  0.2271
  169DG     C11 3875   1.436   5.080   1.014 -0.4107  0.5463 -0.6238
  169DG     C12 3876   1.709   4.710   1.139  0.2179 -0.0032 -0.2470
  169DG     H13 3877   1.527   5.138   1.004  0.3423 -0.4041  0.5847
  169DG     H14 3878   1.366   5.132   0.947 -0.8351  2.1771  0.9961
  169DG     H15 3879   1.649   4.712   1.229 -0.8860  0.1832 -0.9665
  169DG     H16 3880   1.723   4.603   1.124  1.5759 -0.0563  1.1519
  169DG     C17 3881   1.474   4.939   0.973  0.0515  0.0718 -0.7535
  169DG     C18 3882   1.631   4.758   1.020  0.1464 -0.3517  0.0672
  169DG     O19 3883   1.582   4.890   1.057  0.0044  0.6277 -0.1933
  169DG     H20 3884   1.495   4.928   0.867 -1.8160  0.1778 -1.1785
  169DG     H21 3885   1.388   4.872   0.986  1.2633 -1.7032 -1.4815
  169DG     H22 3886   1.681   4.752   0.924  0.1176  1.0849 -0.0478
  169DG     H23 3887   1.550   4.686   1.004 -0.4837  0.4524 -0.4118
  170DG      C1 3888   0.089   3.112   5.474 -0.0507 -0.5555 -0.0614
  170DG      C2 3889  -0.018   2.802   4.769  0.7419 -0.0171 -0.3604
  170DG      H3 3890   0.108   3.179   5.557  0.5496 -0.3187 -0.3801
  170DG      H4 3891   0.057   3.017   5.517  0.4244  0.2438  2.2100
  170DG      H5 3892   0.010   3.146   5.407  1.7198 -0.9957 -2.5127
  170DG      H6 3893  -0.122   2.817   4.739  0.2845 -0.4205  0.9784
  170DG      H7 3894   0.039   2.797   4.676  1.4867  0.2993  0.0734
  170DG      H8 3895  -0.018   2.702   4.810  0.8643 -1.4836 -3.6311
  170DG      O9 3896   0.214   3.087   5.406 -0.1712 -0.0396 -0.5482
  170DG     O10 3897   0.035   2.908   4.846  0.6544  0.4760 -0.2990
  170DG     C11 3898   0.256   3.163   5.296  0.2418 -0.4841 -0.4261
  170DG     C12 3899  -0.023   2.942   4.970 -0.1253  0.3707  0.1408
  170DG     H13 3900   0.333   3.097   5.256  0.4454 -0.7311  0.3523
  170DG     H14 3901   0.293   3.261   5.324  0.3913  0.0098 -2.2354
  170DG     H15 3902  -0.006   2.855   5.033 -0.7325  0.0636 -0.1079
  170DG     H16 3903  -0.131   2.957   4.960  0.1633  3.2039  0.5197
  170DG     C17 3904   0.142   3.198   5.201  0.4004  0.3020 -0.1553
  170DG     C18 3905   0.037   3.077   5.021  0.0102 -0.4463  0.0051
  170DG     O19 3906   0.059   3.088   5.158 -0.2405 -0.4059  0.4063
  170DG     H20 3907   0.183   3.254   5.117  1.4206 -0.9932 -0.5733
  170DG     H21 3908   0.082   3.276   5.247  0.9346  1.2722 -1.0904
  170DG     H22 3909   0.129   3.088   4.963 -0.3320  2.4738 -0.1004
  170DG     H23 3910  -0.025   3.161   4.991  0.6909 -0.3546 -1.1873
  171DG      C1 3911   2.035   2.904   3.417 -0.1654  0.0223 -0.7502
  171DG      C2 3912   1.927   3.299   3.963  0.5628  0.2596  0.1441
  171DG      H3 3913   2.002   2.962   3.331  1.9936  0.4857 -1.3101
  171DG      H4 3914   1.959   2.853   3.476  1.9307  0.4689  2.5572
  171DG      H5 3915   2.100   2.822   3.388 -0.4538 -0.4447 -0.0952
  171DG      H6 3916   1.885   3.352   3.879 -1.4861  0.4201  1.2144
  171DG      H7 3917   1.851   3.231   4.001 -0.9770  1.5154 -0.6215
  171DG      H8 3918   1.957   3.370   4.041  0.4279 -0.1815  0.6034
  171DG      O9 3919   2.093   3.005   3.498  0.0600 -0.4936 -0.6842
  171DG     O10 3920   2.027   3.217   3.910  0.4120  0.6880  0.3901
  171DG     C11 3921   2.229   3.049   3.463  0.3748  0.1330 -0.2177
  171DG     C12 3922   2.144   3.299   3.888  0.4350  0.0064 -0.0762
  171DG     H13 3923   2.232   3.122   3.382 -2.2345  2.0744  1.2925
  171DG     H14 3924   2.291   2.964   3.433  0.2130  0.0904 -0.4347
  171DG     H15 3925   2.184   3.322   3.987  1.0626  1.0978 -0.5544
  171DG     H16 3926   2.125   3.390   3.831  1.8708 -0.3622 -1.2139
  171DG     C17 3927   2.290   3.115   3.582 -0.3635  0.4028  0.4164
  171DG     C18 3928   2.243   3.214   3.798 -0.6946 -0.8151 -0.3067
  171DG     O19 3929   2.191   3.183   3.666  0.2543 -0.2777  0.2317
  171DG     H20 3930   2.381   3.175   3.575  0.0831 -0.0805  1.7826
  171DG     H21 3931   2.338   3.032   3.634  2.1570  1.7638  0.4422
  171DG     H22 3932   2.341   3.261   3.792  0.1300 -2.0285  2.3951
  171DG     H23 3933   2.271   3.123   3.852  1.7375 -0.3316 -0.6624
  172DG      C1 3934   2.002   4.388   3.172 -0.2644  0.0467  0.1761
  172DG      C2 3935   1.978   4.414   3.808 -0.1711  0.3685 -0.0421
  172DG      H3 3936   2.036   4.487   3.140 -0.7771  0.4992  1.0084
  172DG      H4 3937   1.975   4.396   3.277 -2.4984 -1.1749 -0.2517
  172DG      H5 3938   1.919   4.362   3.107  1.3168 -0.5016 -1.7118
  172DG      H6 3939   1.970   4.390   3.914 -0.2686 -2.2285 -0.5727
  172DG      H7 3940   2.081   4.443   3.790 -0.0580 -0.1937 -0.3377
  172DG      H8 3941   1.919   4.494   3.763  2.5416  2.4750 -0.1444
  172DG      O9 3942   2.107   4.292   3.146 -0.0056 -0.4089 -0.2911
  172DG     O10 3943   1.974   4.283   3.747  0.1166  0.3292 -0.3578
  172DG     C11 3944   2.071   4.161   3.187  0.2107 -0.4335 -0.3420
  172DG     C12 3945   1.991   4.292   3.605  0.2370  0.0052  0.2875
  172DG     H13 3946   2.131   4.088   3.132 -0.4318  1.0874 -3.2658
  172DG     H14 3947   1.972   4.136   3.147 -0.0547  0.0894 -0.0073
  172DG     H15 3948   2.090   4.324   3.571  0.2033 -0.0386  0.1486
  172DG     H16 3949   1.931   4.374   3.565 -0.1015 -1.5284 -2.5768
  172DG     C17 3950   2.052   4.132   3.337 -0.2722  0.2601  0.3757
  172DG     C18 3951   1.935   4.168   3.539 -0.5828 -0.3892  0.2067
  172DG     O19 3952   1.942   4.189   3.398 -0.3925 -0.1680 -0.4094
  172DG     H20 3953   2.143   4.160   3.389 -1.1630  1.9338  1.1223
  172DG     H21 3954   2.048   4.026   3.359 -1.2846  0.1022 -0.4866
  172DG     H22 3955   1.984   4.079   3.578  0.0644 -0.1568 -0.0509
  172DG     H23 3956   1.833   4.148   3.569 -0.3793  1.6014  2.6718
  173DG      C1 3957   3.758   2.760   0.434  0.0164  0.0503 -0.4134
  173DG      C2 3958   3.416   2.834   0.854  0.0216 -0.5314  0.1595
  173DG      H3 3959   3.785   2.655   0.424 -2.5550 -0.7224 -0.0255
  173DG      H4 3960   3.806   2.795   0.342 -0.6447  2.3895  0.0701
  173DG      H5 3961   3.649   2.766   0.432  0.0055  0.3153  0.6052
  173DG      H6 3962   3.319   2.784   0.861  0.2141 -0.9230  0.0585
  173DG      H7 3963   3.426   2.863   0.749 -0.7814  0.4028  0.3307
  173DG      H8 3964   3.489   2.755   0.875  0.1075 -0.4544  0.1499
  173DG      O9 3965   3.799   2.818   0.554  0.2614 -0.0300  0.1247
  173DG     O10 3966   3.432   2.950   0.939  0.3710  0.1537 -0.6524
  173DG     C11 3967   3.779   2.961   0.548 -0.8996 -0.3889  0.0567
  173DG     C12 3968   3.564   2.961   0.996 -0.0124  0.2452 -0.0956
  173DG     H13 3969   3.686   2.989   0.499 -0.8205 -0.2459 -0.0105
  173DG     H14 3970   3.856   3.009   0.488  1.0147 -1.5439  1.4835
  173DG     H15 3971   3.590   2.864   1.038 -2.5504 -1.1170 -1.3904
  173DG     H16 3972   3.549   3.021   1.086  0.5955  1.0501 -0.5212
  173DG     C17 3973   3.793   3.009   0.695 -0.3269 -0.0425  0.2107
  173DG     C18 3974   3.666   3.031   0.900 -0.3429 -0.4824  0.0140
  173DG     O19 3975   3.693   2.947   0.782 -0.5439 -0.5055  0.0433
  173DG     H20 3976   3.793   3.118   0.700  1.6623  0.0462 -0.7880
  173DG     H21 3977   3.892   2.982   0.732 -0.8692 -0.2937  1.5467
  173DG     H22 3978   3.634   3.130   0.868 -1.2166 -0.9051 -0.4473
  173DG     H23 3979   3.764   3.043   0.947 -0.1595  0.7290 -0.6541
  174DG      C1 3980   2.879   5.216   4.854  0.1038  0.4885 -0.4912
  174DG      C2 3981   3.487   5.512   4.611  0.2618 -0.2428  0.0220
  174DG      H3 3982   2.806   5.172   4.786  2.9654 -2.5253 -1.9105
  174DG      H4 3983   2.835   5.230   4.953  3.5503 -0.1778  1.3004
  174DG      H5 3984   2.939   5.126   4.865  0.0514  0.6139  1.1682
  174DG      H6 3985   3.546   5.568   4.539  2.6559  0.6650  2.5386
  174DG      H7 3986   3.560   5.495   4.690  0.8299  0.6370 -0.2995
  174DG      H8 3987   3.459   5.416   4.567  1.6038 -1.0015  0.7565
  174DG      O9 3988   2.945   5.322   4.795 -0.5865  0.1030  0.3722
  174DG     O10 3989   3.376   5.585   4.674  0.5268 -0.6351  0.2421
  174DG     C11 3990   2.894   5.450   4.818  0.1867 -0.1286  0.2990
  174DG     C12 3991   3.325   5.518   4.786  0.4704 -0.6883 -0.3075
  174DG     H13 3992   2.900   5.478   4.924  0.9289  0.7773  0.0319
  174DG     H14 3993   2.788   5.452   4.793  0.0279 -0.7826  0.8726
  174DG     H15 3994   3.392   5.534   4.869 -0.7715 -0.4644  0.6815
  174DG     H16 3995   3.313   5.411   4.765  1.3394 -0.8875  0.1819
  174DG     C17 3996   2.970   5.557   4.737 -0.1450 -0.0263 -0.3462
  174DG     C18 3997   3.183   5.577   4.818  0.6310  1.0064 -0.1520
  174DG     O19 3998   3.100   5.531   4.713  0.1292  0.2462  0.3520
  174DG     H20 3999   2.945   5.657   4.774  0.8227 -0.1955  0.8330
  174DG     H21 4000   2.935   5.570   4.635  2.0863  1.9977 -0.9507
  174DG     H22 4001   3.153   5.550   4.919  2.2876 -0.9745 -0.1268
  174DG     H23 4002   3.208   5.683   4.816  2.8018  0.5761  0.7442
  175DG      C1 4003   3.650   2.330   3.788  0.1066  0.1318  0.4419
  175DG      C2 4004   4.033   2.603   4.301 -0.3151  0.3945 -0.2028
  175DG      H3 4005   3.611   2.229   3.805 -0.4421  0.0293 -1.2317
  175DG      H4 4006   3.758   2.338   3.798  0.3725 -1.3577 -0.8195
  175DG      H5 4007   3.624   2.356   3.686  2.9053 -2.6993 -1.1821
  175DG      H6 4008   4.096   2.531   4.354  0.8165  2.7560  1.9116
  175DG      H7 4009   4.095   2.675   4.248  0.3664 -1.3866 -1.9173
  175DG      H8 4010   3.982   2.659   4.381  1.6492  1.0671  0.6512
  175DG      O9 4011   3.595   2.413   3.893 -0.0765 -0.2016  0.3742
  175DG     O10 4012   3.943   2.547   4.210 -0.3415 -0.0699 -0.2066
  175DG     C11 4013   3.635   2.546   3.873  0.9175 -0.1475 -0.4495
  175DG     C12 4014   3.818   2.505   4.259  0.8075 -0.0055 -0.4850
  175DG     H13 4015   3.577   2.589   3.791  1.2460  1.6622  0.2104
  175DG     H14 4016   3.742   2.565   3.860  1.0217  0.2126  0.8008
  175DG     H15 4017   3.784   2.577   4.333  0.5335  1.1589 -1.7008
  175DG     H16 4018   3.834   2.412   4.314 -0.5049  0.2813  0.4244
  175DG     C17 4019   3.597   2.624   3.999 -0.1125  0.2605  0.2244
  175DG     C18 4020   3.709   2.480   4.153 -0.4565  0.1721 -0.6182
  175DG     O19 4021   3.693   2.612   4.103  0.1148 -0.2232  0.3014
  175DG     H20 4022   3.499   2.588   4.030  0.6062 -0.5991  1.6266
  175DG     H21 4023   3.583   2.730   3.978  0.9146  0.3520 -0.0438
  175DG     H22 4024   3.745   2.401   4.087 -0.5105  2.0415 -3.0474
  175DG     H23 4025   3.625   2.442   4.210 -0.2108  2.2636  1.2899
  176DG      C1 4026   5.092   3.790   4.456  0.2154 -0.1150 -0.3737
  176DG      C2 4027   4.790   4.241   4.827 -0.0680  0.2658 -0.5099
  176DG      H3 4028   5.040   3.811   4.362  1.8638 -1.0446 -1.5403
  176DG      H4 4029   5.059   3.694   4.495  1.2686 -0.6108 -0.6887
  176DG      H5 4030   5.199   3.789   4.434  0.1895 -0.5185 -0.4880
  176DG      H6 4031   4.862   4.323   4.817  0.9656 -0.3701  1.3512
  176DG      H7 4032   4.715   4.246   4.748  1.7308 -2.9596 -2.6312
  176DG      H8 4033   4.747   4.270   4.923 -1.0113 -0.2253 -0.7679
  176DG      O9 4034   5.064   3.882   4.560 -0.2911 -0.3533  0.0390
  176DG     O10 4035   4.836   4.109   4.825 -0.2077  0.0052  0.1741
  176DG     C11 4036   5.172   3.878   4.659  0.1629 -0.2421 -0.3954
  176DG     C12 4037   4.916   4.079   4.940 -0.3099 -0.2822  0.5274
  176DG     H13 4038   5.264   3.916   4.615  0.6984 -1.8699 -0.7296
  176DG     H14 4039   5.188   3.777   4.697 -0.0593 -0.3989 -0.7136
  176DG     H15 4040   4.863   4.083   5.035  0.8275  1.1804  1.1371
  176DG     H16 4041   5.005   4.143   4.944  0.2309 -0.5701 -3.3563
  176DG     C17 4042   5.137   3.958   4.784 -0.5227 -0.7647  0.1543
  176DG     C18 4043   4.951   3.930   4.932  0.3666  0.1732  0.0874
  176DG     O19 4044   5.011   3.900   4.808 -0.4406  0.3238  0.6099
  176DG     H20 4045   5.121   4.064   4.765 -1.1343 -0.6135  1.4341
  176DG     H21 4046   5.218   3.943   4.856  3.1088 -2.6938 -3.8247
  176DG     H22 4047   5.000   3.888   5.020 -0.7948  0.7877  1.0512
  176DG     H23 4048   4.860   3.871   4.930 -0.0988  0.8943 -1.3630
  177DG      C1 4049   2.000   4.137   2.056  0.1218 -0.0342  0.7612
  177DG      C2 4050   2.446   3.915   1.679  0.4433 -0.4365 -0.2855
  177DG      H3 4051   1.995   4.029   2.042 -1.0803  0.2823 -1.8323
  177DG      H4 4052   1.922   4.192   2.003 -0.5456 -0.9160  0.8128
  177DG      H5 4053   1.977   4.157   2.161 -1.6298  0.1375  0.3777
  177DG      H6 4054   2.458   3.827   1.743 -0.8803 -0.8829 -0.6271
  177DG      H7 4055   2.360   3.925   1.614  0.3080  0.2496 -0.0088
  177DG      H8 4056   2.534   3.915   1.614 -0.1357 -1.3320 -1.1017
  177DG      O9 4057   2.119   4.185   1.988  0.4806 -0.2237 -0.3637
  177DG     O10 4058   2.448   4.034   1.758 -0.3099 -0.4409 -0.0454
  177DG     C11 4059   2.143   4.327   2.006 -0.3499 -0.3767 -0.5327
  177DG     C12 4060   2.443   4.155   1.693  0.5821 -0.2344 -0.2521
  177DG     H13 4061   2.167   4.339   2.111  1.2397 -0.2343 -0.8980
  177DG     H14 4062   2.054   4.389   1.992  1.1630  1.5043 -2.4095
  177DG     H15 4063   2.361   4.160   1.621  1.2008  2.2112 -0.8936
  177DG     H16 4064   2.524   4.172   1.622  0.1900 -1.5720 -1.0600
  177DG     C17 4065   2.266   4.376   1.918 -0.0537 -0.0149 -0.5549
  177DG     C18 4066   2.428   4.271   1.790 -0.5246 -0.5186  0.4231
  177DG     O19 4067   2.326   4.253   1.886  0.3492 -0.5516  0.0605
  177DG     H20 4068   2.339   4.439   1.969 -0.8040 -0.9234  1.8045
  177DG     H21 4069   2.226   4.428   1.831 -0.3903  0.0734 -0.3490
  177DG     H22 4070   2.523   4.285   1.841 -0.1432 -0.1484 -0.3789
  177DG     H23 4071   2.413   4.359   1.727 -0.9023 -0.7154  0.2381
  178DG      C1 4072   3.649   4.455   3.583 -0.2564 -0.5304 -0.0370
  178DG      C2 4073   3.545   4.722   3.011  0.5285 -0.7086  0.5628
  178DG      H3 4074   3.713   4.389   3.641 -0.2224 -0.0567  0.4798
  178DG      H4 4075   3.545   4.421   3.590 -0.0550 -0.8295  1.8932
  178DG      H5 4076   3.663   4.557   3.618 -1.6200  0.0490 -1.0474
  178DG      H6 4077   3.548   4.825   3.046 -1.7012  0.4655 -2.3444
  178DG      H7 4078   3.553   4.721   2.903  1.1665 -0.9824  0.6049
  178DG      H8 4079   3.447   4.683   3.036  1.1578 -1.9586  1.2130
  178DG      O9 4080   3.691   4.455   3.452 -0.0060  0.2648 -0.0185
  178DG     O10 4081   3.647   4.642   3.071  0.1665 -0.0877  0.1975
  178DG     C11 4082   3.833   4.461   3.440 -0.5782 -0.1906 -0.4084
  178DG     C12 4083   3.774   4.668   3.030  0.2304  0.2717 -0.5116
  178DG     H13 4084   3.875   4.369   3.480 -0.2645  0.6677  1.3224
  178DG     H14 4085   3.862   4.548   3.499 -2.5057 -0.3659  0.8832
  178DG     H15 4086   3.779   4.774   3.058 -5.3784  0.5411  0.7717
  178DG     H16 4087   3.779   4.669   2.921  1.6160  0.2479 -0.4691
  178DG     C17 4088   3.889   4.471   3.297 -0.5226  0.0743 -0.3533
  178DG     C18 4089   3.875   4.583   3.104 -0.0219  0.2598  0.6398
  178DG     O19 4090   3.821   4.575   3.230 -0.1352  0.1184 -0.4209
  178DG     H20 4091   3.862   4.374   3.254  2.2109 -0.6798 -0.5042
  178DG     H21 4092   3.997   4.476   3.308 -0.5089  0.3455 -0.5996
  178DG     H22 4093   3.872   4.485   3.056 -0.9863 -0.3273  1.8453
  178DG     H23 4094   3.978   4.618   3.113  0.3547 -0.6764  0.0836
  179DG      C1 4095   2.894   0.530   4.076 -1.0479 -0.1499 -0.4599
  179DG      C2 4096   3.315   0.087   4.338  0.5729  0.6889 -0.3804
  179DG      H3 4097   2.840   0.568   3.990 -1.2126 -3.4644 -1.9724
  179DG      H4 4098   2.983   0.586   4.106 -0.9829 -0.5231  0.0545
  179DG      H5 4099   2.840   0.534   4.170 -0.2486  0.2666 -0.0035
  179DG      H6 4100   3.289   0.036   4.431  1.1439  0.4337 -0.3514
  179DG      H7 4101   3.396   0.035   4.287  0.5341  2.2502 -2.1022
  179DG      H8 4102   3.353   0.186   4.364 -3.8707  2.2403  1.0541
  179DG      O9 4103   2.954   0.401   4.051  0.3011 -0.9385  0.3991
  179DG     O10 4104   3.208   0.101   4.249  0.1456 -0.5584 -0.1342
  179DG     C11 4105   2.855   0.302   4.020  0.1348 -0.2495 -0.0242
  179DG     C12 4106   3.122  -0.022   4.243 -0.3639  0.1525  0.3196
  179DG     H13 4107   2.792   0.315   3.932 -0.4962  0.8330  0.5657
  179DG     H14 4108   2.784   0.292   4.102  0.5613  2.4322  0.7690
  179DG     H15 4109   3.065  -0.032   4.335 -0.6761  0.5055  0.1666
  179DG     H16 4110   3.182  -0.111   4.222 -1.5975 -0.1615 -2.3907
  179DG     C17 4111   2.911   0.163   3.997  0.5025  0.2118 -0.4252
  179DG     C18 4112   3.036   0.001   4.118 -0.3863  0.3632  0.5417
  179DG     O19 4113   2.989   0.140   4.114  0.4418 -0.3774  0.0788
  179DG     H20 4114   2.963   0.153   3.902  0.8079  1.2228 -0.3737
  179DG     H21 4115   2.820   0.102   3.992  0.4051  0.3532 -0.4000
  179DG     H22 4116   3.094  -0.026   4.030 -1.2787 -0.2846  0.1446
  179DG     H23 4117   2.948  -0.063   4.118  0.9351 -1.5172  0.9199
  180DG      C1 4118   3.258   3.155   4.252 -0.4016  0.4499  0.3996
  180DG      C2 4119   2.718   2.805   4.646 -0.3266  0.2257 -0.3553
  180DG      H3 4120   3.309   3.061   4.273 -1.4403 -0.3485 -0.5046
  180DG      H4 4121   3.313   3.232   4.305  2.1091  0.2738 -1.7134
  180DG      H5 4122   3.277   3.190   4.150 -2.0921  1.8892  0.5328
  180DG      H6 4123   2.764   2.847   4.735 -0.8057 -1.3775  0.7072
  180DG      H7 4124   2.611   2.821   4.662 -0.1050  0.0853  1.5922
  180DG      H8 4125   2.738   2.699   4.628 -1.1761 -0.0597  0.2673
  180DG      O9 4126   3.114   3.143   4.275 -0.1124  0.7106  0.5850
  180DG     O10 4127   2.755   2.880   4.537 -0.0842  0.3368 -0.5561
  180DG     C11 4128   3.059   3.065   4.171 -0.4133 -0.0924 -0.0620
  180DG     C12 4129   2.709   2.837   4.410 -0.2306 -0.5458  0.1668
  180DG     H13 4130   3.101   2.965   4.166  0.5803  0.3054  0.0349
  180DG     H14 4131   3.089   3.122   4.082  1.3131  0.6049  0.9142
  180DG     H15 4132   2.602   2.821   4.416 -0.1822 -0.4572  2.1331
  180DG     H16 4133   2.760   2.745   4.382 -2.3415 -1.7797  0.1560
  180DG     C17 4134   2.907   3.058   4.179 -0.6531 -0.2263 -0.1883
  180DG     C18 4135   2.737   2.952   4.300  0.1223 -0.1387  0.2191
  180DG     O19 4136   2.873   2.966   4.283  0.0598 -0.1962  0.7891
  180DG     H20 4137   2.872   3.013   4.086 -2.7602  2.6547 -0.9335
  180DG     H21 4138   2.869   3.160   4.187  0.9735  0.4441 -0.6533
  180DG     H22 4139   2.674   2.936   4.212 -0.2750 -0.0928  0.4897
  180DG     H23 4140   2.709   3.047   4.345 -1.3848 -1.0806  1.4211
  181DG      C1 4141   3.706   4.127   3.055 -0.6080 -0.4673 -0.5465
  181DG      C2 4142   3.635   3.420   2.902  0.5862 -0.7795  0.1024
  181DG      H3 4143   3.725   4.228   3.019  1.2502 -0.4203  0.4040
  181DG      H4 4144   3.792   4.111   3.121 -0.1254  1.6647 -0.5844
  181DG      H5 4145   3.612   4.136   3.109  0.0448 -1.7265  0.8665
  181DG      H6 4146   3.713   3.390   2.973  1.5284 -0.3253 -0.7157
  181DG      H7 4147   3.541   3.429   2.956 -0.3073  3.1451 -1.7474
  181DG      H8 4148   3.622   3.344   2.826 -0.1676 -1.5148  0.9433
  181DG      O9 4149   3.690   4.018   2.959  0.1974 -0.7181 -0.0935
  181DG     O10 4150   3.661   3.548   2.846  0.1067  0.0304  0.0640
  181DG     C11 4151   3.795   4.017   2.865  0.3697  0.4436 -0.3019
  181DG     C12 4152   3.780   3.558   2.770 -0.0708  0.6530  0.5236
  181DG     H13 4153   3.888   4.001   2.920 -0.2168  0.7506  0.8074
  181DG     H14 4154   3.814   4.115   2.820  0.8093  0.5029  0.0019
  181DG     H15 4155   3.786   3.478   2.696  0.2348  1.8053 -0.7360
  181DG     H16 4156   3.873   3.551   2.826  0.0192 -0.7951  0.2347
  181DG     C17 4157   3.778   3.923   2.744 -0.3611  0.3498 -0.3028
  181DG     C18 4158   3.785   3.693   2.701  0.4014 -0.2731 -0.0324
  181DG     O19 4159   3.777   3.798   2.802 -0.3995 -0.2053  0.5680
  181DG     H20 4160   3.870   3.930   2.687 -0.3619 -0.0760 -0.3633
  181DG     H21 4161   3.693   3.939   2.678  1.0486 -2.1614 -2.9377
  181DG     H22 4162   3.881   3.705   2.650  0.9185  0.2092  1.0445
  181DG     H23 4163   3.708   3.695   2.623  1.6035 -0.6464 -1.2820
  182DG      C1 4164   2.773   4.811   4.927 -0.4655 -0.1201 -0.4611
  182DG      C2 4165   3.614   4.663   4.853  0.4315 -0.2944 -0.3412
  182DG      H3 4166   2.725   4.771   5.015  0.9978 -1.1253 -0.0758
  182DG      H4 4167   2.703   4.824   4.845  1.7845  3.7224 -2.0934
  182DG      H5 4168   2.805   4.913   4.951  1.0820 -0.7641  0.3662
  182DG      H6 4169   3.612   4.592   4.935 -0.0751 -1.1228 -1.0582
  182DG      H7 4170   3.636   4.606   4.763  0.3131 -1.3402  0.2770
  182DG      H8 4171   3.684   4.743   4.877  0.5051 -0.1163 -1.1187
  182DG      O9 4172   2.883   4.733   4.886  0.4533 -0.4812  0.2621
  182DG     O10 4173   3.489   4.728   4.838  0.0900  0.4571  0.3370
  182DG     C11 4174   2.968   4.804   4.792  0.3535 -0.3653  0.2470
  182DG     C12 4175   3.375   4.646   4.818 -0.7608 -0.3861  0.3317
  182DG     H13 4176   3.030   4.888   4.823  0.7465 -0.2647 -0.7632
  182DG     H14 4177   2.899   4.848   4.720  1.2012  1.3629  0.4523
  182DG     H15 4178   3.365   4.581   4.905  0.4311 -1.2497 -0.1458
  182DG     H16 4179   3.392   4.582   4.732 -1.6804  0.5616 -0.5938
  182DG     C17 4180   3.045   4.726   4.685 -0.0769  0.3838 -0.0756
  182DG     C18 4181   3.253   4.738   4.791 -0.1558 -0.6341 -0.2013
  182DG     O19 4182   3.152   4.649   4.753  0.4095  0.1711 -0.4646
  182DG     H20 4183   3.087   4.796   4.613  2.7211  0.9036  1.8907
  182DG     H21 4184   2.976   4.653   4.644 -0.6504 -0.3202  2.0194
  182DG     H22 4185   3.232   4.799   4.879 -1.8859 -0.9113 -0.3981
  182DG     H23 4186   3.287   4.815   4.721  0.9117 -0.5281  0.4120
  183DG      C1 4187   4.705   0.402   3.437 -0.2940 -0.0896 -0.2180
  183DG      C2 4188   3.895   0.544   3.320  0.4800 -0.6695  0.2784
  183DG      H3 4189   4.802   0.359   3.415  0.1251  1.5922 -1.9554
  183DG      H4 4190   4.687   0.396   3.544 -0.1761  0.9685 -0.1321
  183DG      H5 4191   4.713   0.508   3.411  0.3635  0.4409  1.9626
  183DG      H6 4192   3.811   0.477   3.301  1.2015 -1.9171  1.2983
  183DG      H7 4193   3.883   0.568   3.425  0.6303  0.3280  0.0742
  183DG      H8 4194   3.892   0.641   3.270  0.6749  1.6969  4.4122
  183DG      O9 4195   4.606   0.332   3.374 -0.0700 -0.1954  0.5156
  183DG     O10 4196   4.019   0.473   3.305 -0.5949  0.0679  0.9050
  183DG     C11 4197   4.481   0.375   3.412  0.0855  0.2732  0.2503
  183DG     C12 4198   4.020   0.355   3.385 -0.6085 -0.0266  0.4225
  183DG     H13 4199   4.464   0.477   3.378  2.2282  0.8065  0.6097
  183DG     H14 4200   4.474   0.367   3.520  0.7597  0.6480  0.3306
  183DG     H15 4201   3.932   0.294   3.363 -1.3594  1.4546 -0.8687
  183DG     H16 4202   4.020   0.391   3.488 -0.8469  0.5554  0.2214
  183DG     C17 4203   4.375   0.282   3.352 -0.7471 -0.7036  1.0812
  183DG     C18 4204   4.145   0.271   3.345  0.4716 -0.0710  0.7422
  183DG     O19 4205   4.257   0.314   3.419  0.6619 -0.0743 -0.2002
  183DG     H20 4206   4.391   0.174   3.356  1.0418 -0.6532 -2.0666
  183DG     H21 4207   4.369   0.316   3.249 -2.7779 -2.1583  0.6712
  183DG     H22 4208   4.121   0.167   3.367  0.8072 -0.0363  1.3172
  183DG     H23 4209   4.154   0.275   3.237  2.0397 -2.8210  0.6868
  184DG      C1 4210   1.464   2.891   2.289 -0.2577 -0.3626  0.4997
  184DG      C2 4211   1.619   3.104   1.734  0.5601 -0.6537 -0.7077
  184DG      H3 4212   1.520   2.816   2.233 -1.1513  0.8257 -2.1161
  184DG      H4 4213   1.376   2.838   2.327 -0.9046 -1.0601 -1.8273
  184DG      H5 4214   1.528   2.924   2.371  0.5569 -2.0121  0.5806
  184DG      H6 4215   1.697   3.166   1.690  1.5307  0.3237  2.1587
  184DG      H7 4216   1.652   3.000   1.741  0.4452 -0.6554 -0.1688
  184DG      H8 4217   1.529   3.100   1.673  0.6352  1.0600 -0.9807
  184DG      O9 4218   1.441   3.000   2.201  0.4066 -0.4074 -0.7332
  184DG     O10 4219   1.597   3.158   1.867  0.1745 -0.2909 -0.1483
  184DG     C11 4220   1.371   3.119   2.256  0.1017  0.5381 -0.8444
  184DG     C12 4221   1.553   3.295   1.868 -0.0103  0.0658  0.1837
  184DG     H13 4222   1.423   3.167   2.339 -2.8462  1.9845  0.3258
  184DG     H14 4223   1.274   3.081   2.289  1.1992 -1.5483  0.1644
  184DG     H15 4224   1.543   3.346   1.773  1.5562  0.8551  0.4164
  184DG     H16 4225   1.634   3.346   1.920 -0.3286  0.2644  0.4909
  184DG     C17 4226   1.335   3.216   2.151  1.3484  0.4285  0.5638
  184DG     C18 4227   1.427   3.311   1.954 -0.0891 -0.3723  0.5241
  184DG     O19 4228   1.455   3.235   2.073  0.6777 -0.2004  0.2468
  184DG     H20 4229   1.287   3.306   2.189 -3.7080 -1.2042 -1.1418
  184DG     H21 4230   1.259   3.168   2.091 -0.9172  3.6368  0.6433
  184DG     H22 4231   1.407   3.415   1.977  2.3597  0.5900 -1.2475
  184DG     H23 4232   1.336   3.276   1.907  0.0854  1.3770 -1.2054
  185DG      C1 4233   0.277   2.780   1.824 -0.1605 -0.3620  0.0235
  185DG      C2 4234   0.416   2.991   2.337  0.1498  0.5429  0.2638
  185DG      H3 4235   0.169   2.778   1.817 -0.3327  2.0994  1.1344
  185DG      H4 4236   0.297   2.828   1.919 -0.6684  1.3103 -0.6891
  185DG      H5 4237   0.320   2.679   1.817  2.2456  0.5970 -0.0241
  185DG      H6 4238   0.454   2.897   2.375 -1.1715  0.0529  0.4283
  185DG      H7 4239   0.465   3.060   2.406 -2.2000  1.9667  0.6464
  185DG      H8 4240   0.311   2.995   2.366 -0.5515 -1.2606 -1.7605
  185DG      O9 4241   0.345   2.854   1.721 -0.1993  0.3753 -0.3523
  185DG     O10 4242   0.434   3.012   2.195 -0.3947  0.4149 -0.0976
  185DG     C11 4243   0.485   2.833   1.712 -0.4377  0.4339 -0.0001
  185DG     C12 4244   0.564   3.039   2.147  0.4276  0.1424  0.1589
  185DG     H13 4245   0.518   2.832   1.609 -0.1960 -0.8826  0.0710
  185DG     H14 4246   0.512   2.734   1.748 -0.2323  0.3404 -0.4060
  185DG     H15 4247   0.629   2.960   2.185  1.2968 -0.1337 -1.7448
  185DG     H16 4248   0.602   3.129   2.195 -0.2283  0.0919  0.7786
  185DG     C17 4249   0.557   2.944   1.795 -0.0388 -0.0504 -0.0091
  185DG     C18 4250   0.572   3.053   1.998  0.1506 -0.1194  0.2752
  185DG     O19 4251   0.529   2.938   1.934  0.2094 -0.3286 -0.0579
  185DG     H20 4252   0.511   3.035   1.759 -2.1789 -0.7032  0.9379
  185DG     H21 4253   0.665   2.946   1.781 -0.1819  0.0838 -1.1168
  185DG     H22 4254   0.508   3.139   1.981 -2.0499 -1.9837 -1.5499
  185DG     H23 4255   0.670   3.088   1.969  0.5046 -1.5740 -0.3772
  186DG      C1 4256   2.283   2.440   2.705  0.2272 -1.1624 -1.5410
  186DG      C2 4257   1.727   2.156   2.495  0.0343  0.1150  0.2439
  186DG      H3 4258   2.303   2.522   2.637  1.6153 -2.3629 -2.6544
  186DG      H4 4259   2.305   2.352   2.644  0.1968  0.1035 -3.4524
  186DG      H5 4260   2.355   2.456   2.786 -0.9069 -1.8958 -0.3448
  186DG      H6 4261   1.694   2.138   2.392 -1.9703  2.3255  0.4009
  186DG      H7 4262   1.831   2.128   2.514 -0.2822 -0.8529  0.5801
  186DG      H8 4263   1.670   2.091   2.561  0.5505 -0.2118  0.3674
  186DG      O9 4264   2.151   2.423   2.759  0.2329 -0.1873 -0.1878
  186DG     O10 4265   1.695   2.290   2.514  0.2278 -0.3302 -0.0676
  186DG     C11 4266   2.125   2.297   2.820 -0.4988 -0.3225 -0.4234
  186DG     C12 4267   1.669   2.316   2.656  0.0216  0.5411  0.5275
  186DG     H13 4268   2.177   2.313   2.915 -0.5845  0.6774 -0.5415
  186DG     H14 4269   2.176   2.215   2.769  0.6582 -0.4554  0.8719
  186DG     H15 4270   1.573   2.281   2.692 -0.8712  2.6039  0.2976
  186DG     H16 4271   1.667   2.424   2.669  0.0589  0.6098  0.0029
  186DG     C17 4272   1.980   2.274   2.855  0.1432 -0.6841  0.3490
  186DG     C18 4273   1.766   2.252   2.762 -0.6422  0.4985  0.3950
  186DG     O19 4274   1.906   2.286   2.737 -0.5468 -0.3507 -0.3414
  186DG     H20 4275   1.942   2.352   2.921  1.3671  2.7385 -2.6634
  186DG     H21 4276   1.952   2.179   2.902 -2.7207 -0.5431 -0.8513
  186DG     H22 4277   1.730   2.281   2.861 -0.6288  0.1823  0.4944
  186DG     H23 4278   1.763   2.143   2.767 -0.9064  0.3363 -2.0765
  187DG      C1 4279   3.499   1.547   3.632  0.8037 -0.1867  0.4917
  187DG      C2 4280   4.116   1.167   4.048  0.4501 -0.3459  0.4342
  187DG      H3 4281   3.444   1.553   3.726 -1.4211  0.1019 -0.7582
  187DG      H4 4282   3.431   1.493   3.566 -0.0341  0.9712  0.3714
  187DG      H5 4283   3.528   1.642   3.589 -0.9120 -0.9863 -2.7977
  187DG      H6 4284   4.202   1.158   3.983  0.8768 -1.2347  1.1009
  187DG      H7 4285   4.157   1.164   4.149  1.5394 -1.4471 -0.0146
  187DG      H8 4286   4.078   1.065   4.037  1.7654 -0.7692 -0.3508
  187DG      O9 4287   3.611   1.485   3.677 -0.0378  0.3580 -0.3590
  187DG     O10 4288   4.035   1.274   4.003 -0.4947  0.5530 -0.0361
  187DG     C11 4289   3.686   1.576   3.760 -0.0123 -0.0672  0.2933
  187DG     C12 4290   3.897   1.262   4.044 -0.2033  0.4234  0.1595
  187DG     H13 4291   3.633   1.589   3.854  1.5293 -1.1796  1.3737
  187DG     H14 4292   3.698   1.670   3.706 -0.9704 -0.4180 -0.5741
  187DG     H15 4293   3.886   1.244   4.151 -1.1912  1.8204  0.3163
  187DG     H16 4294   3.852   1.171   4.002 -2.3183  1.3753  0.2248
  187DG     C17 4295   3.831   1.516   3.783  0.3615  0.1795 -0.8042
  187DG     C18 4296   3.816   1.382   3.999 -0.3491  0.4796  0.0078
  187DG     O19 4297   3.822   1.389   3.854 -0.1079  0.3199 -0.4039
  187DG     H20 4298   3.884   1.588   3.845  4.1531 -1.9509 -1.2547
  187DG     H21 4299   3.894   1.503   3.695 -0.6299 -0.7911 -1.4014
  187DG     H22 4300   3.708   1.375   4.016 -0.2808  0.8821  0.6050
  187DG     H23 4301   3.856   1.465   4.056 -1.5927  0.5735  0.7721
  188DG      C1 4302   2.646   4.067   1.338  0.1038  0.5444  0.2249
  188DG      C2 4303   2.138   4.081   0.746 -0.4682 -0.2043  0.2023
  188DG      H3 4304   2.714   4.123   1.273 -0.7363  0.9579 -0.3166
  188DG      H4 4305   2.667   3.961   1.326  1.4897  0.7783  0.3712
  188DG      H5 4306   2.661   4.087   1.444 -1.4077 -0.3990  0.6339
  188DG      H6 4307   2.158   3.974   0.740  1.5938  0.0386  1.6465
  188DG      H7 4308   2.033   4.100   0.723 -0.9477  0.6032  2.7711
  188DG      H8 4309   2.202   4.123   0.669  3.0116 -0.9960  2.4237
  188DG      O9 4310   2.503   4.084   1.307 -0.0484  0.3925  0.3495
  188DG     O10 4311   2.180   4.143   0.867  0.4192 -0.6114 -0.0358
  188DG     C11 4312   2.471   4.216   1.286  0.5174  1.0698 -0.4180
  188DG     C12 4313   2.128   4.091   0.982 -0.4286 -0.4419 -0.7974
  188DG     H13 4314   2.518   4.255   1.196 -1.9261  1.3230 -1.6672
  188DG     H14 4315   2.496   4.261   1.382  0.4311 -2.1868  1.2701
  188DG     H15 4316   2.191   4.005   1.003  0.2527  0.6391  2.0963
  188DG     H16 4317   2.022   4.073   0.965 -0.7525 -0.7699  1.2465
  188DG     C17 4318   2.326   4.240   1.248  0.1725 -0.2923  0.5956
  188DG     C18 4319   2.150   4.178   1.104 -0.1452 -0.7153 -0.6192
  188DG     O19 4320   2.287   4.151   1.146 -0.1118  0.9720 -0.5359
  188DG     H20 4321   2.315   4.340   1.207 -2.7889 -0.9442 -0.4199
  188DG     H21 4322   2.270   4.237   1.342 -1.4490 -0.5184 -0.3471
  188DG     H22 4323   2.131   4.282   1.079 -1.4434 -0.6187  0.6549
  188DG     H23 4324   2.081   4.161   1.186  1.9810  0.8847  1.6465
  189DG      C1 4325   4.968   4.965   1.667  0.0159  0.3437  0.6172
  189DG      C2 4326   5.284   4.739   0.830 -0.3315  0.3333  0.5508
  189DG      H3 4327   5.011   5.060   1.700 -0.5182  0.4006  1.1770
  189DG      H4 4328   4.992   4.887   1.740  0.3495  0.2921  0.4521
  189DG      H5 4329   4.861   4.985   1.658 -0.2008 -1.6468 -2.8265
  189DG      H6 4330   5.307   4.789   0.735  0.7844 -2.5423 -0.8068
  189DG      H7 4331   5.383   4.720   0.872 -0.8620 -2.6285  0.7031
  189DG      H8 4332   5.251   4.639   0.803 -1.9056  1.2845 -1.3419
  189DG      O9 4333   5.003   4.924   1.529  0.7142 -0.1611 -0.3728
  189DG     O10 4334   5.195   4.809   0.919 -0.0108  0.0085  0.3600
  189DG     C11 4335   4.987   5.014   1.422  0.3335  0.6099 -0.1173
  189DG     C12 4336   5.190   4.750   1.052  0.9747 -0.3961 -0.0328
  189DG     H13 4337   5.072   5.082   1.414  0.6405  0.6140  2.5214
  189DG     H14 4338   4.904   5.084   1.432 -0.0853  0.0421  0.4812
  189DG     H15 4339   5.282   4.777   1.105  0.7105 -0.8453  0.6626
  189DG     H16 4340   5.193   4.642   1.042 -0.0559 -0.3534 -0.9410
  189DG     C17 4341   4.956   4.926   1.293 -0.1838 -0.4458  0.1950
  189DG     C18 4342   5.057   4.789   1.116 -0.8138 -0.0045 -1.0674
  189DG     O19 4343   5.080   4.874   1.230  0.2015 -0.7437  0.1732
  189DG     H20 4344   4.905   4.993   1.223 -0.2709  0.4307  1.0689
  189DG     H21 4345   4.882   4.849   1.313 -0.8671 -0.7365 -2.9568
  189DG     H22 4346   4.983   4.834   1.050  0.4284  0.1275 -2.4204
  189DG     H23 4347   5.008   4.699   1.153  0.7870 -0.6771 -0.4862
  190DG      C1 4348   2.124   0.083   5.148  0.1865 -0.6675  0.2442
  190DG      C2 4349   2.758   0.203   5.658 -0.2768  0.0094 -0.1404
  190DG      H3 4350   2.042   0.011   5.156  0.4237 -1.2148 -1.7430
  190DG      H4 4351   2.178   0.064   5.056 -1.8456 -2.9762 -0.6014
  190DG      H5 4352   2.081   0.183   5.145  1.4735 -0.1122  0.0403
  190DG      H6 4353   2.841   0.137   5.686 -0.4526  0.4331  1.4403
  190DG      H7 4354   2.769   0.265   5.569 -1.6486 -1.4624 -1.3980
  190DG      H8 4355   2.750   0.263   5.748 -1.6393 -4.0336  2.7460
  190DG      O9 4356   2.209   0.073   5.267  0.3668 -0.8640 -0.2064
  190DG     O10 4357   2.648   0.123   5.624 -0.2182  0.0606 -0.4719
  190DG     C11 4358   2.251  -0.062   5.286 -1.3105  0.1225 -0.5015
  190DG     C12 4359   2.678   0.033   5.522 -0.0331 -0.3053 -0.5085
  190DG     H13 4360   2.325  -0.091   5.211 -0.8640 -1.0662  0.3591
  190DG     H14 4361   2.175  -0.139   5.282 -2.2013  0.9389  0.1414
  190DG     H15 4362   2.758  -0.030   5.563 -1.2779  0.0197  2.7337
  190DG     H16 4363   2.710   0.084   5.431  0.7901 -0.9485 -0.5951
  190DG     C17 4364   2.337  -0.077   5.419  0.1456  0.2083  0.1031
  190DG     C18 4365   2.565  -0.062   5.487  0.1185  0.1453  0.0046
  190DG     O19 4366   2.463  -0.004   5.407  0.7429 -0.4316 -0.0917
  190DG     H20 4367   2.363  -0.182   5.428  0.7481  0.2296 -1.1847
  190DG     H21 4368   2.279  -0.046   5.506  2.0440 -0.9279  1.8592
  190DG     H22 4369   2.589  -0.162   5.452 -2.1070 -0.9677  1.4000
  190DG     H23 4370   2.512  -0.091   5.578 -2.3888  1.0447 -1.0495
  191DG      C1 4371   0.676   2.883   2.610 -0.0935  0.2132 -0.1594
  191DG      C2 4372   0.475   2.327   3.267 -0.3246 -0.0739  0.3700
  191DG      H3 4373   0.691   2.801   2.541 -2.0481  0.4328 -0.9159
  191DG      H4 4374   0.770   2.911   2.658 -1.0628  0.4070  1.7496
  191DG      H5 4375   0.638   2.969   2.555 -0.0131  0.5283  0.2705
  191DG      H6 4376   0.453   2.260   3.184  1.7675  1.1879 -1.2774
  191DG      H7 4377   0.550   2.276   3.327  0.3151 -2.1375 -2.0263
  191DG      H8 4378   0.393   2.331   3.339 -0.6256 -0.7983  0.0865
  191DG      O9 4379   0.583   2.855   2.720 -0.2584  1.0137  0.1072
  191DG     O10 4380   0.510   2.455   3.225 -0.0463  0.1207  0.7004
  191DG     C11 4381   0.623   2.743   2.797 -0.2445  0.1620  0.1491
  191DG     C12 4382   0.643   2.455   3.159 -0.0013 -0.0538  0.4436
  191DG     H13 4383   0.729   2.752   2.821 -0.1326  1.0449 -0.6120
  191DG     H14 4384   0.627   2.651   2.738  1.5911  0.1385  0.2449
  191DG     H15 4385   0.670   2.364   3.105  2.1849 -0.0841  1.4621
  191DG     H16 4386   0.721   2.453   3.236  1.2265  1.4215 -0.6850
  191DG     C17 4387   0.543   2.725   2.925  0.3337 -0.1639  0.6493
  191DG     C18 4388   0.653   2.585   3.080  0.1100 -0.7387  0.1845
  191DG     O19 4389   0.563   2.596   2.974  0.1843  0.5129 -0.3620
  191DG     H20 4390   0.437   2.725   2.898  0.4493  1.9647  0.0629
  191DG     H21 4391   0.564   2.794   3.007  3.5208 -3.8867  3.3491
  191DG     H22 4392   0.657   2.665   3.154  2.5499 -0.7973  0.1948
  191DG     H23 4393   0.753   2.579   3.038 -0.7452 -2.3020 -1.8125
  192DG      C1 4394   1.157   4.802   0.466 -0.0211  0.0865 -0.2563
  192DG      C2 4395   1.064   5.454   0.654  0.5785 -0.0072 -0.3331
  192DG      H3 4396   1.170   4.845   0.367 -2.8567  0.2865 -0.6201
  192DG      H4 4397   1.069   4.738   0.459  0.7501 -0.8786 -1.9088
  192DG      H5 4398   1.242   4.736   0.488  0.7484  0.7096 -1.2429
  192DG      H6 4399   0.985   5.471   0.727 -0.6454 -1.8167 -1.1552
  192DG      H7 4400   1.150   5.519   0.670 -0.1684  1.4971 -2.0920
  192DG      H8 4401   1.020   5.476   0.557 -0.8379 -1.4535 -0.0717
  192DG      O9 4402   1.133   4.903   0.561 -0.7060  0.2117  0.3866
  192DG     O10 4403   1.111   5.325   0.681 -0.1742 -0.6344  0.3328
  192DG     C11 4404   1.132   4.846   0.693 -0.3467  0.1837  0.5753
  192DG     C12 4405   1.151   5.299   0.811 -0.0567 -0.1770  0.2138
  192DG     H13 4406   1.233   4.827   0.728  0.2589  0.7759 -0.7936
  192DG     H14 4407   1.086   4.747   0.692 -0.2997  0.0807  2.7393
  192DG     H15 4408   1.139   5.383   0.879  0.8147  0.0988  0.0404
  192DG     H16 4409   1.255   5.269   0.816  0.6157  1.7215 -1.1919
  192DG     C17 4410   1.067   4.947   0.787 -0.6385 -0.2514  0.4683
  192DG     C18 4411   1.073   5.170   0.840  0.7142  0.2540  0.0589
  192DG     O19 4412   1.131   5.071   0.763 -0.5124  0.5125  0.8558
  192DG     H20 4413   1.089   4.919   0.890  2.6827 -1.2060 -0.3821
  192DG     H21 4414   0.960   4.943   0.769 -0.6061  1.8271 -0.4297
  192DG     H22 4415   1.086   5.154   0.947 -1.6227  0.3892  0.4269
  192DG     H23 4416   0.964   5.174   0.828  0.5015 -1.6010  0.9837
  193DG      C1 4417   3.682   1.109   0.844  0.5036 -0.2285 -0.0405
  193DG      C2 4418   4.151   1.875   0.832  0.2220 -0.3272  0.3232
  193DG      H3 4419   3.693   1.010   0.889 -0.3884  0.9531  3.1112
  193DG      H4 4420   3.709   1.095   0.740 -0.0727  1.4134 -0.4468
  193DG      H5 4421   3.578   1.141   0.855  0.7539  1.6532 -2.4133
  193DG      H6 4422   4.230   1.887   0.758 -1.3868  0.2265 -1.3859
  193DG      H7 4423   4.060   1.927   0.802  0.7606  0.4758  0.0481
  193DG      H8 4424   4.188   1.933   0.917  2.1645 -1.5001  0.3315
  193DG      O9 4425   3.778   1.190   0.911  0.8504 -0.4331 -0.4986
  193DG     O10 4426   4.140   1.740   0.866  0.8107  0.2411 -0.2258
  193DG     C11 4427   3.808   1.319   0.859 -0.1185 -0.1818 -0.3696
  193DG     C12 4428   4.064   1.724   0.982  0.4000 -0.4309  0.3327
  193DG     H13 4429   3.719   1.379   0.838  0.7804  1.7911  1.1718
  193DG     H14 4430   3.870   1.307   0.770 -0.3207  0.0381 -0.5412
  193DG     H15 4431   3.962   1.762   0.973 -0.1845 -1.8071  0.7921
  193DG     H16 4432   4.122   1.770   1.062  1.1222 -1.5946  0.4962
  193DG     C17 4433   3.889   1.395   0.971 -0.3400  0.8449 -0.2365
  193DG     C18 4434   4.030   1.580   1.009 -0.3205 -0.2084 -1.0162
  193DG     O19 4435   3.946   1.521   0.920  0.3117 -0.0827 -0.1524
  193DG     H20 4436   3.964   1.320   0.995 -2.3903 -0.7711  1.4788
  193DG     H21 4437   3.826   1.407   1.059 -0.7002 -0.0883 -0.3468
  193DG     H22 4438   4.116   1.518   1.033 -0.9531 -0.5077  0.6266
  193DG     H23 4439   3.971   1.576   1.101  0.2922 -0.7782 -0.6462
  194DG      C1 4440   3.267   1.244   1.186 -0.9724 -0.3400 -0.5528
  194DG      C2 4441   3.429   2.009   0.896  0.0639 -0.0777  0.8830
  194DG      H3 4442   3.364   1.264   1.231  0.0956 -1.8413 -2.0523
  194DG      H4 4443   3.262   1.140   1.155  0.0713 -0.4030 -0.5398
  194DG      H5 4444   3.188   1.241   1.262 -0.7221  0.5659 -0.2431
  194DG      H6 4445   3.387   2.043   0.991 -1.5840 -2.7618  1.2284
  194DG      H7 4446   3.536   1.993   0.912  0.1063  0.6545  1.3639
  194DG      H8 4447   3.414   2.079   0.815 -0.5905 -1.2374 -0.0327
  194DG      O9 4448   3.245   1.333   1.082  0.3283 -0.0497 -0.0130
  194DG     O10 4449   3.363   1.897   0.840  0.4621 -0.2836  0.4872
  194DG     C11 4450   3.343   1.317   0.981 -0.1339  0.0388 -0.2636
  194DG     C12 4451   3.417   1.776   0.886  0.1998 -0.1400  0.3258
  194DG     H13 4452   3.341   1.219   0.934  0.3659 -1.1189  1.9733
  194DG     H14 4453   3.447   1.325   1.011 -0.0557 -1.8537  0.1209
  194DG     H15 4454   3.417   1.785   0.995  1.0536  2.5571  0.1804
  194DG     H16 4455   3.517   1.753   0.852  0.1034 -1.3507  0.8223
  194DG     C17 4456   3.324   1.426   0.880  0.1777  0.3283  0.7368
  194DG     C18 4457   3.332   1.654   0.847  0.2907 -0.2183 -0.1393
  194DG     O19 4458   3.351   1.549   0.939 -0.2074  0.7007  0.5474
  194DG     H20 4459   3.226   1.413   0.834  1.2892  0.8593 -1.9471
  194DG     H21 4460   3.388   1.394   0.798 -0.8777 -0.6353  0.2760
  194DG     H22 4461   3.223   1.664   0.851  0.4500  1.7090  0.6544
  194DG     H23 4462   3.356   1.622   0.746  0.6408  3.6325 -1.4651
  195DG      C1 4463   0.342   1.857   5.116 -0.2383  0.2423 -0.0436
  195DG      C2 4464   0.535   2.360   5.492  0.4742 -0.0797 -0.1453
  195DG      H3 4465   0.260   1.860   5.188  0.9326  1.0503  1.2919
  195DG      H4 4466   0.417   1.793   5.163 -0.1066 -0.1923 -0.8290
  195DG      H5 4467   0.308   1.807   5.025 -0.3754  2.0326 -1.0073
  195DG      H6 4468   0.431   2.371   5.523  0.9076  0.9538  1.0007
  195DG      H7 4469   0.583   2.276   5.542  1.5205  0.7258  0.2242
  195DG      H8 4470   0.572   2.455   5.530  0.6155 -0.3566  0.4246
  195DG      O9 4471   0.391   1.989   5.110  0.1441 -0.6751  0.3135
  195DG     O10 4472   0.536   2.335   5.349 -0.2491 -0.2223  0.8749
  195DG     C11 4473   0.313   2.066   5.016 -0.3873 -0.1171 -0.3820
  195DG     C12 4474   0.497   2.439   5.266  0.2309  0.0728 -0.0963
  195DG     H13 4475   0.210   2.086   5.049 -0.6515 -1.6523 -0.2301
  195DG     H14 4476   0.311   2.021   4.917  1.9194 -0.9411 -0.1084
  195DG     H15 4477   0.569   2.521   5.273  0.0540  0.1765  0.5495
  195DG     H16 4478   0.398   2.481   5.287  0.2087  1.2763 -2.2647
  195DG     C17 4479   0.390   2.204   4.998 -0.1751 -0.3371 -0.3404
  195DG     C18 4480   0.488   2.384   5.123  0.3433 -0.5730  0.3836
  195DG     O19 4481   0.416   2.261   5.121 -0.1485  0.4530 -1.0768
  195DG     H20 4482   0.336   2.281   4.942  4.1482  0.9773 -3.1993
  195DG     H21 4483   0.480   2.188   4.939 -0.7632  1.9085 -1.9812
  195DG     H22 4484   0.435   2.444   5.049  0.2966 -1.8396 -0.6448
  195DG     H23 4485   0.588   2.371   5.082  0.6974 -1.2190  1.4139
  196DG      C1 4486   3.780   3.518   2.275 -0.3695 -0.1439  0.4524
  196DG      C2 4487   3.066   4.000   2.393  0.1033  0.8533 -0.4621
  196DG      H3 4488   3.821   3.444   2.207 -0.6386  0.9532 -0.9379
  196DG      H4 4489   3.834   3.524   2.370 -0.5111 -1.1395  0.6115
  196DG      H5 4490   3.803   3.608   2.219  0.0165 -0.2333  0.4622
  196DG      H6 4491   2.961   3.975   2.410  0.6524 -2.2627 -1.1356
  196DG      H7 4492   3.106   4.037   2.488  2.0283  0.2609 -1.0186
  196DG      H8 4493   3.065   4.084   2.323  1.4299  0.2234 -1.2645
  196DG      O9 4494   3.639   3.490   2.288 -0.2094  0.0799 -0.5711
  196DG     O10 4495   3.139   3.887   2.354  0.1969 -0.0219  0.5633
  196DG     C11 4496   3.573   3.595   2.350  0.4450 -0.0871  0.2260
  196DG     C12 4497   3.155   3.794   2.456  0.1853  0.3575  0.4201
  196DG     H13 4498   3.589   3.686   2.292 -2.7314  0.4900  0.0845
  196DG     H14 4499   3.615   3.607   2.450  0.1504  4.2250  0.0466
  196DG     H15 4500   3.061   3.760   2.498  0.9895 -3.0717 -0.2835
  196DG     H16 4501   3.218   3.831   2.537 -0.8158  0.1732  1.3105
  196DG     C17 4502   3.421   3.568   2.351 -0.1284  0.1519 -0.4276
  196DG     C18 4503   3.218   3.663   2.405  0.0893  0.1595 -0.2172
  196DG     O19 4504   3.353   3.686   2.392  0.0315  0.0639 -0.7743
  196DG     H20 4505   3.407   3.484   2.419  1.0768  0.5894  0.3871
  196DG     H21 4506   3.382   3.533   2.255  0.3568  1.7880 -1.2606
  196DG     H22 4507   3.194   3.588   2.480  0.4612 -0.0605 -0.3143
  196DG     H23 4508   3.167   3.616   2.321 -2.6943  0.0992  1.4068
  197DG      C1 4509   5.314   3.280   1.698 -0.1540  0.0781 -0.5546
  197DG      C2 4510   5.183   2.949   2.216  0.2559 -0.5464  0.8972
  197DG      H3 4511   5.376   3.308   1.613  0.8973 -0.5348 -0.0175
  197DG      H4 4512   5.263   3.364   1.744 -2.4955 -0.1903 -2.4910
  197DG      H5 4513   5.229   3.218   1.670 -0.7989  1.6486 -2.2592
  197DG      H6 4514   5.190   2.906   2.316 -0.1898  0.8054  1.5259
  197DG      H7 4515   5.105   3.025   2.220  0.5034 -0.1913 -0.6604
  197DG      H8 4516   5.143   2.869   2.154 -1.5694  2.2886 -1.8736
  197DG      O9 4517   5.405   3.217   1.793  0.0486  0.0611  0.0195
  197DG     O10 4518   5.303   2.998   2.177  0.4169 -0.0539  0.4769
  197DG     C11 4519   5.490   3.124   1.744 -0.4892 -0.2688  0.1284
  197DG     C12 4520   5.400   2.898   2.166 -0.9455  0.3425 -0.2583
  197DG     H13 4521   5.557   3.173   1.674  0.9493 -0.0279  1.6061
  197DG     H14 4522   5.433   3.045   1.696  0.5922 -0.3597 -1.0302
  197DG     H15 4523   5.372   2.814   2.103 -1.7362 -0.0377  0.5730
  197DG     H16 4524   5.426   2.866   2.267 -0.9358  1.9432  0.2728
  197DG     C17 4525   5.570   3.078   1.868  0.0052  0.5537  0.1585
  197DG     C18 4526   5.526   2.955   2.086 -0.5223  0.4103  0.3675
  197DG     O19 4527   5.481   3.013   1.959 -0.6597  0.1045 -0.8725
  197DG     H20 4528   5.631   3.157   1.910  1.6136 -0.0193 -1.0173
  197DG     H21 4529   5.641   2.997   1.856 -1.2610 -0.2909 -2.4355
  197DG     H22 4530   5.594   3.016   2.146  0.2794  1.5607 -1.6295
  197DG     H23 4531   5.598   2.876   2.065  1.6773  2.1025  1.2328
  198DG      C1 4532   2.814   0.556   4.735  0.1838  0.3209  0.3447
  198DG      C2 4533   3.176   1.152   4.612 -0.3832  0.1440  0.3150
  198DG      H3 4534   2.776   0.635   4.799 -1.2033 -0.2251  0.2394
  198DG      H4 4535   2.886   0.502   4.796 -0.2972  1.3776  1.8986
  198DG      H5 4536   2.728   0.490   4.718 -0.3225  1.3247 -1.2332
  198DG      H6 4537   3.271   1.098   4.608 -0.3322  0.2051  0.6498
  198DG      H7 4538   3.190   1.246   4.559  3.0158 -1.5195 -2.0889
  198DG      H8 4539   3.169   1.174   4.719  2.3585  0.2167  0.5696
  198DG      O9 4540   2.857   0.608   4.612 -0.3402 -0.4700  0.1524
  198DG     O10 4541   3.070   1.070   4.566  0.3267  0.3044  0.1354
  198DG     C11 4542   2.763   0.685   4.547 -0.0055 -0.1362 -0.5063
  198DG     C12 4543   3.067   1.040   4.432 -0.1888  0.1563  0.2152
  198DG     H13 4544   2.739   0.760   4.623  1.5946  0.2039 -0.2972
  198DG     H14 4545   2.677   0.631   4.509 -1.2738  2.0998 -0.9698
  198DG     H15 4546   3.161   0.988   4.416  0.9770  2.3746 -0.5837
  198DG     H16 4547   3.066   1.130   4.371  1.3288 -0.1344 -0.2726
  198DG     C17 4548   2.829   0.750   4.431  0.1812 -0.9520 -0.8734
  198DG     C18 4549   2.958   0.951   4.389 -0.4129 -0.0923 -0.7139
  198DG     O19 4550   2.928   0.844   4.480  0.1731 -0.0244 -0.0010
  198DG     H20 4551   2.743   0.796   4.383  1.1841  0.6237 -1.2439
  198DG     H21 4552   2.873   0.683   4.358  1.0721 -1.3324 -0.0128
  198DG     H22 4553   2.867   1.008   4.369  0.3172  1.1277 -0.6420
  198DG     H23 4554   2.991   0.908   4.295 -1.0546  2.5002 -2.2309
  199DG      C1 4555   4.404   4.278   0.729  0.1286 -0.6339 -0.7774
  199DG      C2 4556   4.573   4.499   1.099  0.9312  0.1794  0.3989
  199DG      H3 4557   4.442   4.206   0.802 -1.4208 -1.2721 -0.5584
  199DG      H4 4558   4.439   4.260   0.627  1.7792  0.6932 -0.5040
  199DG      H5 4559   4.296   4.268   0.735 -0.2175  0.9166 -3.0802
  199DG      H6 4560   4.477   4.466   1.139  0.7131  1.1629  0.7116
  199DG      H7 4561   4.581   4.476   0.992 -2.3756  0.4442  0.0051
  199DG      H8 4562   4.651   4.440   1.147  0.2034 -0.7032  0.5206
  199DG      O9 4563   4.442   4.413   0.771  0.6510 -0.2869 -0.4712
  199DG     O10 4564   4.595   4.629   1.141 -0.1075 -0.3693  0.1458
  199DG     C11 4565   4.387   4.515   0.689  0.3696  0.0573  0.0107
  199DG     C12 4566   4.496   4.730   1.103 -0.6537  0.6145  0.0344
  199DG     H13 4567   4.279   4.508   0.675  0.3619  2.7743 -2.3022
  199DG     H14 4568   4.427   4.514   0.588 -0.5201  0.8230 -0.3736
  199DG     H15 4569   4.516   4.829   1.144  0.6173  0.3486  0.1057
  199DG     H16 4570   4.400   4.698   1.143  0.3797 -0.1820  2.0273
  199DG     C17 4571   4.420   4.660   0.741 -0.1141 -0.4514 -0.3356
  199DG     C18 4572   4.484   4.762   0.951  0.7677  0.2450 -0.0300
  199DG     O19 4573   4.430   4.647   0.882 -0.5715 -0.1707 -0.3241
  199DG     H20 4574   4.339   4.724   0.706 -2.0230 -2.0848  0.8873
  199DG     H21 4575   4.512   4.681   0.687 -0.1585 -0.2518 -0.3326
  199DG     H22 4576   4.396   4.824   0.938  0.0506 -0.6883  0.2771
  199DG     H23 4577   4.575   4.800   0.904 -0.1332 -1.3246 -3.3918
  200DG      C1 4578   0.074   3.898   5.286 -0.0644  0.1439  0.5678
  200DG      C2 4579   0.686   3.778   5.080  0.2836  0.3117 -0.2929
  200DG      H3 4580   0.086   3.968   5.203 -1.9278  0.0419  0.1644
  200DG      H4 4581   0.083   3.950   5.381 -2.1931 -1.8817  1.9911
  200DG      H5 4582  -0.025   3.853   5.279  0.6743 -1.6263  0.7449
  200DG      H6 4583   0.681   3.867   5.017 -1.4033 -0.2268 -0.9950
  200DG      H7 4584   0.774   3.786   5.143  0.2546 -4.1752  0.6058
  200DG      H8 4585   0.702   3.693   5.014  0.9664  1.0186 -1.0695
  200DG      O9 4586   0.168   3.799   5.253  0.5621 -0.6295  0.5874
  200DG     O10 4587   0.578   3.753   5.165  0.1243 -0.5387 -0.1528
  200DG     C11 4588   0.168   3.705   5.356  0.0876  0.1426  0.5548
  200DG     C12 4589   0.594   3.644   5.255 -0.3332  1.0431  0.4469
  200DG     H13 4590   0.073   3.669   5.394  0.3493 -0.8349  0.3208
  200DG     H14 4591   0.220   3.752   5.439  1.9900 -0.8359 -0.0304
  200DG     H15 4592   0.676   3.661   5.324 -0.9311 -0.1439  1.4820
  200DG     H16 4593   0.618   3.551   5.205 -0.2832  0.1780  2.0387
  200DG     C17 4594   0.239   3.574   5.302  0.1615 -0.1816  0.2589
  200DG     C18 4595   0.464   3.630   5.332 -0.4424  0.0750  0.3465
  200DG     O19 4596   0.367   3.600   5.234  0.3545  0.3676 -0.3481
  200DG     H20 4597   0.174   3.517   5.236  0.3309 -0.9423  0.7372
  200DG     H21 4598   0.248   3.503   5.384  0.7268  0.4623  0.7651
  200DG     H22 4599   0.468   3.547   5.403  1.0512  1.3089  1.8150
  200DG     H23 4600   0.445   3.720   5.391 -1.1828 -0.0052  0.2385
  201DG      C1 4601   3.688   5.310   0.974  0.6926  0.0853  0.2861
  201DG      C2 4602   3.195   4.727   1.203 -0.1619  0.2431  0.1174
  201DG      H3 4603   3.785   5.288   1.018  2.4477  1.3838 -2.6447
  201DG      H4 4604   3.650   5.401   1.021 -0.3224 -0.0931 -0.1516
  201DG      H5 4605   3.705   5.344   0.872  1.8914 -3.4884 -0.8564
  201DG      H6 4606   3.119   4.799   1.234  0.5154  0.4215  1.4257
  201DG      H7 4607   3.152   4.642   1.150  0.3537 -1.2188  1.9462
  201DG      H8 4608   3.253   4.690   1.287  0.2510 -0.4995 -0.4904
  201DG      O9 4609   3.601   5.198   0.957  0.0545 -0.5923 -0.1792
  201DG     O10 4610   3.271   4.797   1.106 -0.8950 -0.8246  0.0432
  201DG     C11 4611   3.484   5.216   0.869  0.0064 -0.5484 -0.3691
  201DG     C12 4612   3.364   4.898   1.157  1.2109  0.1160  0.0137
  201DG     H13 4613   3.521   5.267   0.781  1.2649  0.6921  0.8220
  201DG     H14 4614   3.427   5.298   0.913  2.0168 -0.2518  1.8661
  201DG     H15 4615   3.419   4.851   1.239 -1.4589 -1.3584  1.1074
  201DG     H16 4616   3.303   4.977   1.201 -1.5446 -0.3651 -2.6146
  201DG     C17 4617   3.410   5.094   0.845  0.0568 -0.1094 -0.2190
  201DG     C18 4618   3.449   4.964   1.050 -0.1224 -0.9901 -0.7589
  201DG     O19 4619   3.359   5.032   0.969 -0.3557  0.6194 -0.2893
  201DG     H20 4620   3.475   5.028   0.789 -0.1985 -0.8659  0.3558
  201DG     H21 4621   3.323   5.111   0.782  1.2251  0.5958 -1.7076
  201DG     H22 4622   3.514   5.036   1.098 -0.7686  0.2809 -1.7214
  201DG     H23 4623   3.518   4.898   0.996  2.6559  1.2989 -0.2619
  202DG      C1 4624   5.353   1.536   0.717  0.1310 -0.4817  1.0840
  202DG      C2 4625   5.699   1.683   1.230  0.4698 -0.3136 -0.3705
  202DG      H3 4626   5.263   1.510   0.774 -1.4220 -0.7784 -1.3534
  202DG      H4 4627   5.410   1.444   0.724 -1.1552 -1.5330 -1.1449
  202DG      H5 4628   5.324   1.535   0.612  1.8317 -0.3018  0.5950
  202DG      H6 4629   5.748   1.587   1.212 -0.8707 -1.3298  1.0810
  202DG      H7 4630   5.746   1.740   1.310 -0.9719 -0.6356  0.7438
  202DG      H8 4631   5.613   1.644   1.284 -1.5914  0.6479 -2.7525
  202DG      O9 4632   5.425   1.649   0.754 -0.3914  0.1036 -0.2939
  202DG     O10 4633   5.654   1.753   1.109  0.3182 -0.6273  0.1328
  202DG     C11 4634   5.536   1.665   0.667  0.3087  0.2197 -0.5179
  202DG     C12 4635   5.767   1.811   1.044 -0.3172 -0.0562  0.7533
  202DG     H13 4636   5.501   1.690   0.567  0.8181 -0.1143 -0.7804
  202DG     H14 4637   5.600   1.577   0.672  0.1873  0.1843  0.7925
  202DG     H15 4638   5.841   1.735   1.019 -0.6030  0.5331 -2.1886
  202DG     H16 4639   5.816   1.878   1.115  1.0286 -1.0572  0.8077
  202DG     C17 4640   5.616   1.788   0.715  0.9388 -0.5436  0.0249
  202DG     C18 4641   5.711   1.873   0.911  0.5546  0.6555  0.0715
  202DG     O19 4642   5.649   1.763   0.844  0.2853 -0.7283 -0.6102
  202DG     H20 4643   5.572   1.885   0.689 -2.4741 -2.5971 -2.7593
  202DG     H21 4644   5.706   1.800   0.655  0.0997  0.7940 -1.0372
  202DG     H22 4645   5.628   1.941   0.924 -1.0903 -0.8408 -1.8811
  202DG     H23 4646   5.790   1.925   0.857  0.6528 -1.3488 -1.8793
  203DG      C1 4647   4.328   0.992   1.706  0.4166  0.1636  0.0019
  203DG      C2 4648   3.825   0.651   1.309 -0.0561  0.5539  0.5467
  203DG      H3 4649   4.283   0.948   1.795 -1.0371  0.3327 -0.6103
  203DG      H4 4650   4.368   1.094   1.707  2.6051 -0.6534  0.5547
  203DG      H5 4651   4.418   0.933   1.693  0.0658  0.1101 -2.8393
  203DG      H6 4652   3.758   0.704   1.377  0.6217  2.3977 -0.1584
  203DG      H7 4653   3.781   0.671   1.211 -0.6291  1.3941  0.9573
  203DG      H8 4654   3.827   0.542   1.317 -0.1752  0.1548 -3.0860
  203DG      O9 4655   4.237   0.983   1.602 -0.6125 -0.2235 -0.4805
  203DG     O10 4656   3.950   0.718   1.323  0.0186 -0.3557  0.0326
  203DG     C11 4657   4.284   1.026   1.473 -0.1245  0.4001 -0.1655
  203DG     C12 4658   4.062   0.642   1.281  0.4431  0.1467  0.5536
  203DG     H13 4659   4.367   1.096   1.484 -1.2778  2.1242 -1.7803
  203DG     H14 4660   4.215   1.095   1.424  0.6697  0.5173 -1.1430
  203DG     H15 4661   4.050   0.587   1.188  0.5378  1.0063  0.0263
  203DG     H16 4662   4.086   0.566   1.355  0.8925  1.3401  1.6770
  203DG     C17 4663   4.298   0.908   1.376  0.4093 -0.5446  0.0317
  203DG     C18 4664   4.183   0.734   1.266  0.4317 -0.4484 -0.2425
  203DG     O19 4665   4.170   0.842   1.354 -0.1455  0.1946 -0.4649
  203DG     H20 4666   4.365   0.827   1.407  0.0654 -1.3564 -1.2465
  203DG     H21 4667   4.355   0.935   1.287  0.1433 -1.4233 -0.4210
  203DG     H22 4668   4.281   0.687   1.267 -0.0170 -1.4176  1.3430
  203DG     H23 4669   4.169   0.777   1.166 -1.9564  0.0185  0.2377
  204DG      C1 4670   5.267   4.693   4.648  0.3628 -0.3594 -0.8962
  204DG      C2 4671   5.870   4.644   4.246  0.4410 -0.3492  0.3267
  204DG      H3 4672   5.158   4.700   4.638  0.1134  1.7008  1.9607
  204DG      H4 4673   5.300   4.794   4.672  1.1900 -0.5084 -1.3692
  204DG      H5 4674   5.281   4.634   4.739 -1.7979 -0.1156 -0.3439
  204DG      H6 4675   5.937   4.559   4.265  1.1227 -0.4646 -2.2450
  204DG      H7 4676   5.882   4.668   4.140 -0.4446 -0.5747  0.1646
  204DG      H8 4677   5.923   4.719   4.305  0.7567 -1.6008  1.7058
  204DG      O9 4678   5.337   4.630   4.544 -0.5010  0.2346  0.0387
  204DG     O10 4679   5.737   4.624   4.279  0.6209  0.2014  0.2274
  204DG     C11 4680   5.294   4.506   4.484 -0.2187 -0.1520 -0.6609
  204DG     C12 4681   5.669   4.524   4.203 -0.3513  0.1138 -0.2263
  204DG     H13 4682   5.186   4.495   4.488 -0.1122 -1.1665 -0.0011
  204DG     H14 4683   5.353   4.426   4.530  1.1928  0.8736 -0.6469
  204DG     H15 4684   5.675   4.428   4.254  0.5825  0.5090  0.4409
  204DG     H16 4685   5.713   4.528   4.104  1.5507  0.8238  0.5919
  204DG     C17 4686   5.334   4.523   4.337  0.5599  0.0132 -0.1026
  204DG     C18 4687   5.520   4.555   4.201 -0.1884 -0.1673 -0.2790
  204DG     O19 4688   5.475   4.540   4.333  0.7742  0.2878  0.1976
  204DG     H20 4689   5.279   4.612   4.306 -0.3670 -0.9322 -1.3011
  204DG     H21 4690   5.292   4.438   4.282 -2.4808  0.1813  1.7306
  204DG     H22 4691   5.504   4.650   4.150  3.0189  0.6378 -0.0079
  204DG     H23 4692   5.474   4.494   4.124 -1.1365  0.2589 -0.0683
  205DG      C1 4693   0.665   0.652   1.922  0.3292  0.7579 -0.0475
  205DG      C2 4694   0.298   0.150   1.827 -0.4228  0.0869  0.3307
  205DG      H3 4695   0.700   0.572   1.987  0.5111  0.0717 -0.9766
  205DG      H4 4696   0.573   0.698   1.959 -0.1308 -0.3525  0.2287
  205DG      H5 4697   0.751   0.720   1.912 -0.1142  1.1324 -1.6273
  205DG      H6 4698   0.248   0.078   1.763 -0.9795  1.6172 -1.0274
  205DG      H7 4699   0.353   0.105   1.910 -0.3032 -0.8836 -0.2609
  205DG      H8 4700   0.222   0.218   1.867  0.8074  0.5575  2.0094
  205DG      O9 4701   0.638   0.583   1.801  0.0444 -0.6014 -0.1709
  205DG     O10 4702   0.400   0.219   1.754  0.8770  0.0359  0.0807
  205DG     C11 4703   0.597   0.659   1.690  0.1024 -0.4940  0.4169
  205DG     C12 4704   0.356   0.269   1.629 -0.1566  0.7993 -0.5272
  205DG     H13 4705   0.671   0.727   1.646 -0.3944 -0.4803 -0.4225
  205DG     H14 4706   0.511   0.723   1.712 -0.7371 -1.9280  1.4652
  205DG     H15 4707   0.261   0.320   1.638 -0.6756 -0.0902 -0.8289
  205DG     H16 4708   0.336   0.185   1.561 -0.4997 -0.3538  0.9540
  205DG     C17 4709   0.565   0.568   1.583  0.1606  0.4708  0.0621
  205DG     C18 4710   0.453   0.361   1.557  0.7598 -0.5098  0.3665
  205DG     O19 4711   0.476   0.473   1.640  0.8883  0.4831  0.4030
  205DG     H20 4712   0.660   0.517   1.563 -1.1048 -1.8943 -0.2943
  205DG     H21 4713   0.528   0.613   1.491  1.7179  2.1340  0.1902
  205DG     H22 4714   0.543   0.301   1.545  0.9250 -0.1206 -0.3884
  205DG     H23 4715   0.415   0.393   1.460  0.4088  2.1967  1.2909
  206DG      C1 4716   4.024   2.842   1.026  0.1475 -0.3188 -0.1609
  206DG      C2 4717   4.539   2.453   0.868  0.3205 -0.1105 -0.9264
  206DG      H3 4718   4.089   2.905   1.088  0.0868  0.5856 -0.9929
  206DG      H4 4719   3.920   2.861   1.054 -0.6715 -2.4739 -1.5272
  206DG      H5 4720   4.032   2.885   0.926  0.7759  1.4885  0.6196
  206DG      H6 4721   4.550   2.545   0.811  0.8069  0.0713 -0.5483
  206DG      H7 4722   4.616   2.445   0.945  1.3174  0.9331 -1.7793
  206DG      H8 4723   4.548   2.365   0.804 -3.4116 -1.8588  0.6119
  206DG      O9 4724   4.048   2.703   1.016  0.6675  0.6338  0.2501
  206DG     O10 4725   4.409   2.436   0.919 -0.2409  0.3035  0.3394
  206DG     C11 4726   4.014   2.627   1.130  0.3409 -0.3022 -0.0900
  206DG     C12 4727   4.405   2.358   1.048 -0.1731  0.5561 -0.1236
  206DG     H13 4728   3.909   2.629   1.156  0.5680 -1.6948  0.9984
  206DG     H14 4729   4.060   2.686   1.209 -0.6331  0.0565  0.2213
  206DG     H15 4730   4.464   2.413   1.121  0.5428  1.2565 -1.2127
  206DG     H16 4731   4.452   2.260   1.040 -1.7299 -0.2235 -0.3056
  206DG     C17 4732   4.067   2.482   1.124  0.1613  0.1726  0.2595
  206DG     C18 4733   4.251   2.351   1.088 -0.2238 -0.4343  0.0046
  206DG     O19 4734   4.204   2.486   1.089  0.2893  0.4350  0.1600
  206DG     H20 4735   4.012   2.430   1.045 -2.1881 -0.4154  2.1571
  206DG     H21 4736   4.050   2.429   1.218  0.2168  0.5761  0.4995
  206DG     H22 4737   4.207   2.291   1.008  0.0634 -1.2182  0.4133
  206DG     H23 4738   4.236   2.306   1.187  2.9699 -2.1760 -0.1854
  207DG      C1 4739   4.169   3.437   2.174  0.0524  0.3921 -0.3492
  207DG      C2 4740   4.864   4.054   2.247  0.2854  0.6238  0.1903
  207DG      H3 4741   4.242   3.357   2.166  2.8654  2.8881 -1.3658
  207DG      H4 4742   4.172   3.475   2.071  1.4630 -0.1664 -0.5331
  207DG      H5 4743   4.075   3.396   2.211  1.0963 -2.2047 -0.3228
  207DG      H6 4744   4.866   4.163   2.249  2.4591  0.6452 -0.5675
  207DG      H7 4745   4.924   3.999   2.318 -1.9870 -1.8024  0.3700
  207DG      H8 4746   4.885   4.015   2.147 -0.3386 -3.4343  1.4863
  207DG      O9 4747   4.213   3.541   2.258  0.5629  0.0061 -0.4833
  207DG     O10 4748   4.736   4.003   2.274 -0.2994 -0.4114  0.2014
  207DG     C11 4749   4.350   3.560   2.246 -0.9009 -0.3656  0.1330
  207DG     C12 4750   4.719   3.867   2.272 -0.3089 -0.2012  0.4145
  207DG     H13 4751   4.383   3.546   2.144  0.0845 -1.4874  0.5837
  207DG     H14 4752   4.394   3.474   2.297 -3.2437 -1.9624 -0.3724
  207DG     H15 4753   4.781   3.816   2.346 -0.6155 -0.6181  0.3904
  207DG     H16 4754   4.746   3.834   2.172 -1.2553  1.7100 -0.5184
  207DG     C17 4755   4.383   3.693   2.298 -0.6089  0.2206  0.0971
  207DG     C18 4756   4.565   3.845   2.290  0.1092  0.7232  0.2171
  207DG     O19 4757   4.527   3.705   2.276 -0.2376  0.3160  0.2287
  207DG     H20 4758   4.365   3.701   2.406 -1.7322  3.8248 -0.2244
  207DG     H21 4759   4.331   3.778   2.253  2.7280  1.3829 -1.9070
  207DG     H22 4760   4.514   3.885   2.378  0.7541 -0.5399  1.1906
  207DG     H23 4761   4.519   3.905   2.211  0.2567 -0.8501 -1.1160
  208DG      C1 4762   2.075   3.939   1.715 -0.4122 -0.2592  0.6479
  208DG      C2 4763   2.241   4.071   2.364 -0.1079  0.3023 -1.0265
  208DG      H3 4764   2.062   3.869   1.633 -2.9306 -0.5146  1.2061
  208DG      H4 4765   2.120   4.024   1.663 -0.9886  0.1901  0.8804
  208DG      H5 4766   1.976   3.959   1.756 -0.5480  1.8572 -0.5512
  208DG      H6 4767   2.234   4.174   2.329  1.5838  0.7808 -0.0525
  208DG      H7 4768   2.152   4.049   2.423  2.0865 -3.7587  1.2066
  208DG      H8 4769   2.328   4.054   2.426  0.4127  0.4806 -1.6903
  208DG      O9 4770   2.162   3.886   1.814  0.8428 -0.1499 -0.3620
  208DG     O10 4771   2.253   3.974   2.255  0.0630 -1.0418 -0.0614
  208DG     C11 4772   2.131   3.744   1.842  0.2923 -0.3527 -0.2247
  208DG     C12 4773   2.244   3.838   2.296  0.1461 -0.3312 -0.2352
  208DG     H13 4774   2.150   3.694   1.747  3.3969  1.4601 -0.6807
  208DG     H14 4775   2.026   3.736   1.870  1.0710 -1.4095  2.7600
  208DG     H15 4776   2.141   3.825   2.326  0.6391 -1.1121  1.2138
  208DG     H16 4777   2.295   3.824   2.391 -0.6512  3.3212  0.8706
  208DG     C17 4778   2.215   3.689   1.957  0.6869 -0.7259 -0.1222
  208DG     C18 4779   2.269   3.728   2.186  0.0717 -0.0331 -0.2208
  208DG     O19 4780   2.216   3.781   2.070  0.2033 -0.2939  0.0902
  208DG     H20 4781   2.316   3.674   1.918  0.8510  1.6097 -0.7179
  208DG     H21 4782   2.180   3.590   1.987  1.3211 -1.3283 -1.2788
  208DG     H22 4783   2.373   3.696   2.182  0.2236  0.5538 -2.8100
  208DG     H23 4784   2.224   3.633   2.216 -2.1188  1.3328  1.1226
  209DG      C1 4785   3.530   2.273   1.549  1.1107  0.4986  0.1123
  209DG      C2 4786   3.570   1.603   2.062 -0.6099  0.3880 -0.2057
  209DG      H3 4787   3.569   2.219   1.462  2.4076  0.2590  0.8208
  209DG      H4 4788   3.608   2.342   1.581  0.8216  0.9007 -0.0464
  209DG      H5 4789   3.443   2.333   1.522  0.6365 -0.1597  0.1461
  209DG      H6 4790   3.466   1.594   2.030 -1.2691 -2.3263  2.3622
  209DG      H7 4791   3.631   1.536   2.001 -2.2790 -0.4218 -1.0490
  209DG      H8 4792   3.574   1.558   2.161  0.6614  1.4995  0.2779
  209DG      O9 4793   3.507   2.178   1.655 -0.4092 -0.4058  0.7128
  209DG     O10 4794   3.630   1.738   2.066  0.1714  0.8669 -0.2526
  209DG     C11 4795   3.410   2.080   1.628 -0.3469  0.3137  0.6315
  209DG     C12 4796   3.662   1.805   1.948 -0.2385  0.8046 -0.2161
  209DG     H13 4797   3.439   2.042   1.530 -1.5157  3.2932 -0.9999
  209DG     H14 4798   3.312   2.127   1.621 -0.4824  0.2293  1.8719
  209DG     H15 4799   3.729   1.744   1.888  0.4510 -1.2777  2.4816
  209DG     H16 4800   3.722   1.895   1.963  0.6799  0.1259  0.2749
  209DG     C17 4801   3.409   1.983   1.741 -0.4749  0.1461  0.0054
  209DG     C18 4802   3.529   1.832   1.875  0.1253 -0.3725 -0.2508
  209DG     O19 4803   3.537   1.930   1.775 -0.9903 -0.5545 -0.1697
  209DG     H20 4804   3.333   1.906   1.730 -0.2527 -0.4000  1.9067
  209DG     H21 4805   3.381   2.040   1.829  0.6106 -1.1157  1.2085
  209DG     H22 4806   3.498   1.735   1.836 -0.3472 -0.7459  1.0039
  209DG     H23 4807   3.448   1.852   1.945  0.7846 -0.1288  0.4512
  210DG      C1 4808   2.108   3.150   2.782 -0.2051  0.0059  0.0315
  210DG      C2 4809   2.718   3.387   2.762 -0.4960 -0.3399  0.0241
  210DG      H3 4810   2.113   3.170   2.674  0.1988 -1.5177 -0.2466
  210DG      H4 4811   2.003   3.149   2.810 -0.1746 -2.4740  0.2107
  210DG      H5 4812   2.154   3.053   2.796  2.6493  1.0481 -1.2509
  210DG      H6 4813   2.671   3.414   2.667  0.5209  0.8723 -0.1644
  210DG      H7 4814   2.739   3.481   2.814 -0.3143 -0.1390 -0.4042
  210DG      H8 4815   2.808   3.330   2.741  0.5302  0.9564  0.6960
  210DG      O9 4816   2.194   3.250   2.859 -0.0853  0.4300  0.0790
  210DG     O10 4817   2.611   3.332   2.835  0.2499 -0.1731 -0.1675
  210DG     C11 4818   2.217   3.217   2.996 -0.7126 -0.8017 -0.0896
  210DG     C12 4819   2.644   3.301   2.964  0.0330 -0.3589 -0.3273
  210DG     H13 4820   2.275   3.125   3.002  0.7620  0.1770  1.5431
  210DG     H14 4821   2.125   3.200   3.051 -1.3281  2.4582  0.1021
  210DG     H15 4822   2.690   3.386   3.013  0.3986 -0.6471 -0.1635
  210DG     H16 4823   2.709   3.214   2.971 -0.3759 -0.5846  0.9903
  210DG     C17 4824   2.295   3.345   3.059  0.3605  0.2967  0.2217
  210DG     C18 4825   2.515   3.265   3.037 -0.8951 -0.1141 -0.6575
  210DG     O19 4826   2.419   3.357   2.995  0.1330  0.1634  0.2295
  210DG     H20 4827   2.297   3.341   3.168  0.1432  0.3339  0.2291
  210DG     H21 4828   2.236   3.436   3.046 -0.7087 -0.1092  1.8970
  210DG     H22 4829   2.483   3.163   3.017 -1.6145 -0.5763  2.3920
  210DG     H23 4830   2.519   3.283   3.144 -4.3236 -0.4675 -0.3671
  211DG      C1 4831   1.665   4.561   4.064 -0.1085 -0.5574 -0.0644
  211DG      C2 4832   1.128   4.863   4.253 -0.2630  0.2494 -0.7140
  211DG      H3 4833   1.733   4.646   4.067 -1.6800  0.7896 -0.9993
  211DG      H4 4834   1.692   4.490   3.986 -0.9823  0.6797 -1.5485
  211DG      H5 4835   1.662   4.507   4.159 -1.0129 -0.8490 -0.2448
  211DG      H6 4836   1.121   4.802   4.344 -0.9564 -1.1948 -1.6973
  211DG      H7 4837   1.070   4.955   4.266 -1.5704 -0.5277 -0.8390
  211DG      H8 4838   1.070   4.806   4.181 -0.3732 -0.1568 -0.3143
  211DG      O9 4839   1.538   4.599   4.005  0.3267  0.1958 -0.3580
  211DG     O10 4840   1.257   4.898   4.200 -0.1423 -0.3726  0.1336
  211DG     C11 4841   1.555   4.682   3.886 -0.1102  0.1981  0.2562
  211DG     C12 4842   1.263   4.993   4.097  0.4473 -0.3251  0.1682
  211DG     H13 4843   1.484   4.657   3.807  0.5034  0.8709 -0.5189
  211DG     H14 4844   1.654   4.666   3.844 -0.2500 -1.7767  0.5839
  211DG     H15 4845   1.244   5.091   4.140  2.5404 -0.2520  1.0687
  211DG     H16 4846   1.178   4.970   4.033 -1.3752  1.8041  1.6442
  211DG     C17 4847   1.542   4.831   3.921 -0.1006  1.3138 -0.2374
  211DG     C18 4848   1.394   4.976   4.023 -0.8134 -0.0315 -0.4970
  211DG     O19 4849   1.416   4.838   3.989 -0.4008 -0.2011  0.3859
  211DG     H20 4850   1.536   4.892   3.831 -2.0164  3.6000  1.2987
  211DG     H21 4851   1.614   4.869   3.993  1.3676 -1.5013 -0.0850
  211DG     H22 4852   1.396   5.047   3.940 -1.7936  0.5062 -0.0710
  211DG     H23 4853   1.475   5.002   4.092 -1.1440 -0.5465  0.0879
  212DG      C1 4854   1.633   5.070   1.391 -0.2365 -0.0943 -0.2649
  212DG      C2 4855   2.141   5.449   1.680 -0.0716 -0.5147 -0.2939
  212DG      H3 4856   1.612   5.112   1.292 -2.0522 -0.4101 -0.0509
  212DG      H4 4857   1.542   5.027   1.431  0.8209 -0.9342  1.3190
  212DG      H5 4858   1.711   4.995   1.384 -0.9314 -1.0056  1.4116
  212DG      H6 4859   2.169   5.515   1.597  2.0994  0.3629  1.0444
  212DG      H7 4860   2.183   5.497   1.768 -2.9223  1.5979  0.0614
  212DG      H8 4861   2.179   5.351   1.652  0.0123 -0.0107 -2.0892
  212DG      O9 4862   1.685   5.171   1.474 -0.0995 -0.3174 -0.0134
  212DG     O10 4863   2.005   5.429   1.701 -0.7444  0.3262  0.2133
  212DG     C11 4864   1.582   5.264   1.511 -0.0239 -1.5060 -0.1283
  212DG     C12 4865   1.923   5.543   1.708  0.4601  0.0147 -0.8414
  212DG     H13 4866   1.485   5.220   1.534 -1.0479 -0.1010 -1.5902
  212DG     H14 4867   1.567   5.331   1.427  0.3824 -1.5068 -0.2053
  212DG     H15 4868   1.932   5.609   1.622  0.6251  1.5937  0.3292
  212DG     H16 4869   1.945   5.607   1.794  1.7277 -0.6022 -0.6834
  212DG     C17 4870   1.616   5.345   1.643 -0.0610  0.1116 -0.0339
  212DG     C18 4871   1.776   5.496   1.715  1.1815 -0.7423  0.0635
  212DG     O19 4872   1.739   5.412   1.610  0.2462 -0.2046 -0.0243
  212DG     H20 4873   1.629   5.288   1.735  0.8239  1.2364  0.5597
  212DG     H21 4874   1.540   5.419   1.668  1.8973  2.2397 -0.0442
  212DG     H22 4875   1.761   5.448   1.812 -0.1609 -0.4088  0.0290
  212DG     H23 4876   1.713   5.584   1.708 -1.6861 -2.7130 -0.5955
  213DG      C1 4877   3.585   4.897   1.868 -0.3563  0.3842 -0.1259
  213DG      C2 4878   4.237   4.808   1.860  0.1261  0.0548  0.9602
  213DG      H3 4879   3.564   4.812   1.804 -3.2074 -0.9929  2.3809
  213DG      H4 4880   3.615   4.987   1.814  0.8176  0.4276  0.5552
  213DG      H5 4881   3.485   4.914   1.909 -1.6812 -1.8761 -2.1751
  213DG      H6 4882   4.343   4.801   1.882  0.9853  2.5722 -1.6455
  213DG      H7 4883   4.215   4.714   1.809  0.6914  0.5492 -0.2501
  213DG      H8 4884   4.227   4.885   1.782 -0.8991 -0.0584  0.9629
  213DG      O9 4885   3.688   4.875   1.965 -0.6930  0.0745 -0.3769
  213DG     O10 4886   4.150   4.836   1.968 -0.1097 -0.4338 -0.0585
  213DG     C11 4887   3.693   4.980   2.063  0.0608  0.3214 -0.7527
  213DG     C12 4888   4.180   4.964   2.040  0.0573  0.9682  0.2426
  213DG     H13 4889   3.596   4.973   2.111 -0.7361 -0.1146 -2.3546
  213DG     H14 4890   3.693   5.077   2.014  0.9011 -0.0898 -1.6121
  213DG     H15 4891   4.177   5.044   1.966 -0.3833  0.9414  0.2291
  213DG     H16 4892   4.278   4.956   2.085  0.2448 -2.0359 -0.4596
  213DG     C17 4893   3.817   4.987   2.154  0.1354  0.5113  0.3614
  213DG     C18 4894   4.066   4.972   2.143 -0.6844 -0.1559 -0.5073
  213DG     O19 4895   3.934   4.961   2.087 -0.5272  0.4310  0.1569
  213DG     H20 4896   3.800   4.922   2.239 -2.1120 -1.0293 -1.1444
  213DG     H21 4897   3.818   5.084   2.203 -1.0625  0.1867  1.0704
  213DG     H22 4898   4.075   4.893   2.218 -0.1271 -1.3491 -1.7881
  213DG     H23 4899   4.070   5.070   2.191 -1.2987 -0.0811 -0.6065
  214DG      C1 4900   1.000   3.797   3.327 -0.1416 -0.2790  0.0438
  214DG      C2 4901   1.646   3.716   3.829  0.1090  0.2698  0.4121
  214DG      H3 4902   0.911   3.859   3.337  1.2509  1.6261  1.3409
  214DG      H4 4903   0.966   3.694   3.336 -0.0840 -0.4500 -1.4903
  214DG      H5 4904   1.042   3.812   3.228 -0.1768  0.3079  0.1129
  214DG      H6 4905   1.748   3.751   3.817 -0.3290  1.1667 -0.9956
  214DG      H7 4906   1.615   3.758   3.925 -1.2033  2.0987 -0.7292
  214DG      H8 4907   1.637   3.608   3.838 -0.2417  0.3967  1.9363
  214DG      O9 4908   1.104   3.828   3.423  0.1753  0.7928  0.4027
  214DG     O10 4909   1.555   3.750   3.722 -0.8309 -0.0617 -0.3132
  214DG     C11 4910   1.078   3.775   3.555 -0.1663 -0.2725  0.2171
  214DG     C12 4911   1.533   3.886   3.700 -0.0239 -0.1563 -0.2120
  214DG     H13 4912   1.096   3.668   3.556  1.2330 -0.0617 -0.4127
  214DG     H14 4913   0.972   3.781   3.579 -0.7536 -0.4449 -2.1126
  214DG     H15 4914   1.546   3.912   3.595  2.2037 -1.3987 -0.3040
  214DG     H16 4915   1.586   3.959   3.761 -1.5095  1.0603 -0.2999
  214DG     C17 4916   1.163   3.843   3.667 -0.1330  0.1293 -0.5035
  214DG     C18 4917   1.387   3.909   3.733 -0.1145  0.1095  0.2907
  214DG     O19 4918   1.300   3.825   3.649  0.0093 -0.1217  1.0592
  214DG     H20 4919   1.134   3.798   3.763 -0.6008  2.5678  0.5599
  214DG     H21 4920   1.125   3.944   3.684 -1.7254 -0.0685 -2.5466
  214DG     H22 4921   1.360   3.871   3.831 -2.4157  0.9227  0.0429
  214DG     H23 4922   1.366   4.016   3.732  1.2640  0.4309  1.7142
  215DG      C1 4923   3.036   0.150   5.408  0.3711 -0.7173 -0.5788
  215DG      C2 4924   2.958   0.439   5.979 -0.2930 -0.4443 -0.7222
  215DG      H3 4925   2.960   0.134   5.332  0.1922  0.3199 -0.6311
  215DG      H4 4926   3.123   0.173   5.348  0.6584  0.2953  0.1984
  215DG      H5 4927   2.992   0.233   5.463 -3.0654 -0.8690 -2.7931
  215DG      H6 4928   2.946   0.448   6.087 -1.3862  1.9657 -0.9833
  215DG      H7 4929   3.000   0.530   5.938 -2.0229  1.4878  1.5127
  215DG      H8 4930   2.855   0.442   5.943 -0.4802  0.6424 -0.1227
  215DG      O9 4931   3.052   0.034   5.496  0.0889 -0.5277 -0.0882
  215DG     O10 4932   3.016   0.322   5.934  0.5144  0.3283  0.1847
  215DG     C11 4933   3.169   0.017   5.567 -0.2234  0.1957 -0.4506
  215DG     C12 4934   2.967   0.193   5.973 -0.1039  0.6174  0.7158
  215DG     H13 4935   3.216   0.116   5.568  0.7595 -0.2253  1.7779
  215DG     H14 4936   3.224  -0.061   5.515 -2.1013 -0.3514 -1.7138
  215DG     H15 4937   2.860   0.180   5.960 -0.9345  5.7293  0.5034
  215DG     H16 4938   2.976   0.186   6.081  1.6610  2.0862  0.7246
  215DG     C17 4939   3.141  -0.014   5.708  1.1554 -0.5560  0.1696
  215DG     C18 4940   3.044   0.073   5.913 -0.1440  0.6689  0.0642
  215DG     O19 4941   3.065   0.087   5.772  0.2649 -0.3475  0.4160
  215DG     H20 4942   3.227  -0.047   5.765  0.9662  1.3426  1.6278
  215DG     H21 4943   3.082  -0.105   5.717  0.6460 -0.1951  0.5432
  215DG     H22 4944   3.137   0.053   5.966  1.0094 -0.9953 -2.3910
  215DG     H23 4945   2.980  -0.016   5.923 -0.3011  0.6149 -1.2498
  216DG      C1 4946   4.576   4.991   2.076  0.2638  0.0909 -0.1739
  216DG      C2 4947   4.025   5.375   1.776 -0.1826  0.1715 -0.5326
  216DG      H3 4948   4.620   5.004   1.977  1.1854  0.0025  0.2116
  216DG      H4 4949   4.548   4.886   2.080 -0.3745  0.2590 -0.1442
  216DG      H5 4950   4.660   4.992   2.146 -0.4085 -2.7444  0.8064
  216DG      H6 4951   4.080   5.355   1.684  1.0249 -1.3278  0.4607
  216DG      H7 4952   3.939   5.310   1.793  0.9033 -1.1406  0.2497
  216DG      H8 4953   3.987   5.477   1.774  0.1124  0.3152  0.5531
  216DG      O9 4954   4.471   5.080   2.110  0.1711  0.0103  0.0657
  216DG     O10 4955   4.126   5.367   1.882  0.0433  0.1127  0.1464
  216DG     C11 4956   4.506   5.211   2.146 -0.1582  0.6666  0.7420
  216DG     C12 4957   4.060   5.355   2.009  1.2234 -0.8739  0.9290
  216DG     H13 4958   4.552   5.245   2.053  1.6568 -2.8927  0.1913
  216DG     H14 4959   4.586   5.206   2.220  0.1418 -1.8904  0.3095
  216DG     H15 4960   4.008   5.260   2.019  1.7535 -1.1610  0.9848
  216DG     H16 4961   3.984   5.433   2.016 -1.0516 -2.6827 -1.5004
  216DG     C17 4962   4.386   5.299   2.181  0.2605 -0.6394  0.0672
  216DG     C18 4963   4.166   5.361   2.113 -0.6149 -0.5191 -1.1556
  216DG     O19 4964   4.276   5.278   2.091 -0.5839  0.1924 -0.2031
  216DG     H20 4965   4.423   5.400   2.197  1.3406 -0.8401 -1.0244
  216DG     H21 4966   4.350   5.245   2.269 -0.3789 -1.0520 -0.4342
  216DG     H22 4967   4.193   5.467   2.114 -2.1600 -0.0051  1.9791
  216DG     H23 4968   4.121   5.345   2.211  0.5781 -0.2578 -0.5370
  217DG      C1 4969   1.929   4.466   0.930 -0.1702 -0.4577  0.4594
  217DG      C2 4970   1.182   4.471   0.910 -0.8232  0.2095 -0.0263
  217DG      H3 4971   1.979   4.372   0.907  3.8314 -0.0018  5.3628
  217DG      H4 4972   1.943   4.462   1.038 -1.4514 -2.1618  0.6016
  217DG      H5 4973   1.987   4.545   0.882 -0.2768 -0.9225 -0.4478
  217DG      H6 4974   1.160   4.365   0.901 -0.8291  0.0496  1.6129
  217DG      H7 4975   1.169   4.482   1.017 -3.4136 -0.4642 -0.2049
  217DG      H8 4976   1.107   4.542   0.876 -1.3322  0.4978  1.6095
  217DG      O9 4977   1.798   4.467   0.870 -0.4508 -0.5258  0.0736
  217DG     O10 4978   1.307   4.519   0.864 -0.1952  0.4146  0.0019
  217DG     C11 4979   1.793   4.457   0.727  0.4864  0.1762  0.0285
  217DG     C12 4980   1.314   4.507   0.721  0.8514  0.7166 -0.3123
  217DG     H13 4981   1.771   4.355   0.696  1.0911  0.4428 -1.3301
  217DG     H14 4982   1.891   4.479   0.684 -0.0881  0.6316 -1.0807
  217DG     H15 4983   1.233   4.574   0.691  1.2533  1.1569 -0.4303
  217DG     H16 4984   1.289   4.405   0.691 -0.3858  0.8723  0.1248
  217DG     C17 4985   1.678   4.534   0.666 -0.2143 -0.3371  0.3583
  217DG     C18 4986   1.449   4.562   0.669  0.0591  0.4640  0.0535
  217DG     O19 4987   1.555   4.500   0.726 -0.2129 -0.1582  0.0336
  217DG     H20 4988   1.671   4.510   0.560  0.4554 -0.4367  0.3318
  217DG     H21 4989   1.700   4.640   0.677 -2.6305  0.4178 -1.0877
  217DG     H22 4990   1.445   4.551   0.561  1.0752  1.3951 -0.1026
  217DG     H23 4991   1.456   4.669   0.688  0.3858  0.3993  0.2941
  218DG      C1 4992   0.379   3.728   4.188  0.6860 -0.1793 -0.0533
  218DG      C2 4993  -0.303   4.154   4.117  0.4116  0.2761  0.1052
  218DG      H3 4994   0.411   3.820   4.139 -2.7971 -0.1145 -2.5899
  218DG      H4 4995   0.452   3.649   4.170  1.0475  0.0815  0.2504
  218DG      H5 4996   0.387   3.753   4.294  0.9738  1.0028 -0.3468
  218DG      H6 4997  -0.399   4.142   4.066  0.6977  4.0548 -1.6283
  218DG      H7 4998  -0.319   4.155   4.224  1.6861  0.5689  0.3163
  218DG      H8 4999  -0.279   4.255   4.084 -3.5501  0.9944 -1.0424
  218DG      O9 5000   0.246   3.687   4.156  0.1403 -0.2228  0.4585
  218DG     O10 5001  -0.212   4.058   4.067 -0.0130 -0.2735 -0.1940
  218DG     C11 5002   0.215   3.718   4.021  0.1480 -0.2207 -0.3126
  218DG     C12 5003  -0.237   3.923   4.107 -0.2085 -0.0633  0.5356
  218DG     H13 5004   0.261   3.640   3.961 -3.1855 -0.3924 -2.9758
  218DG     H14 5005   0.257   3.811   3.985 -0.3198  0.6095  1.1724
  218DG     H15 5006  -0.342   3.911   4.080  0.0361 -0.0514 -0.4446
  218DG     H16 5007  -0.232   3.912   4.216  2.3382  2.1246  0.7198
  218DG     C17 5008   0.062   3.714   4.002 -0.0192 -0.2292  0.4914
  218DG     C18 5009  -0.147   3.831   4.022  0.4852 -0.2759 -0.3975
  218DG     O19 5010  -0.006   3.833   4.047  0.2961 -0.3711  0.1937
  218DG     H20 5011   0.020   3.619   4.037  0.2963  0.0334  1.6242
  218DG     H21 5012   0.049   3.709   3.894 -0.1467  1.0732  0.4373
  218DG     H22 5013  -0.181   3.728   4.032  1.2622 -0.7249 -1.9323
  218DG     H23 5014  -0.166   3.855   3.917 -2.1270 -0.2694  0.0074
  219DG      C1 5015   3.643   1.621   1.132 -0.2309 -0.5887  0.4359
  219DG      C2 5016   2.945   1.679   1.149 -1.1973 -0.4261  0.2762
  219DG      H3 5017   3.669   1.695   1.057  2.0981  1.6293  3.1897
  219DG      H4 5018   3.638   1.518   1.098  1.1028 -0.7969  0.8107
  219DG      H5 5019   3.727   1.612   1.202  0.8010  1.1204 -0.5233
  219DG      H6 5020   2.945   1.573   1.173  1.4229 -0.4284  0.5364
  219DG      H7 5021   2.865   1.725   1.206 -2.8217 -0.7681 -1.6219
  219DG      H8 5022   2.920   1.689   1.043 -0.0802 -0.9359 -0.0487
  219DG      O9 5023   3.538   1.680   1.206  0.6392 -0.2100  0.0342
  219DG     O10 5024   3.066   1.737   1.196  0.1022  0.2188 -0.0195
  219DG     C11 5025   3.548   1.817   1.235 -0.1981  0.1641 -0.4143
  219DG     C12 5026   3.077   1.881   1.183  0.2269 -0.0803  0.2229
  219DG     H13 5027   3.554   1.873   1.142  0.6262  0.1137 -0.4026
  219DG     H14 5028   3.644   1.827   1.286 -1.1155  1.0650  1.2352
  219DG     H15 5029   2.989   1.929   1.226 -0.6841 -0.9678 -0.5764
  219DG     H16 5030   3.075   1.907   1.077 -3.4677  0.3943  0.2611
  219DG     C17 5031   3.423   1.864   1.309  0.2165 -0.0485  0.0357
  219DG     C18 5032   3.204   1.934   1.257  0.3403  0.1643 -0.1934
  219DG     O19 5033   3.305   1.836   1.234 -0.1714  0.1955  0.3848
  219DG     H20 5034   3.430   1.970   1.336 -2.7963  0.3722 -0.4460
  219DG     H21 5035   3.423   1.823   1.410  1.1276  0.0969  0.0995
  219DG     H22 5036   3.238   2.033   1.227 -0.2116  0.7604  1.1128
  219DG     H23 5037   3.194   1.923   1.365  0.0447 -0.7548 -0.3031
  220DG      C1 5038   4.732   1.821   5.396 -0.3861  0.9822  0.0526
  220DG      C2 5039   5.084   2.311   5.230 -0.3566  0.2319 -0.5527
  220DG      H3 5040   4.692   1.818   5.294  2.6966 -0.9297 -1.2369
  220DG      H4 5041   4.691   1.908   5.449 -1.7206  1.6111 -1.8742
  220DG      H5 5042   4.708   1.735   5.458 -1.0402  1.1384  0.0306
  220DG      H6 5043   5.014   2.329   5.148 -0.5313  0.7357 -0.2992
  220DG      H7 5044   5.025   2.343   5.316  0.2601  1.4743 -0.5796
  220DG      H8 5045   5.172   2.374   5.224  0.9982 -1.4915  0.0999
  220DG      O9 5046   4.873   1.839   5.368 -0.2730  1.1020 -0.1671
  220DG     O10 5047   5.118   2.170   5.246  0.4370 -0.1319  0.3730
  220DG     C11 5048   4.953   1.792   5.484 -0.2305 -0.5917  0.4478
  220DG     C12 5049   5.226   2.150   5.342  0.0877  0.9584 -0.4420
  220DG     H13 5050   4.947   1.684   5.491  0.1663 -0.7066 -0.7553
  220DG     H14 5051   4.915   1.830   5.579 -2.1199  0.5172 -0.6774
  220DG     H15 5052   5.195   2.198   5.435 -0.8716  2.0629 -1.3087
  220DG     H16 5053   5.326   2.184   5.318  0.2803  0.6949 -0.0329
  220DG     C17 5054   5.102   1.830   5.465 -0.5517 -0.5416  0.3208
  220DG     C18 5055   5.233   1.991   5.357 -0.5116  0.4041 -0.6107
  220DG     O19 5056   5.107   1.959   5.406  0.4017  0.0514  0.7137
  220DG     H20 5057   5.140   1.753   5.397 -2.8905 -2.0845  0.6311
  220DG     H21 5058   5.166   1.818   5.553  3.9143 -0.8506 -2.5965
  220DG     H22 5059   5.258   1.943   5.262 -1.8322 -0.5974 -0.4753
  220DG     H23 5060   5.304   1.977   5.437 -2.6541 -0.7254  1.2073
  221DG      C1 5061   1.483   3.415   3.288  0.6255 -0.2664  0.0707
  221DG      C2 5062   2.074   3.735   3.132 -0.1118  0.1179  0.3368
  221DG      H3 5063   1.411   3.378   3.361 -0.6152  1.8039 -0.0136
  221DG      H4 5064   1.512   3.327   3.230  1.1977  1.1867 -1.9791
  221DG      H5 5065   1.419   3.484   3.233  1.4175  1.6135  1.4053
  221DG      H6 5066   2.103   3.799   3.049 -1.6329 -1.1912 -1.2670
  221DG      H7 5067   2.124   3.780   3.218  0.5731 -1.7430  0.9667
  221DG      H8 5068   2.115   3.638   3.104  0.0057  0.0419  0.7600
  221DG      O9 5069   1.595   3.478   3.335 -0.0045  0.1789  0.4276
  221DG     O10 5070   1.937   3.725   3.134 -0.2177  0.4100 -0.2840
  221DG     C11 5071   1.568   3.597   3.403 -0.0559 -0.5328 -0.3981
  221DG     C12 5072   1.873   3.847   3.147 -0.2530  1.1651 -0.7131
  221DG     H13 5073   1.652   3.635   3.461 -1.5684 -0.1720  1.6288
  221DG     H14 5074   1.482   3.593   3.469  0.4806  2.7320  0.6959
  221DG     H15 5075   1.912   3.914   3.071 -0.6512  0.6656 -1.3598
  221DG     H16 5076   1.909   3.887   3.242 -2.3889  2.1220 -0.2304
  221DG     C17 5077   1.567   3.720   3.305  0.8534 -0.0668  0.3869
  221DG     C18 5078   1.723   3.833   3.160 -0.9514  0.1760 -0.6629
  221DG     O19 5079   1.703   3.746   3.271  0.1062  0.3198  0.3334
  221DG     H20 5080   1.513   3.806   3.346 -0.2037 -0.9233  0.8273
  221DG     H21 5081   1.514   3.687   3.216 -0.6186  1.5769  0.6040
  221DG     H22 5082   1.674   3.927   3.185  1.0626  1.6513 -1.8979
  221DG     H23 5083   1.687   3.808   3.060  0.7265  0.0050 -1.2655
  222DG      C1 5084   0.347   0.127   4.043  0.2427 -0.2897 -0.0985
  222DG      C2 5085  -0.071   0.286   3.441  1.0641 -0.4197  0.3066
  222DG      H3 5086   0.361   0.020   4.029 -0.3915 -0.6135  1.5524
  222DG      H4 5087   0.243   0.137   4.074 -0.6966  0.6284 -3.1925
  222DG      H5 5088   0.421   0.150   4.120 -0.3754  1.7564 -0.0321
  222DG      H6 5089  -0.007   0.198   3.453 -0.7779 -1.6070  2.0924
  222DG      H7 5090  -0.171   0.245   3.455  0.1094  1.2414 -1.2685
  222DG      H8 5091  -0.072   0.332   3.343 -1.1755 -0.6081  0.1898
  222DG      O9 5092   0.368   0.198   3.919 -0.2418  0.5213 -0.1300
  222DG     O10 5093  -0.018   0.377   3.532  0.1932 -0.1628 -0.3177
  222DG     C11 5094   0.347   0.342   3.924 -0.2369  0.2149 -0.2621
  222DG     C12 5095  -0.057   0.344   3.666  0.2694 -0.6577 -0.3547
  222DG     H13 5096   0.410   0.379   3.844 -0.5214  0.1716 -0.5078
  222DG     H14 5097   0.389   0.386   4.014  1.2807 -1.5638 -0.0408
  222DG     H15 5098  -0.040   0.240   3.695 -0.5695 -0.2879  1.6440
  222DG     H16 5099  -0.164   0.363   3.674  0.4584 -0.4951  2.5942
  222DG     C17 5100   0.209   0.401   3.906 -0.2964 -0.3401 -0.2157
  222DG     C18 5101   0.023   0.412   3.779 -0.6210  0.7613  0.7373
  222DG     O19 5102   0.148   0.346   3.793 -0.1636  0.1698  0.3825
  222DG     H20 5103   0.213   0.509   3.893 -2.7458 -0.1180  0.2802
  222DG     H21 5104   0.152   0.382   3.998 -1.1199 -0.1276 -0.6751
  222DG     H22 5105   0.033   0.517   3.751 -1.0247  0.6018 -0.0505
  222DG     H23 5106  -0.031   0.404   3.873 -0.0929  0.3222  1.0125
  223DG      C1 5107   5.180   0.685   1.811  0.4026  0.4772  0.2451
  223DG      C2 5108   5.488   0.558   2.490  0.9004 -0.0658 -0.0042
  223DG      H3 5109   5.261   0.754   1.831 -0.5085  1.9657 -0.9575
  223DG      H4 5110   5.092   0.748   1.799  1.0921  1.7314  1.5332
  223DG      H5 5111   5.197   0.647   1.710  2.2915  1.5588  0.1206
  223DG      H6 5112   5.428   0.629   2.548  0.3864  1.1387 -1.9118
  223DG      H7 5113   5.501   0.477   2.562 -2.2817  0.1885  1.0043
  223DG      H8 5114   5.570   0.625   2.462  0.7716  1.2807  2.5784
  223DG      O9 5115   5.142   0.578   1.900 -0.7373 -0.6743  0.6014
  223DG     O10 5116   5.414   0.518   2.372 -0.3256  0.5668 -0.3374
  223DG     C11 5117   5.078   0.623   2.017 -0.8919 -0.0239  0.2907
  223DG     C12 5118   5.291   0.464   2.405 -0.1096  0.3919 -0.5237
  223DG     H13 5119   4.978   0.650   1.981 -0.3847 -0.6384 -1.6867
  223DG     H14 5120   5.121   0.721   2.039  0.3758 -1.0691  2.9205
  223DG     H15 5121   5.232   0.545   2.449  0.2561  0.3064  0.1333
  223DG     H16 5122   5.280   0.393   2.487 -1.3063  1.6134  0.4275
  223DG     C17 5123   5.086   0.534   2.142 -0.3828 -0.4724 -0.1777
  223DG     C18 5124   5.230   0.404   2.280  0.1347  0.5326 -0.1812
  223DG     O19 5125   5.211   0.493   2.173 -0.5149  0.1677  0.3628
  223DG     H20 5126   5.022   0.446   2.131 -1.1437 -0.1695  1.5016
  223DG     H21 5127   5.044   0.597   2.221 -1.1084 -0.6922 -0.3869
  223DG     H22 5128   5.298   0.326   2.248  0.4545  0.5310  0.4728
  223DG     H23 5129   5.138   0.347   2.289 -0.5110  1.0324 -2.8005
  224DG      C1 5130   4.065   0.057   4.472  0.5241 -0.4639  0.1463
  224DG      C2 5131   3.913   0.663   4.579  0.1954  0.5437 -0.0552
  224DG      H3 5132   4.047   0.135   4.398 -0.5203 -2.0352 -1.3175
  224DG      H4 5133   3.969   0.005   4.475  1.3302 -2.0961 -1.1582
  224DG      H5 5134   4.147  -0.006   4.440 -0.3013 -1.0334 -0.8964
  224DG      H6 5135   3.815   0.631   4.543 -0.6299  3.1748 -0.3502
  224DG      H7 5136   3.899   0.761   4.624  0.4876  0.0244  1.2166
  224DG      H8 5137   3.980   0.677   4.494 -0.8699  0.4010 -0.9338
  224DG      O9 5138   4.079   0.120   4.599 -0.2098 -0.4159 -0.4387
  224DG     O10 5139   3.956   0.560   4.668  0.1232  0.7078 -0.8008
  224DG     C11 5140   4.210   0.170   4.620 -0.6751  1.0403 -0.0945
  224DG     C12 5141   4.081   0.589   4.722 -0.2430  0.3906  0.7030
  224DG     H13 5142   4.263   0.215   4.536  2.9176 -1.7780  0.4184
  224DG     H14 5143   4.268   0.085   4.655 -3.0700 -0.7052 -0.1102
  224DG     H15 5144   4.075   0.676   4.788 -1.0440  0.9760 -0.1123
  224DG     H16 5145   4.145   0.611   4.637 -0.8461  0.1933  0.1867
  224DG     C17 5146   4.203   0.259   4.746  0.8180 -0.1019  0.0825
  224DG     C18 5147   4.137   0.474   4.802  0.1613  0.1096  0.0715
  224DG     O19 5148   4.150   0.378   4.702  0.5810  0.8751  0.3303
  224DG     H20 5149   4.305   0.279   4.778  1.0736 -0.3349 -0.5602
  224DG     H21 5150   4.141   0.217   4.825 -0.5713  1.3976 -0.1645
  224DG     H22 5151   4.233   0.500   4.845  0.5988  0.4400 -1.0760
  224DG     H23 5152   4.065   0.457   4.882  1.3278  1.6883  1.5082
  225DG      C1 5153   3.472   1.810   4.321  0.2053  0.4888 -0.7193
  225DG      C2 5154   3.310   1.960   3.489 -0.2688 -0.3409 -0.1308
  225DG      H3 5155   3.558   1.762   4.369 -1.5957 -1.1918  1.0783
  225DG      H4 5156   3.403   1.727   4.305  1.2559 -0.4107 -0.7673
  225DG      H5 5157   3.418   1.874   4.391 -1.6341 -2.4238  0.7555
  225DG      H6 5158   3.241   2.023   3.433  0.8177  2.1494  1.1722
  225DG      H7 5159   3.412   1.954   3.451 -1.0845 -1.6552 -2.2998
  225DG      H8 5160   3.280   1.855   3.481  0.5211 -0.8245  2.2800
  225DG      O9 5161   3.489   1.872   4.199  0.1678  0.2322  0.2319
  225DG     O10 5162   3.314   2.004   3.628 -0.6230 -0.5329 -0.6361
  225DG     C11 5163   3.573   1.799   4.109 -0.1417  0.2517  0.9824
  225DG     C12 5164   3.411   1.932   3.710  0.1029 -0.7366 -0.2356
  225DG     H13 5165   3.540   1.697   4.091 -0.0395  0.7459 -3.0263
  225DG     H14 5166   3.678   1.802   4.136 -0.3199 -0.0394  1.7412
  225DG     H15 5167   3.506   1.959   3.664 -2.0948 -0.3877 -5.3268
  225DG     H16 5168   3.397   1.824   3.710 -0.5596 -0.6881  1.7883
  225DG     C17 5169   3.558   1.865   3.970  0.1141  0.2144 -0.2061
  225DG     C18 5170   3.384   1.980   3.854 -0.2527  0.1370  0.5729
  225DG     O19 5171   3.419   1.887   3.950  0.0349 -0.1245 -0.6001
  225DG     H20 5172   3.612   1.818   3.888 -0.2661 -2.3021  0.9150
  225DG     H21 5173   3.596   1.966   3.986  0.3852  0.0672  0.0909
  225DG     H22 5174   3.421   2.081   3.865 -0.9949  0.4928 -0.1091
  225DG     H23 5175   3.277   1.994   3.867 -0.5065 -0.6429 -0.5331
  226DG      C1 5176   2.163   2.143   5.122 -0.1217  0.1446  0.0700
  226DG      C2 5177   1.680   2.284   4.644  0.7160  0.2013 -0.2923
  226DG      H3 5178   2.133   2.246   5.142  0.1885  0.5516 -1.4483
  226DG      H4 5179   2.265   2.156   5.087 -0.1935  2.4042  0.5185
  226DG      H5 5180   2.170   2.072   5.204 -1.3808 -0.1606 -0.0622
  226DG      H6 5181   1.753   2.350   4.597 -0.0135 -0.6137 -2.7177
  226DG      H7 5182   1.599   2.250   4.579 -0.6576  0.4821  1.2231
  226DG      H8 5183   1.635   2.346   4.721  0.6643 -1.1623  0.8049
  226DG      O9 5184   2.079   2.090   5.020  0.3013  0.4184 -0.9109
  226DG     O10 5185   1.744   2.179   4.724 -0.4990  0.2759 -0.0900
  226DG     C11 5186   2.128   1.972   4.952 -0.1818  0.4826 -0.5036
  226DG     C12 5187   1.785   2.073   4.631  0.3069 -0.3906  0.3452
  226DG     H13 5188   2.172   1.898   5.019 -1.9642  1.9478  2.4963
  226DG     H14 5189   2.203   2.001   4.879 -1.7635 -0.4185 -2.6031
  226DG     H15 5190   1.860   2.125   4.571  0.1868  1.0543  1.3909
  226DG     H16 5191   1.705   2.040   4.565  1.9545  2.1428 -3.2272
  226DG     C17 5192   2.028   1.907   4.862  0.1897  0.1476 -0.7255
  226DG     C18 5193   1.856   1.960   4.701  0.3959 -0.1775 -0.7271
  226DG     O19 5194   1.969   2.011   4.776 -0.0625 -0.2358 -0.3616
  226DG     H20 5195   1.945   1.868   4.921  0.7510  0.4316  0.2788
  226DG     H21 5196   2.077   1.833   4.799  2.3881 -1.8609  2.9747
  226DG     H22 5197   1.780   1.909   4.761 -1.4267 -0.6558 -3.2480
  226DG     H23 5198   1.887   1.884   4.629 -0.5361 -0.4033 -0.9103
  227DG      C1 5199   2.004   3.580   3.486  0.0657 -0.0096  0.2517
  227DG      C2 5200   1.641   3.449   2.905 -0.2163 -0.0248  0.1647
  227DG      H3 5201   2.065   3.639   3.419 -0.1498  0.6861  0.6491
  227DG      H4 5202   2.067   3.545   3.568 -0.1055 -0.4499  0.1962
  227DG      H5 5203   1.932   3.644   3.538  0.2802 -0.3945  1.0427
  227DG      H6 5204   1.568   3.369   2.901  2.0294 -2.3381  1.8890
  227DG      H7 5205   1.589   3.543   2.925  0.4877  0.6139 -0.8942
  227DG      H8 5206   1.691   3.475   2.812 -0.9158  2.7206  0.4731
  227DG      O9 5207   1.937   3.473   3.409 -0.3868  0.1186 -0.1029
  227DG     O10 5208   1.721   3.408   3.012  0.3540 -1.3337 -0.0771
  227DG     C11 5209   2.030   3.365   3.390  0.1571  0.6136 -0.8650
  227DG     C12 5210   1.774   3.282   3.003 -0.1180 -0.5460 -0.2341
  227DG     H13 5211   2.059   3.323   3.486 -1.1347 -0.4635 -0.9224
  227DG     H14 5212   2.120   3.398   3.339 -0.4361  2.5067 -0.7745
  227DG     H15 5213   1.870   3.277   2.952 -1.1511 -3.8453 -2.2032
  227DG     H16 5214   1.712   3.207   2.953  0.9433  0.6319 -3.5441
  227DG     C17 5215   1.965   3.254   3.312  0.1941  0.5641 -0.1588
  227DG     C18 5216   1.800   3.220   3.137  1.0909 -0.2745  0.1078
  227DG     O19 5217   1.885   3.307   3.203  0.3238 -0.1445 -0.0601
  227DG     H20 5218   1.910   3.189   3.380  2.3737  0.1613  1.3157
  227DG     H21 5219   2.045   3.191   3.271 -0.7741 -2.2908  2.0399
  227DG     H22 5220   1.714   3.205   3.202  0.9637  0.9699  0.2525
  227DG     H23 5221   1.845   3.121   3.134  2.3140  0.2221  1.0528
  228DG      C1 5222   4.823   2.062   4.981 -0.6754  0.8247 -0.1172
  228DG      C2 5223   4.930   2.174   5.675 -1.1525  0.1103  0.6787
  228DG      H3 5224   4.837   1.958   5.010  0.7511  0.1679 -2.8449
  228DG      H4 5225   4.923   2.091   4.947 -0.5743  0.6199  0.0032
  228DG      H5 5226   4.750   2.078   4.902 -1.5305 -0.4250  0.3954
  228DG      H6 5227   5.038   2.158   5.667 -1.2139  0.4879 -1.4561
  228DG      H7 5228   4.900   2.237   5.759  0.5165 -0.3515  1.6757
  228DG      H8 5229   4.881   2.079   5.692 -1.5574  0.4763  1.6356
  228DG      O9 5230   4.791   2.147   5.088  0.3789  0.7034 -0.5119
  228DG     O10 5231   4.885   2.227   5.548 -0.2091 -0.0474  0.5531
  228DG     C11 5232   4.657   2.129   5.131 -0.5202  0.0962  0.1786
  228DG     C12 5233   4.750   2.277   5.568 -1.0248 -0.2600  0.0977
  228DG     H13 5234   4.642   2.029   5.173  2.9800 -0.8301 -0.4359
  228DG     H14 5235   4.610   2.131   5.033  1.1067  2.4014 -0.6426
  228DG     H15 5236   4.764   2.366   5.630 -1.5536  0.6832 -1.0911
  228DG     H16 5237   4.683   2.209   5.620 -3.4105  0.5939 -1.6193
  228DG     C17 5238   4.611   2.238   5.231  0.0317 -0.2833 -0.0094
  228DG     C18 5239   4.681   2.326   5.440  0.0407 -0.2499 -0.0621
  228DG     O19 5240   4.681   2.216   5.353 -0.7502 -0.7545  0.0209
  228DG     H20 5241   4.503   2.226   5.236 -0.2997  1.2624 -2.1083
  228DG     H21 5242   4.627   2.337   5.187  1.5341 -0.7139 -0.4839
  228DG     H22 5243   4.585   2.370   5.467 -0.3920 -0.6358 -0.9194
  228DG     H23 5244   4.750   2.396   5.392 -0.5224  0.6476  0.4106
  229DG      C1 5245   0.103   2.040   4.495  0.1876 -0.3499 -0.3396
  229DG      C2 5246   0.177   2.614   4.202  0.3815  0.4908 -0.0548
  229DG      H3 5247   0.020   2.091   4.543  0.2045  0.4147 -1.0989
  229DG      H4 5248   0.195   2.062   4.547 -1.0228  2.7794  0.6932
  229DG      H5 5249   0.085   1.932   4.499 -0.1319 -0.2538  1.0370
  229DG      H6 5250   0.245   2.630   4.286  0.4444 -2.5137  0.5821
  229DG      H7 5251   0.191   2.696   4.130  2.4416 -0.6522 -1.0639
  229DG      H8 5252   0.079   2.613   4.249  0.9014  1.7619  1.1167
  229DG      O9 5253   0.120   2.095   4.369 -0.0764 -0.7983  0.1250
  229DG     O10 5254   0.223   2.492   4.143 -0.2611 -1.0159 -0.0322
  229DG     C11 5255   0.208   2.031   4.272 -0.2273  0.1973  0.1762
  229DG     C12 5256   0.147   2.441   4.038 -0.2364 -0.7239  0.0776
  229DG     H13 5257   0.176   1.927   4.258  0.6472 -0.0862  0.2601
  229DG     H14 5258   0.315   2.040   4.290 -0.3935  0.6834  0.9756
  229DG     H15 5259   0.177   2.492   3.946 -0.2184 -0.7986  0.0418
  229DG     H16 5260   0.039   2.458   4.047 -0.0035  0.7263  0.3802
  229DG     C17 5261   0.185   2.102   4.143 -0.1024  0.5620 -0.5299
  229DG     C18 5262   0.180   2.293   4.022  0.5881 -0.1426  0.5238
  229DG     O19 5263   0.170   2.243   4.151 -0.1582 -0.2527 -0.4238
  229DG     H20 5264   0.089   2.059   4.115 -0.7201 -0.9298  3.2698
  229DG     H21 5265   0.266   2.076   4.074  0.3619 -0.9207  0.5231
  229DG     H22 5266   0.105   2.257   3.951 -1.4271  1.4154  1.7479
  229DG     H23 5267   0.279   2.278   3.978  0.1906 -0.5367 -0.2517
  230DG      C1 5268   4.752   4.507   0.595 -0.3469  0.2844  0.3823
  230DG      C2 5269   5.270   4.414   1.169 -0.9974 -0.1827 -0.7464
  230DG      H3 5270   4.670   4.577   0.574  0.0987  1.8315  3.3787
  230DG      H4 5271   4.706   4.411   0.621  2.3549 -1.5289 -1.0926
  230DG      H5 5272   4.803   4.486   0.501 -1.3358 -1.3694  0.1642
  230DG      H6 5273   5.365   4.453   1.131 -1.2234  0.1526 -0.9721
  230DG      H7 5274   5.233   4.470   1.254  2.0229  0.0222  0.5370
  230DG      H8 5275   5.279   4.309   1.197 -3.4900  0.1354  1.6543
  230DG      O9 5276   4.843   4.559   0.683  0.1062  0.3149 -0.3679
  230DG     O10 5277   5.180   4.418   1.063  0.1850  0.0492 -0.2004
  230DG     C11 5278   4.832   4.515   0.815 -0.2658 -0.4631 -0.8201
  230DG     C12 5279   5.221   4.359   0.936  0.1836 -0.5685  0.5406
  230DG     H13 5280   4.805   4.409   0.822 -0.2067 -0.3770  3.3052
  230DG     H14 5281   4.749   4.564   0.866 -0.2363 -1.7365  0.5132
  230DG     H15 5282   5.273   4.264   0.950 -0.5549 -1.3002 -1.2557
  230DG     H16 5283   5.292   4.428   0.891  1.7055 -0.9817  2.1870
  230DG     C17 5284   4.962   4.541   0.890  0.1208  0.0131  0.7720
  230DG     C18 5285   5.097   4.343   0.859  0.4769 -0.0261  0.0097
  230DG     O19 5286   5.061   4.471   0.815 -0.4747 -0.1522 -0.1540
  230DG     H20 5287   4.951   4.506   0.992 -1.6728 -0.8272  0.3249
  230DG     H21 5288   4.983   4.648   0.891 -2.6930  0.6271  1.3581
  230DG     H22 5289   5.125   4.298   0.764  0.0753  0.2531 -0.2425
  230DG     H23 5290   5.007   4.298   0.902 -1.3141  2.4633 -0.9047
  231DG      C1 5291   3.398   2.769   3.234 -0.3848  0.7707 -0.2352
  231DG      C2 5292   3.701   2.562   2.664  0.3910 -0.1271 -0.4685
  231DG      H3 5293   3.374   2.861   3.288 -1.2115 -0.0036  0.7834
  231DG      H4 5294   3.391   2.692   3.311 -0.6961 -0.0843 -1.1081
  231DG      H5 5295   3.320   2.755   3.159 -0.3033 -2.9084  0.2135
  231DG      H6 5296   3.791   2.540   2.721 -1.1550 -0.4801  1.9985
  231DG      H7 5297   3.673   2.500   2.578 -0.1149  0.2910 -0.6130
  231DG      H8 5298   3.696   2.663   2.624 -0.7364  0.0771  0.1340
  231DG      O9 5299   3.529   2.768   3.181  0.7052  0.2419  0.4267
  231DG     O10 5300   3.607   2.548   2.767 -0.1652  0.5163  0.0729
  231DG     C11 5301   3.561   2.888   3.104  0.4060 -0.1887  0.1594
  231DG     C12 5302   3.479   2.595   2.733 -0.7832 -0.6745 -0.2270
  231DG     H13 5303   3.669   2.887   3.096  0.5286  1.6494  1.0160
  231DG     H14 5304   3.532   2.984   3.148 -1.3445 -0.8345  0.5253
  231DG     H15 5305   3.405   2.539   2.790 -0.5515 -0.5156  0.2440
  231DG     H16 5306   3.452   2.579   2.629 -1.4273 -1.9428  0.1114
  231DG     C17 5307   3.493   2.883   2.963  0.4101 -0.3512  0.6411
  231DG     C18 5308   3.464   2.739   2.773  0.4701 -0.1850 -0.0893
  231DG     O19 5309   3.510   2.748   2.903  0.6045 -0.9383 -0.2561
  231DG     H20 5310   3.536   2.953   2.892  0.8967 -2.1188 -0.8682
  231DG     H21 5311   3.388   2.912   2.978  0.2935 -0.6255  0.3579
  231DG     H22 5312   3.529   2.804   2.715 -1.5849  1.9713 -0.1479
  231DG     H23 5313   3.366   2.785   2.758  0.8862  0.0551 -2.5806
  232DG      C1 5314   1.462   3.024   1.377  0.3025  0.1483  0.3012
  232DG      C2 5315   2.167   2.927   0.832  0.0342 -0.3679  0.1151
  232DG      H3 5316   1.365   2.993   1.417  0.3008  1.4116  1.3105
  232DG      H4 5317   1.458   3.126   1.338  0.5607  0.3278  0.7413
  232DG      H5 5318   1.524   3.031   1.466  1.4621  2.5050 -0.6133
  232DG      H6 5319   2.242   2.967   0.901 -0.4504 -0.1703  0.5351
  232DG      H7 5320   2.198   2.824   0.812 -1.0909 -0.8510  0.7868
  232DG      H8 5321   2.156   2.990   0.744  1.0934 -0.6104 -0.2120
  232DG      O9 5322   1.507   2.934   1.270  0.2248  0.0968  0.1308
  232DG     O10 5323   2.041   2.922   0.908 -0.5757 -0.1326 -0.6582
  232DG     C11 5324   1.629   2.984   1.201 -0.2821 -0.3494  0.1979
  232DG     C12 5325   1.930   2.924   0.824 -0.1877 -0.1982  0.5374
  232DG     H13 5326   1.710   2.974   1.274  2.1659  2.0000 -1.9733
  232DG     H14 5327   1.614   3.089   1.175  0.4685 -0.4747 -0.8193
  232DG     H15 5328   1.950   2.858   0.740 -1.5411  1.4648 -1.1896
  232DG     H16 5329   1.919   3.025   0.786  0.9041 -0.1220  0.4092
  232DG     C17 5330   1.667   2.907   1.077  0.1797 -0.1752  1.6707
  232DG     C18 5331   1.798   2.884   0.892 -1.2434 -0.2086  0.2865
  232DG     O19 5332   1.774   2.966   1.003 -0.0574  0.1462  0.5995
  232DG     H20 5333   1.585   2.869   1.016  0.1052  1.6514  0.5494
  232DG     H21 5334   1.716   2.814   1.104 -2.4414 -2.1921 -0.0268
  232DG     H22 5335   1.714   2.886   0.822 -0.4033  0.2896 -0.7246
  232DG     H23 5336   1.808   2.777   0.912 -1.0878 -0.0918  0.8450
  233DG      C1 5337   0.346   0.358   3.112 -0.2852 -0.0639  0.0612
  233DG      C2 5338   0.892   0.946   3.314 -0.2083  0.0500 -0.0440
  233DG      H3 5339   0.249   0.351   3.160 -0.6696  2.6568 -0.1157
  233DG      H4 5340   0.431   0.301   3.150 -1.3829 -1.8658 -0.0814
  233DG      H5 5341   0.332   0.327   3.008  0.8082 -0.6402  0.0702
  233DG      H6 5342   0.959   0.895   3.245  1.2215  0.1032  1.2631
  233DG      H7 5343   0.930   1.047   3.317  0.6415 -0.1302 -2.4502
  233DG      H8 5344   0.908   0.895   3.409  0.9660  0.5031  0.0086
  233DG      O9 5345   0.376   0.496   3.123 -0.5822 -0.1095  0.7912
  233DG     O10 5346   0.756   0.961   3.278  0.9338 -0.1351 -0.0704
  233DG     C11 5347   0.484   0.533   3.035  0.0653 -0.4131 -0.3535
  233DG     C12 5348   0.708   0.842   3.226 -0.6441 -0.0248  0.4517
  233DG     H13 5349   0.477   0.492   2.935 -1.2924 -0.7201 -0.1483
  233DG     H14 5350   0.568   0.484   3.084  0.7901  0.8738 -0.2509
  233DG     H15 5351   0.731   0.758   3.292 -3.1743 -1.4646 -0.3704
  233DG     H16 5352   0.753   0.819   3.130  1.3932 -3.3985  2.0263
  233DG     C17 5353   0.526   0.672   3.045  0.9274 -0.2166 -0.4922
  233DG     C18 5354   0.560   0.847   3.212  0.7392 -0.1615 -0.7461
  233DG     O19 5355   0.495   0.722   3.173  0.3950  0.3705  0.2966
  233DG     H20 5356   0.488   0.726   2.958 -0.5013  2.4062  1.6031
  233DG     H21 5357   0.631   0.687   3.020  1.2127  0.4417  1.0023
  233DG     H22 5358   0.507   0.879   3.302  0.2062  1.4754 -1.5802
  233DG     H23 5359   0.535   0.932   3.148 -0.6044  0.2551  0.2867
  234DG      C1 5360   4.430   2.347   4.210  0.2275  0.2253 -0.0271
  234DG      C2 5361   4.480   2.502   3.555  0.1199 -0.5123  0.1648
  234DG      H3 5362   4.330   2.316   4.180  1.1052 -0.2814 -2.6941
  234DG      H4 5363   4.416   2.381   4.313  0.7987  1.4514 -0.3322
  234DG      H5 5364   4.496   2.260   4.210  0.8675  0.7003 -0.2189
  234DG      H6 5365   4.382   2.459   3.536  1.3244 -3.4760  0.0967
  234DG      H7 5366   4.497   2.557   3.462 -3.6121  0.3900 -0.1290
  234DG      H8 5367   4.536   2.409   3.556 -2.9692 -2.4772  1.0398
  234DG      O9 5368   4.474   2.438   4.115 -0.1554 -0.5787  0.2194
  234DG     O10 5369   4.495   2.580   3.672  0.3145 -0.6978  0.2363
  234DG     C11 5370   4.602   2.489   4.146 -0.2666  0.1639  0.0892
  234DG     C12 5371   4.633   2.606   3.697  0.4232  0.3345  0.0805
  234DG     H13 5372   4.672   2.406   4.139  0.1230  0.5621 -0.9648
  234DG     H14 5373   4.611   2.513   4.252  0.2064 -0.5120  0.2088
  234DG     H15 5374   4.669   2.667   3.614 -1.3516  0.0110 -0.9886
  234DG     H16 5375   4.697   2.517   3.696  0.1560  0.1197  1.2020
  234DG     C17 5376   4.641   2.605   4.053  0.2649  0.3670 -0.9221
  234DG     C18 5377   4.662   2.664   3.836 -0.1395  0.1362  0.4602
  234DG     O19 5378   4.624   2.563   3.923 -0.1305 -0.1134 -0.0630
  234DG     H20 5379   4.745   2.634   4.068  0.9923 -1.9004 -1.1593
  234DG     H21 5380   4.583   2.694   4.075  2.2101  1.3945  0.3533
  234DG     H22 5381   4.767   2.692   3.846 -0.4996  1.7292  0.0192
  234DG     H23 5382   4.597   2.751   3.839 -1.7826 -1.0301  0.1645
  235DG      C1 5383   5.496   0.988   1.782 -0.0760 -0.8748  0.9193
  235DG      C2 5384   6.162   1.409   2.004  0.3160  0.0495  0.3089
  235DG      H3 5385   5.426   0.904   1.781 -0.7175 -0.3586  1.4452
  235DG      H4 5386   5.460   1.070   1.720 -1.1273 -2.0319 -0.0688
  235DG      H5 5387   5.483   1.016   1.887  2.1179  0.3492  0.9081
  235DG      H6 5388   6.104   1.490   1.960  1.5807  0.1025 -1.3946
  235DG      H7 5389   6.151   1.421   2.111  1.5565  2.6420  0.2243
  235DG      H8 5390   6.265   1.425   1.973 -0.3573  2.1158 -1.1180
  235DG      O9 5391   5.630   0.964   1.748 -0.2917 -0.0778  0.2467
  235DG     O10 5392   6.101   1.285   1.962 -0.4460  0.1149  0.4648
  235DG     C11 5393   5.712   1.074   1.792  0.0524  0.3820 -0.2855
  235DG     C12 5394   6.147   1.248   1.831  0.2961  0.6189 -0.7790
  235DG     H13 5395   5.706   1.098   1.898  0.8721 -1.5306  0.2527
  235DG     H14 5396   5.711   1.163   1.729 -0.8104  1.0474  0.6534
  235DG     H15 5397   6.253   1.225   1.830  0.0490 -1.1687  1.9901
  235DG     H16 5398   6.119   1.317   1.751  1.6470 -1.3791 -3.1104
  235DG     C17 5399   5.856   1.029   1.769 -0.1331  0.3415 -0.3643
  235DG     C18 5400   6.074   1.117   1.796 -0.6407  0.4855  0.0256
  235DG     O19 5401   5.938   1.132   1.822 -0.2564  0.5944  0.1344
  235DG     H20 5402   5.867   1.035   1.661  0.8055  1.8529 -0.2075
  235DG     H21 5403   5.865   0.927   1.806  4.5018  0.4590 -0.6667
  235DG     H22 5404   6.097   1.099   1.691  0.2471  0.2809  0.2522
  235DG     H23 5405   6.106   1.037   1.862 -0.7399  1.4027  1.2158
  236DG      C1 5406   0.125   0.673   0.302 -0.9123 -0.2188 -0.2395
  236DG      C2 5407   0.207   0.118  -0.052  0.1276  0.5435 -0.2515
  236DG      H3 5408   0.061   0.593   0.337 -0.0831 -0.3434  1.0305
  236DG      H4 5409   0.067   0.763   0.281 -1.4736 -0.2073  1.2953
  236DG      H5 5410   0.189   0.688   0.389  1.1676  0.1261 -1.7452
  236DG      H6 5411   0.277   0.034  -0.049 -2.2394 -1.5584 -0.3759
  236DG      H7 5412   0.135   0.099   0.028  0.0019  2.0031  0.0009
  236DG      H8 5413   0.165   0.121  -0.153  0.4078  1.1784 -0.3523
  236DG      O9 5414   0.191   0.628   0.188  0.0943 -0.0953 -0.3566
  236DG     O10 5415   0.264   0.240  -0.011  0.3585 -0.5050 -0.1929
  236DG     C11 5416   0.333   0.655   0.194  0.5255  0.3862 -0.2407
  236DG     C12 5417   0.392   0.264  -0.069 -0.3362  0.5775  0.2618
  236DG     H13 5418   0.378   0.599   0.277 -0.4072 -0.5091 -0.3236
  236DG     H14 5419   0.354   0.760   0.217  2.4721 -0.0002 -0.0477
  236DG     H15 5420   0.417   0.216  -0.164  1.5522  1.5648  0.2086
  236DG     H16 5421   0.468   0.207  -0.015 -0.8240  0.1175  0.4719
  236DG     C17 5422   0.398   0.615   0.059  0.2290 -0.2706  0.0164
  236DG     C18 5423   0.423   0.415  -0.075 -0.3869 -0.2746 -0.2434
  236DG     O19 5424   0.379   0.472   0.046 -0.2209 -0.5450 -0.2453
  236DG     H20 5425   0.504   0.641   0.063  0.7008 -1.8897 -0.8164
  236DG     H21 5426   0.341   0.671  -0.015  1.1307  1.1531  0.3587
  236DG     H22 5427   0.532   0.419  -0.079 -0.1026 -2.6913  2.2257
  236DG     H23 5428   0.391   0.456  -0.171  2.2397 -1.2934 -1.6564
  237DG      C1 5429   0.354   2.295   1.832  0.0010  0.0290 -0.5990
  237DG      C2 5430   0.986   2.157   2.105  0.5100  0.4690 -0.8345
  237DG      H3 5431   0.270   2.271   1.767 -0.8569  0.5986  0.2832
  237DG      H4 5432   0.396   2.392   1.804  1.0832 -0.3261 -0.2468
  237DG      H5 5433   0.331   2.318   1.936  2.1136  1.6678 -0.4172
  237DG      H6 5434   1.061   2.089   2.147  0.5310  0.1676 -1.3442
  237DG      H7 5435   1.046   2.223   2.043  2.4959 -0.1679  0.3007
  237DG      H8 5436   0.943   2.221   2.182  1.1257  1.3927 -1.2494
  237DG      O9 5437   0.447   2.190   1.852  0.1510  0.3903  0.4069
  237DG     O10 5438   0.888   2.092   2.030  0.6155  0.0536 -0.3595
  237DG     C11 5439   0.524   2.152   1.730 -0.3568 -0.6511 -0.4876
  237DG     C12 5440   0.936   2.014   1.919  0.2119  0.0475  0.2243
  237DG     H13 5441   0.579   2.239   1.694 -0.7239  0.3485  1.2233
  237DG     H14 5442   0.463   2.131   1.643 -1.7351 -3.6101  1.0467
  237DG     H15 5443   1.000   1.928   1.943  1.4955  0.8023 -0.3485
  237DG     H16 5444   0.994   2.076   1.850 -0.1548  0.0311 -0.0954
  237DG     C17 5445   0.616   2.026   1.754 -0.0168 -0.1900  0.5894
  237DG     C18 5446   0.817   1.957   1.846 -0.6696  0.9826 -0.4094
  237DG     O19 5447   0.729   2.063   1.819 -0.2975 -0.7454 -0.4929
  237DG     H20 5448   0.639   1.988   1.654 -0.9454  1.8687 -0.4730
  237DG     H21 5449   0.553   1.946   1.794 -0.9049 -0.6638 -1.5869
  237DG     H22 5450   0.849   1.919   1.749 -1.9771  1.2539 -0.9612
  237DG     H23 5451   0.769   1.870   1.891  0.9435 -0.9199 -2.1467
  238DG      C1 5452   1.749   3.702   0.728 -0.0580 -0.6437 -0.6338
  238DG      C2 5453   1.267   4.043   0.992  0.1685  0.0497 -0.0219
  238DG      H3 5454   1.856   3.690   0.746  0.1274  1.1330 -0.3551
  238DG      H4 5455   1.725   3.685   0.623  0.5267 -0.0859 -0.8638
  238DG      H5 5456   1.677   3.636   0.777 -1.4867 -0.8578 -2.8937
  238DG      H6 5457   1.203   4.011   0.910  0.4941  0.8439 -0.5967
  238DG      H7 5458   1.278   3.965   1.067 -0.0958  0.8108  0.8137
  238DG      H8 5459   1.232   4.138   1.030 -0.1844  0.0504 -0.3471
  238DG      O9 5460   1.724   3.841   0.757 -0.1436  0.5104 -0.4127
  238DG     O10 5461   1.398   4.060   0.945 -0.5247 -0.6362  0.0563
  238DG     C11 5462   1.783   3.931   0.660 -0.6731 -0.3689  0.1101
  238DG     C12 5463   1.403   4.159   0.840 -0.4714  0.0390 -0.1992
  238DG     H13 5464   1.741   3.915   0.561 -1.9760 -0.9310  0.7209
  238DG     H14 5465   1.890   3.917   0.651 -0.8336 -0.3057 -2.7272
  238DG     H15 5466   1.359   4.254   0.872  0.0719 -0.4333  2.1681
  238DG     H16 5467   1.342   4.125   0.757  0.8859  1.3010 -1.7832
  238DG     C17 5468   1.739   4.072   0.704  0.4186  0.3482  0.0111
  238DG     C18 5469   1.553   4.189   0.786  0.5941 -0.4390 -0.2427
  238DG     O19 5470   1.603   4.065   0.745 -0.1326 -0.6278 -0.2439
  238DG     H20 5471   1.740   4.149   0.627 -0.4592  1.1549  0.7712
  238DG     H21 5472   1.801   4.094   0.791  1.3438 -0.0417 -0.5369
  238DG     H22 5473   1.557   4.256   0.700 -0.2964 -0.4517 -0.3013
  238DG     H23 5474   1.619   4.236   0.859 -0.8737  0.1557  0.7431
  239DG      C1 5475   1.427   3.761   5.484 -0.2847 -0.6557 -0.1768
  239DG      C2 5476   1.482   4.270   5.896 -0.4394 -0.6313  0.2626
  239DG      H3 5477   1.398   3.671   5.430  0.2585 -0.8264 -0.1840
  239DG      H4 5478   1.493   3.723   5.561  1.5118  2.5064 -0.0011
  239DG      H5 5479   1.475   3.834   5.418  0.0869  3.1293  3.8348
  239DG      H6 5480   1.543   4.360   5.905 -1.2996  0.0677 -0.6409
  239DG      H7 5481   1.497   4.209   5.985  0.4960 -0.7094  0.0636
  239DG      H8 5482   1.516   4.205   5.816 -1.7976 -0.1176 -0.7710
  239DG      O9 5483   1.308   3.825   5.532 -0.1361  0.4026 -0.1930
  239DG     O10 5484   1.350   4.323   5.871  0.5213  0.1875  0.0212
  239DG     C11 5485   1.341   3.947   5.591 -1.3726  0.7169 -0.1087
  239DG     C12 5486   1.251   4.229   5.916 -0.1433 -0.5828 -0.2721
  239DG     H13 5487   1.412   4.007   5.534 -0.0261 -1.8958 -1.4001
  239DG     H14 5488   1.386   3.928   5.688 -2.3403 -1.2258  0.0133
  239DG     H15 5489   1.157   4.284   5.916 -0.6114 -1.3070  2.0304
  239DG     H16 5490   1.257   4.206   6.022 -2.2437 -2.6297 -0.5001
  239DG     C17 5491   1.214   4.032   5.608 -0.8920 -0.1208  0.1952
  239DG     C18 5492   1.243   4.107   5.824  0.1656 -0.3298 -0.3843
  239DG     O19 5493   1.230   4.141   5.692 -0.8228 -0.6938  0.2193
  239DG     H20 5494   1.138   3.964   5.646 -0.7951  0.6075  1.7880
  239DG     H21 5495   1.178   4.061   5.509  0.7095 -2.3739 -1.1515
  239DG     H22 5496   1.333   4.049   5.842  0.0891 -0.0350  1.0481
  239DG     H23 5497   1.163   4.039   5.852 -0.9157  1.2726  0.5490
  240DG      C1 5498   3.876   4.366   3.927  0.0456 -0.3072  0.1710
  240DG      C2 5499   3.180   4.651   3.860  0.4402 -0.1208 -0.5347
  240DG      H3 5500   3.937   4.292   3.980  0.4689  0.7813  1.2424
  240DG      H4 5501   3.912   4.463   3.960  2.2800 -0.5626 -1.2671
  240DG      H5 5502   3.900   4.354   3.821 -0.9114 -0.9554  0.0134
  240DG      H6 5503   3.077   4.617   3.850  0.5827 -0.9333  0.5473
  240DG      H7 5504   3.181   4.716   3.947  0.4667 -2.2556  1.1509
  240DG      H8 5505   3.210   4.709   3.772 -1.8811 -0.9842 -1.9997
  240DG      O9 5506   3.735   4.362   3.943 -0.2699  0.2687 -0.5646
  240DG     O10 5507   3.268   4.547   3.887  0.1605  0.1894 -0.0406
  240DG     C11 5508   3.682   4.236   3.913  0.2401  0.7008  0.3822
  240DG     C12 5509   3.257   4.439   3.800 -0.0421  0.2417 -0.2403
  240DG     H13 5510   3.735   4.161   3.972 -0.4263  0.6299  0.8982
  240DG     H14 5511   3.692   4.208   3.808 -0.1432 -0.0643  0.5468
  240DG     H15 5512   3.287   4.462   3.698 -0.6356 -0.0994 -0.4982
  240DG     H16 5513   3.156   4.406   3.774  1.4498 -2.0745 -3.8564
  240DG     C17 5514   3.531   4.237   3.952 -0.1675 -0.2403 -0.1243
  240DG     C18 5515   3.331   4.314   3.847  0.2120 -0.1379  0.0850
  240DG     O19 5516   3.475   4.322   3.846  0.1366 -0.6931 -0.1225
  240DG     H20 5517   3.512   4.255   4.058  1.1762 -0.8283  0.2440
  240DG     H21 5518   3.496   4.135   3.935  2.9802 -1.3829 -0.5360
  240DG     H22 5519   3.291   4.282   3.943 -2.7113  0.5140 -0.8058
  240DG     H23 5520   3.303   4.234   3.779 -0.2476 -0.4264  0.6071
  241DG      C1 5521   0.520   1.475   1.211  0.4495 -0.0037 -0.0591
  241DG      C2 5522   0.048   0.903   1.327  0.3482 -0.2899  0.3065
  241DG      H3 5523   0.613   1.485   1.156  0.1909 -0.0664 -0.5147
  241DG      H4 5524   0.508   1.562   1.275 -1.3974 -0.2895  0.0431
  241DG      H5 5525   0.437   1.469   1.140  0.3627  1.3279 -0.0801
  241DG      H6 5526   0.000   0.884   1.231  0.1501  0.1511  0.3180
  241DG      H7 5527   0.105   0.814   1.357  2.0908  0.4454 -0.6689
  241DG      H8 5528  -0.026   0.934   1.402  1.5033  2.4196  0.4413
  241DG      O9 5529   0.508   1.364   1.296  0.7940  0.0419 -0.5265
  241DG     O10 5530   0.143   1.005   1.301 -0.3369  0.2493 -0.0760
  241DG     C11 5531   0.526   1.248   1.224 -0.8014 -0.0195  0.2259
  241DG     C12 5532   0.183   1.069   1.420 -0.7278 -0.2516  0.6052
  241DG     H13 5533   0.622   1.252   1.172  0.3414  0.8709  2.2726
  241DG     H14 5534   0.450   1.223   1.150 -2.5946  2.6745  1.0257
  241DG     H15 5535   0.209   0.993   1.493 -1.0475 -1.1890 -0.2334
  241DG     H16 5536   0.105   1.123   1.473 -0.6315 -0.1063  0.5983
  241DG     C17 5537   0.538   1.146   1.340  0.1227  0.2882 -0.0879
  241DG     C18 5538   0.305   1.156   1.398 -0.0564  0.8918 -0.2700
  241DG     O19 5539   0.415   1.078   1.351  0.1250  0.3028 -0.1194
  241DG     H20 5540   0.551   1.194   1.437 -0.5918  0.6689 -0.1720
  241DG     H21 5541   0.624   1.078   1.345 -0.6499 -0.7696 -0.7345
  241DG     H22 5542   0.280   1.226   1.318  0.6388 -0.2210 -1.5161
  241DG     H23 5543   0.324   1.218   1.486 -0.7323  0.8700 -0.1035
  242DG      C1 5544   4.088   1.177   2.633 -0.0973  0.7960 -0.2556
  242DG      C2 5545   4.912   1.089   2.855 -0.0595 -0.4329  0.5400
  242DG      H3 5546   4.098   1.098   2.558  0.0755  0.6353 -0.0626
  242DG      H4 5547   4.015   1.252   2.602 -1.7176 -0.4028  0.5121
  242DG      H5 5548   4.039   1.136   2.721  1.6214 -1.2428 -0.1807
  242DG      H6 5549   4.923   1.003   2.789  1.3363 -1.1438  1.6295
  242DG      H7 5550   5.013   1.124   2.873  0.5353 -2.2326  0.9496
  242DG      H8 5551   4.877   1.054   2.953  0.4091 -1.5664  0.3176
  242DG      O9 5552   4.224   1.218   2.661  0.0317  0.2635  0.0684
  242DG     O10 5553   4.838   1.194   2.803 -0.2881  0.1598 -0.4285
  242DG     C11 5554   4.296   1.268   2.550 -0.0230 -0.6928  0.1819
  242DG     C12 5555   4.709   1.154   2.760  1.0792 -0.0194 -0.0801
  242DG     H13 5556   4.238   1.359   2.535  0.2210 -0.8814 -2.1547
  242DG     H14 5557   4.297   1.200   2.465 -1.6264 -0.9966  0.3694
  242DG     H15 5558   4.663   1.104   2.846  2.1271 -0.7657  0.0630
  242DG     H16 5559   4.715   1.083   2.678 -0.0810  0.5972 -0.7248
  242DG     C17 5560   4.433   1.323   2.602 -0.0726 -0.0653  0.6204
  242DG     C18 5561   4.628   1.276   2.714  0.2224 -0.5036  0.2612
  242DG     O19 5562   4.518   1.220   2.647  0.4102  0.0483 -0.2860
  242DG     H20 5563   4.408   1.392   2.682 -0.7780  0.2956  0.1005
  242DG     H21 5564   4.475   1.384   2.523 -2.0215 -0.5132 -0.8373
  242DG     H22 5565   4.598   1.335   2.800  0.3383 -1.5311  1.0346
  242DG     H23 5566   4.696   1.331   2.649  1.4582 -1.5549  0.6092
  243DG      C1 5567   4.526   2.185   3.839 -0.1486 -0.4533 -0.1897
  243DG      C2 5568   4.246   2.751   3.948  0.0959  0.0314  1.2382
  243DG      H3 5569   4.517   2.156   3.944 -0.2026 -2.9925 -0.8210
  243DG      H4 5570   4.603   2.262   3.844  0.8742 -1.4472 -0.1967
  243DG      H5 5571   4.569   2.099   3.787  2.4206 -0.9406  2.4655
  243DG      H6 5572   4.210   2.737   4.050 -3.2946  0.9947  0.2871
  243DG      H7 5573   4.352   2.779   3.948  0.0384  0.2549  1.1030
  243DG      H8 5574   4.197   2.843   3.915  2.5690  1.3148  0.8728
  243DG      O9 5575   4.405   2.227   3.774 -0.8447 -0.1119  0.2427
  243DG     O10 5576   4.237   2.636   3.870  0.6417 -0.4077 -0.1409
  243DG     C11 5577   4.294   2.149   3.786 -0.7532 -0.5888  0.6010
  243DG     C12 5578   4.103   2.579   3.891  0.1656 -0.1540 -0.6567
  243DG     H13 5579   4.276   2.102   3.883 -2.0673 -1.1567  0.1097
  243DG     H14 5580   4.297   2.073   3.708 -1.6491  0.8504 -0.8972
  243DG     H15 5581   4.027   2.653   3.864  2.7772  2.3197 -1.7515
  243DG     H16 5582   4.108   2.540   3.993  3.9216 -2.2105 -1.4431
  243DG     C17 5583   4.174   2.238   3.743 -0.4337  0.1767  0.3234
  243DG     C18 5584   4.091   2.456   3.798 -0.3194  0.0252  0.1217
  243DG     O19 5585   4.194   2.357   3.818  0.3038 -0.0423  0.0934
  243DG     H20 5586   4.083   2.185   3.771  1.7356 -3.6401  0.8640
  243DG     H21 5587   4.178   2.253   3.635  0.2245  1.7626  0.5327
  243DG     H22 5588   4.005   2.398   3.831 -0.4409  0.6524  0.9720
  243DG     H23 5589   4.088   2.490   3.695  1.5880  1.5359  0.5009
  244DG      C1 5590   4.092   1.681   2.607 -0.6928  0.6445  0.1194
  244DG      C2 5591   3.336   1.506   2.518  0.1733 -0.4754 -0.6044
  244DG      H3 5592   4.139   1.643   2.517 -1.7492 -1.8069  0.5320
  244DG      H4 5593   4.132   1.614   2.683 -0.7227  0.4126 -0.0691
  244DG      H5 5594   4.117   1.785   2.628  2.0115 -0.1922  1.4614
  244DG      H6 5595   3.294   1.456   2.606  2.4895 -0.5908  0.5163
  244DG      H7 5596   3.312   1.612   2.522 -3.8746 -1.2632 -0.2613
  244DG      H8 5597   3.293   1.471   2.425  0.4433 -0.9949 -0.5357
  244DG      O9 5598   3.951   1.671   2.589  0.2863  0.5646 -0.0064
  244DG     O10 5599   3.473   1.485   2.520  0.1470 -0.4810 -0.2863
  244DG     C11 5600   3.896   1.548   2.564 -0.3583 -0.1649 -0.1989
  244DG     C12 5601   3.518   1.364   2.461 -0.8638  0.2417 -0.2361
  244DG     H13 5602   3.884   1.482   2.650  4.1767  1.1330  1.6767
  244DG     H14 5603   3.965   1.502   2.493 -0.7794  3.0545 -2.9329
  244DG     H15 5604   3.490   1.362   2.356 -1.6991 -0.8283 -0.0139
  244DG     H16 5605   3.466   1.277   2.502  1.3876 -1.0423  0.0628
  244DG     C17 5606   3.768   1.578   2.492  0.2969 -0.0106 -0.6539
  244DG     C18 5607   3.669   1.354   2.471 -0.2874  0.4634 -0.6128
  244DG     O19 5608   3.727   1.467   2.417 -0.7101 -0.6746  0.6800
  244DG     H20 5609   3.778   1.665   2.427 -0.2700 -0.4136 -1.2857
  244DG     H21 5610   3.698   1.595   2.574 -1.0792 -3.5441 -0.9291
  244DG     H22 5611   3.702   1.355   2.575 -0.5525  1.3946 -0.5274
  244DG     H23 5612   3.711   1.263   2.428  1.8238 -0.5211  3.0863
  245DG      C1 5613   4.378   1.549   1.816  0.1877 -0.6637  0.0041
  245DG      C2 5614   4.069   1.515   1.337  0.0364  0.0352  0.0139
  245DG      H3 5615   4.291   1.600   1.775 -0.6159 -1.1459  1.0300
  245DG      H4 5616   4.386   1.564   1.924 -1.7183 -0.6225  0.1667
  245DG      H5 5617   4.376   1.442   1.796 -0.1729 -0.4407 -1.1979
  245DG      H6 5618   3.964   1.545   1.330 -0.3549 -1.4766 -1.0163
  245DG      H7 5619   4.087   1.435   1.265 -1.0677 -0.4050  0.1996
  245DG      H8 5620   4.082   1.481   1.440 -0.0680  0.4410  0.1658
  245DG      O9 5621   4.514   1.588   1.770  0.1654 -0.4745 -0.0525
  245DG     O10 5622   4.152   1.629   1.307  0.4819 -0.7295  0.3581
  245DG     C11 5623   4.523   1.597   1.626  0.0638 -0.9470  0.1073
  245DG     C12 5624   4.145   1.744   1.384  0.1408  0.5807  0.3542
  245DG     H13 5625   4.461   1.515   1.589 -1.2681  0.3004 -0.5424
  245DG     H14 5626   4.629   1.583   1.606  0.6781 -1.8000  3.3827
  245DG     H15 5627   4.079   1.737   1.471  0.7118 -0.2232  0.7397
  245DG     H16 5628   4.097   1.819   1.322 -0.2819  0.6200  0.7178
  245DG     C17 5629   4.461   1.726   1.574 -0.2488 -0.1615  0.1921
  245DG     C18 5630   4.285   1.772   1.429 -0.1150 -0.4652  0.9626
  245DG     O19 5631   4.327   1.689   1.534 -0.6155 -0.6400 -0.2328
  245DG     H20 5632   4.520   1.772   1.495  1.8993  0.3778  1.9891
  245DG     H21 5633   4.476   1.799   1.654  1.9371 -1.3124  0.9141
  245DG     H22 5634   4.351   1.736   1.351 -2.1854  1.1008 -1.6819
  245DG     H23 5635   4.298   1.877   1.455 -1.6570 -0.3424  1.3270
  246DG      C1 5636   0.014   4.017   3.737  0.5848 -1.0410  0.3799
  246DG      C2 5637  -0.141   4.560   3.369 -0.0655  0.6669 -0.5792
  246DG      H3 5638   0.019   3.956   3.646  1.0743  1.2114 -1.1984
  246DG      H4 5639  -0.094   4.019   3.747  0.3985 -1.6828 -1.1508
  246DG      H5 5640   0.060   3.960   3.818  0.6190 -2.9245 -0.8881
  246DG      H6 5641  -0.187   4.657   3.389 -0.9628 -0.0535  1.1425
  246DG      H7 5642  -0.084   4.561   3.277 -1.6898 -2.5193 -1.7510
  246DG      H8 5643  -0.216   4.484   3.348  3.6363 -2.9628 -1.9449
  246DG      O9 5644   0.063   4.144   3.698 -0.2109 -0.2205  0.3682
  246DG     O10 5645  -0.070   4.515   3.481  0.1703 -0.1734 -0.2790
  246DG     C11 5646   0.048   4.232   3.806 -0.2243  0.0416  0.8372
  246DG     C12 5647   0.045   4.593   3.513 -0.9283  0.3198  0.2757
  246DG     H13 5648   0.090   4.182   3.893 -0.7770 -2.3807 -0.1946
  246DG     H14 5649  -0.058   4.247   3.828 -0.3770 -0.7767  0.7048
  246DG     H15 5650   0.034   4.702   3.515  0.6236  0.5321 -0.5249
  246DG     H16 5651   0.120   4.566   3.438 -1.4851 -0.9503  0.1534
  246DG     C17 5652   0.123   4.359   3.784 -0.6091  0.1169 -1.1869
  246DG     C18 5653   0.110   4.548   3.647 -0.2183 -0.2886 -0.6471
  246DG     O19 5654   0.093   4.403   3.657 -0.1871 -0.2363  0.4920
  246DG     H20 5655   0.225   4.321   3.789 -0.6359  0.2155  0.7663
  246DG     H21 5656   0.100   4.424   3.868  0.4651 -0.6824 -0.2348
  246DG     H22 5657   0.211   4.588   3.656 -0.2060  0.2938 -2.8016
  246DG     H23 5658   0.049   4.595   3.724  1.7897  0.3213  0.6508
  247DG      C1 5659   4.837   0.929   1.999  0.3274  0.0170 -0.8297
  247DG      C2 5660   4.928   1.267   2.477 -0.6350  0.2246  0.1130
  247DG      H3 5661   4.885   0.831   2.000  2.2246  0.8361 -3.1362
  247DG      H4 5662   4.784   0.956   1.908 -1.2667  2.3863  0.6890
  247DG      H5 5663   4.752   0.915   2.066 -1.9500  4.4632 -2.4226
  247DG      H6 5664   4.819   1.271   2.475 -0.7109 -1.1428  0.6859
  247DG      H7 5665   4.969   1.204   2.556  2.4066  0.4961 -1.1233
  247DG      H8 5666   4.962   1.365   2.512 -0.1815 -0.3181  1.2361
  247DG      O9 5667   4.919   1.029   2.048 -0.3052 -0.6708 -0.0402
  247DG     O10 5668   4.983   1.235   2.347 -0.6591 -0.1816  0.2424
  247DG     C11 5669   5.045   1.036   1.975  0.1050 -0.2834  0.5847
  247DG     C12 5670   5.118   1.251   2.342 -0.5720 -0.0603  0.3582
  247DG     H13 5671   5.025   0.995   1.876 -2.2258  0.5491  0.6276
  247DG     H14 5672   5.113   0.963   2.017  0.0602 -0.0581  1.0525
  247DG     H15 5673   5.171   1.196   2.420  0.7609  0.3172 -0.2495
  247DG     H16 5674   5.146   1.356   2.344 -0.0342 -0.1787 -0.3087
  247DG     C17 5675   5.108   1.180   1.970  0.0081 -0.7235 -0.3342
  247DG     C18 5676   5.166   1.198   2.205  0.1743  0.3043 -0.3698
  247DG     O19 5677   5.092   1.250   2.095  0.0036  0.3624 -0.8882
  247DG     H20 5678   5.058   1.244   1.897 -1.0905 -0.8914  0.2563
  247DG     H21 5679   5.211   1.175   1.935  0.5894  1.8754  0.8313
  247DG     H22 5680   5.267   1.237   2.194  0.6813 -0.2183  1.9078
  247DG     H23 5681   5.182   1.091   2.213  1.0961  0.4875  0.3409
  248DG      C1 5682   1.291   4.919   3.160  0.3657 -0.3398 -0.4478
  248DG      C2 5683   1.167   5.753   3.084 -0.1993 -0.0951 -0.2717
  248DG      H3 5684   1.304   4.840   3.234 -0.2027  1.2897  1.4792
  248DG      H4 5685   1.388   4.965   3.141  0.0245  1.3815  1.5822
  248DG      H5 5686   1.248   4.881   3.067 -4.3054  2.2302  0.3424
  248DG      H6 5687   1.178   5.857   3.114 -4.1945 -0.0336  1.7144
  248DG      H7 5688   1.254   5.718   3.028  1.6945 -0.1157  2.4677
  248DG      H8 5689   1.070   5.743   3.035 -0.1092  0.6697 -0.6180
  248DG      O9 5690   1.198   5.021   3.208  0.6418  0.8224  0.1738
  248DG     O10 5691   1.167   5.671   3.201  0.1545 -0.3513  0.2985
  248DG     C11 5692   1.255   5.097   3.311 -0.0549 -0.4722 -0.0659
  248DG     C12 5693   1.174   5.533   3.159  0.3487  0.1095  0.0016
  248DG     H13 5694   1.347   5.147   3.281 -0.1402 -0.5017 -0.3772
  248DG     H14 5695   1.270   5.037   3.401 -2.7596  2.9360  2.9838
  248DG     H15 5696   1.278   5.514   3.133  1.0646 -0.4008  2.8774
  248DG     H16 5697   1.110   5.507   3.075  0.8883 -0.8414 -0.1276
  248DG     C17 5698   1.176   5.228   3.358  0.1192  0.6881  0.3388
  248DG     C18 5699   1.139   5.450   3.278 -0.6803 -0.3713  0.1640
  248DG     O19 5700   1.174   5.315   3.250  0.1913 -0.0395  0.0521
  248DG     H20 5701   1.225   5.276   3.442  0.1046 -0.5929  1.1060
  248DG     H21 5702   1.075   5.203   3.391  0.8344 -0.5527  1.7164
  248DG     H22 5703   1.206   5.482   3.359  0.2372 -2.0675  0.1230
  248DG     H23 5704   1.032   5.453   3.294 -0.7805  0.5024 -0.5951
  249DG      C1 5705   2.349   0.386   5.069 -0.2051  0.2563  0.3429
  249DG      C2 5706   2.595   0.856   5.699  0.6829 -0.2352  0.3932
  249DG      H3 5707   2.341   0.277   5.068 -0.2185  0.2476  0.8092
  249DG      H4 5708   2.360   0.442   4.977 -4.3077  0.0855 -0.4517
  249DG      H5 5709   2.260   0.428   5.116  0.5174  2.4624 -0.1810
  249DG      H6 5710   2.566   0.961   5.696  0.8733 -0.0588  2.7281
  249DG      H7 5711   2.504   0.802   5.727 -0.5817  2.0239  0.9537
  249DG      H8 5712   2.662   0.847   5.784 -0.5161 -2.7602  1.1703
  249DG      O9 5713   2.461   0.411   5.153  0.2713  0.3970 -0.0323
  249DG     O10 5714   2.653   0.806   5.582 -0.0264 -0.8525  0.1948
  249DG     C11 5715   2.443   0.352   5.287  0.1777  0.3471  0.9120
  249DG     C12 5716   2.567   0.773   5.474  0.5126  0.0580 -0.7644
  249DG     H13 5717   2.541   0.314   5.316  0.8729  1.0896 -0.3768
  249DG     H14 5718   2.379   0.265   5.278  0.5108  0.0376  1.5397
  249DG     H15 5719   2.624   0.772   5.381  0.0502  1.4116 -1.0855
  249DG     H16 5720   2.501   0.858   5.453  1.6038  0.8324 -1.1418
  249DG     C17 5721   2.404   0.452   5.396  0.4583 -0.5093 -0.0930
  249DG     C18 5722   2.499   0.635   5.493 -0.2845  0.0410  0.8339
  249DG     O19 5723   2.480   0.562   5.380 -0.5631  0.0093 -0.3646
  249DG     H20 5724   2.409   0.404   5.494  0.5260 -1.8350 -0.7238
  249DG     H21 5725   2.298   0.478   5.390  0.3980 -0.7309 -0.0251
  249DG     H22 5726   2.567   0.567   5.544 -0.7750 -0.9139  0.2307
  249DG     H23 5727   2.406   0.648   5.550 -1.0001  1.5005 -0.5843
  250DG      C1 5728   2.964   2.008   1.586  0.1001  0.0192 -1.1181
  250DG      C2 5729   2.619   1.550   2.024  0.3316 -0.3161 -0.2064
  250DG      H3 5730   2.922   2.008   1.687  2.6080  0.0265  0.0008
  250DG      H4 5731   2.895   2.065   1.524 -0.8627 -0.7030 -0.7503
  250DG      H5 5732   3.064   2.050   1.594  0.5491 -1.2132  0.2446
  250DG      H6 5733   2.522   1.583   1.987  0.5155 -1.4020 -1.7920
  250DG      H7 5734   2.626   1.445   2.055  0.1534  0.4174  2.5576
  250DG      H8 5735   2.646   1.609   2.112 -2.2355  0.5417  0.0876
  250DG      O9 5736   2.966   1.872   1.541 -0.0743  0.2371  0.2022
  250DG     O10 5737   2.721   1.576   1.930 -1.0396  0.6791  0.5289
  250DG     C11 5738   3.067   1.787   1.606 -0.0298  0.6063 -0.4237
  250DG     C12 5739   2.733   1.717   1.896  0.7363  0.5636 -0.1002
  250DG     H13 5740   3.086   1.830   1.704 -0.0243  0.7457 -0.4862
  250DG     H14 5741   3.159   1.778   1.548  0.2431 -2.5403  0.2751
  250DG     H15 5742   2.788   1.768   1.975 -0.6976  1.4955  0.3314
  250DG     H16 5743   2.635   1.763   1.889  0.1075  0.6505  5.1022
  250DG     C17 5744   2.993   1.649   1.628  0.2865 -0.1764 -0.5252
  250DG     C18 5745   2.797   1.709   1.757 -0.1276 -0.0897  1.1710
  250DG     O19 5746   2.923   1.653   1.750 -0.3716  0.0346 -0.4390
  250DG     H20 5747   3.069   1.573   1.643  1.0048  0.9968  2.4817
  250DG     H21 5748   2.927   1.627   1.544 -0.8089 -2.4439  0.8512
  250DG     H22 5749   2.734   1.647   1.693  1.0210  1.1177 -1.2507
  250DG     H23 5750   2.799   1.809   1.715 -1.5816 -0.6561 -0.3613
  251DG      C1 5751   4.815   4.980   0.797  0.3370  0.0898 -0.6551
  251DG      C2 5752   4.469   5.638   0.660 -0.1736 -0.3864  0.2016
  251DG      H3 5753   4.776   4.878   0.793  0.8981 -0.1141 -1.0912
  251DG      H4 5754   4.882   4.975   0.882 -0.6302  0.8730  0.1875
  251DG      H5 5755   4.870   5.008   0.707  2.5452  0.3282  0.6899
  251DG      H6 5756   4.450   5.732   0.711  0.2916 -1.3843  2.3256
  251DG      H7 5757   4.527   5.643   0.567  2.2976  0.1430  1.6757
  251DG      H8 5758   4.381   5.583   0.625  0.1525  0.3011 -1.8510
  251DG      O9 5759   4.708   5.059   0.846 -0.4193  0.6224  0.5411
  251DG     O10 5760   4.541   5.553   0.746  0.1079 -0.0698 -0.6860
  251DG     C11 5761   4.603   5.088   0.752 -0.6970  1.0283 -0.7570
  251DG     C12 5762   4.467   5.522   0.871 -0.7117  0.6045 -0.1616
  251DG     H13 5763   4.558   4.996   0.713 -0.6695  0.2806  0.8717
  251DG     H14 5764   4.640   5.149   0.670  1.3566  0.7857 -0.0753
  251DG     H15 5765   4.383   5.588   0.889 -0.9806  0.0583  0.6525
  251DG     H16 5766   4.534   5.526   0.957  0.6833 -4.1674 -0.7042
  251DG     C17 5767   4.489   5.159   0.818  0.6846  0.1720 -0.5071
  251DG     C18 5768   4.421   5.373   0.859  0.0701  0.1780  0.4622
  251DG     O19 5769   4.528   5.298   0.818  1.0448 -0.4935 -0.4604
  251DG     H20 5770   4.463   5.125   0.918 -1.0171 -0.9810 -1.2851
  251DG     H21 5771   4.410   5.151   0.743  1.0060  2.4405 -1.1501
  251DG     H22 5772   4.391   5.343   0.959 -1.0312  0.4894  0.2355
  251DG     H23 5773   4.340   5.365   0.786  0.7509  0.6586 -0.3806
  252DG      C1 5774   0.800   3.936   1.385 -0.0847 -0.6166 -0.2453
  252DG      C2 5775   0.101   3.796   1.278  0.0541  0.0901  0.6722
  252DG      H3 5776   0.805   3.904   1.281  0.6598 -0.8574 -0.1408
  252DG      H4 5777   0.824   3.848   1.444  1.1640 -0.5433 -0.6130
  252DG      H5 5778   0.876   4.010   1.412  1.1643 -1.2461 -1.9024
  252DG      H6 5779   0.112   3.800   1.170  3.2048  0.5577  0.9191
  252DG      H7 5780   0.108   3.689   1.303  2.6646 -0.1487 -0.7648
  252DG      H8 5781   0.005   3.842   1.297 -0.1603  0.3180 -0.8487
  252DG      O9 5782   0.667   3.987   1.414 -0.5647  0.0776  0.5257
  252DG     O10 5783   0.206   3.859   1.357  0.0560  0.1587  0.2619
  252DG     C11 5784   0.637   3.989   1.554 -0.9328  0.0389 -0.3127
  252DG     C12 5785   0.183   3.857   1.497  0.3162  0.3234  0.2677
  252DG     H13 5786   0.704   4.061   1.599 -2.9777  1.4614  0.6174
  252DG     H14 5787   0.651   3.894   1.605  0.4978  0.7007  0.5816
  252DG     H15 5788   0.204   3.758   1.539 -0.8134  0.3136  0.8402
  252DG     H16 5789   0.083   3.899   1.502 -0.2068 -0.4535 -2.2172
  252DG     C17 5790   0.497   4.038   1.579 -0.2647 -0.2240  0.7609
  252DG     C18 5791   0.283   3.947   1.566  0.5011 -0.8245 -0.0394
  252DG     O19 5792   0.412   3.948   1.507  0.1187 -0.1727 -0.1541
  252DG     H20 5793   0.490   4.140   1.543  1.1853 -0.9883 -1.9943
  252DG     H21 5794   0.469   4.046   1.684 -4.4193  0.7685 -0.2652
  252DG     H22 5795   0.233   4.043   1.550 -0.1946 -1.5227 -2.6173
  252DG     H23 5796   0.288   3.924   1.672  1.5678  1.5139  0.4816
  253DG      C1 5797   3.484   0.581   2.439 -0.7912  0.7305  0.2286
  253DG      C2 5798   2.789   0.616   2.448 -0.2139 -0.4491  0.1295
  253DG      H3 5799   3.568   0.530   2.487 -1.1388  0.2008  0.2727
  253DG      H4 5800   3.510   0.687   2.446  2.5193 -0.0213  0.9023
  253DG      H5 5801   3.492   0.564   2.331 -1.3370  0.8980  0.1605
  253DG      H6 5802   2.805   0.654   2.347  2.0487 -1.0372  0.2150
  253DG      H7 5803   2.852   0.527   2.443  1.7922  0.8850  0.3925
  253DG      H8 5804   2.681   0.599   2.457 -0.2742 -0.3442 -0.3557
  253DG      O9 5805   3.354   0.556   2.477 -0.0614 -0.5128 -0.4083
  253DG     O10 5806   2.832   0.702   2.548  0.0478  0.2164  0.3637
  253DG     C11 5807   3.341   0.576   2.616 -0.2950  0.3049 -0.2252
  253DG     C12 5808   2.956   0.772   2.525  0.3819  0.0917  0.2554
  253DG     H13 5809   3.364   0.677   2.648 -0.7859  1.0252 -1.9943
  253DG     H14 5810   3.420   0.524   2.671 -0.5563  0.6769  0.5130
  253DG     H15 5811   2.955   0.856   2.596 -0.6113  1.3996 -1.2378
  253DG     H16 5812   2.959   0.831   2.433  2.8086  0.6002  0.5824
  253DG     C17 5813   3.199   0.533   2.660  1.6330  0.2630  1.2598
  253DG     C18 5814   3.076   0.675   2.519 -0.1627 -0.3842  0.6340
  253DG     O19 5815   3.098   0.638   2.650 -0.5023 -0.0139 -0.0091
  253DG     H20 5816   3.196   0.511   2.767 -2.0678 -1.3525  0.9833
  253DG     H21 5817   3.156   0.446   2.610  2.0201  0.9485 -0.3276
  253DG     H22 5818   3.066   0.593   2.448 -0.2173  0.0365  0.1556
  253DG     H23 5819   3.165   0.730   2.488  1.9912 -1.9719  3.5463
  254DG      C1 5820   0.568   1.879   1.381 -0.2247  0.6309  1.0802
  254DG      C2 5821   0.636   1.377   0.832  0.0350  0.5084 -0.2156
  254DG      H3 5822   0.578   1.987   1.386 -0.0057  0.6994 -0.4088
  254DG      H4 5823   0.644   1.844   1.451 -0.6251  0.7469  1.5754
  254DG      H5 5824   0.472   1.844   1.418 -0.4015 -0.6936 -0.5149
  254DG      H6 5825   0.738   1.351   0.805 -0.5105 -1.4136 -0.5619
  254DG      H7 5826   0.614   1.300   0.907  1.2606  1.7903  1.5363
  254DG      H8 5827   0.565   1.377   0.749 -0.9544 -1.3499  0.5598
  254DG      O9 5828   0.588   1.824   1.247 -0.5875  0.1217  0.1789
  254DG     O10 5829   0.623   1.498   0.899  0.1985 -0.4251 -0.3793
  254DG     C11 5830   0.727   1.828   1.210  0.1422  0.2750 -0.7171
  254DG     C12 5831   0.671   1.609   0.828  0.2934 -0.0671  0.1378
  254DG     H13 5832   0.780   1.750   1.265  0.0601  2.3588  2.5841
  254DG     H14 5833   0.766   1.926   1.238 -0.2545 -0.0358  1.0405
  254DG     H15 5834   0.636   1.602   0.725  1.1028 -0.0419 -0.1484
  254DG     H16 5835   0.779   1.601   0.820  0.2245 -0.3975 -0.5668
  254DG     C17 5836   0.742   1.803   1.060  0.0486  0.0073 -0.0473
  254DG     C18 5837   0.612   1.738   0.871 -0.4141 -0.4235  0.3843
  254DG     O19 5838   0.617   1.771   1.002 -0.1065  0.3503  0.3851
  254DG     H20 5839   0.813   1.731   1.020 -0.5202 -0.0733 -0.9427
  254DG     H21 5840   0.774   1.897   1.015 -0.1869 -0.5790 -1.5063
  254DG     H22 5841   0.644   1.824   0.811 -1.3290  1.5593  2.5681
  254DG     H23 5842   0.504   1.737   0.859 -0.2409  0.7113 -1.7698
  255DG      C1 5843   2.027   2.713   3.000 -0.9102 -0.4049  0.7139
  255DG      C2 5844   1.933   2.311   3.574 -0.3004  0.0288 -0.1492
  255DG      H3 5845   1.990   2.761   2.910  0.0264 -0.5909  0.2133
  255DG      H4 5846   2.051   2.611   2.970  0.7761 -0.1361  1.0180
  255DG      H5 5847   2.124   2.762   3.017 -2.5543  2.8580  1.5067
  255DG      H6 5848   1.895   2.210   3.559 -0.8106  0.4312 -1.7650
  255DG      H7 5849   2.029   2.334   3.527 -0.9590  2.2552 -0.5139
  255DG      H8 5850   1.940   2.323   3.682 -0.2117 -0.7664 -0.0567
  255DG      O9 5851   1.942   2.741   3.110 -0.3882  0.6550 -0.4981
  255DG     O10 5852   1.835   2.395   3.512 -0.1994 -0.2636  0.1113
  255DG     C11 5853   1.817   2.677   3.100  0.1338  0.6179  0.4014
  255DG     C12 5854   1.830   2.531   3.540  0.3945  0.4290 -0.2024
  255DG     H13 5855   1.818   2.570   3.079 -2.2927  0.4118  1.0018
  255DG     H14 5856   1.757   2.709   3.015 -0.8745 -1.2274  0.3706
  255DG     H15 5857   1.929   2.577   3.543 -0.4086  2.1903  0.2653
  255DG     H16 5858   1.799   2.538   3.644  1.4761 -1.4508  0.2981
  255DG     C17 5859   1.729   2.685   3.226 -0.2691  0.0609  0.0329
  255DG     C18 5860   1.733   2.614   3.450  0.7878  0.2351  0.1640
  255DG     O19 5861   1.792   2.607   3.328  0.0121  0.4049  0.6415
  255DG     H20 5862   1.628   2.650   3.209 -0.7703  1.4007  0.1111
  255DG     H21 5863   1.736   2.791   3.253 -1.0795  0.4763 -1.2934
  255DG     H22 5864   1.630   2.578   3.444  1.1153 -1.4673  3.0090
  255DG     H23 5865   1.738   2.719   3.480  1.4393  0.6913 -1.4542
  256DG      C1 5866   2.316   2.604   3.312 -0.4786  0.1336  0.0356
  256DG      C2 5867   2.641   1.884   3.288 -0.3366 -0.2784 -0.7161
  256DG      H3 5868   2.306   2.628   3.206 -0.2803 -1.7248 -0.4347
  256DG      H4 5869   2.403   2.660   3.347 -1.3700 -0.2580  3.1906
  256DG      H5 5870   2.227   2.634   3.368  0.0679  0.1222  0.9134
  256DG      H6 5871   2.630   1.777   3.301  1.2137 -0.7999 -3.1145
  256DG      H7 5872   2.656   1.896   3.181 -1.9726  1.3309 -0.8210
  256DG      H8 5873   2.724   1.922   3.348 -0.5158  1.1014 -1.3001
  256DG      O9 5874   2.325   2.461   3.328 -0.0452  0.1488 -0.5808
  256DG     O10 5875   2.531   1.960   3.337 -0.0381  0.2446 -0.3624
  256DG     C11 5876   2.212   2.391   3.279  0.1744  0.3135 -0.0140
  256DG     C12 5877   2.411   1.934   3.263 -0.7308  0.0206 -0.0458
  256DG     H13 5878   2.212   2.400   3.170 -0.3380 -1.4173 -0.1839
  256DG     H14 5879   2.118   2.432   3.316  0.0942 -0.2864  0.4565
  256DG     H15 5880   2.382   1.831   3.280  0.7014 -0.1309  1.8549
  256DG     H16 5881   2.425   1.956   3.157 -3.6097  1.6183 -0.2097
  256DG     C17 5882   2.212   2.243   3.327 -0.2058  1.3043  0.3653
  256DG     C18 5883   2.292   2.025   3.297 -0.9153 -0.3746  0.1238
  256DG     O19 5884   2.317   2.163   3.269  0.4070  0.3371 -0.3927
  256DG     H20 5885   2.115   2.204   3.296 -0.0831  0.0191  1.4927
  256DG     H21 5886   2.206   2.229   3.435  0.3207 -2.8112  0.0347
  256DG     H22 5887   2.206   1.994   3.237 -2.0119  0.3573  1.2617
  256DG     H23 5888   2.279   2.001   3.403 -1.7276 -1.6093 -0.2338
  257DG      C1 5889   2.012   4.747   0.270 -0.0467  0.3111 -0.0895
  257DG      C2 5890   1.758   4.431  -0.289 -0.5796  0.1908 -0.4783
  257DG      H3 5891   1.910   4.725   0.300 -0.5805  1.3754 -1.0440
  257DG      H4 5892   2.042   4.845   0.307  1.7306 -0.4094  0.4762
  257DG      H5 5893   2.091   4.680   0.302  1.2013  0.8876 -1.8092
  257DG      H6 5894   1.775   4.364  -0.373 -0.8408  2.5461 -2.5012
  257DG      H7 5895   1.689   4.379  -0.221 -0.4730  0.3187 -0.2712
  257DG      H8 5896   1.700   4.518  -0.319 -3.1746 -0.9973  0.7671
  257DG      O9 5897   2.006   4.741   0.125  0.3810  0.5194  0.3187
  257DG     O10 5898   1.880   4.457  -0.220 -0.0907  0.5774 -0.1046
  257DG     C11 5899   2.139   4.751   0.072 -0.0878  0.3065  0.4017
  257DG     C12 5900   1.986   4.504  -0.306  0.1358  0.0785  0.1915
  257DG     H13 5901   2.222   4.756   0.144  1.1846  0.3648 -1.0277
  257DG     H14 5902   2.151   4.846   0.020  0.4242  0.0512  0.0458
  257DG     H15 5903   1.944   4.587  -0.364 -0.1009 -0.6507 -0.6985
  257DG     H16 5904   2.011   4.440  -0.391 -1.1945  1.5088 -1.3572
  257DG     C17 5905   2.175   4.633  -0.018 -0.4495  0.2807  0.4610
  257DG     C18 5906   2.111   4.535  -0.232 -0.4318  0.1528 -0.2142
  257DG     O19 5907   2.084   4.633  -0.127 -0.3183  0.4196 -1.1266
  257DG     H20 5908   2.173   4.538   0.034 -1.4927 -1.4687 -2.5126
  257DG     H21 5909   2.276   4.639  -0.057 -0.8984  1.1670 -0.6452
  257DG     H22 5910   2.150   4.441  -0.195 -1.6853  0.6744  2.7550
  257DG     H23 5911   2.181   4.568  -0.308 -2.1468  0.6512 -1.6507
  258DG      C1 5912   4.426   1.668   0.676 -0.7328  0.9657  0.5997
  258DG      C2 5913   4.819   1.342   0.230 -0.0833  0.1907 -0.0218
  258DG      H3 5914   4.494   1.751   0.696 -0.6598  0.7543  1.2658
  258DG      H4 5915   4.349   1.653   0.751 -1.3559  0.2183 -0.1802
  258DG      H5 5916   4.375   1.686   0.582  1.0778  0.5036 -0.5291
  258DG      H6 5917   4.748   1.365   0.151 -0.1459  1.6254  0.4298
  258DG      H7 5918   4.919   1.355   0.188  0.3469  1.4791  1.2946
  258DG      H8 5919   4.801   1.240   0.263 -2.1911  0.5254 -0.0314
  258DG      O9 5920   4.514   1.550   0.670  0.2448 -0.2529  0.1298
  258DG     O10 5921   4.805   1.416   0.344  0.9472 -0.6912 -0.0660
  258DG     C11 5922   4.603   1.539   0.780 -0.1082 -0.0898 -0.6600
  258DG     C12 5923   4.919   1.399   0.427  0.2976  0.1450 -1.3970
  258DG     H13 5924   4.604   1.436   0.813 -3.8281  0.4845  1.8069
  258DG     H14 5925   4.581   1.611   0.859 -1.6937 -0.2183 -0.9632
  258DG     H15 5926   5.011   1.416   0.370 -0.4065  0.4638 -2.4542
  258DG     H16 5927   4.920   1.301   0.475  0.7154  0.5524 -0.5466
  258DG     C17 5928   4.739   1.569   0.713 -0.0387  0.4800 -0.3142
  258DG     C18 5929   4.899   1.509   0.544  1.0513  0.4859  0.1900
  258DG     O19 5930   4.768   1.483   0.599 -0.4121  0.1734 -0.2715
  258DG     H20 5931   4.813   1.544   0.790 -1.8574 -2.1377  0.7322
  258DG     H21 5932   4.748   1.673   0.682 -2.5105  1.1911  1.0716
  258DG     H22 5933   4.981   1.490   0.615  0.5122 -2.3085  0.2071
  258DG     H23 5934   4.899   1.606   0.495  1.8130  1.3186  1.7648
  259DG      C1 5935   4.659   1.526   3.732 -0.4748  0.3923 -0.4632
  259DG      C2 5936   5.099   1.387   3.634  0.8289 -0.2602 -0.0153
  259DG      H3 5937   4.696   1.515   3.630  2.3323  3.0096  0.1442
  259DG      H4 5938   4.576   1.597   3.737 -1.1633 -0.4567  1.0629
  259DG      H5 5939   4.633   1.423   3.760  0.9470  0.1369 -0.0438
  259DG      H6 5940   5.002   1.424   3.670  1.2834 -1.2620  2.3762
  259DG      H7 5941   5.130   1.413   3.533  1.4902  2.1410  0.7191
  259DG      H8 5942   5.088   1.279   3.644  0.9145 -0.1877  0.9647
  259DG      O9 5943   4.768   1.575   3.812  0.3447 -0.0793 -0.5319
  259DG     O10 5944   5.195   1.436   3.723  0.0028  0.1934 -0.0992
  259DG     C11 5945   4.815   1.701   3.770  0.6585  0.7879 -0.0402
  259DG     C12 5946   5.229   1.577   3.719  0.2933  0.4688  0.3831
  259DG     H13 5947   4.736   1.776   3.768 -0.5945 -0.4744 -2.2174
  259DG     H14 5948   4.841   1.701   3.664 -1.8067  0.0527 -0.7164
  259DG     H15 5949   5.288   1.593   3.628  0.2731  1.2288  0.5007
  259DG     H16 5950   5.307   1.602   3.790  0.7288 -1.7365  0.7524
  259DG     C17 5951   4.932   1.752   3.855 -0.0108  0.5280  0.8800
  259DG     C18 5952   5.110   1.665   3.726 -0.5047  0.2813  0.3483
  259DG     O19 5953   5.044   1.666   3.851 -0.3537 -0.1898  0.0134
  259DG     H20 5954   4.889   1.768   3.954 -1.3917 -0.7952  0.5232
  259DG     H21 5955   4.964   1.849   3.817  0.5774 -0.3959 -1.1122
  259DG     H22 5956   5.141   1.768   3.705 -0.2482 -0.2591 -2.3313
  259DG     H23 5957   5.046   1.633   3.644 -0.2223 -2.4005  1.0981
  260DG      C1 5958   3.691   3.191   2.161 -0.1585 -0.1703 -0.5758
  260DG      C2 5959   3.311   2.772   2.429 -0.0335 -0.8040  0.1277
  260DG      H3 5960   3.593   3.216   2.120 -0.3743 -0.8465 -0.4765
  260DG      H4 5961   3.759   3.240   2.091 -1.0151  0.7271 -0.8035
  260DG      H5 5962   3.698   3.242   2.257  0.1286  0.4044 -0.8977
  260DG      H6 5963   3.304   2.835   2.518  1.3296  0.0841 -0.3568
  260DG      H7 5964   3.244   2.818   2.357  1.3573  0.3201 -0.5094
  260DG      H8 5965   3.265   2.678   2.459 -1.5608  0.0292  0.4617
  260DG      O9 5966   3.707   3.050   2.165  0.7362  0.4501 -0.2166
  260DG     O10 5967   3.442   2.758   2.372 -0.1092  0.1472 -0.6641
  260DG     C11 5968   3.716   2.989   2.041 -0.0878  0.2957 -0.2577
  260DG     C12 5969   3.448   2.669   2.266 -0.9669  0.5752 -0.0289
  260DG     H13 5970   3.809   3.021   1.994 -0.0377 -1.9070 -1.8395
  260DG     H14 5971   3.634   3.017   1.975  0.1473  0.0929 -0.6462
  260DG     H15 5972   3.368   2.697   2.197 -1.1073 -0.9132 -0.5030
  260DG     H16 5973   3.436   2.568   2.305  0.9416  1.1216  2.1897
  260DG     C17 5974   3.703   2.845   2.049 -0.2306  0.3000 -0.2911
  260DG     C18 5975   3.575   2.679   2.187  0.4977  0.0543  0.1701
  260DG     O19 5976   3.610   2.813   2.156 -0.1558  0.4353  0.6771
  260DG     H20 5977   3.804   2.807   2.067 -1.1413 -1.2223  2.1336
  260DG     H21 5978   3.673   2.802   1.953 -0.5556  0.8205 -0.4253
  260DG     H22 5979   3.652   2.625   2.243  0.4023 -1.4449 -1.0646
  260DG     H23 5980   3.558   2.615   2.100 -0.6743 -0.4079  0.7172
  261DG      C1 5981   2.304   2.891   4.544 -0.1458  0.2597  0.0958
  261DG      C2 5982   2.570   2.373   3.896 -0.4426 -0.4152 -0.2659
  261DG      H3 5983   2.372   2.968   4.507  0.8596 -0.7135 -0.1332
  261DG      H4 5984   2.361   2.799   4.553  0.2469  0.2922 -1.6157
  261DG      H5 5985   2.276   2.922   4.645  1.7245 -0.0221  0.7310
  261DG      H6 5986   2.538   2.285   3.951  0.4446 -0.3123  0.4360
  261DG      H7 5987   2.499   2.410   3.822 -0.4849  1.9005  0.8636
  261DG      H8 5988   2.673   2.354   3.864 -0.7322 -1.6484 -0.5247
  261DG      O9 5989   2.198   2.898   4.447  0.7442  0.6793 -0.3251
  261DG     O10 5990   2.586   2.477   3.997  0.0420 -0.6790 -0.1123
  261DG     C11 5991   2.200   2.790   4.354 -0.6771 -0.1788  0.0390
  261DG     C12 5992   2.463   2.503   4.073  0.1419  0.2390  0.1334
  261DG     H13 5993   2.108   2.782   4.295  0.4386 -1.1699 -1.6547
  261DG     H14 5994   2.200   2.704   4.421 -0.1538  0.0257  0.3057
  261DG     H15 5995   2.455   2.427   4.151  0.5641  0.0529 -0.0000
  261DG     H16 5996   2.374   2.489   4.011  0.2200 -0.6834  0.2099
  261DG     C17 5997   2.329   2.791   4.264 -0.2421  0.4400  0.1542
  261DG     C18 5998   2.470   2.638   4.131  0.6552 -0.0082 -0.1974
  261DG     O19 5999   2.354   2.656   4.223 -0.0915 -0.4818  0.1512
  261DG     H20 6000   2.417   2.818   4.322 -2.4061 -3.0145  6.0205
  261DG     H21 6001   2.323   2.866   4.186 -0.1206  0.2683 -0.0218
  261DG     H22 6002   2.567   2.660   4.177  0.6720  2.5656 -1.3028
  261DG     H23 6003   2.466   2.716   4.055  1.2553 -0.8877 -1.1489
  262DG      C1 6004   2.482   3.980   0.303 -0.1395  0.2441 -0.3530
  262DG      C2 6005   2.094   3.562   0.858 -0.3104  0.4368  0.0255
  262DG      H3 6006   2.547   3.922   0.238  1.3627  1.3970  0.0901
  262DG      H4 6007   2.539   4.030   0.382 -0.4056 -1.0335  0.6866
  262DG      H5 6008   2.449   4.058   0.234  1.3809  0.8911 -0.3770
  262DG      H6 6009   2.140   3.464   0.849 -1.9197 -0.4280  0.8570
  262DG      H7 6010   2.129   3.621   0.943  0.3041 -1.2294  0.9615
  262DG      H8 6011   1.993   3.527   0.880 -0.7831  1.6814 -0.0875
  262DG      O9 6012   2.368   3.903   0.346  0.2084  0.0614  0.0250
  262DG     O10 6013   2.105   3.639   0.740  0.0160 -0.4240  0.4892
  262DG     C11 6014   2.259   3.970   0.393 -0.6774  0.0065  0.1143
  262DG     C12 6015   2.093   3.567   0.618 -0.1287  0.2967 -0.0263
  262DG     H13 6016   2.236   4.047   0.320  1.2194  0.4255 -0.0901
  262DG     H14 6017   2.270   4.006   0.496 -0.6016  1.0570 -0.2493
  262DG     H15 6018   2.015   3.492   0.631  0.9559 -1.5604 -3.2006
  262DG     H16 6019   2.183   3.509   0.596  0.7727  1.5075  0.3494
  262DG     C17 6020   2.145   3.867   0.402  0.5492  0.5213  0.1705
  262DG     C18 6021   2.067   3.665   0.510  1.1687  0.1288 -0.1828
  262DG     O19 6022   2.178   3.757   0.486  0.1106  0.4189  0.4355
  262DG     H20 6023   2.130   3.815   0.307 -1.5868 -0.9419  1.2168
  262DG     H21 6024   2.046   3.900   0.434 -0.0055 -1.1754  0.2948
  262DG     H22 6025   2.056   3.609   0.417 -0.5913 -0.9861  0.6432
  262DG     H23 6026   1.972   3.718   0.526  0.7088 -0.7741  0.1228
  263DG      C1 6027   2.558   4.205   2.142  0.1960 -0.0385  0.2779
  263DG      C2 6028   2.861   4.299   1.677  0.8116 -0.0613  0.0455
  263DG      H3 6029   2.500   4.290   2.107 -0.3369 -0.7781 -0.6513
  263DG      H4 6030   2.663   4.203   2.111 -0.2403 -1.1968 -1.2375
  263DG      H5 6031   2.554   4.213   2.251 -1.0269 -1.8307  0.4016
  263DG      H6 6032   2.909   4.263   1.585 -0.9560  0.3028 -1.0619
  263DG      H7 6033   2.792   4.377   1.647  0.3916 -0.0595  0.9865
  263DG      H8 6034   2.936   4.347   1.740 -0.6844  1.3849  0.7798
  263DG      O9 6035   2.487   4.085   2.125 -0.1483 -0.0060 -0.1371
  263DG     O10 6036   2.795   4.193   1.742 -0.6996 -0.0161 -0.1531
  263DG     C11 6037   2.567   3.969   2.152  0.6259  0.6300 -0.3668
  263DG     C12 6038   2.888   4.099   1.806 -0.8406  0.1283  0.1051
  263DG     H13 6039   2.507   3.890   2.197 -0.6884  2.1411  0.6399
  263DG     H14 6040   2.640   3.993   2.230  0.4221 -0.3686  0.1613
  263DG     H15 6041   2.945   4.146   1.887 -0.8093 -0.5100  0.4549
  263DG     H16 6042   2.966   4.064   1.739  3.4387  2.6240  3.2436
  263DG     C17 6043   2.628   3.920   2.019 -0.1267  0.0863  0.1641
  263DG     C18 6044   2.812   3.973   1.867  0.3498  0.2235 -0.1835
  263DG     O19 6045   2.731   4.011   1.980  0.1175 -1.0204 -0.5223
  263DG     H20 6046   2.557   3.906   1.937  0.0937 -2.2490  0.2937
  263DG     H21 6047   2.669   3.821   2.040  0.3752  0.0632 -0.8357
  263DG     H22 6048   2.748   3.917   1.799  0.0933 -1.7879  1.6173
  263DG     H23 6049   2.885   3.904   1.908  0.6582  1.0243  0.6390
  264DG      C1 6050   3.176   3.617   4.058 -0.5576 -0.1916  0.3676
  264DG      C2 6051   3.119   2.968   3.775  0.2936 -0.4574  1.0045
  264DG      H3 6052   3.218   3.682   3.981 -1.0451 -1.5558 -1.0901
  264DG      H4 6053   3.257   3.562   4.105  0.2497  1.3372  0.8564
  264DG      H5 6054   3.115   3.674   4.128 -3.3820 -2.1366 -0.3355
  264DG      H6 6055   3.181   3.035   3.715  0.8898 -2.5756 -0.8665
  264DG      H7 6056   3.175   2.917   3.853  0.3816 -3.2003 -0.7210
  264DG      H8 6057   3.091   2.878   3.721  1.3700  0.2326 -0.8145
  264DG      O9 6058   3.088   3.542   3.984 -0.1115 -0.3571 -0.0088
  264DG     O10 6059   3.006   3.049   3.829 -0.0620 -0.0121 -0.0820
  264DG     C11 6060   3.017   3.454   4.068 -0.2389  0.7752 -0.1089
  264DG     C12 6061   2.928   3.120   3.737 -0.3049  0.8852  0.1657
  264DG     H13 6062   2.968   3.492   4.158 -0.2198  0.4055  0.0605
  264DG     H14 6063   3.091   3.378   4.092  1.1941  1.3488 -2.4562
  264DG     H15 6064   2.851   3.047   3.708 -1.2535  1.9787 -0.1561
  264DG     H16 6065   2.974   3.154   3.645  0.6142  0.7553  0.5657
  264DG     C17 6066   2.906   3.385   3.979 -0.1785 -0.2929  0.0433
  264DG     C18 6067   2.855   3.239   3.801  0.4357  0.6568 -0.6352
  264DG     O19 6068   2.960   3.296   3.876 -0.0130  0.1602 -0.4007
  264DG     H20 6069   2.843   3.461   3.933 -0.4461 -0.9212 -0.6505
  264DG     H21 6070   2.840   3.331   4.047 -1.3962 -0.9036 -1.5374
  264DG     H22 6071   2.810   3.317   3.740 -0.6740  3.3814  3.2257
  264DG     H23 6072   2.776   3.208   3.869 -1.1587  4.8556 -0.2734
  265DG      C1 6073   4.682   1.135   3.535 -0.1502 -0.1445  0.7186
  265DG      C2 6074   4.335   1.726   3.687 -0.1945 -0.0221 -0.2361
  265DG      H3 6075   4.704   1.028   3.530 -1.8859 -0.4826 -2.6365
  265DG      H4 6076   4.757   1.186   3.595 -0.5321  0.6691  0.5150
  265DG      H5 6077   4.688   1.174   3.433  1.7157 -2.3936 -0.1251
  265DG      H6 6078   4.428   1.766   3.726  0.2107 -2.3092  1.2764
  265DG      H7 6079   4.349   1.760   3.584  0.4039 -0.9187 -0.4604
  265DG      H8 6080   4.252   1.779   3.734  0.3840 -1.0930  2.1177
  265DG      O9 6081   4.557   1.166   3.601 -0.1391  0.3539  0.0680
  265DG     O10 6082   4.327   1.588   3.702  0.3792  0.2197  0.6206
  265DG     C11 6083   4.445   1.150   3.516 -0.3536  0.5345 -0.0450
  265DG     C12 6084   4.210   1.541   3.641 -0.3821  0.6235 -0.2812
  265DG     H13 6085   4.444   1.044   3.495  0.8682  0.9228 -2.4071
  265DG     H14 6086   4.460   1.199   3.420 -1.0437  0.0435 -0.4120
  265DG     H15 6087   4.209   1.558   3.533  2.7020  0.5554 -0.4070
  265DG     H16 6088   4.124   1.583   3.693 -0.0505 -0.7806  1.5446
  265DG     C17 6089   4.319   1.196   3.590  0.5246 -0.0650  0.4435
  265DG     C18 6090   4.199   1.394   3.657  0.1720 -0.3331 -0.4104
  265DG     O19 6091   4.314   1.331   3.600 -0.0341 -0.3543  0.6737
  265DG     H20 6092   4.332   1.153   3.690 -0.8730 -0.2823  0.5439
  265DG     H21 6093   4.227   1.156   3.549 -0.6842  2.4276  0.5842
  265DG     H22 6094   4.199   1.356   3.759 -0.5670 -2.5245 -1.1597
  265DG     H23 6095   4.104   1.367   3.610 -1.1572 -0.4225  2.1712
  266DG      C1 6096   5.243   0.063   3.788 -0.2208 -0.2316 -0.0844
  266DG      C2 6097   4.680  -0.007   4.144  0.2268  0.1236 -0.1667
  266DG      H3 6098   5.304   0.015   3.711 -0.6500 -0.8907 -0.0204
  266DG      H4 6099   5.256   0.012   3.883 -0.1411  0.6893  0.4052
  266DG      H5 6100   5.279   0.165   3.800  1.0037 -0.5396 -0.9404
  266DG      H6 6101   4.703   0.065   4.222 -0.8127 -2.2341  2.4749
  266DG      H7 6102   4.575  -0.037   4.135  0.3756 -0.9076  1.2170
  266DG      H8 6103   4.734  -0.099   4.167  0.4826  0.0543 -1.0219
  266DG      O9 6104   5.101   0.062   3.757  0.3742 -0.1500 -0.1725
  266DG     O10 6105   4.735   0.036   4.023  0.0162 -0.3465  0.5570
  266DG     C11 6106   5.058   0.172   3.682 -0.1589 -0.1265 -0.1326
  266DG     C12 6107   4.658   0.138   3.969 -0.0321  0.4938  0.1982
  266DG     H13 6108   5.088   0.180   3.577 -0.6687  3.0407 -0.1311
  266DG     H14 6109   5.093   0.265   3.726 -0.6862 -0.6249  1.4158
  266DG     H15 6110   4.678   0.229   4.025  2.9799  0.4568 -0.6148
  266DG     H16 6111   4.550   0.129   3.978  0.0178 -0.5275 -0.0633
  266DG     C17 6112   4.904   0.184   3.685  0.7459 -0.2561 -0.4576
  266DG     C18 6113   4.710   0.170   3.825  0.3810  0.1761  0.0719
  266DG     O19 6114   4.850   0.172   3.822 -0.8029 -0.0199  0.1322
  266DG     H20 6115   4.856   0.116   3.616 -2.1179 -2.5452  3.3832
  266DG     H21 6116   4.875   0.281   3.645 -1.2930 -0.7608 -0.2795
  266DG     H22 6117   4.686   0.091   3.754  1.9235  2.0369 -2.7945
  266DG     H23 6118   4.677   0.263   3.778  1.1413 -0.2570 -1.4178
  267DG      C1 6119   5.139   1.690   0.957 -0.6690 -0.2705  0.4315
  267DG      C2 6120   5.790   1.444   0.896 -0.2239 -0.4324  0.2666
  267DG      H3 6121   5.179   1.771   0.896  2.2965 -1.6358  0.3584
  267DG      H4 6122   5.106   1.734   1.051 -0.5144  1.7249 -0.4021
  267DG      H5 6123   5.060   1.636   0.906 -2.4486  1.1916  1.5102
  267DG      H6 6124   5.827   1.543   0.923 -1.6955 -0.2680  1.8925
  267DG      H7 6125   5.853   1.364   0.858 -0.0690  0.1514 -0.7192
  267DG      H8 6126   5.725   1.479   0.816 -0.8735  0.1673  1.0429
  267DG      O9 6127   5.255   1.608   1.003 -0.1832 -0.3688  0.1915
  267DG     O10 6128   5.707   1.405   1.004  0.6624  0.4536 -0.2394
  267DG     C11 6129   5.207   1.491   1.066 -0.5022 -0.0431 -0.4571
  267DG     C12 6130   5.624   1.288   0.971 -0.2291 -0.2507 -0.1515
  267DG     H13 6131   5.154   1.426   0.996  0.2859 -0.7106 -0.4485
  267DG     H14 6132   5.139   1.512   1.148  1.6156  2.2389  0.8084
  267DG     H15 6133   5.686   1.199   0.978  1.9882  1.0964 -1.5835
  267DG     H16 6134   5.582   1.299   0.870  1.4973 -2.5301 -1.2096
  267DG     C17 6135   5.318   1.415   1.143 -0.3868  0.0889  0.4381
  267DG     C18 6136   5.504   1.283   1.077  0.1986  0.0215  0.4750
  267DG     O19 6137   5.428   1.399   1.046 -0.1204 -0.0740  0.2850
  267DG     H20 6138   5.281   1.315   1.164  0.2834 -0.5515 -1.2559
  267DG     H21 6139   5.339   1.476   1.231 -1.0729  0.8323  0.0980
  267DG     H22 6140   5.435   1.200   1.060  1.3931 -0.8989 -0.0508
  267DG     H23 6141   5.542   1.273   1.178 -0.2753  1.7671  0.8510
  268DG      C1 6142   0.469   3.857   1.917 -0.4535 -0.1233 -0.5133
  268DG      C2 6143   0.857   4.351   2.463 -0.5002 -0.5415 -0.3577
  268DG      H3 6144   0.421   3.954   1.911  0.3565  0.4384  1.5468
  268DG      H4 6145   0.415   3.811   1.999 -0.3699  1.4362  0.4413
  268DG      H5 6146   0.449   3.794   1.830 -0.6571 -0.8848  0.0720
  268DG      H6 6147   0.895   4.308   2.556 -0.3266 -2.1096 -1.1211
  268DG      H7 6148   0.933   4.426   2.441 -0.8310  0.2022  0.9703
  268DG      H8 6149   0.766   4.407   2.481  0.2733  0.8528 -0.6586
  268DG      O9 6150   0.611   3.862   1.951 -0.5875 -0.7150 -0.0313
  268DG     O10 6151   0.831   4.255   2.361  0.3269  0.5174 -0.1767
  268DG     C11 6152   0.640   3.940   2.070  0.1899 -0.3733  0.7648
  268DG     C12 6153   0.941   4.199   2.297 -0.1821 -0.7403  0.8011
  268DG     H13 6154   0.620   3.878   2.157  0.9711  1.4311  2.3068
  268DG     H14 6155   0.585   4.034   2.072 -0.6257 -0.7462 -1.3786
  268DG     H15 6156   0.972   4.117   2.362  0.8291 -1.6921 -0.8164
  268DG     H16 6157   1.028   4.264   2.299 -1.6078  1.2391  1.8118
  268DG     C17 6158   0.788   3.987   2.058 -0.0099  0.6476  0.1966
  268DG     C18 6159   0.923   4.143   2.158 -0.0305  0.5701  0.7737
  268DG     O19 6160   0.817   4.064   2.170  0.3677 -0.2851 -0.1817
  268DG     H20 6161   0.796   4.039   1.962  0.5041  1.5258  0.6968
  268DG     H21 6162   0.852   3.901   2.041  0.0066  0.8210 -0.6688
  268DG     H22 6163   0.907   4.226   2.089 -1.4489  0.2819  0.7399
  268DG     H23 6164   1.009   4.080   2.134 -0.4024  0.4084 -0.1653
  269DG      C1 6165   0.886   2.543   3.999  0.2346 -0.4042 -0.4298
  269DG      C2 6166   0.491   2.152   3.663 -0.0010 -0.0662  0.2480
  269DG      H3 6167   0.820   2.567   4.082  2.2204  0.0423  1.1168
  269DG      H4 6168   0.861   2.612   3.919  0.3537 -1.5407 -1.4796
  269DG      H5 6169   0.986   2.562   4.038  1.9922 -0.5281 -4.3624
  269DG      H6 6170   0.481   2.235   3.594  0.2068 -1.2987 -1.3382
  269DG      H7 6171   0.460   2.062   3.610  0.8295  1.2205 -2.6186
  269DG      H8 6172   0.433   2.156   3.754  1.8698 -1.2989  1.5633
  269DG      O9 6173   0.886   2.411   3.948 -0.2581  0.2092  0.1191
  269DG     O10 6174   0.633   2.133   3.686  0.3508 -0.3355  0.1175
  269DG     C11 6175   0.930   2.310   4.038 -0.0950 -0.1511 -0.0476
  269DG     C12 6176   0.667   2.020   3.757 -0.4322 -0.0907 -0.1657
  269DG     H13 6177   0.877   2.295   4.132  1.5429  0.4052  1.0081
  269DG     H14 6178   1.030   2.333   4.076  0.4312 -0.9339 -0.8976
  269DG     H15 6179   0.645   1.933   3.694  0.8235 -1.0618  0.6838
  269DG     H16 6180   0.601   2.023   3.843  0.9718 -0.5041  0.9649
  269DG     C17 6181   0.938   2.185   3.952  0.3764 -0.5830 -0.2722
  269DG     C18 6182   0.815   2.027   3.816  0.4282  0.7989 -0.5215
  269DG     O19 6183   0.812   2.157   3.887  0.6062  0.3035 -0.2784
  269DG     H20 6184   0.961   2.098   4.013  0.2706  0.2387  0.9705
  269DG     H21 6185   1.015   2.201   3.876  0.0170  1.1144 -0.3221
  269DG     H22 6186   0.822   1.945   3.888  2.0681 -0.2918 -1.8601
  269DG     H23 6187   0.906   2.022   3.756  0.2662 -1.5285 -0.6513
  270DG      C1 6188   0.832   0.245   3.908 -0.1403 -0.2473 -0.2817
  270DG      C2 6189   0.412   0.717   3.899  0.4625  0.0611 -0.0854
  270DG      H3 6190   0.737   0.208   3.869  0.8208 -0.3183 -2.7057
  270DG      H4 6191   0.863   0.170   3.981  0.3809  0.8924  0.7098
  270DG      H5 6192   0.913   0.247   3.836 -1.1799  0.3449 -1.4538
  270DG      H6 6193   0.397   0.610   3.886  0.2273 -0.2021  1.9415
  270DG      H7 6194   0.344   0.767   3.830 -0.8430 -1.3332  0.1583
  270DG      H8 6195   0.510   0.749   3.864  0.2628 -1.1021 -1.8465
  270DG      O9 6196   0.827   0.365   3.983  0.4144 -0.0431 -0.1797
  270DG     O10 6197   0.378   0.761   4.026 -0.5474 -0.0262  0.3011
  270DG     C11 6198   0.767   0.470   3.910  0.2393  0.6503  0.4182
  270DG     C12 6199   0.497   0.776   4.106 -0.4276  0.3250 -0.3777
  270DG     H13 6200   0.683   0.442   3.845  1.8775 -0.2542 -1.4219
  270DG     H14 6201   0.836   0.510   3.836  2.0885  0.1365  1.7923
  270DG     H15 6202   0.473   0.841   4.190 -1.3391 -1.0773  0.4828
  270DG     H16 6203   0.581   0.828   4.059 -0.5543 -0.9110 -2.0472
  270DG     C17 6204   0.723   0.577   4.011  0.9864 -0.5204  0.2500
  270DG     C18 6205   0.545   0.642   4.169  0.2739 -0.5356 -0.0240
  270DG     O19 6206   0.596   0.551   4.076  0.2467 -0.1083  0.3408
  270DG     H20 6207   0.717   0.673   3.960 -1.4172 -1.5921 -1.6439
  270DG     H21 6208   0.802   0.588   4.086  0.9469 -1.5306  0.4499
  270DG     H22 6209   0.618   0.663   4.247 -0.4815 -0.5699  0.7109
  270DG     H23 6210   0.453   0.609   4.218 -1.8113  2.1653 -1.8448
  271DG      C1 6211   1.045   4.151   3.043  1.0001  0.0086  0.6230
  271DG      C2 6212   1.409   3.870   2.602  0.1433  0.8586  0.5534
  271DG      H3 6213   0.952   4.127   2.991  0.5379  0.3501  1.2843
  271DG      H4 6214   1.031   4.243   3.100  0.4145  0.3338 -0.0279
  271DG      H5 6215   1.056   4.065   3.109 -2.2743 -0.3099  0.9533
  271DG      H6 6216   1.475   3.863   2.516 -0.0138  0.6462  0.4485
  271DG      H7 6217   1.453   3.808   2.680  0.4755 -0.5376 -0.6932
  271DG      H8 6218   1.313   3.823   2.581  1.0606 -1.0560  0.3819
  271DG      O9 6219   1.152   4.181   2.959 -0.6139 -0.1892  0.3928
  271DG     O10 6220   1.376   4.004   2.636 -0.1890 -0.0835  0.4823
  271DG     C11 6221   1.120   4.298   2.881  0.2483  0.1265 -0.1961
  271DG     C12 6222   1.322   4.070   2.524  0.2840 -0.0313 -0.0720
  271DG     H13 6223   1.116   4.385   2.947 -0.1229 -0.5046  0.6259
  271DG     H14 6224   1.022   4.285   2.836  1.1780 -3.1166 -1.5667
  271DG     H15 6225   1.233   4.020   2.483 -0.7846 -0.6454  2.7952
  271DG     H16 6226   1.394   4.086   2.443  1.0303  1.9067  0.9302
  271DG     C17 6227   1.228   4.314   2.770  0.2819  0.0186  0.5932
  271DG     C18 6228   1.280   4.214   2.569 -0.2423 -0.2382  0.0861
  271DG     O19 6229   1.235   4.194   2.701  0.2545 -1.0893 -0.1987
  271DG     H20 6230   1.328   4.324   2.812 -0.1519  1.9717  1.2533
  271DG     H21 6231   1.208   4.404   2.711  0.9228  1.3003  2.2696
  271DG     H22 6232   1.371   4.272   2.561  0.4401 -0.9541  2.0266
  271DG     H23 6233   1.199   4.248   2.505 -0.9914  1.7357  1.9800
  272DG      C1 6234   1.194   0.962   1.230 -0.6513  0.6446  0.0150
  272DG      C2 6235   1.839   0.844   1.631 -0.8310 -0.4924  0.1828
  272DG      H3 6236   1.102   0.903   1.236 -0.0460 -0.3733 -0.3687
  272DG      H4 6237   1.259   0.916   1.155 -1.7938  1.3257 -1.4306
  272DG      H5 6238   1.173   1.057   1.183 -0.4660  1.0937  0.8130
  272DG      H6 6239   1.914   0.775   1.592 -1.0398 -0.9818  0.6212
  272DG      H7 6240   1.840   0.941   1.582  0.4398 -0.1445  0.8399
  272DG      H8 6241   1.869   0.866   1.734 -1.8762  1.9048  0.0256
  272DG      O9 6242   1.257   0.985   1.354  0.1383  0.4719  0.2358
  272DG     O10 6243   1.714   0.778   1.629 -0.2027  0.4284  0.3929
  272DG     C11 6244   1.303   0.855   1.406  0.1318 -0.3436 -0.1532
  272DG     C12 6245   1.614   0.835   1.715  0.1969 -0.0135 -0.1377
  272DG     H13 6246   1.368   0.799   1.339  1.1809  0.6620 -0.0137
  272DG     H14 6247   1.212   0.803   1.436 -0.0328  1.0267  1.8913
  272DG     H15 6248   1.611   0.941   1.693  3.0119  0.1650  0.0227
  272DG     H16 6249   1.648   0.824   1.818 -0.6733 -1.4008  0.0410
  272DG     C17 6250   1.396   0.891   1.520 -0.1413  0.7649 -0.3198
  272DG     C18 6251   1.475   0.762   1.702 -0.0412  0.6401  0.7003
  272DG     O19 6252   1.440   0.768   1.564  0.2679  0.8125 -0.3597
  272DG     H20 6253   1.331   0.943   1.591  1.2808  0.3828  1.3553
  272DG     H21 6254   1.474   0.958   1.484 -0.9503  1.6913 -0.3818
  272DG     H22 6255   1.496   0.660   1.734 -1.1084 -0.2773 -1.3578
  272DG     H23 6256   1.395   0.813   1.756  1.2629  2.2758  1.1640
  273DG      C1 6257   3.821   1.750   1.552  0.0704  0.0655 -0.0728
  273DG      C2 6258   4.361   2.284   1.494  0.0287 -0.4574 -0.0746
  273DG      H3 6259   3.715   1.738   1.574  0.0760  0.0138 -0.0743
  273DG      H4 6260   3.880   1.705   1.631  0.4291 -0.7187 -0.7715
  273DG      H5 6261   3.852   1.716   1.453  3.2113 -2.7174  1.6865
  273DG      H6 6262   4.422   2.211   1.441  0.7645 -0.8596  1.3030
  273DG      H7 6263   4.372   2.380   1.443 -0.0082  0.2998  1.2997
  273DG      H8 6264   4.401   2.309   1.592 -1.8157  2.7465 -0.0021
  273DG      O9 6265   3.854   1.887   1.562 -0.0780 -0.5914 -0.0674
  273DG     O10 6266   4.222   2.254   1.480  0.4521  0.1192 -0.5640
  273DG     C11 6267   3.788   1.970   1.467  0.5701 -0.0900  0.4541
  273DG     C12 6268   4.192   2.122   1.429  0.0895 -0.5695 -0.0865
  273DG     H13 6269   3.681   1.950   1.477  0.3024  0.8697 -0.2840
  273DG     H14 6270   3.817   1.944   1.365  0.3437  2.9770 -0.5063
  273DG     H15 6271   4.219   2.062   1.515  1.5833  2.6869  1.9078
  273DG     H16 6272   4.249   2.098   1.339  0.3880 -0.6418  0.1217
  273DG     C17 6273   3.830   2.112   1.511  0.1274 -0.0535 -0.1578
  273DG     C18 6274   4.038   2.118   1.412  0.3677  0.1000  0.2220
  273DG     O19 6275   3.965   2.134   1.536 -0.8912 -0.4633 -0.7191
  273DG     H20 6276   3.777   2.124   1.605 -0.1037  0.8143 -0.3905
  273DG     H21 6277   3.785   2.184   1.443 -1.1626  0.4293  1.1648
  273DG     H22 6278   4.016   2.197   1.341  0.1279  0.8576  1.1337
  273DG     H23 6279   4.014   2.025   1.361 -0.6252 -0.2114  1.2140
  274DG      C1 6280   0.387   4.029   5.043  0.0615 -0.2489  0.4790
  274DG      C2 6281   0.479   3.311   4.888 -0.2188  0.1852 -0.3433
  274DG      H3 6282   0.485   4.003   5.084  0.2490 -0.1362  0.1001
  274DG      H4 6283   0.319   4.035   5.128  0.7399 -2.3827  1.2233
  274DG      H5 6284   0.406   4.123   4.992 -0.0640 -0.7329 -0.4687
  274DG      H6 6285   0.450   3.225   4.828  1.1411  0.7746 -1.9333
  274DG      H7 6286   0.582   3.311   4.924  0.2147 -0.5190 -1.5228
  274DG      H8 6287   0.424   3.316   4.982  1.0789  1.7729  0.3784
  274DG      O9 6288   0.338   3.928   4.955 -0.2451 -0.3657 -0.5482
  274DG     O10 6289   0.451   3.438   4.832  0.1493 -0.4005  0.1007
  274DG     C11 6290   0.389   3.944   4.825 -0.1609 -0.4411 -0.0182
  274DG     C12 6291   0.310   3.471   4.805 -0.2444  0.2347 -0.0559
  274DG     H13 6292   0.497   3.937   4.823 -0.1875 -0.8397 -0.6467
  274DG     H14 6293   0.370   4.043   4.784  1.0601  0.2141  0.9357
  274DG     H15 6294   0.264   3.475   4.904 -1.7264  0.0909 -0.7249
  274DG     H16 6295   0.259   3.389   4.756 -0.2753  0.3074 -0.1453
  274DG     C17 6296   0.331   3.834   4.740 -0.2930  0.9905  0.2456
  274DG     C18 6297   0.289   3.603   4.730  0.1810  0.4000  0.3195
  274DG     O19 6298   0.349   3.703   4.808 -0.3043  0.2353 -0.3280
  274DG     H20 6299   0.377   3.833   4.641  0.0219  1.0693  0.3928
  274DG     H21 6300   0.228   3.859   4.714 -0.8147 -1.3183 -0.0909
  274DG     H22 6301   0.319   3.606   4.625 -2.6488  0.3427 -0.5869
  274DG     H23 6302   0.184   3.633   4.727  0.7952  2.7136  0.0593
  275DG      C1 6303   2.470   0.494   4.063  0.3942  0.4163  1.0319
  275DG      C2 6304   2.262  -0.399   3.805  0.2461 -0.2002  0.1857
  275DG      H3 6305   2.442   0.544   3.970  0.6795 -0.9974  0.1663
  275DG      H4 6306   2.538   0.559   4.119  1.0924  1.1392 -0.5804
  275DG      H5 6307   2.372   0.484   4.109 -1.2135  1.1351 -1.9527
  275DG      H6 6308   2.179  -0.359   3.747  2.5278  2.9031 -1.1615
  275DG      H7 6309   2.313  -0.484   3.760  1.1561 -0.9138  2.4121
  275DG      H8 6310   2.211  -0.438   3.894 -0.3912  1.6046  0.6597
  275DG      O9 6311   2.535   0.368   4.018  0.3422 -0.1097  0.6997
  275DG     O10 6312   2.359  -0.302   3.840  0.4654  0.1521  0.1157
  275DG     C11 6313   2.441   0.272   3.962  0.1185 -1.2733  0.1574
  275DG     C12 6314   2.316  -0.180   3.892  0.0697  0.5015 -0.3402
  275DG     H13 6315   2.390   0.310   3.874  0.4822 -0.2265  0.3791
  275DG     H14 6316   2.361   0.255   4.034 -0.2247  0.4049  0.2114
  275DG     H15 6317   2.289  -0.193   3.997  2.3921 -0.7608  0.1710
  275DG     H16 6318   2.224  -0.149   3.842 -0.7388 -0.1394  0.7029
  275DG     C17 6319   2.503   0.139   3.927 -0.3854  0.4498 -0.2843
  275DG     C18 6320   2.430  -0.076   3.870  0.1225 -0.1524  0.0154
  275DG     O19 6321   2.393   0.040   3.936 -0.2145  0.4002  0.3837
  275DG     H20 6322   2.574   0.109   4.004  0.4056  1.9531 -0.3889
  275DG     H21 6323   2.562   0.145   3.835  1.7464 -0.9910  0.8940
  275DG     H22 6324   2.522  -0.117   3.911  0.1194 -0.5517 -0.3582
  275DG     H23 6325   2.441  -0.050   3.764 -0.5140  0.2061  0.0362
  276DG      C1 6326   3.348   5.236   5.085 -0.8675  0.4989  0.0559
  276DG      C2 6327   2.986   4.926   4.358  0.0665 -0.1372  0.6428
  276DG      H3 6328   3.261   5.183   5.124  0.5854 -2.1463 -0.0391
  276DG      H4 6329   3.346   5.344   5.098  0.6356  0.2781  3.0344
  276DG      H5 6330   3.426   5.203   5.154 -2.0997  0.1862  1.3446
  276DG      H6 6331   3.026   4.833   4.316 -0.6570 -0.2896  0.2646
  276DG      H7 6332   2.909   4.908   4.433 -1.3656  2.2175 -0.1722
  276DG      H8 6333   2.947   4.997   4.285 -0.3060 -0.5294  0.4471
  276DG      O9 6334   3.386   5.190   4.957  0.4786  0.1312 -0.6213
  276DG     O10 6335   3.093   4.980   4.432 -0.3133  0.2827  0.3280
  276DG     C11 6336   3.265   5.149   4.891  0.0322 -0.0698  0.8438
  276DG     C12 6337   3.059   5.114   4.472 -0.4427  0.2720 -0.5513
  276DG     H13 6338   3.191   5.226   4.873 -0.0784 -0.8722 -2.9907
  276DG     H14 6339   3.215   5.062   4.933 -1.5479  0.1647 -0.4612
  276DG     H15 6340   2.960   5.125   4.515 -0.1207  1.2586 -0.0160
  276DG     H16 6341   3.061   5.186   4.390  0.8176  1.3591  0.3852
  276DG     C17 6342   3.302   5.109   4.750 -0.0825 -0.2738 -0.6764
  276DG     C18 6343   3.172   5.169   4.559 -0.1749  0.3363 -0.3343
  276DG     O19 6344   3.189   5.080   4.667 -0.5403 -0.5677 -0.4739
  276DG     H20 6345   3.366   5.021   4.758  0.3926  0.1663  0.8396
  276DG     H21 6346   3.373   5.179   4.705  0.1932  0.2797  0.5711
  276DG     H22 6347   3.265   5.183   4.505  0.7592  0.7167  1.3030
  276DG     H23 6348   3.156   5.266   4.605 -0.1503 -0.0563  0.5282
  277DG      C1 6349   2.654   1.070   5.314  0.8226 -0.0030  0.0273
  277DG      C2 6350   3.141   1.471   5.472  0.3791  0.0380 -0.2795
  277DG      H3 6351   2.632   0.979   5.259  1.5045  0.2469 -0.6733
  277DG      H4 6352   2.555   1.088   5.357  0.4856 -1.1212 -0.2366
  277DG      H5 6353   2.725   1.044   5.393  1.3994  0.0400 -0.4693
  277DG      H6 6354   3.223   1.527   5.426  2.4434 -0.7477  2.1816
  277DG      H7 6355   3.115   1.536   5.555 -0.7363  0.2711 -0.8019
  277DG      H8 6356   3.181   1.381   5.519 -1.0703 -2.1180 -2.8933
  277DG      O9 6357   2.712   1.176   5.242  0.9109 -0.1690 -0.0732
  277DG     O10 6358   3.037   1.439   5.390 -0.5137  0.2114 -0.1883
  277DG     C11 6359   2.614   1.267   5.192  0.2094  0.1488  0.5866
  277DG     C12 6360   2.969   1.558   5.337 -0.2546  0.6208 -0.0790
  277DG     H13 6361   2.548   1.304   5.270 -1.1201 -0.3507 -0.2602
  277DG     H14 6362   2.552   1.229   5.111  0.8013  1.0433 -0.3058
  277DG     H15 6363   3.044   1.633   5.313 -1.0949  1.2452 -0.7988
  277DG     H16 6364   2.906   1.605   5.412  0.1890  2.0516 -0.5785
  277DG     C17 6365   2.700   1.383   5.138  0.8185 -0.5236  0.3624
  277DG     C18 6366   2.885   1.526   5.209 -0.3006  0.6616 -0.4913
  277DG     O19 6367   2.801   1.416   5.232 -0.3366  0.2260  0.2784
  277DG     H20 6368   2.638   1.470   5.113  1.4001 -0.4102 -0.7504
  277DG     H21 6369   2.747   1.358   5.044  0.0214 -0.8066  0.0275
  277DG     H22 6370   2.816   1.609   5.194  0.1574  0.8155 -1.8504
  277DG     H23 6371   2.945   1.519   5.118  0.7559  0.5643  0.2029
  278DG      C1 6372   1.774   1.107   4.601  0.2186  0.0219  0.2249
  278DG      C2 6373   1.785   1.659   5.053 -0.2833  0.6274 -0.1702
  278DG      H3 6374   1.723   1.047   4.526  0.3139 -0.0756  0.2381
  278DG      H4 6375   1.747   1.069   4.699 -1.3231 -2.5509 -1.0844
  278DG      H5 6376   1.880   1.090   4.586  0.2766 -0.4772  1.1893
  278DG      H6 6377   1.693   1.632   5.103  0.1546  1.5501  1.1964
  278DG      H7 6378   1.872   1.616   5.103 -0.5480 -1.2994 -1.2567
  278DG      H8 6379   1.787   1.767   5.068  0.5027  0.6154 -0.1378
  278DG      O9 6380   1.749   1.247   4.577 -0.1598  0.6395  0.6334
  278DG     O10 6381   1.789   1.629   4.917  0.0766  0.2112 -0.4570
  278DG     C11 6382   1.607   1.277   4.568 -0.5984  0.5946  1.2293
  278DG     C12 6383   1.669   1.654   4.853 -0.1095 -0.1433  0.0468
  278DG     H13 6384   1.547   1.232   4.646  0.0571 -2.4152  0.1482
  278DG     H14 6385   1.579   1.239   4.470 -2.0688  4.0822  0.1605
  278DG     H15 6386   1.621   1.751   4.868  0.6426  0.0700  1.2940
  278DG     H16 6387   1.601   1.592   4.911 -0.2848  0.2362  0.2556
  278DG     C17 6388   1.607   1.428   4.574 -0.3978 -0.5767  0.0948
  278DG     C18 6389   1.667   1.604   4.709  0.0908 -0.7112 -0.2255
  278DG     O19 6390   1.632   1.473   4.706 -0.1436  0.5913  0.1045
  278DG     H20 6391   1.516   1.465   4.527 -0.6996  0.0302  1.1348
  278DG     H21 6392   1.685   1.456   4.503 -1.1978  1.3124 -0.0936
  278DG     H22 6393   1.596   1.673   4.663 -1.2430 -0.8087  1.6003
  278DG     H23 6394   1.762   1.638   4.667 -1.0306  0.4160 -1.9593
  279DG      C1 6395   1.612   1.591   3.725  0.2803  0.0532 -0.1012
  279DG      C2 6396   1.352   2.182   3.468  0.7890 -0.4556 -0.1328
  279DG      H3 6397   1.711   1.635   3.718 -0.0118  0.6845 -0.4125
  279DG      H4 6398   1.629   1.485   3.707  0.2457  0.2824 -1.5876
  279DG      H5 6399   1.566   1.612   3.822  1.1230 -0.8227  0.5017
  279DG      H6 6400   1.303   2.211   3.561  0.9157  0.1120 -0.2424
  279DG      H7 6401   1.402   2.268   3.424 -0.8446  0.4623 -0.2684
  279DG      H8 6402   1.276   2.154   3.395  0.6161  0.8317 -0.4709
  279DG      O9 6403   1.533   1.648   3.627 -0.5221 -0.0084 -0.3951
  279DG     O10 6404   1.435   2.074   3.509 -0.4722 -0.5194  0.3489
  279DG     C11 6405   1.583   1.607   3.502 -0.0868 -0.0873 -0.2681
  279DG     C12 6406   1.525   2.043   3.398  0.1099 -0.0626 -0.6030
  279DG     H13 6407   1.593   1.499   3.491 -1.3687 -0.2279 -0.2067
  279DG     H14 6408   1.680   1.652   3.480  0.9260 -2.2366 -0.5005
  279DG     H15 6409   1.598   2.124   3.389  0.8872 -0.6542  0.2469
  279DG     H16 6410   1.468   2.032   3.305  0.7756 -1.8519 -0.8370
  279DG     C17 6411   1.490   1.674   3.399  0.0584 -0.0601 -0.9790
  279DG     C18 6412   1.576   1.898   3.406  0.4304 -1.0058 -0.3587
  279DG     O19 6413   1.468   1.809   3.432 -0.1924 -0.3162 -0.1921
  279DG     H20 6414   1.391   1.629   3.408  0.5845 -1.3629 -1.4435
  279DG     H21 6415   1.516   1.658   3.294  0.6905 -1.4984 -0.6325
  279DG     H22 6416   1.638   1.873   3.321  1.6261  3.5465 -1.0907
  279DG     H23 6417   1.631   1.897   3.500 -0.0803 -1.5012 -0.0583
  280DG      C1 6418   3.026   3.199   4.903 -0.0609  0.4447 -0.1317
  280DG      C2 6419   3.642   3.188   5.097 -0.2015 -0.6124 -0.3545
  280DG      H3 6420   3.012   3.277   4.977 -1.4035 -0.0782  0.1930
  280DG      H4 6421   3.033   3.113   4.970 -0.8291 -0.2776 -0.9414
  280DG      H5 6422   2.937   3.190   4.841  0.0822  0.8528 -0.4019
  280DG      H6 6423   3.647   3.252   5.185 -2.1743  0.7471 -1.1666
  280DG      H7 6424   3.580   3.100   5.113  0.5350 -0.9961  0.4498
  280DG      H8 6425   3.736   3.140   5.070 -0.2212 -0.6244 -0.4010
  280DG      O9 6426   3.148   3.210   4.826  1.2185 -0.0818  0.2715
  280DG     O10 6427   3.609   3.274   4.987  0.0349 -0.4592  0.2794
  280DG     C11 6428   3.175   3.325   4.749  0.1156  0.3145  0.6611
  280DG     C12 6429   3.490   3.351   5.000 -0.0065 -0.1551  0.2795
  280DG     H13 6430   3.171   3.411   4.817 -0.1685  2.8399 -2.3132
  280DG     H14 6431   3.098   3.335   4.672 -0.8723  0.7102  1.6675
  280DG     H15 6432   3.512   3.427   5.075  3.6069 -2.7522  2.1797
  280DG     H16 6433   3.417   3.276   5.030  2.6513 -2.4371  1.5440
  280DG     C17 6434   3.311   3.331   4.689 -0.3872 -0.4483 -0.5717
  280DG     C18 6435   3.461   3.417   4.865  0.2521  0.4910  0.4607
  280DG     O19 6436   3.416   3.304   4.779  0.4591  0.0275 -0.1987
  280DG     H20 6437   3.332   3.425   4.637  0.1215 -0.6189 -0.6780
  280DG     H21 6438   3.323   3.250   4.617 -0.8007 -2.8574  1.9047
  280DG     H22 6439   3.375   3.480   4.887  0.3578  0.4978  0.8516
  280DG     H23 6440   3.534   3.485   4.821 -2.0722  2.3286 -0.8157
  281DG      C1 6441   2.865   3.657   2.278 -0.7893  0.0737 -0.3919
  281DG      C2 6442   3.508   3.396   1.913  0.2658  0.2905  0.0743
  281DG      H3 6443   2.763   3.624   2.296 -0.4191 -0.9619 -0.1428
  281DG      H4 6444   2.867   3.762   2.248 -0.8913 -0.1471 -1.2136
  281DG      H5 6445   2.917   3.639   2.372  1.8873 -0.6893 -1.9050
  281DG      H6 6446   3.521   3.468   1.832  1.3145  0.8164  0.6805
  281DG      H7 6447   3.594   3.393   1.980  0.6370 -1.3423 -0.4294
  281DG      H8 6448   3.508   3.302   1.859 -0.6712 -0.8390  1.9574
  281DG      O9 6449   2.929   3.605   2.166  1.2347 -0.1165 -0.4952
  281DG     O10 6450   3.380   3.426   1.985 -0.3879 -0.2519  0.2330
  281DG     C11 6451   2.929   3.465   2.183 -0.4277  0.2259 -0.0786
  281DG     C12 6452   3.288   3.479   1.892 -0.0070  0.8445  0.7546
  281DG     H13 6453   2.837   3.417   2.218  0.2644  0.1492  1.7521
  281DG     H14 6454   2.999   3.440   2.262 -2.3866  0.1854  1.7583
  281DG     H15 6455   3.266   3.406   1.814 -0.3026  2.8598 -1.1221
  281DG     H16 6456   3.333   3.566   1.845 -1.4353  0.0267 -2.3595
  281DG     C17 6457   2.978   3.397   2.051 -0.0769 -0.1169 -0.2014
  281DG     C18 6458   3.154   3.521   1.950 -0.1360  1.0187 -0.0632
  281DG     O19 6459   3.118   3.405   2.020 -0.0943  0.0872  0.8466
  281DG     H20 6460   2.914   3.429   1.969 -0.3726 -0.2998 -0.0447
  281DG     H21 6461   2.964   3.289   2.058 -0.8586 -0.1100 -1.4107
  281DG     H22 6462   3.170   3.600   2.024 -0.7578  0.0508  1.1480
  281DG     H23 6463   3.093   3.562   1.869 -2.5470  0.2334  1.2531
  282DG      C1 6464   0.193   2.824   1.449 -0.2056  0.2955  0.7357
  282DG      C2 6465   0.258   2.099   1.402 -0.1777 -0.4439  0.2468
  282DG      H3 6466   0.170   2.897   1.527  2.6656  0.8585  1.1652
  282DG      H4 6467   0.275   2.861   1.388 -1.1989  0.4007 -0.5950
  282DG      H5 6468   0.240   2.740   1.498 -0.5157 -0.0859  0.3912
  282DG      H6 6469   0.214   2.051   1.315 -0.3580 -2.2034  1.2541
  282DG      H7 6470   0.333   2.172   1.369 -0.2850 -0.8814 -0.9877
  282DG      H8 6471   0.312   2.030   1.467  0.5552  0.6547  0.8482
  282DG      O9 6472   0.082   2.789   1.367  0.4817 -0.5547 -0.5008
  282DG     O10 6473   0.167   2.175   1.488 -0.3064  0.4953 -0.3009
  282DG     C11 6474  -0.034   2.741   1.427 -0.0465 -0.7798 -0.6904
  282DG     C12 6475   0.088   2.270   1.405 -0.5475  0.1800 -0.1395
  282DG     H13 6476  -0.102   2.716   1.346 -1.7781  0.4852  0.3361
  282DG     H14 6477  -0.080   2.815   1.492  2.1122  0.5816 -0.6281
  282DG     H15 6478   0.006   2.223   1.352 -0.4033 -0.9995  0.6290
  282DG     H16 6479   0.148   2.309   1.323 -0.9555  1.1600  0.0185
  282DG     C17 6480  -0.019   2.609   1.505 -0.3964  0.7627 -0.1122
  282DG     C18 6481   0.059   2.396   1.493 -0.2307  0.1333  0.6930
  282DG     O19 6482   0.036   2.507   1.416 -0.0033 -0.5855 -0.4203
  282DG     H20 6483  -0.124   2.592   1.529 -0.9374  1.5782 -1.7585
  282DG     H21 6484   0.040   2.612   1.597 -1.7456 -1.6642  0.9465
  282DG     H22 6485  -0.026   2.366   1.553 -1.2323 -1.3428 -1.3304
  282DG     H23 6486   0.149   2.409   1.553 -1.8850  1.8976  2.9230
  283DG      C1 6487   2.296   1.521   0.288  0.1251  0.0778 -0.5510
  283DG      C2 6488   1.637   1.466  -0.079  0.7069 -0.2924 -0.5536
  283DG      H3 6489   2.393   1.484   0.320 -0.7554 -2.4272 -0.5015
  283DG      H4 6490   2.215   1.494   0.356 -2.0079  0.7378 -2.7096
  283DG      H5 6491   2.300   1.629   0.299  1.7244  0.1952 -1.9109
  283DG      H6 6492   1.650   1.488  -0.185  1.6721  2.2944  0.0211
  283DG      H7 6493   1.565   1.387  -0.058  0.5226 -0.0780 -0.3851
  283DG      H8 6494   1.593   1.551  -0.026 -1.0696 -1.9492  0.7849
  283DG      O9 6495   2.274   1.501   0.151  0.4479 -0.2625 -0.0389
  283DG     O10 6496   1.761   1.428  -0.011 -0.4993 -0.1490 -0.4034
  283DG     C11 6497   2.285   1.367   0.113  0.6676  0.3712  0.3095
  283DG     C12 6498   1.820   1.316  -0.070 -0.2697 -0.4303 -0.2182
  283DG     H13 6499   2.360   1.320   0.176  0.5337  1.0774  1.0091
  283DG     H14 6500   2.315   1.362   0.008  1.5138  3.1821  0.3528
  283DG     H15 6501   1.872   1.352  -0.159  0.8881 -3.2582 -0.8113
  283DG     H16 6502   1.747   1.237  -0.089  0.7485 -1.7860  1.2001
  283DG     C17 6503   2.144   1.298   0.140  0.3530  0.2878  0.3483
  283DG     C18 6504   1.931   1.256   0.015 -0.0958 -0.3441  0.2662
  283DG     O19 6505   2.039   1.348   0.054  0.0957 -0.1060  0.5636
  283DG     H20 6506   2.103   1.316   0.239  0.0620  0.9665  0.1110
  283DG     H21 6507   2.164   1.191   0.139 -0.0136  0.1538 -2.7356
  283DG     H22 6508   1.893   1.198   0.098  2.2850 -1.1659  0.8630
  283DG     H23 6509   1.985   1.184  -0.047 -0.9684 -0.4111 -0.4368
  284DG      C1 6510   0.024   3.087   3.289  0.0462  0.3877 -0.5069
  284DG      C2 6511  -0.035   2.478   3.238 -0.6826 -0.1182 -0.1573
  284DG      H3 6512   0.013   3.085   3.398  1.3542 -2.5113 -0.3198
  284DG      H4 6513   0.016   3.193   3.268  2.7565  1.1871  1.9042
  284DG      H5 6514   0.125   3.056   3.265 -0.1141 -0.7843  0.2314
  284DG      H6 6515   0.030   2.470   3.151 -0.7210 -1.3040 -0.0963
  284DG      H7 6516   0.018   2.481   3.333  0.7493 -2.7743 -0.7791
  284DG      H8 6517  -0.095   2.386   3.241 -0.8890  0.0331  1.2851
  284DG      O9 6518  -0.082   3.015   3.231 -0.6423 -0.5004 -0.1301
  284DG     O10 6519  -0.125   2.590   3.225  0.6784 -0.2072 -0.2543
  284DG     C11 6520  -0.214   3.023   3.291  0.1003  0.1350 -0.5871
  284DG     C12 6521  -0.218   2.588   3.116  0.1830 -0.3845 -0.5934
  284DG     H13 6522  -0.256   3.123   3.298 -2.0699 -0.7572 -0.2222
  284DG     H14 6523  -0.223   2.986   3.394 -1.1000 -0.3466 -0.8563
  284DG     H15 6524  -0.278   2.497   3.108 -1.8527  0.8493  0.0279
  284DG     H16 6525  -0.159   2.607   3.026 -0.0769 -2.4379 -1.2580
  284DG     C17 6526  -0.310   2.930   3.210  0.5847 -0.2148 -0.6524
  284DG     C18 6527  -0.314   2.703   3.152  0.2510 -0.0582 -0.5105
  284DG     O19 6528  -0.235   2.817   3.188 -0.1048  0.5306 -0.5973
  284DG     H20 6529  -0.344   2.992   3.127 -3.2887  1.1927  1.7060
  284DG     H21 6530  -0.403   2.905   3.261  0.3175  1.2886 -0.3613
  284DG     H22 6531  -0.387   2.714   3.071  0.7892 -1.5930 -1.2354
  284DG     H23 6532  -0.360   2.683   3.249  4.2583 -0.9131  1.3868
  285DG      C1 6533   0.640   0.746   3.626  0.1551 -0.1539 -0.2026
  285DG      C2 6534   0.695   0.030   3.591  0.6250  0.3140 -0.4615
  285DG      H3 6535   0.695   0.733   3.719  0.0478 -1.2289 -0.2702
  285DG      H4 6536   0.571   0.829   3.639  0.1722 -0.4195  1.8528
  285DG      H5 6537   0.715   0.766   3.548  1.8691 -1.2039  1.1054
  285DG      H6 6538   0.729   0.053   3.691  0.2804  0.5899 -0.4063
  285DG      H7 6539   0.648  -0.068   3.602  1.6972  0.0110  2.0573
  285DG      H8 6540   0.784   0.033   3.528  1.8578  1.0592  1.2622
  285DG      O9 6541   0.559   0.633   3.610  0.1001 -0.0711  0.4572
  285DG     O10 6542   0.602   0.125   3.543 -0.1018  0.1876  0.4148
  285DG     C11 6543   0.488   0.621   3.487  0.3907 -0.0947 -0.2246
  285DG     C12 6544   0.499   0.149   3.626 -0.7771 -0.2209  0.0013
  285DG     H13 6545   0.562   0.603   3.409  0.0445 -0.2740 -0.5145
  285DG     H14 6546   0.418   0.703   3.472  1.5757  1.2086  1.0564
  285DG     H15 6547   0.530   0.191   3.722 -1.4796 -2.0731  1.0747
  285DG     H16 6548   0.426   0.068   3.633  1.3129 -2.1085  1.0274
  285DG     C17 6549   0.409   0.493   3.497 -0.2203  0.4665  0.0284
  285DG     C18 6550   0.423   0.262   3.560 -0.2719  0.4200  0.0584
  285DG     O19 6551   0.490   0.385   3.550 -0.5387  0.4921 -0.8175
  285DG     H20 6552   0.381   0.476   3.393 -0.5110  1.1974 -0.0192
  285DG     H21 6553   0.323   0.505   3.563 -0.3064 -0.4529  0.0907
  285DG     H22 6554   0.371   0.228   3.471 -1.8102 -1.5322  1.6164
  285DG     H23 6555   0.341   0.289   3.627 -0.1823 -0.2144  0.4331
  286DG      C1 6556   4.811   3.076   3.975 -0.1630 -0.5769 -0.1353
  286DG      C2 6557   4.916   3.333   4.625 -0.5562  0.6158  0.6157
  286DG      H3 6558   4.817   2.999   3.899  1.6126 -0.4572 -0.1674
  286DG      H4 6559   4.909   3.124   3.971  0.2604 -1.5089 -1.5568
  286DG      H5 6560   4.736   3.153   3.959  2.9636  2.3776 -2.1957
  286DG      H6 6561   5.024   3.341   4.630 -0.6092  1.1823  1.0028
  286DG      H7 6562   4.885   3.423   4.571  0.8904 -0.1133 -1.5645
  286DG      H8 6563   4.875   3.329   4.726 -0.2075  3.2137  0.9346
  286DG      O9 6564   4.796   3.029   4.108 -0.0082 -0.0484 -0.0615
  286DG     O10 6565   4.859   3.225   4.555  0.6004  0.1424  0.1683
  286DG     C11 6566   4.891   2.939   4.145 -0.0712  0.9147 -0.1098
  286DG     C12 6567   4.902   3.108   4.612  0.3175 -0.0787 -0.5135
  286DG     H13 6568   4.988   2.977   4.111  0.0788 -1.2138 -2.2914
  286DG     H14 6569   4.884   2.848   4.085 -1.7731  0.5855  0.5364
  286DG     H15 6570   4.852   3.098   4.708  0.8333  0.2049 -0.2093
  286DG     H16 6571   5.007   3.098   4.642  0.9696 -0.2125 -2.6878
  286DG     C17 6572   4.872   2.903   4.298  0.0791 -0.9374  0.8049
  286DG     C18 6573   4.870   2.986   4.523 -0.2472  0.1054 -0.0127
  286DG     O19 6574   4.890   3.015   4.386 -0.1987 -0.6738 -0.0356
  286DG     H20 6575   4.945   2.827   4.326  0.7835 -0.2227  0.9277
  286DG     H21 6576   4.777   2.855   4.322 -0.2400  0.2145  1.9441
  286DG     H22 6577   4.941   2.908   4.550  0.7652  0.3216 -1.8791
  286DG     H23 6578   4.773   2.940   4.544 -0.3656  0.4613  0.2222
  287DG      C1 6579   3.485   2.960   4.824  0.3786 -0.1749 -0.2000
  287DG      C2 6580   3.128   2.539   4.427  0.0076  0.5682  0.4167
  287DG      H3 6581   3.489   3.051   4.765  0.8557 -0.6521 -0.9165
  287DG      H4 6582   3.553   2.985   4.905  0.3060  1.2544 -0.5473
  287DG      H5 6583   3.390   2.956   4.879 -0.7506 -0.0075 -2.0580
  287DG      H6 6584   3.126   2.453   4.360  1.0124 -1.3080  2.6379
  287DG      H7 6585   3.078   2.489   4.511 -1.2872  3.0418  1.2089
  287DG      H8 6586   3.070   2.619   4.383  0.0315  0.4080  0.0867
  287DG      O9 6587   3.519   2.849   4.743 -0.1147  0.5179 -0.0692
  287DG     O10 6588   3.256   2.587   4.461  0.1624 -0.4468 -0.3525
  287DG     C11 6589   3.616   2.877   4.644  0.0175  0.0065 -0.0744
  287DG     C12 6590   3.334   2.626   4.344 -0.5499 -0.4267 -0.5015
  287DG     H13 6591   3.717   2.900   4.679 -0.8894 -0.0998  2.8699
  287DG     H14 6592   3.586   2.963   4.585  0.5703  1.5373  1.8007
  287DG     H15 6593   3.285   2.707   4.290  1.2402 -0.6276 -2.5626
  287DG     H16 6594   3.330   2.552   4.264 -3.0990 -1.1187  0.1892
  287DG     C17 6595   3.618   2.766   4.532 -0.1049 -0.3496 -0.5322
  287DG     C18 6596   3.481   2.665   4.373 -0.4131 -0.2399 -0.1338
  287DG     O19 6597   3.481   2.745   4.492  0.5449 -0.5337 -0.3348
  287DG     H20 6598   3.655   2.671   4.569 -0.1509 -1.8792 -4.0651
  287DG     H21 6599   3.680   2.802   4.450 -0.4951  0.5862 -0.4364
  287DG     H22 6600   3.536   2.575   4.399  0.5162  0.1312 -0.7761
  287DG     H23 6601   3.517   2.714   4.283 -1.3805  1.5017  0.3774
  288DG      C1 6602   0.376   1.914   2.659 -0.0580  0.0491 -0.0712
  288DG      C2 6603   0.542   2.556   2.377 -0.3984  0.2368  0.5595
  288DG      H3 6604   0.318   1.909   2.751 -0.0970  0.5711 -0.0599
  288DG      H4 6605   0.481   1.924   2.684  0.2479  0.9568 -1.5338
  288DG      H5 6606   0.370   1.817   2.609  1.4502 -0.1082  0.0007
  288DG      H6 6607   0.646   2.546   2.348 -0.3819  4.4800 -1.5126
  288DG      H7 6608   0.512   2.639   2.313  0.4242  1.7641  2.0639
  288DG      H8 6609   0.534   2.607   2.474 -0.5406  1.5372 -0.1197
  288DG      O9 6610   0.347   2.006   2.556 -0.3473 -0.7945  0.2379
  288DG     O10 6611   0.463   2.440   2.375 -0.0095  0.1573  0.2709
  288DG     C11 6612   0.212   2.024   2.521 -0.0841 -0.0014 -0.0562
  288DG     C12 6613   0.323   2.468   2.362 -0.0674 -0.4184  0.1925
  288DG     H13 6614   0.155   2.070   2.602  1.1464  0.5165  0.5405
  288DG     H14 6615   0.169   1.927   2.496 -1.4610  0.8179 -0.9715
  288DG     H15 6616   0.310   2.523   2.269  1.4077  1.4233  1.0210
  288DG     H16 6617   0.282   2.531   2.441  1.3910 -0.3494  0.9281
  288DG     C17 6618   0.202   2.122   2.407  0.4838  0.2061 -0.0283
  288DG     C18 6619   0.242   2.344   2.338 -0.2614  0.3253 -0.7908
  288DG     O19 6620   0.265   2.242   2.439  0.6797 -0.4127  0.2465
  288DG     H20 6621   0.101   2.155   2.383  0.6432 -0.9827 -2.6526
  288DG     H21 6622   0.256   2.082   2.322 -0.9252 -0.6029 -0.5698
  288DG     H22 6623   0.140   2.380   2.350 -1.1443 -0.9632 -3.6887
  288DG     H23 6624   0.253   2.299   2.240 -0.1589 -4.9699  1.3436
  289DG      C1 6625   2.958   3.884   3.887 -0.8412  0.3481  0.2370
  289DG      C2 6626   3.186   4.442   4.522 -0.1476 -0.0417 -0.5701
  289DG      H3 6627   2.874   3.816   3.903 -1.7903  1.3785 -0.2409
  289DG      H4 6628   3.026   3.836   3.817 -0.7632 -1.7916  1.6672
  289DG      H5 6629   2.924   3.976   3.839 -0.1725  0.5469  0.1467
  289DG      H6 6630   3.160   4.454   4.628  1.4868  1.1829 -0.2694
  289DG      H7 6631   3.288   4.479   4.510  0.6081 -2.5935 -3.2194
  289DG      H8 6632   3.120   4.499   4.457  0.0016  1.3624  0.4498
  289DG      O9 6633   3.032   3.906   4.012  0.3690  0.4716 -0.4079
  289DG     O10 6634   3.191   4.304   4.483  0.6246  0.1744  0.1076
  289DG     C11 6635   3.152   3.975   3.987 -0.1429  0.7360 -0.4571
  289DG     C12 6636   3.190   4.284   4.342 -0.2396 -0.1120  0.8982
  289DG     H13 6637   3.135   4.066   3.930 -0.2740  1.9718  1.4671
  289DG     H14 6638   3.212   3.909   3.925  0.4214 -0.6522  1.4787
  289DG     H15 6639   3.256   4.362   4.305 -0.0927 -0.3237  0.7131
  289DG     H16 6640   3.091   4.312   4.307 -0.0728  1.4945  1.6249
  289DG     C17 6641   3.238   4.007   4.111 -0.0098 -0.1047 -0.2610
  289DG     C18 6642   3.238   4.147   4.304  0.1307 -0.5681 -0.1634
  289DG     O19 6643   3.174   4.115   4.185  0.0018  0.2584  0.1607
  289DG     H20 6644   3.336   4.042   4.076 -0.3616 -0.1602 -1.3324
  289DG     H21 6645   3.263   3.923   4.175  2.2500  1.1322  0.6075
  289DG     H22 6646   3.346   4.141   4.293  0.0992 -0.9332 -0.2909
  289DG     H23 6647   3.212   4.078   4.384  0.0345 -0.8015 -0.3930
  290DG      C1 6648   2.614   4.425   5.224 -0.6585 -0.2364  0.5276
  290DG      C2 6649   2.016   4.780   4.840 -0.4412  1.0900  0.3699
  290DG      H3 6650   2.664   4.484   5.301 -0.2247 -0.0054  0.0664
  290DG      H4 6651   2.666   4.333   5.199 -1.5042 -1.6338  3.3934
  290DG      H5 6652   2.526   4.389   5.279 -1.1129 -1.0944 -0.7068
  290DG      H6 6653   1.954   4.691   4.830 -0.0685  0.7236  1.2962
  290DG      H7 6654   1.952   4.866   4.863 -2.4598 -0.3188  0.2481
  290DG      H8 6655   2.054   4.788   4.738 -0.1300  1.4614  0.5121
  290DG      O9 6656   2.590   4.513   5.114 -0.0287 -0.1268 -0.2940
  290DG     O10 6657   2.122   4.760   4.936 -0.1285 -0.1304  0.4706
  290DG     C11 6658   2.516   4.453   5.005  0.9275  0.4801  0.2543
  290DG     C12 6659   2.241   4.838   4.919  0.0122 -0.1498  0.4686
  290DG     H13 6660   2.429   4.407   5.051  1.4802  0.5030  1.3529
  290DG     H14 6661   2.571   4.372   4.957 -0.4795  0.8932 -2.2370
  290DG     H15 6662   2.286   4.865   5.015  0.2255 -0.3700  0.4314
  290DG     H16 6663   2.216   4.925   4.859 -1.7615  0.1003  1.4805
  290DG     C17 6664   2.476   4.548   4.893  0.5833 -0.4298 -0.0455
  290DG     C18 6665   2.345   4.743   4.854 -0.4625 -0.8771 -0.1305
  290DG     O19 6666   2.387   4.642   4.944  0.2600 -0.1776 -0.4861
  290DG     H20 6667   2.425   4.487   4.819  0.9663  0.5932 -1.1797
  290DG     H21 6668   2.559   4.590   4.837 -0.5769  0.1537 -1.3677
  290DG     H22 6669   2.317   4.703   4.757 -1.0135 -0.4483 -0.1494
  290DG     H23 6670   2.430   4.807   4.827 -2.9322  3.2783  1.0769
  291DG      C1 6671   0.505   2.589   4.371 -0.0364  0.1851 -0.0964
  291DG      C2 6672  -0.136   2.419   4.245  0.0582  0.3811 -0.2472
  291DG      H3 6673   0.489   2.697   4.373 -0.1347  0.1936 -0.9375
  291DG      H4 6674   0.523   2.576   4.264  1.5154  0.1811  0.1392
  291DG      H5 6675   0.603   2.564   4.412  0.3054 -1.3016 -1.6942
  291DG      H6 6676  -0.238   2.387   4.266  0.4450 -1.1918 -0.6491
  291DG      H7 6677  -0.150   2.526   4.228  1.8510  0.7252  0.1971
  291DG      H8 6678  -0.109   2.366   4.154  0.3509  1.8123 -1.0119
  291DG      O9 6679   0.392   2.518   4.421 -1.1627 -0.3189 -0.4046
  291DG     O10 6680  -0.049   2.396   4.351 -0.0709  0.0792 -0.3015
  291DG     C11 6681   0.359   2.561   4.555  0.8910 -0.6448  0.8260
  291DG     C12 6682  -0.102   2.421   4.475  0.1767 -0.3056  0.3379
  291DG     H13 6683   0.347   2.669   4.546  0.9108 -0.6618  0.6013
  291DG     H14 6684   0.449   2.553   4.616  1.4624  2.1770  0.4827
  291DG     H15 6685  -0.178   2.345   4.496 -0.7209  0.7511  1.0421
  291DG     H16 6686  -0.155   2.516   4.486  1.9530  0.6943  0.6737
  291DG     C17 6687   0.232   2.488   4.620  0.0014  0.8492 -0.1128
  291DG     C18 6688   0.009   2.418   4.582  0.6417  0.1003 -0.3908
  291DG     O19 6689   0.118   2.479   4.531 -0.4531  0.4991  0.2891
  291DG     H20 6690   0.208   2.522   4.720  1.2587 -2.0104  1.2786
  291DG     H21 6691   0.258   2.386   4.647  0.0786  0.6937 -0.7432
  291DG     H22 6692  -0.020   2.449   4.682 -0.6821  0.5262 -0.8920
  291DG     H23 6693   0.032   2.311   4.589 -2.3795 -0.5859  0.2983
  292DG      C1 6694   1.872   1.174   0.944  0.5942  0.9064  0.1498
  292DG      C2 6695   1.982   0.589   1.194 -0.7728 -0.2490 -0.4036
  292DG      H3 6696   1.946   1.200   1.020 -0.4389 -0.1204  1.5677
  292DG      H4 6697   1.819   1.260   0.902  0.9604  1.2215  0.3204
  292DG      H5 6698   1.928   1.122   0.866 -2.0326 -0.2460 -1.0887
  292DG      H6 6699   2.025   0.581   1.094  0.9033  0.7796  0.1938
  292DG      H7 6700   2.055   0.651   1.246  0.0687 -2.5666  1.3344
  292DG      H8 6701   1.982   0.499   1.255  3.6519 -1.7924 -2.2394
  292DG      O9 6702   1.789   1.070   0.997 -0.4155  0.3738 -0.3033
  292DG     O10 6703   1.853   0.645   1.174  0.2495  0.0558 -0.1610
  292DG     C11 6704   1.690   1.112   1.098 -0.0117  0.4035  0.7691
  292DG     C12 6705   1.781   0.675   1.301 -1.1630 -0.0001  0.1946
  292DG     H13 6706   1.624   1.184   1.050  0.8829 -0.1561 -1.4641
  292DG     H14 6707   1.743   1.162   1.178  1.4828 -1.1391  0.7952
  292DG     H15 6708   1.857   0.698   1.375  0.6816  0.6946 -1.8034
  292DG     H16 6709   1.726   0.586   1.331  0.7161 -0.9821  0.9389
  292DG     C17 6710   1.619   0.987   1.165 -0.3845 -0.5425  0.1869
  292DG     C18 6711   1.681   0.787   1.273  0.2648 -0.4767 -0.5069
  292DG     O19 6712   1.724   0.908   1.213 -0.0841 -0.5410  0.2037
  292DG     H20 6713   1.556   0.941   1.089  1.0052 -2.2774  0.0308
  292DG     H21 6714   1.567   1.014   1.257 -1.4959  1.6206 -0.9933
  292DG     H22 6715   1.597   0.748   1.216  1.9471 -0.9999 -2.7526
  292DG     H23 6716   1.654   0.812   1.375  0.2769 -0.0217 -0.6131
  293DG      C1 6717   1.017   2.259   2.938 -0.1027 -0.6913  0.0367
  293DG      C2 6718   0.712   1.580   2.786 -0.6807  0.2643 -0.0234
  293DG      H3 6719   1.017   2.287   3.044  0.4428 -0.6604  0.0340
  293DG      H4 6720   0.948   2.316   2.877  0.9206  0.7392  0.1707
  293DG      H5 6721   1.117   2.285   2.902  0.2765 -0.2300  1.3563
  293DG      H6 6722   0.736   1.601   2.891 -2.2279  1.0515  0.2059
  293DG      H7 6723   0.606   1.555   2.786 -0.6046 -0.0979  0.8280
  293DG      H8 6724   0.769   1.494   2.752  0.7213  0.3731  1.8557
  293DG      O9 6725   1.008   2.123   2.893  0.8197  0.1278  0.1442
  293DG     O10 6726   0.739   1.698   2.710 -0.2886  0.7008 -0.1628
  293DG     C11 6727   1.017   2.026   3.000 -0.3264 -0.4372 -0.3677
  293DG     C12 6728   0.873   1.708   2.665  0.3434 -0.0883 -0.6718
  293DG     H13 6729   0.923   2.035   3.055 -1.0343 -1.2387 -1.4073
  293DG     H14 6730   1.093   2.059   3.071 -0.0490  0.6703 -1.1524
  293DG     H15 6731   0.877   1.787   2.590  0.6329  1.1098  0.5628
  293DG     H16 6732   0.892   1.614   2.612 -0.2396 -0.7854  0.3182
  293DG     C17 6733   1.042   1.884   2.961  0.3086  0.8341  0.2223
  293DG     C18 6734   0.987   1.735   2.768  0.7674 -0.9549 -0.2094
  293DG     O19 6735   0.953   1.852   2.850  0.4030  0.1678 -0.3270
  293DG     H20 6736   1.032   1.821   3.049  2.0294 -1.2352 -0.9669
  293DG     H21 6737   1.146   1.880   2.929  0.1101  1.0321 -0.4676
  293DG     H22 6738   1.003   1.649   2.833  1.3229 -1.7409 -1.3613
  293DG     H23 6739   1.085   1.743   2.721  0.1583  0.9395 -1.2895
  294DG      C1 6740   2.528   3.107   3.976 -0.0913  0.5110 -0.2781
  294DG      C2 6741   1.774   3.028   4.268 -0.3100  0.2589  0.1364
  294DG      H3 6742   2.514   3.007   3.935  0.0810 -0.2016  1.3603
  294DG      H4 6743   2.632   3.116   4.007  0.4383  1.1076 -2.0649
  294DG      H5 6744   2.502   3.186   3.905 -1.9068  0.2855  0.0867
  294DG      H6 6745   1.690   3.009   4.335 -0.7480  0.7977 -0.2433
  294DG      H7 6746   1.733   3.055   4.171 -1.3627 -1.5821  0.0179
  294DG      H8 6747   1.815   2.927   4.262  2.2739  1.0726  2.0660
  294DG      O9 6748   2.443   3.114   4.085  0.3941 -0.6135  0.0483
  294DG     O10 6749   1.873   3.119   4.315  0.3662 -0.0157  0.1095
  294DG     C11 6750   2.431   3.250   4.133 -0.1589  0.3409 -0.6868
  294DG     C12 6751   1.996   3.106   4.257  0.1104 -0.5993 -0.0162
  294DG     H13 6752   2.403   3.317   4.052  3.0496  1.4873 -0.9922
  294DG     H14 6753   2.527   3.297   4.156 -0.8355  1.0388  0.8548
  294DG     H15 6754   1.999   3.110   4.148  0.5503 -0.4747 -0.0018
  294DG     H16 6755   2.031   3.004   4.273  0.6987 -0.4295 -0.1972
  294DG     C17 6756   2.326   3.262   4.248 -0.2907 -0.2787 -0.3393
  294DG     C18 6757   2.103   3.212   4.304  0.6216 -0.3772  0.1689
  294DG     O19 6758   2.210   3.190   4.212  0.0827 -0.6409  0.1989
  294DG     H20 6759   2.312   3.368   4.269 -2.4060 -0.4299 -0.7600
  294DG     H21 6760   2.375   3.216   4.333 -0.3251  2.7748  1.4350
  294DG     H22 6761   2.072   3.315   4.287 -0.0456 -1.0133 -2.9812
  294DG     H23 6762   2.132   3.203   4.409  0.5098 -0.9876  0.1529
  295DG      C1 6763   3.197   5.156   3.456 -0.5542 -0.0341  0.3957
  295DG      C2 6764   3.159   5.820   3.164 -0.2428 -0.8471 -0.0668
  295DG      H3 6765   3.171   5.062   3.405 -0.1494 -0.0964  0.3032
  295DG      H4 6766   3.138   5.160   3.548  0.4714  0.0927  1.0697
  295DG      H5 6767   3.305   5.150   3.465 -0.2347 -0.6075 -2.7671
  295DG      H6 6768   3.197   5.783   3.260 -1.3521 -2.6257 -0.2526
  295DG      H7 6769   3.240   5.863   3.106 -0.9355 -0.3097 -0.6602
  295DG      H8 6770   3.088   5.894   3.203 -1.6653 -0.8403 -2.4902
  295DG      O9 6771   3.170   5.282   3.385 -0.5082  0.5225  0.7200
  295DG     O10 6772   3.101   5.714   3.089 -1.0270 -0.3428  0.0683
  295DG     C11 6773   3.213   5.390   3.470  0.4636 -0.4281  0.7864
  295DG     C12 6774   3.007   5.629   3.166 -0.8170  0.1135 -0.3314
  295DG     H13 6775   3.322   5.388   3.475  0.5084 -0.5553 -0.1377
  295DG     H14 6776   3.175   5.373   3.571  1.0510  1.0757  1.2893
  295DG     H15 6777   2.921   5.611   3.101 -1.6799  0.2193  0.7451
  295DG     H16 6778   2.967   5.674   3.257  0.1462 -0.5348  0.4268
  295DG     C17 6779   3.163   5.525   3.406  0.4148 -0.0330  0.5284
  295DG     C18 6780   3.067   5.495   3.190 -0.3142  0.8514  0.8405
  295DG     O19 6781   3.186   5.523   3.264  0.1552  0.4105 -0.0976
  295DG     H20 6782   3.210   5.610   3.456  2.2113 -0.2827 -0.6527
  295DG     H21 6783   3.057   5.542   3.429  0.5521  0.3388  0.9073
  295DG     H22 6784   3.001   5.422   3.236 -0.1934  0.9430  1.1603
  295DG     H23 6785   3.101   5.452   3.096 -0.8692  0.8811  0.6248
  296DG      C1 6786   4.998   3.074   1.284  0.4572  0.4323 -1.0772
  296DG      C2 6787   5.681   3.365   1.470  0.7364  0.4155  0.0913
  296DG      H3 6788   4.918   3.010   1.246  1.8507 -0.6680 -2.2425
  296DG      H4 6789   4.960   3.172   1.313 -1.2233 -0.1216 -1.2920
  296DG      H5 6790   5.017   3.019   1.376 -2.0542 -0.0686 -0.7690
  296DG      H6 6791   5.674   3.461   1.418  0.3588  0.1087 -0.4321
  296DG      H7 6792   5.634   3.380   1.568  0.0182  1.0173 -0.3312
  296DG      H8 6793   5.785   3.332   1.474  0.3104 -1.0072  0.0144
  296DG      O9 6794   5.101   3.078   1.193  0.2146 -0.4403  0.0981
  296DG     O10 6795   5.607   3.267   1.404 -0.1220 -0.2017  0.0309
  296DG     C11 6796   5.204   3.164   1.227 -0.0731 -0.1397 -0.3854
  296DG     C12 6797   5.653   3.235   1.277  0.2569  0.1523  0.3443
  296DG     H13 6798   5.230   3.158   1.333 -1.5940 -1.1219 -0.0454
  296DG     H14 6799   5.180   3.266   1.198 -2.3221 -0.4349  0.3134
  296DG     H15 6800   5.751   3.188   1.271 -0.0321 -0.2776 -3.2835
  296DG     H16 6801   5.654   3.321   1.211  0.7047  1.1998  1.6641
  296DG     C17 6802   5.326   3.101   1.163  0.3254  0.0158  0.0472
  296DG     C18 6803   5.558   3.136   1.213  1.1383  0.1845 -0.0704
  296DG     O19 6804   5.423   3.192   1.217 -0.4588  0.5841  0.4117
  296DG     H20 6805   5.332   3.087   1.055 -0.1037 -1.2058  0.1726
  296DG     H21 6806   5.341   3.003   1.208  3.6284 -0.3850 -1.6444
  296DG     H22 6807   5.567   3.119   1.106 -2.0310  1.6968 -0.6820
  296DG     H23 6808   5.556   3.043   1.270  0.2655  1.7581  2.6830
  297DG      C1 6809   5.213   3.906   1.147  0.3209 -0.3815 -0.6208
  297DG      C2 6810   4.951   4.614   1.446 -0.6610 -0.2897 -0.2348
  297DG      H3 6811   5.177   3.830   1.216 -0.0635 -0.4901 -0.9372
  297DG      H4 6812   5.316   3.923   1.177  0.0888 -0.1191  0.0566
  297DG      H5 6813   5.214   3.858   1.049 -3.1507  0.5846 -1.2787
  297DG      H6 6814   5.057   4.629   1.467  0.0135 -2.4274 -1.7976
  297DG      H7 6815   4.933   4.601   1.339 -2.2421 -1.3921  0.1445
  297DG      H8 6816   4.912   4.711   1.477 -0.2894 -0.0633 -0.4570
  297DG      O9 6817   5.136   4.027   1.144  0.1111  0.0018  0.2234
  297DG     O10 6818   4.907   4.505   1.524 -0.3445 -0.5119 -0.0241
  297DG     C11 6819   4.990   4.002   1.157  0.0046 -0.3001  0.0601
  297DG     C12 6820   4.957   4.374   1.493  0.0193 -0.4524  0.5543
  297DG     H13 6821   4.967   3.917   1.222  0.1332 -1.7734 -1.7392
  297DG     H14 6822   4.967   3.974   1.054 -0.9198  0.6331 -0.0076
  297DG     H15 6823   4.923   4.306   1.570  0.0800 -1.4528 -0.2784
  297DG     H16 6824   5.066   4.372   1.491  0.0255 -0.5395 -1.5931
  297DG     C17 6825   4.918   4.134   1.199  0.3250 -0.6190  0.2888
  297DG     C18 6826   4.907   4.316   1.362 -0.2045  0.6285  0.5008
  297DG     O19 6827   4.955   4.181   1.335  0.2296  0.7247 -0.2517
  297DG     H20 6828   4.810   4.126   1.190  0.4956 -1.8572 -1.0478
  297DG     H21 6829   4.944   4.208   1.123  0.5929 -0.1958  0.7930
  297DG     H22 6830   4.799   4.309   1.349 -0.5553  0.1899  3.1484
  297DG     H23 6831   4.950   4.374   1.280  1.9813 -1.7355 -0.1626
  298DG      C1 6832   4.633   1.007   3.996  0.4495 -0.4517 -0.4766
  298DG      C2 6833   4.788   1.561   4.242 -0.1989 -0.6680 -0.9749
  298DG      H3 6834   4.687   0.913   3.992  2.4299  0.4230  2.4519
  298DG      H4 6835   4.581   1.019   3.901 -1.2004  0.5141  0.4934
  298DG      H5 6836   4.555   1.022   4.071 -0.2706  1.7119 -1.5628
  298DG      H6 6837   4.858   1.607   4.312 -1.6326  0.5159 -0.2836
  298DG      H7 6838   4.753   1.638   4.173  2.3749  0.0552 -1.5852
  298DG      H8 6839   4.702   1.525   4.297  1.5570 -0.3324  2.2517
  298DG      O9 6840   4.734   1.106   4.003 -0.4210  0.2012  0.2427
  298DG     O10 6841   4.854   1.448   4.186  0.0555  0.0830  0.1248
  298DG     C11 6842   4.833   1.101   3.913  0.4801  1.0265 -0.7652
  298DG     C12 6843   4.946   1.490   4.089  0.4629  0.6762  0.0724
  298DG     H13 6844   4.797   1.077   3.813 -1.4003 -3.3650  0.7138
  298DG     H14 6845   4.897   1.015   3.935  0.1083  1.1363  0.8903
  298DG     H15 6846   5.007   1.579   4.098  0.2590  0.6582  1.9946
  298DG     H16 6847   4.876   1.515   4.009 -1.3436 -0.0501  1.3474
  298DG     C17 6848   4.929   1.215   3.913 -0.4864  0.5866 -0.5030
  298DG     C18 6849   5.033   1.370   4.052 -0.0739 -0.1003  0.0672
  298DG     O19 6850   4.963   1.249   4.044  0.1279 -0.0173  0.6823
  298DG     H20 6851   4.872   1.296   3.868 -0.2635  0.6541 -0.6628
  298DG     H21 6852   5.011   1.201   3.843 -2.1990 -0.6914 -2.3901
  298DG     H22 6853   5.094   1.387   3.963 -0.6246 -0.5021 -0.3938
  298DG     H23 6854   5.094   1.347   4.140  1.5897  0.9323 -0.7593
  299DG      C1 6855   3.717   3.961   2.358 -0.0072 -0.2034 -0.2774
  299DG      C2 6856   3.039   4.402   2.617 -0.0124  0.2852  0.1251
  299DG      H3 6857   3.819   3.969   2.321  0.7667  1.3141  1.9308
  299DG      H4 6858   3.670   3.960   2.260  1.5838  0.9351 -1.0970
  299DG      H5 6859   3.701   3.863   2.403 -2.3858  0.1225 -0.2833
  299DG      H6 6860   3.010   4.436   2.716 -0.3593  0.5057 -0.0522
  299DG      H7 6861   3.007   4.480   2.548 -0.5567  0.7120  0.8564
  299DG      H8 6862   2.980   4.316   2.584  0.6224  0.7554 -2.4850
  299DG      O9 6863   3.686   4.059   2.452 -0.0452 -0.2153  0.0795
  299DG     O10 6864   3.177   4.365   2.608 -0.2750 -0.0162  0.5028
  299DG     C11 6865   3.545   4.076   2.473 -0.5716 -0.4224 -0.4415
  299DG     C12 6866   3.244   4.333   2.725  0.3841  0.1848  0.3848
  299DG     H13 6867   3.499   4.005   2.541 -0.7852  0.0320 -0.1098
  299DG     H14 6868   3.470   4.094   2.396 -1.6881 -0.8500  0.5163
  299DG     H15 6869   3.205   4.236   2.757  4.9104 -1.7735  0.6297
  299DG     H16 6870   3.217   4.405   2.803 -0.6688 -1.2505  1.4055
  299DG     C17 6871   3.542   4.199   2.561  0.3421 -0.4199  0.1275
  299DG     C18 6872   3.390   4.325   2.687  0.2482  0.2394  0.0442
  299DG     O19 6873   3.403   4.223   2.596 -0.0054  0.3970  0.0760
  299DG     H20 6874   3.575   4.283   2.499  0.4971  0.6872  1.6651
  299DG     H21 6875   3.596   4.179   2.653  2.2434  0.3223 -0.7784
  299DG     H22 6876   3.433   4.416   2.646  0.2495 -0.2211 -1.0001
  299DG     H23 6877   3.443   4.310   2.781 -0.2643 -1.8098  0.0494
  300DG      C1 6878   0.395   1.108   4.689 -0.1433  0.4412 -0.7211
  300DG      C2 6879   0.118   1.781   4.744  0.4291 -0.2125 -0.4474
  300DG      H3 6880   0.416   1.138   4.586  1.6726  0.6737 -0.3314
  300DG      H4 6881   0.305   1.048   4.677  0.1429  0.1569 -1.5347
  300DG      H5 6882   0.477   1.049   4.731  0.1869  0.9464 -0.6414
  300DG      H6 6883   0.033   1.763   4.679 -1.2481  0.7883  1.3637
  300DG      H7 6884   0.096   1.848   4.827  0.3534 -2.3383  1.3027
  300DG      H8 6885   0.199   1.823   4.683  0.8225 -0.9413 -0.4332
  300DG      O9 6886   0.395   1.230   4.769 -0.0847  0.0724 -0.6056
  300DG     O10 6887   0.174   1.662   4.786 -0.3075 -0.0267 -0.1222
  300DG     C11 6888   0.377   1.215   4.909 -0.2599  0.5246 -0.2933
  300DG     C12 6889   0.078   1.600   4.873 -0.3788  0.4247  1.1311
  300DG     H13 6890   0.468   1.172   4.951  0.5312  1.8767 -0.5531
  300DG     H14 6891   0.307   1.137   4.937  0.9222 -1.1398 -1.7394
  300DG     H15 6892   0.002   1.540   4.823  0.6245  0.0800 -0.0336
  300DG     H16 6893   0.021   1.670   4.933 -1.0702 -0.0199  1.0018
  300DG     C17 6894   0.325   1.343   4.978 -0.3211 -0.0278  0.0745
  300DG     C18 6895   0.155   1.505   4.963 -0.2801  0.4017 -0.1483
  300DG     O19 6896   0.239   1.419   4.893  0.2976  0.0086  1.0166
  300DG     H20 6897   0.415   1.402   4.996  0.2652 -0.5588 -0.9965
  300DG     H21 6898   0.284   1.326   5.077  2.2808 -1.6790  0.9816
  300DG     H22 6899   0.215   1.549   5.043 -1.5930  0.2712  0.9593
  300DG     H23 6900   0.094   1.437   5.022  0.1288  0.3607  0.2302
  301DG      C1 6901   3.957   3.734   3.087  0.5467 -0.4846  0.1080
  301DG      C2 6902   3.337   3.968   2.949 -0.1601  0.1341  0.6610
  301DG      H3 6903   3.996   3.694   2.993  0.9251  0.5422 -0.1826
  301DG      H4 6904   4.031   3.724   3.167  0.7664  1.6039  0.2160
  301DG      H5 6905   3.961   3.841   3.064  0.3197 -0.3571  0.6427
  301DG      H6 6906   3.270   4.030   3.008  1.4474  0.7453  1.9298
  301DG      H7 6907   3.387   4.037   2.881  0.6413 -1.2096 -0.1743
  301DG      H8 6908   3.277   3.904   2.885 -2.4637  0.4356  2.4266
  301DG      O9 6909   3.820   3.691   3.124  0.5407 -0.2041 -0.1916
  301DG     O10 6910   3.420   3.893   3.035 -0.2116 -0.0685  0.0451
  301DG     C11 6911   3.797   3.723   3.264 -0.6428  0.1236 -0.1604
  301DG     C12 6912   3.353   3.849   3.159 -0.1415 -0.0551 -0.2420
  301DG     H13 6913   3.815   3.830   3.271  0.7389 -0.1812  1.6884
  301DG     H14 6914   3.874   3.669   3.319 -2.2282 -1.2248  0.8395
  301DG     H15 6915   3.258   3.802   3.135  0.9513 -1.3501 -2.3335
  301DG     H16 6916   3.317   3.942   3.203  0.8248 -0.2828  1.0789
  301DG     C17 6917   3.657   3.699   3.313 -0.0892  0.3074  0.3566
  301DG     C18 6918   3.441   3.747   3.237 -0.2647 -0.4418 -0.2380
  301DG     O19 6919   3.577   3.784   3.233  0.3452  0.1193 -0.1338
  301DG     H20 6920   3.645   3.728   3.417 -0.5089  0.6398  0.2233
  301DG     H21 6921   3.632   3.594   3.298 -0.4536  0.5234 -0.6840
  301DG     H22 6922   3.423   3.752   3.344  0.1158 -0.1547 -0.1828
  301DG     H23 6923   3.432   3.646   3.196 -2.8503 -0.3448 -0.0603
  302DG      C1 6924   1.379   3.532   2.417 -0.1368  0.0238 -0.4509
  302DG      C2 6925   1.944   3.233   1.878  0.5076 -0.9171  0.2630
  302DG      H3 6926   1.361   3.611   2.344  4.2022 -1.8267 -4.0724
  302DG      H4 6927   1.358   3.575   2.514 -1.1007 -0.8309 -0.2672
  302DG      H5 6928   1.328   3.436   2.418 -0.9228  0.4386 -0.4981
  302DG      H6 6929   2.039   3.265   1.834 -0.6267  0.9013 -0.9955
  302DG      H7 6930   1.939   3.125   1.870  0.9029 -1.1369  2.2593
  302DG      H8 6931   1.871   3.280   1.812  0.2504 -3.0655 -1.0716
  302DG      O9 6932   1.516   3.507   2.435 -0.1372  0.0602 -0.1025
  302DG     O10 6933   1.921   3.274   2.010  0.2378 -0.6478 -0.3775
  302DG     C11 6934   1.566   3.460   2.313 -0.1199  0.5588  0.2508
  302DG     C12 6935   1.962   3.404   2.045  0.7151 -0.8145  1.1631
  302DG     H13 6936   1.529   3.533   2.241  0.5563 -0.2177 -0.9094
  302DG     H14 6937   1.525   3.361   2.289  1.3228  0.2421 -1.0351
  302DG     H15 6938   1.912   3.475   1.978 -0.4347 -2.1876  0.5200
  302DG     H16 6939   2.070   3.413   2.029  0.4133 -1.7035 -2.2535
  302DG     C17 6940   1.712   3.456   2.321 -0.3199 -0.4424  0.1371
  302DG     C18 6941   1.912   3.439   2.184  0.4082  0.1003 -0.0193
  302DG     O19 6942   1.767   3.430   2.191  0.1105  0.2271  0.6418
  302DG     H20 6943   1.754   3.383   2.390  0.8455 -0.1784 -0.2732
  302DG     H21 6944   1.749   3.549   2.365  1.5660 -1.8231  1.6439
  302DG     H22 6945   1.956   3.376   2.261 -1.0057  1.1281  1.7090
  302DG     H23 6946   1.948   3.540   2.205  1.3012 -0.0832 -0.6267
  303DG      C1 6947   4.824   2.536   0.503  0.1036  0.9708  1.0541
  303DG      C2 6948   4.080   2.329   0.039 -0.5452 -0.2436  0.0396
  303DG      H3 6949   4.917   2.544   0.446  0.1556 -1.4427  0.7151
  303DG      H4 6950   4.859   2.519   0.605  0.7382  1.7834  0.9870
  303DG      H5 6951   4.773   2.632   0.496  1.1459  1.4776 -0.1484
  303DG      H6 6952   3.987   2.276   0.021 -0.4000 -0.8717  1.0354
  303DG      H7 6953   4.041   2.418   0.089 -1.1467 -0.5789  0.1818
  303DG      H8 6954   4.121   2.366  -0.055 -0.3433  1.9558  0.9293
  303DG      O9 6955   4.751   2.431   0.436  0.1473 -0.1869  0.0258
  303DG     O10 6956   4.182   2.261   0.107 -0.1074  0.3584 -0.4158
  303DG     C11 6957   4.613   2.422   0.481 -0.3859 -0.2493  1.0153
  303DG     C12 6958   4.280   2.343   0.159 -0.3149  0.1422 -0.3380
  303DG     H13 6959   4.550   2.507   0.456 -0.4148 -1.1672 -2.6032
  303DG     H14 6960   4.611   2.411   0.589  2.0240 -0.5584  1.0921
  303DG     H15 6961   4.242   2.430   0.214 -0.2590 -0.3835  0.5472
  303DG     H16 6962   4.339   2.382   0.076  1.8539 -2.6083 -0.2472
  303DG     C17 6963   4.553   2.297   0.416  0.0252 -0.1002 -0.4888
  303DG     C18 6964   4.366   2.265   0.264  0.0508  0.1725  0.4042
  303DG     O19 6965   4.473   2.337   0.302 -0.3856 -0.0342  0.0682
  303DG     H20 6966   4.492   2.246   0.490 -2.7031  3.0305 -0.3560
  303DG     H21 6967   4.632   2.228   0.387 -1.0154 -2.0109  1.0815
  303DG     H22 6968   4.302   2.235   0.347 -0.0875 -0.0410  0.2180
  303DG     H23 6969   4.405   2.178   0.211 -1.2362  0.2786 -0.7664
  304DG      C1 6970   1.167   3.009   0.483  0.4779 -0.3529  0.1523
  304DG      C2 6971   0.897   2.682  -0.222 -0.0493  1.2484  0.1698
  304DG      H3 6972   1.260   2.952   0.486  1.9635  1.8895 -0.2607
  304DG      H4 6973   1.093   2.961   0.546 -1.0708  2.2009  0.4331
  304DG      H5 6974   1.202   3.109   0.508 -0.2675 -0.6159  2.4608
  304DG      H6 6975   0.898   2.600  -0.150  0.1253 -0.1820 -1.4108
  304DG      H7 6976   0.812   2.654  -0.285  2.0796 -2.9448 -1.2174
  304DG      H8 6977   0.981   2.668  -0.289  0.6543 -0.2391  1.3050
  304DG      O9 6978   1.112   3.016   0.349 -0.0979 -0.1093 -0.2409
  304DG     O10 6979   0.906   2.816  -0.174  0.4398 -0.4949 -0.2792
  304DG     C11 6980   0.997   3.104   0.340  0.3761 -0.7044 -0.2459
  304DG     C12 6981   0.863   2.826  -0.040  0.0745  0.0371  0.0181
  304DG     H13 6982   1.040   3.202   0.360  2.3650 -1.3599 -1.0940
  304DG     H14 6983   0.929   3.069   0.418 -0.3308  2.2117  0.5422
  304DG     H15 6984   0.910   2.756   0.029  0.1139  1.1640  1.1858
  304DG     H16 6985   0.760   2.791  -0.032  0.5367 -2.3358 -2.8241
  304DG     C17 6986   0.943   3.105   0.190  0.1635 -0.3510 -0.0206
  304DG     C18 6987   0.885   2.967   0.012  0.7350  0.3417  0.5714
  304DG     O19 6988   0.918   2.974   0.148  0.5137  0.2285 -0.1201
  304DG     H20 6989   1.020   3.152   0.129  0.0266  0.3804  0.3656
  304DG     H21 6990   0.851   3.161   0.178  1.8433  2.4532 -0.7780
  304DG     H22 6991   0.970   3.002  -0.045  1.2080 -1.2299  0.2548
  304DG     H23 6992   0.798   3.024  -0.023  0.5813 -0.9784 -1.3205
  305DG      C1 6993   1.669   0.794   5.136 -0.3981  0.5874 -0.2924
  305DG      C2 6994   1.495   0.316   5.664  0.0540 -0.0857 -0.6798
  305DG      H3 6995   1.777   0.790   5.151 -0.3554 -0.8403 -0.8807
  305DG      H4 6996   1.631   0.877   5.196 -1.9223 -1.6320  2.0310
  305DG      H5 6997   1.659   0.818   5.031  1.4046  1.8520 -0.2406
  305DG      H6 6998   1.597   0.328   5.699 -0.3596  3.4725 -0.3302
  305DG      H7 6999   1.427   0.356   5.739 -0.3018 -1.7620 -0.0477
  305DG      H8 7000   1.463   0.212   5.649 -1.8255  0.2800  0.4795
  305DG      O9 7001   1.595   0.678   5.172 -0.4659  0.0384  0.2002
  305DG     O10 7002   1.474   0.389   5.539  0.4856  0.2721 -0.1475
  305DG     C11 7003   1.461   0.683   5.125  0.2726  0.1280 -0.1132
  305DG     C12 7004   1.334   0.419   5.517 -0.4697  0.6895  0.3911
  305DG     H13 7005   1.458   0.688   5.016  2.1398 -1.3963 -0.2851
  305DG     H14 7006   1.418   0.771   5.170 -0.4497 -0.2844  0.0149
  305DG     H15 7007   1.298   0.505   5.574 -1.2300  0.0975  0.8321
  305DG     H16 7008   1.268   0.336   5.543 -2.3229  0.8585 -3.2030
  305DG     C17 7009   1.384   0.553   5.170  0.3539 -0.3009  0.1054
  305DG     C18 7010   1.311   0.439   5.366  0.0734 -0.5457 -0.2096
  305DG     O19 7011   1.383   0.550   5.311  0.2940  0.5539  0.1013
  305DG     H20 7012   1.433   0.467   5.125  0.3241 -0.1267 -0.2606
  305DG     H21 7013   1.281   0.556   5.136 -1.1616  0.1038  4.2010
  305DG     H22 7014   1.345   0.346   5.322  1.1215 -0.2916  0.0423
  305DG     H23 7015   1.202   0.446   5.355  0.0111  2.6059  1.2487
  306DG      C1 7016   4.163   4.332   3.737  0.1482 -0.0911  0.0963
  306DG      C2 7017   4.751   4.399   4.160  0.3341  0.4181  0.0686
  306DG      H3 7018   4.126   4.417   3.795 -2.3468 -1.0046 -0.0567
  306DG      H4 7019   4.090   4.253   3.753 -0.5064  0.8651  2.0639
  306DG      H5 7020   4.176   4.356   3.631  0.6058  0.8628  0.3539
  306DG      H6 7021   4.720   4.488   4.107 -2.5483 -1.5544 -1.8479
  306DG      H7 7022   4.722   4.406   4.265 -0.0789  0.8692 -0.0729
  306DG      H8 7023   4.860   4.392   4.152  0.3005  0.9669 -1.0917
  306DG      O9 7024   4.287   4.282   3.787 -0.2002 -0.6262  0.3899
  306DG     O10 7025   4.694   4.288   4.086  0.4161  0.7688 -0.3399
  306DG     C11 7026   4.341   4.165   3.728 -0.6418  0.3224  0.6955
  306DG     C12 7027   4.730   4.273   3.949 -0.2432  0.1607  0.4359
  306DG     H13 7028   4.392   4.196   3.637 -0.4665 -0.1936  0.6167
  306DG     H14 7029   4.272   4.084   3.703  0.1469 -0.1349 -0.0652
  306DG     H15 7030   4.838   4.273   3.937 -0.3586 -0.4201 -0.8362
  306DG     H16 7031   4.707   4.365   3.894  0.9752 -0.0070 -0.4115
  306DG     C17 7032   4.446   4.098   3.815  0.3159  0.0475 -0.0125
  306DG     C18 7033   4.679   4.151   3.875  1.0039  0.2269 -0.8419
  306DG     O19 7034   4.543   4.193   3.856 -0.1669  0.7322  0.3598
  306DG     H20 7035   4.484   4.005   3.772 -3.1641 -1.7007  0.3365
  306DG     H21 7036   4.391   4.068   3.904  1.0466  1.0135  0.7894
  306DG     H22 7037   4.742   4.123   3.791 -1.1721 -1.9017 -1.8960
  306DG     H23 7038   4.687   4.068   3.946  0.7898 -0.5426 -1.7029
  307DG      C1 7039   4.607   2.251   4.489  0.5022  0.0298 -0.7284
  307DG      C2 7040   4.010   2.542   4.652  0.2433  0.2736 -0.3799
  307DG      H3 7041   4.569   2.183   4.413  1.1822 -1.0155 -0.1578
  307DG      H4 7042   4.703   2.208   4.517  0.3007  0.6845  1.1060
  307DG      H5 7043   4.625   2.353   4.455  1.0266  0.6764  1.3490
  307DG      H6 7044   3.925   2.556   4.718  0.0662  1.7634 -0.8981
  307DG      H7 7045   4.011   2.639   4.602  0.3213  0.8470  0.7216
  307DG      H8 7046   4.002   2.458   4.582 -1.0944  0.0730 -0.0101
  307DG      O9 7047   4.522   2.249   4.597 -0.5989  0.2985  0.4708
  307DG     O10 7048   4.115   2.510   4.742  0.0009  0.2070 -0.4026
  307DG     C11 7049   4.570   2.313   4.719  0.4953  0.3598  0.2450
  307DG     C12 7050   4.109   2.382   4.793  0.3262 -0.1973 -0.3337
  307DG     H13 7051   4.584   2.421   4.708 -1.6072  0.5334 -1.3822
  307DG     H14 7052   4.660   2.261   4.753  0.2203 -0.5077 -0.3399
  307DG     H15 7053   4.092   2.315   4.708  3.0712  1.3614 -2.2696
  307DG     H16 7054   4.023   2.380   4.861  1.5437  0.4406  1.2738
  307DG     C17 7055   4.467   2.297   4.834 -0.5170 -0.0072 -0.1988
  307DG     C18 7056   4.234   2.337   4.871 -0.5399 -0.3495 -0.0523
  307DG     O19 7057   4.349   2.357   4.792  0.2347  0.0865  0.2219
  307DG     H20 7058   4.513   2.357   4.912  1.9313  1.9118 -2.9040
  307DG     H21 7059   4.440   2.194   4.858 -0.3361 -0.5460 -2.1251
  307DG     H22 7060   4.240   2.380   4.971  2.3393 -1.6997  0.4759
  307DG     H23 7061   4.219   2.230   4.881  0.4772 -0.5944 -0.9452
  308DG      C1 7062   0.801   4.878   1.500 -0.4016 -0.0291 -0.9036
  308DG      C2 7063   0.039   4.492   1.636 -0.4911  0.2386 -0.1139
  308DG      H3 7064   0.890   4.827   1.536 -0.6446 -0.0330 -0.2918
  308DG      H4 7065   0.755   4.928   1.585  2.4134  0.9721  0.1314
  308DG      H5 7066   0.837   4.955   1.432 -0.0586 -0.6290 -1.4146
  308DG      H6 7067  -0.030   4.577   1.633  0.7133  1.4035  2.6747
  308DG      H7 7068  -0.011   4.421   1.570 -0.8001  1.3356 -1.1215
  308DG      H8 7069   0.045   4.452   1.736 -0.3976  0.7059  0.0723
  308DG      O9 7070   0.709   4.793   1.434  0.3181  0.1629  0.1376
  308DG     O10 7071   0.171   4.533   1.589 -0.0988  0.5715 -0.5455
  308DG     C11 7072   0.642   4.709   1.525  0.4182 -0.2928  0.1175
  308DG     C12 7073   0.261   4.418   1.582  0.3195  0.5083 -0.8510
  308DG     H13 7074   0.582   4.771   1.591  2.0434  1.0056  0.4372
  308DG     H14 7075   0.716   4.658   1.587  1.4867  1.3534  0.2589
  308DG     H15 7076   0.209   4.336   1.533 -1.5405  0.5289  0.9328
  308DG     H16 7077   0.311   4.396   1.676  0.9920  0.8410 -1.1282
  308DG     C17 7078   0.556   4.603   1.453 -0.1708 -0.3433 -0.4536
  308DG     C18 7079   0.372   4.454   1.486 -0.6959 -0.7215 -0.2612
  308DG     O19 7080   0.474   4.536   1.553  0.0302 -0.3934  0.5609
  308DG     H20 7081   0.618   4.525   1.408  1.0658  0.3698 -0.0379
  308DG     H21 7082   0.497   4.656   1.379 -0.6348  0.2507  0.3247
  308DG     H22 7083   0.426   4.363   1.458  1.6621 -0.1076  1.9351
  308DG     H23 7084   0.335   4.505   1.397  1.8665  0.4161 -0.7788
  309DG      C1 7085   0.170   0.993   3.664 -0.1712 -0.1729  0.0812
  309DG      C2 7086   0.136   0.979   4.340  0.2596 -0.5401 -0.3713
  309DG      H3 7087   0.155   1.084   3.606 -1.6708 -0.2774  0.2658
  309DG      H4 7088   0.087   0.923   3.669  0.8324 -1.3758  0.2352
  309DG      H5 7089   0.246   0.932   3.617 -0.7539  0.2339 -1.4454
  309DG      H6 7090   0.210   0.917   4.390  1.7905  1.1078 -0.4870
  309DG      H7 7091   0.090   1.057   4.401 -2.2040 -1.6345 -0.6861
  309DG      H8 7092   0.051   0.911   4.329 -2.1187  2.2518 -0.6004
  309DG      O9 7093   0.228   1.024   3.789 -0.0691 -0.1222 -0.5115
  309DG     O10 7094   0.205   1.030   4.227  0.0158 -0.2683  0.6277
  309DG     C11 7095   0.332   1.120   3.781  1.0673 -0.0003 -0.4052
  309DG     C12 7096   0.296   1.133   4.263  0.2906  0.0733 -0.2048
  309DG     H13 7097   0.291   1.219   3.764  0.0650 -0.5531 -1.3505
  309DG     H14 7098   0.394   1.095   3.694 -1.0086 -1.3583 -1.5983
  309DG     H15 7099   0.353   1.111   4.353  1.2837 -1.0579 -1.0857
  309DG     H16 7100   0.233   1.220   4.281 -0.4103 -0.5339  0.3832
  309DG     C17 7101   0.421   1.120   3.909  0.6163 -0.1983  0.3433
  309DG     C18 7102   0.397   1.155   4.141  0.0828  0.6064 -0.4565
  309DG     O19 7103   0.338   1.153   4.012 -0.2548  1.0138 -0.4442
  309DG     H20 7104   0.501   1.193   3.895  0.3278 -0.2190 -1.6774
  309DG     H21 7105   0.471   1.026   3.935 -0.7207 -1.4737 -1.5003
  309DG     H22 7106   0.464   1.240   4.144 -0.8793  1.3643  0.1445
  309DG     H23 7107   0.465   1.070   4.148  2.3306  2.3430  0.0026
  310DG      C1 7108   4.585   2.420   3.178  0.0427  0.2115 -0.0174
  310DG      C2 7109   4.902   3.117   2.984 -0.2318  0.7345  0.1065
  310DG      H3 7110   4.479   2.423   3.154  0.1082  0.7486 -0.2690
  310DG      H4 7111   4.595   2.332   3.241 -3.1678 -0.4858 -0.3291
  310DG      H5 7112   4.646   2.397   3.091 -0.6998 -0.1208 -0.4547
  310DG      H6 7113   4.997   3.150   3.028 -0.8778  1.7096  0.8057
  310DG      H7 7114   4.913   3.098   2.878 -3.6928 -0.5445 -0.1347
  310DG      H8 7115   4.823   3.190   2.999 -0.1452  1.1955 -1.5342
  310DG      O9 7116   4.618   2.547   3.226  0.2653 -0.5050  0.4886
  310DG     O10 7117   4.872   3.000   3.062 -0.4273 -0.0684  0.5254
  310DG     C11 7118   4.754   2.552   3.275 -0.9957 -0.6527 -0.4148
  310DG     C12 7119   4.754   2.928   3.034  0.0173  0.1527 -0.2764
  310DG     H13 7120   4.818   2.521   3.193  1.3582  1.2315  0.5859
  310DG     H14 7121   4.775   2.478   3.352 -2.0594 -0.8765 -0.3203
  310DG     H15 7122   4.790   2.872   2.947  1.0106 -0.9578  0.8149
  310DG     H16 7123   4.670   2.988   3.001 -0.1732 -0.5428 -1.1107
  310DG     C17 7124   4.804   2.689   3.314  0.2425 -0.0832  0.2616
  310DG     C18 7125   4.713   2.823   3.137  0.9577 -0.9675  0.4448
  310DG     O19 7126   4.828   2.770   3.201  0.0915  0.1687  0.0943
  310DG     H20 7127   4.899   2.688   3.368  1.0379  2.1268 -0.9991
  310DG     H21 7128   4.740   2.741   3.386 -0.4562 -2.8610  1.7837
  310DG     H22 7129   4.637   2.871   3.199  0.1798 -0.8991 -0.5223
  310DG     H23 7130   4.655   2.740   3.095  0.9913 -0.7559 -0.0218
  311DG      C1 7131   3.583   0.196   3.334  0.1939  0.1904  0.1652
  311DG      C2 7132   3.235   0.134   3.729  0.0013  0.1129 -0.6927
  311DG      H3 7133   3.683   0.239   3.334  0.3983 -0.2547 -1.3631
  311DG      H4 7134   3.555   0.193   3.229 -0.0889  1.7026  0.1656
  311DG      H5 7135   3.578   0.096   3.376 -1.7089  0.1980  0.0654
  311DG      H6 7136   3.228   0.039   3.783  0.9277  1.1302  1.3365
  311DG      H7 7137   3.139   0.147   3.679 -1.3691 -1.0542  1.4533
  311DG      H8 7138   3.318   0.136   3.658  0.4467 -0.8866 -0.2344
  311DG      O9 7139   3.483   0.267   3.405  0.2310  0.6053 -0.1420
  311DG     O10 7140   3.261   0.244   3.821  0.1707 -0.1196  0.1294
  311DG     C11 7141   3.507   0.404   3.424 -0.5956  0.3385  0.2104
  311DG     C12 7142   3.189   0.360   3.775  0.2666 -0.2026 -0.4534
  311DG     H13 7143   3.546   0.453   3.335  2.3097 -0.4046  0.9716
  311DG     H14 7144   3.584   0.404   3.502 -0.0327 -1.1767 -0.3058
  311DG     H15 7145   3.214   0.439   3.846 -0.5764  1.0902 -1.5565
  311DG     H16 7146   3.082   0.350   3.793  0.7145 -0.8510  2.2459
  311DG     C17 7147   3.361   0.456   3.463 -0.1017  0.4004  0.2955
  311DG     C18 7148   3.206   0.405   3.635 -0.3816  0.0451 -0.6335
  311DG     O19 7149   3.336   0.386   3.578  0.3966  0.5329  0.1444
  311DG     H20 7150   3.283   0.439   3.388  0.1508  1.5651 -0.2530
  311DG     H21 7151   3.372   0.564   3.474 -0.9073  0.5869 -0.5740
  311DG     H22 7152   3.131   0.354   3.575 -0.7695  2.7665 -2.6572
  311DG     H23 7153   3.177   0.509   3.619 -1.3079  0.2348  1.8700
  312DG      C1 7154   4.257   1.950   4.643 -0.5486  0.0950  0.3664
  312DG      C2 7155   3.948   1.826   4.067 -0.8994  0.5403  0.1248
  312DG      H3 7156   4.295   2.013   4.723  0.7496 -0.9324  0.5957
  312DG      H4 7157   4.350   1.913   4.601 -0.3977  1.6438 -0.7494
  312DG      H5 7158   4.197   1.871   4.688 -1.9594  1.4288  0.9174
  312DG      H6 7159   3.907   1.837   3.967  1.4724 -2.5364 -1.3579
  312DG      H7 7160   4.051   1.794   4.052 -0.6208  0.8153  1.3288
  312DG      H8 7161   3.905   1.739   4.116  2.0935  0.0017  2.0551
  312DG      O9 7162   4.179   2.022   4.540  0.4954 -0.5461 -0.0034
  312DG     O10 7163   3.963   1.942   4.151  0.0558 -0.2987  0.5215
  312DG     C11 7164   4.230   2.146   4.502 -0.0741 -0.4036 -0.1054
  312DG     C12 7165   4.017   2.057   4.095  0.7624 -0.3345  0.4185
  312DG     H13 7166   4.327   2.121   4.459 -0.2653 -1.1652 -0.1157
  312DG     H14 7167   4.249   2.206   4.591 -1.2250 -2.2368  1.4651
  312DG     H15 7168   3.958   2.100   4.015 -0.1214  0.0354  1.2520
  312DG     H16 7169   4.118   2.036   4.058  1.6008  2.2030  1.0550
  312DG     C17 7170   4.138   2.219   4.405  0.4366 -0.2976 -0.9516
  312DG     C18 7171   4.044   2.163   4.193 -0.2598  0.1731  0.0644
  312DG     O19 7172   4.124   2.123   4.300  0.3326  0.0953 -0.2676
  312DG     H20 7173   4.159   2.319   4.367 -1.0983  0.5900  0.4128
  312DG     H21 7174   4.044   2.230   4.459  0.4571 -0.2157 -0.9328
  312DG     H22 7175   4.100   2.236   4.135  1.6582 -1.0079  0.3417
  312DG     H23 7176   3.950   2.206   4.227  0.6672  3.6870 -1.3098
  313DG      C1 7177   3.765   3.622   5.107  0.3096 -0.0763  0.3561
  313DG      C2 7178   3.480   4.283   4.836 -0.0298 -0.4563  0.3777
  313DG      H3 7179   3.820   3.710   5.142 -0.3736 -0.1290  1.6120
  313DG      H4 7180   3.823   3.566   5.035  1.4206  1.5875 -0.1011
  313DG      H5 7181   3.760   3.552   5.191 -0.7422 -1.0406 -0.4774
  313DG      H6 7182   3.577   4.332   4.852 -0.1376 -0.0246 -0.2530
  313DG      H7 7183   3.466   4.313   4.732  1.5984 -0.0223  0.2597
  313DG      H8 7184   3.410   4.333   4.902  1.0086 -0.6412  1.6673
  313DG      O9 7185   3.641   3.645   5.036 -0.1394  0.4304  0.0825
  313DG     O10 7186   3.495   4.142   4.851 -0.7157  0.1912 -0.2288
  313DG     C11 7187   3.592   3.770   5.039  0.8579 -0.4327 -0.4717
  313DG     C12 7188   3.384   4.078   4.794 -0.0547 -0.0905 -0.1101
  313DG     H13 7189   3.656   3.825   4.969  0.1019 -2.1810 -2.6777
  313DG     H14 7190   3.593   3.817   5.137 -0.0171 -1.8063  0.2242
  313DG     H15 7191   3.389   4.086   4.685  2.3935 -0.8184 -0.0991
  313DG     H16 7192   3.287   4.110   4.831  0.1742  1.2384 -0.6129
  313DG     C17 7193   3.452   3.761   4.993  1.0218 -0.9787  0.3702
  313DG     C18 7194   3.412   3.931   4.827 -0.6351 -0.0006  0.0897
  313DG     O19 7195   3.402   3.886   4.961 -0.3797 -0.8485  0.3016
  313DG     H20 7196   3.379   3.715   5.059 -0.3534 -0.8060 -0.9786
  313DG     H21 7197   3.443   3.690   4.910  2.3487 -2.8505  1.7520
  313DG     H22 7198   3.341   3.865   4.777  1.2060 -0.2720 -2.3236
  313DG     H23 7199   3.508   3.902   4.786 -1.6164 -0.4483 -2.0459
  314DG      C1 7200   1.768   0.523   4.427  0.0407 -0.2433  0.2310
  314DG      C2 7201   1.480  -0.192   4.803 -0.0345 -0.4977 -0.1053
  314DG      H3 7202   1.823   0.584   4.499  1.0746 -0.4909 -0.3337
  314DG      H4 7203   1.690   0.591   4.394  2.1230  1.4226 -1.5504
  314DG      H5 7204   1.826   0.508   4.336 -0.0195 -2.0913  0.4475
  314DG      H6 7205   1.589  -0.190   4.794  0.3142 -1.1609  2.8958
  314DG      H7 7206   1.461  -0.155   4.904  0.7567  2.4184 -0.9230
  314DG      H8 7207   1.450  -0.297   4.798 -2.8816  0.2211  0.2082
  314DG      O9 7208   1.716   0.400   4.468 -0.0728  0.4687 -0.5776
  314DG     O10 7209   1.424  -0.105   4.711 -0.1763 -0.8297  0.4980
  314DG     C11 7210   1.801   0.322   4.544 -0.6006  0.6020  0.2524
  314DG     C12 7211   1.475   0.024   4.700  0.0801  0.3597 -0.4507
  314DG     H13 7212   1.805   0.339   4.652  1.4140 -2.5962  0.8357
  314DG     H14 7213   1.906   0.326   4.515  0.7507  3.0868  4.5534
  314DG     H15 7214   1.499   0.062   4.799 -1.8028  2.9485 -0.8808
  314DG     H16 7215   1.394   0.091   4.672 -2.4918 -1.7567  1.3802
  314DG     C17 7216   1.766   0.173   4.522 -0.0776  0.2241 -0.0775
  314DG     C18 7217   1.592   0.033   4.605  0.2883  0.7376 -0.0324
  314DG     O19 7218   1.649   0.159   4.605 -0.1185 -0.7117 -0.0565
  314DG     H20 7219   1.844   0.104   4.554 -0.0374  0.3530  0.1001
  314DG     H21 7220   1.747   0.152   4.416  0.0052 -0.0699 -0.0354
  314DG     H22 7221   1.667  -0.042   4.627 -0.8712 -0.7373 -0.9309
  314DG     H23 7222   1.550   0.023   4.505 -0.1848 -2.0355  0.3700
  315DG      C1 7223   3.828   3.658   0.854  0.1745  0.1995 -0.2891
  315DG      C2 7224   3.383   3.934   0.963  0.1163 -0.1997  0.9150
  315DG      H3 7225   3.787   3.711   0.768  0.7325  1.0797 -0.0229
  315DG      H4 7226   3.764   3.571   0.842  0.4951 -0.0588 -0.1448
  315DG      H5 7227   3.931   3.624   0.846  0.2847  0.9103 -2.5062
  315DG      H6 7228   3.487   3.918   0.937  0.2903 -0.2552  1.6147
  315DG      H7 7229   3.324   3.862   0.907  0.6408 -0.6040  0.8716
  315DG      H8 7230   3.362   4.037   0.934  2.3243 -0.0183 -0.2144
  315DG      O9 7231   3.794   3.712   0.981  0.2111  0.6660  0.3147
  315DG     O10 7232   3.356   3.926   1.098 -0.0534  0.8190 -1.2415
  315DG     C11 7233   3.842   3.849   0.991 -0.3017  0.4216 -0.2558
  315DG     C12 7234   3.424   4.020   1.184 -0.0025 -0.2728 -0.2225
  315DG     H13 7235   3.800   3.903   0.905  0.8464  2.6533  0.5139
  315DG     H14 7236   3.950   3.851   1.003  0.2100 -2.4259 -3.0235
  315DG     H15 7237   3.376   4.038   1.279 -2.4781  0.5786 -1.5510
  315DG     H16 7238   3.423   4.116   1.133  3.1693 -0.0387 -0.0604
  315DG     C17 7239   3.779   3.908   1.120 -0.0090 -0.5562 -0.7115
  315DG     C18 7240   3.573   3.989   1.215 -0.1253  0.1053  0.2010
  315DG     O19 7241   3.637   3.906   1.115 -0.2437  0.1320  0.7709
  315DG     H20 7242   3.807   4.013   1.123  1.6790 -0.8250 -3.3560
  315DG     H21 7243   3.820   3.867   1.211  0.3903 -1.2440 -1.1987
  315DG     H22 7244   3.620   4.084   1.240 -0.8063  0.2601  0.9436
  315DG     H23 7245   3.579   3.929   1.307  1.6459 -0.6113 -0.3335
  316DG      C1 7246   2.220   3.838   1.324  0.4502 -0.4900  0.4459
  316DG      C2 7247   1.514   3.794   1.404 -0.0590 -0.2370 -0.6100
  316DG      H3 7248   2.309   3.838   1.261  1.2697  0.7769  1.5465
  316DG      H4 7249   2.215   3.748   1.386  3.1642  0.0936  1.6337
  316DG      H5 7250   2.243   3.916   1.396  0.3345 -0.0257 -0.0112
  316DG      H6 7251   1.536   3.696   1.446 -2.7797 -0.2353  1.0558
  316DG      H7 7252   1.524   3.860   1.491 -0.4614 -1.1540  0.1546
  316DG      H8 7253   1.411   3.798   1.368 -0.8228  1.6006  1.5294
  316DG      O9 7254   2.100   3.859   1.249 -0.5465 -0.1258  0.1681
  316DG     O10 7255   1.609   3.823   1.309 -0.4577 -0.1815  0.3647
  316DG     C11 7256   2.044   3.746   1.196 -0.0078  0.6045  0.4599
  316DG     C12 7257   1.582   3.746   1.194  0.2747  0.1392 -0.4097
  316DG     H13 7258   2.018   3.681   1.279  1.2155  1.4012  1.5053
  316DG     H14 7259   2.113   3.686   1.136 -1.9101  0.1028 -1.3436
  316DG     H15 7260   1.484   3.762   1.149  1.1534 -1.1121 -2.9841
  316DG     H16 7261   1.594   3.641   1.223  0.1466  0.3351  0.3743
  316DG     C17 7262   1.926   3.788   1.106  0.7356  0.4955  0.0589
  316DG     C18 7263   1.693   3.777   1.093  0.4654 -0.5103  0.2895
  316DG     O19 7264   1.810   3.733   1.158 -0.0114 -0.1248 -0.4887
  316DG     H20 7265   1.936   3.758   1.002  2.7416  2.9901 -0.5852
  316DG     H21 7266   1.918   3.897   1.107 -1.1018  0.3913  0.5599
  316DG     H22 7267   1.673   3.723   1.000  1.3016 -0.9734  0.3607
  316DG     H23 7268   1.696   3.883   1.068 -2.3733 -0.8750 -2.2325
  317DG      C1 7269   1.870   5.334   0.544 -0.6188 -0.0623 -0.1177
  317DG      C2 7270   2.119   5.940   0.144 -0.4120 -0.1204 -0.4598
  317DG      H3 7271   1.888   5.404   0.625 -0.8048  0.3587 -0.4418
  317DG      H4 7272   1.933   5.249   0.571 -1.5789 -0.2873  1.5168
  317DG      H5 7273   1.775   5.282   0.552  0.2249 -2.0056 -1.7946
  317DG      H6 7274   2.154   5.979   0.240  2.0176 -0.4569 -1.1482
  317DG      H7 7275   2.183   5.982   0.067  0.0375  0.0532  0.0010
  317DG      H8 7276   2.012   5.956   0.130 -0.2741  2.2855  0.7403
  317DG      O9 7277   1.889   5.395   0.415 -0.1506  0.6590 -0.3752
  317DG     O10 7278   2.143   5.797   0.162 -0.2268 -0.6265  1.0194
  317DG     C11 7279   1.813   5.508   0.405 -0.2794  0.1873  1.1834
  317DG     C12 7280   2.083   5.729   0.049 -0.5476 -0.8459 -0.2318
  317DG     H13 7281   1.839   5.593   0.468 -1.1365 -0.0248  1.8340
  317DG     H14 7282   1.712   5.476   0.429 -0.4456 -0.8877 -0.7209
  317DG     H15 7283   2.143   5.639   0.038  1.4131  0.4161 -0.4162
  317DG     H16 7284   2.082   5.784  -0.045  0.3987 -0.5395 -0.0697
  317DG     C17 7285   1.808   5.570   0.261  0.0942 -0.2081 -0.0281
  317DG     C18 7286   1.938   5.686   0.092  0.1028  0.0206 -0.0620
  317DG     O19 7287   1.935   5.602   0.205  0.7495 -0.0306 -0.0978
  317DG     H20 7288   1.758   5.664   0.283 -2.5627 -1.6004  0.2168
  317DG     H21 7289   1.748   5.501   0.201 -0.9488  0.7699 -0.1444
  317DG     H22 7290   1.866   5.767   0.106  0.8112  1.0078 -1.7433
  317DG     H23 7291   1.888   5.629   0.013 -2.5476 -0.4443  1.8212
  318DG      C1 7292   4.995   4.230   4.464 -0.0315 -0.1539  0.1001
  318DG      C2 7293   4.796   3.670   4.686 -0.2019  0.7239  0.9388
  318DG      H3 7294   4.972   4.285   4.555  0.7325  0.4899 -0.0896
  318DG      H4 7295   5.023   4.300   4.386 -0.6123 -0.6338 -0.5571
  318DG      H5 7296   5.073   4.157   4.489  0.8395  0.8205  0.2826
  318DG      H6 7297   4.760   3.710   4.780 -1.0394  0.7189  0.6331
  318DG      H7 7298   4.732   3.582   4.679  0.0487  0.6411 -1.2549
  318DG      H8 7299   4.902   3.644   4.682 -0.6409 -1.1078 -0.3706
  318DG      O9 7300   4.882   4.161   4.416 -0.0728  0.1055 -0.1171
  318DG     O10 7301   4.757   3.759   4.578  0.1999  0.5864  0.1137
  318DG     C11 7302   4.905   4.103   4.290 -0.0559  0.1412 -1.1141
  318DG     C12 7303   4.744   3.695   4.455 -0.0018 -0.0392  0.0261
  318DG     H13 7304   4.995   4.043   4.285 -0.7536 -1.3368  1.5176
  318DG     H14 7305   4.902   4.180   4.213 -0.7604  0.5097 -0.7351
  318DG     H15 7306   4.661   3.627   4.471 -0.6240  1.0023  1.5182
  318DG     H16 7307   4.840   3.648   4.431  0.2510  1.4105 -2.0634
  318DG     C17 7308   4.790   4.002   4.271  0.0909 -0.3174 -0.1638
  318DG     C18 7309   4.706   3.810   4.356 -0.4041 -0.2680 -0.3091
  318DG     O19 7310   4.793   3.916   4.385  0.4766 -0.6103  0.2822
  318DG     H20 7311   4.791   3.955   4.173  2.5147  0.3220 -0.5279
  318DG     H21 7312   4.696   4.056   4.270  0.9657  1.2919 -1.2743
  318DG     H22 7313   4.708   3.760   4.259 -0.9312 -1.4897  0.2894
  318DG     H23 7314   4.602   3.838   4.373 -0.1147  0.1019  0.9320
  319DG      C1 7315   2.081   2.718   1.168 -0.0234  0.5814  0.0296
  319DG      C2 7316   2.413   2.217   1.229 -0.5631  0.0746  0.0757
  319DG      H3 7317   1.977   2.734   1.138 -0.0671  0.0163 -0.1393
  319DG      H4 7318   2.083   2.665   1.263  1.9760  0.0786 -0.2550
  319DG      H5 7319   2.113   2.647   1.092 -1.6134 -0.4759  0.2893
  319DG      H6 7320   2.505   2.161   1.246 -1.3824 -1.6856 -1.0093
  319DG      H7 7321   2.337   2.176   1.295 -1.4347  2.0371  0.3573
  319DG      H8 7322   2.379   2.177   1.134  0.9629 -0.1235 -0.4234
  319DG      O9 7323   2.155   2.839   1.176  0.3211 -0.1472 -0.3480
  319DG     O10 7324   2.424   2.354   1.232 -0.1627 -0.1277  0.1145
  319DG     C11 7325   2.299   2.830   1.146  1.0588  0.4537 -0.5624
  319DG     C12 7326   2.429   2.398   1.368 -0.5710  0.2807  0.2598
  319DG     H13 7327   2.336   2.930   1.125  0.2345  0.7516 -0.6258
  319DG     H14 7328   2.310   2.783   1.048  2.4339  3.1038 -1.8105
  319DG     H15 7329   2.513   2.354   1.423  0.0077 -0.0038 -0.8218
  319DG     H16 7330   2.347   2.354   1.426  1.1373 -3.4652  0.1587
  319DG     C17 7331   2.365   2.755   1.269  0.1333  0.0523  0.2472
  319DG     C18 7332   2.411   2.551   1.375 -0.2189  0.4267  0.0547
  319DG     O19 7333   2.353   2.611   1.262 -0.0669  0.2569 -0.1076
  319DG     H20 7334   2.325   2.793   1.363 -1.0285  0.7161 -0.4926
  319DG     H21 7335   2.473   2.769   1.281  0.2808 -1.1245  0.3562
  319DG     H22 7336   2.344   2.570   1.459  1.7687 -0.8822  2.0560
  319DG     H23 7337   2.504   2.599   1.404 -0.1641 -0.8973  2.2966
  320DG      C1 7338   0.837   3.845   0.106  0.5921  0.1185 -0.4322
  320DG      C2 7339   0.888   4.033  -0.683  0.5617 -0.3006 -0.1815
  320DG      H3 7340   0.871   3.791   0.194 -0.2955  0.4542  0.1297
  320DG      H4 7341   0.736   3.810   0.084  0.8666 -0.5401 -0.6909
  320DG      H5 7342   0.834   3.952   0.125 -2.1682  0.2158 -0.9098
  320DG      H6 7343   0.903   4.141  -0.687  0.4593 -0.2923 -0.3707
  320DG      H7 7344   0.948   3.994  -0.766  1.0547  1.4538 -0.6936
  320DG      H8 7345   0.783   4.010  -0.703  0.4414  0.4623 -0.4627
  320DG      O9 7346   0.927   3.819   0.000 -0.0440  0.1493 -0.5587
  320DG     O10 7347   0.948   3.979  -0.566 -0.2347 -0.1257 -0.2149
  320DG     C11 7348   0.927   3.905  -0.106 -0.3587 -0.3738 -0.2544
  320DG     C12 7349   1.081   4.033  -0.538 -0.4913  0.4902 -0.7235
  320DG     H13 7350   0.938   4.008  -0.072  0.3740  0.4933 -2.8887
  320DG     H14 7351   0.832   3.898  -0.158  0.2075  0.5065 -1.4705
  320DG     H15 7352   1.078   4.141  -0.529 -0.2710  0.3529  1.5043
  320DG     H16 7353   1.151   3.999  -0.615 -0.2379 -3.8925  1.1583
  320DG     C17 7354   1.033   3.872  -0.204  0.2487  0.0408 -0.5851
  320DG     C18 7355   1.118   3.946  -0.407 -0.4818 -0.4684  0.4775
  320DG     O19 7356   1.024   3.968  -0.306  0.1511 -0.6463  0.3635
  320DG     H20 7357   1.003   3.775  -0.241 -0.1017  0.4582 -1.4151
  320DG     H21 7358   1.136   3.861  -0.168  0.1014 -2.0872 -0.7251
  320DG     H22 7359   1.126   3.840  -0.433  1.6758 -0.3170  0.3436
  320DG     H23 7360   1.218   3.972  -0.375 -0.1134 -0.5582 -0.5411
  321DG      C1 7361   2.680   4.528   2.399 -0.2688 -0.4785 -0.0927
  321DG      C2 7362   2.001   4.664   1.899  0.3804  0.4727  0.3447
  321DG      H3 7363   2.643   4.429   2.428  0.9889 -0.7417  0.6622
  321DG      H4 7364   2.755   4.565   2.469 -1.4911 -0.4042  1.2387
  321DG      H5 7365   2.720   4.506   2.300 -1.1915 -1.9354 -0.1821
  321DG      H6 7366   1.984   4.577   1.837 -1.7149  0.0164  1.4851
  321DG      H7 7367   1.911   4.725   1.908 -0.4256 -0.5901 -0.2889
  321DG      H8 7368   2.076   4.734   1.861  1.3117 -0.7832 -0.2060
  321DG      O9 7369   2.571   4.622   2.394 -0.2066 -0.3367 -0.3837
  321DG     O10 7370   2.030   4.621   2.029  0.5198  0.3545 -0.0194
  321DG     C11 7371   2.459   4.576   2.318  0.3830  0.2838  0.6843
  321DG     C12 7372   2.071   4.728   2.123 -0.6249  0.2379  0.3425
  321DG     H13 7373   2.422   4.484   2.362  0.7242  0.4258  1.2838
  321DG     H14 7374   2.490   4.559   2.215  1.3832  1.0197  0.8402
  321DG     H15 7375   1.995   4.806   2.128 -0.9322  0.2277 -2.2991
  321DG     H16 7376   2.148   4.789   2.075  0.3702 -0.9757  0.3400
  321DG     C17 7377   2.342   4.672   2.320 -0.1580 -0.5240 -0.4778
  321DG     C18 7378   2.109   4.677   2.263  0.1784 -0.2782  0.2179
  321DG     O19 7379   2.227   4.605   2.276  0.0747 -0.1509 -0.3351
  321DG     H20 7380   2.373   4.759   2.262 -0.5908  0.1397  0.2711
  321DG     H21 7381   2.312   4.699   2.421 -1.0260 -0.7065 -0.6751
  321DG     H22 7382   2.113   4.755   2.339 -0.4454 -0.7296  0.7223
  321DG     H23 7383   2.024   4.616   2.293  0.0874  0.1402  0.8235
  322DG      C1 7384   5.469   2.130   4.877 -0.5622  0.2331 -0.1847
  322DG      C2 7385   5.185   1.640   4.412 -0.9316  0.4282  0.7112
  322DG      H3 7386   5.575   2.106   4.863  0.2146  2.8404  0.7262
  322DG      H4 7387   5.423   2.106   4.973 -1.8930 -0.0589 -0.8782
  322DG      H5 7388   5.469   2.237   4.860  0.5345  0.2336 -0.2592
  322DG      H6 7389   5.127   1.582   4.340  1.6366 -0.2353 -0.9302
  322DG      H7 7390   5.281   1.672   4.374 -0.9908  1.1856  1.1932
  322DG      H8 7391   5.204   1.568   4.492  0.8794 -0.0148 -0.0740
  322DG      O9 7392   5.390   2.073   4.782 -0.3413  0.5384  0.4475
  322DG     O10 7393   5.122   1.759   4.458  0.2384  0.6364 -0.1251
  322DG     C11 7394   5.250   2.087   4.803 -0.2901  0.7122 -0.1157
  322DG     C12 7395   5.162   1.876   4.395  0.1047  0.0074 -0.1131
  322DG     H13 7396   5.228   2.181   4.853 -1.9383  0.7303 -0.8330
  322DG     H14 7397   5.212   2.014   4.875 -0.8364  1.0390 -0.0734
  322DG     H15 7398   5.112   1.880   4.298 -1.7467 -2.2341  0.6502
  322DG     H16 7399   5.268   1.893   4.379 -0.0811  3.1641  1.2268
  322DG     C17 7400   5.160   2.084   4.677 -0.6099  0.0672  0.3829
  322DG     C18 7401   5.121   1.990   4.478  0.6050  0.2928 -0.0473
  322DG     O19 7402   5.201   1.975   4.593  0.0280 -0.0876  0.4031
  322DG     H20 7403   5.183   2.179   4.630  1.3254 -1.1706 -1.3404
  322DG     H21 7404   5.054   2.086   4.701 -0.4991 -0.7186  0.9794
  322DG     H22 7405   5.150   2.084   4.433  1.2796  0.5827  0.9538
  322DG     H23 7406   5.015   1.979   4.501 -0.2339  2.4323 -2.4706
  323DG      C1 7407   2.244   5.189   1.423 -0.0029  0.4547 -0.1859
  323DG      C2 7408   1.963   5.202   1.996 -0.4969 -0.9308 -0.0610
  323DG      H3 7409   2.187   5.209   1.332  0.1925  0.0344 -0.4000
  323DG      H4 7410   2.325   5.129   1.384 -0.7386 -1.4105  1.0031
  323DG      H5 7411   2.283   5.287   1.450 -0.0515  0.5412 -0.4295
  323DG      H6 7412   2.033   5.139   2.051 -1.5307 -0.4784  1.8627
  323DG      H7 7413   2.006   5.301   1.985 -1.2475 -0.2833  2.2894
  323DG      H8 7414   1.890   5.217   2.075  1.4149  0.5425  1.5194
  323DG      O9 7415   2.169   5.125   1.530  0.2648 -0.3307  0.0603
  323DG     O10 7416   1.935   5.158   1.865 -0.1905  0.5886  0.8008
  323DG     C11 7417   2.144   4.987   1.503 -0.2439  0.3967  0.6230
  323DG     C12 7418   1.907   5.017   1.869 -0.0731 -0.0131 -0.6791
  323DG     H13 7419   2.236   4.930   1.499 -0.2601  0.3244  1.1675
  323DG     H14 7420   2.086   4.972   1.412 -0.5920 -2.6046  1.2616
  323DG     H15 7421   1.837   4.999   1.950  1.2860  1.1473  0.8004
  323DG     H16 7422   2.000   4.965   1.892  1.4915  2.8438 -0.0785
  323DG     C17 7423   2.059   4.922   1.614 -0.0147 -0.1635 -0.0149
  323DG     C18 7424   1.856   4.966   1.736 -0.1730  0.3261  0.2270
  323DG     O19 7425   1.934   5.003   1.627  0.3271 -0.1313 -0.4896
  323DG     H20 7426   2.115   4.933   1.707 -1.6207  1.3360  0.8342
  323DG     H21 7427   2.043   4.818   1.586  0.4906 -0.5084  0.9543
  323DG     H22 7428   1.839   4.859   1.749 -1.7388  0.5376  0.1207
  323DG     H23 7429   1.756   5.010   1.734 -1.1804 -1.6498  2.2063
  324DG      C1 7430   0.520   4.249   0.749  0.8174  0.2062 -0.1206
  324DG      C2 7431   0.571   4.061  -0.108 -0.0039 -0.1547 -0.3287
  324DG      H3 7432   0.514   4.358   0.759 -1.0839  0.2213 -1.0718
  324DG      H4 7433   0.538   4.209   0.849  2.0553  0.6923 -0.1209
  324DG      H5 7434   0.423   4.203   0.729  2.3796 -3.4580 -0.1085
  324DG      H6 7435   0.675   4.076  -0.137 -0.1378  0.6479 -0.4016
  324DG      H7 7436   0.524   3.984  -0.169  1.4913 -0.3675 -1.2809
  324DG      H8 7437   0.523   4.157  -0.124 -1.3828 -0.3692  2.0151
  324DG      O9 7438   0.615   4.195   0.658 -0.2277 -0.1269  0.0617
  324DG     O10 7439   0.578   4.033   0.025  0.0440  0.1798  0.6625
  324DG     C11 7440   0.595   4.233   0.520  0.5664  0.5284  0.2817
  324DG     C12 7441   0.458   4.003   0.088  0.1223 -0.5047  0.4705
  324DG     H13 7442   0.683   4.277   0.474 -0.2531  2.7224  0.6877
  324DG     H14 7443   0.525   4.316   0.518 -1.4586 -1.0731  1.0425
  324DG     H15 7444   0.399   3.920   0.050 -2.1556  0.3421  1.9606
  324DG     H16 7445   0.405   4.097   0.072 -1.1227 -1.2911 -0.1262
  324DG     C17 7446   0.548   4.102   0.439 -0.4562  0.0350  0.2855
  324DG     C18 7447   0.472   3.991   0.241  0.0066 -0.2488  0.8499
  324DG     O19 7448   0.533   4.107   0.295 -0.0874  0.5372  0.1715
  324DG     H20 7449   0.450   4.072   0.477  0.2383 -1.7569  0.7694
  324DG     H21 7450   0.611   4.018   0.470 -0.8676  0.4108  2.3149
  324DG     H22 7451   0.379   3.976   0.297 -0.1024 -1.2964  0.4026
  324DG     H23 7452   0.531   3.905   0.273 -0.7789 -0.1282  2.7945
  325DG      C1 7453   3.245   3.887   2.040 -0.1978  0.4233 -0.1276
  325DG      C2 7454   3.770   4.189   1.773 -0.1944 -0.1863 -0.3720
  325DG      H3 7455   3.267   3.975   2.101 -0.3462 -0.9509  2.0324
  325DG      H4 7456   3.210   3.808   2.107  0.8463  1.3205  1.5557
  325DG      H5 7457   3.164   3.909   1.971 -0.7241 -1.0326 -0.0149
  325DG      H6 7458   3.820   4.238   1.857  1.8207 -0.3581 -1.3950
  325DG      H7 7459   3.836   4.195   1.686  0.0788 -0.4910 -0.1916
  325DG      H8 7460   3.683   4.253   1.762  0.1591  0.1816 -1.0733
  325DG      O9 7461   3.356   3.839   1.960  0.1664 -0.0842  0.5360
  325DG     O10 7462   3.731   4.058   1.794 -0.0074 -0.1304 -0.1827
  325DG     C11 7463   3.456   3.765   2.024  0.5485  0.2313 -0.3824
  325DG     C12 7464   3.835   3.987   1.865  0.0544 -0.8840 -0.2682
  325DG     H13 7465   3.411   3.672   2.059  0.2342  0.3583 -0.4422
  325DG     H14 7466   3.487   3.809   2.118 -2.4549  1.7834 -0.0074
  325DG     H15 7467   3.849   4.035   1.962 -0.8662 -0.9731 -0.0907
  325DG     H16 7468   3.932   3.992   1.814  1.0394  0.1874  1.5806
  325DG     C17 7469   3.570   3.739   1.937 -0.9859 -0.5124 -0.0263
  325DG     C18 7470   3.780   3.848   1.880  1.2104 -0.2384 -0.2551
  325DG     O19 7471   3.651   3.863   1.943 -0.6045  0.2955 -0.1515
  325DG     H20 7472   3.542   3.722   1.833  1.6391 -1.0031 -0.7500
  325DG     H21 7473   3.625   3.652   1.973 -0.4590 -0.8053 -1.4545
  325DG     H22 7474   3.769   3.802   1.782  1.2561 -1.6847  0.3888
  325DG     H23 7475   3.849   3.784   1.935  0.9832 -0.8627 -0.6952
  326DG      C1 7476   2.747   3.636   4.720 -0.1152 -0.0364 -0.1782
  326DG      C2 7477   3.009   4.241   4.803 -0.0629  0.6463 -0.3242
  326DG      H3 7478   2.666   3.657   4.650 -0.8569  0.8863  0.9077
  326DG      H4 7479   2.740   3.536   4.763 -0.8436  0.4987  1.0033
  326DG      H5 7480   2.841   3.630   4.664 -0.4619  0.3478 -0.8183
  326DG      H6 7481   2.935   4.264   4.727 -0.5481 -0.0341 -0.0769
  326DG      H7 7482   3.051   4.330   4.849  0.1949 -1.0222  2.9497
  326DG      H8 7483   3.085   4.184   4.750 -0.3516 -0.9671  0.8999
  326DG      O9 7484   2.754   3.740   4.812  0.8024  0.3044 -0.2122
  326DG     O10 7485   2.954   4.140   4.899 -0.1145  0.3579 -0.5822
  326DG     C11 7486   2.633   3.775   4.880 -0.1940  0.3306  0.4242
  326DG     C12 7487   2.837   4.186   4.967  0.1308  0.7763  0.2970
  326DG     H13 7488   2.577   3.687   4.912 -1.7041  1.3058  0.5962
  326DG     H14 7489   2.572   3.820   4.801 -0.1383 -3.1394 -1.8255
  326DG     H15 7490   2.770   4.237   4.898 -0.7532 -0.0810  0.4914
  326DG     H16 7491   2.855   4.263   5.042  1.5516  2.8158 -2.0011
  326DG     C17 7492   2.661   3.874   4.992 -0.0579 -0.6563  0.3634
  326DG     C18 7493   2.777   4.070   5.037  0.3685  0.7728 -0.4576
  326DG     O19 7494   2.724   3.988   4.932  0.0641 -0.0716 -0.2203
  326DG     H20 7495   2.709   3.843   5.085 -0.8893 -0.7953  0.7606
  326DG     H21 7496   2.566   3.899   5.039  0.5714 -0.9102  1.8134
  326DG     H22 7497   2.850   4.027   5.106  0.0473  1.4846  0.3431
  326DG     H23 7498   2.695   4.109   5.097 -0.5942 -1.2299 -0.3855
  327DG      C1 7499   4.118   1.309   1.685 -0.3026 -0.0305  0.0272
  327DG      C2 7500   4.045   1.090   1.178  0.0966  0.0326 -0.3583
  327DG      H3 7501   4.076   1.404   1.718 -1.0508 -1.7703  4.7408
  327DG      H4 7502   4.216   1.316   1.637  0.1662  0.5865  1.0437
  327DG      H5 7503   4.126   1.254   1.778  0.3325  1.3519  0.8158
  327DG      H6 7504   4.010   1.162   1.104 -0.9123  0.7473  0.7866
  327DG      H7 7505   4.149   1.108   1.207  0.3412 -2.2586  0.3917
  327DG      H8 7506   4.040   0.987   1.144  0.4527 -0.5516  1.2608
  327DG      O9 7507   4.021   1.261   1.592 -0.5672 -0.1746  0.2159
  327DG     O10 7508   3.959   1.091   1.292 -1.1197 -0.2419  0.2019
  327DG     C11 7509   3.893   1.247   1.646  0.6698  0.3989 -0.9661
  327DG     C12 7510   3.821   1.089   1.249 -1.0739 -0.2485  0.2609
  327DG     H13 7511   3.854   1.338   1.692  2.6538  0.6032  0.4594
  327DG     H14 7512   3.884   1.176   1.728 -0.6290  1.1373 -0.4370
  327DG     H15 7513   3.813   1.011   1.173 -1.1252 -1.5635  1.5946
  327DG     H16 7514   3.796   1.190   1.215  0.0897  0.3358  1.0596
  327DG     C17 7515   3.797   1.222   1.534  0.5170 -0.5512  0.0729
  327DG     C18 7516   3.742   1.039   1.370 -0.0517  0.2938  0.1781
  327DG     O19 7517   3.803   1.084   1.494  0.1923  0.5499  0.4726
  327DG     H20 7518   3.803   1.295   1.454  0.6007  0.7747  1.2521
  327DG     H21 7519   3.702   1.252   1.579  2.0526  2.3369  1.6296
  327DG     H22 7520   3.637   1.069   1.371 -0.1202  0.0570  0.3319
  327DG     H23 7521   3.745   0.930   1.377  2.4059  0.2570 -0.4625
  328DG      C1 7522   1.208   4.702   0.086 -1.1021 -0.8705  0.0697
  328DG      C2 7523   0.586   4.514  -0.129 -0.2972 -0.1374  0.5821
  328DG      H3 7524   1.244   4.752  -0.004 -1.1272  0.2719  0.6699
  328DG      H4 7525   1.298   4.684   0.144 -1.4386 -3.2095 -0.0271
  328DG      H5 7526   1.147   4.784   0.126 -1.4450 -0.5698 -1.0286
  328DG      H6 7527   0.518   4.435  -0.165  0.7125 -1.1524  0.8561
  328DG      H7 7528   0.532   4.580  -0.061  1.2230  2.3756 -0.5101
  328DG      H8 7529   0.625   4.571  -0.213  0.8159 -0.8915  0.5684
  328DG      O9 7530   1.126   4.588   0.076  0.1549 -0.3057  0.1551
  328DG     O10 7531   0.693   4.459  -0.055  0.2980 -0.1175 -0.0130
  328DG     C11 7532   1.086   4.555   0.214 -0.2039 -0.2841 -0.1847
  328DG     C12 7533   0.653   4.406   0.068 -0.1905  0.1730 -0.1220
  328DG     H13 7534   1.037   4.639   0.262 -1.5566  0.6810 -3.0021
  328DG     H14 7535   1.170   4.545   0.283 -0.6035 -1.5445  0.1475
  328DG     H15 7536   0.581   4.325   0.060  2.5700 -2.5436  0.6515
  328DG     H16 7537   0.606   4.485   0.127  2.2115 -0.5134  3.0208
  328DG     C17 7538   0.996   4.435   0.222  0.5958  0.2829  0.1380
  328DG     C18 7539   0.778   4.365   0.153  0.5563 -0.0917  0.2574
  328DG     O19 7540   0.870   4.473   0.152 -1.0137 -0.3155 -0.1745
  328DG     H20 7541   0.981   4.429   0.329  0.0929  2.5383  0.2507
  328DG     H21 7542   1.040   4.341   0.189  0.6497 -0.3602  1.9768
  328DG     H22 7543   0.738   4.345   0.253 -1.3504 -0.8518 -0.5882
  328DG     H23 7544   0.819   4.277   0.104 -0.3567  0.3400 -1.3756
  329DG      C1 7545   5.101   4.589   1.748  0.2147 -0.1778  0.0322
  329DG      C2 7546   5.097   5.002   2.552  0.3304  0.0430 -0.2065
  329DG      H3 7547   5.024   4.662   1.723  0.1077 -0.8495 -1.7543
  329DG      H4 7548   5.058   4.489   1.756  0.4918 -0.3837 -0.8873
  329DG      H5 7549   5.162   4.574   1.659  0.9964 -1.2498  0.7370
  329DG      H6 7550   5.108   5.110   2.555  2.0927 -0.1151  0.1948
  329DG      H7 7551   4.991   4.977   2.550  0.1230  0.8349  0.3763
  329DG      H8 7552   5.158   4.960   2.633  1.9995  2.3192 -0.1672
  329DG      O9 7553   5.190   4.620   1.856 -0.2058  0.1693  0.1525
  329DG     O10 7554   5.149   4.980   2.422  0.1321  0.5194  0.0703
  329DG     C11 7555   5.134   4.635   1.984  0.4883 -0.0762  0.0372
  329DG     C12 7556   5.166   4.845   2.390  0.1262 -0.0442 -0.3611
  329DG     H13 7557   5.092   4.543   2.026 -0.8320  0.2950 -0.4140
  329DG     H14 7558   5.062   4.716   1.981  1.7624  1.1097  0.5283
  329DG     H15 7559   5.086   4.781   2.427  0.0727  0.8157  1.0883
  329DG     H16 7560   5.264   4.807   2.419  0.2434 -0.7117 -1.5499
  329DG     C17 7561   5.250   4.684   2.076 -0.3070  0.1862  1.2841
  329DG     C18 7562   5.162   4.829   2.229 -0.0350 -0.6107 -0.6403
  329DG     O19 7563   5.215   4.703   2.209  0.1005  0.7524  0.4033
  329DG     H20 7564   5.285   4.776   2.030 -0.4372  0.5359  1.8723
  329DG     H21 7565   5.330   4.610   2.072 -1.1596 -0.6915 -0.3483
  329DG     H22 7566   5.055   4.837   2.208  0.2978  0.2238 -2.1236
  329DG     H23 7567   5.216   4.910   2.180  0.3055 -0.7564 -0.5083
  330DG      C1 7568   1.767   3.623   0.195  0.2015  0.3414 -0.2036
  330DG      C2 7569   1.658   4.045  -0.280  0.0034  0.3090 -0.3412
  330DG      H3 7570   1.814   3.623   0.294 -0.3309  0.4023  0.0566
  330DG      H4 7571   1.777   3.523   0.154 -3.0737  0.4571 -1.6000
  330DG      H5 7572   1.661   3.636   0.217  0.3986  0.2521  0.8807
  330DG      H6 7573   1.634   4.069  -0.176  0.7197  0.0607 -0.1120
  330DG      H7 7574   1.578   4.095  -0.335 -0.5593 -0.0832  0.1051
  330DG      H8 7575   1.649   3.937  -0.293 -0.6296  0.0973  1.5198
  330DG      O9 7576   1.823   3.731   0.127  0.1047  0.0229  0.7178
  330DG     O10 7577   1.775   4.100  -0.318  0.0173  0.0233  0.0048
  330DG     C11 7578   1.759   3.854   0.146  0.0651 -0.2824  0.1587
  330DG     C12 7579   1.883   4.017  -0.285 -0.3623 -0.9282  0.6501
  330DG     H13 7580   1.736   3.884   0.249  1.4949  2.8718 -0.3426
  330DG     H14 7581   1.662   3.852   0.096 -0.9013  1.6354  1.7855
  330DG     H15 7582   1.968   4.040  -0.348  0.3737 -0.8876  1.6242
  330DG     H16 7583   1.861   3.913  -0.310  0.1379 -0.8819  0.0173
  330DG     C17 7584   1.825   3.977   0.074 -0.5305  0.1672 -0.1304
  330DG     C18 7585   1.926   4.019  -0.137  0.2749 -1.0049  0.0916
  330DG     O19 7586   1.834   3.942  -0.061  0.0079  0.0022  0.4452
  330DG     H20 7587   1.929   3.971   0.107 -0.6632  0.3054  0.3201
  330DG     H21 7588   1.778   4.075   0.087 -2.3711 -0.7428  0.4631
  330DG     H22 7589   2.028   3.985  -0.118  1.2057 -0.0670 -2.6957
  330DG     H23 7590   1.921   4.119  -0.094  0.6078 -0.8969 -0.1162
  331DG      C1 7591   1.306   5.434   2.372  0.5851  0.1930  0.7226
  331DG      C2 7592   0.831   5.066   2.619 -0.5781 -0.2374  0.0053
  331DG      H3 7593   1.342   5.411   2.272  0.7057  2.4470  0.2034
  331DG      H4 7594   1.354   5.387   2.458  2.7625  1.0416  0.0324
  331DG      H5 7595   1.300   5.541   2.390 -3.0748  0.5317 -1.4326
  331DG      H6 7596   0.912   5.013   2.669 -0.0919  1.3782  0.9956
  331DG      H7 7597   0.804   5.144   2.689  1.9699  0.7267 -0.0083
  331DG      H8 7598   0.745   4.998   2.617 -0.0105 -1.0305  1.4648
  331DG      O9 7599   1.169   5.388   2.362  0.1645 -0.0139 -0.1015
  331DG     O10 7600   0.863   5.103   2.483  0.3863  0.6073 -0.3230
  331DG     C11 7601   1.104   5.444   2.253 -0.4099 -0.2325  0.6188
  331DG     C12 7602   0.753   5.154   2.411  0.1684  0.6131 -0.2977
  331DG     H13 7603   1.165   5.459   2.164 -0.9984  1.3657  0.4603
  331DG     H14 7604   1.074   5.546   2.276  0.0462 -0.5573  2.9597
  331DG     H15 7605   0.690   5.223   2.467 -2.2282 -0.7321 -1.1465
  331DG     H16 7606   0.683   5.071   2.395  1.8436 -1.5050  2.5201
  331DG     C17 7607   0.985   5.353   2.211 -0.4242 -0.9827  1.5382
  331DG     C18 7608   0.810   5.216   2.284  0.3261  0.1807 -0.5079
  331DG     O19 7609   0.911   5.309   2.323  0.2053  0.1076 -0.0160
  331DG     H20 7610   1.031   5.271   2.156  1.4019  0.2527  1.1517
  331DG     H21 7611   0.915   5.408   2.148  0.3764 -0.6531  0.9226
  331DG     H22 7612   0.842   5.151   2.202 -3.3603  0.4491 -2.3962
  331DG     H23 7613   0.727   5.269   2.238  0.6594  1.1417 -0.0235
  332DG      C1 7614   2.419   0.801   3.466 -0.2830  0.4494  0.5487
  332DG      C2 7615   2.188   0.598   3.847 -0.0472 -0.5151 -1.0253
  332DG      H3 7616   2.429   0.738   3.377  1.6364  0.6908  0.5373
  332DG      H4 7617   2.395   0.733   3.547 -0.8850  0.5492  0.4580
  332DG      H5 7618   2.519   0.839   3.489 -0.1494  0.4275  0.0357
  332DG      H6 7619   2.148   0.499   3.824 -2.5302  0.0058  0.6761
  332DG      H7 7620   2.295   0.600   3.825 -0.2177 -0.4686 -1.8668
  332DG      H8 7621   2.180   0.624   3.953  1.9284 -0.5740 -0.8170
  332DG      O9 7622   2.345   0.917   3.459  0.3529 -0.1300  0.4166
  332DG     O10 7623   2.110   0.689   3.779  0.0607 -0.2463 -0.3300
  332DG     C11 7624   2.221   0.899   3.399  0.5072 -0.7956  0.0884
  332DG     C12 7625   2.084   0.816   3.836  0.6259 -0.4727  0.1529
  332DG     H13 7626   2.224   0.838   3.308  3.0729 -0.0902 -0.3766
  332DG     H14 7627   2.185   0.996   3.366  1.4947 -0.2273  0.6399
  332DG     H15 7628   2.171   0.856   3.888  1.5644 -0.2004 -1.5647
  332DG     H16 7629   2.020   0.797   3.922  1.8617 -0.0701  1.1994
  332DG     C17 7630   2.129   0.837   3.510  0.2999 -0.1414  0.4447
  332DG     C18 7631   2.029   0.913   3.724  0.2984  0.6575  0.0969
  332DG     O19 7632   2.126   0.934   3.617  0.2533 -0.3226 -0.3304
  332DG     H20 7633   2.162   0.742   3.552 -0.5968 -1.5124 -1.8098
  332DG     H21 7634   2.027   0.817   3.476  0.1646 -0.6292  1.1139
  332DG     H22 7635   1.938   0.869   3.685  0.4690 -0.0581  0.4872
  332DG     H23 7636   2.016   1.011   3.769  2.2649  1.1147 -0.2192
  333DG      C1 7637   5.063   0.839   2.427 -0.1363  0.0795  0.2275
  333DG      C2 7638   5.252   0.731   3.233  0.1924  0.1263 -0.4993
  333DG      H3 7639   5.046   0.873   2.325  2.4461 -1.5166 -0.8510
  333DG      H4 7640   4.986   0.886   2.488  0.1106  1.7126 -0.6518
  333DG      H5 7641   5.053   0.731   2.435  1.4979  0.0253  2.4901
  333DG      H6 7642   5.244   0.624   3.251 -0.5834  0.5965  2.7378
  333DG      H7 7643   5.302   0.775   3.319 -1.8343  0.3354  0.6341
  333DG      H8 7644   5.147   0.758   3.246  0.0590 -0.4177 -0.4456
  333DG      O9 7645   5.185   0.893   2.486 -0.2890  0.0027 -0.3237
  333DG     O10 7646   5.285   0.767   3.100 -0.3614  0.8028 -0.1847
  333DG     C11 7647   5.192   0.855   2.627  0.1906  0.2930  0.0097
  333DG     C12 7648   5.314   0.907   3.076 -0.4043 -0.1387  0.6175
  333DG     H13 7649   5.201   0.748   2.646 -1.4517  0.0053 -0.7016
  333DG     H14 7650   5.105   0.880   2.688 -0.6542 -1.9923 -0.1727
  333DG     H15 7651   5.385   0.929   3.156  0.0438  3.1385 -0.5416
  333DG     H16 7652   5.226   0.966   3.104 -0.1902 -0.0113  1.0442
  333DG     C17 7653   5.303   0.925   2.704 -0.4665 -0.1575  0.4082
  333DG     C18 7654   5.361   0.954   2.938 -0.1811 -0.1162  0.0184
  333DG     O19 7655   5.266   0.928   2.837  0.2201  0.2650  0.1071
  333DG     H20 7656   5.312   1.028   2.672  0.8657 -0.0452  1.0957
  333DG     H21 7657   5.402   0.882   2.687  0.0399  1.2212 -0.2391
  333DG     H22 7658   5.395   1.057   2.932 -0.8732  0.2204  1.4299
  333DG     H23 7659   5.448   0.898   2.902 -0.9972  0.4384 -3.1307
  334DG      C1 7660   4.811   2.745   1.077 -0.1936  0.1182  0.7179
  334DG      C2 7661   4.578   2.106   0.746 -0.3459  0.6050  0.7231
  334DG      H3 7662   4.778   2.770   1.178  0.4308 -0.1321  0.9918
  334DG      H4 7663   4.730   2.768   1.008  0.9986  0.8347 -0.4903
  334DG      H5 7664   4.899   2.805   1.052  0.7819 -0.6233  2.1971
  334DG      H6 7665   4.589   2.195   0.685 -0.6679 -0.3719 -0.8042
  334DG      H7 7666   4.591   2.019   0.681  0.1419 -0.1314  1.7706
  334DG      H8 7667   4.473   2.096   0.774 -0.0821 -2.8901  0.9111
  334DG      O9 7668   4.842   2.609   1.066  0.2480  1.1614 -0.1252
  334DG     O10 7669   4.675   2.113   0.854  0.1858  0.4044 -0.0189
  334DG     C11 7670   4.892   2.575   0.939  0.6887  0.9221  0.0555
  334DG     C12 7671   4.801   2.155   0.806  0.5543 -0.5771 -0.3927
  334DG     H13 7672   4.971   2.648   0.918  0.5643  1.9379  2.7842
  334DG     H14 7673   4.823   2.584   0.855  0.3819 -2.6351 -0.2317
  334DG     H15 7674   4.793   2.228   0.726 -2.0473 -1.0728 -0.7033
  334DG     H16 7675   4.841   2.073   0.747 -2.3616 -1.2209 -1.6912
  334DG     C17 7676   4.951   2.436   0.939  0.9051 -0.7409  0.0329
  334DG     C18 7677   4.892   2.197   0.916  0.0369  0.0426  0.2575
  334DG     O19 7678   4.855   2.325   0.961  0.1294 -0.2304 -0.6245
  334DG     H20 7679   5.036   2.426   1.007  3.0581  0.4430 -2.2764
  334DG     H21 7680   4.993   2.428   0.838 -2.9791 -1.1294 -1.7218
  334DG     H22 7681   4.898   2.138   1.007 -0.4794 -0.6075 -0.1217
  334DG     H23 7682   4.994   2.201   0.878 -0.6599 -0.5897 -1.7875
  335DG      C1 7683   5.163   4.531   0.463  0.2101 -0.4279  0.8127
  335DG      C2 7684   4.989   4.909  -0.082  0.1090 -0.4571 -0.4010
  335DG      H3 7685   5.119   4.432   0.469  2.3488 -1.3936  1.3986
  335DG      H4 7686   5.211   4.556   0.557 -0.9948  2.6739  0.7262
  335DG      H5 7687   5.238   4.513   0.386 -1.4520 -0.3117 -0.9231
  335DG      H6 7688   5.094   4.923  -0.106  0.0402 -1.1686 -1.1520
  335DG      H7 7689   4.949   4.828  -0.141  0.3873 -0.4445 -0.6079
  335DG      H8 7690   4.939   4.998  -0.121  0.6769  0.3168  0.5787
  335DG      O9 7691   5.079   4.636   0.424  0.8864  0.8171  0.6252
  335DG     O10 7692   4.971   4.891   0.055 -0.2396 -0.0827 -0.0988
  335DG     C11 7693   5.067   4.741   0.513 -0.9021 -0.4248  0.5432
  335DG     C12 7694   4.949   5.017   0.126 -0.3419 -0.6671 -0.3695
  335DG     H13 7695   5.165   4.789   0.524 -0.0856 -1.0687 -2.8119
  335DG     H14 7696   5.036   4.694   0.607  1.7584 -0.6108  1.4397
  335DG     H15 7697   4.877   5.080   0.074  0.4172  0.5571  0.0226
  335DG     H16 7698   5.039   5.078   0.134 -0.9550  0.1532  0.3746
  335DG     C17 7699   4.974   4.846   0.458  0.0885 -0.1995 -0.3230
  335DG     C18 7700   4.921   4.985   0.271 -0.4790 -0.9455 -0.3785
  335DG     O19 7701   5.009   4.879   0.322  0.8287  0.6571  0.5578
  335DG     H20 7702   4.985   4.932   0.524  0.3135  0.3060 -1.0134
  335DG     H21 7703   4.876   4.797   0.456 -1.3155  2.4274 -1.6704
  335DG     H22 7704   4.931   5.078   0.326  1.8536 -0.4570 -1.4932
  335DG     H23 7705   4.821   4.943   0.277 -0.8012 -0.1378 -0.0210
  336DG      C1 7706   4.775   3.456   4.024  0.3299 -0.1692 -0.5071
  336DG      C2 7707   5.354   3.475   4.511 -0.5330  0.0312  0.0321
  336DG      H3 7708   4.802   3.561   4.027  0.7789 -0.2295 -1.9383
  336DG      H4 7709   4.679   3.444   4.075  0.1126  0.0296 -0.8672
  336DG      H5 7710   4.746   3.418   3.926  1.7117 -2.9592  0.0555
  336DG      H6 7711   5.403   3.530   4.430 -2.0257  0.4696 -0.6121
  336DG      H7 7712   5.305   3.547   4.575  0.1708 -0.9978  1.7996
  336DG      H8 7713   5.425   3.413   4.566 -0.3287 -1.7580 -2.0833
  336DG      O9 7714   4.874   3.374   4.091 -0.7990  0.0372  0.6421
  336DG     O10 7715   5.247   3.398   4.457  0.4434  0.7984  0.0268
  336DG     C11 7716   5.005   3.405   4.049 -0.1335 -0.9245 -0.0685
  336DG     C12 7717   5.293   3.295   4.372 -0.1432 -0.4112  0.6261
  336DG     H13 7718   5.017   3.501   4.099 -2.6891 -0.7598  0.3387
  336DG     H14 7719   5.014   3.435   3.944 -0.0280 -0.4804  0.0631
  336DG     H15 7720   5.367   3.224   4.412  0.6048  0.4973  0.9009
  336DG     H16 7721   5.341   3.338   4.284 -2.6467  2.1930  0.3925
  336DG     C17 7722   5.099   3.309   4.116  0.1357 -1.0969  0.7476
  336DG     C18 7723   5.165   3.218   4.324 -0.1055  0.6453 -0.3119
  336DG     O19 7724   5.067   3.295   4.255  0.3071 -0.2663 -0.0572
  336DG     H20 7725   5.200   3.345   4.094 -1.0904  0.7286 -2.4839
  336DG     H21 7726   5.081   3.219   4.057  0.8642 -0.5092 -0.3997
  336DG     H22 7727   5.206   3.143   4.257  0.3990 -1.9610  2.7184
  336DG     H23 7728   5.112   3.165   4.404 -0.1272  0.4516 -0.4548
  337DG      C1 7729   4.246   4.559   4.516 -0.2577 -0.4606 -0.0377
  337DG      C2 7730   4.801   5.030   4.647  1.1720 -0.4666  0.9197
  337DG      H3 7731   4.270   4.561   4.410  0.2156  0.3443  0.0763
  337DG      H4 7732   4.139   4.543   4.525 -0.7620  1.8654 -1.1170
  337DG      H5 7733   4.285   4.465   4.556 -0.0951 -0.5340 -0.3609
  337DG      H6 7734   4.809   5.138   4.631  1.3437 -0.4313  1.2359
  337DG      H7 7735   4.897   4.985   4.624  0.3955 -1.8492  0.2725
  337DG      H8 7736   4.724   5.005   4.574 -0.9576  2.6902  1.8544
  337DG      O9 7737   4.304   4.668   4.578 -0.1197 -0.4092  0.5929
  337DG     O10 7738   4.764   5.000   4.780  0.6049 -0.4219 -0.6202
  337DG     C11 7739   4.306   4.791   4.511 -0.0374 -0.3460  0.4114
  337DG     C12 7740   4.680   4.885   4.797 -0.3256  0.1003  0.8757
  337DG     H13 7741   4.214   4.817   4.459  0.3873  0.4558  0.0469
  337DG     H14 7742   4.380   4.790   4.431 -0.3919 -0.9568  0.0835
  337DG     H15 7743   4.676   4.854   4.902  0.8558  1.2942  1.3067
  337DG     H16 7744   4.705   4.799   4.736 -0.3113  1.1938 -0.7072
  337DG     C17 7745   4.354   4.899   4.610  0.1836  0.0357  0.7486
  337DG     C18 7746   4.532   4.922   4.774  0.0251  0.0224  0.2150
  337DG     O19 7747   4.487   4.870   4.651 -0.3325 -0.0537  0.4688
  337DG     H20 7748   4.291   4.916   4.697  0.6832  1.5576  0.8475
  337DG     H21 7749   4.360   4.992   4.553  0.3943 -0.8301 -0.6812
  337DG     H22 7750   4.471   4.866   4.844 -0.2721  1.3217  1.0438
  337DG     H23 7751   4.521   5.030   4.790  1.2873  0.0342  1.1077
  338DG      C1 7752   4.448   3.081   3.910 -0.3780 -0.4517 -0.0242
  338DG      C2 7753   4.421   3.158   3.164 -0.1892 -0.0567 -0.4543
  338DG      H3 7754   4.528   3.014   3.940 -2.2144 -2.0201  1.6613
  338DG      H4 7755   4.383   3.076   3.998 -0.5693  0.0491 -0.1342
  338DG      H5 7756   4.482   3.185   3.904  0.9199 -0.8866 -0.5242
  338DG      H6 7757   4.477   3.252   3.158  0.6615 -0.4362  1.0539
  338DG      H7 7758   4.489   3.075   3.183 -0.9104 -0.7794 -0.9730
  338DG      H8 7759   4.362   3.143   3.074 -1.6177  1.6180  0.1534
  338DG      O9 7760   4.371   3.037   3.802 -0.2276 -0.2620 -0.4521
  338DG     O10 7761   4.337   3.161   3.279 -0.0639  0.2931 -0.1143
  338DG     C11 7762   4.439   2.971   3.700 -0.3295  0.3766  0.4374
  338DG     C12 7763   4.256   3.047   3.298  0.6051  0.6117  0.1286
  338DG     H13 7764   4.482   2.878   3.738  1.2949  1.3511  1.0687
  338DG     H14 7765   4.518   3.043   3.679  0.3808 -0.6778 -0.7011
  338DG     H15 7766   4.317   2.957   3.296 -0.0303  0.1510  0.7680
  338DG     H16 7767   4.177   3.042   3.222 -0.6476  1.7030  1.3068
  338DG     C17 7768   4.346   2.946   3.569  0.2330  0.4485 -0.0213
  338DG     C18 7769   4.185   3.054   3.437  0.2895 -0.6552 -0.5815
  338DG     O19 7770   4.280   3.070   3.544 -0.6531  0.4075  0.1216
  338DG     H20 7771   4.270   2.874   3.600 -0.3881  0.4386 -1.4740
  338DG     H21 7772   4.399   2.902   3.484 -0.1319  2.7260 -1.5347
  338DG     H22 7773   4.115   3.138   3.443 -1.7120 -2.2833 -0.3001
  338DG     H23 7774   4.118   2.969   3.443 -0.8062  0.1853 -0.4457
  339DG      C1 7775   0.106   4.845   2.161  0.3935  0.3038  0.1706
  339DG      C2 7776   0.490   4.592   2.614  0.3731 -0.0661  0.8017
  339DG      H3 7777   0.042   4.758   2.178 -2.3474  2.4199  1.3988
  339DG      H4 7778   0.059   4.891   2.074 -0.4142 -2.6774 -1.0908
  339DG      H5 7779   0.086   4.901   2.252  0.3528 -1.0840  1.0405
  339DG      H6 7780   0.477   4.483   2.620  0.7688 -0.0659  2.0326
  339DG      H7 7781   0.553   4.625   2.697 -1.5942  1.5760  1.7277
  339DG      H8 7782   0.400   4.646   2.643  1.0635  1.7184 -0.2492
  339DG      O9 7783   0.242   4.817   2.159  0.3221  0.3158 -0.8578
  339DG     O10 7784   0.533   4.625   2.484 -0.2254 -0.0099  0.1037
  339DG     C11 7785   0.340   4.919   2.144  0.2300 -0.1807 -0.0018
  339DG     C12 7786   0.609   4.741   2.473  0.4116 -0.1644 -0.0718
  339DG     H13 7787   0.314   4.993   2.220 -1.1599  0.5402 -1.1244
  339DG     H14 7788   0.319   4.966   2.048  0.0118  1.4504  0.7980
  339DG     H15 7789   0.705   4.741   2.524  0.2425  2.5213  0.4159
  339DG     H16 7790   0.552   4.822   2.520 -0.6907 -1.2173  0.4590
  339DG     C17 7791   0.485   4.873   2.167  0.7842 -0.9977  0.7374
  339DG     C18 7792   0.623   4.788   2.332 -0.4015  0.7287 -0.2863
  339DG     O19 7793   0.493   4.822   2.295 -0.1373 -0.2542 -0.3392
  339DG     H20 7794   0.540   4.967   2.168 -0.7498 -0.0539  0.6166
  339DG     H21 7795   0.526   4.811   2.088 -0.0955  0.4516 -0.9137
  339DG     H22 7796   0.693   4.869   2.316  0.6829 -0.3375 -1.1016
  339DG     H23 7797   0.666   4.703   2.280 -3.6689 -1.1032 -0.2700
  340DG      C1 7798   4.123   4.642   0.995 -0.0848  0.4493 -0.4074
  340DG      C2 7799   3.416   4.335   0.933  0.1657 -0.6208 -0.2400
  340DG      H3 7800   4.144   4.739   0.950 -0.9205  1.6971  1.7218
  340DG      H4 7801   4.190   4.565   0.959  0.0956 -0.9420  2.5571
  340DG      H5 7802   4.155   4.653   1.099 -1.6159  1.9224 -0.0381
  340DG      H6 7803   3.376   4.289   1.023  1.2869 -0.8005  0.1854
  340DG      H7 7804   3.410   4.444   0.938  0.0877 -0.5864 -0.9611
  340DG      H8 7805   3.348   4.320   0.849  0.5374  0.8159 -0.8315
  340DG      O9 7806   3.986   4.606   0.995 -0.6873 -0.3748  0.4682
  340DG     O10 7807   3.548   4.287   0.908  0.1937  0.0133 -0.7931
  340DG     C11 7808   3.931   4.597   0.859 -0.3893 -0.3285 -0.0555
  340DG     C12 7809   3.632   4.293   1.019 -0.2403 -0.6488 -0.2026
  340DG     H13 7810   3.987   4.520   0.804 -0.0865 -0.5911  0.6154
  340DG     H14 7811   3.955   4.686   0.800  1.4816 -0.0532  1.0394
  340DG     H15 7812   3.701   4.209   1.014  0.2158 -0.2430 -0.9080
  340DG     H16 7813   3.574   4.301   1.111 -0.6485  3.4853 -0.6372
  340DG     C17 7814   3.776   4.570   0.841 -0.2129  0.9425  0.0708
  340DG     C18 7815   3.708   4.424   1.016 -0.7626  0.0932 -0.5850
  340DG     O19 7816   3.740   4.442   0.880  0.1287 -0.4275  0.1978
  340DG     H20 7817   3.746   4.578   0.737 -2.9154 -0.6258  0.6332
  340DG     H21 7818   3.712   4.641   0.893 -1.4658  0.6365 -1.0158
  340DG     H22 7819   3.647   4.507   1.051 -0.9460 -0.3595  0.1907
  340DG     H23 7820   3.806   4.425   1.065 -0.2222 -2.4934 -1.4370
  341DG      C1 7821   2.183   0.037   0.391 -0.1033 -0.3443 -0.6956
  341DG      C2 7822   2.547  -0.089   0.927 -0.4600 -0.1830  0.4838
  341DG      H3 7823   2.190   0.145   0.378  0.3381 -0.3672 -0.6602
  341DG      H4 7824   2.101   0.016   0.460  0.6509 -1.5911 -0.1486
  341DG      H5 7825   2.162  -0.009   0.295 -2.2293  4.2708 -2.7698
  341DG      H6 7826   2.644  -0.077   0.975  0.4771  1.1504 -1.6070
  341DG      H7 7827   2.486  -0.002   0.951 -1.1591 -0.9250  1.4286
  341DG      H8 7828   2.496  -0.175   0.970  0.4567 -1.3019 -0.5837
  341DG      O9 7829   2.308  -0.008   0.433 -0.3047 -0.4852  0.3508
  341DG     O10 7830   2.555  -0.107   0.787 -0.3464 -0.3588  0.1546
  341DG     C11 7831   2.420   0.026   0.340  0.2588  0.2141 -0.7728
  341DG     C12 7832   2.658  -0.038   0.732 -0.9028 -0.6395  0.8604
  341DG     H13 7833   2.441   0.132   0.327  1.7212 -0.0729 -0.9786
  341DG     H14 7834   2.397  -0.008   0.239  0.5109  0.1288 -0.8022
  341DG     H15 7835   2.747  -0.087   0.772 -1.3629 -2.2458  0.0030
  341DG     H16 7836   2.656   0.069   0.749  0.6393 -0.3825 -0.3194
  341DG     C17 7837   2.553  -0.042   0.387 -0.3446  0.0005  0.1785
  341DG     C18 7838   2.674  -0.059   0.577  0.3562 -0.1830 -0.7460
  341DG     O19 7839   2.574   0.015   0.511 -0.1764 -0.6492 -0.1651
  341DG     H20 7840   2.643  -0.011   0.333 -1.3278  2.2022 -0.3250
  341DG     H21 7841   2.530  -0.148   0.383  0.3374 -0.1256 -0.6384
  341DG     H22 7842   2.776  -0.027   0.553 -0.1189  2.1661  0.1084
  341DG     H23 7843   2.669  -0.168   0.572 -0.2096 -0.2968  1.5270
  342DG      C1 7844   0.581   4.642   1.855  0.0692  0.4510 -0.0221
  342DG      C2 7845   0.221   4.118   2.383  0.4001 -0.7305 -0.3786
  342DG      H3 7846   0.525   4.574   1.791  2.0198 -2.0702  0.7852
  342DG      H4 7847   0.677   4.655   1.806 -0.3353  0.4719 -0.8211
  342DG      H5 7848   0.534   4.741   1.853 -1.8252 -0.3875  0.3260
  342DG      H6 7849   0.281   4.031   2.411  0.1168 -1.1443 -1.0419
  342DG      H7 7850   0.192   4.175   2.471  0.0402  0.0857 -1.0131
  342DG      H8 7851   0.131   4.078   2.337 -1.1558  0.8979  1.0893
  342DG      O9 7852   0.581   4.589   1.985 -0.0123 -0.2525 -0.7104
  342DG     O10 7853   0.305   4.197   2.306 -0.1662 -0.8547  0.2799
  342DG     C11 7854   0.638   4.455   1.995  0.5385 -0.6096 -0.3390
  342DG     C12 7855   0.379   4.304   2.370  0.2541 -0.3205  0.4850
  342DG     H13 7856   0.736   4.453   1.947 -0.0619 -1.3191 -1.5959
  342DG     H14 7857   0.572   4.380   1.950  1.3680 -1.3679 -0.3138
  342DG     H15 7858   0.404   4.283   2.474  1.5590 -1.4247 -0.0286
  342DG     H16 7859   0.312   4.389   2.364 -1.1701 -1.5048 -2.6211
  342DG     C17 7860   0.650   4.409   2.134  0.4646 -0.8613  0.0788
  342DG     C18 7861   0.518   4.314   2.302  0.1637  0.3272  0.1259
  342DG     O19 7862   0.514   4.389   2.185  0.4186 -0.4780 -0.0469
  342DG     H20 7863   0.699   4.488   2.190  1.0701 -2.5956  2.1502
  342DG     H21 7864   0.707   4.317   2.142 -0.8131 -1.5815  1.4464
  342DG     H22 7865   0.585   4.368   2.370 -2.1996  3.1976  0.3706
  342DG     H23 7866   0.560   4.214   2.288 -2.8313 -1.2174  1.2284
  343DG      C1 7867   3.802   2.837   5.189  0.5222 -0.5597 -0.3961
  343DG      C2 7868   3.752   2.363   5.824  0.4825 -0.2883  0.2222
  343DG      H3 7869   3.900   2.802   5.158  0.6841 -0.3785 -0.0972
  343DG      H4 7870   3.824   2.930   5.241  0.3318 -0.6263 -0.1938
  343DG      H5 7871   3.744   2.856   5.099 -2.1493  3.0553  1.8206
  343DG      H6 7872   3.740   2.258   5.852  0.3116 -0.7303 -1.3803
  343DG      H7 7873   3.854   2.367   5.786  1.1644 -0.8642  1.8720
  343DG      H8 7874   3.738   2.420   5.916 -0.0992 -0.1810  0.0742
  343DG      O9 7875   3.720   2.743   5.256  0.1726 -0.3052 -0.4073
  343DG     O10 7876   3.659   2.381   5.717  0.3010 -0.3752  0.4356
  343DG     C11 7877   3.590   2.787   5.287  0.0554 -0.6071 -0.3832
  343DG     C12 7878   3.652   2.516   5.660  0.0122 -0.5395 -0.0442
  343DG     H13 7879   3.542   2.802   5.190  0.2576 -0.4577 -0.4631
  343DG     H14 7880   3.582   2.878   5.347  1.3277 -0.0451 -1.0319
  343DG     H15 7881   3.754   2.550   5.640  0.1625 -1.2593 -0.5458
  343DG     H16 7882   3.614   2.592   5.728  1.0445 -0.1230  0.0880
  343DG     C17 7883   3.516   2.667   5.352  0.0268  0.3900 -0.2526
  343DG     C18 7884   3.569   2.518   5.533  0.1968  0.3066  0.4117
  343DG     O19 7885   3.584   2.645   5.479  0.3214 -0.4440  0.2212
  343DG     H20 7886   3.549   2.587   5.285  3.7049  1.8524 -0.4362
  343DG     H21 7887   3.408   2.678   5.360  0.0337  0.4901 -0.3039
  343DG     H22 7888   3.606   2.455   5.453 -2.0574 -1.5766  0.7320
  343DG     H23 7889   3.474   2.466   5.547  0.2352 -0.4377 -1.7333
  344DG      C1 7890   4.359   0.817   4.225  0.5930  0.1559  0.3919
  344DG      C2 7891   3.855   1.244   4.756 -0.1160  0.1806 -1.0197
  344DG      H3 7892   4.306   0.723   4.237  1.5493 -0.3268  0.9507
  344DG      H4 7893   4.440   0.812   4.298 -0.1902  0.5343  1.3092
  344DG      H5 7894   4.411   0.808   4.130 -1.9134 -0.9352 -0.9762
  344DG      H6 7895   3.898   1.282   4.849 -1.5035 -0.5719 -0.0516
  344DG      H7 7896   3.915   1.295   4.680  2.4051 -0.4120  0.4438
  344DG      H8 7897   3.750   1.273   4.757 -0.4692 -1.0418 -1.1975
  344DG      O9 7898   4.249   0.910   4.230  0.1406 -0.4928  0.2966
  344DG     O10 7899   3.855   1.097   4.749  0.3105  0.1740  0.1587
  344DG     C11 7900   4.173   0.890   4.347 -0.1890  0.2510  0.2448
  344DG     C12 7901   3.799   1.046   4.632  0.4210 -0.5116  0.1819
  344DG     H13 7902   4.240   0.881   4.433  1.4457  0.5235 -0.9510
  344DG     H14 7903   4.107   0.803   4.345 -3.4058  2.3550  3.5714
  344DG     H15 7904   3.697   1.084   4.626 -0.0961 -1.8921 -0.1641
  344DG     H16 7905   3.780   0.940   4.652  1.8911 -0.9191 -0.4262
  344DG     C17 7906   4.073   1.006   4.371 -0.5404  0.2030 -0.3863
  344DG     C18 7907   3.885   1.062   4.501 -0.2099  0.1761  0.1874
  344DG     O19 7908   3.996   0.970   4.486 -0.4608  0.0144  0.3049
  344DG     H20 7909   4.013   1.024   4.282 -1.7274  1.5457  0.6383
  344DG     H21 7910   4.114   1.105   4.393 -3.4634  1.4361 -0.0812
  344DG     H22 7911   3.820   1.038   4.418  0.8299  1.4626 -1.0526
  344DG     H23 7912   3.920   1.163   4.481 -0.4290  0.1482 -0.3485
  345DG      C1 7913   0.321   4.646   1.131 -0.6762 -0.6076  0.2693
  345DG      C2 7914   0.090   5.225   1.126  0.6102 -0.2571 -0.2952
  345DG      H3 7915   0.279   4.591   1.047 -0.8186  0.4280 -0.3678
  345DG      H4 7916   0.365   4.575   1.200  1.6711  0.6330  0.1640
  345DG      H5 7917   0.399   4.706   1.083  0.6942 -3.0687 -0.7318
  345DG      H6 7918   0.037   5.318   1.148  0.5513 -0.8467  2.3400
  345DG      H7 7919   0.196   5.249   1.131  0.3607  1.1012 -0.9112
  345DG      H8 7920   0.066   5.196   1.024 -0.1939 -2.5485  0.4820
  345DG      O9 7921   0.216   4.727   1.194 -0.1222 -0.1413  0.5130
  345DG     O10 7922   0.059   5.129   1.220  0.3102 -0.3327 -0.5739
  345DG     C11 7923   0.106   4.648   1.224  0.0268 -0.1138 -0.0937
  345DG     C12 7924  -0.077   5.091   1.232  0.0636  0.5174  0.4966
  345DG     H13 7925   0.126   4.555   1.276  1.8633 -0.0250 -0.5886
  345DG     H14 7926   0.055   4.635   1.128 -0.1146 -0.9839  0.0981
  345DG     H15 7927  -0.127   5.081   1.135 -0.1262  0.2258  0.6221
  345DG     H16 7928  -0.133   5.174   1.274 -2.2509 -0.3753 -0.6280
  345DG     C17 7929   0.013   4.737   1.310 -0.1737 -0.1491 -0.0385
  345DG     C18 7930  -0.083   4.966   1.315  0.2478 -0.1165  0.3318
  345DG     O19 7931  -0.011   4.865   1.247 -0.2669 -0.7802  0.4173
  345DG     H20 7932   0.056   4.748   1.409 -0.7999 -0.7043  0.2989
  345DG     H21 7933  -0.082   4.685   1.318 -0.8911  0.4275 -3.3335
  345DG     H22 7934  -0.034   4.982   1.412  0.9474 -1.3383  0.2083
  345DG     H23 7935  -0.185   4.934   1.334  0.2554 -0.6382 -0.4742
  346DG      C1 7936   3.650   4.990   3.427  0.6540  0.0333 -0.3439
  346DG      C2 7937   3.399   4.386   3.115 -0.1021 -0.0636 -0.4050
  346DG      H3 7938   3.746   4.973   3.380  1.3838  1.3541  0.5983
  346DG      H4 7939   3.671   5.013   3.532 -0.0991  0.4627 -0.2793
  346DG      H5 7940   3.606   5.075   3.374  0.1135 -0.6263 -0.9746
  346DG      H6 7941   3.470   4.423   3.040 -2.0098  0.4391 -2.0461
  346DG      H7 7942   3.420   4.284   3.146 -1.4525  0.0448  0.9864
  346DG      H8 7943   3.301   4.385   3.068 -1.9584  0.3877  3.1387
  346DG      O9 7944   3.564   4.881   3.407 -0.3012 -0.2986 -0.3810
  346DG     O10 7945   3.411   4.469   3.225  0.5235  0.4838 -0.6621
  346DG     C11 7946   3.460   4.863   3.502 -0.2055 -0.3537 -0.1362
  346DG     C12 7947   3.313   4.453   3.332 -0.0510  0.0763  0.0078
  346DG     H13 7948   3.440   4.965   3.536 -1.2855 -0.1016 -1.4197
  346DG     H14 7949   3.497   4.801   3.583 -0.8326 -0.3113  0.1886
  346DG     H15 7950   3.338   4.372   3.400  1.0729  0.7810  0.4615
  346DG     H16 7951   3.226   4.417   3.277  0.1022 -1.8642  0.9534
  346DG     C17 7952   3.338   4.791   3.448 -0.0873 -0.0185  0.0216
  346DG     C18 7953   3.272   4.580   3.392  0.6041 -0.0543 -0.2623
  346DG     O19 7954   3.381   4.661   3.411  0.0228  0.1256  0.2146
  346DG     H20 7955   3.278   4.852   3.380  1.2422  0.8794 -0.3787
  346DG     H21 7956   3.283   4.780   3.542  2.7879  2.2110  2.1575
  346DG     H22 7957   3.200   4.624   3.323 -1.2788 -1.4473  0.7259
  346DG     H23 7958   3.216   4.567   3.485 -0.8741  1.1454 -0.9253
  347DG      C1 7959   2.275   4.004   4.963 -0.4439  0.3632  0.5833
  347DG      C2 7960   2.752   4.242   5.504 -0.8664 -0.0026  0.0702
  347DG      H3 7961   2.208   4.087   4.938 -0.7715 -0.1113 -0.1348
  347DG      H4 7962   2.223   3.917   4.923  0.0773  1.0911 -1.8469
  347DG      H5 7963   2.367   4.013   4.905  0.4391 -2.1038  1.4790
  347DG      H6 7964   2.820   4.230   5.419 -2.0570 -1.2510 -0.7462
  347DG      H7 7965   2.728   4.348   5.496  0.7234  0.5244  1.6060
  347DG      H8 7966   2.797   4.223   5.602 -0.6461  0.1217 -0.0074
  347DG      O9 7967   2.292   3.990   5.104 -0.3851 -0.0853 -0.1188
  347DG     O10 7968   2.638   4.155   5.494 -0.0250 -0.4995  0.1684
  347DG     C11 7969   2.345   4.114   5.153  0.2503 -0.0604 -0.0467
  347DG     C12 7970   2.670   4.023   5.464  0.2332 -0.2800  0.7452
  347DG     H13 7971   2.262   4.184   5.151 -0.4482 -0.8437  0.7800
  347DG     H14 7972   2.420   4.149   5.082 -0.6371 -1.2491 -1.6524
  347DG     H15 7973   2.704   3.961   5.546  1.1547  0.0377  0.6161
  347DG     H16 7974   2.740   4.016   5.381 -0.6178  0.5101 -0.0714
  347DG     C17 7975   2.397   4.095   5.297 -0.0408  0.1094 -0.5122
  347DG     C18 7976   2.538   3.955   5.417  0.0884 -0.1105  0.0239
  347DG     O19 7977   2.500   4.006   5.292 -0.0594  0.1501  0.1739
  347DG     H20 7978   2.322   4.062   5.370  0.1354 -0.5789 -0.6321
  347DG     H21 7979   2.429   4.186   5.347  1.6243 -0.3819 -0.6459
  347DG     H22 7980   2.566   3.851   5.395  1.4976  0.1446  0.4872
  347DG     H23 7981   2.460   3.948   5.492  0.2154 -1.6890  0.0426
  348DG      C1 7982   0.182   0.443   4.441  0.3390 -0.4841  0.1920
  348DG      C2 7983   0.623   0.393   4.997  0.5892 -0.0990 -0.1336
  348DG      H3 7984   0.267   0.382   4.411  1.3541  1.7151 -1.7435
  348DG      H4 7985   0.198   0.547   4.413  0.1115 -0.5951 -0.3732
  348DG      H5 7986   0.094   0.410   4.386 -0.7053  0.2018  1.3957
  348DG      H6 7987   0.636   0.363   5.101  0.2995 -2.7461 -0.8041
  348DG      H7 7988   0.704   0.354   4.935 -1.3566 -1.9722 -1.6827
  348DG      H8 7989   0.631   0.501   5.009  0.4211 -0.1696  0.6483
  348DG      O9 7990   0.161   0.438   4.579  0.1401 -0.8906 -0.0200
  348DG     O10 7991   0.499   0.359   4.941  0.2425  0.1325  0.4324
  348DG     C11 7992   0.117   0.310   4.622 -0.0446  0.1207 -0.1988
  348DG     C12 7993   0.390   0.432   4.996  0.0626  0.3541  0.0975
  348DG     H13 7994   0.195   0.238   4.600  2.7489  2.6913  0.6841
  348DG     H14 7995   0.021   0.271   4.587 -0.5714  0.5371  0.7357
  348DG     H15 7996   0.393   0.532   4.954 -2.7357 -0.3685 -2.1435
  348DG     H16 7997   0.392   0.438   5.105 -0.5492  0.3556  0.1128
  348DG     C17 7998   0.125   0.311   4.777 -0.3916 -0.0950  0.9318
  348DG     C18 7999   0.252   0.388   4.945 -0.6201 -0.5379  0.1818
  348DG     O19 8000   0.258   0.347   4.817 -0.2016  0.0900  0.2857
  348DG     H20 8001   0.096   0.211   4.811 -0.4419 -0.9484 -1.4633
  348DG     H21 8002   0.048   0.377   4.817 -0.4948 -0.5719  1.5510
  348DG     H22 8003   0.216   0.301   4.999  0.1591 -1.5200 -0.8284
  348DG     H23 8004   0.174   0.464   4.958 -1.0147 -0.7080 -1.1023
  349DG      C1 8005   1.722   2.880   2.024 -0.5652  0.9257 -0.5032
  349DG      C2 8006   1.670   3.166   2.558  0.0454 -0.0657  0.5117
  349DG      H3 8007   1.698   2.805   2.100 -0.8944  0.0556 -1.4345
  349DG      H4 8008   1.762   2.833   1.934  0.1629  4.4388 -2.1697
  349DG      H5 8009   1.632   2.931   1.990 -1.1076  0.9654  0.9117
  349DG      H6 8010   1.643   3.085   2.626  0.9877 -1.0687 -0.2703
  349DG      H7 8011   1.704   3.259   2.604 -0.0707  0.0171  0.4294
  349DG      H8 8012   1.577   3.189   2.507  0.5437  2.3675  0.5516
  349DG      O9 8013   1.817   2.967   2.080 -0.0496  0.7773 -0.2250
  349DG     O10 8014   1.763   3.121   2.454 -0.0465  0.0630  0.0664
  349DG     C11 8015   1.944   2.905   2.102  0.1940  0.2214  0.3663
  349DG     C12 8016   1.897   3.112   2.496 -0.0337 -0.1537  0.0437
  349DG     H13 8017   1.993   2.883   2.007  0.4243  1.6757  0.1172
  349DG     H14 8018   1.942   2.812   2.158  1.8216 -0.5627 -0.7992
  349DG     H15 8019   1.906   3.067   2.595 -0.5213  0.4026  0.3490
  349DG     H16 8020   1.932   3.215   2.492  0.1247  0.0200  3.2493
  349DG     C17 8021   2.039   3.002   2.172 -0.0620  0.5724  0.2078
  349DG     C18 8022   1.968   3.021   2.387  1.1619  0.0295 -0.1495
  349DG     O19 8023   1.963   3.077   2.262  0.4440 -0.4232  0.2666
  349DG     H20 8024   2.078   3.077   2.103 -1.3474 -0.4795 -1.7895
  349DG     H21 8025   2.132   2.960   2.209 -0.5111 -2.2033 -1.5236
  349DG     H22 8026   2.068   3.023   2.429  0.8721  0.2890  0.5426
  349DG     H23 8027   1.921   2.922   2.392  0.6580  0.2568 -0.2709
  350DG      C1 8028   2.652   3.133   1.220 -0.0886  0.5961 -0.3443
  350DG      C2 8029   3.198   3.084   1.618 -0.9070 -0.2903  1.1054
  350DG      H3 8030   2.725   3.102   1.146 -2.0947 -3.6787 -0.8551
  350DG      H4 8031   2.619   3.236   1.204 -1.0597  0.2391 -0.7717
  350DG      H5 8032   2.568   3.071   1.188  0.8769 -0.2896 -1.2381
  350DG      H6 8033   3.226   3.016   1.538  0.9589  1.1624  0.4560
  350DG      H7 8034   3.219   3.186   1.586 -0.5473 -0.0589  2.0464
  350DG      H8 8035   3.247   3.058   1.712 -1.6989 -1.1352  1.3024
  350DG      O9 8036   2.694   3.106   1.355  0.0451 -0.0825 -0.3601
  350DG     O10 8037   3.056   3.061   1.643  0.0109  0.2392 -0.0041
  350DG     C11 8038   2.622   3.192   1.447 -0.2487  0.4590 -0.1658
  350DG     C12 8039   3.005   3.164   1.729  0.3882 -0.1165 -0.4615
  350DG     H13 8040   2.516   3.170   1.438 -0.0370 -0.8756  0.3884
  350DG     H14 8041   2.642   3.297   1.425  1.7080 -0.0955 -1.3071
  350DG     H15 8042   3.040   3.260   1.692 -0.4848  0.0504 -0.8733
  350DG     H16 8043   3.041   3.141   1.829 -1.4343  1.7074  0.7002
  350DG     C17 8044   2.668   3.181   1.585 -0.1626  0.9867  0.2746
  350DG     C18 8045   2.857   3.182   1.731  0.6353 -0.7684 -0.4905
  350DG     O19 8046   2.811   3.173   1.593 -0.0608  0.1967  0.1250
  350DG     H20 8047   2.621   3.088   1.618  0.4759  0.2062 -0.9649
  350DG     H21 8048   2.627   3.268   1.638 -1.0217  0.0171  1.2566
  350DG     H22 8049   2.815   3.106   1.797 -0.8574  1.3276  1.0811
  350DG     H23 8050   2.830   3.279   1.773  0.7473 -0.6228 -0.7521
  351DG      C1 8051   1.831   0.824   2.173 -0.2738  0.1852  0.0893
  351DG      C2 8052   2.115   1.033   1.799  0.0208 -0.0664  0.0154
  351DG      H3 8053   1.741   0.813   2.234 -0.9646 -2.7973 -1.2749
  351DG      H4 8054   1.920   0.834   2.235 -0.7704 -1.7438  1.1738
  351DG      H5 8055   1.842   0.730   2.119  0.1100 -0.6314  1.5564
  351DG      H6 8056   2.178   1.098   1.860 -0.0342 -0.3786  0.4108
  351DG      H7 8057   2.034   0.989   1.857 -0.0586 -0.8509 -0.6637
  351DG      H8 8058   2.181   0.962   1.749 -0.4615  0.3241 -1.2052
  351DG      O9 8059   1.820   0.924   2.071 -0.1696  0.1229 -0.4246
  351DG     O10 8060   2.068   1.109   1.696  0.2163 -0.5932  0.4510
  351DG     C11 8061   1.809   1.054   2.130  0.2711  0.2477 -0.5777
  351DG     C12 8062   2.010   1.235   1.734  1.0045  0.2244  0.0852
  351DG     H13 8063   1.889   1.086   2.198 -0.9489  1.1847  0.4652
  351DG     H14 8064   1.718   1.058   2.190  0.4902  0.8729 -0.2708
  351DG     H15 8065   1.976   1.291   1.647 -2.4248  1.3198  1.9356
  351DG     H16 8066   2.082   1.298   1.787  0.0719  1.1638  0.2603
  351DG     C17 8067   1.792   1.159   2.017  0.5907  0.4517  0.2102
  351DG     C18 8068   1.875   1.225   1.811 -0.2998  0.3364  0.6359
  351DG     O19 8069   1.906   1.166   1.940  0.3703  0.4892  0.4301
  351DG     H20 8070   1.776   1.261   2.050 -0.0279  0.4986 -0.2037
  351DG     H21 8071   1.703   1.146   1.956  1.0428  1.5952 -0.7257
  351DG     H22 8072   1.834   1.325   1.830 -0.3649  0.6406 -0.9994
  351DG     H23 8073   1.798   1.177   1.751  1.0170 -0.9012 -0.1043
  352DG      C1 8074   2.079   1.972   4.376  0.5739  0.0793  0.1490
  352DG      C2 8075   2.643   1.823   4.317 -0.8853  0.3013 -0.8283
  352DG      H3 8076   2.033   1.882   4.418  0.6249 -0.1267 -0.2358
  352DG      H4 8077   2.006   2.053   4.385  0.8039  0.2808  0.1980
  352DG      H5 8078   2.169   1.987   4.436  0.7430 -0.8971  0.1597
  352DG      H6 8079   2.736   1.847   4.370 -1.9515 -1.4975  2.0905
  352DG      H7 8080   2.619   1.719   4.338  0.4515  0.2703  0.8332
  352DG      H8 8081   2.661   1.828   4.210  2.9768 -0.7138 -0.4041
  352DG      O9 8082   2.106   1.962   4.237  0.3334  0.1568  0.1080
  352DG     O10 8083   2.547   1.920   4.347 -0.0214 -0.7950  0.3433
  352DG     C11 8084   2.125   2.076   4.164  0.8511  0.5511  0.2237
  352DG     C12 8085   2.583   2.047   4.301 -0.3802  0.9123 -0.2854
  352DG     H13 8086   2.026   2.119   4.173  0.9882  0.6591  1.3637
  352DG     H14 8087   2.143   2.049   4.060  0.5159 -0.5426  0.4287
  352DG     H15 8088   2.613   2.045   4.196  0.0737  0.9060 -0.1563
  352DG     H16 8089   2.665   2.093   4.358 -0.1817  0.3479 -0.1102
  352DG     C17 8090   2.239   2.156   4.223 -0.1300  0.1657 -0.1326
  352DG     C18 8091   2.455   2.137   4.306 -0.1471 -0.0901  0.3907
  352DG     O19 8092   2.357   2.080   4.218 -0.1902  0.6735  0.2876
  352DG     H20 8093   2.224   2.187   4.326  0.5708  1.2681 -0.3548
  352DG     H21 8094   2.258   2.250   4.172 -0.2653  1.3932  1.9398
  352DG     H22 8095   2.414   2.131   4.406  0.2969  1.7522  0.7108
  352DG     H23 8096   2.473   2.242   4.280 -1.1680 -0.0899 -0.3835
  353DG      C1 8097   4.265   5.430   3.015  0.3258  0.5327  0.1632
  353DG      C2 8098   4.275   5.739   2.259 -0.1591  0.0320 -0.3389
  353DG      H3 8099   4.319   5.519   3.046  0.0817  0.8987 -0.4671
  353DG      H4 8100   4.318   5.338   3.040 -0.6513 -0.6966 -2.0303
  353DG      H5 8101   4.166   5.443   3.059  1.4085  2.3681  2.2659
  353DG      H6 8102   4.169   5.759   2.271  0.1070  0.8787  0.6943
  353DG      H7 8103   4.327   5.823   2.304  0.8789 -0.7784  0.0161
  353DG      H8 8104   4.289   5.739   2.151  1.9239  1.8040 -0.1387
  353DG      O9 8105   4.271   5.440   2.875 -0.5610 -0.0105 -0.1800
  353DG     O10 8106   4.322   5.603   2.288  0.0887  0.0355  0.0846
  353DG     C11 8107   4.201   5.336   2.801  0.0593  0.1083 -0.5500
  353DG     C12 8108   4.325   5.552   2.423 -0.3236 -0.3195  0.6248
  353DG     H13 8109   4.098   5.322   2.833  0.2886 -0.8821 -0.1894
  353DG     H14 8110   4.255   5.246   2.831 -0.5314 -0.4982 -1.2666
  353DG     H15 8111   4.367   5.626   2.492  2.9502 -1.7249  0.3215
  353DG     H16 8112   4.399   5.473   2.431  0.9168  0.4148 -2.3415
  353DG     C17 8113   4.225   5.367   2.657 -0.0263  0.3074  0.8815
  353DG     C18 8114   4.182   5.532   2.485  0.2803  0.0634  0.1764
  353DG     O19 8115   4.194   5.504   2.623 -0.4376 -0.4834 -0.0937
  353DG     H20 8116   4.154   5.311   2.597 -0.0924  0.7159  0.5788
  353DG     H21 8117   4.328   5.341   2.632  0.4828  2.5521  0.4788
  353DG     H22 8118   4.143   5.634   2.483 -0.8661 -0.3629 -0.9474
  353DG     H23 8119   4.103   5.477   2.433 -0.2996  0.2691  0.8165
  354DG      C1 8120   0.787   4.077   4.415 -0.1016 -1.1869 -0.6981
  354DG      C2 8121   0.733   3.390   4.262  0.3021 -0.4684 -0.0518
  354DG      H3 8122   0.854   4.059   4.331  1.5440  1.9851 -0.2324
  354DG      H4 8123   0.818   4.156   4.484 -1.0130 -0.8565 -0.6525
  354DG      H5 8124   0.691   4.108   4.374 -0.5238  0.1867  1.1715
  354DG      H6 8125   0.811   3.466   4.262 -0.6392  0.5300  0.5679
  354DG      H7 8126   0.752   3.315   4.186 -0.9448  0.7709 -1.6639
  354DG      H8 8127   0.656   3.455   4.221  1.4158 -0.0759 -1.6107
  354DG      O9 8128   0.765   3.967   4.498  0.2055 -0.6955  0.3260
  354DG     O10 8129   0.696   3.329   4.388 -1.1174  0.4102 -0.2114
  354DG     C11 8130   0.712   3.858   4.428 -0.1036  0.7254  0.4905
  354DG     C12 8131   0.586   3.389   4.458  0.0080 -0.1048 -0.3309
  354DG     H13 8132   0.780   3.828   4.349 -0.7580  2.1309 -0.6491
  354DG     H14 8133   0.620   3.889   4.378  0.8002  1.8088 -0.5477
  354DG     H15 8134   0.561   3.310   4.528  1.2105 -1.4552 -1.3671
  354DG     H16 8135   0.495   3.405   4.400  0.4604  2.2715 -0.5085
  354DG     C17 8136   0.689   3.738   4.522  0.1356  0.3247 -0.0324
  354DG     C18 8137   0.639   3.509   4.539 -0.0971 -0.6031 -0.0591
  354DG     O19 8138   0.642   3.623   4.449  0.2281 -0.1229 -0.1970
  354DG     H20 8139   0.624   3.751   4.609  1.3448 -0.7366  1.0709
  354DG     H21 8140   0.785   3.703   4.561  0.1859  0.3476 -0.1366
  354DG     H22 8141   0.566   3.530   4.617 -0.4835 -0.7547 -0.3794
  354DG     H23 8142   0.734   3.481   4.586 -0.8544 -2.6420  0.3180
  355DG      C1 8143   3.044   0.302   4.445 -0.4506  0.3651 -0.8863
  355DG      C2 8144   3.474   0.246   4.069 -0.1478 -0.4736 -0.0437
  355DG      H3 8145   3.132   0.282   4.507 -1.0622 -2.6393 -0.8280
  355DG      H4 8146   3.012   0.212   4.393 -1.3438  0.0551  0.1648
  355DG      H5 8147   2.962   0.333   4.510  0.9895  1.4365  0.5060
  355DG      H6 8148   3.418   0.154   4.087 -2.8493  0.8718 -1.0897
  355DG      H7 8149   3.469   0.267   3.962 -0.9942  2.6454  0.5093
  355DG      H8 8150   3.579   0.228   4.090  0.1236  0.3097 -0.6612
  355DG      O9 8151   3.077   0.414   4.360 -0.2782  0.4011 -0.2830
  355DG     O10 8152   3.412   0.348   4.144 -0.4343 -0.1923 -0.1877
  355DG     C11 8153   3.141   0.517   4.426  0.2075 -0.2789  0.2432
  355DG     C12 8154   3.455   0.474   4.108 -0.1505 -0.3916 -0.1567
  355DG     H13 8155   3.234   0.482   4.472  2.5456  3.3563 -1.2281
  355DG     H14 8156   3.090   0.565   4.509  1.3255 -1.9735  2.0068
  355DG     H15 8157   3.423   0.490   4.004 -0.0870 -1.9500 -0.4358
  355DG     H16 8158   3.563   0.489   4.112 -0.3464  1.3811 -0.4297
  355DG     C17 8159   3.180   0.618   4.320 -0.3465 -0.3242 -0.1301
  355DG     C18 8160   3.393   0.571   4.202 -0.0130  0.3366  0.2113
  355DG     O19 8161   3.249   0.550   4.215 -0.2676 -0.1054 -0.6138
  355DG     H20 8162   3.242   0.693   4.369 -0.5846  0.0087 -0.3351
  355DG     H21 8163   3.092   0.667   4.278  1.1141  1.0771 -1.7298
  355DG     H22 8164   3.437   0.563   4.301 -1.3316  0.0638  0.7854
  355DG     H23 8165   3.409   0.674   4.168  0.9549  1.0455  2.6209
  356DG      C1 8166   0.107   4.991   4.969  0.1709  0.2162 -0.3407
  356DG      C2 8167   0.567   5.513   5.129 -0.9171 -0.3496 -0.3000
  356DG      H3 8168   0.094   4.912   5.043 -0.3239  0.7417  0.1467
  356DG      H4 8169   0.205   4.990   4.921  0.1214 -0.0044 -0.4403
  356DG      H5 8170   0.030   4.971   4.895  0.5247 -0.3546 -0.5640
  356DG      H6 8171   0.644   5.436   5.141 -0.2488  0.5538  1.6457
  356DG      H7 8172   0.617   5.604   5.095 -1.0664 -0.1424  0.0316
  356DG      H8 8173   0.513   5.540   5.219 -0.9883  0.7242 -0.6487
  356DG      O9 8174   0.083   5.122   5.025  0.5268 -0.0446 -0.2371
  356DG     O10 8175   0.494   5.475   5.020  0.0856 -0.1647  0.5030
  356DG     C11 8176   0.076   5.222   4.924 -0.1123 -0.1886 -0.5640
  356DG     C12 8177   0.375   5.555   5.008  0.0184  0.0007  0.4091
  356DG     H13 8178  -0.026   5.224   4.885 -2.0897 -1.8136  3.8732
  356DG     H14 8179   0.147   5.195   4.846  1.1689 -1.5548  0.9999
  356DG     H15 8180   0.332   5.551   4.908 -1.8972  0.7276  1.1559
  356DG     H16 8181   0.384   5.660   5.036 -0.4207  0.0796  0.2658
  356DG     C17 8182   0.097   5.359   4.994  0.1994  0.1142  0.0973
  356DG     C18 8183   0.270   5.491   5.099  0.3986 -0.3220  0.1704
  356DG     O19 8184   0.224   5.362   5.053 -0.3475  0.5895 -0.0050
  356DG     H20 8185   0.038   5.372   5.085 -1.2015  0.0132 -0.7640
  356DG     H21 8186   0.083   5.446   4.930 -2.7301  1.1942  1.9876
  356DG     H22 8187   0.300   5.493   5.204  0.8432 -1.0038  0.0572
  356DG     H23 8188   0.191   5.566   5.087 -0.1906 -0.7243  1.3347
  357DG      C1 8189   4.877   5.376   0.860 -0.1074  0.1923 -0.2857
  357DG      C2 8190   5.354   5.791   0.695  0.5241  0.7434 -0.0544
  357DG      H3 8191   4.820   5.461   0.897  1.2218  0.8975  0.2318
  357DG      H4 8192   4.831   5.285   0.898  0.3836  0.4008  0.8580
  357DG      H5 8193   4.862   5.381   0.752  1.6020 -1.1031 -0.6338
  357DG      H6 8194   5.308   5.887   0.717  1.7624  0.9991  1.5762
  357DG      H7 8195   5.462   5.805   0.686  0.6052 -0.5375 -1.5291
  357DG      H8 8196   5.319   5.746   0.602  1.5965 -0.7202  0.2194
  357DG      O9 8197   5.016   5.378   0.894 -0.1763 -0.2442 -0.2973
  357DG     O10 8198   5.310   5.690   0.784  0.0005  0.3028 -0.0189
  357DG     C11 8199   5.035   5.393   1.033  0.4709 -0.0293  0.0382
  357DG     C12 8200   5.364   5.694   0.921  0.2908 -0.3517  0.0338
  357DG     H13 8201   4.997   5.298   1.070  0.9714 -0.7712 -1.3014
  357DG     H14 8202   4.979   5.473   1.082  2.3635  1.0071  0.6212
  357DG     H15 8203   5.309   5.769   0.977 -0.6302 -1.2770  0.4207
  357DG     H16 8204   5.470   5.718   0.910  0.0952  0.0339 -1.2787
  357DG     C17 8205   5.187   5.411   1.071 -0.0350 -0.4495 -0.9500
  357DG     C18 8206   5.362   5.557   0.986  0.4083  0.5295 -0.1192
  357DG     O19 8207   5.221   5.534   1.004 -0.0053 -0.0405 -0.1978
  357DG     H20 8208   5.255   5.329   1.051  1.4096 -0.1522  2.0883
  357DG     H21 8209   5.214   5.422   1.176 -0.4144  0.2974 -0.9250
  357DG     H22 8210   5.400   5.474   0.926  1.4845  2.1420 -1.7835
  357DG     H23 8211   5.408   5.556   1.085  2.6266  0.1028 -1.0930
  358DG      C1 8212   5.399   1.801   1.337  0.0278 -0.0906 -0.3030
  358DG      C2 8213   4.725   1.792   1.880 -0.2893 -0.3929 -0.2235
  358DG      H3 8214   5.449   1.721   1.390 -0.9251 -1.2745 -1.1230
  358DG      H4 8215   5.435   1.902   1.354 -0.7761 -0.1589  2.0944
  358DG      H5 8216   5.403   1.774   1.231  0.8088 -0.8364 -0.0950
  358DG      H6 8217   4.656   1.726   1.933  2.2818 -1.0257  2.5960
  358DG      H7 8218   4.814   1.779   1.941 -1.1059 -2.0852  0.6990
  358DG      H8 8219   4.700   1.898   1.885  2.9829  0.4788 -0.0697
  358DG      O9 8220   5.264   1.804   1.377 -0.0072 -0.2105 -0.2691
  358DG     O10 8221   4.745   1.750   1.748  0.2131  0.0764  0.6322
  358DG     C11 8222   5.210   1.668   1.414 -0.2798  0.1081  0.6106
  358DG     C12 8223   4.871   1.799   1.689 -0.0647 -0.4588 -0.0659
  358DG     H13 8224   5.294   1.603   1.437  1.0861  1.8788  0.7620
  358DG     H14 8225   5.167   1.634   1.320  1.6211  2.1291 -1.0938
  358DG     H15 8226   4.950   1.759   1.752  0.4958  1.4036  0.4671
  358DG     H16 8227   4.874   1.907   1.679  2.8300 -0.6326 -2.4205
  358DG     C17 8228   5.109   1.685   1.527 -0.4470 -0.5283  0.3735
  358DG     C18 8229   4.881   1.735   1.553 -0.2696 -0.0038  0.0870
  358DG     O19 8230   5.001   1.758   1.476 -0.0038  0.0648 -0.1740
  358DG     H20 8231   5.145   1.730   1.619 -1.8718  0.7546  0.3383
  358DG     H21 8232   5.083   1.583   1.557  1.4268 -0.8639  0.9611
  358DG     H22 8233   4.862   1.628   1.563  2.0440 -0.3610  1.2631
  358DG     H23 8234   4.789   1.760   1.501 -0.4178 -0.0827  0.3064
  359DG      C1 8235   0.663   5.431   0.476 -0.5654  0.7920  0.7021
  359DG      C2 8236   1.170   5.724   0.944  0.1593 -0.0132  0.3866
  359DG      H3 8237   0.711   5.338   0.446 -3.1304  0.3398 -2.6063
  359DG      H4 8238   0.708   5.515   0.423 -0.4808  0.5440  0.3773
  359DG      H5 8239   0.562   5.418   0.437  0.3096 -0.7596 -1.2035
  359DG      H6 8240   1.233   5.638   0.969  0.3003  0.3983  1.4876
  359DG      H7 8241   1.185   5.761   0.843 -0.7005 -0.6873  0.0010
  359DG      H8 8242   1.178   5.804   1.017 -2.0897  3.4800 -2.8162
  359DG      O9 8243   0.669   5.442   0.615  0.0703 -0.6504 -0.0689
  359DG     O10 8244   1.037   5.667   0.940 -0.6875 -0.4841 -0.1123
  359DG     C11 8245   0.597   5.564   0.662 -0.4467  0.1738  0.7248
  359DG     C12 8246   0.928   5.753   0.925 -0.2639 -0.6977  0.2915
  359DG     H13 8247   0.490   5.551   0.646 -0.0856 -1.7860 -0.2567
  359DG     H14 8248   0.640   5.650   0.610  0.2265 -0.8342 -0.4471
  359DG     H15 8249   0.963   5.849   0.887 -0.5517 -0.5306  0.4450
  359DG     H16 8250   0.869   5.773   1.014 -1.0018  1.3087 -0.5754
  359DG     C17 8251   0.629   5.595   0.814  0.2493  0.6901  0.3406
  359DG     C18 8252   0.834   5.712   0.817  1.0675  0.2163 -0.0338
  359DG     O19 8253   0.764   5.590   0.848  0.0060 -0.4127  0.0379
  359DG     H20 8254   0.588   5.515   0.877  1.6085 -0.4312 -0.1363
  359DG     H21 8255   0.584   5.679   0.866  2.0252  0.6992  1.9792
  359DG     H22 8256   0.760   5.792   0.808  2.6152  1.6115 -0.8964
  359DG     H23 8257   0.879   5.694   0.720  0.2569 -0.7616 -0.2365
  360DG      C1 8258   0.889   4.396   0.668 -0.8544 -0.6456  0.0876
  360DG      C2 8259   1.442   3.707   0.548 -0.3068 -0.3639  0.3568
  360DG      H3 8260   0.906   4.454   0.578 -0.0155 -1.2183 -0.1299
  360DG      H4 8261   0.959   4.448   0.733  1.7627 -0.6893 -2.5098
  360DG      H5 8262   0.788   4.399   0.710 -0.9740  0.3963 -0.2589
  360DG      H6 8263   1.507   3.723   0.634 -1.6361 -1.5944  1.6353
  360DG      H7 8264   1.473   3.608   0.513 -0.3199  0.0836 -0.9667
  360DG      H8 8265   1.452   3.783   0.470  0.5417 -0.1830  0.6245
  360DG      O9 8266   0.946   4.267   0.637 -0.1900  0.0040 -0.3887
  360DG     O10 8267   1.309   3.719   0.585  0.0771 -0.1271  0.2311
  360DG     C11 8268   0.934   4.171   0.743  0.1954  0.0344 -0.1139
  360DG     C12 8269   1.278   3.854   0.631  0.1244 -0.2466 -0.2258
  360DG     H13 8270   0.830   4.171   0.778  0.3793  2.7281  0.6385
  360DG     H14 8271   0.993   4.202   0.829 -1.6603  1.2161  0.7845
  360DG     H15 8272   1.328   3.930   0.572  0.9082  0.7610  1.6607
  360DG     H16 8273   1.316   3.862   0.732  0.1353  0.0814 -0.2566
  360DG     C17 8274   0.960   4.025   0.691 -0.5643  0.2347 -0.2737
  360DG     C18 8275   1.129   3.877   0.612  0.0232  0.2642 -0.0568
  360DG     O19 8276   1.098   4.004   0.660  0.1809 -0.5059  0.0263
  360DG     H20 8277   0.903   4.006   0.601 -0.7893  1.4310 -0.3972
  360DG     H21 8278   0.936   3.951   0.767 -0.5819  0.1899 -0.3225
  360DG     H22 8279   1.095   3.859   0.510 -0.7379  0.2944  0.1895
  360DG     H23 8280   1.080   3.803   0.676  0.1586 -0.1187 -0.3881
  361DG      C1 8281   3.842   2.524   1.935  0.5118 -0.3823  0.3911
  361DG      C2 8282   4.335   2.065   1.798  0.3901 -0.2520 -0.0005
  361DG      H3 8283   3.925   2.593   1.919  1.0412 -0.9111  0.8239
  361DG      H4 8284   3.827   2.518   2.043  1.9684  1.3473  0.7333
  361DG      H5 8285   3.748   2.558   1.891  1.4120  2.4717  0.4739
  361DG      H6 8286   4.406   2.014   1.732  1.5899  0.7648  0.4538
  361DG      H7 8287   4.373   2.167   1.814 -0.4177 -0.2549  2.2302
  361DG      H8 8288   4.342   2.025   1.899  1.0194  0.9568  0.4541
  361DG      O9 8289   3.878   2.397   1.895 -0.5375  0.4815  0.2328
  361DG     O10 8290   4.192   2.090   1.766  0.0283 -0.2649 -0.1212
  361DG     C11 8291   3.775   2.304   1.896  0.2238 -0.0756 -0.4143
  361DG     C12 8292   4.113   1.972   1.757 -0.6110 -0.2995  0.3945
  361DG     H13 8293   3.719   2.307   1.802  0.1288  0.7310 -0.3420
  361DG     H14 8294   3.703   2.332   1.973 -1.7120  3.0377 -3.0843
  361DG     H15 8295   4.159   1.883   1.800  0.4470  0.1174  0.1496
  361DG     H16 8296   4.102   1.941   1.652  1.2332 -1.4830  0.4981
  361DG     C17 8297   3.830   2.163   1.904  0.2899 -0.9210  0.4498
  361DG     C18 8298   3.989   2.009   1.835  0.2527 -0.0899  0.3459
  361DG     O19 8299   3.940   2.137   1.815 -0.3319 -0.6219 -0.3252
  361DG     H20 8300   3.749   2.094   1.880 -0.2656  0.1856 -1.0425
  361DG     H21 8301   3.857   2.145   2.008 -0.5635 -0.2143  0.8054
  361DG     H22 8302   3.921   1.927   1.812 -1.9376  2.1374 -1.5600
  361DG     H23 8303   4.009   2.003   1.942 -1.3450  0.4931  0.7074
  362DG      C1 8304   4.089   4.549   2.102  0.3989  0.6902 -0.2287
  362DG      C2 8305   3.910   5.045   1.683 -0.1927 -0.6253  0.3507
  362DG      H3 8306   4.062   4.470   2.172 -3.7448 -0.0685 -2.3679
  362DG      H4 8307   4.086   4.643   2.158  2.5313  0.3289  0.5976
  362DG      H5 8308   4.194   4.534   2.074  0.3317  0.4671 -0.3620
  362DG      H6 8309   3.809   5.077   1.659  0.2049  1.8265  1.5723
  362DG      H7 8310   3.937   5.097   1.775  1.1603 -1.4264  0.4300
  362DG      H8 8311   3.972   5.071   1.597 -0.8031  2.8830  0.8361
  362DG      O9 8312   4.012   4.553   1.988  0.3500  0.0506  0.0775
  362DG     O10 8313   3.928   4.909   1.725 -0.1702 -0.3334 -0.1088
  362DG     C11 8314   4.017   4.447   1.893  0.3197  0.5207 -0.5065
  362DG     C12 8315   3.915   4.813   1.623 -0.4911  0.4014  1.2002
  362DG     H13 8316   3.988   4.354   1.942 -0.0603  0.2424 -1.2433
  362DG     H14 8317   4.114   4.424   1.849  0.3054  1.3079 -0.9615
  362DG     H15 8318   4.014   4.820   1.577 -1.4396 -1.7928 -1.4442
  362DG     H16 8319   3.849   4.854   1.547  2.4749  0.3463 -1.6276
  362DG     C17 8320   3.929   4.490   1.776 -0.0682 -0.3746 -0.6924
  362DG     C18 8321   3.866   4.671   1.659  0.6224  0.6736 -0.2888
  362DG     O19 8322   3.966   4.627   1.746  0.0521  0.2460  0.0179
  362DG     H20 8323   3.826   4.499   1.809  0.0662  2.2747 -0.8315
  362DG     H21 8324   3.946   4.412   1.702  0.8155 -0.6876 -0.1759
  362DG     H22 8325   3.765   4.673   1.700  0.5557 -0.0900 -0.3919
  362DG     H23 8326   3.850   4.609   1.570 -0.0542  0.0747  0.2312
  363DG      C1 8327   0.567   2.138   2.133  0.1628 -0.5050  0.2359
  363DG      C2 8328   0.591   2.352   2.730 -0.3456 -0.1447  0.2018
  363DG      H3 8329   0.650   2.148   2.064 -0.2876 -1.5147 -0.4718
  363DG      H4 8330   0.517   2.235   2.131 -0.0500 -0.6178 -0.0796
  363DG      H5 8331   0.492   2.067   2.099 -1.7448  1.6706 -0.4083
  363DG      H6 8332   0.532   2.428   2.677  0.4108  0.2317 -0.1125
  363DG      H7 8333   0.531   2.323   2.817 -1.4833 -0.8395 -0.7754
  363DG      H8 8334   0.678   2.402   2.772 -1.2682  0.3163  1.6556
  363DG      O9 8335   0.625   2.112   2.257 -0.7654  0.4001  0.0432
  363DG     O10 8336   0.638   2.253   2.645  0.7016 -0.3345 -0.2096
  363DG     C11 8337   0.673   1.980   2.261  0.2335  0.4378  0.6409
  363DG     C12 8338   0.679   2.140   2.719 -0.1350  0.1539  0.2455
  363DG     H13 8339   0.736   1.951   2.177  0.6510 -0.9967  1.4160
  363DG     H14 8340   0.587   1.913   2.267  1.0938 -0.7814 -0.2109
  363DG     H15 8341   0.597   2.089   2.771 -0.2341  1.2372  1.2086
  363DG     H16 8342   0.751   2.173   2.793 -0.0931  1.8674 -0.5014
  363DG     C17 8343   0.756   1.970   2.393  0.0342 -0.3235 -0.0326
  363DG     C18 8344   0.752   2.052   2.621 -0.0209  0.3381 -0.0937
  363DG     O19 8345   0.679   2.039   2.496 -0.4107 -0.2811  0.5640
  363DG     H20 8346   0.849   2.023   2.371 -0.7036  1.3489  0.7396
  363DG     H21 8347   0.775   1.869   2.427  2.0716  0.3782  1.1160
  363DG     H22 8348   0.857   2.082   2.620  0.0739  0.0717 -1.7312
  363DG     H23 8349   0.760   1.951   2.663  2.4742  0.9246  1.0299
  364DG      C1 8350   3.470   1.665   0.173 -0.1432  0.3803 -0.3654
  364DG      C2 8351   4.040   1.455   0.570  0.0571 -0.2567  0.4271
  364DG      H3 8352   3.366   1.633   0.185  1.0877 -3.0700  2.4266
  364DG      H4 8353   3.520   1.576   0.135  0.0348  1.0092 -1.6984
  364DG      H5 8354   3.480   1.746   0.101 -0.6748 -0.0090 -0.8899
  364DG      H6 8355   4.091   1.502   0.485 -1.1037  1.3794  0.5887
  364DG      H7 8356   4.105   1.453   0.658  0.3248 -1.3370  0.2200
  364DG      H8 8357   4.026   1.355   0.528 -1.7841  0.5383 -0.9993
  364DG      O9 8358   3.520   1.700   0.307 -0.0967 -0.6484  0.2325
  364DG     O10 8359   3.906   1.513   0.589 -0.3807  0.1757 -0.2522
  364DG     C11 8360   3.488   1.598   0.398 -0.2940  0.7115 -0.4360
  364DG     C12 8361   3.914   1.652   0.622  0.0964  0.2297 -0.0738
  364DG     H13 8362   3.535   1.512   0.350  0.0625 -0.6588  2.2077
  364DG     H14 8363   3.379   1.594   0.398 -0.2613 -1.0243  0.6425
  364DG     H15 8364   3.957   1.714   0.543 -0.4711 -0.4432 -0.9348
  364DG     H16 8365   3.962   1.673   0.717  1.8342  0.0815 -0.8789
  364DG     C17 8366   3.555   1.627   0.532 -0.2295 -0.6771  0.1040
  364DG     C18 8367   3.763   1.675   0.641  0.9507  0.0879 -0.2037
  364DG     O19 8368   3.690   1.687   0.516 -0.0512 -0.0610  0.3713
  364DG     H20 8369   3.548   1.530   0.581 -0.1442 -0.9976 -0.5182
  364DG     H21 8370   3.494   1.705   0.577  0.6903  1.0540 -1.5156
  364DG     H22 8371   3.722   1.606   0.715 -1.1098  1.2468 -0.1819
  364DG     H23 8372   3.753   1.773   0.688  0.8416 -0.9237  2.0126
  365DG      C1 8373   0.983   1.591   4.300 -0.4436 -0.1145  0.0522
  365DG      C2 8374   1.302   2.149   4.698 -0.2317 -0.8259 -0.1053
  365DG      H3 8375   0.878   1.613   4.281  0.1240  2.1012 -0.8950
  365DG      H4 8376   0.997   1.490   4.337  0.3816  0.3555  1.0977
  365DG      H5 8377   1.037   1.600   4.205 -0.0135  2.0138  0.4455
  365DG      H6 8378   1.253   2.231   4.751  0.1209 -0.7731  0.1423
  365DG      H7 8379   1.410   2.149   4.711  0.0281  0.5865 -1.8775
  365DG      H8 8380   1.279   2.165   4.593  3.0932 -0.8773 -0.9676
  365DG      O9 8381   1.043   1.673   4.397 -0.3228 -0.3907  0.6168
  365DG     O10 8382   1.251   2.029   4.752  0.2427 -0.0830 -0.4307
  365DG     C11 8383   0.966   1.703   4.517 -0.2629  0.2320 -0.4424
  365DG     C12 8384   1.302   1.906   4.710 -1.0656 -0.0683  0.4652
  365DG     H13 8385   0.940   1.614   4.574 -0.0427 -1.3773 -2.7154
  365DG     H14 8386   0.875   1.756   4.487  0.7838  1.5322 -1.4262
  365DG     H15 8387   1.403   1.894   4.749 -1.5848  0.6957  2.1368
  365DG     H16 8388   1.298   1.911   4.601 -0.0034 -1.1971  0.3492
  365DG     C17 8389   1.047   1.792   4.612 -0.1025  1.7586 -0.3889
  365DG     C18 8390   1.223   1.787   4.762  0.4403 -0.2687  0.2220
  365DG     O19 8391   1.150   1.710   4.660 -0.5938  0.0673 -0.3068
  365DG     H20 8392   0.982   1.821   4.694 -2.2169  0.7134 -1.6303
  365DG     H21 8393   1.079   1.879   4.555  1.5033  0.6377 -1.2994
  365DG     H22 8394   1.296   1.722   4.811  2.6555  0.6899 -1.5945
  365DG     H23 8395   1.157   1.826   4.840  0.1634 -1.4876  0.6212
  366DG      C1 8396   1.526   3.397   4.652  0.1757 -1.0485 -0.0894
  366DG      C2 8397   1.978   3.767   4.802  0.0766 -0.1477 -0.2516
  366DG      H3 8398   1.540   3.398   4.760 -2.6722 -1.3968  0.3668
  366DG      H4 8399   1.419   3.420   4.646 -0.0861 -2.2867 -0.5012
  366DG      H5 8400   1.587   3.474   4.606  1.5803 -1.4112  1.0977
  366DG      H6 8401   2.002   3.766   4.909 -0.2855 -0.9875 -0.1650
  366DG      H7 8402   2.050   3.826   4.747  0.4645 -1.5950 -1.3409
  366DG      H8 8403   1.883   3.819   4.790 -0.2278 -0.1604  1.6932
  366DG      O9 8404   1.542   3.277   4.585 -0.4597 -0.3918  0.2827
  366DG     O10 8405   1.956   3.636   4.757 -0.7091 -0.0480 -0.7318
  366DG     C11 8406   1.663   3.203   4.624  0.3663 -0.2869 -0.2649
  366DG     C12 8407   1.907   3.633   4.620  0.0798 -0.1318  0.2180
  366DG     H13 8408   1.651   3.108   4.572 -0.0639  0.2064 -1.0853
  366DG     H14 8409   1.670   3.185   4.732  1.9580 -0.2935 -0.3465
  366DG     H15 8410   1.983   3.676   4.554  1.7571 -1.2405  1.3479
  366DG     H16 8411   1.818   3.691   4.596  1.2367  1.4404 -0.4443
  366DG     C17 8412   1.789   3.269   4.575  0.3363  0.6284  0.0763
  366DG     C18 8413   1.901   3.481   4.568  0.5100 -0.6896 -0.2207
  366DG     O19 8414   1.806   3.398   4.633  0.3988 -0.4055 -0.1437
  366DG     H20 8415   1.770   3.276   4.468  0.9095 -1.5506 -0.2059
  366DG     H21 8416   1.878   3.209   4.590  1.2278  2.1671  1.1922
  366DG     H22 8417   1.874   3.486   4.463  2.8056  1.0294 -0.8291
  366DG     H23 8418   2.004   3.445   4.558  0.7418 -0.3254  0.7177
  367DG      C1 8419   3.322   2.811   0.398 -0.0010 -0.6656 -0.0643
  367DG      C2 8420   2.976   2.218  -0.016 -0.4386  0.2846  0.3953
  367DG      H3 8421   3.412   2.840   0.345  1.0951 -0.5807  1.7312
  367DG      H4 8422   3.365   2.786   0.495 -0.0309  0.7339  0.3360
  367DG      H5 8423   3.257   2.897   0.416  0.5822 -0.2006 -0.1504
  367DG      H6 8424   2.931   2.123  -0.044  0.1557 -0.7278  2.7062
  367DG      H7 8425   2.975   2.296  -0.093  0.6166 -2.1213 -2.2137
  367DG      H8 8426   3.079   2.193   0.009 -0.2324  2.1244  1.5810
  367DG      O9 8427   3.259   2.703   0.331  0.3682  0.8284 -0.0768
  367DG     O10 8428   2.923   2.257   0.108  0.4293 -0.0852 -0.3542
  367DG     C11 8429   3.204   2.753   0.205 -0.1415  0.5606  0.0388
  367DG     C12 8430   3.005   2.351   0.177  0.2676 -0.3854 -0.0657
  367DG     H13 8431   3.293   2.780   0.148 -0.1297 -2.7597 -1.7781
  367DG     H14 8432   3.145   2.844   0.216 -0.8446  0.5343 -2.8258
  367DG     H15 8433   3.110   2.334   0.153  0.1421 -1.5189  0.1795
  367DG     H16 8434   3.003   2.328   0.283 -0.0537 -2.1791 -0.4305
  367DG     C17 8435   3.123   2.647   0.130 -0.0468  0.5771 -0.0556
  367DG     C18 8436   2.942   2.492   0.157  0.8872 -0.4840 -0.0734
  367DG     O19 8437   3.025   2.599   0.216 -0.8261  0.1803  0.2934
  367DG     H20 8438   3.179   2.565   0.084 -1.6832  0.5604 -2.1971
  367DG     H21 8439   3.080   2.692   0.040  2.9557  2.3287 -0.7487
  367DG     H22 8440   2.922   2.505   0.050 -2.1157 -2.3234  0.1509
  367DG     H23 8441   2.843   2.497   0.202  1.3336 -0.3228  0.9197
  368DG      C1 8442   2.685   3.589   1.496  0.2094  0.0868 -0.3396
  368DG      C2 8443   2.575   3.516   2.063 -0.3501 -0.0278  0.0623
  368DG      H3 8444   2.792   3.581   1.515  0.1239 -0.9603 -0.2445
  368DG      H4 8445   2.661   3.694   1.515  0.1023 -0.1921  1.2138
  368DG      H5 8446   2.672   3.556   1.393  0.7994 -0.5870 -0.2093
  368DG      H6 8447   2.625   3.496   1.968  1.9647  0.5780  1.0821
  368DG      H7 8448   2.602   3.622   2.067  1.6719 -0.4686 -0.4878
  368DG      H8 8449   2.614   3.454   2.143 -1.8054 -0.1841  0.6649
  368DG      O9 8450   2.596   3.514   1.580  0.4356 -0.2090  0.2560
  368DG     O10 8451   2.434   3.499   2.059 -0.3777  0.2548  0.4408
  368DG     C11 8452   2.458   3.542   1.573 -0.1189  0.1220 -0.0656
  368DG     C12 8453   2.394   3.369   2.013 -0.3677  0.3076  0.2912
  368DG     H13 8454   2.419   3.558   1.472 -5.4627  0.8073  1.7842
  368DG     H14 8455   2.453   3.638   1.623 -0.1487  0.7794 -1.3131
  368DG     H15 8456   2.287   3.369   2.034 -0.4996  2.6134 -0.1082
  368DG     H16 8457   2.435   3.289   2.074  1.0765 -0.6865 -1.8376
  368DG     C17 8458   2.380   3.433   1.641 -0.2734  0.2828  0.7205
  368DG     C18 8459   2.405   3.333   1.862 -0.4577 -0.6708 -0.3728
  368DG     O19 8460   2.394   3.455   1.789 -0.1142  0.0321 -0.3391
  368DG     H20 8461   2.422   3.345   1.591 -1.5608  0.0302  0.0494
  368DG     H21 8462   2.276   3.427   1.609  0.9551 -1.5343 -3.7434
  368DG     H22 8463   2.500   3.297   1.823 -0.4379 -0.0459 -0.9174
  368DG     H23 8464   2.327   3.262   1.835 -0.1136 -0.7457 -1.1872
  369DG      C1 8465   4.937   3.904   2.592 -0.0590  0.3982  0.0642
  369DG      C2 8466   4.553   4.430   2.927  0.5411 -0.0542  0.0664
  369DG      H3 8467   4.997   3.995   2.584 -1.1842  1.1855  0.3929
  369DG      H4 8468   4.929   3.858   2.493  0.6752  1.2444 -0.4066
  369DG      H5 8469   4.999   3.844   2.659 -0.0054  1.5791  1.1259
  369DG      H6 8470   4.466   4.456   2.988  0.6320 -0.9337  0.5861
  369DG      H7 8471   4.605   4.523   2.903 -0.2590  0.2464 -0.5507
  369DG      H8 8472   4.511   4.405   2.830 -1.0456  1.1646  0.3825
  369DG      O9 8473   4.807   3.927   2.652 -0.2226 -0.1504  0.3965
  369DG     O10 8474   4.637   4.333   2.983  0.1208  0.0336 -0.0585
  369DG     C11 8475   4.743   4.035   2.595 -0.3400 -0.2029  0.3744
  369DG     C12 8476   4.561   4.214   3.003  0.0572  0.3862 -0.3992
  369DG     H13 8477   4.718   4.000   2.494 -2.5829  2.3737 -0.0710
  369DG     H14 8478   4.806   4.123   2.586 -1.3221  0.3578 -1.5218
  369DG     H15 8479   4.468   4.236   3.056  0.6242 -3.1600  2.4312
  369DG     H16 8480   4.617   4.150   3.072 -1.3454 -0.4151  0.0313
  369DG     C17 8481   4.609   4.054   2.668 -0.5504  0.1405 -0.1062
  369DG     C18 8482   4.523   4.137   2.873 -0.0287 -0.2104  0.0723
  369DG     O19 8483   4.628   4.122   2.788 -0.0909  0.2089 -0.3195
  369DG     H20 8484   4.564   3.956   2.685  0.3928 -0.7152 -2.2232
  369DG     H21 8485   4.534   4.113   2.613 -0.6692 -1.2445 -1.5116
  369DG     H22 8486   4.483   4.044   2.911 -1.5090  0.1982 -0.4137
  369DG     H23 8487   4.443   4.192   2.823 -1.4351  0.7292  3.1393
  370DG      C1 8488   4.757   0.382   4.355  0.0619  0.4803 -0.0683
  370DG      C2 8489   4.174   0.363   3.781 -0.0394 -0.3802  0.2791
  370DG      H3 8490   4.854   0.431   4.351  0.4372 -0.2819 -0.4159
  370DG      H4 8491   4.776   0.276   4.372 -2.0192  0.0148 -0.3944
  370DG      H5 8492   4.688   0.420   4.430  3.0822  0.4439  2.9684
  370DG      H6 8493   4.175   0.275   3.846  0.5713  0.5340  1.5539
  370DG      H7 8494   4.071   0.390   3.758 -0.3026 -0.6023  1.1396
  370DG      H8 8495   4.218   0.323   3.690 -0.3413  0.5794 -0.2976
  370DG      O9 8496   4.708   0.398   4.227 -0.3295 -0.2115 -0.4049
  370DG     O10 8497   4.265   0.466   3.828  0.4897 -0.1972 -0.7261
  370DG     C11 8498   4.657   0.535   4.198 -0.0118 -0.0282  0.0902
  370DG     C12 8499   4.390   0.420   3.865 -0.7196 -0.0151 -0.7609
  370DG     H13 8500   4.727   0.606   4.242  2.3209 -0.2985 -2.8736
  370DG     H14 8501   4.558   0.558   4.239  0.6789 -0.9210  2.4597
  370DG     H15 8502   4.447   0.386   3.779 -0.6117 -0.0791 -0.6643
  370DG     H16 8503   4.385   0.337   3.936  0.4481 -0.9199 -1.7030
  370DG     C17 8504   4.680   0.544   4.050 -0.4192 -0.0154 -0.3115
  370DG     C18 8505   4.480   0.523   3.937  0.5626 -0.3333 -0.3095
  370DG     O19 8506   4.596   0.452   3.984  0.1487  0.3210 -0.1756
  370DG     H20 8507   4.786   0.528   4.030 -0.5679  0.8648 -1.9833
  370DG     H21 8508   4.681   0.642   4.002 -0.1729 -0.3795 -1.0604
  370DG     H22 8509   4.494   0.606   3.868 -1.9992 -0.8237 -1.5457
  370DG     H23 8510   4.430   0.562   4.026  1.3466  2.2718 -0.9250
  371DG      C1 8511   4.842   1.400   5.332 -0.0034  0.1662  0.3732
  371DG      C2 8512   5.540   0.876   5.433 -0.3419  0.4957  1.5654
  371DG      H3 8513   4.777   1.486   5.349 -1.5887 -0.9972  0.3326
  371DG      H4 8514   4.788   1.320   5.383 -1.3150  0.2118 -0.8859
  371DG      H5 8515   4.838   1.397   5.224  1.5708  1.3738  0.2415
  371DG      H6 8516   5.538   0.857   5.325  0.9378  0.7036  1.4881
  371DG      H7 8517   5.635   0.859   5.484 -0.4541 -3.7966  0.6705
  371DG      H8 8518   5.491   0.782   5.457  1.8522 -1.4403 -0.9491
  371DG      O9 8519   4.976   1.420   5.376 -0.1315 -0.7785 -0.4453
  371DG     O10 8520   5.466   0.992   5.464 -0.1328  0.5528 -0.0801
  371DG     C11 8521   5.052   1.297   5.359  0.3826  0.2851 -0.6689
  371DG     C12 8522   5.516   1.102   5.395  0.7304  0.0545 -0.3196
  371DG     H13 8523   5.050   1.260   5.257  0.2230 -2.5727  0.2781
  371DG     H14 8524   5.011   1.221   5.426  0.5265  0.5149 -0.3205
  371DG     H15 8525   5.513   1.080   5.288 -0.3176 -0.1362 -0.2629
  371DG     H16 8526   5.618   1.132   5.420 -0.5201  3.1606  1.6898
  371DG     C17 8527   5.206   1.321   5.407  0.0287  0.4980  0.0136
  371DG     C18 8528   5.419   1.222   5.430  0.0591  0.0214 -0.3517
  371DG     O19 8529   5.284   1.208   5.390  0.1070  0.6237  0.2169
  371DG     H20 8530   5.202   1.342   5.514  0.1735  1.1304 -0.1017
  371DG     H21 8531   5.256   1.403   5.356  1.2925 -0.0510  0.3212
  371DG     H22 8532   5.408   1.229   5.539  1.9485 -1.0836 -0.0430
  371DG     H23 8533   5.460   1.318   5.398 -2.6422  1.3053 -0.1939
  372DG      C1 8534   3.904   1.616   0.169 -0.4712  0.0179 -0.6004
  372DG      C2 8535   3.627   2.036   0.576  0.1719  0.0063 -0.2383
  372DG      H3 8536   3.941   1.538   0.236  0.0625  1.2009  0.5099
  372DG      H4 8537   3.956   1.598   0.075 -0.9690 -0.0777 -0.8558
  372DG      H5 8538   3.798   1.610   0.147 -0.3644  0.5905 -1.3051
  372DG      H6 8539   3.631   1.977   0.667  0.8595  0.9721  0.3755
  372DG      H7 8540   3.609   2.140   0.603 -0.1459 -0.3535  1.0106
  372DG      H8 8541   3.549   1.994   0.512 -1.5279 -0.7271  2.1666
  372DG      O9 8542   3.931   1.749   0.216 -0.3592 -0.0268 -0.1081
  372DG     O10 8543   3.749   2.034   0.499  0.2794  0.0532 -0.6501
  372DG     C11 8544   4.064   1.761   0.277  0.1490  0.4314 -0.4557
  372DG     C12 8545   3.864   2.085   0.559 -0.2729 -0.2423 -0.0808
  372DG     H13 8546   4.138   1.738   0.200 -1.0450 -1.0394 -1.2283
  372DG     H14 8547   4.088   1.698   0.363  0.7699 -2.2550 -2.4463
  372DG     H15 8548   3.891   2.038   0.654  2.2598  0.4089 -0.4019
  372DG     H16 8549   3.853   2.191   0.580  0.6002 -0.2668  0.5642
  372DG     C17 8550   4.085   1.910   0.312  0.2357  0.2597  0.7542
  372DG     C18 8551   3.980   2.064   0.454 -0.5167 -0.4598 -0.0892
  372DG     O19 8552   3.980   1.935   0.404  0.2074  0.1300 -0.8759
  372DG     H20 8553   4.074   1.981   0.230  1.1813  0.2356  0.6014
  372DG     H21 8554   4.182   1.926   0.359  0.2118  0.3518  0.7734
  372DG     H22 8555   3.974   2.133   0.370  1.0981 -0.3557 -0.1428
  372DG     H23 8556   4.067   2.083   0.517 -1.6996  1.8403  0.9724
  373DG      C1 8557   4.061   0.039   0.674  0.3418  0.3826 -0.3146
  373DG      C2 8558   4.578   0.586   0.536  0.1154  0.2786  0.3722
  373DG      H3 8559   3.954   0.025   0.689  0.3623  1.7934  1.5336
  373DG      H4 8560   4.120  -0.029   0.735 -0.0016 -0.4584 -0.9034
  373DG      H5 8561   4.082   0.002   0.574  2.3147 -0.6130  0.4129
  373DG      H6 8562   4.579   0.621   0.433 -1.4804 -2.4608 -0.6740
  373DG      H7 8563   4.636   0.646   0.607  1.6649  0.2869 -0.8396
  373DG      H8 8564   4.625   0.488   0.536 -1.0223 -0.2741  0.1959
  373DG      O9 8565   4.097   0.173   0.696  0.2826 -0.1050  0.5606
  373DG     O10 8566   4.445   0.565   0.596  0.1051 -0.1122 -0.3613
  373DG     C11 8567   4.075   0.234   0.824  0.3546  0.1924  0.5107
  373DG     C12 8568   4.444   0.551   0.734 -0.5365  0.3445  0.7259
  373DG     H13 8569   4.141   0.174   0.888 -1.7840 -3.6576 -0.5728
  373DG     H14 8570   3.971   0.212   0.850 -0.0747 -0.5846 -1.7011
  373DG     H15 8571   4.493   0.642   0.767 -2.0252  1.1867  0.6799
  373DG     H16 8572   4.502   0.460   0.752 -0.0640  0.7375  1.2245
  373DG     C17 8573   4.114   0.387   0.827  0.4992  0.1403 -0.0573
  373DG     C18 8574   4.300   0.543   0.788  0.0544 -0.6528 -0.0061
  373DG     O19 8575   4.246   0.412   0.784  0.4886  0.6495  0.1297
  373DG     H20 8576   4.091   0.430   0.925 -0.9891 -0.5860 -0.0547
  373DG     H21 8577   4.054   0.435   0.749  0.3311 -0.9169 -0.5954
  373DG     H22 8578   4.314   0.586   0.887  1.6515  1.9878 -1.2665
  373DG     H23 8579   4.241   0.605   0.720  3.2162 -0.4566 -2.8409
  374DG      C1 8580   2.920   3.891   1.488  0.4380 -0.1257  0.2376
  374DG      C2 8581   2.638   4.522   1.287  1.0087  0.2898  0.5972
  374DG      H3 8582   3.004   3.822   1.488  1.0731  0.5885 -1.3217
  374DG      H4 8583   2.847   3.850   1.418 -0.8439  0.3382  1.2683
  374DG      H5 8584   2.878   3.886   1.588  0.8225 -1.9434  0.3591
  374DG      H6 8585   2.578   4.501   1.376  0.6372 -0.3477  0.2008
  374DG      H7 8586   2.645   4.628   1.262  0.8969  0.2483  0.3864
  374DG      H8 8587   2.598   4.462   1.206 -0.0913  0.7942  0.7411
  374DG      O9 8588   2.956   4.024   1.461  0.2193 -0.1728  0.0174
  374DG     O10 8589   2.767   4.479   1.315 -0.0485  0.2215  0.1550
  374DG     C11 8590   3.046   4.029   1.353 -0.0526  0.0252  0.0058
  374DG     C12 8591   2.841   4.445   1.197  0.0242 -0.6500  0.1737
  374DG     H13 8592   2.991   3.979   1.274  1.3526 -1.0177 -0.3636
  374DG     H14 8593   3.133   3.963   1.353 -0.0754 -0.0166 -0.6282
  374DG     H15 8594   2.866   4.537   1.143  1.3303 -0.5345  0.9418
  374DG     H16 8595   2.778   4.379   1.137  1.0722 -0.5967 -1.0322
  374DG     C17 8596   3.072   4.169   1.298  0.0129 -0.0002 -0.9830
  374DG     C18 8597   2.971   4.378   1.234 -0.3210  0.1496 -0.0391
  374DG     O19 8598   2.954   4.243   1.273  0.4179 -0.8945  0.3348
  374DG     H20 8599   3.126   4.162   1.204  1.7429 -0.4572  0.0004
  374DG     H21 8600   3.135   4.224   1.368  0.4954 -3.5230  1.6447
  374DG     H22 8601   3.033   4.378   1.145 -1.2774  0.5500 -0.7199
  374DG     H23 8602   3.028   4.438   1.305  0.9090  1.0960 -1.7748
  375DG      C1 8603   2.668   2.474   1.733 -0.0612 -0.5014 -0.0501
  375DG      C2 8604   1.830   2.357   1.878 -0.2292  0.3016  0.6420
  375DG      H3 8605   2.736   2.496   1.651  1.1506  0.4594  1.1585
  375DG      H4 8606   2.664   2.371   1.767  2.3425 -0.0776  1.7884
  375DG      H5 8607   2.718   2.517   1.821  0.1793 -0.4570 -0.2071
  375DG      H6 8608   1.724   2.373   1.855 -0.4983 -1.8956  0.0954
  375DG      H7 8609   1.852   2.250   1.870  0.8496  0.3842  2.1173
  375DG      H8 8610   1.838   2.394   1.980 -1.6832  3.2143 -0.2050
  375DG      O9 8611   2.538   2.534   1.717  0.2220  0.1760 -0.1806
  375DG     O10 8612   1.911   2.421   1.781  0.3306 -0.1532  0.0347
  375DG     C11 8613   2.458   2.521   1.832 -0.8975 -0.7491 -0.2843
  375DG     C12 8614   2.045   2.438   1.824 -1.0052 -0.0373 -0.1339
  375DG     H13 8615   2.496   2.570   1.921 -0.1242 -1.3276 -0.2831
  375DG     H14 8616   2.451   2.417   1.865  2.5272 -0.4590  1.8551
  375DG     H15 8617   2.079   2.351   1.880 -2.2251  0.3158  1.2259
  375DG     H16 8618   2.050   2.515   1.902  0.9895  0.2277 -0.4707
  375DG     C17 8619   2.320   2.566   1.798  0.1675  0.3996  0.8005
  375DG     C18 8620   2.134   2.473   1.703  0.0970  0.2377 -0.4931
  375DG     O19 8621   2.272   2.467   1.716  0.1669  0.4816 -0.2708
  375DG     H20 8622   2.328   2.661   1.744  0.9781 -0.1805 -0.1287
  375DG     H21 8623   2.267   2.583   1.891  0.0209 -0.1789  0.8210
  375DG     H22 8624   2.105   2.408   1.621  0.0263 -0.1425 -0.1683
  375DG     H23 8625   2.095   2.572   1.678 -0.9366  0.0903  0.4543
  376DG      C1 8626   4.385   0.817   0.321  0.5277 -0.3552 -0.7552
  376DG      C2 8627   3.757   0.668   0.876 -0.3516  0.2935 -0.5836
  376DG      H3 8628   4.395   0.709   0.328  2.3077 -0.1134  1.8827
  376DG      H4 8629   4.481   0.852   0.284  1.2798 -1.4378  0.0855
  376DG      H5 8630   4.315   0.851   0.245 -0.9904 -1.6979 -0.0143
  376DG      H6 8631   3.669   0.643   0.815  1.1302 -0.7503 -2.4053
  376DG      H7 8632   3.813   0.576   0.890 -1.4114 -0.4478 -1.0547
  376DG      H8 8633   3.706   0.698   0.968 -0.3137  1.0700 -0.8072
  376DG      O9 8634   4.365   0.853   0.455  0.2920  0.0441  0.2464
  376DG     O10 8635   3.833   0.771   0.814  0.1215  0.1434 -0.7734
  376DG     C11 8636   4.241   0.800   0.509 -0.0291  0.5605  0.2207
  376DG     C12 8637   3.938   0.825   0.891  0.4921 -0.4019 -0.8785
  376DG     H13 8638   4.265   0.700   0.545  0.9382  0.8523  0.4159
  376DG     H14 8639   4.154   0.811   0.444 -1.2729  0.2676  1.7922
  376DG     H15 8640   3.991   0.744   0.942  0.4091 -2.4187 -3.7582
  376DG     H16 8641   3.889   0.894   0.959 -0.0185 -1.5063 -0.0893
  376DG     C17 8642   4.215   0.870   0.641 -0.3129 -0.8201 -0.0261
  376DG     C18 8643   4.039   0.896   0.807 -0.0452 -0.4791 -0.1320
  376DG     O19 8644   4.085   0.831   0.686  0.1868 -0.1551  0.0541
  376DG     H20 8645   4.220   0.978   0.637  2.2516 -0.9178 -1.5122
  376DG     H21 8646   4.288   0.843   0.718  1.0573 -1.5632 -1.5142
  376DG     H22 8647   4.008   0.997   0.781  1.2528  0.0422  0.2544
  376DG     H23 8648   4.129   0.897   0.868  0.2642 -0.4806 -0.5892
  377DG      C1 8649   2.856   1.486   2.528 -0.6888 -0.1529 -0.6205
  377DG      C2 8650   2.853   0.870   2.908  0.1261 -0.0086 -0.1085
  377DG      H3 8651   2.858   1.568   2.600 -0.3420  0.5945 -1.4730
  377DG      H4 8652   2.826   1.531   2.433  0.0011  1.2796 -0.1868
  377DG      H5 8653   2.955   1.441   2.531 -1.3660 -1.7675 -1.3938
  377DG      H6 8654   2.806   0.779   2.945  1.6635 -0.6836  0.2641
  377DG      H7 8655   2.859   0.842   2.803  0.8259  0.1588 -0.1144
  377DG      H8 8656   2.954   0.888   2.944 -0.3171  0.0948  1.1171
  377DG      O9 8657   2.776   1.384   2.578  0.0325 -0.6113 -0.1208
  377DG     O10 8658   2.781   0.994   2.942  0.0719  0.8221 -0.2953
  377DG     C11 8659   2.792   1.269   2.507 -0.4092  0.2787  0.1056
  377DG     C12 8660   2.654   0.999   2.888  0.1807 -0.3616  0.4399
  377DG     H13 8661   2.895   1.238   2.485 -0.7233 -1.1571  0.5529
  377DG     H14 8662   2.754   1.291   2.407 -0.2826 -1.7131 -0.4398
  377DG     H15 8663   2.605   1.088   2.927 -1.3442 -0.3114 -1.4218
  377DG     H16 8664   2.606   0.904   2.914  0.0435 -0.5393 -0.4189
  377DG     C17 8665   2.716   1.152   2.562 -0.1347  0.0321 -0.1718
  377DG     C18 8666   2.644   1.031   2.741 -0.4666  0.6679 -0.4904
  377DG     O19 8667   2.741   1.130   2.701  0.7925 -0.1101 -0.3044
  377DG     H20 8668   2.730   1.064   2.499 -0.4226 -1.3529  1.5986
  377DG     H21 8669   2.609   1.166   2.548 -0.4302 -0.2256  1.5748
  377DG     H22 8670   2.655   0.936   2.687 -1.7159  1.2713 -1.8722
  377DG     H23 8671   2.541   1.058   2.720 -1.5741 -2.4540  0.2757
  378DG      C1 8672   1.019   2.561   3.693  0.4525 -0.3606 -0.1341
  378DG      C2 8673   0.550   2.319   4.040  0.3471 -0.1600 -0.8284
  378DG      H3 8674   1.063   2.466   3.725  0.5621  0.2459  1.6261
  378DG      H4 8675   1.041   2.633   3.771 -0.5304 -0.8074  0.5857
  378DG      H5 8676   1.074   2.587   3.603  1.3270  0.3041  0.5846
  378DG      H6 8677   0.644   2.284   4.082  0.5804  1.8487  0.4760
  378DG      H7 8678   0.485   2.342   4.123  2.0026 -0.3423  0.5781
  378DG      H8 8679   0.512   2.235   3.982 -0.3828 -0.2616 -0.2086
  378DG      O9 8680   0.882   2.545   3.668  0.5108 -0.1588  0.4982
  378DG     O10 8681   0.587   2.425   3.957  0.3311  0.4584 -0.3080
  378DG     C11 8682   0.806   2.662   3.655  0.1109  0.2345 -0.2212
  378DG     C12 8683   0.478   2.495   3.897  0.0129  0.0773 -0.5581
  378DG     H13 8684   0.858   2.722   3.580  1.5466  0.8138  1.1701
  378DG     H14 8685   0.803   2.725   3.744  0.0221 -1.8648  1.3320
  378DG     H15 8686   0.416   2.541   3.974  2.6077  1.0339  1.0666
  378DG     H16 8687   0.421   2.421   3.842 -1.1643 -0.3562  1.1632
  378DG     C17 8688   0.672   2.622   3.607 -0.3619 -0.1188 -0.2584
  378DG     C18 8689   0.538   2.603   3.808  0.8590 -0.0295  0.5202
  378DG     O19 8690   0.609   2.542   3.699  0.2448 -0.0510  0.2369
  378DG     H20 8691   0.689   2.555   3.523  0.7730  1.0201 -0.9636
  378DG     H21 8692   0.613   2.707   3.573  1.6825  1.2536 -0.5565
  378DG     H22 8693   0.460   2.672   3.774 -1.5171 -1.8064  2.0232
  378DG     H23 8694   0.608   2.662   3.866 -0.7009  0.8143  1.5956
  379DG      C1 8695   1.374   4.384   5.482  0.2396 -0.1496 -0.9507
  379DG      C2 8696   1.836   4.860   5.265  0.1966  0.6046  0.4012
  379DG      H3 8697   1.351   4.298   5.545  0.8925 -0.1260 -0.6674
  379DG      H4 8698   1.330   4.373   5.382 -3.5182 -1.2255  0.6485
  379DG      H5 8699   1.326   4.472   5.522  1.6251  0.5870 -0.8523
  379DG      H6 8700   1.897   4.807   5.193 -2.1209 -0.4411 -0.8952
  379DG      H7 8701   1.772   4.926   5.205 -2.2401 -1.0031  1.0622
  379DG      H8 8702   1.913   4.908   5.325  0.3588 -0.5892  1.1856
  379DG      O9 8703   1.518   4.401   5.465 -0.0714  0.6033  0.4064
  379DG     O10 8704   1.750   4.760   5.315  0.6077 -0.2272  0.0743
  379DG     C11 8705   1.595   4.392   5.582  0.6761  1.1364  0.4123
  379DG     C12 8706   1.676   4.810   5.427  0.0688  0.2531 -0.4398
  379DG     H13 8707   1.695   4.366   5.548  0.3282 -1.4636  1.1823
  379DG     H14 8708   1.565   4.312   5.649  0.4271  0.0175 -1.0048
  379DG     H15 8709   1.618   4.895   5.390  1.5741  0.7109 -1.8522
  379DG     H16 8710   1.750   4.841   5.500  1.6049 -1.9130 -0.9809
  379DG     C17 8711   1.593   4.524   5.650 -0.5140 -1.0523 -0.1953
  379DG     C18 8712   1.590   4.703   5.485 -0.0180  0.1009 -0.2467
  379DG     O19 8713   1.664   4.621   5.575  0.3887  0.0776  0.6679
  379DG     H20 8714   1.654   4.511   5.740 -1.9037 -1.8755  0.6664
  379DG     H21 8715   1.498   4.562   5.688  0.2366 -1.0143  1.8122
  379DG     H22 8716   1.501   4.730   5.541 -0.1640  4.1604 -2.1038
  379DG     H23 8717   1.533   4.646   5.411 -0.8000 -0.5678  0.8376
  380DG      C1 8718   3.596   3.030   4.244  0.0485 -0.0875 -0.3683
  380DG      C2 8719   3.908   3.419   4.348 -0.0678 -0.7128  0.0760
  380DG      H3 8720   3.532   2.942   4.237 -0.1966  0.1655 -1.6920
  380DG      H4 8721   3.537   3.116   4.212  0.5412  0.9340  1.3159
  380DG      H5 8722   3.626   3.043   4.348  0.5091  0.3640 -0.5540
  380DG      H6 8723   3.807   3.460   4.354  0.9950  1.9155  1.9350
  380DG      H7 8724   3.939   3.418   4.453 -1.3225  0.6694  0.4867
  380DG      H8 8725   3.968   3.501   4.308 -0.9987 -0.7687 -1.4958
  380DG      O9 8726   3.703   3.014   4.156 -0.2595 -0.4258  0.2654
  380DG     O10 8727   3.914   3.303   4.271 -0.2016 -0.3981  0.3970
  380DG     C11 8728   3.799   2.911   4.194  0.4481 -0.1073  0.0490
  380DG     C12 8729   4.044   3.252   4.261  0.0503 -0.6319  0.0411
  380DG     H13 8730   3.744   2.817   4.195  1.1612 -0.5325 -0.3351
  380DG     H14 8731   3.822   2.930   4.299  0.9100  0.3143 -0.1279
  380DG     H15 8732   4.086   3.274   4.359 -0.5223 -0.9211  0.3535
  380DG     H16 8733   4.102   3.313   4.190 -0.6344 -0.7536 -0.6376
  380DG     C17 8734   3.930   2.922   4.117  0.1561 -0.2579 -0.1593
  380DG     C18 8735   4.057   3.099   4.232  0.2754 -0.2578 -0.4552
  380DG     O19 8736   3.970   3.065   4.118 -0.4738  0.0335 -0.2181
  380DG     H20 8737   3.905   2.891   4.016  2.4877 -1.8594 -0.3229
  380DG     H21 8738   4.018   2.864   4.145  2.2011  0.2694 -4.5708
  380DG     H22 8739   4.163   3.081   4.217  1.2849  2.4587  2.4575
  380DG     H23 8740   4.027   3.046   4.323  1.9998  0.0593  0.3452
  381DG      C1 8741   3.565   2.829   3.518  0.2221  0.4870 -0.3154
  381DG      C2 8742   3.761   3.386   3.560 -0.1007 -0.0405  0.0225
  381DG      H3 8743   3.485   2.879   3.572  0.0163  0.7651 -0.8670
  381DG      H4 8744   3.633   2.792   3.595 -1.4342 -1.3511  0.3487
  381DG      H5 8745   3.522   2.742   3.469 -1.7511  0.7059  0.9368
  381DG      H6 8746   3.671   3.431   3.604 -1.2992 -2.3505  0.0947
  381DG      H7 8747   3.752   3.280   3.583  0.7110  0.2573  1.8859
  381DG      H8 8748   3.847   3.430   3.610  0.4996  1.0138 -1.8524
  381DG      O9 8749   3.634   2.929   3.442 -0.6286  0.5290 -0.5522
  381DG     O10 8750   3.786   3.422   3.420 -0.2642  0.1358 -0.4926
  381DG     C11 8751   3.755   2.883   3.388  0.3222 -0.2957 -0.1231
  381DG     C12 8752   3.905   3.353   3.370  0.8691  0.7043  0.2703
  381DG     H13 8753   3.749   2.804   3.314  2.5686  2.2949 -3.3459
  381DG     H14 8754   3.823   2.848   3.466 -0.6645 -1.6263  0.1668
  381DG     H15 8755   3.973   3.336   3.453  0.8100 -0.6412  0.0580
  381DG     H16 8756   3.952   3.425   3.302 -0.3856  1.6599  0.3708
  381DG     C17 8757   3.798   3.004   3.307 -0.2862  0.8961  0.3044
  381DG     C18 8758   3.875   3.227   3.300  0.4233  0.5328  0.1913
  381DG     O19 8759   3.827   3.115   3.384 -0.2225  0.0851  0.9312
  381DG     H20 8760   3.725   3.031   3.231 -3.2639 -0.7296  2.3579
  381DG     H21 8761   3.887   2.978   3.250 -1.4574 -1.1604 -0.6935
  381DG     H22 8762   3.800   3.244   3.223 -0.3102  0.9804  0.9866
  381DG     H23 8763   3.962   3.187   3.247  0.5615 -0.8479  1.4167
  382DG      C1 8764   5.274   3.653   3.595  0.2191 -0.2534 -0.2813
  382DG      C2 8765   5.099   4.031   2.957  0.3427 -0.7296  0.1071
  382DG      H3 8766   5.257   3.546   3.591  0.7075 -0.4530  1.9365
  382DG      H4 8767   5.205   3.694   3.669  1.0400  3.0767 -1.1618
  382DG      H5 8768   5.372   3.670   3.639 -0.6441  0.6803  1.3791
  382DG      H6 8769   5.111   4.044   2.850  1.0488  1.2630  0.3877
  382DG      H7 8770   4.995   4.059   2.976  1.0720  1.9843  0.4576
  382DG      H8 8771   5.163   4.108   2.999 -0.5985  0.3745 -0.4193
  382DG      O9 8772   5.275   3.712   3.470  0.0542 -0.5759  0.7374
  382DG     O10 8773   5.110   3.896   2.996  0.2423 -0.5763 -0.7041
  382DG     C11 8774   5.172   3.665   3.385  0.6891  0.0742 -0.3038
  382DG     C12 8775   5.240   3.856   2.978 -0.0991  0.2641 -0.1391
  382DG     H13 8776   5.081   3.695   3.438  0.9470  0.8041 -0.2587
  382DG     H14 8777   5.180   3.557   3.373  0.4785 -0.1805  1.5944
  382DG     H15 8778   5.321   3.915   3.021  0.8017 -1.4729  0.6367
  382DG     H16 8779   5.251   3.859   2.869 -3.4399 -0.9098 -0.6364
  382DG     C17 8780   5.164   3.723   3.247  0.6801  0.1582  0.2688
  382DG     C18 8781   5.263   3.709   3.026  0.1891  0.9724 -0.3410
  382DG     O19 8782   5.273   3.683   3.166  0.0487  0.5564 -0.1413
  382DG     H20 8783   5.154   3.831   3.257  0.5733  0.4280 -2.2256
  382DG     H21 8784   5.070   3.695   3.201  0.7112 -0.5773  0.6371
  382DG     H22 8785   5.179   3.651   2.986  0.1993  1.8588 -1.6881
  382DG     H23 8786   5.356   3.676   2.981 -0.5291 -0.5470 -0.7930
  383DG      C1 8787   1.253   4.725   3.546  0.2370  0.6492 -0.3635
  383DG      C2 8788   1.663   4.473   3.573  0.1848 -0.1346 -0.1275
  383DG      H3 8789   1.330   4.698   3.474  0.9740  1.0036  0.2703
  383DG      H4 8790   1.279   4.667   3.635  1.6105 -1.8890 -2.2982
  383DG      H5 8791   1.260   4.831   3.569  0.2158  0.3883  0.9630
  383DG      H6 8792   1.729   4.447   3.490 -0.3248  1.7322 -1.1826
  383DG      H7 8793   1.703   4.569   3.606  1.8954 -0.3027 -1.6163
  383DG      H8 8794   1.667   4.408   3.660 -0.9387  0.0741  0.1014
  383DG      O9 8795   1.122   4.709   3.491  0.2192  0.6047  0.4611
  383DG     O10 8796   1.524   4.485   3.525  0.6177 -0.0256 -0.1618
  383DG     C11 8797   1.075   4.577   3.448  0.0529 -1.0139 -0.3518
  383DG     C12 8798   1.461   4.357   3.505  0.4705  0.3353  0.7491
  383DG     H13 8799   1.111   4.567   3.346  1.1819 -1.3666  0.0673
  383DG     H14 8800   0.967   4.592   3.442 -0.4184 -3.4936  0.9375
  383DG     H15 8801   1.453   4.299   3.597  0.3181 -1.8739 -0.5948
  383DG     H16 8802   1.525   4.297   3.440  1.4808  1.8813  0.2573
  383DG     C17 8803   1.104   4.463   3.544  0.3030  0.1817 -0.0611
  383DG     C18 8804   1.315   4.371   3.459 -0.4601  0.1799 -0.1699
  383DG     O19 8805   1.242   4.435   3.565 -0.2515 -0.3192  0.0446
  383DG     H20 8806   1.049   4.375   3.511  0.7053 -0.2939  0.5175
  383DG     H21 8807   1.069   4.482   3.645  1.0607 -0.1883  0.2780
  383DG     H22 8808   1.319   4.433   3.369 -1.2228  0.8403  0.2332
  383DG     H23 8809   1.267   4.277   3.432  0.3054 -0.3759  0.3874
  384DG      C1 8810   5.486   0.396   2.956 -0.1002 -0.6080  0.0309
  384DG      C2 8811   6.091   0.435   2.545 -0.5962  0.2207 -0.6195
  384DG      H3 8812   5.425   0.316   2.915  0.4487 -2.4471  2.5947
  384DG      H4 8813   5.396   0.451   2.985  0.3529  0.2376 -0.1461
  384DG      H5 8814   5.536   0.372   3.050  1.3581 -2.5477 -1.1722
  384DG      H6 8815   6.160   0.493   2.483  1.1485  0.6446  1.6032
  384DG      H7 8816   6.147   0.412   2.635 -0.1117  2.2413 -0.3429
  384DG      H8 8817   6.064   0.349   2.484 -0.1116  0.3516 -1.0360
  384DG      O9 8818   5.546   0.482   2.861  0.7565  0.1365  0.0058
  384DG     O10 8819   5.970   0.499   2.577  0.4696  0.1436 -0.5701
  384DG     C11 8820   5.582   0.614   2.917  0.9652  0.0355 -0.3612
  384DG     C12 8821   5.978   0.629   2.630 -0.0360 -0.0764 -0.6579
  384DG     H13 8822   5.639   0.604   3.010  1.9141 -3.3056 -1.1631
  384DG     H14 8823   5.486   0.664   2.930  1.3778  1.0333 -0.9930
  384DG     H15 8824   6.029   0.703   2.567 -0.1271 -0.0393 -0.6876
  384DG     H16 8825   6.042   0.629   2.718 -0.9348 -3.2653  0.1346
  384DG     C17 8826   5.663   0.698   2.812 -0.4151  0.2405 -0.5294
  384DG     C18 8827   5.843   0.696   2.657 -0.5048 -0.3018 -0.3182
  384DG     O19 8828   5.770   0.628   2.755 -0.4161 -0.7293 -0.0207
  384DG     H20 8829   5.695   0.788   2.864 -0.3673  0.4916 -0.9941
  384DG     H21 8830   5.603   0.731   2.727 -2.1977 -3.2568 -0.8152
  384DG     H22 8831   5.870   0.799   2.683  1.1141 -0.8120  0.1514
  384DG     H23 8832   5.792   0.693   2.561 -0.8703 -2.7806 -0.1005
  385DG      C1 8833   3.994   4.108   4.633  0.3703 -0.5764  0.3529
  385DG      C2 8834   4.347   3.626   4.843 -0.2476  0.8564 -0.3478
  385DG      H3 8835   4.003   4.041   4.547 -1.8350 -0.7949  0.2462
  385DG      H4 8836   4.086   4.144   4.679 -0.3069 -0.4697  1.6653
  385DG      H5 8837   3.945   4.195   4.589 -4.0144 -2.5550  0.8125
  385DG      H6 8838   4.346   3.571   4.937  0.8303 -0.1258 -0.8732
  385DG      H7 8839   4.282   3.585   4.765  0.6245  0.2248 -0.7618
  385DG      H8 8840   4.451   3.618   4.812 -0.2402  0.5049 -0.2419
  385DG      O9 8841   3.927   4.049   4.743  0.5162  0.6420 -0.7418
  385DG     O10 8842   4.306   3.755   4.877 -0.1225  0.1413  0.6360
  385DG     C11 8843   3.817   3.967   4.720 -0.4274 -0.4657 -0.0707
  385DG     C12 8844   4.169   3.774   4.924  0.0491 -0.7594  0.2938
  385DG     H13 8845   3.759   4.000   4.633  0.6663  1.7134 -0.0340
  385DG     H14 8846   3.755   3.977   4.809  0.6916  0.2587  0.6401
  385DG     H15 8847   4.163   3.861   4.988 -0.6413 -1.4008  1.1117
  385DG     H16 8848   4.131   3.692   4.984 -0.8690 -0.5414  0.0233
  385DG     C17 8849   3.866   3.818   4.724 -0.2772  0.4275 -0.4729
  385DG     C18 8850   4.090   3.798   4.800  0.0571  0.1003  0.4931
  385DG     O19 8851   3.955   3.810   4.837  0.9610 -0.0382  0.0383
  385DG     H20 8852   3.916   3.799   4.629 -2.1246 -1.1500 -1.2203
  385DG     H21 8853   3.789   3.749   4.759  0.0694  0.5331  0.5290
  385DG     H22 8854   4.132   3.883   4.746  2.1047 -1.7256 -0.9907
  385DG     H23 8855   4.101   3.722   4.722 -0.2484  1.5882 -1.0502
  386DG      C1 8856   5.400   5.000   3.340 -0.7964 -0.2702 -0.1517
  386DG      C2 8857   5.442   5.481   2.864 -0.1036 -0.1560  0.4048
  386DG      H3 8858   5.459   5.010   3.250  1.5883  1.2797  1.4798
  386DG      H4 8859   5.295   4.980   3.319 -1.0829  0.5270  0.4635
  386DG      H5 8860   5.451   4.922   3.397 -1.2466 -0.4246  0.0469
  386DG      H6 8861   5.539   5.471   2.815 -0.5200  0.1939 -0.5171
  386DG      H7 8862   5.370   5.408   2.828 -0.1144 -0.0173  0.1430
  386DG      H8 8863   5.414   5.584   2.840  0.5314  0.0290  0.4167
  386DG      O9 8864   5.413   5.137   3.386 -0.3095  0.4376 -0.0965
  386DG     O10 8865   5.450   5.467   3.007 -0.6207 -0.3540  0.3351
  386DG     C11 8866   5.546   5.173   3.423 -0.4020 -0.1131  0.2897
  386DG     C12 8867   5.585   5.465   3.052  1.0027  0.0764  0.0663
  386DG     H13 8868   5.617   5.123   3.357  0.2614  0.6926  0.3766
  386DG     H14 8869   5.559   5.151   3.529 -0.5334  0.5661  0.4548
  386DG     H15 8870   5.642   5.553   3.021 -0.6790  0.9008 -0.8311
  386DG     H16 8871   5.645   5.384   3.012 -0.9363 -2.0482  1.2321
  386DG     C17 8872   5.569   5.319   3.397 -0.5141  0.1172 -0.4302
  386DG     C18 8873   5.584   5.463   3.206 -0.1911  0.3308 -0.3487
  386DG     O19 8874   5.537   5.340   3.258  0.5805  0.5576  0.4874
  386DG     H20 8875   5.673   5.347   3.410 -0.4795  0.1490 -0.7587
  386DG     H21 8876   5.509   5.380   3.464 -0.2972  1.6592 -1.5870
  386DG     H22 8877   5.686   5.492   3.232 -0.4999  1.4767 -0.3448
  386DG     H23 8878   5.514   5.540   3.240 -1.7860 -1.6053  0.9937
  387DG      C1 8879   4.745   5.261   3.778 -0.1903 -0.5797 -0.0560
  387DG      C2 8880   4.983   5.540   4.406  0.0056  0.1834 -0.2315
  387DG      H3 8881   4.752   5.174   3.714  2.0335  0.0842 -0.8142
  387DG      H4 8882   4.704   5.345   3.721  1.7734  0.8763  0.5284
  387DG      H5 8883   4.674   5.230   3.854 -0.7775  0.0095 -0.3578
  387DG      H6 8884   5.064   5.610   4.428  0.3363 -0.3760  0.4069
  387DG      H7 8885   4.892   5.600   4.409 -1.3992 -1.7708 -1.1410
  387DG      H8 8886   4.981   5.455   4.475  0.0309  0.3927  0.0329
  387DG      O9 8887   4.869   5.302   3.825 -0.5209  0.2511 -0.3993
  387DG     O10 8888   5.000   5.487   4.267 -0.6579  0.4349 -0.2008
  387DG     C11 8889   4.947   5.186   3.862  0.1220 -0.0358 -0.0116
  387DG     C12 8890   5.075   5.367   4.271  0.3444 -0.8720 -0.5240
  387DG     H13 8891   4.963   5.116   3.780 -0.1311 -0.2963  0.1593
  387DG     H14 8892   4.900   5.120   3.935  1.0042  0.2034  0.7977
  387DG     H15 8893   5.024   5.288   4.326 -2.9713  1.3475 -0.1358
  387DG     H16 8894   5.160   5.397   4.333 -1.6013  1.3460  1.2563
  387DG     C17 8895   5.083   5.237   3.920 -0.4030  0.2368  0.3837
  387DG     C18 8896   5.138   5.319   4.144 -0.3061  0.2004  0.1577
  387DG     O19 8897   5.047   5.305   4.038  0.3229  0.0600 -0.2673
  387DG     H20 8898   5.138   5.305   3.856 -0.6153  1.5766  1.5693
  387DG     H21 8899   5.136   5.144   3.941 -0.9999 -0.3621 -0.6655
  387DG     H22 8900   5.208   5.391   4.102 -0.5951  0.1378 -0.4485
  387DG     H23 8901   5.202   5.232   4.156  1.4120  1.7132  2.7465
  388DG      C1 8902   3.688   1.842   2.770  0.4311  0.1938 -0.3732
  388DG      C2 8903   3.861   1.417   3.264 -0.4208  0.0736  0.0722
  388DG      H3 8904   3.609   1.771   2.748  1.6098 -1.2904  0.0069
  388DG      H4 8905   3.761   1.816   2.693  0.2662  1.3983 -0.9734
  388DG      H5 8906   3.658   1.945   2.751 -0.8889 -0.0329  0.3728
  388DG      H6 8907   3.921   1.382   3.347  1.9023  2.4980 -0.4359
  388DG      H7 8908   3.760   1.408   3.304  0.0881 -2.3062  0.9664
  388DG      H8 8909   3.879   1.339   3.190 -0.6573  2.0391 -2.1917
  388DG      O9 8910   3.733   1.831   2.906 -0.4992  0.5311 -0.0224
  388DG     O10 8911   3.904   1.545   3.215  0.7141  0.2697 -0.0878
  388DG     C11 8912   3.631   1.882   2.996 -0.1732 -0.1494  0.4158
  388DG     C12 8913   3.845   1.635   3.308 -0.0521 -0.0449 -0.0055
  388DG     H13 8914   3.537   1.834   2.968  0.2779 -2.0344  1.8907
  388DG     H14 8915   3.627   1.990   2.987  0.8644 -0.1308  0.0047
  388DG     H15 8916   3.895   1.730   3.292 -2.1019  1.0094 -0.5565
  388DG     H16 8917   3.860   1.607   3.412  1.0104 -0.8467 -0.3632
  388DG     C17 8918   3.668   1.849   3.143 -0.1541 -0.8040 -0.7340
  388DG     C18 8919   3.694   1.667   3.297 -0.6019  0.2056  0.1857
  388DG     O19 8920   3.664   1.712   3.160 -0.4313 -0.0785  0.5740
  388DG     H20 8921   3.598   1.901   3.208 -0.3123 -2.3766  0.4217
  388DG     H21 8922   3.769   1.886   3.158 -0.3462 -0.0589 -1.2105
  388DG     H22 8923   3.636   1.579   3.324  1.4224 -0.9949  0.8530
  388DG     H23 8924   3.660   1.738   3.372 -2.1421 -2.9494  2.7208
  389DG      C1 8925   1.618   4.614   4.642 -0.8332 -0.7524 -0.4805
  389DG      C2 8926   1.186   4.578   3.908  0.4020 -0.5030 -0.4640
  389DG      H3 8927   1.665   4.584   4.735  0.2099  0.9448 -0.4088
  389DG      H4 8928   1.572   4.704   4.682  2.7146  0.1272  2.0265
  389DG      H5 8929   1.706   4.627   4.579  0.0670  0.2013  0.9172
  389DG      H6 8930   1.249   4.542   3.828 -0.2219 -0.9312 -0.7717
  389DG      H7 8931   1.086   4.535   3.902  0.6433 -0.9984 -0.9015
  389DG      H8 8932   1.183   4.685   3.884  1.3073 -0.8244 -2.1256
  389DG      O9 8933   1.530   4.516   4.586 -0.1822 -0.2966  0.1408
  389DG     O10 8934   1.240   4.563   4.039 -0.3349 -0.0889 -0.0773
  389DG     C11 8935   1.490   4.563   4.458  0.4975  0.1563  0.2691
  389DG     C12 8936   1.276   4.428   4.056  0.0024  0.4747 -0.1521
  389DG     H13 8937   1.582   4.582   4.403  0.4720  0.2780  0.2698
  389DG     H14 8938   1.435   4.657   4.460  0.3684  0.0759  0.9183
  389DG     H15 8939   1.372   4.413   4.008  1.1423 -0.4873  2.2488
  389DG     H16 8940   1.203   4.361   4.011  1.0785 -0.6645 -0.2345
  389DG     C17 8941   1.406   4.453   4.400 -0.4224 -0.3313 -0.0573
  389DG     C18 8942   1.290   4.392   4.201  0.2117 -0.2214 -0.2540
  389DG     O19 8943   1.355   4.499   4.273 -0.0758 -0.0461  0.4351
  389DG     H20 8944   1.332   4.415   4.470 -1.1509 -3.7538 -2.4042
  389DG     H21 8945   1.474   4.369   4.381 -0.6224 -0.3331 -0.7980
  389DG     H22 8946   1.198   4.355   4.247 -0.3965  0.6630 -0.7370
  389DG     H23 8947   1.363   4.311   4.194 -0.7471 -0.9911 -1.6196
  390DG      C1 8948   4.491   4.583   3.919  0.0951  0.0173  0.0028
  390DG      C2 8949   4.493   5.213   4.413  0.5194  0.2129  0.1393
  390DG      H3 8950   4.516   4.525   4.008 -2.1899 -0.3110  0.4975
  390DG      H4 8951   4.568   4.574   3.843 -2.9136 -1.3758 -3.1430
  390DG      H5 8952   4.404   4.542   3.869  0.4035 -0.3178 -0.2640
  390DG      H6 8953   4.443   5.308   4.425 -0.5225 -0.5391  2.1347
  390DG      H7 8954   4.482   5.172   4.513 -1.4547  0.8072  0.2062
  390DG      H8 8955   4.589   5.243   4.371  0.7839 -0.8916 -0.0758
  390DG      O9 8956   4.462   4.719   3.961 -0.4435 -0.3535  0.4683
  390DG     O10 8957   4.422   5.132   4.314 -0.0953  0.4011  0.2024
  390DG     C11 8958   4.561   4.775   4.050 -0.1778  0.6964  0.4537
  390DG     C12 8959   4.428   5.187   4.184 -0.0415 -0.5218 -0.5626
  390DG     H13 8960   4.637   4.811   3.982 -0.6251  2.0046  0.6212
  390DG     H14 8961   4.595   4.696   4.118  2.2267  0.0601 -1.3926
  390DG     H15 8962   4.532   5.213   4.162 -0.0675  0.4219  0.4025
  390DG     H16 8963   4.382   5.286   4.178  1.8075  0.4818  0.8252
  390DG     C17 8964   4.501   4.893   4.128 -0.5182 -0.8549  0.2165
  390DG     C18 8965   4.373   5.090   4.078  0.3956  0.1624 -0.6582
  390DG     O19 8966   4.466   4.991   4.032 -0.4514 -0.5179 -0.6863
  390DG     H20 8967   4.566   4.939   4.203 -0.5326 -1.5167  0.6517
  390DG     H21 8968   4.414   4.869   4.188 -2.1131 -0.2529 -1.7653
  390DG     H22 8969   4.279   5.047   4.114  0.4210  0.3844 -0.3245
  390DG     H23 8970   4.352   5.151   3.990 -0.3291  1.3808  0.3214
  391DG      C1 8971   2.959   1.278   2.946 -0.1459  0.3509  0.1954
  391DG      C2 8972   2.893   1.145   3.579  0.1489 -0.1215  0.6214
  391DG      H3 8973   2.867   1.324   2.981  0.6432  2.0790  0.1569
  391DG      H4 8974   2.930   1.193   2.884 -0.6514  1.3186 -0.9376
  391DG      H5 8975   3.002   1.353   2.878  0.0503 -0.4978 -0.6380
  391DG      H6 8976   2.808   1.213   3.570  0.1868  0.3463  3.0565
  391DG      H7 8977   2.875   1.038   3.581  0.9415 -0.3128 -1.2729
  391DG      H8 8978   2.920   1.179   3.679 -1.0421 -0.1372  0.9585
  391DG      O9 8979   3.037   1.252   3.062  0.5406  0.0006 -0.1113
  391DG     O10 8980   2.997   1.176   3.484 -0.7018 -0.3951 -0.2716
  391DG     C11 8981   3.153   1.181   3.043  0.2402  0.7648 -0.0490
  391DG     C12 8982   3.105   1.086   3.498 -0.8022  0.2440  0.6894
  391DG     H13 8983   3.219   1.230   2.971  2.8157  1.0224  2.3383
  391DG     H14 8984   3.113   1.086   3.007  0.5211  0.6191  0.0204
  391DG     H15 8985   3.072   0.984   3.478 -1.8766  0.4686  1.2119
  391DG     H16 8986   3.147   1.079   3.598 -0.1813  0.4558  0.4461
  391DG     C17 8987   3.235   1.166   3.163  0.3538 -0.5251 -0.3920
  391DG     C18 8988   3.206   1.128   3.391  0.5946  0.1340 -0.2843
  391DG     O19 8989   3.143   1.150   3.271 -0.2534  0.0791 -0.3124
  391DG     H20 8990   3.298   1.253   3.181  0.1757 -0.5435  0.3322
  391DG     H21 8991   3.312   1.089   3.157  0.2125 -0.5860 -1.8004
  391DG     H22 8992   3.244   1.224   3.424 -0.0257  0.4693 -0.5262
  391DG     H23 8993   3.293   1.063   3.392 -0.0835 -0.8134  0.9622
  392DG      C1 8994   4.823   0.806   0.121 -0.6231 -0.0891  0.3113
  392DG      C2 8995   5.212   1.164   0.716  0.6951 -0.2068 -0.2694
  392DG      H3 8996   4.813   0.698   0.136 -0.2217 -0.0575  0.8485
  392DG      H4 8997   4.798   0.815   0.015 -4.4316  1.0443  1.1419
  392DG      H5 8998   4.745   0.862   0.173 -0.8316 -0.3425  0.2727
  392DG      H6 8999   5.195   1.270   0.732 -0.6868 -0.3519 -0.6413
  392DG      H7 9000   5.143   1.097   0.768  1.1704  0.0770  0.7388
  392DG      H8 9001   5.310   1.165   0.763  0.3621  0.8419  0.4132
  392DG      O9 9002   4.954   0.841   0.160 -0.1972 -0.4001 -0.0705
  392DG     O10 9003   5.217   1.141   0.577 -0.0029  0.0705 -0.2136
  392DG     C11 9004   4.992   0.980   0.152 -0.1212  0.4831 -1.0110
  392DG     C12 9005   5.255   1.011   0.536 -0.0157  0.3021 -0.7247
  392DG     H13 9006   4.937   1.045   0.220  1.3839 -1.1750  2.0034
  392DG     H14 9007   4.979   1.017   0.050 -2.7011  1.8691 -0.2709
  392DG     H15 9008   5.193   0.934   0.583  0.4119 -0.9591 -2.1658
  392DG     H16 9009   5.350   0.997   0.588 -2.5017 -1.9435  3.8916
  392DG     C17 9010   5.143   1.000   0.194 -0.1989  0.4878  0.1119
  392DG     C18 9011   5.272   0.983   0.385 -0.2465  0.1067  0.0930
  392DG     O19 9012   5.145   0.986   0.332  0.5901 -0.2470  0.0811
  392DG     H20 9013   5.184   1.096   0.163  0.9758  0.2192  0.7658
  392DG     H21 9014   5.201   0.918   0.151 -0.6017 -0.3523  1.1539
  392DG     H22 9015   5.338   1.060   0.346 -0.6698  0.5837  0.3024
  392DG     H23 9016   5.316   0.887   0.360  1.9711  1.0035  0.3683
  393DG      C1 9017   3.858   2.940   3.744 -0.6566  0.3548 -0.5389
  393DG      C2 9018   3.718   3.526   4.076 -0.0901  0.6098 -0.3143
  393DG      H3 9019   3.809   2.980   3.656 -0.5590 -0.2112 -0.8555
  393DG      H4 9020   3.783   2.896   3.810 -0.8929  0.4026 -0.7782
  393DG      H5 9021   3.940   2.871   3.727  0.3854  0.3288  3.4644
  393DG      H6 9022   3.687   3.458   4.155  0.3446  1.1200  0.2984
  393DG      H7 9023   3.729   3.622   4.126 -0.5715  0.6528 -0.2869
  393DG      H8 9024   3.647   3.552   3.997 -0.3501 -0.2812 -0.3894
  393DG      O9 9025   3.913   3.050   3.810  0.2560 -0.6525  0.0187
  393DG     O10 9026   3.842   3.467   4.026 -0.1622 -0.5618  0.0580
  393DG     C11 9027   4.013   3.119   3.737  0.3040  0.4303 -0.0137
  393DG     C12 9028   3.920   3.545   3.935 -0.3944 -0.4395 -0.5985
  393DG     H13 9029   3.976   3.160   3.643 -2.5486  0.3602  0.9844
  393DG     H14 9030   4.095   3.051   3.713  1.9836  1.8731  1.3450
  393DG     H15 9031   3.959   3.628   3.994  0.9655 -0.8726 -0.8568
  393DG     H16 9032   3.861   3.582   3.851  0.5859 -1.9660 -2.0196
  393DG     C17 9033   4.073   3.235   3.810 -0.0361 -0.2920  0.5086
  393DG     C18 9034   4.034   3.455   3.887 -0.1602 -0.6709  0.2694
  393DG     O19 9035   3.975   3.332   3.848  0.1462  0.6851 -0.3441
  393DG     H20 9036   4.153   3.269   3.744 -2.2062  0.4022 -1.9290
  393DG     H21 9037   4.115   3.185   3.897 -1.6799 -0.7375  1.0866
  393DG     H22 9038   4.085   3.491   3.797 -2.0366 -0.1841 -0.6582
  393DG     H23 9039   4.107   3.440   3.967  0.6827 -0.0670 -0.3646
  394DG      C1 9040   1.377   4.080   3.235  1.0169 -0.3594  0.4997
  394DG      C2 9041   1.731   3.858   2.786  0.2919  0.3839 -0.0522
  394DG      H3 9042   1.290   4.145   3.241  0.7530 -0.5761 -0.7515
  394DG      H4 9043   1.437   4.091   3.325  1.2493  0.1413  0.2837
  394DG      H5 9044   1.332   3.980   3.233 -1.8820  0.8294  1.2604
  394DG      H6 9045   1.703   3.805   2.695 -0.0997 -0.2597  0.4340
  394DG      H7 9046   1.836   3.887   2.794 -0.4641  2.7468  3.6038
  394DG      H8 9047   1.705   3.779   2.857  1.2592 -1.1476 -1.3186
  394DG      O9 9048   1.464   4.099   3.123  0.1367 -0.1896  0.2735
  394DG     O10 9049   1.651   3.975   2.791  0.1641 -0.2363 -0.5327
  394DG     C11 9050   1.543   4.216   3.124  0.0523  0.5986 -0.2442
  394DG     C12 9051   1.700   4.091   2.731  0.1249 -0.4673 -0.0565
  394DG     H13 9052   1.605   4.223   3.213  0.5200 -1.7474 -0.3252
  394DG     H14 9053   1.480   4.304   3.108 -1.5763 -0.5525 -0.3365
  394DG     H15 9054   1.712   4.082   2.623 -2.7146 -0.1505 -0.4780
  394DG     H16 9055   1.801   4.096   2.770 -0.1846  0.3887  0.6757
  394DG     C17 9056   1.632   4.207   2.995  0.4241 -0.4700 -0.0408
  394DG     C18 9057   1.613   4.215   2.758 -0.2809  0.3969  0.8049
  394DG     O19 9058   1.548   4.197   2.877  0.1262 -0.0044  0.3575
  394DG     H20 9059   1.695   4.119   3.009 -1.1863 -1.5085  0.8953
  394DG     H21 9060   1.708   4.286   2.992  2.4982 -2.3246  0.7739
  394DG     H22 9061   1.666   4.310   2.760 -2.5082  1.6834  1.8483
  394DG     H23 9062   1.538   4.220   2.679  0.7405 -3.6418 -0.6682
  395DG      C1 9063   2.755   2.668   1.212 -0.1186 -0.5463  0.2408
  395DG      C2 9064   2.738   2.749   0.385  0.3399  0.3931 -0.7832
  395DG      H3 9065   2.849   2.625   1.176  0.1269  0.0171  0.1941
  395DG      H4 9066   2.706   2.602   1.283  2.9203 -1.2506  1.8877
  395DG      H5 9067   2.805   2.744   1.272  0.5982 -2.1585  1.7749
  395DG      H6 9068   2.708   2.660   0.330  0.6782  0.1521 -0.5790
  395DG      H7 9069   2.726   2.835   0.319  2.3890  1.3014 -0.0635
  395DG      H8 9070   2.845   2.741   0.400  0.2901 -0.0430 -0.6517
  395DG      O9 9071   2.688   2.732   1.105 -0.0680 -0.1396  0.2468
  395DG     O10 9072   2.659   2.762   0.508  0.2612  0.3307 -0.0740
  395DG     C11 9073   2.638   2.638   1.012 -0.2744 -0.6010 -0.2915
  395DG     C12 9074   2.690   2.868   0.587 -0.3957  0.1044  0.9033
  395DG     H13 9075   2.565   2.581   1.068  0.5151  1.7855  3.5409
  395DG     H14 9076   2.715   2.566   0.984 -0.6927 -0.7132 -1.1750
  395DG     H15 9077   2.682   2.962   0.532  2.0365 -0.3384 -0.3757
  395DG     H16 9078   2.796   2.862   0.611 -0.6702  0.0899  2.1712
  395DG     C17 9079   2.577   2.705   0.888  0.1749 -0.1569 -0.2139
  395DG     C18 9080   2.613   2.865   0.712  0.0521  0.6773  0.1961
  395DG     O19 9081   2.677   2.776   0.814  0.8370 -0.1797  0.0200
  395DG     H20 9082   2.490   2.765   0.916 -2.1087 -2.0505 -2.7534
  395DG     H21 9083   2.524   2.636   0.822 -0.8433  1.1043 -0.7519
  395DG     H22 9084   2.607   2.966   0.753 -1.7948  0.6842 -0.0163
  395DG     H23 9085   2.514   2.832   0.683  0.3645  1.0223 -1.3368
  396DG      C1 9086   4.771   4.721   2.432  0.2217  0.2885 -0.2475
  396DG      C2 9087   4.927   4.375   2.856 -0.3126  0.4917 -0.4091
  396DG      H3 9088   4.686   4.657   2.457 -0.0907  1.2284  1.1828
  396DG      H4 9089   4.764   4.748   2.326 -1.4640 -2.4983 -0.9462
  396DG      H5 9090   4.745   4.813   2.485 -1.4887 -0.7211  0.7591
  396DG      H6 9091   4.876   4.356   2.762 -0.3449 -1.4689 -0.0377
  396DG      H7 9092   4.896   4.304   2.933  0.3331 -0.6181 -1.1423
  396DG      H8 9093   4.898   4.476   2.887  0.0641  0.2006  0.9732
  396DG      O9 9094   4.888   4.660   2.467  1.0497  0.2732  0.1578
  396DG     O10 9095   5.069   4.353   2.853  0.4250 -0.2849  0.2017
  396DG     C11 9096   4.916   4.538   2.399 -0.5430  0.0665 -0.8059
  396DG     C12 9097   5.142   4.461   2.808 -0.0927 -0.6113  0.4859
  396DG     H13 9098   4.906   4.542   2.291 -1.5053 -0.5321 -0.7552
  396DG     H14 9099   4.850   4.460   2.439  0.3528  0.2749  1.2336
  396DG     H15 9100   5.231   4.463   2.870  0.7722  1.8026 -0.7166
  396DG     H16 9101   5.093   4.554   2.838  0.9931  0.3035 -0.5298
  396DG     C17 9102   5.052   4.486   2.445  0.4138 -0.9117 -0.2289
  396DG     C18 9103   5.173   4.460   2.659  0.9136  0.1865  0.2659
  396DG     O19 9104   5.042   4.469   2.590  0.5485  0.0848  0.0463
  396DG     H20 9105   5.131   4.554   2.415 -1.5171  0.9629 -1.3236
  396DG     H21 9106   5.088   4.396   2.394  1.1833  0.2656 -1.8536
  396DG     H22 9107   5.228   4.549   2.629 -1.4942  1.6232 -0.1750
  396DG     H23 9108   5.239   4.378   2.631  1.6157  0.8149  0.0475
  397DG      C1 9109   0.229   0.652   1.668  0.1348 -0.2555  0.1300
  397DG      C2 9110   0.662   0.286   2.200  0.5180  0.1475 -0.7386
  397DG      H3 9111   0.130   0.695   1.676  0.0810  0.6744 -3.5913
  397DG      H4 9112   0.227   0.601   1.572  1.3806  1.9421 -1.1545
  397DG      H5 9113   0.291   0.742   1.665 -1.5645  0.9585 -0.0887
  397DG      H6 9114   0.745   0.356   2.214  0.8951 -0.0423 -1.8833
  397DG      H7 9115   0.658   0.234   2.296  2.3291 -1.7640 -1.6054
  397DG      H8 9116   0.681   0.221   2.114  0.7838  0.9002 -1.2595
  397DG      O9 9117   0.261   0.580   1.787  0.0624  0.0467  0.3347
  397DG     O10 9118   0.536   0.363   2.192 -0.2963  0.2612  0.4231
  397DG     C11 9119   0.244   0.649   1.909 -0.5058 -0.0870 -0.8377
  397DG     C12 9120   0.413   0.292   2.187 -0.8586  0.6346  0.1358
  397DG     H13 9121   0.158   0.715   1.903 -1.1431 -0.8818 -0.6477
  397DG     H14 9122   0.326   0.717   1.931 -1.2944  0.7933 -0.5586
  397DG     H15 9123   0.396   0.228   2.273 -0.0656 -0.0418 -0.1910
  397DG     H16 9124   0.417   0.226   2.100 -1.6096  1.8747 -0.8842
  397DG     C17 9125   0.210   0.555   2.022 -0.1679  0.1948  0.3363
  397DG     C18 9126   0.302   0.388   2.158  0.4854 -0.2866 -0.7294
  397DG     O19 9127   0.309   0.458   2.039 -0.6863  0.3752  0.2343
  397DG     H20 9128   0.120   0.501   1.990  0.7740 -0.5173 -1.2442
  397DG     H21 9129   0.194   0.618   2.109 -0.2812  1.1756 -0.3711
  397DG     H22 9130   0.210   0.331   2.162 -0.5642  1.3695 -0.0973
  397DG     H23 9131   0.297   0.464   2.236  0.5392 -3.2044  2.3576
  398DG      C1 9132   3.511   4.314   0.083  0.1123  0.8556  0.2397
  398DG      C2 9133   3.456   4.897  -0.350 -0.1989  0.3669 -0.1676
  398DG      H3 9134   3.425   4.367   0.044 -1.0766 -1.4701 -0.4790
  398DG      H4 9135   3.473   4.270   0.175 -3.3041  1.3351 -0.8138
  398DG      H5 9136   3.514   4.230   0.013 -1.4685  0.9408  0.0339
  398DG      H6 9137   3.557   4.892  -0.391  1.0179 -3.9094  2.6558
  398DG      H7 9138   3.383   4.862  -0.423  2.4575  1.5326 -3.6644
  398DG      H8 9139   3.421   4.996  -0.324  1.5563  0.8061  0.6586
  398DG      O9 9140   3.624   4.389   0.102 -0.3874  0.6043  0.0406
  398DG     O10 9141   3.472   4.820  -0.222 -0.0576  0.2904  0.4364
  398DG     C11 9142   3.603   4.494   0.191  0.2327 -0.2114  0.5872
  398DG     C12 9143   3.507   4.682  -0.247  0.0112  0.6397  0.7259
  398DG     H13 9144   3.708   4.521   0.207  1.0835 -3.5781  1.4640
  398DG     H14 9145   3.560   4.465   0.286  0.8093  0.3176  1.0168
  398DG     H15 9146   3.607   4.667  -0.288  0.1092 -0.4507  1.3398
  398DG     H16 9147   3.428   4.635  -0.305  0.3506  0.0482  0.7384
  398DG     C17 9148   3.517   4.609   0.129  0.6338 -0.2961 -0.2356
  398DG     C18 9149   3.491   4.609  -0.119  0.4128  0.1663 -0.4531
  398DG     O19 9150   3.562   4.652  -0.003 -0.1300 -0.5176 -0.0303
  398DG     H20 9151   3.534   4.693   0.196  3.0550 -0.7624 -0.1622
  398DG     H21 9152   3.412   4.582   0.136  0.5819  0.1222  0.8554
  398DG     H22 9153   3.385   4.612  -0.093  0.3784  2.0086 -0.6635
  398DG     H23 9154   3.522   4.506  -0.138  2.0962  0.5906 -0.1131
  399DG      C1 9155   5.354   1.116   5.077 -0.4244 -0.5284  0.0805
  399DG      C2 9156   5.047   0.555   4.829 -0.8134 -0.9792 -0.0268
  399DG      H3 9157   5.346   1.225   5.080  2.5075 -0.2075  3.6696
  399DG      H4 9158   5.459   1.108   5.049 -0.5624 -0.7318 -0.3993
  399DG      H5 9159   5.344   1.074   5.177  2.6413 -1.0758  0.2370
  399DG      H6 9160   4.989   0.510   4.748  0.3728 -0.0165 -1.4626
  399DG      H7 9161   5.148   0.522   4.805 -0.8005 -1.0605  0.1416
  399DG      H8 9162   5.017   0.513   4.925 -1.7110 -1.6144 -0.5727
  399DG      O9 9163   5.268   1.063   4.982  0.1443  0.0197 -0.3476
  399DG     O10 9164   5.040   0.697   4.825 -0.1057  0.3682  0.4343
  399DG     C11 9165   5.146   1.129   4.981  0.2259 -0.2690  0.0543
  399DG     C12 9166   4.908   0.753   4.830  0.8928 -0.0559 -0.2371
  399DG     H13 9167   5.160   1.237   4.975  0.3371 -0.3569 -1.7874
  399DG     H14 9168   5.089   1.108   5.072  0.0511 -1.7317 -0.3592
  399DG     H15 9169   4.881   0.752   4.936  0.3301 -4.0921 -0.2476
  399DG     H16 9170   4.835   0.707   4.764  0.8761 -4.6822  2.5800
  399DG     C17 9171   5.054   1.082   4.863  0.0252 -0.2773  0.2516
  399DG     C18 9172   4.922   0.900   4.792 -1.1780  0.1274  0.5711
  399DG     O19 9173   5.019   0.948   4.884 -0.5163 -0.2659  0.2801
  399DG     H20 9174   5.124   1.108   4.784  0.1483  1.4330  0.8625
  399DG     H21 9175   4.964   1.143   4.856  0.5613  0.4646 -0.3884
  399DG     H22 9176   4.954   0.917   4.690 -1.8132 -2.0184 -0.0305
  399DG     H23 9177   4.828   0.955   4.797 -0.8943  0.9615 -1.9607
  400DG      C1 9178   3.653   1.195   1.941  0.4131  0.0750 -0.1385
  400DG      C2 9179   3.255   0.651   2.117  0.3653 -0.5266 -0.4159
  400DG      H3 9180   3.679   1.175   1.836 -0.5984 -0.0915 -0.3632
  400DG      H4 9181   3.728   1.139   1.997  0.1827 -0.0035  0.0918
  400DG      H5 9182   3.671   1.302   1.951  0.2121  0.0373  0.6768
  400DG      H6 9183   3.318   0.705   2.188 -1.5430  1.4668 -0.1274
  400DG      H7 9184   3.169   0.609   2.169  0.3153 -2.1188 -1.7134
  400DG      H8 9185   3.317   0.575   2.071  0.8816  0.1416 -0.8451
  400DG      O9 9186   3.522   1.147   1.968  0.0246  0.0541 -0.3159
  400DG     O10 9187   3.218   0.743   2.012 -0.3742 -0.3298  0.3660
  400DG     C11 9188   3.492   1.155   2.109 -0.0670 -0.2711  0.5684
  400DG     C12 9189   3.125   0.845   2.053  0.4572 -0.6602  0.8739
  400DG     H13 9190   3.537   1.241   2.160 -2.6802 -0.1944  2.9860
  400DG     H14 9191   3.557   1.076   2.146  1.1031  0.4868  0.1973
  400DG     H15 9192   3.033   0.800   2.090 -2.1308  1.7899 -2.1008
  400DG     H16 9193   3.096   0.892   1.959  0.8287 -1.3513  0.3976
  400DG     C17 9194   3.342   1.134   2.127  0.6035 -0.1095 -0.2056
  400DG     C18 9195   3.177   0.961   2.141  0.2621 -0.5343 -0.1675
  400DG     O19 9196   3.297   1.005   2.081 -0.1114  0.2166 -0.0340
  400DG     H20 9197   3.282   1.205   2.071  0.2897 -0.8732 -0.8569
  400DG     H21 9198   3.330   1.146   2.234  1.7159  0.6394 -0.1402
  400DG     H22 9199   3.105   1.042   2.128  3.0230  1.9300 -1.1006
  400DG     H23 9200   3.180   0.929   2.245  0.7764  0.7486  0.2332
  401DG      C1 9201   0.008   2.472   5.051  0.1820 -0.4214  0.0955
  401DG      C2 9202   0.248   2.410   5.867 -0.0840 -0.1428 -0.1475
  401DG      H3 9203  -0.079   2.516   5.002  0.9188  0.8235 -0.1165
  401DG      H4 9204  -0.021   2.370   5.079  0.9172 -0.1002  2.2609
  401DG      H5 9205   0.097   2.473   4.989  0.6035  2.2343  0.6083
  401DG      H6 9206   0.265   2.440   5.971 -0.3498 -1.0104  0.1528
  401DG      H7 9207   0.190   2.318   5.874  0.5640 -0.5677 -0.2482
  401DG      H8 9208   0.339   2.370   5.823 -0.2286 -0.2413 -0.3587
  401DG      O9 9209   0.040   2.535   5.171 -0.3791  0.5662  0.3234
  401DG     O10 9210   0.160   2.495   5.802  0.2150 -1.2583  0.3662
  401DG     C11 9211  -0.073   2.555   5.254  0.2543 -0.0115  0.1264
  401DG     C12 9212   0.117   2.447   5.673  0.4803 -1.0250  0.3280
  401DG     H13 9213  -0.119   2.457   5.267  1.8063 -0.8750 -0.5813
  401DG     H14 9214  -0.133   2.632   5.206 -0.4414 -0.9388 -0.5315
  401DG     H15 9215   0.043   2.368   5.681  0.3557 -1.4689 -3.3709
  401DG     H16 9216   0.195   2.397   5.616  1.4854  1.6394 -0.8006
  401DG     C17 9217  -0.028   2.612   5.388 -0.9848 -0.6927 -0.8430
  401DG     C18 9218   0.057   2.562   5.602  0.7484 -0.6284  0.8578
  401DG     O19 9219   0.037   2.520   5.471  0.1593  0.2490 -0.2277
  401DG     H20 9220  -0.116   2.643   5.444 -0.8752  0.8310 -1.4584
  401DG     H21 9221   0.031   2.701   5.367 -0.0074 -0.3100  2.8449
  401DG     H22 9222  -0.034   2.603   5.647 -0.3329  1.1151 -2.5619
  401DG     H23 9223   0.127   2.646   5.608  1.1768 -1.0627  2.2365
  402DG      C1 9224   4.661   2.466   1.341 -0.1724  0.2245 -0.3726
  402DG      C2 9225   4.399   1.798   1.078  0.0986  0.1290  0.2707
  402DG      H3 9226   4.568   2.518   1.317 -1.3542 -1.5307  0.2335
  402DG      H4 9227   4.738   2.479   1.265  1.0881  0.1577  0.8462
  402DG      H5 9228   4.699   2.517   1.430  1.6517  1.7635 -1.9405
  402DG      H6 9229   4.399   1.806   0.970 -2.2637  1.8587  0.3369
  402DG      H7 9230   4.401   1.691   1.100 -2.4240  0.3563  2.0102
  402DG      H8 9231   4.306   1.846   1.109 -1.5791 -2.3164 -0.6767
  402DG      O9 9232   4.646   2.326   1.364 -0.0363  0.1991 -0.4002
  402DG     O10 9233   4.510   1.861   1.138  0.2780  0.8347 -0.3558
  402DG     C11 9234   4.775   2.259   1.362 -0.2713  0.0768 -0.0827
  402DG     C12 9235   4.501   2.002   1.117  0.2285  0.5285 -0.1668
  402DG     H13 9236   4.834   2.286   1.449 -0.2760  1.3541 -0.4537
  402DG     H14 9237   4.843   2.290   1.282 -1.3174  3.0768  0.0576
  402DG     H15 9238   4.413   2.036   1.172  0.2577  0.3688 -0.0183
  402DG     H16 9239   4.482   2.040   1.016 -0.2369  1.0878  0.1275
  402DG     C17 9240   4.753   2.110   1.385 -0.1733 -0.1764  0.0239
  402DG     C18 9241   4.632   2.068   1.177  0.8112  0.2110  1.0660
  402DG     O19 9242   4.631   2.063   1.320 -0.1636 -0.0780 -0.3483
  402DG     H20 9243   4.742   2.109   1.494  0.5126  0.7671  0.1190
  402DG     H21 9244   4.845   2.056   1.361  0.5643  0.4408  1.2996
  402DG     H22 9245   4.726   2.027   1.141  0.6660  0.2441  0.6398
  402DG     H23 9246   4.630   2.169   1.134 -0.2497 -0.9734 -1.9615
  403DG      C1 9247   1.384   0.965   4.839  0.0703 -0.0588 -0.5338
  403DG      C2 9248   0.880   1.361   4.712  0.3815  0.2907 -0.0332
  403DG      H3 9249   1.438   1.050   4.798 -1.7593  0.7618 -1.3325
  403DG      H4 9250   1.421   0.882   4.779  0.6305  0.9108 -1.5709
  403DG      H5 9251   1.405   0.951   4.945  0.9790 -0.2629 -0.7339
  403DG      H6 9252   0.912   1.349   4.609 -0.9575  0.2240 -0.4513
  403DG      H7 9253   0.773   1.381   4.708  0.6037  1.4967 -0.3126
  403DG      H8 9254   0.933   1.449   4.750 -1.8822  0.5060  3.0214
  403DG      O9 9255   1.247   1.002   4.829  0.4300 -0.0140  0.4871
  403DG     O10 9256   0.908   1.247   4.795 -0.0551 -0.0908 -0.4615
  403DG     C11 9257   1.165   0.891   4.803  0.8385  0.0716 -0.5591
  403DG     C12 9258   0.805   1.148   4.781 -0.1707 -0.4036 -0.2954
  403DG     H13 9259   1.162   0.804   4.870 -0.7833  0.4122 -0.1439
  403DG     H14 9260   1.195   0.850   4.707  2.4078 -0.2560  0.0446
  403DG     H15 9261   0.810   1.094   4.686 -0.3530  0.4461 -0.8011
  403DG     H16 9262   0.706   1.193   4.789 -0.8818 -2.0316  0.5720
  403DG     C17 9263   1.014   0.939   4.789 -0.4123 -0.5507 -0.6117
  403DG     C18 9264   0.831   1.052   4.895 -0.7229  0.7485  0.1204
  403DG     O19 9265   0.971   1.006   4.906 -0.3413  0.1493  0.1270
  403DG     H20 9266   0.942   0.860   4.767  0.8256 -1.6787 -0.7036
  403DG     H21 9267   1.002   1.007   4.705  0.6938 -0.4426 -0.6943
  403DG     H22 9268   0.796   1.098   4.987  1.1964  1.4607  0.5496
  403DG     H23 9269   0.765   0.970   4.868 -1.3125  0.8770  1.1196
  404DG      C1 9270   0.352   1.759   2.195 -0.6608 -0.4949 -0.5843
  404DG      C2 9271  -0.243   1.650   1.887  0.3226 -0.5712  0.3317
  404DG      H3 9272   0.456   1.773   2.168 -1.5038  2.7314 -2.6703
  404DG      H4 9273   0.340   1.718   2.296 -1.3951 -0.4155 -0.6319
  404DG      H5 9274   0.313   1.861   2.193  0.2626 -0.1436 -1.4766
  404DG      H6 9275  -0.196   1.677   1.793  0.2609 -1.5907 -0.0067
  404DG      H7 9276  -0.314   1.572   1.859  0.1371 -0.0547 -0.6938
  404DG      H8 9277  -0.301   1.735   1.924  3.0710  2.4496 -1.7336
  404DG      O9 9278   0.281   1.676   2.113 -0.3253 -0.2901 -0.0176
  404DG     O10 9279  -0.154   1.600   1.987  0.3602 -0.2600  0.2898
  404DG     C11 9280   0.334   1.542   2.092 -0.4008  0.3576  0.2316
  404DG     C12 9281  -0.121   1.469   1.968 -0.0948  0.7010  0.3708
  404DG     H13 9282   0.399   1.516   2.175  0.0629  2.5423  0.5983
  404DG     H14 9283   0.391   1.532   1.999 -1.3534 -0.0366 -0.3366
  404DG     H15 9284  -0.094   1.455   1.863  0.7563  1.7809  0.4383
  404DG     H16 9285  -0.212   1.415   1.994 -0.1246  1.0802  1.0691
  404DG     C17 9286   0.227   1.431   2.080 -0.1577  0.8447 -0.1319
  404DG     C18 9287  -0.014   1.424   2.060  0.3429 -0.6485 -0.2573
  404DG     O19 9288   0.107   1.496   2.035 -0.0467  0.2906  0.1404
  404DG     H20 9289   0.219   1.390   2.180 -1.6394 -0.9510 -0.9200
  404DG     H21 9290   0.265   1.347   2.020 -1.0425  0.2772  0.0874
  404DG     H22 9291  -0.053   1.432   2.162  0.9989 -1.8721  0.1133
  404DG     H23 9292  -0.002   1.317   2.040  0.0899 -0.6620 -0.3357
  405DG      C1 9293   2.589   1.887   2.822 -0.5055 -0.1179  0.2455
  405DG      C2 9294   2.063   1.758   2.459  0.1682  0.9569  0.0794
  405DG      H3 9295   2.619   1.936   2.729 -2.3252 -0.0474 -0.3384
  405DG      H4 9296   2.635   1.789   2.825  3.8424  1.6491 -0.8627
  405DG      H5 9297   2.635   1.941   2.905 -0.0806 -1.3057  0.8004
  405DG      H6 9298   2.020   1.658   2.453  0.5413  0.8557 -4.2023
  405DG      H7 9299   1.994   1.834   2.425  0.0863  1.1695  0.7133
  405DG      H8 9300   2.147   1.761   2.389 -0.7565 -2.4784 -1.3943
  405DG      O9 9301   2.444   1.882   2.833  0.4057  0.1523 -0.3389
  405DG     O10 9302   2.110   1.793   2.582 -0.2001  0.1415  0.3214
  405DG     C11 9303   2.386   2.007   2.883 -0.0913  0.4919  0.0222
  405DG     C12 9304   2.005   1.836   2.668 -0.6194 -0.1067  0.7385
  405DG     H13 9305   2.379   2.084   2.806 -1.4416  0.9876  0.6087
  405DG     H14 9306   2.432   2.067   2.961 -1.6853  0.6612  0.8765
  405DG     H15 9307   1.926   1.762   2.677  0.1458 -0.8056  1.8735
  405DG     H16 9308   1.948   1.926   2.643  1.7821  1.2291 -0.3312
  405DG     C17 9309   2.236   1.977   2.927 -0.2428  0.0369 -0.4572
  405DG     C18 9310   2.059   1.859   2.807  0.0675 -0.5450 -0.3861
  405DG     O19 9311   2.174   1.942   2.803  0.7978 -0.0231 -0.0592
  405DG     H20 9312   2.182   2.048   2.989  0.8097  0.4019  0.0599
  405DG     H21 9313   2.239   1.891   2.995  2.5289  0.1158 -0.3728
  405DG     H22 9314   1.982   1.902   2.872 -0.9248 -1.0880 -1.1817
  405DG     H23 9315   2.095   1.763   2.846  0.7425 -1.4964 -3.1497
  406DG      C1 9316   4.725   3.477   1.983  0.5217 -0.1264  0.7340
  406DG      C2 9317   4.843   2.791   2.112  0.9133  0.3597 -1.0688
  406DG      H3 9318   4.770   3.516   2.074 -1.3831  1.9608  0.8874
  406DG      H4 9319   4.654   3.555   1.957  2.6258  1.7945  0.3887
  406DG      H5 9320   4.797   3.475   1.900  0.5671 -1.2056  0.7882
  406DG      H6 9321   4.933   2.756   2.060  0.1434  0.4828 -2.5355
  406DG      H7 9322   4.788   2.715   2.166  2.0502  0.8698  0.8899
  406DG      H8 9323   4.782   2.829   2.030 -2.5095 -1.0766  0.6379
  406DG      O9 9324   4.680   3.343   1.996  0.6355 -0.2788 -0.5482
  406DG     O10 9325   4.866   2.910   2.190  0.0416 -0.5379 -0.3538
  406DG     C11 9326   4.585   3.349   2.102 -0.3424  0.2241  0.8991
  406DG     C12 9327   4.771   2.945   2.293 -0.6633 -0.2611 -0.0841
  406DG     H13 9328   4.496   3.401   2.067 -1.1593 -1.0736  1.0014
  406DG     H14 9329   4.614   3.409   2.189 -0.4825  2.0609 -0.2861
  406DG     H15 9330   4.809   3.027   2.355 -1.3441  1.5955 -1.9936
  406DG     H16 9331   4.755   2.856   2.354  1.7695  0.4795  1.8003
  406DG     C17 9332   4.545   3.207   2.141  0.3257 -0.1808 -0.1370
  406DG     C18 9333   4.639   3.006   2.245  0.3548 -0.5302 -0.6907
  406DG     O19 9334   4.653   3.141   2.202  0.9919 -0.2090  0.5703
  406DG     H20 9335   4.500   3.156   2.056  0.2417  0.7339 -0.6448
  406DG     H21 9336   4.465   3.198   2.214 -1.3894  0.1763 -1.9070
  406DG     H22 9337   4.583   2.942   2.177 -1.3337 -0.2412  0.3534
  406DG     H23 9338   4.569   3.000   2.329 -1.1477 -4.1041 -2.0299
  407DG      C1 9339   2.663   1.391   3.780  0.6051 -0.6347  0.3519
  407DG      C2 9340   2.541   0.991   4.340  0.0727 -0.4040 -0.0593
  407DG      H3 9341   2.761   1.418   3.740  0.7698  0.7606  1.6019
  407DG      H4 9342   2.585   1.462   3.752  0.5661 -1.3834 -1.5730
  407DG      H5 9343   2.641   1.300   3.724 -2.1437  0.1557 -0.0045
  407DG      H6 9344   2.513   0.915   4.267 -1.2714  0.2007 -0.1901
  407DG      H7 9345   2.591   0.948   4.427  1.5358  0.7209 -0.3133
  407DG      H8 9346   2.439   1.022   4.363  0.3266  1.1413 -0.9453
  407DG      O9 9347   2.665   1.372   3.921 -0.0409 -0.1369  0.1666
  407DG     O10 9348   2.618   1.095   4.279  0.2122  0.2508 -0.0856
  407DG     C11 9349   2.680   1.497   3.989 -0.3056  0.6594  0.5284
  407DG     C12 9350   2.656   1.198   4.369 -0.0366  0.5347  0.1005
  407DG     H13 9351   2.584   1.549   3.982 -1.3571 -1.2929 -0.7209
  407DG     H14 9352   2.745   1.568   3.939  1.9621 -0.8437  1.1836
  407DG     H15 9353   2.712   1.167   4.457 -0.3106  1.2813  0.5551
  407DG     H16 9354   2.564   1.240   4.411  0.3083  0.9286  0.4703
  407DG     C17 9355   2.734   1.474   4.133 -0.1050 -0.0915  0.5270
  407DG     C18 9356   2.731   1.316   4.305 -0.1448 -0.6470 -0.2914
  407DG     O19 9357   2.660   1.363   4.195  0.0866  0.3873  0.2602
  407DG     H20 9358   2.729   1.566   4.191 -0.7813  0.0075  0.3140
  407DG     H21 9359   2.839   1.447   4.117 -0.1810  0.3046 -0.7041
  407DG     H22 9360   2.737   1.394   4.381  1.7859  0.1786 -1.2098
  407DG     H23 9361   2.834   1.287   4.283 -0.3853 -0.3014 -2.0060
  408DG      C1 9362   3.806   4.872   5.295  0.2171  0.1982 -1.0267
  408DG      C2 9363   3.920   4.433   4.854 -0.1600 -0.4956 -0.3013
  408DG      H3 9364   3.894   4.917   5.342  0.5214 -1.3848 -0.0066
  408DG      H4 9365   3.773   4.788   5.355 -2.1991  1.6943 -0.0965
  408DG      H5 9366   3.725   4.945   5.298  0.7845  0.8229 -0.4596
  408DG      H6 9367   4.024   4.401   4.864 -0.3385 -0.4155  2.6868
  408DG      H7 9368   3.873   4.393   4.943 -0.4312 -1.4833 -0.8781
  408DG      H8 9369   3.857   4.393   4.775 -0.4771  0.7988 -0.7279
  408DG      O9 9370   3.843   4.837   5.167 -0.0539  0.3058  0.9960
  408DG     O10 9371   3.899   4.574   4.869 -0.0595 -0.3503  0.6013
  408DG     C11 9372   3.919   4.941   5.108 -0.6162  0.2333  0.4316
  408DG     C12 9373   3.955   4.647   4.757 -0.2049  0.6136  0.4437
  408DG     H13 9374   4.018   4.933   5.154 -0.1216  0.7784 -0.5098
  408DG     H14 9375   3.886   5.040   5.137 -0.4618 -0.1684  2.0468
  408DG     H15 9376   3.913   4.624   4.659  0.7244 -0.3913  0.2675
  408DG     H16 9377   4.055   4.606   4.748 -0.2660  0.1828  1.4842
  408DG     C17 9378   3.924   4.945   4.954  0.9130  0.0459 -0.1228
  408DG     C18 9379   3.953   4.795   4.774  0.1348 -0.0214 -0.2654
  408DG     O19 9380   3.963   4.809   4.917  0.6105 -0.0382  0.2275
  408DG     H20 9381   3.989   5.020   4.910 -0.5315  1.4794  0.0852
  408DG     H21 9382   3.823   4.975   4.925  0.4853  0.1093  1.3372
  408DG     H22 9383   4.038   4.841   4.724  0.3415  0.2252  0.3075
  408DG     H23 9384   3.861   4.839   4.734  0.8296  2.4348  0.6765
  409DG      C1 9385   1.167   0.547   0.384 -0.1274 -0.0441 -0.0636
  409DG      C2 9386   0.696   0.970   0.016  0.5226  0.8778  0.0572
  409DG      H3 9387   1.122   0.533   0.483  0.2177 -1.0512 -0.0380
  409DG      H4 9388   1.275   0.537   0.396 -0.3456 -2.1360  0.5129
  409DG      H5 9389   1.129   0.464   0.323 -1.0329 -0.0722  0.5184
  409DG      H6 9390   0.641   1.022   0.094 -0.9506  0.5882 -0.7535
  409DG      H7 9391   0.693   1.017  -0.083  0.4460 -2.3183 -1.5930
  409DG      H8 9392   0.660   0.868   0.009  1.7193  0.5246 -1.9192
  409DG      O9 9393   1.120   0.662   0.319  0.5719  0.1414 -0.6500
  409DG     O10 9394   0.835   0.961   0.048 -0.1839  0.3916  0.3438
  409DG     C11 9395   1.169   0.786   0.371 -0.1820  0.3290  0.6157
  409DG     C12 9396   0.879   1.078   0.125 -0.2988 -0.3076  0.5521
  409DG     H13 9397   1.271   0.774   0.409 -0.3579  0.0625  1.0115
  409DG     H14 9398   1.097   0.802   0.451 -0.8707  1.2624 -0.1728
  409DG     H15 9399   0.822   1.089   0.217 -1.6680 -0.6574 -0.2211
  409DG     H16 9400   0.891   1.177   0.081  2.3816 -0.4895  0.7219
  409DG     C17 9401   1.164   0.890   0.257 -0.1064 -0.7377  0.1389
  409DG     C18 9402   1.022   1.043   0.147 -0.6496 -0.0157  0.1260
  409DG     O19 9403   1.034   0.922   0.216  0.2650 -0.5386  0.0986
  409DG     H20 9404   1.226   0.864   0.171  0.4663  2.3563 -0.5023
  409DG     H21 9405   1.220   0.976   0.294  0.4485 -0.7578 -0.6330
  409DG     H22 9406   1.080   1.029   0.056 -0.8493 -0.5845  0.0849
  409DG     H23 9407   1.079   1.116   0.205  1.0893 -2.9155  2.3861
  410DG      C1 9408   2.541   0.359   0.452 -0.3540 -0.3161  0.2493
  410DG      C2 9409   2.179  -0.052   0.824  0.1433 -0.6581 -0.2138
  410DG      H3 9410   2.585   0.459   0.456  0.8783 -0.8632  3.2983
  410DG      H4 9411   2.527   0.327   0.349  1.6754 -3.4198  0.8253
  410DG      H5 9412   2.611   0.294   0.505  1.0505  0.9336  0.0166
  410DG      H6 9413   2.111  -0.072   0.906 -1.6304  0.6856 -1.2728
  410DG      H7 9414   2.141  -0.117   0.745 -0.9269 -0.4288  0.0906
  410DG      H8 9415   2.279  -0.081   0.855  0.3139  1.8956  2.0062
  410DG      O9 9416   2.416   0.347   0.520  0.3282  0.4277 -0.2270
  410DG     O10 9417   2.183   0.082   0.786  0.0003  0.1229  1.0037
  410DG     C11 9418   2.311   0.428   0.465 -0.6416  0.6350  0.1412
  410DG     C12 9419   2.057   0.145   0.753  0.6004 -0.0041 -0.6247
  410DG     H13 9420   2.296   0.383   0.366  0.2072 -0.2519  0.4027
  410DG     H14 9421   2.348   0.530   0.459  1.4972  0.2677  4.1587
  410DG     H15 9422   1.987   0.143   0.836  0.5340 -1.0039 -0.6993
  410DG     H16 9423   1.997   0.095   0.677 -2.0125  4.2822 -1.7993
  410DG     C17 9424   2.198   0.445   0.569 -0.4033 -0.4865 -0.3372
  410DG     C18 9425   2.077   0.291   0.710  0.0436 -0.2026 -0.4957
  410DG     O19 9426   2.177   0.308   0.605 -0.2871  0.4539 -0.2844
  410DG     H20 9427   2.109   0.488   0.524 -0.4892 -1.1883 -0.8518
  410DG     H21 9428   2.232   0.507   0.652 -0.6650  1.2964 -1.5018
  410DG     H22 9429   1.980   0.337   0.690 -0.5688 -1.7059 -1.1614
  410DG     H23 9430   2.112   0.338   0.801  0.8529  0.8739 -1.3493
  411DG      C1 9431   1.374   2.277   4.272 -0.6844 -0.0420 -0.1992
  411DG      C2 9432   1.368   3.093   4.145  0.3025 -0.0700 -0.3220
  411DG      H3 9433   1.453   2.272   4.197 -1.9969  0.1937 -1.6532
  411DG      H4 9434   1.341   2.177   4.302 -0.7307  0.5556  1.8917
  411DG      H5 9435   1.405   2.332   4.360  0.2279  0.6523 -0.9381
  411DG      H6 9436   1.270   3.125   4.109  0.0128  0.0750  0.5793
  411DG      H7 9437   1.378   3.113   4.251 -1.2462 -1.2082  0.0719
  411DG      H8 9438   1.451   3.133   4.086  2.5684 -1.6134  1.6842
  411DG      O9 9439   1.266   2.326   4.200  0.0154  0.2731 -0.4534
  411DG     O10 9440   1.368   2.952   4.136 -0.6171  0.2456  0.3877
  411DG     C11 9441   1.242   2.470   4.213 -0.4820 -0.1264 -0.6419
  411DG     C12 9442   1.323   2.895   4.014 -0.2349  0.7539 -1.1827
  411DG     H13 9443   1.270   2.499   4.314 -0.1028 -1.4058 -0.3565
  411DG     H14 9444   1.136   2.489   4.202 -0.3268  0.6806 -0.7996
  411DG     H15 9445   1.377   2.940   3.930  0.8875  2.6552  0.4504
  411DG     H16 9446   1.218   2.920   3.999 -0.0171  1.6659 -1.2181
  411DG     C17 9447   1.322   2.550   4.110  0.1879 -0.1383 -0.3852
  411DG     C18 9448   1.345   2.746   3.991  0.1328 -0.0152 -0.6086
  411DG     O19 9449   1.273   2.684   4.099  0.0964  0.3716  0.2131
  411DG     H20 9450   1.313   2.497   4.016  2.4844 -0.8521 -0.2637
  411DG     H21 9451   1.430   2.542   4.123  0.0901 -3.1866 -0.8461
  411DG     H22 9452   1.316   2.706   3.893 -0.4737 -1.4497  0.1297
  411DG     H23 9453   1.452   2.724   3.993 -0.0761 -1.5407 -2.4756
  412DG      C1 9454   4.055   0.072   0.271 -0.1451 -0.7430 -0.1622
  412DG      C2 9455   4.042   0.241  -0.397  0.1531 -0.1673 -0.5006
  412DG      H3 9456   4.155   0.087   0.310  0.2420 -5.2063  1.1116
  412DG      H4 9457   4.028  -0.033   0.283 -1.0505 -0.6167 -0.9149
  412DG      H5 9458   3.995   0.140   0.331 -0.7088 -1.6242  0.2958
  412DG      H6 9459   4.150   0.255  -0.396  0.3025 -1.2306 -0.5965
  412DG      H7 9460   4.028   0.187  -0.304  0.2960 -0.4467 -0.6377
  412DG      H8 9461   4.012   0.178  -0.481  0.6227  1.1111 -1.6847
  412DG      O9 9462   4.033   0.115   0.139  0.1120 -0.0109  0.1988
  412DG     O10 9463   3.972   0.364  -0.377  0.0983  0.6216  0.0795
  412DG     C11 9464   3.901   0.093   0.102 -0.0007 -0.0212 -0.7150
  412DG     C12 9465   3.997   0.423  -0.251 -0.2028  0.3116  0.1215
  412DG     H13 9466   3.831   0.066   0.181  1.1756 -1.2817 -0.0763
  412DG     H14 9467   3.905   0.016   0.025  1.8669 -0.1178 -0.5511
  412DG     H15 9468   3.985   0.531  -0.259  1.4676  0.8013  3.0627
  412DG     H16 9469   4.103   0.417  -0.229  0.3154 -1.4095 -2.3475
  412DG     C17 9470   3.849   0.221   0.035  0.3650  0.3245  0.7505
  412DG     C18 9471   3.904   0.381  -0.140  0.2990  0.2161 -0.0421
  412DG     O19 9472   3.935   0.253  -0.079 -0.5641  0.0537 -0.0906
  412DG     H20 9473   3.847   0.314   0.092  0.7666  1.7776 -1.4494
  412DG     H21 9474   3.743   0.217   0.009  0.4644  0.0984  0.3714
  412DG     H22 9475   3.923   0.454  -0.061 -0.7893 -0.0234  0.4484
  412DG     H23 9476   3.800   0.391  -0.169  0.2192 -2.4057 -0.9146
  413DG      C1 9477   5.321   2.306   2.480 -0.0935  0.0241 -0.5136
  413DG      C2 9478   5.633   2.126   3.157  0.0862  0.0269 -0.2835
  413DG      H3 9479   5.243   2.257   2.538  0.8039  0.3798  1.0541
  413DG      H4 9480   5.348   2.235   2.402 -0.4993 -0.9129  0.1794
  413DG      H5 9481   5.293   2.407   2.450  1.2303  1.3145  2.1691
  413DG      H6 9482   5.731   2.137   3.203 -0.3947 -0.6196  0.9238
  413DG      H7 9483   5.560   2.161   3.230 -0.4248 -0.0414 -0.7464
  413DG      H8 9484   5.607   2.021   3.143 -3.3577  0.2594  2.7649
  413DG      O9 9485   5.442   2.318   2.554  0.6572 -0.5636 -0.2850
  413DG     O10 9486   5.631   2.208   3.040 -0.3979  0.4275 -0.2943
  413DG     C11 9487   5.450   2.411   2.665 -0.7953 -1.0248  0.0713
  413DG     C12 9488   5.719   2.151   2.938  0.6043  0.5608 -0.0941
  413DG     H13 9489   5.380   2.398   2.747  1.4197  1.3002  2.5391
  413DG     H14 9490   5.427   2.509   2.622  0.6142 -1.4487 -1.7962
  413DG     H15 9491   5.683   2.056   2.898 -0.1432  0.3455  1.0330
  413DG     H16 9492   5.813   2.131   2.990  0.8035 -0.8918 -0.9414
  413DG     C17 9493   5.593   2.393   2.719 -0.5521  0.5953  0.4842
  413DG     C18 9494   5.737   2.240   2.821 -0.4098  0.4868 -0.3687
  413DG     O19 9495   5.608   2.254   2.759  0.5723 -0.2355 -0.3451
  413DG     H20 9496   5.601   2.466   2.800 -3.5950  0.8097  0.7193
  413DG     H21 9497   5.669   2.407   2.643 -1.9405 -0.3573 -1.1614
  413DG     H22 9498   5.784   2.331   2.859 -1.2241  0.6351  0.3181
  413DG     H23 9499   5.802   2.198   2.745 -0.5029  1.7963 -1.2001
  414DG      C1 9500   1.694   4.607   1.467 -0.1085 -0.5441 -0.2033
  414DG      C2 9501   1.354   4.087   1.438  0.1957 -0.0472  0.2951
  414DG      H3 9502   1.744   4.586   1.561  0.4784  0.6326 -0.2380
  414DG      H4 9503   1.694   4.716   1.463 -1.1060 -0.4578  1.4352
  414DG      H5 9504   1.753   4.570   1.383  2.3723  0.1545  1.1611
  414DG      H6 9505   1.431   4.086   1.360  1.8295 -0.5443  1.8567
  414DG      H7 9506   1.377   4.019   1.520 -0.4641 -1.4845 -0.6586
  414DG      H8 9507   1.263   4.049   1.390 -0.4501  2.2184 -0.4070
  414DG      O9 9508   1.553   4.567   1.469  0.2919 -0.0997 -0.1864
  414DG     O10 9509   1.330   4.222   1.473 -0.5915 -0.0323  0.0130
  414DG     C11 9510   1.479   4.628   1.576  0.2952 -0.0798 -0.0869
  414DG     C12 9511   1.225   4.251   1.550  0.2468 -0.2770 -1.0430
  414DG     H13 9512   1.501   4.734   1.588  1.4112 -0.1697 -1.0739
  414DG     H14 9513   1.513   4.588   1.672 -1.3286 -2.7951 -0.5410
  414DG     H15 9514   1.243   4.226   1.655 -0.9269 -1.2452 -1.0569
  414DG     H16 9515   1.131   4.204   1.520 -1.2118  1.8441  0.0015
  414DG     C17 9516   1.330   4.599   1.544 -0.4422  0.2235  0.0607
  414DG     C18 9517   1.204   4.403   1.545 -0.6611 -0.5610 -0.1063
  414DG     O19 9518   1.324   4.463   1.573 -0.6610 -0.4458 -0.2113
  414DG     H20 9519   1.308   4.627   1.440 -1.7455 -2.3594 -0.4268
  414DG     H21 9520   1.256   4.662   1.593 -1.2034  1.4384 -2.4385
  414DG     H22 9521   1.161   4.412   1.445 -0.3628 -1.1561 -0.2917
  414DG     H23 9522   1.121   4.438   1.606 -0.3995 -0.0801 -0.0156
  415DG      C1 9523   4.567   3.699   1.474 -0.1500  0.3363  0.3602
  415DG      C2 9524   4.874   3.268   1.015  0.6878  0.9792  0.7597
  415DG      H3 9525   4.508   3.791   1.471  0.2713  0.5902 -1.4747
  415DG      H4 9526   4.662   3.717   1.523  1.2243  1.0061 -2.3744
  415DG      H5 9527   4.507   3.627   1.531  2.3038 -2.0528  0.1316
  415DG      H6 9528   4.971   3.224   0.988  0.0397  0.1552 -0.3119
  415DG      H7 9529   4.839   3.178   1.066  0.7543 -1.4701 -3.0812
  415DG      H8 9530   4.815   3.301   0.931  0.6044 -2.5220 -0.7416
  415DG      O9 9531   4.613   3.661   1.344 -0.3098  0.5982  0.0309
  415DG     O10 9532   4.898   3.376   1.100  0.0132 -0.3540 -0.1368
  415DG     C11 9533   4.675   3.773   1.280 -0.0765 -0.4039  0.4719
  415DG     C12 9534   4.951   3.492   1.031  0.8493 -0.1166 -0.1653
  415DG     H13 9535   4.773   3.789   1.326  0.4481  3.1478 -1.5311
  415DG     H14 9536   4.604   3.855   1.286 -0.0019 -0.3956  1.4673
  415DG     H15 9537   5.013   3.476   0.943  0.9560 -1.0957  0.0806
  415DG     H16 9538   5.011   3.548   1.103  0.8802  0.0729 -0.3378
  415DG     C17 9539   4.699   3.730   1.133  0.2833 -0.7346 -0.4042
  415DG     C18 9540   4.838   3.584   1.000  0.4231 -0.4367  0.2720
  415DG     O19 9541   4.798   3.631   1.127  0.0553 -0.4681 -0.0996
  415DG     H20 9542   4.734   3.816   1.076  0.3082 -1.3512 -1.3461
  415DG     H21 9543   4.603   3.705   1.088 -0.1891  3.1338 -1.9682
  415DG     H22 9544   4.875   3.669   0.943  0.9572  0.7627  2.2707
  415DG     H23 9545   4.758   3.536   0.945 -0.3175 -0.1209  1.0585
  416DG      C1 9546   4.622   4.748   1.538  0.4111 -0.1080 -0.0384
  416DG      C2 9547   4.643   5.508   1.799  0.2142  0.3008 -0.1613
  416DG      H3 9548   4.603   4.641   1.528  2.1458 -0.4351 -0.1848
  416DG      H4 9549   4.715   4.768   1.590 -0.2284  0.6963  0.8290
  416DG      H5 9550   4.631   4.778   1.433 -0.6021  1.0948  0.1944
  416DG      H6 9551   4.624   5.548   1.700  2.0745 -0.1546 -0.7356
  416DG      H7 9552   4.602   5.579   1.872 -1.5490 -0.0610 -0.7560
  416DG      H8 9553   4.752   5.510   1.805  0.3638 -0.0739 -2.2070
  416DG      O9 9554   4.520   4.826   1.599  0.2081 -0.0487 -0.1680
  416DG     O10 9555   4.578   5.385   1.824  0.5977 -0.1156  0.3828
  416DG     C11 9556   4.554   4.966   1.594  0.3622  0.8413  0.1150
  416DG     C12 9557   4.449   5.391   1.784  0.6801 -0.2761  1.1599
  416DG     H13 9558   4.544   5.005   1.493  0.8851 -1.0061 -0.6861
  416DG     H14 9559   4.652   4.983   1.637  0.0773 -1.4666  1.8836
  416DG     H15 9560   4.423   5.421   1.682 -1.0832  0.3846  1.7532
  416DG     H16 9561   4.397   5.451   1.859  0.4963 -0.0691  0.8741
  416DG     C17 9562   4.450   5.038   1.679  0.7312  0.0617  0.3458
  416DG     C18 9563   4.395   5.248   1.771  0.2010 -0.9733 -0.0824
  416DG     O19 9564   4.484   5.172   1.691 -0.3860  0.7422 -0.4861
  416DG     H20 9565   4.460   4.994   1.778  0.9885 -1.9528 -0.5331
  416DG     H21 9566   4.350   5.016   1.641  1.2242 -1.3429 -0.1843
  416DG     H22 9567   4.393   5.204   1.871  1.3642  0.1875  0.4840
  416DG     H23 9568   4.294   5.251   1.731 -0.4696 -0.3293  1.5899
  417DG      C1 9569   3.193   0.054   1.847 -0.8779 -0.1593 -0.1839
  417DG      C2 9570   3.402   0.326   1.667 -0.1086  1.2116 -0.7083
  417DG      H3 9571   3.262   0.073   1.929 -0.5818  2.1263 -0.8818
  417DG      H4 9572   3.257   0.049   1.758 -1.0767 -2.6449 -0.2729
  417DG      H5 9573   3.144  -0.042   1.863  0.6064 -0.9720 -0.2662
  417DG      H6 9574   3.317   0.259   1.670  1.8152 -1.4805 -2.5255
  417DG      H7 9575   3.424   0.340   1.561  2.4317  0.5697 -0.3233
  417DG      H8 9576   3.490   0.274   1.704  0.9525  2.2626 -1.6722
  417DG      O9 9577   3.103   0.161   1.840 -0.4714 -0.2998  0.2914
  417DG     O10 9578   3.373   0.445   1.742  0.2542 -0.5802 -0.5779
  417DG     C11 9579   3.031   0.147   1.719  0.2531 -0.3121  0.5988
  417DG     C12 9580   3.263   0.522   1.682 -0.3156  0.2535 -0.0583
  417DG     H13 9581   2.947   0.083   1.746 -0.7311  0.4972 -0.4893
  417DG     H14 9582   3.088   0.097   1.640 -0.0430 -1.5235  1.1197
  417DG     H15 9583   3.279   0.559   1.581 -1.1690  1.4128  0.2157
  417DG     H16 9584   3.260   0.613   1.743  2.1094 -0.4343  1.2330
  417DG     C17 9585   2.975   0.276   1.661 -0.1357  0.6652 -0.6639
  417DG     C18 9586   3.129   0.452   1.717  0.0393 -0.1376  0.0262
  417DG     O19 9587   3.081   0.360   1.619 -0.0945 -0.2514 -0.3150
  417DG     H20 9588   2.911   0.330   1.731 -2.2940 -1.3075 -1.0058
  417DG     H21 9589   2.900   0.252   1.586 -0.5403 -0.7393  0.1590
  417DG     H22 9590   3.139   0.399   1.812  0.9339  1.1219  0.6606
  417DG     H23 9591   3.058   0.532   1.739  0.8370 -0.0273  2.4122
  418DG      C1 9592   2.380   0.016   2.657  0.0467  0.1937 -0.0560
  418DG      C2 9593   2.572   0.615   2.730 -0.3057  0.1604 -0.6035
  418DG      H3 9594   2.312  -0.069   2.647 -0.2069  0.4671 -0.7143
  418DG      H4 9595   2.468  -0.026   2.705  0.9419 -0.4246 -2.1445
  418DG      H5 9596   2.407   0.067   2.565 -0.9249  0.9630  0.0617
  418DG      H6 9597   2.530   0.583   2.635 -0.9247 -0.5291 -0.1110
  418DG      H7 9598   2.555   0.722   2.747 -0.3852  0.3132 -1.6138
  418DG      H8 9599   2.680   0.601   2.733 -0.0643  1.8796 -0.0822
  418DG      O9 9600   2.316   0.104   2.737  0.2247 -0.3193  0.5917
  418DG     O10 9601   2.494   0.537   2.819  0.7143  0.2176  0.2959
  418DG     C11 9602   2.217   0.183   2.667 -0.4705  0.3980  0.1821
  418DG     C12 9603   2.362   0.589   2.832  0.0246 -0.3927  0.6049
  418DG     H13 9604   2.135   0.116   2.640 -0.9177  1.3609 -0.9136
  418DG     H14 9605   2.251   0.218   2.570  0.9001  1.3491  0.9781
  418DG     H15 9606   2.326   0.638   2.742  0.9778 -0.6185  0.0827
  418DG     H16 9607   2.355   0.674   2.900  0.4543  0.0305  0.1339
  418DG     C17 9608   2.179   0.297   2.765 -0.6339 -0.2728  0.5978
  418DG     C18 9609   2.274   0.478   2.876 -0.7408 -0.4250  0.0829
  418DG     O19 9610   2.299   0.364   2.789  0.1641  0.8306  0.0145
  418DG     H20 9611   2.138   0.242   2.850 -2.2023  1.5923  1.1408
  418DG     H21 9612   2.107   0.362   2.716  1.0784  3.4155  2.5979
  418DG     H22 9613   2.294   0.449   2.979  0.2652 -0.3481 -0.0800
  418DG     H23 9614   2.171   0.512   2.865 -1.1269 -1.7935 -0.8348
  419DG      C1 9615   2.203   2.306   4.794  0.1077 -0.6867 -0.0087
  419DG      C2 9616   1.708   2.189   5.162  0.7768  0.5138 -0.3525
  419DG      H3 9617   2.273   2.381   4.757 -2.5650  2.5374  1.0489
  419DG      H4 9618   2.191   2.227   4.719  0.2907 -2.0034  1.2896
  419DG      H5 9619   2.254   2.247   4.871 -0.4164 -0.1999  0.7170
  419DG      H6 9620   1.637   2.122   5.113  1.3988  0.2916 -0.9669
  419DG      H7 9621   1.802   2.146   5.196 -0.6033 -3.7100 -1.3129
  419DG      H8 9622   1.652   2.230   5.246  3.8125 -0.2976  2.2533
  419DG      O9 9623   2.083   2.369   4.837  0.1388  0.4573 -0.0107
  419DG     O10 9624   1.758   2.294   5.087 -0.2884 -0.0833 -0.1190
  419DG     C11 9625   2.020   2.450   4.734  0.7089  0.1374 -0.1645
  419DG     C12 9626   1.672   2.406   5.077  0.3125  0.5859 -0.5677
  419DG     H13 9627   1.974   2.395   4.651 -1.5842  2.3112 -0.4674
  419DG     H14 9628   2.086   2.524   4.691 -0.0130  0.8082 -0.1493
  419DG     H15 9629   1.667   2.451   5.176  0.1463  0.9624 -0.7436
  419DG     H16 9630   1.570   2.377   5.049  0.2111 -0.2719  0.6107
  419DG     C17 9631   1.906   2.528   4.811  0.3495  0.2402 -0.0639
  419DG     C18 9632   1.745   2.506   4.988 -0.0748 -0.1548  1.0204
  419DG     O19 9633   1.813   2.436   4.880  0.1835  0.1472  0.5310
  419DG     H20 9634   1.842   2.581   4.741  1.4050  1.6589 -0.0005
  419DG     H21 9635   1.947   2.596   4.885  1.5716  0.6144 -1.0576
  419DG     H22 9636   1.668   2.573   4.949 -0.0868 -1.3262 -1.0641
  419DG     H23 9637   1.815   2.565   5.047 -0.0626  0.3608  0.4999
  420DG      C1 9638   0.367   4.937   1.435 -0.1969  0.1810 -0.7957
  420DG      C2 9639   0.139   4.866   0.850 -0.6991 -0.1779 -0.1130
  420DG      H3 9640   0.416   4.976   1.524 -2.1941 -1.1639  1.0235
  420DG      H4 9641   0.408   4.839   1.408 -2.1792 -0.6941 -0.8282
  420DG      H5 9642   0.264   4.919   1.467  0.1764 -0.9473 -0.1516
  420DG      H6 9643   0.109   4.764   0.874 -0.4911  0.1798  1.8937
  420DG      H7 9644   0.063   4.935   0.888 -0.3455  1.7935 -2.7423
  420DG      H8 9645   0.136   4.883   0.742 -2.3825  0.6299  0.0140
  420DG      O9 9646   0.364   5.021   1.319  0.6015  0.6955  0.0085
  420DG     O10 9647   0.259   4.910   0.907 -0.5362 -0.0185 -0.1585
  420DG     C11 9648   0.475   5.103   1.290 -0.8941  0.0023 -0.5855
  420DG     C12 9649   0.299   5.038   0.857 -0.0694 -0.3072 -0.3921
  420DG     H13 9650   0.568   5.075   1.339  1.4436  0.9208 -4.0787
  420DG     H14 9651   0.461   5.209   1.310  0.0607 -0.2882  1.9487
  420DG     H15 9652   0.221   5.112   0.875  0.2312 -0.0904  0.0637
  420DG     H16 9653   0.325   5.025   0.752  1.9614 -1.2430  0.1693
  420DG     C17 9654   0.528   5.074   1.144  0.7468  0.8044  0.1692
  420DG     C18 9655   0.432   5.083   0.929 -0.4724  0.5068  0.2892
  420DG     O19 9656   0.412   5.057   1.072  0.0703  0.1900  0.5321
  420DG     H20 9657   0.602   4.995   1.128 -0.3584 -0.3410  0.5871
  420DG     H21 9658   0.595   5.155   1.113  1.3957 -0.6568 -2.4905
  420DG     H22 9659   0.520   5.027   0.899 -0.9585  0.1800 -0.5549
  420DG     H23 9660   0.467   5.182   0.896  1.0992  0.1429  0.7754
  421DG      C1 9661   5.272   1.833   2.213  0.0944 -0.0600 -0.1630
  421DG      C2 9662   5.511   1.917   1.729 -0.6388 -0.6149 -0.6169
  421DG      H3 9663   5.199   1.885   2.276  3.0792  1.8410  1.9963
  421DG      H4 9664   5.321   1.754   2.269 -0.2318 -0.8160 -0.9249
  421DG      H5 9665   5.212   1.771   2.146  0.5155 -0.1175 -0.4917
  421DG      H6 9666   5.480   2.000   1.794  2.2426 -0.5695  0.8497
  421DG      H7 9667   5.552   1.965   1.641  1.5351 -0.6479  0.3209
  421DG      H8 9668   5.425   1.861   1.694 -0.9868  0.9917 -2.4791
  421DG      O9 9669   5.348   1.910   2.128 -1.0527  0.0512 -0.1624
  421DG     O10 9670   5.610   1.829   1.790  0.4662 -0.3474  0.4861
  421DG     C11 9671   5.434   2.001   2.201 -0.2781  0.1967  0.0333
  421DG     C12 9672   5.730   1.900   1.835 -0.4071 -0.1035 -0.9057
  421DG     H13 9673   5.484   1.951   2.284 -0.2393  0.1981  0.0101
  421DG     H14 9674   5.375   2.080   2.248  0.8948  1.1929 -0.1388
  421DG     H15 9675   5.785   1.942   1.751 -0.2635  1.1889 -0.1908
  421DG     H16 9676   5.801   1.832   1.882 -0.0580 -0.2321 -1.5953
  421DG     C17 9677   5.532   2.056   2.102  0.3988 -0.2295  0.4161
  421DG     C18 9678   5.711   2.011   1.941  0.6128  0.4280 -0.0006
  421DG     O19 9679   5.611   1.957   2.036  0.1582  0.4771 -0.0197
  421DG     H20 9680   5.599   2.134   2.140  0.7421 -0.6462  0.6727
  421DG     H21 9681   5.473   2.091   2.017 -0.1565 -1.8434  0.1191
  421DG     H22 9682   5.802   2.045   1.991  0.4900 -0.1745  0.6443
  421DG     H23 9683   5.672   2.099   1.890  0.2571  1.6832  2.3053
  422DG      C1 9684   4.739   0.317   2.603 -0.7670 -0.5695 -0.1843
  422DG      C2 9685   5.108   0.068   2.408  0.1973  0.6645  0.2376
  422DG      H3 9686   4.736   0.401   2.534 -0.0080 -0.1896  0.2338
  422DG      H4 9687   4.645   0.267   2.581 -0.8327 -0.7549  0.4948
  422DG      H5 9688   4.814   0.242   2.578 -2.5588 -3.0017  1.2838
  422DG      H6 9689   5.101   0.127   2.317  0.0742  0.0555 -0.1480
  422DG      H7 9690   5.165  -0.021   2.382 -2.0711 -0.5011 -1.0599
  422DG      H8 9691   5.005   0.041   2.428  0.0776 -0.9312 -2.1269
  422DG      O9 9692   4.756   0.367   2.736  0.7334  0.0281 -0.5023
  422DG     O10 9693   5.157   0.137   2.519 -0.4579  0.4273 -0.0364
  422DG     C11 9694   4.885   0.424   2.770  0.2591 -0.4394  0.6534
  422DG     C12 9695   5.133   0.061   2.637  0.3836 -0.3065  1.3025
  422DG     H13 9696   4.871   0.517   2.825 -0.2186 -0.4606  0.5773
  422DG     H14 9697   4.935   0.462   2.681 -1.5628 -0.2530 -0.3381
  422DG     H15 9698   5.218  -0.006   2.653  1.6218  0.7255 -0.5624
  422DG     H16 9699   5.045  -0.003   2.633  0.3540 -0.1790 -0.9547
  422DG     C17 9700   4.962   0.315   2.839  0.2629  0.9405  0.8045
  422DG     C18 9701   5.122   0.156   2.763  0.4152 -0.2440  0.8921
  422DG     O19 9702   5.018   0.242   2.733  0.0770  0.7400  1.2677
  422DG     H20 9703   4.903   0.250   2.904 -0.3748  1.8463  1.1375
  422DG     H21 9704   5.038   0.359   2.903  1.4735 -0.6405  0.5503
  422DG     H22 9705   5.103   0.098   2.854  0.1792  0.0642  1.0399
  422DG     H23 9706   5.212   0.216   2.775  1.4587 -1.9306  1.9884
  423DG      C1 9707   3.893   0.892   1.795 -0.2860 -0.6398  0.1150
  423DG      C2 9708   3.723   0.290   1.384  0.2800 -0.1463 -0.4562
  423DG      H3 9709   3.889   0.844   1.893  2.4311  0.1358  0.7014
  423DG      H4 9710   3.801   0.943   1.767  1.0167  0.7661 -1.8438
  423DG      H5 9711   3.973   0.966   1.805  0.8454 -2.0075  2.0830
  423DG      H6 9712   3.699   0.189   1.417  0.9818 -0.6350 -1.3841
  423DG      H7 9713   3.627   0.340   1.376 -0.7992 -1.5195  2.4964
  423DG      H8 9714   3.772   0.288   1.287  2.4971 -1.1900  0.6165
  423DG      O9 9715   3.926   0.802   1.692 -0.2814 -0.1942 -0.2182
  423DG     O10 9716   3.816   0.342   1.481 -0.3718  0.8459 -0.3114
  423DG     C11 9717   4.054   0.737   1.699 -0.4265  0.3974  0.2417
  423DG     C12 9718   3.778   0.339   1.619 -0.6074  1.0087  0.2438
  423DG     H13 9719   4.127   0.798   1.752 -0.7301  0.3722  0.7034
  423DG     H14 9720   4.102   0.730   1.602 -0.8465  0.2353  0.0401
  423DG     H15 9721   3.754   0.237   1.647 -0.6529  1.5242  2.2910
  423DG     H16 9722   3.682   0.390   1.627 -0.6736  0.7245  1.5720
  423DG     C17 9723   4.018   0.591   1.752  0.0194 -0.6696  0.6716
  423DG     C18 9724   3.899   0.391   1.711  0.3079 -0.4050 -0.6891
  423DG     O19 9725   3.916   0.523   1.675  0.3535 -0.1861 -0.3930
  423DG     H20 9726   3.975   0.594   1.852 -2.3622  2.5481 -0.2420
  423DG     H21 9727   4.112   0.537   1.755  0.4344  0.0383  0.5971
  423DG     H22 9728   3.850   0.386   1.809 -0.6119  0.5393 -1.0908
  423DG     H23 9729   3.983   0.321   1.711 -0.8179 -1.8432  1.0760
  424DG      C1 9730   4.887   4.544   0.189 -0.0082 -0.9739 -0.3740
  424DG      C2 9731   5.489   4.677   0.432 -0.1583  0.5658 -0.0750
  424DG      H3 9732   4.873   4.648   0.217 -0.4845 -0.9796 -0.5790
  424DG      H4 9733   4.906   4.495   0.284  2.2687  0.7715  0.1433
  424DG      H5 9734   4.795   4.502   0.148 -0.9274  0.1524  0.4922
  424DG      H6 9735   5.577   4.739   0.415 -1.1204  1.6400 -1.3097
  424DG      H7 9736   5.436   4.709   0.522  2.4447 -0.4317  1.9244
  424DG      H8 9737   5.526   4.579   0.461 -0.4110  0.8629  1.3404
  424DG      O9 9738   5.011   4.545   0.120  0.3207 -1.1995  0.8863
  424DG     O10 9739   5.408   4.680   0.315  0.2381  0.3511 -0.5980
  424DG     C11 9740   5.062   4.424   0.064 -0.5711  0.6729  0.0312
  424DG     C12 9741   5.470   4.604   0.217  1.1677 -0.2298 -0.2667
  424DG     H13 9742   4.994   4.390  -0.014  0.0078 -1.4794  0.4183
  424DG     H14 9743   5.071   4.342   0.135 -0.4559  0.8357  0.2058
  424DG     H15 9744   5.498   4.506   0.256 -1.8733 -0.8941  0.4956
  424DG     H16 9745   5.563   4.648   0.183  1.2897 -0.5034 -0.2916
  424DG     C17 9746   5.204   4.457   0.028 -0.5543 -0.3506  0.0219
  424DG     C18 9747   5.389   4.588   0.091 -0.9366  0.2402 -0.4734
  424DG     O19 9748   5.263   4.530   0.131 -0.1899  0.1106 -0.2980
  424DG     H20 9749   5.211   4.529  -0.054  2.3070  0.5083  0.8705
  424DG     H21 9750   5.261   4.369  -0.001 -2.1362 -1.6662  0.7916
  424DG     H22 9751   5.369   4.680   0.035  0.7509  0.3798 -0.8885
  424DG     H23 9752   5.439   4.518   0.024 -1.2272  0.5424 -1.0130
  425DG      C1 9753   3.310   2.127   0.220 -0.7078 -0.2532  0.4386
  425DG      C2 9754   3.746   2.629   0.901 -0.1232 -0.0753 -0.1128
  425DG      H3 9755   3.242   2.043   0.209  0.4645 -0.9872 -1.9018
  425DG      H4 9756   3.416   2.106   0.204 -0.4665  1.5511 -0.5339
  425DG      H5 9757   3.290   2.208   0.150  2.0999 -1.8312 -2.4944
  425DG      H6 9758   3.807   2.549   0.943 -1.5958 -1.4792 -0.5349
  425DG      H7 9759   3.795   2.687   0.823  1.6396 -0.9348  0.3013
  425DG      H8 9760   3.745   2.707   0.978 -1.8908 -1.7529  1.6896
  425DG      O9 9761   3.296   2.182   0.351  0.8752  0.4878 -0.1884
  425DG     O10 9762   3.622   2.571   0.865  0.5196  0.4451  0.1323
  425DG     C11 9763   3.406   2.259   0.395 -0.0463 -0.5239 -0.2916
  425DG     C12 9764   3.631   2.489   0.750 -0.2706  0.5019  0.1690
  425DG     H13 9765   3.430   2.341   0.328 -0.6866 -1.9506 -2.3454
  425DG     H14 9766   3.495   2.197   0.405  0.6108  0.7789  5.6536
  425DG     H15 9767   3.687   2.400   0.780  4.7548  2.7445 -1.5255
  425DG     H16 9768   3.682   2.551   0.677  1.0322 -1.2156 -0.4404
  425DG     C17 9769   3.377   2.321   0.531 -0.2243  0.0757 -0.1241
  425DG     C18 9770   3.489   2.451   0.697  0.1134 -0.2231 -0.4327
  425DG     O19 9771   3.497   2.374   0.574  0.0735  0.2594  0.0467
  425DG     H20 9772   3.341   2.251   0.606  0.5982  0.7660  0.9534
  425DG     H21 9773   3.304   2.401   0.519 -0.3322  0.4531  2.5508
  425DG     H22 9774   3.427   2.390   0.762  1.6950 -0.3931  1.0021
  425DG     H23 9775   3.439   2.545   0.674  3.5862  1.4080 -2.1377
  426DG      C1 9776   1.062   4.780   2.296  0.1126 -0.2245  0.0619
  426DG      C2 9777   1.708   4.817   2.579  0.1648 -0.3922  0.0369
  426DG      H3 9778   0.992   4.697   2.308  2.8914 -2.7502 -0.0977
  426DG      H4 9779   1.096   4.786   2.193  1.2062  0.3880  0.4389
  426DG      H5 9780   1.030   4.873   2.344  3.1993  0.6527  0.6012
  426DG      H6 9781   1.754   4.810   2.677 -0.6954 -1.0299  0.4066
  426DG      H7 9782   1.784   4.813   2.500 -0.0771 -1.8256 -0.1513
  426DG      H8 9783   1.655   4.912   2.567  0.2644 -0.2610  0.6152
  426DG      O9 9784   1.182   4.754   2.369 -0.0942 -0.3078  0.3019
  426DG     O10 9785   1.615   4.710   2.566  0.0158 -0.3051 -0.7830
  426DG     C11 9786   1.240   4.634   2.343 -0.5569 -0.2232  0.5097
  426DG     C12 9787   1.532   4.701   2.687 -0.0340 -0.2032  0.1139
  426DG     H13 9788   1.253   4.637   2.235 -1.1184  0.7655  0.4610
  426DG     H14 9789   1.181   4.552   2.384 -1.1682  0.3071  0.7066
  426DG     H15 9790   1.499   4.800   2.718  1.4009  1.0587 -2.0858
  426DG     H16 9791   1.590   4.659   2.769  0.0728 -1.5837 -0.6355
  426DG     C17 9792   1.363   4.629   2.427 -0.5387 -0.4529  0.3485
  426DG     C18 9793   1.416   4.603   2.661 -0.2621  0.0514  0.3038
  426DG     O19 9794   1.324   4.643   2.564 -0.1837  0.8773  0.2568
  426DG     H20 9795   1.436   4.707   2.407 -0.4352 -0.0627  2.0860
  426DG     H21 9796   1.411   4.531   2.415 -1.1536 -0.5844 -1.2737
  426DG     H22 9797   1.461   4.509   2.629  1.3598  0.7637  0.3749
  426DG     H23 9798   1.356   4.591   2.750 -1.8038 -0.1107 -0.7203
  427DG      C1 9799   0.987   2.936   3.847  0.0088 -0.6128  0.0809
  427DG      C2 9800   1.571   2.442   3.753 -0.5779 -0.0607 -0.3356
  427DG      H3 9801   0.937   2.858   3.904  0.1833 -2.5295 -2.2844
  427DG      H4 9802   0.911   2.980   3.782  1.2155 -0.2587 -1.1303
  427DG      H5 9803   1.031   3.010   3.915  0.0104  0.5898 -1.1805
  427DG      H6 9804   1.606   2.379   3.671  1.5390 -1.7167  1.7063
  427DG      H7 9805   1.647   2.460   3.829  0.6852 -1.0328 -1.3216
  427DG      H8 9806   1.490   2.393   3.805 -1.6445 -1.5996 -3.2126
  427DG      O9 9807   1.085   2.876   3.771 -1.0998 -0.8445 -0.0276
  427DG     O10 9808   1.523   2.564   3.696  0.3309  0.2926 -0.2622
  427DG     C11 9809   1.174   2.955   3.688 -0.0014 -0.3012  0.6529
  427DG     C12 9810   1.407   2.546   3.617  0.2127 -0.8374  0.2167
  427DG     H13 9811   1.258   2.987   3.750  1.3387 -1.3945 -0.5281
  427DG     H14 9812   1.120   3.043   3.655 -1.6710 -2.3479 -2.6057
  427DG     H15 9813   1.316   2.513   3.666 -1.7791  0.6298 -2.2562
  427DG     H16 9814   1.431   2.470   3.542  0.8383  0.8412 -1.3598
  427DG     C17 9815   1.227   2.875   3.572  0.5659  0.4620 -0.2881
  427DG     C18 9816   1.362   2.678   3.541 -0.6829  0.2752 -0.1744
  427DG     O19 9817   1.279   2.757   3.630 -0.8445 -0.2156 -0.0461
  427DG     H20 9818   1.302   2.925   3.509  2.7407 -3.3141 -0.9973
  427DG     H21 9819   1.150   2.854   3.498  0.4267 -0.1192  0.0226
  427DG     H22 9820   1.446   2.742   3.511 -0.6878  2.1361  3.2143
  427DG     H23 9821   1.305   2.637   3.459 -1.3564  0.0248  0.4113
  428DG      C1 9822   4.298   4.851   5.125 -0.3846  0.4336 -0.1211
  428DG      C2 9823   3.766   4.435   5.181  0.0510 -0.5971 -0.2684
  428DG      H3 9824   4.333   4.765   5.069 -1.4382 -0.7200  0.9083
  428DG      H4 9825   4.370   4.918   5.172 -0.5526 -0.4330  1.4715
  428DG      H5 9826   4.235   4.905   5.054 -0.3347 -0.1772 -0.6331
  428DG      H6 9827   3.840   4.359   5.156  0.4948 -0.4461  0.5632
  428DG      H7 9828   3.693   4.389   5.247  1.8201 -2.1442  0.7204
  428DG      H8 9829   3.719   4.476   5.092 -0.2170 -0.1042  0.0941
  428DG      O9 9830   4.216   4.789   5.227  0.3759 -0.2304  0.4019
  428DG     O10 9831   3.836   4.540   5.255  0.2831 -0.0062 -0.1439
  428DG     C11 9832   4.297   4.722   5.327  0.6392 -0.2579  0.1590
  428DG     C12 9833   3.868   4.501   5.388  0.7396  0.1671  0.3072
  428DG     H13 9834   4.373   4.787   5.371 -0.1988  1.5741 -1.0237
  428DG     H14 9835   4.351   4.640   5.279 -1.0815 -3.0640  2.6607
  428DG     H15 9836   3.905   4.399   5.392 -2.0663 -0.9423  0.7298
  428DG     H16 9837   3.778   4.489   5.449  0.3602  1.4026  0.0260
  428DG     C17 9838   4.195   4.664   5.433 -0.4395 -0.1573 -0.2945
  428DG     C18 9839   3.967   4.597   5.455  0.1033  0.2499 -0.3747
  428DG     O19 9840   4.083   4.607   5.372  0.4566  0.2048 -0.0896
  428DG     H20 9841   4.159   4.739   5.504  1.1755 -0.3205  0.7534
  428DG     H21 9842   4.247   4.595   5.499 -0.3514  0.5993  0.4472
  428DG     H22 9843   3.938   4.696   5.489  0.5182  0.7496 -1.4306
  428DG     H23 9844   3.992   4.549   5.550 -1.6175 -1.6568 -0.8331
  429DG      C1 9845   0.691   1.399   0.451 -0.3603 -0.2529 -0.1662
  429DG      C2 9846   0.979   1.889   0.148  0.1135  1.0167  0.2044
  429DG      H3 9847   0.676   1.320   0.525  1.3430  0.8859  1.4801
  429DG      H4 9848   0.751   1.358   0.371  0.2883 -0.5152  0.4417
  429DG      H5 9849   0.597   1.445   0.420 -2.1080 -1.7685  2.4543
  429DG      H6 9850   1.071   1.882   0.089  0.6243  0.5606  1.0314
  429DG      H7 9851   0.966   1.790   0.191 -0.1633  0.6432 -0.7180
  429DG      H8 9852   0.896   1.925   0.087 -1.7397 -1.6635  0.9944
  429DG      O9 9853   0.762   1.501   0.522 -0.4036 -0.3774 -0.0648
  429DG     O10 9854   1.017   1.980   0.250 -0.0885  0.0135 -0.1040
  429DG     C11 9855   0.814   1.609   0.452  0.0677 -0.4144  0.3083
  429DG     C12 9856   0.924   2.012   0.349 -0.0947 -0.0802  0.0723
  429DG     H13 9857   0.734   1.653   0.392  0.2441 -0.7122 -0.1533
  429DG     H14 9858   0.885   1.577   0.376 -1.2808 -1.0720 -0.7254
  429DG     H15 9859   0.845   2.056   0.287  2.6010  2.1221 -2.0739
  429DG     H16 9860   0.963   2.094   0.409  2.4529 -2.5659  2.0256
  429DG     C17 9861   0.898   1.698   0.550  0.7237 -0.4265  0.4023
  429DG     C18 9862   0.858   1.904   0.439 -0.0367 -0.6713  0.4787
  429DG     O19 9863   0.957   1.813   0.488  0.1424 -0.5129 -0.0547
  429DG     H20 9864   0.974   1.641   0.604 -0.4476 -0.9315  1.5562
  429DG     H21 9865   0.826   1.736   0.622 -1.2971 -5.0609  1.1703
  429DG     H22 9866   0.817   1.949   0.529 -1.8186 -0.7995 -0.2386
  429DG     H23 9867   0.778   1.850   0.388 -0.4622  0.7752 -0.4282
  430DG      C1 9868   2.156   1.382   1.307  0.3142  0.1101 -0.3256
  430DG      C2 9869   1.908   1.164   0.529 -0.2955 -0.1258  0.4258
  430DG      H3 9870   2.243   1.317   1.324 -0.8222 -0.8304  2.5027
  430DG      H4 9871   2.062   1.341   1.341 -1.2037  2.7159 -1.1150
  430DG      H5 9872   2.169   1.478   1.357  0.3039 -0.9892  1.9200
  430DG      H6 9873   1.800   1.154   0.516 -0.1618 -0.5330 -0.4838
  430DG      H7 9874   1.966   1.172   0.437  1.9881 -0.4419  1.7801
  430DG      H8 9875   1.948   1.065   0.549 -0.4948 -0.8043 -2.1672
  430DG      O9 9876   2.157   1.392   1.169 -0.5408  0.5051  0.2173
  430DG     O10 9877   1.931   1.250   0.634 -0.0009  0.0387  0.0388
  430DG     C11 9878   2.048   1.469   1.118  0.0676  0.9685 -0.0969
  430DG     C12 9879   2.077   1.261   0.670 -0.8025  0.0501 -0.2868
  430DG     H13 9880   2.034   1.561   1.175 -0.9877  0.1734  0.9730
  430DG     H14 9881   1.962   1.403   1.130 -0.1232  1.3836  0.9391
  430DG     H15 9882   2.137   1.262   0.580  1.0829 -1.9334  0.8360
  430DG     H16 9883   2.116   1.174   0.724  0.4683 -0.0835 -1.3706
  430DG     C17 9884   2.063   1.489   0.964 -0.0581  0.1824  0.1613
  430DG     C18 9885   2.094   1.390   0.745  0.2014 -1.0584  0.7200
  430DG     O19 9886   2.054   1.367   0.884  0.1392 -0.3048  0.2483
  430DG     H20 9887   2.162   1.531   0.949  0.3903 -1.6811 -3.1463
  430DG     H21 9888   1.996   1.570   0.937 -0.4859  0.2044  1.2601
  430DG     H22 9889   2.197   1.423   0.737  0.1500 -1.0204  0.2001
  430DG     H23 9890   2.043   1.481   0.712  3.4176  1.1543  1.4109
  431DG      C1 9891   1.258   2.332   0.298  0.2996  0.2359 -0.3867
  431DG      C2 9892   0.603   2.441   0.323 -0.2322  0.5709  0.4268
  431DG      H3 9893   1.192   2.246   0.309  0.6335  0.1912  1.8623
  431DG      H4 9894   1.316   2.340   0.390  1.7802  1.4540 -1.3729
  431DG      H5 9895   1.333   2.323   0.219  0.1522  0.6903 -0.5829
  431DG      H6 9896   0.518   2.505   0.298 -1.2567 -1.4798 -1.6873
  431DG      H7 9897   0.587   2.350   0.265  1.0580 -0.1124  1.1179
  431DG      H8 9898   0.587   2.419   0.429 -1.3166 -1.8260 -0.1621
  431DG      O9 9899   1.168   2.438   0.270 -0.7895 -0.3663 -0.1132
  431DG     O10 9900   0.725   2.508   0.293 -0.3997 -0.4410  0.6355
  431DG     C11 9901   1.220   2.569   0.282  0.1490  0.1441  0.2798
  431DG     C12 9902   0.751   2.619   0.385  0.1143  0.3172  0.3565
  431DG     H13 9903   1.303   2.582   0.213 -1.2232  0.3997 -1.4087
  431DG     H14 9904   1.254   2.587   0.384  2.0612 -1.7658  0.0616
  431DG     H15 9905   0.759   2.572   0.483  0.7836 -0.4781 -0.0655
  431DG     H16 9906   0.664   2.684   0.391  0.0153  0.1301  1.0849
  431DG     C17 9907   1.105   2.666   0.262 -0.4697  0.4169  0.2146
  431DG     C18 9908   0.872   2.704   0.352  0.1923  0.3568  0.2436
  431DG     O19 9909   0.996   2.629   0.348  0.5566  0.0615  0.5789
  431DG     H20 9910   1.080   2.648   0.158 -2.6188  0.0622  0.7359
  431DG     H21 9911   1.134   2.771   0.270 -1.9247  0.8563  0.1236
  431DG     H22 9912   0.869   2.764   0.261  0.8249 -0.3981 -0.2852
  431DG     H23 9913   0.873   2.773   0.436 -0.2808  0.4683  0.1574
  432DG      C1 9914   3.707   5.350   1.394 -0.2248 -0.3141 -0.0691
  432DG      C2 9915   4.316   5.064   1.322  0.1028  0.2832  0.1281
  432DG      H3 9916   3.699   5.326   1.500 -0.0659 -0.3877 -0.0732
  432DG      H4 9917   3.605   5.359   1.358 -0.3365 -2.5976 -0.4913
  432DG      H5 9918   3.751   5.450   1.397  1.3482 -0.9222 -1.2492
  432DG      H6 9919   4.380   4.976   1.308 -2.4505 -2.0790  2.1193
  432DG      H7 9920   4.381   5.146   1.294  0.2445 -0.1808 -0.9582
  432DG      H8 9921   4.303   5.068   1.430  0.4527  0.4578  0.1641
  432DG      O9 9922   3.791   5.261   1.318 -0.5828  0.3584  0.0709
  432DG     O10 9923   4.191   5.047   1.253  0.5416  0.2708  0.2488
  432DG     C11 9924   3.717   5.136   1.309  0.2653 -0.1880  0.4326
  432DG     C12 9925   4.130   4.911   1.284 -0.3563 -1.3410  0.2144
  432DG     H13 9926   3.612   5.156   1.292  0.3440 -0.4155 -0.3476
  432DG     H14 9927   3.708   5.107   1.414  0.0703 -0.6509  0.2926
  432DG     H15 9928   4.138   4.901   1.392  0.7003  3.1809  0.7526
  432DG     H16 9929   4.186   4.837   1.226 -0.6079  0.5030 -2.5811
  432DG     C17 9930   3.792   5.033   1.232  0.3765  0.8500 -0.0378
  432DG     C18 9931   3.990   4.901   1.240  0.9011 -0.4353  0.2189
  432DG     O19 9932   3.914   5.009   1.297 -0.3072  0.1567  0.3457
  432DG     H20 9933   3.806   5.058   1.127 -1.7507  0.3687 -0.4730
  432DG     H21 9934   3.739   4.938   1.234 -3.4850  2.8168  1.4720
  432DG     H22 9935   3.987   4.911   1.131  0.2741  1.0872  0.3456
  432DG     H23 9936   3.948   4.802   1.255 -1.3555  0.5445  0.9541
  433DG      C1 9937   4.270   4.591   1.492 -0.2857  0.0422 -0.5766
  433DG      C2 9938   4.076   3.919   1.370 -0.3854 -0.3195 -0.1143
  433DG      H3 9939   4.302   4.589   1.596 -1.5155  0.5443 -0.1697
  433DG      H4 9940   4.249   4.696   1.471  1.0956  0.8938  1.9725
  433DG      H5 9941   4.350   4.560   1.424 -0.0127 -1.9873  0.5767
  433DG      H6 9942   4.005   3.842   1.400 -0.9441  0.1833 -0.1505
  433DG      H7 9943   4.140   3.903   1.282  0.3393  2.4664 -0.1718
  433DG      H8 9944   4.143   3.934   1.454  0.9834  0.3521 -1.2694
  433DG      O9 9945   4.150   4.521   1.464  0.6627  0.3795 -0.0126
  433DG     O10 9946   4.016   4.046   1.336  0.3567  0.2301  0.2352
  433DG     C11 9947   4.093   4.523   1.328  0.0588 -0.4628  0.0100
  433DG     C12 9948   3.920   4.093   1.425  0.3428  0.2269 -0.4897
  433DG     H13 9949   4.168   4.496   1.253  2.1537 -1.5027  2.3191
  433DG     H14 9950   4.067   4.623   1.295 -0.8656 -1.1979 -1.6387
  433DG     H15 9951   3.968   4.091   1.522 -1.8502  3.2360  0.8013
  433DG     H16 9952   3.838   4.022   1.420 -0.5524  1.1929  0.1857
  433DG     C17 9953   3.973   4.424   1.299 -0.1464 -0.1398  0.7276
  433DG     C18 9954   3.875   4.235   1.383 -0.5288  0.6262 -0.6785
  433DG     O19 9955   3.994   4.312   1.382  0.5288 -0.7647 -0.2176
  433DG     H20 9956   3.988   4.388   1.197  1.8235  2.6929 -0.1140
  433DG     H21 9957   3.881   4.482   1.301 -0.9478 -1.2919 -0.7803
  433DG     H22 9958   3.822   4.237   1.288 -0.0314  2.1660 -0.9539
  433DG     H23 9959   3.812   4.278   1.461 -0.5872 -0.2881 -0.2129
  434DG      C1 9960   2.615   0.304   4.424  0.8555 -0.3058 -0.6029
  434DG      C2 9961   2.510  -0.263   5.081  0.2865  0.3483 -0.6941
  434DG      H3 9962   2.588   0.402   4.384  0.3854  0.0897  0.6343
  434DG      H4 9963   2.551   0.232   4.374 -1.3188  0.4445  0.9505
  434DG      H5 9964   2.721   0.280   4.412  0.3136 -3.7576  0.4470
  434DG      H6 9965   2.599  -0.319   5.053 -0.0449 -0.2024 -0.6620
  434DG      H7 9966   2.527  -0.239   5.186 -2.5437  0.5070 -0.2028
  434DG      H8 9967   2.422  -0.326   5.066 -0.0574  0.9394 -1.2200
  434DG      O9 9968   2.586   0.311   4.561  0.0871 -0.3854 -0.2901
  434DG     O10 9969   2.496  -0.139   5.012 -0.0397 -0.4889  0.0743
  434DG     C11 9970   2.587   0.191   4.635  0.3942  0.2462 -0.5028
  434DG     C12 9971   2.591  -0.045   5.055  0.1232 -0.6182  0.4859
  434DG     H13 9972   2.684   0.145   4.616  0.7139  0.0546  1.3896
  434DG     H14 9973   2.512   0.119   4.603  1.0618 -1.0372  0.7168
  434DG     H15 9974   2.696  -0.068   5.037  0.5892  1.8959 -0.4825
  434DG     H16 9975   2.592  -0.030   5.163  1.8312  0.8909  0.3160
  434DG     C17 9976   2.573   0.212   4.779 -0.2926 -0.3986 -0.0915
  434DG     C18 9977   2.553   0.087   4.981 -0.2892  0.4813  0.5098
  434DG     O19 9978   2.584   0.083   4.842 -0.4945 -0.5385  0.7096
  434DG     H20 9979   2.487   0.276   4.798  0.8607  0.9173  0.8918
  434DG     H21 9980   2.654   0.282   4.801 -1.1843  1.0202 -1.1243
  434DG     H22 9981   2.445   0.099   4.991 -0.4050 -0.6548  0.7932
  434DG     H23 9982   2.605   0.164   5.037 -1.3864  0.9288  0.9361
  435DG      C1 9983   0.210   4.180   1.843  0.0286 -0.6309 -0.0047
  435DG      C2 9984   0.330   3.355   1.787 -0.1707  0.3920  0.1670
  435DG      H3 9985   0.138   4.261   1.830  1.7363  0.8724 -0.6080
  435DG      H4 9986   0.291   4.205   1.775  1.0339 -0.7843  1.1018
  435DG      H5 9987   0.246   4.182   1.946  0.2651 -0.9833 -0.0795
  435DG      H6 9988   0.400   3.364   1.870 -0.8601  0.4455  0.7520
  435DG      H7 9989   0.311   3.252   1.759  1.2933  0.1654 -0.0496
  435DG      H8 9990   0.392   3.394   1.706 -0.8901 -2.6448 -2.0221
  435DG      O9 9991   0.149   4.054   1.809 -0.0360 -0.2773 -0.2686
  435DG     O10 9992   0.210   3.430   1.809 -0.2595 -0.0852 -0.1138
  435DG     C11 9993   0.057   4.001   1.905 -0.0835 -0.7179  0.5474
  435DG     C12 9994   0.245   3.570   1.813 -0.1560  0.2333 -0.2512
  435DG     H13 9995  -0.036   4.057   1.915  0.0702 -0.1647 -0.8512
  435DG     H14 9996   0.115   3.999   1.997  0.3600 -3.5082  0.2987
  435DG     H15 9997   0.270   3.593   1.710  1.1356 -1.9055 -0.4711
  435DG     H16 9998   0.332   3.588   1.876 -0.7937  0.5203  0.5764
  435DG     C17 9999   0.025   3.856   1.871 -0.4940  0.1571  0.2850
  435DG     C1810000   0.126   3.652   1.865 -0.9127  0.5596 -0.1607
  435DG     O1910001   0.148   3.790   1.850 -0.7388 -0.0488  0.6254
  435DG     H2010002  -0.034   3.849   1.779 -1.1278  2.5615  0.4276
  435DG     H2110003  -0.032   3.805   1.948 -0.9889 -1.5858 -1.1505
  435DG     H2210004   0.037   3.628   1.808 -1.5716 -2.1434  1.7806
  435DG     H2310005   0.112   3.614   1.966  0.2344 -1.3329 -0.6492
  436DG      C110006   3.932   4.307   2.363  0.4947 -0.0594 -0.2873
  436DG      C210007   4.260   3.599   2.671  0.2283  0.0241  1.0908
  436DG      H310008   3.832   4.280   2.398  1.2040 -3.4367 -0.5332
  436DG      H410009   3.934   4.252   2.269 -3.3632 -3.4028  1.2672
  436DG      H510010   3.943   4.414   2.344  1.6110  0.0701  0.9937
  436DG      H610011   4.210   3.573   2.765  0.0306 -0.9955  0.7130
  436DG      H710012   4.188   3.564   2.597 -1.0140  1.1756  1.6995
  436DG      H810013   4.356   3.548   2.667 -0.3668 -1.2432  2.1302
  436DG      O910014   4.026   4.241   2.442 -0.2999 -0.6190  0.0872
  436DG     O1010015   4.283   3.734   2.660  0.2090  0.9777  0.0088
  436DG     C1110016   4.016   4.261   2.581  0.1579 -0.2512 -0.8372
  436DG     C1210017   4.170   3.817   2.629 -0.1863  0.0736  0.1401
  436DG     H1310018   3.914   4.239   2.611 -0.8019 -0.6460 -4.0116
  436DG     H1410019   4.027   4.366   2.609  1.9295 -0.8769  1.1300
  436DG     H1510020   4.084   3.793   2.692 -0.7826 -1.7512 -1.2769
  436DG     H1610021   4.130   3.798   2.530 -0.5777 -1.3744  0.5455
  436DG     C1710022   4.130   4.185   2.652 -0.6399 -0.2195 -0.1737
  436DG     C1810023   4.216   3.957   2.648 -0.2055  1.0013 -0.4760
  436DG     O1910024   4.102   4.045   2.636  0.0283  0.7819 -0.3662
  436DG     H2010025   4.151   4.212   2.756  3.9948 -1.8787 -0.4480
  436DG     H2110026   4.227   4.215   2.612 -1.0924 -0.1920 -1.2790
  436DG     H2210027   4.263   3.957   2.746  0.3791  0.1692 -0.7466
  436DG     H2310028   4.295   3.984   2.579 -0.2930  1.2565 -0.4771
  437DG      C110029   1.021   4.271   5.341  0.6589  0.0780 -0.5574
  437DG      C210030   0.783   4.855   5.555  0.5058  0.0257  0.0719
  437DG      H310031   0.924   4.225   5.321  0.1859  1.6764 -2.2465
  437DG      H410032   1.038   4.252   5.447 -0.4467 -0.9840 -0.5494
  437DG      H510033   1.087   4.205   5.285  0.1936 -1.3599  0.5490
  437DG      H610034   0.685   4.810   5.536  0.2465  0.7186 -0.2928
  437DG      H710035   0.823   4.818   5.650  1.1328 -1.9114 -0.8906
  437DG      H810036   0.778   4.962   5.574  2.4656 -0.0340  1.2259
  437DG      O910037   1.014   4.411   5.304 -1.2283 -0.3194 -0.4792
  437DG     O1010038   0.870   4.825   5.448  0.0078  0.4461  0.5895
  437DG     C1110039   0.956   4.424   5.174  0.2116  0.6016 -0.0593
  437DG     C1210040   0.821   4.860   5.314  0.7052  0.1363  0.3663
  437DG     H1310041   0.853   4.398   5.195  0.3681 -0.1157 -0.1546
  437DG     H1410042   0.992   4.351   5.101 -1.8643 -0.2812 -0.2655
  437DG     H1510043   0.826   4.968   5.305  0.4611  0.1002 -0.1873
  437DG     H1610044   0.718   4.827   5.308  0.0595  1.9993  0.7658
  437DG     C1710045   0.977   4.568   5.136 -0.7383  0.2542  0.2547
  437DG     C1810046   0.901   4.791   5.206 -0.7275 -0.3756  0.2169
  437DG     O1910047   0.897   4.646   5.215 -0.3657 -0.4947 -0.6570
  437DG     H2010048   0.952   4.570   5.030 -1.8389 -3.6314  0.3057
  437DG     H2110049   1.079   4.603   5.151 -1.3073  1.9917  0.3007
  437DG     H2210050   0.849   4.811   5.112 -0.8813 -1.7563 -0.0072
  437DG     H2310051   1.006   4.818   5.190 -0.7852 -1.0053 -1.4653
  438DG      C110052   2.913   1.885   2.682 -0.0276 -0.0433  0.0642
  438DG      C210053   2.517   2.343   3.011 -0.1380  0.0072 -0.2131
  438DG      H310054   2.955   1.911   2.779  1.9316  0.6152 -0.9177
  438DG      H410055   2.978   1.831   2.613 -1.1124  0.1416 -1.1427
  438DG      H510056   2.836   1.813   2.710  0.1178  0.2310  1.2181
  438DG      H610057   2.594   2.352   3.087 -1.0464 -2.7460  1.1588
  438DG      H710058   2.458   2.435   3.015  1.4837  1.0342  1.9245
  438DG      H810059   2.452   2.263   3.044 -1.1023  0.4086 -1.0780
  438DG      O910060   2.853   1.990   2.612 -0.5845 -0.0296 -0.7285
  438DG     O1010061   2.570   2.319   2.885  0.4442 -0.4678 -0.0921
  438DG     C1110062   2.933   2.107   2.610 -0.1358  0.3173 -0.1829
  438DG     C1210063   2.649   2.419   2.835 -0.1366 -0.2532 -0.0621
  438DG     H1310064   3.008   2.107   2.532 -1.4613  1.4277 -1.5100
  438DG     H1410065   2.984   2.118   2.706  1.5583 -2.4062 -0.6695
  438DG     H1510066   2.734   2.448   2.897  1.6678 -0.7427 -2.1734
  438DG     H1610067   2.588   2.508   2.820 -0.9769 -0.9511 -0.9344
  438DG     C1710068   2.855   2.235   2.590  0.5538  0.0907 -0.1317
  438DG     C1810069   2.710   2.395   2.697  0.2532  0.7999 -0.1373
  438DG     O1910070   2.773   2.268   2.701 -0.1886  0.8123  0.5490
  438DG     H2010071   2.790   2.221   2.504 -0.9065 -1.2736  1.1149
  438DG     H2110072   2.916   2.325   2.582 -1.6451  1.8791  1.5382
  438DG     H2210073   2.621   2.397   2.634 -0.2112  3.3656  0.4708
  438DG     H2310074   2.778   2.474   2.668 -1.1683  1.0790 -3.0501
  439DG      C110075   2.616   4.986   3.986  0.0280  0.0858 -1.0261
  439DG      C210076   2.489   5.328   4.671  0.7939 -0.4328 -0.3573
  439DG      H310077   2.724   4.994   3.992 -0.0913  1.1923 -0.1658
  439DG      H410078   2.582   5.075   3.932 -0.6478  1.1078  1.0094
  439DG      H510079   2.591   4.908   3.913  1.3956 -0.6954 -0.6994
  439DG      H610080   2.410   5.400   4.688 -0.0762 -1.1150 -1.3207
  439DG      H710081   2.538   5.301   4.765  1.2659  0.3058 -0.3842
  439DG      H810082   2.565   5.380   4.614  2.5550 -2.3529  0.1323
  439DG      O910083   2.554   4.974   4.115 -0.1349  0.4762 -0.0279
  439DG     O1010084   2.439   5.214   4.607 -0.8077  0.0386  0.3782
  439DG     C1110085   2.412   4.999   4.130 -0.0037  0.1593 -0.0756
  439DG     C1210086   2.543   5.121   4.571  0.6602  0.0470 -0.6453
  439DG     H1310087   2.353   4.925   4.075  0.3982  0.0485 -0.3572
  439DG     H1410088   2.386   5.097   4.089 -0.2128 -0.0704 -0.4887
  439DG     H1510089   2.588   5.060   4.650 -0.0213 -1.8234 -1.6387
  439DG     H1610090   2.623   5.160   4.509  0.5421 -0.9628 -1.4619
  439DG     C1710091   2.367   4.991   4.273  0.1337  0.1680 -0.4127
  439DG     C1810092   2.478   5.022   4.471 -0.2963 -0.5474  0.0061
  439DG     O1910093   2.430   5.088   4.355  0.0586  0.1743  0.1223
  439DG     H2010094   2.380   4.888   4.306  2.0168  0.6258  0.3620
  439DG     H2110095   2.260   5.015   4.266  0.0303 -0.5203 -1.3090
  439DG     H2210096   2.553   4.948   4.441  1.0296  1.0374 -0.7773
  439DG     H2310097   2.396   4.968   4.518 -0.7269  0.4268  0.3926
  440DG      C110098   2.478   5.156   2.799  0.8369 -0.1519 -0.1111
  440DG      C210099   2.392   4.516   3.085  0.2933  0.3521  0.0184
  440DG      H310100   2.471   5.182   2.905  3.4249 -0.9813  0.3383
  440DG      H410101   2.391   5.168   2.735  0.1691  0.3075  0.8484
  440DG      H510102   2.544   5.232   2.758  0.0646  0.2452 -0.6345
  440DG      H610103   2.348   4.585   3.157 -1.2203 -0.3713 -0.1684
  440DG      H710104   2.303   4.457   3.061 -0.7437  0.9060  2.2516
  440DG      H810105   2.468   4.450   3.126 -1.2206  0.5300  3.4879
  440DG      O910106   2.520   5.018   2.798  0.1792  0.1442  0.5465
  440DG     O1010107   2.442   4.596   2.981  0.3973 -0.6223 -0.6075
  440DG     C1110108   2.537   4.962   2.671  0.0856 -0.3211 -0.4439
  440DG     C1210109   2.438   4.529   2.858  0.1007 -0.6341 -0.6239
  440DG     H1310110   2.607   5.029   2.623  0.7650  0.2891  1.3204
  440DG     H1410111   2.454   4.983   2.603 -0.2316  0.6804  0.2330
  440DG     H1510112   2.331   4.537   2.836  0.0168 -0.7937 -0.2914
  440DG     H1610113   2.461   4.424   2.879  0.4157  0.0382  3.0035
  440DG     C1710114   2.578   4.815   2.682  0.6646 -0.0964 -0.2138
  440DG     C1810115   2.506   4.605   2.747 -0.6874  0.2597 -0.3193
  440DG     O1910116   2.484   4.744   2.762  0.3061 -0.0043 -0.2943
  440DG     H2010117   2.676   4.810   2.731  0.0242 -1.5857  1.0051
  440DG     H2110118   2.593   4.778   2.580 -0.3481 -3.4559  0.7128
  440DG     H2210119   2.612   4.580   2.749 -0.4741  1.0643  1.6260
  440DG     H2310120   2.462   4.580   2.651 -1.0281 -1.6935  0.2943
  441DG      C110121   4.652   2.861   4.937  0.1819 -0.1811  0.1667
  441DG      C210122   5.289   3.193   4.728  0.2043 -0.0580  0.7717
  441DG      H310123   4.675   2.790   4.857  1.5794  0.4324 -0.0063
  441DG      H410124   4.570   2.929   4.911  1.1042  1.2166  0.8086
  441DG      H510125   4.622   2.810   5.028 -0.9892  0.8174  0.3642
  441DG      H610126   5.263   3.290   4.687  1.5333 -0.3359 -0.8224
  441DG      H710127   5.384   3.224   4.772  0.9766 -1.7102  0.3399
  441DG      H810128   5.297   3.122   4.645  0.0869  2.0076 -1.1062
  441DG      O910129   4.768   2.941   4.963  0.1345 -0.5272  0.2524
  441DG     O1010130   5.207   3.138   4.834 -0.3481  0.8545  0.1743
  441DG     C1110131   4.881   2.859   4.993  0.4358 -0.4489 -0.6007
  441DG     C1210132   5.156   3.226   4.932 -0.4524 -1.2021  0.4638
  441DG     H1310133   4.899   2.784   4.916 -0.4839 -2.2190  0.8283
  441DG     H1410134   4.876   2.817   5.094  2.7266  0.5003 -0.0224
  441DG     H1510135   5.099   3.309   4.891  0.6140 -0.6338  0.1116
  441DG     H1610136   5.238   3.283   4.974 -1.2576 -0.0640  0.5139
  441DG     C1710137   5.008   2.944   4.976 -0.3264 -0.8539 -0.4407
  441DG     C1810138   5.106   3.151   5.056  0.2297  0.3752 -0.1517
  441DG     O1910139   4.986   3.082   5.029 -0.3597 -0.3380 -0.2054
  441DG     H2010140   5.033   2.952   4.870 -0.7900  1.9075 -0.4300
  441DG     H2110141   5.091   2.904   5.034 -0.6594  2.8121  2.9966
  441DG     H2210142   5.184   3.086   5.096  1.1062  1.4270 -0.0950
  441DG     H2310143   5.074   3.216   5.138  0.7301 -0.4371  0.7110
  442DG      C110144   0.839   3.593   3.098  0.3233  0.4840 -0.3355
  442DG      C210145   0.391   3.150   3.063  0.0166  0.5069  1.0728
  442DG      H310146   0.924   3.650   3.060  0.0175  0.1125 -1.6369
  442DG      H410147   0.764   3.650   3.153  0.4448 -0.9128  1.3858
  442DG      H510148   0.797   3.556   3.004 -0.6756  0.7796 -0.0172
  442DG      H610149   0.391   3.050   3.106  0.4911 -0.2546 -0.6448
  442DG      H710150   0.334   3.221   3.125  1.1276  2.2722  0.1470
  442DG      H810151   0.344   3.148   2.965  1.2860  0.7640  0.4451
  442DG      O910152   0.872   3.487   3.192 -0.5796 -0.0828  0.1731
  442DG     O1010153   0.515   3.213   3.045 -0.5946 -0.0580  0.1062
  442DG     C1110154   0.969   3.405   3.131  0.0350 -0.2078 -0.4905
  442DG     C1210155   0.599   3.122   2.977  0.3209  0.1448  0.1606
  442DG     H1310156   1.002   3.334   3.207 -0.8628 -2.7958 -2.3587
  442DG     H1410157   1.064   3.452   3.106 -0.0101 -0.6932 -1.6234
  442DG     H1510158   0.559   3.099   2.878 -1.4738  2.5948  0.2126
  442DG     H1610159   0.605   3.039   3.047 -1.0509  0.9022  1.2469
  442DG     C1710160   0.912   3.320   3.012  0.2412 -0.2035 -0.1946
  442DG     C1810161   0.728   3.186   2.938 -0.2217 -0.5901 -0.4300
  442DG     O1910162   0.781   3.261   3.049 -0.4012 -0.1645  0.2409
  442DG     H2010163   0.984   3.239   3.006  2.3431  1.6818 -1.8296
  442DG     H2110164   0.916   3.381   2.922  4.2951  2.8691  1.7465
  442DG     H2210165   0.795   3.115   2.890  2.5795  1.6629 -0.1155
  442DG     H2310166   0.708   3.262   2.862  1.2678  1.8140  1.4480
  443DG      C110167   5.283   3.491   0.003  0.3056  0.2610  0.0310
  443DG      C210168   4.855   3.454   0.590  0.6819  0.1195 -0.4539
  443DG      H310169   5.208   3.562  -0.030  1.0447  1.3413  0.6147
  443DG      H410170   5.284   3.398  -0.054  1.2287  2.2709 -3.5072
  443DG      H510171   5.382   3.534  -0.014  0.4199 -0.3336 -0.8635
  443DG      H610172   4.857   3.513   0.681 -0.3125  0.0718 -0.3961
  443DG      H710173   4.819   3.527   0.517  3.0700 -0.4025 -2.2868
  443DG      H810174   4.793   3.366   0.609  0.0347  0.3645 -1.3614
  443DG      O910175   5.249   3.477   0.143  0.2795 -0.1928 -0.0270
  443DG     O1010176   4.985   3.439   0.530 -0.6910  0.1037  1.0648
  443DG     C1110177   5.350   3.391   0.207 -0.4877 -0.6373  0.9912
  443DG     C1210178   5.074   3.354   0.596  0.2113 -0.2343  0.3364
  443DG     H1310179   5.455   3.409   0.183 -0.9408  1.0524  0.1474
  443DG     H1410180   5.336   3.284   0.192 -0.5933 -0.6343  1.0665
  443DG     H1510181   5.040   3.251   0.591 -1.7053  0.1324  3.0437
  443DG     H1610182   5.066   3.378   0.702 -1.9238 -0.2066  0.2057
  443DG     C1710183   5.338   3.403   0.356 -1.6077 -0.2063 -0.2281
  443DG     C1810184   5.219   3.373   0.550  0.0052  0.6133 -0.1924
  443DG     O1910185   5.213   3.375   0.405 -0.8905  0.0132  0.1013
  443DG     H2010186   5.372   3.506   0.371 -0.6328  0.0146 -3.3152
  443DG     H2110187   5.413   3.343   0.408 -1.5516 -1.0423 -1.2340
  443DG     H2210188   5.267   3.462   0.591  1.5453 -1.3670  2.6787
  443DG     H2310189   5.274   3.293   0.600 -0.9412 -0.1896 -0.4087
  444DG      C110190   2.344   5.137   0.627  0.1493 -0.0407 -0.4835
  444DG      C210191   2.247   4.596   1.008  0.9141 -0.3009  0.0509
  444DG      H310192   2.435   5.160   0.683 -0.3523 -0.9084  0.7322
  444DG      H410193   2.269   5.190   0.685 -0.6805 -1.3730 -0.2927
  444DG      H510194   2.339   5.175   0.525 -1.0400  1.5755  0.1402
  444DG      H610195   2.191   4.510   1.043  0.4271 -1.9685 -4.2488
  444DG      H710196   2.349   4.559   1.013  0.8237 -1.0511 -2.3998
  444DG      H810197   2.233   4.691   1.060 -0.5518  0.8690 -2.2839
  444DG      O910198   2.322   4.991   0.632 -0.2054 -0.2567  0.3731
  444DG     O1010199   2.232   4.630   0.872  0.1237  0.1300  0.1041
  444DG     C1110200   2.406   4.920   0.547 -1.3286  0.3058  0.0702
  444DG     C1210201   2.256   4.524   0.781 -0.2984 -0.4928 -1.0483
  444DG     H1310202   2.506   4.905   0.589 -0.3310  0.3048 -2.1539
  444DG     H1410203   2.418   4.965   0.449  1.1836 -2.2571 -0.9419
  444DG     H1510204   2.183   4.443   0.781 -2.0312  1.0130 -0.1055
  444DG     H1610205   2.355   4.478   0.786  1.5877  3.2549 -0.5861
  444DG     C1710206   2.336   4.785   0.532 -0.8432  0.2672 -0.2732
  444DG     C1810207   2.259   4.586   0.640 -0.0633 -0.2469  0.1647
  444DG     O1910208   2.296   4.722   0.656  0.2518 -0.1863  0.6661
  444DG     H2010209   2.401   4.723   0.472 -0.1867  2.5143 -2.0368
  444DG     H2110210   2.250   4.811   0.470 -0.7822  2.5998  0.4903
  444DG     H2210211   2.319   4.530   0.568  0.4714  0.3505  0.1334
  444DG     H2310212   2.157   4.569   0.607  0.4565 -2.9983 -0.2582
  445DG      C110213   1.019   1.770   2.207  0.3050  0.4089 -0.3559
  445DG      C210214   0.807   1.426   1.462  0.0321  0.2620 -0.5276
  445DG      H310215   1.024   1.877   2.189  1.4114  0.3847 -0.2764
  445DG      H410216   1.099   1.755   2.280  1.2850  1.2036 -1.2240
  445DG      H510217   0.920   1.748   2.247  0.7086 -1.8211 -0.4426
  445DG      H610218   0.866   1.494   1.401  1.2326  0.0900  0.3843
  445DG      H710219   0.783   1.329   1.419 -1.7338  0.8796 -1.0164
  445DG      H810220   0.711   1.468   1.492  0.6045 -0.1917  2.2732
  445DG      O910221   1.038   1.694   2.094  0.4589  0.5826  0.4604
  445DG     O1010222   0.881   1.392   1.572  0.1331  0.6062  0.0878
  445DG     C1110223   1.015   1.557   2.121  0.0973 -0.3804  0.4151
  445DG     C1210224   0.882   1.496   1.674 -0.2588  0.1810 -1.2105
  445DG     H1310225   0.908   1.538   2.127  0.0790 -1.3234 -1.7820
  445DG     H1410226   1.063   1.529   2.215  0.1644 -1.0843  0.1764
  445DG     H1510227   0.786   1.501   1.725  0.2628 -2.0967  0.1220
  445DG     H1610228   0.912   1.593   1.635 -0.1219  1.5806  2.0539
  445DG     C1710229   1.062   1.482   1.996 -0.4321 -0.4074  0.0360
  445DG     C1810230   0.992   1.454   1.775 -0.1751  0.1458  0.3621
  445DG     O1910231   0.975   1.523   1.894 -0.2467 -0.4430 -0.3539
  445DG     H2010232   1.048   1.374   2.010  0.1610 -0.5163 -0.2003
  445DG     H2110233   1.169   1.498   1.982 -0.3124 -0.3717  0.9081
  445DG     H2210234   0.981   1.347   1.793  0.7812  0.1276  0.9103
  445DG     H2310235   1.089   1.473   1.727 -0.5089  2.4456  0.4807
  446DG      C110236   5.410   0.612   0.618  0.7761  0.6149  0.0865
  446DG      C210237   4.629   0.300   0.259 -0.6771 -0.7411  0.0621
  446DG      H310238   5.420   0.719   0.599  0.2358  0.6912  0.1955
  446DG      H410239   5.491   0.554   0.574 -1.3074 -0.6792 -2.3107
  446DG      H510240   5.416   0.607   0.726 -2.1644 -0.1477  0.3118
  446DG      H610241   4.612   0.263   0.360  0.0749  1.3455  1.0032
  446DG      H710242   4.536   0.328   0.210 -1.4327  1.4018  2.5438
  446DG      H810243   4.677   0.223   0.198  1.3368  0.2756  0.2489
  446DG      O910244   5.275   0.587   0.577  0.2404 -0.0671 -0.4253
  446DG     O1010245   4.711   0.411   0.258 -0.0981  0.2565  0.2235
  446DG     C1110246   5.265   0.579   0.436 -0.8591 -0.1595  0.3425
  446DG     C1210247   4.837   0.387   0.328  0.1813 -1.0416  0.9637
  446DG     H1310248   5.294   0.483   0.395 -1.2909 -0.5357  0.8986
  446DG     H1410249   5.333   0.653   0.393  1.4564 -1.1628  2.0853
  446DG     H1510250   4.887   0.312   0.267 -1.4358 -0.8940 -0.6301
  446DG     H1610251   4.815   0.346   0.426  1.0821 -3.7290  0.1327
  446DG     C1710252   5.123   0.607   0.392  0.1324  0.2416 -0.3259
  446DG     C1810253   4.919   0.516   0.346  0.6985 -0.0445 -0.2983
  446DG     O1910254   5.045   0.490   0.408 -0.0457  0.6061  0.2182
  446DG     H2010255   5.126   0.647   0.291 -1.4559 -0.1682 -0.5632
  446DG     H2110256   5.091   0.696   0.446  2.1742  1.5000 -1.0807
  446DG     H2210257   4.926   0.533   0.239 -2.6931  1.5336 -0.3938
  446DG     H2310258   4.870   0.603   0.390  1.0026  0.5148 -1.0502
  447DG      C110259   0.218   0.073   1.070 -0.5549  0.6023  0.1462
  447DG      C210260  -0.354  -0.422   0.786  0.5908 -0.7678  0.4503
  447DG      H310261   0.306   0.131   1.041 -1.2505  0.6173 -2.0820
  447DG      H410262   0.225   0.038   1.173 -0.0871 -1.3205 -0.4871
  447DG      H510263   0.133   0.138   1.051 -1.0766  0.7307  2.6137
  447DG      H610264  -0.430  -0.353   0.753  1.6607 -0.1215 -0.7419
  447DG      H710265  -0.391  -0.514   0.741 -1.3160  0.6006 -0.8957
  447DG      H810266  -0.354  -0.435   0.894  2.3182  0.1861  0.6082
  447DG      O910267   0.221  -0.037   0.976 -0.2116  0.0147  0.3298
  447DG     O1010268  -0.230  -0.381   0.724 -0.0421  0.2575  0.2743
  447DG     C1110269   0.205  -0.000   0.838  0.0648  0.0784 -0.1823
  447DG     C1210270  -0.143  -0.305   0.805  0.4190 -0.0244  0.0670
  447DG     H1310271   0.297   0.048   0.805  1.2154 -0.4696  2.0280
  447DG     H1410272   0.131   0.080   0.831  0.1949  0.2261  0.0907
  447DG     H1510273  -0.102  -0.353   0.893  0.6040  0.6496  0.3503
  447DG     H1610274  -0.198  -0.218   0.841  1.4081 -0.1687  2.0095
  447DG     C1710275   0.164  -0.114   0.752  0.0040  0.1680 -0.5047
  447DG     C1810276  -0.018  -0.271   0.724  0.3282 -0.1123  0.0266
  447DG     O1910277   0.053  -0.181   0.807 -0.2854 -0.4864 -0.1839
  447DG     H2010278   0.248  -0.181   0.732 -0.6382  0.1634 -3.7010
  447DG     H2110279   0.133  -0.068   0.658  0.3649  3.3283  0.8001
  447DG     H2210280   0.031  -0.369   0.723 -2.0149 -1.3564  0.5518
  447DG     H2310281  -0.056  -0.236   0.628 -1.5239 -1.7120  0.1024
  448DG      C110282   1.804   2.272   3.194 -0.2715 -0.3665 -0.3949
  448DG      C210283   1.445   2.393   3.076 -0.8513 -0.3066 -0.7607
  448DG      H310284   1.872   2.339   3.247  0.2832 -0.1327 -1.3812
  448DG      H410285   1.740   2.233   3.273  2.0209 -1.3568  1.0628
  448DG      H510286   1.734   2.321   3.126 -2.4658 -1.2838  1.0926
  448DG      H610287   1.514   2.468   3.040 -0.4390 -0.9703 -1.3912
  448DG      H710288   1.355   2.423   3.129 -1.0345 -2.1016  0.0376
  448DG      H810289   1.504   2.353   3.158 -0.1879 -0.2269 -1.1918
  448DG      O910290   1.876   2.171   3.130  0.0624  0.1451  0.2311
  448DG     O1010291   1.431   2.288   2.976  0.3534  0.3809 -0.2911
  448DG     C1110292   1.830   2.034   3.160 -0.4946  0.0606  1.0195
  448DG     C1210293   1.394   2.160   3.016  0.1924 -0.1100 -0.4571
  448DG     H1310294   1.806   2.015   3.264 -1.8893  1.3396  0.9676
  448DG     H1410295   1.911   1.965   3.140 -0.3387 -0.2240  2.5223
  448DG     H1510296   1.299   2.143   2.966  0.1037 -1.0796  0.0139
  448DG     H1610297   1.381   2.142   3.123  0.8133  0.8326 -0.2051
  448DG     C1710298   1.722   2.001   3.054  0.3997 -0.4278 -0.5640
  448DG     C1810299   1.510   2.064   2.972  0.5526 -0.0249 -0.3222
  448DG     O1910300   1.617   2.100   3.052  0.1897  0.5743  0.0059
  448DG     H2010301   1.680   1.906   3.089  1.1747 -0.7418 -0.4739
  448DG     H2110302   1.767   1.987   2.956  0.5622  0.2756 -0.5925
  448DG     H2210303   1.475   1.961   2.981  0.5076 -0.0948 -1.2558
  448DG     H2310304   1.538   2.074   2.867 -0.4004  0.4170 -0.5534
  449DG      C110305   1.621   2.645   5.419  0.2899  0.1758 -0.3182
  449DG      C210306   1.379   2.550   4.762  0.3460 -0.1050 -0.1654
  449DG      H310307   1.695   2.702   5.362 -0.2617 -0.0411 -1.2698
  449DG      H410308   1.653   2.550   5.460 -1.3443  0.1842  1.1290
  449DG      H510309   1.578   2.705   5.500 -2.9139  1.7258 -2.9118
  449DG      H610310   1.284   2.578   4.718  0.1108  3.3498  2.1599
  449DG      H710311   1.445   2.634   4.740 -1.2789  1.6822  1.4282
  449DG      H810312   1.424   2.456   4.729 -1.5198 -1.0123 -0.2578
  449DG      O910313   1.508   2.616   5.338 -0.0393  0.2661  0.1673
  449DG     O1010314   1.361   2.546   4.902 -0.0254  0.3029 -0.2362
  449DG     C1110315   1.421   2.521   5.399 -0.2119 -0.3515 -0.2206
  449DG     C1210316   1.274   2.448   4.950  0.4579  0.1238  0.1941
  449DG     H1310317   1.387   2.547   5.499  0.2541 -2.6786  0.6171
  449DG     H1410318   1.473   2.429   5.425 -0.4789 -0.0740  1.3694
  449DG     H1510319   1.320   2.350   4.934 -0.2327 -0.5019  1.8233
  449DG     H1610320   1.181   2.458   4.894  0.2709  0.5928  0.5905
  449DG     C1710321   1.296   2.522   5.321 -0.4906  0.0383  0.1725
  449DG     C1810322   1.232   2.460   5.105 -0.0696  0.2166  0.4606
  449DG     O1910323   1.343   2.483   5.188 -0.1815 -0.0928  0.3635
  449DG     H2010324   1.239   2.614   5.308 -0.3643  0.3224  1.4412
  449DG     H2110325   1.223   2.450   5.358 -0.2973  0.1981  0.8956
  449DG     H2210326   1.160   2.542   5.109 -1.8561 -1.2042 -0.7613
  449DG     H2310327   1.187   2.367   5.137 -2.8119  0.4076 -2.3782
  450DG      C110328   1.175   1.123   2.350  0.3801  0.9477  0.0182
  450DG      C210329   1.488   0.501   2.340  0.0316 -0.1446 -0.2659
  450DG      H310330   1.071   1.131   2.381  1.0757  2.4582  2.2021
  450DG      H410331   1.163   1.082   2.250  1.5399  1.8778 -0.5195
  450DG      H510332   1.213   1.224   2.335 -0.2477  1.0356 -1.0877
  450DG      H610333   1.577   0.537   2.290 -2.0474  1.0947 -3.3807
  450DG      H710334   1.516   0.411   2.395 -1.3482 -1.1506 -1.1308
  450DG      H810335   1.424   0.469   2.258 -0.0559  2.5941 -1.3643
  450DG      O910336   1.258   1.041   2.428 -0.0998  0.0667  0.2422
  450DG     O1010337   1.418   0.592   2.428  0.5099  1.0591  0.0261
  450DG     C1110338   1.396   1.034   2.398  0.3137 -0.3701 -0.5682
  450DG     C1210339   1.495   0.625   2.537  0.3307 -0.2150  0.7209
  450DG     H1310340   1.444   1.131   2.414  0.2661 -0.4186 -0.1355
  450DG     H1410341   1.418   1.013   2.293 -2.1892 -1.5876 -0.9284
  450DG     H1510342   1.583   0.677   2.499 -1.9076  1.5365 -2.6410
  450DG     H1610343   1.537   0.538   2.587  0.4475  0.3230  1.5756
  450DG     C1710344   1.456   0.924   2.486 -0.0098  0.1179  0.0234
  450DG     C1810345   1.411   0.723   2.612 -0.3201 -0.0825  0.5632
  450DG     O1910346   1.363   0.823   2.528 -0.0438 -0.4247 -0.5220
  450DG     H2010347   1.496   0.970   2.576 -0.7720  0.1315  0.3674
  450DG     H2110348   1.548   0.893   2.437  0.1076  1.0262 -0.3462
  450DG     H2210349   1.320   0.677   2.651 -1.6686 -0.2485 -2.4996
  450DG     H2310350   1.472   0.775   2.686  0.6683  0.2407 -0.4554
  451DG      C110351   4.724   4.097   1.543 -0.2881  0.4395  0.0999
  451DG      C210352   4.353   3.461   1.784 -0.4380  0.0541 -0.4165
  451DG      H310353   4.683   4.198   1.533  0.0656  0.9500  3.0666
  451DG      H410354   4.690   4.046   1.452 -1.3865  0.5442  0.4315
  451DG      H510355   4.832   4.106   1.547 -0.4081  2.6347 -0.1315
  451DG      H610356   4.281   3.415   1.852  0.4356 -0.6524  0.0510
  451DG      H710357   4.310   3.506   1.694  0.1123  1.1203 -0.1598
  451DG      H810358   4.420   3.377   1.765 -0.1097 -0.2811  1.9031
  451DG      O910359   4.656   4.037   1.652  0.5367 -0.1436 -0.7020
  451DG     O1010360   4.433   3.560   1.838 -0.2053  0.0086  0.2802
  451DG     C1110361   4.736   3.949   1.726 -0.4842 -0.0198 -0.0439
  451DG     C1210362   4.356   3.683   1.861 -0.0817  0.5783 -0.1937
  451DG     H1310363   4.823   4.001   1.766 -0.4911 -0.6127  0.7781
  451DG     H1410364   4.769   3.867   1.662  1.0726  1.5265 -1.3141
  451DG     H1510365   4.271   3.682   1.930 -0.5887  1.2695 -0.7889
  451DG     H1610366   4.313   3.711   1.765 -0.8611 -0.0808 -0.0521
  451DG     C1710367   4.651   3.891   1.850 -0.5812 -0.4660  0.6815
  451DG     C1810368   4.446   3.796   1.906  0.4934  0.4564  0.1096
  451DG     O1910369   4.535   3.829   1.797 -0.2844  0.3289  0.0556
  451DG     H2010370   4.625   3.975   1.915  0.3291 -0.4358  1.0276
  451DG     H2110371   4.723   3.829   1.902  1.4843 -0.4196 -1.9369
  451DG     H2210372   4.386   3.886   1.920 -2.0248 -1.1325  0.2387
  451DG     H2310373   4.498   3.757   1.994  1.5259 -2.3395 -1.6090
  452DG      C110374   5.001   0.411   3.215  0.0459  0.5500 -0.4600
  452DG      C210375   4.851  -0.175   3.457 -0.4613  0.3239 -0.0047
  452DG      H310376   4.913   0.347   3.209  0.8882 -0.7049  0.0875
  452DG      H410377   5.018   0.457   3.118 -0.5520 -0.3082 -0.9833
  452DG      H510378   4.993   0.487   3.293  1.6823 -0.0527  0.3263
  452DG      H610379   4.867  -0.275   3.495  0.0807  0.3078 -0.2684
  452DG      H710380   4.850  -0.091   3.527 -0.5083 -0.0250  0.4173
  452DG      H810381   4.759  -0.163   3.399 -0.7970 -0.5150  0.3347
  452DG      O910382   5.102   0.321   3.257  0.7069 -0.9882  0.4329
  452DG     O1010383   4.961  -0.149   3.379  0.2126 -0.7154  0.1485
  452DG     C1110384   5.133   0.220   3.163 -0.3925  0.1177  0.2210
  452DG     C1210385   5.086  -0.151   3.446 -0.0934 -0.3921 -0.0779
  452DG     H1310386   5.194   0.262   3.084  1.3062 -1.0152  0.8684
  452DG     H1410387   5.043   0.174   3.122 -0.3860  0.3753 -0.0805
  452DG     H1510388   5.105  -0.257   3.460 -1.4012 -0.5957  0.3291
  452DG     H1610389   5.097  -0.098   3.541  0.3384  0.1738 -0.4364
  452DG     C1710390   5.222   0.107   3.219 -0.4739 -0.9618 -0.3158
  452DG     C1810391   5.202  -0.084   3.367 -0.2398  0.2528  0.4585
  452DG     O1910392   5.167   0.057   3.340  0.3899  0.0665  0.6881
  452DG     H2010393   5.321   0.145   3.244 -0.1384 -2.3403  0.5588
  452DG     H2110394   5.236   0.027   3.145 -1.8213 -1.1309 -0.4199
  452DG     H2210395   5.302  -0.091   3.409 -0.4082  1.2079  1.0380
  452DG     H2310396   5.191  -0.139   3.273 -0.5803  0.5456  0.3255
  453DG      C110397   0.413   5.310   2.270  0.5865  0.3824  0.0960
  453DG      C210398   0.563   4.778   2.969  0.2139  0.8599 -0.8473
  453DG      H310399   0.374   5.411   2.284  0.0903  0.3073 -0.6453
  453DG      H410400   0.343   5.251   2.210 -1.2526  0.9912  1.5609
  453DG      H510401   0.510   5.315   2.221  1.2904 -2.5608  1.0079
  453DG      H610402   0.641   4.737   2.905 -0.0167 -3.6636  1.4264
  453DG      H710403   0.604   4.776   3.070 -2.1282  1.2638  0.1764
  453DG      H810404   0.480   4.708   2.963  0.1327  0.7704  0.8604
  453DG      O910405   0.432   5.251   2.395  0.1107  0.4953  0.5535
  453DG     O1010406   0.540   4.909   2.926  0.0954 -0.4091  0.4196
  453DG     C1110407   0.317   5.242   2.482  0.0831  0.0550  0.1186
  453DG     C1210408   0.498   4.921   2.793  0.9033  0.6093 -0.1940
  453DG     H1310409   0.241   5.171   2.448 -0.2270  0.8482 -0.9098
  453DG     H1410410   0.260   5.335   2.468 -1.6416 -1.2846 -2.5634
  453DG     H1510411   0.404   4.868   2.775  1.2315  1.0610 -3.7510
  453DG     H1610412   0.575   4.875   2.732  1.3457  1.2114 -0.0987
  453DG     C1710413   0.368   5.217   2.624 -0.0211 -0.1135 -0.3881
  453DG     C1810414   0.468   5.067   2.770  0.2661 -0.0415  0.6135
  453DG     O1910415   0.418   5.080   2.638 -0.1574 -0.0467  0.3086
  453DG     H2010416   0.290   5.235   2.698  1.9967 -0.5985  1.9751
  453DG     H2110417   0.454   5.283   2.630 -1.2225  1.7534 -2.2196
  453DG     H2210418   0.388   5.087   2.842  0.5675  1.5887  0.5302
  453DG     H2310419   0.549   5.138   2.785 -1.0871  1.8160 -0.5309
  454DG      C110420   5.391   2.707   3.619  0.1406 -0.3099  0.1391
  454DG      C210421   5.534   2.822   2.980 -0.7089  0.2648 -0.5518
  454DG      H310422   5.296   2.662   3.590  0.2023 -0.2534 -0.1530
  454DG      H410423   5.363   2.810   3.644  1.6576 -0.1472  1.3245
  454DG      H510424   5.414   2.642   3.703  0.1817  0.6020  0.8570
  454DG      H610425   5.568   2.744   2.912  0.6986  1.4818 -1.2937
  454DG      H710426   5.425   2.830   2.974 -0.8075  0.1541  0.8362
  454DG      H810427   5.566   2.918   2.939 -3.6509  2.2612  1.4538
  454DG      O910428   5.506   2.689   3.529 -0.2841 -0.4595  0.2492
  454DG     O1010429   5.589   2.808   3.112  0.1830  0.5828  0.3643
  454DG     C1110430   5.623   2.753   3.584 -0.3194 -0.4101 -0.4205
  454DG     C1210431   5.721   2.756   3.114  0.2761 -0.6426  0.1099
  454DG     H1310432   5.643   2.725   3.687  1.2336  3.4574  0.4938
  454DG     H1410433   5.595   2.859   3.588 -1.4198 -0.6679 -0.8575
  454DG     H1510434   5.783   2.841   3.085 -0.5909  0.2281  0.6993
  454DG     H1610435   5.729   2.667   3.052  0.8663 -1.2019  0.9693
  454DG     C1710436   5.736   2.725   3.488 -0.0676  0.0167 -0.4283
  454DG     C1810437   5.780   2.723   3.251  0.2377  0.1444 -0.2480
  454DG     O1910438   5.702   2.773   3.360  0.1316  0.3119 -0.1085
  454DG     H2010439   5.752   2.617   3.480 -0.9231 -0.1201 -0.4251
  454DG     H2110440   5.825   2.783   3.510 -0.9221  0.9801  0.5982
  454DG     H2210441   5.802   2.617   3.265  1.1425  0.4835  1.1655
  454DG     H2310442   5.871   2.781   3.265 -0.2017  1.2018 -1.6009
  455DG      C110443   4.787   5.477   5.353 -0.0809  0.5150  0.0255
  455DG      C210444   4.520   6.039   5.493 -0.3644 -0.5650 -0.2941
  455DG      H310445   4.771   5.431   5.255 -0.0117 -1.5882  0.9530
  455DG      H410446   4.823   5.398   5.418 -1.1162 -1.4495 -1.6476
  455DG      H510447   4.862   5.556   5.342 -0.1032  1.0709  3.1548
  455DG      H610448   4.519   6.018   5.600  0.5481  1.5164  0.1775
  455DG      H710449   4.619   6.083   5.478 -0.3720 -0.5992 -0.4498
  455DG      H810450   4.438   6.110   5.481 -0.1318  0.0471  1.4185
  455DG      O910451   4.680   5.540   5.415  0.5175  0.6477  0.5291
  455DG     O1010452   4.495   5.910   5.430 -0.0604 -0.0375 -0.0750
  455DG     C1110453   4.562   5.464   5.437 -0.0158  0.1926 -0.2841
  455DG     C1210454   4.357   5.862   5.470  0.2039  0.0114 -1.5551
  455DG     H1310455   4.589   5.383   5.504 -1.3381  0.3250  0.4270
  455DG     H1410456   4.532   5.410   5.347 -3.1956 -0.7698  1.2380
  455DG     H1510457   4.275   5.933   5.462  0.3703  0.2571 -1.1155
  455DG     H1610458   4.375   5.834   5.574  0.8160 -1.6523 -2.0729
  455DG     C1710459   4.442   5.548   5.477 -0.1090  0.0641 -0.6763
  455DG     C1810460   4.310   5.735   5.398 -0.7114  0.4514  0.9110
  455DG     O1910461   4.425   5.651   5.378 -0.1469 -0.2067 -0.0208
  455DG     H2010462   4.465   5.605   5.567  1.5179  1.4861 -1.9269
  455DG     H2110463   4.351   5.488   5.480 -1.4979  2.0529 -1.4262
  455DG     H2210464   4.223   5.685   5.439  0.8310 -1.7337  1.7172
  455DG     H2310465   4.280   5.777   5.302  0.1274  0.4026  0.6149
  456DG      C110466   4.750   4.428   3.609 -0.4241 -0.3429  0.0996
  456DG      C210467   4.975   4.973   3.346  0.4657 -0.5380 -1.0062
  456DG      H310468   4.809   4.453   3.698 -2.2964 -0.1238  1.3327
  456DG      H410469   4.702   4.333   3.630 -0.3862 -0.9994 -2.5272
  456DG      H510470   4.670   4.502   3.604 -0.7517 -0.5088  2.0028
  456DG      H610471   4.913   5.028   3.276  1.3581  1.1860 -0.4982
  456DG      H710472   4.942   4.994   3.448  0.5352 -0.8543 -0.9190
  456DG      H810473   5.074   5.015   3.327  0.4595  0.2081  0.4487
  456DG      O910474   4.832   4.433   3.490  0.2527  0.3878 -1.1405
  456DG     O1010475   4.967   4.828   3.323 -0.0103 -1.3080 -0.0111
  456DG     C1110476   4.759   4.405   3.375 -0.2559  0.2408 -0.5130
  456DG     C1210477   5.005   4.782   3.197 -0.1746  0.6676  0.9409
  456DG     H1310478   4.663   4.458   3.368  0.4233  1.3590 -1.7911
  456DG     H1410479   4.720   4.303   3.367 -1.4510  0.4306  2.0648
  456DG     H1510480   5.105   4.815   3.170 -0.1184  1.0705  1.6100
  456DG     H1610481   4.938   4.824   3.123 -2.0273 -0.5437  1.8618
  456DG     C1710482   4.840   4.458   3.254  0.3645 -0.0401 -0.7543
  456DG     C1810483   5.002   4.627   3.202  0.1957  0.0137  0.1225
  456DG     O1910484   4.881   4.598   3.271 -0.0940 -0.0380 -0.3842
  456DG     H2010485   4.793   4.447   3.156 -0.9329 -0.1233 -0.1388
  456DG     H2110486   4.923   4.388   3.247 -1.5596 -2.3281 -2.2103
  456DG     H2210487   5.009   4.579   3.104  1.1363  0.5364 -0.0753
  456DG     H2310488   5.090   4.588   3.251  0.8064 -1.5819 -2.0627
  457DG      C110489   2.297   1.822   2.137 -0.1465  0.7765 -0.2819
  457DG      C210490   2.896   2.377   2.198 -0.5176 -0.4494 -0.0665
  457DG      H310491   2.226   1.878   2.198 -0.8451 -0.8731  0.4692
  457DG      H410492   2.322   1.733   2.195 -2.0259  0.9026  0.7971
  457DG      H510493   2.245   1.792   2.047  0.3738 -1.8990  0.2150
  457DG      H610494   2.936   2.275   2.202 -1.3168 -0.8323 -1.2265
  457DG      H710495   2.895   2.417   2.097 -0.6769  0.0365  0.1245
  457DG      H810496   2.969   2.431   2.258 -0.4296 -2.2341  1.5409
  457DG      O910497   2.411   1.900   2.106 -0.2883  0.3998  0.3333
  457DG     O1010498   2.778   2.382   2.271  0.4006 -0.6293 -0.6333
  457DG     C1110499   2.383   2.021   2.048  0.3493  0.5136 -0.5784
  457DG     C1210500   2.658   2.333   2.207  0.0726  0.4701  0.0767
  457DG     H1310501   2.294   2.061   2.094  0.7570 -0.5270  1.2105
  457DG     H1410502   2.373   2.004   1.941 -0.0043  1.0565 -0.6339
  457DG     H1510503   2.647   2.346   2.099 -0.9411  0.7534  0.2038
  457DG     H1610504   2.584   2.402   2.247  0.3063  0.9164 -0.2530
  457DG     C1710505   2.496   2.120   2.064 -0.7824  0.0266 -0.6869
  457DG     C1810506   2.627   2.191   2.251 -0.2647  0.2447 -0.8037
  457DG     O1910507   2.504   2.148   2.204 -0.1594  0.0851  0.7800
  457DG     H2010508   2.481   2.212   2.008 -1.6537  0.0104 -0.4927
  457DG     H2110509   2.587   2.074   2.027 -1.0687 -0.0638 -1.2914
  457DG     H2210510   2.707   2.129   2.214 -0.0580 -0.8419  1.2937
  457DG     H2310511   2.621   2.186   2.360  3.5710  2.0119 -0.3512
  458DG      C110512   5.231   1.650   2.809  0.5059 -0.5847  0.2128
  458DG      C210513   4.927   1.560   3.388  0.7185 -0.2517 -0.6974
  458DG      H310514   5.324   1.652   2.753 -0.0697  2.4344 -0.8252
  458DG      H410515   5.233   1.750   2.852 -4.4999 -0.2124  0.1188
  458DG      H510516   5.148   1.660   2.739  0.2922 -3.7625 -0.1408
  458DG      H610517   4.912   1.506   3.481  1.9309 -0.8538 -0.8253
  458DG      H710518   4.971   1.656   3.415  0.9190 -0.7484  0.8520
  458DG      H810519   4.837   1.573   3.329  0.5816 -0.9088 -0.6386
  458DG      O910520   5.224   1.566   2.922 -0.2666  1.0016 -0.0478
  458DG     O1010521   5.022   1.477   3.322  0.4502 -0.1857 -0.0425
  458DG     C1110522   5.227   1.421   2.886  0.7673  0.0329  0.0379
  458DG     C1210523   4.969   1.356   3.272 -0.0020 -0.1144 -0.0820
  458DG     H1310524   5.313   1.397   2.823 -0.3785 -2.9282 -0.5739
  458DG     H1410525   5.142   1.393   2.824 -1.7476  1.8212  2.4638
  458DG     H1510526   4.885   1.369   3.204 -0.7089 -2.3267  0.2763
  458DG     H1610527   4.929   1.285   3.345 -3.3139  0.6320 -1.0180
  458DG     C1710528   5.223   1.343   3.021  0.8786 -0.6394  0.1694
  458DG     C1810529   5.075   1.289   3.189 -0.0374 -0.4060  1.0374
  458DG     O1910530   5.105   1.378   3.080  0.3026  0.0210  0.2657
  458DG     H2010531   5.306   1.370   3.087 -0.4396 -0.8289  1.9843
  458DG     H2110532   5.238   1.237   3.001  0.9785 -0.9197  1.6089
  458DG     H2210533   5.161   1.260   3.249  0.0303 -1.4122  0.4664
  458DG     H2310534   5.037   1.197   3.145  0.1500 -0.2932  0.6321
  459DG      C110535   0.848   5.028   0.479  0.1957 -0.0899 -0.1505
  459DG      C210536   1.458   5.381   0.538  0.5316  0.4958  0.4376
  459DG      H310537   0.868   4.998   0.582  1.4351 -1.2442 -0.7073
  459DG      H410538   0.841   4.930   0.431  1.4570 -0.7133  0.8957
  459DG      H510539   0.754   5.084   0.479  0.3864  0.3907  2.7532
  459DG      H610540   1.543   5.333   0.489  0.7720 -0.3422  1.6325
  459DG      H710541   1.461   5.490   0.537  0.2814  0.5907  3.1278
  459DG      H810542   1.456   5.352   0.643  2.1262 -0.0565  0.3366
  459DG      O910543   0.956   5.117   0.429 -0.4798 -0.7296 -0.2359
  459DG     O1010544   1.340   5.351   0.466 -0.0534 -0.2735  0.0210
  459DG     C1110545   0.951   5.140   0.292  1.0992  0.0812  0.1938
  459DG     C1210546   1.348   5.381   0.327  0.3630 -0.1593 -0.0482
  459DG     H1310547   0.848   5.143   0.256  1.2262  0.0968 -0.1742
  459DG     H1410548   1.004   5.062   0.237  0.0174 -0.4567 -0.1262
  459DG     H1510549   1.404   5.307   0.270  1.2465 -0.5019  1.2332
  459DG     H1610550   1.394   5.479   0.315  0.2672 -0.2040 -0.8436
  459DG     C1710551   1.016   5.267   0.261  0.8249  0.3534  0.2614
  459DG     C1810552   1.214   5.401   0.273 -0.4719 -0.8571 -0.4080
  459DG     O1910553   1.138   5.288   0.316 -0.3875  0.2461  0.5763
  459DG     H2010554   0.955   5.349   0.298  0.0668  0.2341 -0.6905
  459DG     H2110555   1.025   5.288   0.155 -0.5585  1.4776  0.3338
  459DG     H2210556   1.167   5.488   0.319 -1.6246 -2.9228  2.6352
  459DG     H2310557   1.214   5.387   0.164 -0.2486 -0.9282 -0.3989
  460DG      C110558   5.387   0.763   2.175  0.6235 -0.0760  0.0214
  460DG      C210559   5.753   1.101   2.874  0.4500  0.3026  0.1559
  460DG      H310560   5.306   0.752   2.247  1.6037 -3.1487  0.7917
  460DG      H410561   5.461   0.688   2.201  0.7624 -0.0927 -0.4233
  460DG      H510562   5.364   0.759   2.069 -1.6140  0.6353  0.4141
  460DG      H610563   5.789   1.203   2.888 -0.7547  0.7433  0.1606
  460DG      H710564   5.689   1.076   2.959  0.7113 -0.9856 -0.0061
  460DG      H810565   5.837   1.033   2.867 -0.1283 -0.5964  1.4692
  460DG      O910566   5.453   0.891   2.185 -0.3902 -0.3630  0.2336
  460DG     O1010567   5.675   1.083   2.758 -0.8723 -0.9795 -0.1026
  460DG     C1110568   5.481   0.917   2.320 -0.0687 -0.1574  0.2424
  460DG     C1210569   5.733   1.159   2.648  0.2069 -0.1332  0.4126
  460DG     H1310570   5.529   0.832   2.368 -0.1919 -1.4161 -1.7129
  460DG     H1410571   5.388   0.933   2.374  0.0584  1.6850 -0.0389
  460DG     H1510572   5.830   1.123   2.614  0.2065  1.6558 -1.7350
  460DG     H1610573   5.754   1.262   2.676 -0.3463  0.1041 -0.0404
  460DG     C1710574   5.567   1.040   2.340  0.1803 -0.7215 -0.6864
  460DG     C1810575   5.646   1.167   2.526 -0.1561 -0.1012 -0.3079
  460DG     O1910576   5.620   1.034   2.477 -0.2931  0.0173  0.7065
  460DG     H2010577   5.506   1.125   2.311 -1.0685 -0.5379  2.1153
  460DG     H2110578   5.656   1.044   2.278 -0.9575  0.4452 -2.3139
  460DG     H2210579   5.548   1.211   2.545 -0.1846 -0.6987  1.0394
  460DG     H2310580   5.692   1.229   2.449  0.0387  1.3316  0.9297
  461DG      C110581   1.266   2.883   0.935  0.2679 -0.2902  0.0212
  461DG      C210582   0.850   2.228   0.626  0.9281  0.7806  0.1959
  461DG      H310583   1.174   2.921   0.981 -0.7587 -2.5870  0.0088
  461DG      H410584   1.265   2.946   0.846  1.9931  1.8268  1.3853
  461DG      H510585   1.354   2.912   0.992 -1.3281  0.0357  2.4928
  461DG      H610586   0.820   2.244   0.523  1.4394 -0.4095 -0.1519
  461DG      H710587   0.818   2.129   0.659  0.9093  0.6468 -0.2227
  461DG      H810588   0.791   2.288   0.695 -0.4764  0.1174 -0.3865
  461DG      O910589   1.244   2.745   0.922 -0.4413 -0.7035 -0.0214
  461DG     O1010590   0.988   2.243   0.642 -0.4423 -0.7092  0.3047
  461DG     C1110591   1.344   2.683   0.845  0.8664  0.1497 -0.0908
  461DG     C1210592   1.026   2.383   0.633  0.5231 -0.1429 -0.7956
  461DG     H1310593   1.441   2.681   0.894  0.8280 -0.6373 -0.0329
  461DG     H1410594   1.363   2.741   0.754  1.0469 -0.5556 -0.5098
  461DG     H1510595   0.952   2.449   0.677  1.1230 -0.5222  0.8542
  461DG     H1610596   1.040   2.405   0.527  0.7685 -2.9951 -1.4337
  461DG     C1710597   1.310   2.540   0.802  0.3448 -0.2180 -0.2759
  461DG     C1810598   1.150   2.398   0.724 -0.5075 -0.1450  0.6316
  461DG     O1910599   1.188   2.536   0.736 -0.0564 -0.8874  0.2943
  461DG     H2010600   1.306   2.483   0.894  0.4387  1.3750  0.7627
  461DG     H2110601   1.384   2.493   0.738 -0.8007  1.9815 -3.4797
  461DG     H2210602   1.141   2.351   0.821 -0.8222 -0.3202  0.5200
  461DG     H2310603   1.227   2.356   0.659 -1.7157  1.1515 -1.8205
  462DG      C110604   5.350   1.765   3.357 -0.3882 -0.6074  0.1389
  462DG      C210605   4.860   1.550   2.846  0.0967 -0.4286  0.1583
  462DG      H310606   5.437   1.813   3.314  1.2311 -1.0234  2.7259
  462DG      H410607   5.374   1.659   3.360 -0.8134 -0.7568 -1.1718
  462DG      H510608   5.342   1.799   3.460  0.8064 -2.2953  0.8348
  462DG      H610609   4.911   1.593   2.760 -1.4067 -1.2347 -1.1835
  462DG      H710610   4.876   1.443   2.861 -2.3433 -0.6976  1.4815
  462DG      H810611   4.753   1.562   2.827  0.2337 -0.4254 -0.6299
  462DG      O910612   5.225   1.778   3.290 -0.6445 -0.3068  0.1514
  462DG     O1010613   4.892   1.636   2.962  0.1332  0.6003  0.1922
  462DG     C1110614   5.180   1.912   3.295 -0.2950 -0.5701 -0.3529
  462DG     C1210615   4.867   1.775   2.952  0.4152 -0.2884 -0.4262
  462DG     H1310616   5.235   1.979   3.229  0.6281 -0.7809  0.1847
  462DG     H1410617   5.179   1.950   3.397  1.7386 -0.8159 -0.1955
  462DG     H1510618   4.767   1.796   2.912 -0.1189 -0.6971  0.6512
  462DG     H1610619   4.941   1.823   2.888  0.0115  0.7352 -0.1546
  462DG     C1710620   5.039   1.909   3.251 -0.0875  0.2021 -0.3158
  462DG     C1810621   4.884   1.847   3.090  0.4263  0.1010 -0.6644
  462DG     O1910622   5.021   1.834   3.131 -0.4933  0.6003 -0.4827
  462DG     H2010623   5.014   2.014   3.233  0.1725  0.5614  1.2851
  462DG     H2110624   4.972   1.863   3.324  0.5099  0.6407  0.5208
  462DG     H2210625   4.854   1.951   3.076 -2.4300 -0.5470  0.1366
  462DG     H2310626   4.811   1.804   3.158  0.8505 -0.1142 -0.3391
  463DG      C110627   0.231   5.029   3.091  0.2700  0.6687 -0.1362
  463DG      C210628   0.811   5.019   3.488 -0.2511 -0.9188  0.1109
  463DG      H310629   0.250   5.136   3.099  2.1375  0.3837 -0.3524
  463DG      H410630   0.124   5.013   3.109  0.2967 -1.5445 -1.6214
  463DG      H510631   0.257   5.000   2.989 -2.8533  1.4363 -1.2793
  463DG      H610632   0.865   5.041   3.396 -0.1299 -0.3273  0.3164
  463DG      H710633   0.788   5.118   3.528 -1.7889 -1.1865 -0.0494
  463DG      H810634   0.874   4.961   3.555 -0.0895  0.9211  1.6571
  463DG      O910635   0.315   4.958   3.186 -0.6884 -0.1634 -0.0719
  463DG     O1010636   0.700   4.948   3.439 -0.1443  0.3501  0.0212
  463DG     C1110637   0.294   4.822   3.183 -0.1551  0.2959 -0.0947
  463DG     C1210638   0.733   4.820   3.396 -0.0054  0.2729  0.3100
  463DG     H1310639   0.303   4.782   3.081  1.0188  1.4607 -0.4706
  463DG     H1410640   0.191   4.794   3.206 -0.3477  0.3383 -0.8562
  463DG     H1510641   0.799   4.766   3.464  2.8100 -1.3153 -3.3911
  463DG     H1610642   0.789   4.814   3.303  0.8158 -0.1251  0.8192
  463DG     C1710643   0.379   4.733   3.285 -0.5105 -0.2696  0.4078
  463DG     C1810644   0.597   4.745   3.403  0.2531 -0.6117 -0.1788
  463DG     O1910645   0.506   4.804   3.304 -0.0164 -0.0123  0.0890
  463DG     H2010646   0.386   4.632   3.246  2.5695  0.2355 -0.5708
  463DG     H2110647   0.325   4.750   3.379 -3.4188  0.4452 -1.2477
  463DG     H2210648   0.614   4.643   3.371  1.0887 -0.6298  0.2860
  463DG     H2310649   0.551   4.734   3.501 -0.6996 -0.2086 -0.5696
  464DG      C110650   2.302   1.678   5.316  0.2560  0.4429  0.1667
  464DG      C210651   2.588   1.680   4.653 -0.1764  0.0704 -0.4366
  464DG      H310652   2.240   1.619   5.384  2.2755  0.8591  2.5237
  464DG      H410653   2.316   1.775   5.364 -1.7392  1.1653 -0.6318
  464DG      H510654   2.399   1.627   5.316  0.8438  1.5169  1.2996
  464DG      H610655   2.642   1.591   4.621 -1.4425 -1.0226  0.3774
  464DG      H710656   2.520   1.713   4.575 -1.5396  1.1426  1.1321
  464DG      H810657   2.655   1.766   4.658  1.5662 -1.2625  0.2485
  464DG      O910658   2.231   1.690   5.187 -0.0535 -0.2041 -0.2298
  464DG     O1010659   2.499   1.656   4.759 -0.4619  0.4048 -0.5571
  464DG     C1110660   2.192   1.565   5.125  0.3062  0.0152 -0.5913
  464DG     C1210661   2.560   1.638   4.882 -0.7854 -0.1018  0.1816
  464DG     H1310662   2.138   1.600   5.037 -2.0319 -0.0058  0.7652
  464DG     H1410663   2.132   1.508   5.195  0.7052  0.0662 -0.2020
  464DG     H1510664   2.625   1.723   4.899 -1.4916  0.8251 -1.5263
  464DG     H1610665   2.624   1.550   4.892  0.5674  1.0426  2.3823
  464DG     C1710666   2.312   1.477   5.087  0.4343  0.3312 -0.1724
  464DG     C1810667   2.459   1.650   4.992 -0.3591 -0.2736 -0.1934
  464DG     O1910668   2.378   1.531   4.972  0.5187  0.5581 -0.3742
  464DG     H2010669   2.285   1.375   5.060 -0.3135  0.7992 -1.2768
  464DG     H2110670   2.388   1.458   5.163  0.6876 -0.0357 -0.5150
  464DG     H2210671   2.518   1.645   5.084  0.8502 -0.7215 -0.9620
  464DG     H2310672   2.400   1.741   4.984 -3.7579 -2.3995 -1.5956
  465DG      C110673   4.497   2.697   2.168 -0.0347  0.2525 -0.7039
  465DG      C210674   4.089   2.749   2.609  0.4645  0.0107 -0.4027
  465DG      H310675   4.449   2.782   2.118 -0.3549  0.8742  0.6143
  465DG      H410676   4.554   2.662   2.082 -1.3602  1.9654 -2.3733
  465DG      H510677   4.554   2.737   2.252 -0.1539 -0.0341 -0.4849
  465DG      H610678   4.124   2.772   2.710  1.0340 -1.2164 -0.3010
  465DG      H710679   4.178   2.765   2.547 -0.8320  0.9308 -2.1031
  465DG      H810680   4.014   2.822   2.577 -0.3318  0.1338  1.6189
  465DG      O910681   4.395   2.607   2.218  0.3964 -0.1748 -0.4489
  465DG     O1010682   4.040   2.625   2.579 -0.5199 -0.2304  0.2930
  465DG     C1110683   4.448   2.489   2.291  0.7313 -0.3054  0.9546
  465DG     C1210684   4.113   2.509   2.629  0.4211  0.2946  0.0851
  465DG     H1310685   4.524   2.521   2.363 -0.0158  1.8177  0.8838
  465DG     H1410686   4.502   2.435   2.214  0.3418  1.7580 -0.8771
  465DG     H1510687   4.048   2.446   2.690  2.4806 -0.9609  1.0969
  465DG     H1610688   4.190   2.534   2.702  0.9595  0.0271 -0.3817
  465DG     C1710689   4.333   2.412   2.352  1.0552 -0.5635  1.0139
  465DG     C1810690   4.175   2.424   2.522  0.2017 -0.6457 -0.5178
  465DG     O1910691   4.277   2.494   2.453  0.7224  0.2256 -0.6650
  465DG     H2010692   4.369   2.317   2.392  0.1123 -0.1267  3.0550
  465DG     H2110693   4.251   2.380   2.289 -0.5464  1.6791  1.8052
  465DG     H2210694   4.203   2.327   2.564  1.4299 -0.2674 -0.4275
  465DG     H2310695   4.100   2.402   2.446 -0.3169  0.5512 -0.3622
  466DG      C110696   3.808   1.257   0.354  0.3823 -0.0515  0.3430
  466DG      C210697   3.698   1.294  -0.362  0.0377 -0.0045 -0.1326
  466DG      H310698   3.730   1.203   0.301  1.3347  0.0124 -1.1895
  466DG      H410699   3.765   1.353   0.384  0.2438  0.5196 -1.5726
  466DG      H510700   3.856   1.206   0.438 -2.5117 -1.4620  1.2725
  466DG      H610701   3.662   1.193  -0.340  1.0960 -0.0384  1.6063
  466DG      H710702   3.620   1.363  -0.332 -0.5748 -1.5386  2.0929
  466DG      H810703   3.712   1.329  -0.464  1.5237 -0.8408 -0.2375
  466DG      O910704   3.895   1.286   0.246  0.2043  0.2777 -0.0903
  466DG     O1010705   3.809   1.325  -0.275 -1.3187 -0.0900 -0.4672
  466DG     C1110706   3.960   1.173   0.190 -0.3294 -0.5164 -0.1289
  466DG     C1210707   3.914   1.224  -0.283  0.6700 -0.0135  0.1826
  466DG     H1310708   3.884   1.096   0.188  0.2790 -1.1221 -0.5612
  466DG     H1410709   4.047   1.141   0.246  1.1688 -0.7569 -2.4367
  466DG     H1510710   3.968   1.243  -0.376 -0.5098  0.4305 -0.4347
  466DG     H1610711   3.879   1.122  -0.294  4.9424 -1.4235 -2.8034
  466DG     C1710712   4.031   1.212   0.059  0.1278  0.2393  0.7961
  466DG     C1810713   4.019   1.234  -0.167  0.1699 -0.5770  0.1307
  466DG     O1910714   3.943   1.211  -0.048  0.2007 -0.6766  0.0870
  466DG     H2010715   4.107   1.137   0.038  0.6055  1.2017 -1.0917
  466DG     H2110716   4.070   1.313   0.070  0.0671  0.1028  2.4359
  466DG     H2210717   4.103   1.173  -0.197  1.3737  1.0431  0.0512
  466DG     H2310718   4.069   1.331  -0.164  0.1966 -0.4217 -2.6302
  467DG      C110719   1.388   2.592   2.622 -0.1123  0.7870 -0.1337
  467DG      C210720   2.069   2.783   2.617  0.1536 -0.8325 -0.6871
  467DG      H310721   1.302   2.641   2.667 -0.0696 -0.0456  0.8924
  467DG      H410722   1.423   2.507   2.682 -1.4092  1.0980  1.0991
  467DG      H510723   1.336   2.554   2.535  1.3361 -0.3641 -0.5554
  467DG      H610724   2.069   2.734   2.715  1.0785 -0.8048 -0.6571
  467DG      H710725   2.159   2.845   2.613  1.5986 -2.8206 -0.5926
  467DG      H810726   1.990   2.857   2.622  0.7863 -0.1550  3.4113
  467DG      O910727   1.492   2.688   2.605  0.4587  0.1403 -0.5597
  467DG     O1010728   2.046   2.693   2.510 -0.4433  0.1212 -0.9469
  467DG     C1110729   1.550   2.728   2.730 -0.0207 -0.4708 -0.4960
  467DG     C1210730   1.941   2.606   2.539 -0.1185  0.0648 -0.3123
  467DG     H1310731   1.565   2.644   2.799 -1.4011 -0.5227 -0.2425
  467DG     H1410732   1.475   2.788   2.782  1.7730  2.1568 -0.7442
  467DG     H1510733   1.956   2.540   2.624 -3.2167 -0.9420 -0.4331
  467DG     H1610734   1.924   2.541   2.453 -1.0755 -0.1451  0.0272
  467DG     C1710735   1.670   2.813   2.708  0.5032  0.3909 -0.2855
  467DG     C1810736   1.801   2.675   2.559 -1.1455  0.1752 -0.7235
  467DG     O1910737   1.780   2.721   2.690  0.2314 -0.0867 -0.3130
  467DG     H2010738   1.682   2.866   2.803 -0.4925 -1.5000  0.9726
  467DG     H2110739   1.663   2.877   2.621 -0.2537 -1.2482 -1.4867
  467DG     H2210740   1.793   2.758   2.489  2.2985  1.3268  0.0518
  467DG     H2310741   1.719   2.607   2.538 -0.9826 -0.3260  0.2108
  468DG      C110742   2.636   1.504   0.048  0.2394  0.0587  0.3115
  468DG      C210743   2.978   0.961  -0.194 -0.5710  0.7439 -0.2171
  468DG      H310744   2.663   1.598   0.097 -3.0165  0.7925  0.9738
  468DG      H410745   2.533   1.479   0.076  0.5811 -1.5265  0.2082
  468DG      H510746   2.633   1.514  -0.060  1.2849 -2.1313  0.0373
  468DG      H610747   2.954   1.040  -0.265 -0.2378 -0.6433 -1.9515
  468DG      H710748   3.074   0.912  -0.205 -0.9919 -0.9045  2.5860
  468DG      H810749   2.918   0.870  -0.199  2.3146 -1.3089  0.0431
  468DG      O910750   2.722   1.402   0.071  0.3074  0.2867  0.3777
  468DG     O1010751   2.976   1.037  -0.077 -0.0973  0.3350 -0.2998
  468DG     C1110752   2.717   1.346   0.200  0.2373 -0.5259  0.5016
  468DG     C1210753   2.979   0.966   0.043  0.0348  0.4268 -0.1175
  468DG     H1310754   2.639   1.270   0.202  0.2210 -0.6003 -1.5053
  468DG     H1410755   2.704   1.433   0.265  0.9567 -0.1618  0.1743
  468DG     H1510756   3.065   0.899   0.044 -0.9567 -0.8831  0.2207
  468DG     H1610757   2.898   0.893   0.049  0.1444  0.3530  0.6035
  468DG     C1710758   2.846   1.264   0.232  0.3089  0.3722  0.0891
  468DG     C1810759   2.972   1.077   0.147 -0.3228 -0.2716  0.0811
  468DG     O1910760   2.853   1.155   0.138  0.2518 -0.2171  0.1925
  468DG     H2010761   2.851   1.235   0.337 -0.2586  0.2077  0.0698
  468DG     H2110762   2.924   1.335   0.201 -0.6784  0.5468 -2.2190
  468DG     H2210763   2.982   1.036   0.248 -1.0700  1.0760  0.7252
  468DG     H2310764   3.059   1.142   0.135 -0.8151  0.5675  0.9572
  469DG      C110765   1.999   1.492   3.799 -0.0346 -0.6328  0.6825
  469DG      C210766   1.396   1.687   4.431 -0.3689  0.7847  0.5375
  469DG      H310767   1.985   1.574   3.728  1.1841 -1.5453 -0.6667
  469DG      H410768   1.956   1.403   3.755  0.9608 -0.0812 -1.5283
  469DG      H510769   2.104   1.482   3.828 -0.4381 -0.8214  2.2126
  469DG      H610770   1.371   1.586   4.399  0.7627  1.0868 -1.4846
  469DG      H710771   1.396   1.710   4.537  1.0621  0.8847  0.5297
  469DG      H810772   1.326   1.756   4.384 -0.6111 -1.0778 -2.0525
  469DG      O910773   1.922   1.526   3.911  0.4480  0.0262 -0.0067
  469DG     O1010774   1.525   1.699   4.394  0.0099  0.2902  0.2867
  469DG     C1110775   1.965   1.648   3.979 -0.2117  0.2934  0.1396
  469DG     C1210776   1.559   1.679   4.255  0.6879 -0.1744 -0.5211
  469DG     H1310777   1.924   1.736   3.930 -0.6354  0.5161  0.8759
  469DG     H1410778   2.074   1.650   3.978 -0.2012  0.6566  1.1074
  469DG     H1510779   1.543   1.776   4.208  0.7046  0.2790  0.3956
  469DG     H1610780   1.508   1.593   4.211 -0.1567 -1.4811  2.7243
  469DG     C1710781   1.909   1.653   4.124  0.0865  0.2063  0.3135
  469DG     C1810782   1.715   1.676   4.249  0.4065 -0.1005 -0.4035
  469DG     O1910783   1.764   1.641   4.121  0.1673 -0.9031  0.6398
  469DG     H2010784   1.938   1.745   4.174 -1.9825  1.2932 -0.3607
  469DG     H2110785   1.952   1.574   4.186 -1.5336 -0.4743  0.6371
  469DG     H2210786   1.762   1.771   4.273 -0.9776  1.2252 -2.4608
  469DG     H2310787   1.759   1.608   4.321 -0.3843 -0.0899  0.1060
  470DG      C110788   3.482   0.921   4.481 -0.0779  0.2597 -0.2304
  470DG      C210789   4.077   0.663   4.030  0.5232  0.3124 -0.1626
  470DG      H310790   3.418   0.844   4.524  0.5258 -0.3934 -0.4805
  470DG      H410791   3.412   1.002   4.459 -1.4170 -0.9153 -0.4727
  470DG      H510792   3.561   0.948   4.551  1.9281 -0.3933 -2.1313
  470DG      H610793   4.106   0.619   3.934  0.5803  0.7071 -0.3280
  470DG      H710794   4.160   0.731   4.052  0.7326  0.3546 -1.0425
  470DG      H810795   4.080   0.582   4.102 -0.3624 -2.1123 -2.6781
  470DG      O910796   3.545   0.868   4.362 -0.3143  0.1245  0.3428
  470DG     O1010797   3.955   0.730   4.033  0.0197 -0.0903  0.2478
  470DG     C1110798   3.651   0.783   4.368  0.3862  0.6120  0.0574
  470DG     C1210799   3.833   0.679   3.968 -0.4869 -0.0842  0.2076
  470DG     H1310800   3.606   0.690   4.403  2.1067 -1.1638 -2.1469
  470DG     H1410801   3.720   0.807   4.449 -0.3360  0.7149  0.6550
  470DG     H1510802   3.832   0.574   3.998 -0.3780 -0.2630 -0.3975
  470DG     H1610803   3.866   0.691   3.865 -0.2176  0.8759  0.3950
  470DG     C1710804   3.733   0.783   4.235  0.7310  0.0981 -0.1774
  470DG     C1810805   3.705   0.750   4.005 -0.4765  0.4857 -0.0718
  470DG     O1910806   3.663   0.721   4.137  0.6962  0.2164  0.5053
  470DG     H2010807   3.828   0.742   4.267 -0.0951 -0.1501  2.1251
  470DG     H2110808   3.760   0.886   4.212 -0.0038  0.7113  1.5058
  470DG     H2210809   3.706   0.857   3.987 -1.3570  0.5799  0.3865
  470DG     H2310810   3.627   0.699   3.947  0.5928 -1.6072  0.2478
  471DG      C110811   3.329   5.379   1.189 -0.4369  0.3335  0.1215
  471DG      C210812   3.047   6.109   0.902  0.6827 -0.0849 -0.1299
  471DG      H310813   3.335   5.353   1.295 -0.1987  1.4485  0.3856
  471DG      H410814   3.419   5.341   1.141 -0.2303 -0.5680  1.1823
  471DG      H510815   3.242   5.342   1.133  0.7945  0.9619 -2.3269
  471DG      H610816   3.095   6.106   0.804  0.1146 -1.5084 -0.4021
  471DG      H710817   2.944   6.077   0.883  0.2802  0.0382  1.7347
  471DG      H810818   3.034   6.203   0.954 -0.1101 -0.4400  0.3359
  471DG      O910819   3.332   5.520   1.183 -0.1447  0.0930 -0.2830
  471DG     O1010820   3.136   6.016   0.966  0.3971  0.1945 -0.3890
  471DG     C1110821   3.248   5.583   1.284 -0.1533  0.3744  0.2545
  471DG     C1210822   3.098   6.012   1.108 -0.1797 -0.2376  0.7098
  471DG     H1310823   3.271   5.533   1.378  0.2877 -0.0915 -0.0952
  471DG     H1410824   3.144   5.568   1.257 -0.0934  0.6808 -0.1558
  471DG     H1510825   2.998   5.972   1.118  0.2337 -1.4677  0.0983
  471DG     H1610826   3.109   6.113   1.150 -0.4636  0.0903  0.0000
  471DG     C1710827   3.268   5.730   1.285  0.1800 -0.7461 -0.2082
  471DG     C1810828   3.192   5.931   1.195  0.0095 -0.1250 -0.0240
  471DG     O1910829   3.199   5.796   1.178  0.3030 -0.7344  0.3266
  471DG     H2010830   3.370   5.769   1.293 -0.1986  0.1633  0.5388
  471DG     H2110831   3.217   5.743   1.381  1.9451 -2.3984  1.0319
  471DG     H2210832   3.289   5.981   1.199  0.5131 -1.0825 -0.0644
  471DG     H2310833   3.158   5.947   1.298 -0.3466 -0.8776 -0.0158
  472DG      C110834   5.026   3.820   1.511  0.2347  0.1724 -0.2040
  472DG      C210835   5.355   3.636   0.942 -0.7802  0.5879 -0.1142
  472DG      H310836   4.922   3.806   1.479  0.1397  0.0122  0.1736
  472DG      H410837   5.051   3.925   1.500 -0.8684  0.3648 -1.1622
  472DG      H510838   5.024   3.819   1.620 -1.1706 -1.0695 -0.1967
  472DG      H610839   5.331   3.545   0.886  2.1385 -0.8695  0.7911
  472DG      H710840   5.304   3.719   0.893  0.2802  1.3609  0.0559
  472DG      H810841   5.459   3.669   0.935  0.4463 -3.0027 -1.4135
  472DG      O910842   5.121   3.737   1.462 -0.8024  0.1062 -0.3036
  472DG     O1010843   5.308   3.637   1.073  0.5310 -0.4029  0.5764
  472DG     C1110844   5.248   3.746   1.535  0.8156 -0.9421  0.2590
  472DG     C1210845   5.370   3.538   1.147  0.0400  0.8166  0.0952
  472DG     H1310846   5.239   3.737   1.643 -1.4805  0.9726  0.3036
  472DG     H1410847   5.301   3.840   1.513  1.2770 -1.5381 -1.3629
  472DG     H1510848   5.476   3.523   1.164 -0.5198 -1.3584  2.3010
  472DG     H1610849   5.345   3.447   1.092  0.4009  0.9739 -0.3350
  472DG     C1710850   5.333   3.621   1.497  0.4842 -0.4308 -0.0451
  472DG     C1810851   5.304   3.531   1.282 -0.2421  0.3627 -0.3692
  472DG     O1910852   5.341   3.643   1.355 -0.0520 -0.0736  0.0105
  472DG     H2010853   5.276   3.530   1.517  1.1662 -0.4606  1.9521
  472DG     H2110854   5.429   3.613   1.547  0.1416 -0.1521  0.6618
  472DG     H2210855   5.195   3.523   1.292 -0.1978  1.3422  1.3225
  472DG     H2310856   5.343   3.442   1.331 -1.1520  0.5437  0.7282
  473DG      C110857   4.210   5.236   5.195  0.0224  0.2169 -0.3390
  473DG      C210858   3.757   5.082   4.633  0.1644 -0.1605 -0.0126
  473DG      H310859   4.268   5.312   5.247 -0.2117  1.2058 -1.4890
  473DG      H410860   4.253   5.137   5.213  0.4845  0.5167  0.2347
  473DG      H510861   4.115   5.224   5.246  0.3831 -3.9677 -0.2664
  473DG      H610862   3.736   5.137   4.540  0.3123 -0.2182 -0.0805
  473DG      H710863   3.786   4.983   4.599 -1.2354 -0.2520 -1.0413
  473DG      H810864   3.672   5.075   4.700  0.7051  0.8753  0.8154
  473DG      O910865   4.197   5.264   5.053  0.0496  0.0012  0.0868
  473DG     O1010866   3.879   5.153   4.687  0.3080  0.3449  0.2180
  473DG     C1110867   4.305   5.222   4.967  0.2036  0.3895 -0.1782
  473DG     C1210868   3.997   5.136   4.603  0.6867 -0.3234 -0.1654
  473DG     H1310869   4.318   5.116   4.990 -1.4608 -0.2232 -1.7880
  473DG     H1410870   4.400   5.274   4.977  0.1190  0.5748 -0.3439
  473DG     H1510871   3.985   5.161   4.498  2.6476  1.2932 -0.0836
  473DG     H1610872   4.028   5.032   4.604  1.5742 -0.0682 -0.4180
  473DG     C1710873   4.265   5.246   4.822  0.0482 -0.0504  0.0170
  473DG     C1810874   4.102   5.231   4.656 -0.3183  0.2655 -0.2682
  473DG     O1910875   4.149   5.174   4.783  0.4936  0.2055  0.3237
  473DG     H2010876   4.345   5.222   4.752  0.3930 -2.4468  1.0977
  473DG     H2110877   4.242   5.352   4.826  0.2878  0.0265  4.3019
  473DG     H2210878   4.185   5.219   4.587  1.0743  0.2685  1.3561
  473DG     H2310879   4.081   5.338   4.661  1.5808  0.6760 -0.5544
  474DG      C110880   3.188   3.054   5.485  0.2408 -0.0522 -0.5677
  474DG      C210881   3.115   2.504   5.287 -0.7253 -0.0116  0.1239
  474DG      H310882   3.084   3.051   5.451 -1.0756  1.4499  2.8279
  474DG      H410883   3.179   3.094   5.586 -1.4217 -1.9624  0.1073
  474DG      H510884   3.219   2.950   5.500 -0.5066 -0.3521 -1.0263
  474DG      H610885   3.008   2.508   5.269 -0.7737 -3.4743 -1.0412
  474DG      H710886   3.159   2.443   5.208  2.0047  0.8680  0.8336
  474DG      H810887   3.148   2.453   5.378 -0.6353 -4.0045 -1.9446
  474DG      O910888   3.279   3.144   5.421  0.6008 -0.0027 -0.4087
  474DG     O1010889   3.174   2.635   5.275  0.3845 -0.1188  0.4173
  474DG     C1110890   3.253   3.145   5.285  0.4684 -0.5183  0.9768
  474DG     C1210891   3.108   2.714   5.183 -0.0211 -0.1831  0.6330
  474DG     H1310892   3.312   3.228   5.244 -1.3341  1.0500  1.3986
  474DG     H1410893   3.147   3.159   5.267  0.0187 -1.5176  2.6286
  474DG     H1510894   3.015   2.744   5.229 -1.5160 -3.5545  0.1392
  474DG     H1610895   3.070   2.659   5.097  2.0029  0.8252 -1.0030
  474DG     C1710896   3.306   3.023   5.216 -0.4874  0.3106 -0.4286
  474DG     C1810897   3.202   2.828   5.137 -0.2564  0.2317 -0.2753
  474DG     O1910898   3.228   2.907   5.253 -0.0578 -0.2748  0.1822
  474DG     H2010899   3.409   3.014   5.249 -0.6623 -0.3323 -0.0337
  474DG     H2110900   3.317   3.036   5.108 -0.8249 -0.5625 -0.5735
  474DG     H2210901   3.287   2.778   5.090 -0.0208  0.9571 -0.6298
  474DG     H2310902   3.139   2.883   5.068  1.5445  1.1244 -1.2835
  475DG      C110903   4.024   3.322   5.106 -0.2176  0.5298 -0.4773
  475DG      C210904   3.611   3.670   5.472  0.4229 -0.4682 -0.2331
  475DG      H310905   4.131   3.335   5.125 -0.4082 -0.1375  1.2904
  475DG      H410906   3.990   3.388   5.027  0.9340 -1.1231 -2.4485
  475DG      H510907   4.004   3.217   5.087 -2.1767  0.7986 -0.0768
  475DG      H610908   3.576   3.700   5.571 -0.8635  0.4163 -0.9263
  475DG      H710909   3.613   3.760   5.411 -0.1186  0.7431  1.4815
  475DG      H810910   3.547   3.591   5.433  2.0169 -2.4818  1.0222
  475DG      O910911   3.964   3.364   5.227 -0.2783 -0.2487 -0.2813
  475DG     O1010912   3.738   3.609   5.480  0.0154 -0.0327 -0.1598
  475DG     C1110913   3.993   3.288   5.344 -0.3357  0.0904  0.2923
  475DG     C1210914   3.834   3.678   5.554 -0.0814 -0.1705 -0.5655
  475DG     H1310915   4.098   3.282   5.371 -0.6296 -0.0198  1.4382
  475DG     H1410916   3.953   3.187   5.351  2.3443 -1.0322  0.4165
  475DG     H1510917   3.799   3.734   5.642 -1.1350 -2.2482  0.3983
  475DG     H1610918   3.891   3.739   5.483  1.6992 -1.6491 -0.4812
  475DG     C1710919   3.930   3.359   5.468 -0.8360 -0.1301  0.4358
  475DG     C1810920   3.938   3.570   5.593  0.0823 -0.6641  0.1174
  475DG     O1910921   3.990   3.499   5.485  0.2821  0.3797 -0.4525
  475DG     H2010922   3.944   3.297   5.556  0.4436 -0.8185 -0.2234
  475DG     H2110923   3.825   3.365   5.439 -0.7402  1.1787  0.3033
  475DG     H2210924   4.027   3.620   5.632 -0.1689  0.4359 -0.6942
  475DG     H2310925   3.902   3.508   5.675  1.3641  1.2937  2.3022
  476DG      C110926   1.146   1.814   3.431 -0.8906 -0.3255  0.0648
  476DG      C210927   1.334   2.082   3.915  0.0989 -0.0587 -0.7206
  476DG      H310928   1.166   1.745   3.348  0.2853  0.5930 -0.4393
  476DG      H410929   1.177   1.915   3.405  1.0257 -0.6907  0.8358
  476DG      H510930   1.037   1.815   3.440 -0.8951 -0.8648  0.0909
  476DG      H610931   1.263   2.142   3.973 -0.5346  0.0613 -1.6029
  476DG      H710932   1.407   2.061   3.993 -0.1409  1.2762 -0.1065
  476DG      H810933   1.381   2.144   3.840 -1.5055  4.2527  1.4731
  476DG      O910934   1.205   1.770   3.554  0.1100 -0.3401 -0.3395
  476DG     O1010935   1.285   1.956   3.876 -0.9934  0.4892  0.4281
  476DG     C1110936   1.125   1.668   3.615  0.5596 -0.0756 -0.2009
  476DG     C1210937   1.237   1.875   3.979  0.6037 -0.0583  0.0837
  476DG     H1310938   1.104   1.590   3.542  2.9301 -0.4081 -0.6032
  476DG     H1410939   1.030   1.704   3.655 -0.6511 -1.4658 -1.6536
  476DG     H1510940   1.167   1.916   4.053 -0.5171 -1.1603 -0.3318
  476DG     H1610941   1.310   1.834   4.049  0.1636  0.6726  0.9959
  476DG     C1710942   1.201   1.609   3.733 -0.3603 -0.2839 -0.1207
  476DG     C1810943   1.161   1.759   3.912 -0.1481  0.0238 -0.2329
  476DG     O1910944   1.254   1.713   3.814  0.3178 -0.4804 -0.2292
  476DG     H2010945   1.277   1.548   3.684 -1.0270 -0.4334 -0.9916
  476DG     H2110946   1.130   1.553   3.794 -0.2263  0.9846  1.2373
  476DG     H2210947   1.134   1.680   3.983  1.7991 -0.4534  0.0558
  476DG     H2310948   1.068   1.803   3.879 -1.0734 -1.3783  0.3884
  477DG      C110949   0.652   3.962   3.340  0.0546 -0.3537 -0.1245
  477DG      C210950   0.103   3.439   3.233 -0.3315  0.1952 -1.2388
  477DG      H310951   0.703   3.901   3.414  0.0441  0.0537  0.2194
  477DG      H410952   0.658   4.069   3.356  0.1590 -0.8381  4.0223
  477DG      H510953   0.702   3.938   3.246  3.8128 -0.4048  1.7030
  477DG      H610954   0.112   3.388   3.137 -3.1997  0.1828 -1.5656
  477DG      H710955   0.180   3.399   3.300 -2.0819  0.2739  0.9244
  477DG      H810956   0.010   3.413   3.284  0.8642  0.4246  1.2504
  477DG      O910957   0.514   3.932   3.333 -0.0351 -0.2125 -0.3486
  477DG     O1010958   0.125   3.583   3.223  0.2702 -0.3216  0.7439
  477DG     C1110959   0.456   3.986   3.220  0.5711  0.1564 -0.1598
  477DG     C1210960   0.114   3.651   3.348  0.2876 -1.1692  0.1306
  477DG     H1310961   0.493   3.937   3.131 -0.7462 -0.5931 -0.3270
  477DG     H1410962   0.475   4.093   3.214  1.5201  0.0229  0.2964
  477DG     H1510963   0.176   3.619   3.431  0.5768  0.1803  0.4564
  477DG     H1610964   0.010   3.663   3.379  0.7194  1.1574  0.8627
  477DG     C1710965   0.305   3.958   3.235  0.2302  0.0895 -0.1371
  477DG     C1810966   0.148   3.799   3.317  0.7842 -0.7254 -0.0391
  477DG     O1910967   0.277   3.817   3.267 -0.3620 -0.0708  0.1316
  477DG     H2010968   0.254   3.980   3.141 -0.9416  1.4280  0.7571
  477DG     H2110969   0.260   4.021   3.311  0.0226  0.8311 -0.8622
  477DG     H2210970   0.074   3.832   3.244  0.8334 -1.1644 -0.2939
  477DG     H2310971   0.135   3.854   3.410  1.6366 -0.0144 -0.3339
  478DG      C110972   4.914   0.863   4.222  0.5081 -0.2113  0.5307
  478DG      C210973   4.557   1.354   4.046 -1.0448 -0.1962  0.6606
  478DG      H310974   4.870   0.813   4.136  0.2612 -0.0435  0.5594
  478DG      H410975   4.935   0.779   4.288  0.4330 -1.2838 -0.7829
  478DG      H510976   5.005   0.918   4.195  0.1893 -0.3801 -0.9579
  478DG      H610977   4.510   1.452   4.060  3.2411  1.9330  1.8983
  478DG      H710978   4.656   1.364   4.002 -0.7720 -0.5169  1.1859
  478DG      H810979   4.500   1.285   3.983 -0.6410 -0.1908  0.2843
  478DG      O910980   4.831   0.954   4.290 -0.3837 -0.2986  0.6776
  478DG     O1010981   4.582   1.304   4.178  0.2533  0.1324  0.3319
  478DG     C1110982   4.724   0.897   4.363 -0.4626  0.3317 -0.0749
  478DG     C1210983   4.463   1.253   4.241 -0.3016 -0.1893  0.8697
  478DG     H1310984   4.762   0.825   4.436 -0.0889  0.6472  0.0419
  478DG     H1410985   4.646   0.847   4.305 -0.0925 -1.4754  0.8828
  478DG     H1510986   4.401   1.180   4.188 -2.0374  2.0938 -0.4076
  478DG     H1610987   4.386   1.330   4.248 -3.3232 -2.9782  1.1202
  478DG     C1710988   4.658   1.014   4.435  0.3651  0.4162  0.9916
  478DG     C1810989   4.506   1.191   4.369 -0.0998 -0.4172  0.0025
  478DG     O1910990   4.607   1.098   4.337 -0.9281  0.2136  0.5429
  478DG     H2010991   4.726   1.060   4.507  0.9374  0.9894  0.1060
  478DG     H2110992   4.572   0.961   4.477  0.6829 -1.5332 -0.6487
  478DG     H2210993   4.558   1.261   4.434  2.1633 -0.2784 -1.8078
  478DG     H2310994   4.427   1.139   4.422  2.1710 -3.3924  0.7571
  479DG      C110995   0.062   5.111   2.802  0.0938  0.2121  1.0268
  479DG      C210996   0.157   5.735   2.545  0.2029 -0.4300 -0.3526
  479DG      H310997   0.062   5.002   2.807  0.1299  0.0944 -0.9544
  479DG      H410998  -0.005   5.150   2.879  0.6541  1.7444  0.7676
  479DG      H510999   0.158   5.141   2.843  0.2716 -2.7635  3.1259
  479DG      H611000   0.106   5.746   2.641  2.5155  0.2205  0.8598
  479DG      H711001   0.261   5.746   2.573  0.6088  0.8100 -2.1687
  479DG      H811002   0.131   5.821   2.483 -0.6750  0.5608  1.3304
  479DG      O911003   0.043   5.168   2.672  0.0859 -0.1154  0.6701
  479DG     O1011004   0.142   5.604   2.480 -0.0852 -0.1814 -0.2564
  479DG     C1111005  -0.084   5.174   2.612 -0.3506 -0.3087  0.1703
  479DG     C1211006   0.023   5.603   2.412 -0.1085  0.1760  0.6662
  479DG     H1311007  -0.155   5.204   2.689  2.7414 -1.1156  3.6094
  479DG     H1411008  -0.102   5.068   2.592  3.0742 -1.0499  0.4729
  479DG     H1511009   0.035   5.649   2.315 -0.4109 -1.5181 -0.2154
  479DG     H1611010  -0.059   5.652   2.464 -0.8584 -0.4160  0.0700
  479DG     C1711011  -0.083   5.252   2.481  0.2892 -0.0261  0.0157
  479DG     C1811012  -0.015   5.460   2.385 -0.9952 -0.4635 -0.6728
  479DG     O1911013  -0.046   5.388   2.503 -0.2846 -0.2016  0.1845
  479DG     H2011014  -0.178   5.238   2.429 -0.1603  1.2319  0.4452
  479DG     H2111015  -0.004   5.212   2.418  1.4542  3.4192 -0.9338
  479DG     H2211016  -0.101   5.456   2.318 -0.0004 -0.6636 -1.9947
  479DG     H2311017   0.066   5.409   2.332 -0.0133 -1.0053  1.2459
  480DG      C111018   3.396   4.763   2.152 -0.1308  0.2669 -0.5522
  480DG      C211019   2.805   4.526   2.026 -0.3198 -0.2062 -0.5685
  480DG      H311020   3.367   4.840   2.081 -1.7766 -0.0419 -0.2503
  480DG      H411021   3.429   4.675   2.096  1.1967 -0.6779  1.5624
  480DG      H511022   3.478   4.787   2.219  0.2815 -0.2021 -0.8769
  480DG      H611023   2.735   4.442   2.026  1.7947 -2.0543 -0.3743
  480DG      H711024   2.744   4.612   2.052 -1.0073 -1.4602  2.3243
  480DG      H811025   2.840   4.552   1.926 -0.8723 -2.8402 -1.5354
  480DG      O911026   3.274   4.750   2.228  0.1353  0.1257 -0.2968
  480DG     O1011027   2.912   4.515   2.121 -0.1381  0.1653 -0.1802
  480DG     C1111028   3.289   4.655   2.333 -0.4698 -0.6218 -0.4718
  480DG     C1211029   2.984   4.399   2.082  0.3634  0.4152 -1.1407
  480DG     H1311030   3.288   4.711   2.426  0.4873 -0.4414 -0.5690
  480DG     H1411031   3.381   4.597   2.327 -0.6641 -1.2313  1.6428
  480DG     H1511032   3.033   4.421   1.987 -0.4360  0.3868 -1.5708
  480DG     H1611033   2.912   4.317   2.080  1.5097 -0.7642  1.4422
  480DG     C1711034   3.176   4.552   2.316 -0.3907  0.1141  0.2461
  480DG     C1811035   3.092   4.365   2.188 -0.2135  0.2674  0.1637
  480DG     O1911036   3.193   4.459   2.205  0.8612  0.2361 -0.2847
  480DG     H2011037   3.085   4.610   2.307 -1.5171 -1.3558  1.4531
  480DG     H2111038   3.159   4.499   2.410 -0.1604 -0.6759 -0.1398
  480DG     H2211039   3.049   4.346   2.287  0.8620 -0.0211  0.5920
  480DG     H2311040   3.137   4.267   2.169 -0.8697  0.0172 -0.1247
  481DG      C111041   2.973   4.153   2.923  0.0775  0.1896  0.5816
  481DG      C211042   3.324   3.514   2.734 -0.3762  0.3171  0.4123
  481DG      H311043   3.041   4.236   2.901  0.4055  0.3135  1.9900
  481DG      H411044   2.890   4.201   2.975  1.1236  0.4476  2.0872
  481DG      H511045   2.924   4.126   2.829 -2.0681  1.4637  1.2680
  481DG      H611046   3.397   3.588   2.703  0.7009  0.0435  2.1139
  481DG      H711047   3.363   3.446   2.811 -0.0048 -2.9293 -2.4058
  481DG      H811048   3.298   3.453   2.648 -1.3399  0.6764  0.4310
  481DG      O911049   3.017   4.038   2.994 -0.4543  0.1493  0.0505
  481DG     O1011050   3.215   3.603   2.771 -0.3985 -0.1508 -0.4727
  481DG     C1111051   2.918   3.939   3.017  0.1652  0.1262  0.3930
  481DG     C1211052   3.123   3.547   2.860  0.0628  0.0489  0.2601
  481DG     H1311053   2.888   3.900   2.920  1.4389  0.2798 -0.0734
  481DG     H1411054   2.836   3.981   3.075  1.1417  1.7319  0.6717
  481DG     H1511055   3.166   3.500   2.948 -0.1340  0.4735  0.5842
  481DG     H1611056   3.081   3.462   2.805  1.2414  0.2153 -0.9630
  481DG     C1711057   2.968   3.806   3.075 -0.0287  0.2946  0.3959
  481DG     C1811058   3.011   3.639   2.901  0.1565 -0.2088  0.0099
  481DG     O1911059   3.065   3.736   2.991 -0.0106  0.1309 -0.5723
  481DG     H2011060   2.883   3.743   3.100  2.6759 -3.0915  1.7401
  481DG     H2111061   3.011   3.830   3.172 -0.9565 -1.2780  1.2308
  481DG     H2211062   2.968   3.696   2.819  0.6315  0.5343  0.2537
  481DG     H2311063   2.923   3.587   2.936 -1.2025  0.8033 -1.7313
  482DG      C111064   2.555   4.921   3.172 -1.3310  0.4612 -0.3955
  482DG      C211065   2.150   4.723   2.702 -0.1141 -0.4706  0.2375
  482DG      H311066   2.596   4.851   3.099 -1.9719 -1.6147  1.1604
  482DG      H411067   2.565   4.879   3.272  0.4243  1.1037 -0.2775
  482DG      H511068   2.618   5.009   3.176  2.1385 -1.8755  0.3440
  482DG      H611069   2.102   4.786   2.628 -1.2899 -0.4327  0.9932
  482DG      H711070   2.250   4.696   2.670  0.1104 -0.7112  1.1262
  482DG      H811071   2.096   4.629   2.713  1.1134 -1.3982 -1.2640
  482DG      O911072   2.421   4.921   3.136  0.1790  0.3951  1.1576
  482DG     O1011073   2.151   4.778   2.834 -0.0544  0.1379  0.5855
  482DG     C1111074   2.345   5.033   3.180  0.2547  0.5158  0.1977
  482DG     C1211075   2.051   4.876   2.842 -0.1802  0.3957 -0.1052
  482DG     H1311076   2.387   5.119   3.127 -1.0466  0.8647 -0.2928
  482DG     H1411077   2.369   5.044   3.286 -0.8172 -2.1082  0.7857
  482DG     H1511078   1.957   4.828   2.815  1.6583 -1.9203 -2.9391
  482DG     H1611079   2.081   4.953   2.771 -3.7934  1.7191 -0.4273
  482DG     C1711080   2.193   5.030   3.151  0.5260  0.6445 -0.3891
  482DG     C1811081   2.048   4.938   2.982 -0.0588  0.1795 -0.0023
  482DG     O1911082   2.177   4.983   3.026 -0.8599  0.6457  0.3717
  482DG     H2011083   2.129   5.116   3.171 -1.2422 -0.2320 -1.9291
  482DG     H2111084   2.139   4.958   3.212 -2.5474  0.5681 -2.9592
  482DG     H2211085   1.968   5.012   2.985  0.5510  0.8248  0.5481
  482DG     H2311086   2.022   4.845   3.032  1.3538 -1.0385 -1.4265
  483DG      C111087   4.737   1.016   2.329  0.4437  0.8515  0.1195
  483DG      C211088   4.976   1.612   2.152  0.2443 -0.5602  0.0209
  483DG      H311089   4.738   1.060   2.429  4.7766 -0.2592  0.7921
  483DG      H411090   4.835   0.972   2.310  0.1670  0.5520 -0.6563
  483DG      H511091   4.683   0.922   2.342  1.1207  0.7193  2.5016
  483DG      H611092   4.952   1.711   2.114 -1.7419 -0.5537  1.1860
  483DG      H711093   5.031   1.628   2.245 -0.2209  2.3897 -0.1376
  483DG      H811094   5.032   1.569   2.069 -1.7153  0.0142 -1.6834
  483DG      O911095   4.674   1.094   2.233  0.1221  0.4281  0.2240
  483DG     O1011096   4.859   1.527   2.168  0.0166 -0.0952  0.3050
  483DG     C1111097   4.550   1.152   2.277  0.1840  0.2328  0.3986
  483DG     C1211098   4.747   1.580   2.235 -0.3510  0.3545 -0.2099
  483DG     H1311099   4.556   1.160   2.386  4.0215  0.1617  0.3065
  483DG     H1411100   4.459   1.096   2.255  1.2599 -1.6641  0.5237
  483DG     H1511101   4.724   1.680   2.198 -1.0159  0.0755 -0.5834
  483DG     H1611102   4.775   1.589   2.340  0.6331 -0.4950 -0.3891
  483DG     C1711103   4.531   1.291   2.230  0.1229  0.8046 -0.1497
  483DG     C1811104   4.626   1.493   2.207  0.5805 -0.6481 -0.2422
  483DG     O1911105   4.646   1.362   2.255 -0.4870 -0.2137 -0.8243
  483DG     H2011106   4.442   1.332   2.278  1.0608  0.9925  1.4977
  483DG     H2111107   4.518   1.284   2.122  1.9153  0.7767 -0.3865
  483DG     H2211108   4.542   1.548   2.249  3.0201  1.8152  1.7620
  483DG     H2311109   4.635   1.498   2.099 -1.3991 -1.2978 -0.4797
  484DG      C111110   0.519   0.717   2.279  0.5065  0.1333  0.0486
  484DG      C211111   0.476   1.478   2.486 -0.0289  0.2672 -0.1734
  484DG      H311112   0.446   0.686   2.354  0.6761  1.3275  0.7499
  484DG      H411113   0.593   0.639   2.264 -0.7529 -1.0328 -0.2337
  484DG      H511114   0.467   0.721   2.183 -2.3077 -1.0881  1.3966
  484DG      H611115   0.522   1.577   2.484 -2.3891  1.4480  0.0526
  484DG      H711116   0.372   1.490   2.457  0.1140  2.6783  0.1056
  484DG      H811117   0.470   1.429   2.583  0.0553 -0.2283 -0.4159
  484DG      O911118   0.559   0.848   2.314  0.4071 -0.5505  0.1675
  484DG     O1011119   0.535   1.382   2.397 -0.6400 -0.4663  0.4479
  484DG     C1111120   0.457   0.938   2.338 -0.1683 -0.5431 -0.2928
  484DG     C1211121   0.668   1.345   2.434  0.1441  0.2747  0.2216
  484DG     H1311122   0.432   0.936   2.445 -1.7785 -1.8564 -0.6446
  484DG     H1411123   0.365   0.900   2.292 -0.6470 -0.4546  0.5641
  484DG     H1511124   0.661   1.329   2.542  0.2266  3.2722  0.7363
  484DG     H1611125   0.740   1.424   2.416  0.7951 -0.7836 -2.3096
  484DG     C1711126   0.506   1.087   2.296 -0.2060 -0.8477 -0.3922
  484DG     C1811127   0.702   1.230   2.337  0.4032  0.4878  0.9244
  484DG     O1911128   0.630   1.110   2.368  0.5089 -0.1990  0.2901
  484DG     H2011129   0.436   1.165   2.327  1.1705 -0.2430  1.3617
  484DG     H2111130   0.509   1.097   2.187 -1.4590  1.0856 -0.3071
  484DG     H2211131   0.674   1.262   2.236 -2.5096  1.6636  1.9754
  484DG     H2311132   0.808   1.208   2.343  0.0940 -1.2044  0.7762
  485DG      C111133   4.729   0.744   3.012 -0.4353  0.3463  0.8920
  485DG      C211134   4.211   0.451   2.603 -0.9564 -0.0757  0.0351
  485DG      H311135   4.657   0.822   3.038 -3.4448 -2.0907  0.5306
  485DG      H411136   4.782   0.784   2.926 -0.1072 -0.1627  0.8513
  485DG      H511137   4.808   0.742   3.087  0.4685  2.7904  0.0887
  485DG      H611138   4.120   0.487   2.651 -1.1460  2.1963 -1.8901
  485DG      H711139   4.232   0.519   2.521 -1.4265  0.4994  0.3771
  485DG      H811140   4.198   0.354   2.556  2.0811 -1.0027  0.8958
  485DG      O911141   4.675   0.620   2.975 -0.3597 -0.1555 -0.0631
  485DG     O1011142   4.320   0.431   2.697  0.0287 -0.7864  0.0034
  485DG     C1111143   4.610   0.545   3.076 -0.1459  0.1328 -0.3569
  485DG     C1211144   4.299   0.329   2.796 -0.4137  0.1570 -0.1965
  485DG     H1311145   4.524   0.580   3.134  0.3865  2.5432 -0.9226
  485DG     H1411146   4.677   0.535   3.162  0.1595 -1.9705 -0.7969
  485DG     H1511147   4.267   0.237   2.747 -0.7457  0.6830 -0.9727
  485DG     H1611148   4.210   0.355   2.852 -0.4933  0.2074 -0.3470
  485DG     C1711149   4.577   0.408   3.023  0.4919  0.4169  0.2145
  485DG     C1811150   4.414   0.300   2.888 -0.5768  0.7129 -0.0332
  485DG     O1911151   4.464   0.422   2.939  0.2805 -0.5602 -0.1327
  485DG     H2011152   4.561   0.347   3.113 -1.1041  2.4471  1.4018
  485DG     H2111153   4.660   0.362   2.969  0.7452 -0.6999  1.4931
  485DG     H2211154   4.393   0.224   2.964  1.6192  1.7266  1.7262
  485DG     H2311155   4.502   0.260   2.837  0.8562 -0.0168  2.7499
  486DG      C111156   0.423   4.265   4.078 -0.0791 -0.4455 -0.0823
  486DG      C211157   0.500   3.487   3.815  0.1767 -0.0090 -0.0101
  486DG      H311158   0.522   4.259   4.122 -0.1564 -1.4118 -0.0084
  486DG      H411159   0.348   4.220   4.144 -0.2410  0.5037  0.4056
  486DG      H511160   0.392   4.368   4.067  0.1160 -0.5065 -1.3279
  486DG      H611161   0.443   3.410   3.762  0.4546 -0.3870  0.2326
  486DG      H711162   0.603   3.461   3.839  1.4641  3.8209 -0.6147
  486DG      H811163   0.450   3.508   3.909 -0.2711  3.7301 -0.9157
  486DG      O911164   0.428   4.202   3.952 -0.1316  0.4656  0.6514
  486DG     O1011165   0.508   3.613   3.745  0.1009  0.0475  0.5577
  486DG     C1111166   0.397   4.058   3.948 -0.2262 -0.0129 -0.1729
  486DG     C1211167   0.385   3.659   3.695  0.3589  0.5626 -0.2636
  486DG     H1311168   0.306   4.039   4.006 -1.1534  1.1605 -1.2015
  486DG     H1411169   0.478   4.016   4.008 -0.1155  0.8207  0.2797
  486DG     H1511170   0.296   3.633   3.752  0.2936 -0.1506 -0.6782
  486DG     H1611171   0.366   3.612   3.598  0.5497  1.9392 -0.9822
  486DG     C1711172   0.387   4.000   3.804 -0.0251  0.5862 -0.0995
  486DG     C1811173   0.398   3.805   3.674 -0.4731 -0.0564  0.5124
  486DG     O1911174   0.407   3.863   3.805 -0.5221  0.4776  0.1786
  486DG     H2011175   0.469   4.037   3.742 -1.5956 -0.1539 -2.7879
  486DG     H2111176   0.294   4.033   3.756 -1.2557 -4.9255 -2.2066
  486DG     H2211177   0.483   3.834   3.611  1.3917 -2.8248  1.5823
  486DG     H2311178   0.308   3.831   3.619  0.5261 -0.2342 -1.3182
  487DG      C111179   0.591   3.363   0.156 -0.4014 -0.5752  0.1462
  487DG      C211180   1.375   3.362   0.372  0.2038  0.8590  0.3422
  487DG      H311181   0.514   3.356   0.079 -0.9084  3.1802  0.1277
  487DG      H411182   0.554   3.440   0.224  0.0565  0.2578 -0.5237
  487DG      H511183   0.595   3.270   0.212  1.9563  0.2881  1.5755
  487DG      H611184   1.476   3.404   0.375  0.7155 -0.3309  0.3259
  487DG      H711185   1.315   3.414   0.447  0.2366  0.5339  0.6004
  487DG      H811186   1.375   3.259   0.407  1.2938  0.9999  0.8279
  487DG      O911187   0.712   3.396   0.093 -0.4609  0.0031  0.7691
  487DG     O1011188   1.315   3.372   0.244 -0.4670 -0.5731  0.3722
  487DG     C1111189   0.810   3.448   0.184 -0.8906 -0.2648  0.1865
  487DG     C1211190   1.298   3.503   0.199 -0.0322 -0.2014  0.1264
  487DG     H1311191   0.823   3.383   0.271  2.7607  0.1117  0.0766
  487DG     H1411192   0.772   3.541   0.225 -1.9503 -1.2659  1.5856
  487DG     H1511193   1.381   3.545   0.143  1.0121 -1.9513  0.2859
  487DG     H1611194   1.287   3.568   0.285  1.2672  0.6281 -0.3068
  487DG     C1711195   0.941   3.453   0.113  0.3623 -0.0751 -0.0879
  487DG     C1811196   1.167   3.516   0.122 -0.1726  0.7358 -0.2110
  487DG     O1911197   1.056   3.461   0.200  0.3997 -0.0390  0.7823
  487DG     H2011198   0.924   3.533   0.042 -0.6489 -0.8797 -0.7748
  487DG     H2111199   0.961   3.369   0.047  3.5868  1.1757 -0.9040
  487DG     H2211200   1.143   3.620   0.100 -0.3389  0.4514 -1.4756
  487DG     H2311201   1.171   3.474   0.021 -3.1381  0.8882 -0.5022
  488DG      C111202   1.265   3.268   3.661 -0.2900  0.0203 -1.0871
  488DG      C211203   1.611   3.502   4.261 -0.2837  0.4876 -0.2831
  488DG      H311204   1.231   3.217   3.571 -1.3220 -1.4370  0.0759
  488DG      H411205   1.334   3.203   3.713 -1.3324  0.4611  0.9468
  488DG      H511206   1.325   3.351   3.623  0.8693 -0.5622 -0.5846
  488DG      H611207   1.693   3.433   4.240 -0.0606  0.2761  1.1838
  488DG      H711208   1.660   3.595   4.290  2.0611  0.0744 -2.5065
  488DG      H811209   1.558   3.466   4.349  0.9628  2.7056  1.4966
  488DG      O911210   1.154   3.303   3.742  0.9568  0.2686 -0.4364
  488DG     O1011211   1.527   3.506   4.146  0.4201  0.2054 -0.4528
  488DG     C1111212   1.173   3.348   3.878 -0.0872 -0.6911 -0.6982
  488DG     C1211213   1.432   3.610   4.178  0.3860 -0.1657  0.2295
  488DG     H1311214   1.252   3.284   3.919  0.3412 -0.0827 -0.5465
  488DG     H1411215   1.092   3.343   3.950 -1.7246  0.4770 -2.3702
  488DG     H1511216   1.476   3.709   4.194 -1.9180  0.5400  3.0288
  488DG     H1611217   1.376   3.590   4.269 -0.4251  0.8326 -0.0315
  488DG     C1711218   1.222   3.499   3.889 -0.0251  0.0720 -0.0192
  488DG     C1811219   1.346   3.628   4.053  0.3270  0.3980  0.0061
  488DG     O1911220   1.279   3.503   4.028  0.2201  0.3275  0.0878
  488DG     H2011221   1.142   3.572   3.875 -1.2963 -1.4221 -0.8529
  488DG     H2111222   1.292   3.524   3.809 -0.3040 -0.9544 -0.5908
  488DG     H2211223   1.270   3.705   4.063  0.0148  0.1742 -0.6014
  488DG     H2311224   1.413   3.652   3.970 -0.5096  0.8723 -0.5425
  489DG      C111225   0.029   1.242   4.681  0.0274 -0.6545  0.0635
  489DG      C211226   0.544   1.483   4.452  0.0496  0.6225  0.0050
  489DG      H311227  -0.046   1.285   4.748 -0.8657 -0.5385 -0.9856
  489DG      H411228   0.107   1.195   4.741 -0.1915 -1.9243 -0.5980
  489DG      H511229  -0.009   1.164   4.615 -1.6182  0.4301 -0.3385
  489DG      H611230   0.543   1.388   4.399  3.7289  1.4388 -1.8483
  489DG      H711231   0.604   1.543   4.383  2.0119 -1.1508  0.0651
  489DG      H811232   0.599   1.469   4.545  1.2820 -0.0130 -0.7844
  489DG      O911233   0.080   1.351   4.602 -0.4964  0.7982 -0.2473
  489DG     O1011234   0.422   1.553   4.460 -0.2325  0.4482  0.4758
  489DG     C1111235  -0.012   1.398   4.494 -0.5306 -0.1090 -0.3595
  489DG     C1211236   0.358   1.568   4.337 -0.0636 -0.7871  0.4607
  489DG     H1311237  -0.081   1.470   4.538  0.5531  1.1677 -0.6723
  489DG     H1411238  -0.074   1.320   4.451  0.1468  0.0445 -1.6809
  489DG     H1511239   0.332   1.476   4.284 -1.4942 -0.2404  0.1463
  489DG     H1611240   0.421   1.630   4.274 -0.7156 -1.4948 -0.9123
  489DG     C1711241   0.068   1.477   4.389 -0.3469 -0.1737  0.3473
  489DG     C1811242   0.230   1.649   4.361  0.7015 -0.0195  0.4925
  489DG     O1911243   0.153   1.574   4.456  0.1223  0.8412  0.2927
  489DG     H2011244  -0.011   1.528   4.335 -2.1267 -1.3311  1.7004
  489DG     H2111245   0.122   1.412   4.321 -1.0931  0.7188 -1.1326
  489DG     H2211246   0.250   1.751   4.392  2.1163  0.0356 -0.5408
  489DG     H2311247   0.176   1.664   4.268 -0.7145 -0.5234  1.1959
  490DG      C111248   2.170   1.028   1.180  0.2850  0.7001 -0.3355
  490DG      C211249   1.649   0.661   0.881 -0.0585 -0.3655  0.5863
  490DG      H311250   2.229   0.956   1.236 -1.6891 -1.0446 -0.4021
  490DG      H411251   2.087   1.068   1.238 -1.2918  0.1233 -2.0955
  490DG      H511252   2.231   1.114   1.152  1.1133  0.1004 -0.4003
  490DG      H611253   1.587   0.662   0.792 -2.1089  1.6059  1.9337
  490DG      H711254   1.669   0.561   0.919  0.8940 -0.5744 -0.4011
  490DG      H811255   1.602   0.726   0.955  0.2533  1.0777 -0.4493
  490DG      O911256   2.115   0.963   1.063  0.2143 -0.4073  0.0963
  490DG     O1011257   1.773   0.724   0.855 -0.3733 -0.3054  0.1570
  490DG     C1111258   2.198   0.948   0.955 -0.2724 -0.1573 -0.5160
  490DG     C1211259   1.869   0.637   0.791  0.3689 -0.6004 -0.1229
  490DG     H1311260   2.272   0.875   0.985 -0.2692  0.9792  2.5767
  490DG     H1411261   2.236   1.043   0.918 -2.1143  0.1306 -1.8084
  490DG     H1511262   1.830   0.592   0.700  1.1032  0.2092 -0.8481
  490DG     H1611263   1.896   0.552   0.855  1.3248  1.4458  2.3714
  490DG     C1711264   2.135   0.880   0.836  0.0728 -0.0364  0.0509
  490DG     C1811265   1.990   0.724   0.757  0.3119  0.8308  0.2741
  490DG     O1911266   2.042   0.785   0.875  0.3938 -0.0699  0.5051
  490DG     H2011267   2.214   0.833   0.777 -1.0547 -1.9555  0.0141
  490DG     H2111268   2.089   0.953   0.769 -0.7146 -2.4520 -2.1881
  490DG     H2211269   2.067   0.669   0.703 -1.2711 -0.4426 -0.7743
  490DG     H2311270   1.950   0.796   0.686 -1.4115 -0.0749  0.2680
  491DG      C111271   3.883   2.490   1.475  0.4364 -0.3895 -0.4726
  491DG      C211272   4.140   2.296   2.049 -0.3196 -0.4170 -0.3526
  491DG      H311273   3.849   2.569   1.408  1.2181  1.2331  0.9603
  491DG      H411274   3.822   2.492   1.565  1.3302 -1.3604  0.1770
  491DG      H511275   3.881   2.388   1.439 -0.2227 -0.5590  0.0196
  491DG      H611276   4.089   2.374   2.106 -0.3386  1.8893 -3.2583
  491DG      H711277   4.074   2.212   2.027  0.2272 -0.2705 -2.8415
  491DG      H811278   4.221   2.254   2.108  0.5226  1.3269 -0.2087
  491DG      O911279   4.014   2.521   1.504 -0.0207 -0.5061 -0.2307
  491DG     O1011280   4.186   2.354   1.929 -0.1091 -0.2955  0.0303
  491DG     C1111281   4.034   2.643   1.582  0.4523  0.0113  0.6543
  491DG     C1211282   4.276   2.460   1.948  0.3448 -0.1561 -0.8323
  491DG     H1311283   3.955   2.642   1.657 -0.4763 -1.5415 -0.2698
  491DG     H1411284   4.031   2.732   1.520 -0.0599  0.1267  0.8387
  491DG     H1511285   4.370   2.431   1.995 -0.4361  0.1158  0.9979
  491DG     H1611286   4.238   2.533   2.019  1.8681 -0.9210  0.8746
  491DG     C1711287   4.166   2.637   1.655  0.1749 -0.0860  0.8612
  491DG     C1811288   4.299   2.522   1.810 -0.5275 -0.3440 -0.0233
  491DG     O1911289   4.167   2.538   1.758 -0.0786 -0.6053 -0.2033
  491DG     H2011290   4.188   2.736   1.694  2.2833  0.7875 -2.1286
  491DG     H2111291   4.246   2.613   1.584  1.1768  1.9277  1.2625
  491DG     H2211292   4.348   2.620   1.815 -1.0982 -0.0890  0.8681
  491DG     H2311293   4.372   2.461   1.756 -0.3257  1.2601 -1.6645
  492DG      C111294   2.756   4.575   0.415  0.2907 -0.8549  0.3931
  492DG      C211295   3.163   3.988   0.210  0.8089 -0.1018 -0.2699
  492DG      H311296   2.649   4.576   0.396  0.2828  2.5491 -0.0330
  492DG      H411297   2.797   4.676   0.416  1.9153 -1.4515 -0.9916
  492DG      H511298   2.768   4.528   0.513 -0.2094 -1.4783  0.1616
  492DG      H611299   3.148   3.907   0.282 -0.1807  0.1576 -0.1744
  492DG      H711300   3.096   3.972   0.126 -0.3416 -0.1202  0.6220
  492DG      H811301   3.263   3.993   0.166  0.1144  2.6890 -1.7613
  492DG      O911302   2.803   4.498   0.306 -0.1524  0.5280  0.7117
  492DG     O1011303   3.138   4.117   0.277  0.6708 -0.0765  0.1503
  492DG     C1111304   2.940   4.475   0.308  0.3089 -0.0817 -0.2034
  492DG     C1211305   3.243   4.141   0.368  0.2107 -0.0859  0.6652
  492DG     H1311306   2.991   4.570   0.321  1.8655 -0.7486 -1.1191
  492DG     H1411307   2.982   4.446   0.211 -1.5152 -0.2041 -0.9969
  492DG     H1511308   3.321   4.188   0.308 -0.1760 -1.3219 -0.8628
  492DG     H1611309   3.275   4.056   0.427 -0.9288 -1.3822 -0.5099
  492DG     C1711310   2.990   4.366   0.407 -0.1658 -0.7106  0.1041
  492DG     C1811311   3.187   4.239   0.469 -0.1856  0.1422 -0.2280
  492DG     O1911312   3.132   4.358   0.418  0.4127  0.4245  0.2959
  492DG     H2011313   2.949   4.269   0.381  0.0130 -0.4978 -1.0209
  492DG     H2111314   2.948   4.398   0.503 -1.8026  1.4144 -1.2222
  492DG     H2211315   3.121   4.185   0.537  0.2682 -0.0568  0.0541
  492DG     H2311316   3.266   4.277   0.533  0.4313 -0.7375 -0.4546
  493DG      C111317   0.389   5.236   4.774 -0.4704  0.2752  0.3347
  493DG      C211318   0.148   4.850   5.364 -0.1840 -0.5941  0.1276
  493DG      H311319   0.488   5.264   4.738  0.5614 -1.4051  1.7017
  493DG      H411320   0.347   5.318   4.832  0.8766 -0.6281  2.7098
  493DG      H511321   0.324   5.225   4.687  0.1216  1.4463 -0.2677
  493DG      H611322   0.047   4.888   5.347  0.0082  0.1521  0.6029
  493DG      H711323   0.135   4.742   5.369  1.4182 -0.9123 -1.7892
  493DG      H811324   0.172   4.886   5.464  0.8629 -1.8431  0.3608
  493DG      O911325   0.396   5.121   4.851  0.0636 -0.5080 -0.0239
  493DG     O1011326   0.243   4.885   5.269  0.4648  0.3100  0.1879
  493DG     C1111327   0.525   5.098   4.907 -0.0707  0.5975 -0.3458
  493DG     C1211328   0.365   4.812   5.267 -0.4456 -0.1062  0.4460
  493DG     H1311329   0.542   5.175   4.981  0.4218  1.1650 -1.0325
  493DG     H1411330   0.600   5.107   4.828  1.1497 -1.2907  0.5288
  493DG     H1511331   0.339   4.706   5.277 -0.5393 -0.1655 -0.3496
  493DG     H1611332   0.428   4.834   5.353 -0.3081 -2.9880  1.1819
  493DG     C1711333   0.527   4.959   4.965 -0.0511  0.0661 -0.3489
  493DG     C1811334   0.430   4.827   5.128 -1.4480  0.8569 -0.5522
  493DG     O1911335   0.441   4.964   5.085 -0.3986 -0.3570  0.2458
  493DG     H2011336   0.628   4.934   4.997 -0.4747  1.2053  2.1705
  493DG     H2111337   0.510   4.884   4.887  1.3649 -0.1362 -0.4812
  493DG     H2211338   0.530   4.784   5.139 -2.5273 -1.5852  0.8096
  493DG     H2311339   0.388   4.759   5.054 -3.0269  2.7106 -1.4147
  494DG      C111340   3.633   0.771   2.055 -0.1462 -0.4141 -0.1450
  494DG      C211341   3.125   1.065   1.730  0.3955 -0.3915  0.4375
  494DG      H311342   3.734   0.731   2.067  0.2651 -0.4502 -2.9798
  494DG      H411343   3.571   0.703   2.114 -0.2106  0.5090  0.8721
  494DG      H511344   3.632   0.860   2.117 -1.6837  0.1474 -0.9315
  494DG      H611345   3.070   1.048   1.822 -1.6299  1.1554 -0.4131
  494DG      H711346   3.168   1.164   1.744 -2.4054  0.8739  0.7673
  494DG      H811347   3.054   1.068   1.647 -1.2446  0.9847  1.8089
  494DG      O911348   3.595   0.817   1.925  0.0979 -0.0834  0.4193
  494DG     O1011349   3.236   0.969   1.709  0.4854 -0.2671  0.8606
  494DG     C1111350   3.583   0.708   1.837 -0.8106  0.4957 -0.5316
  494DG     C1211351   3.311   1.000   1.593  0.2293  0.5231  0.5152
  494DG     H1311352   3.492   0.658   1.870  0.2643 -0.5865  0.8921
  494DG     H1411353   3.665   0.638   1.849 -1.8373 -1.1280 -2.3496
  494DG     H1511354   3.359   1.098   1.597  0.2993  0.7126 -2.5859
  494DG     H1611355   3.245   1.006   1.508 -2.5936 -2.9159  2.1918
  494DG     C1711356   3.574   0.750   1.690 -0.1181  0.0165 -0.3071
  494DG     C1811357   3.417   0.885   1.572  0.0816  0.5255  0.6046
  494DG     O1911358   3.473   0.846   1.699 -0.0345  0.3405 -0.0493
  494DG     H2011359   3.549   0.672   1.618 -1.1393  2.2445 -2.5009
  494DG     H2111360   3.668   0.791   1.652 -0.6641  1.7150  0.0828
  494DG     H2211361   3.373   0.796   1.528  0.9840 -0.1739  1.0693
  494DG     H2311362   3.502   0.908   1.506  0.1860  0.2510  0.6430
  495DG      C111363   5.383   4.049   2.565 -0.7513  0.3469  0.5262
  495DG      C211364   6.015   4.085   2.804 -0.1028 -0.3825 -0.1068
  495DG      H311365   5.430   4.031   2.469 -0.8849 -1.0699  0.6997
  495DG      H411366   5.281   4.084   2.552 -1.5485 -2.3476 -1.1330
  495DG      H511367   5.389   3.955   2.621 -2.3762 -1.0361 -1.4973
  495DG      H611368   6.020   4.058   2.910  0.5043 -1.2521 -0.3429
  495DG      H711369   6.011   3.983   2.766  2.3756 -0.3204 -0.7305
  495DG      H811370   6.111   4.129   2.776  0.9996 -1.5503  1.6136
  495DG      O911371   5.462   4.143   2.630  0.0653  0.3620  0.1418
  495DG     O1011372   5.896   4.153   2.781  0.0358 -0.8008  0.5905
  495DG     C1111373   5.419   4.174   2.761  0.3022  0.0087  0.2691
  495DG     C1211374   5.874   4.278   2.847  0.1034  0.7200 -0.7677
  495DG     H1311375   5.419   4.093   2.834 -2.9384 -1.8622 -1.5867
  495DG     H1411376   5.314   4.200   2.748  0.8155  1.7413 -0.8452
  495DG     H1511377   5.959   4.344   2.831  0.4670  0.3910 -0.2322
  495DG     H1611378   5.889   4.263   2.954 -1.4834  1.9908 -0.3209
  495DG     C1711379   5.507   4.286   2.813 -0.9676  0.3819 -0.8930
  495DG     C1811380   5.735   4.340   2.822  0.2510 -0.9677 -0.2295
  495DG     O1911381   5.640   4.238   2.827 -0.1163  0.1638 -0.0203
  495DG     H2011382   5.469   4.324   2.907 -1.3331 -0.5427 -0.6562
  495DG     H2111383   5.510   4.376   2.752  0.3208  1.0315  0.0907
  495DG     H2211384   5.722   4.404   2.909  1.7903  0.2666 -0.8674
  495DG     H2311385   5.734   4.396   2.729 -2.5870 -0.1581  0.1967
  496DG      C111386   1.931   0.880   2.614  0.3899 -0.2380  0.0310
  496DG      C211387   1.571   1.415   2.314 -0.5115 -0.2255  0.1706
  496DG      H311388   2.034   0.910   2.632  0.8972 -1.0468 -1.3258
  496DG      H411389   1.929   0.828   2.518 -0.4639  0.1695 -0.1834
  496DG      H511390   1.918   0.813   2.699  2.2248 -0.4847  0.1551
  496DG      H611391   1.607   1.514   2.287 -2.1757  0.3960  0.0968
  496DG      H711392   1.617   1.344   2.244  1.7207 -0.3435  1.6576
  496DG      H811393   1.464   1.431   2.305 -0.1586  2.4792  0.1781
  496DG      O911394   1.824   0.980   2.628  0.2053 -0.5603  0.4069
  496DG     O1011395   1.618   1.372   2.438 -0.0188  0.0768 -0.4254
  496DG     C1111396   1.818   1.048   2.751  0.0686 -0.3082  0.0494
  496DG     C1211397   1.754   1.362   2.456 -0.1961  0.0452 -0.2036
  496DG     H1311398   1.908   1.107   2.767 -0.5869  0.5049  0.8568
  496DG     H1411399   1.796   0.988   2.839 -3.3530  0.8789  0.1423
  496DG     H1511400   1.819   1.449   2.441 -0.8024  0.0267 -4.0014
  496DG     H1611401   1.785   1.273   2.401 -0.1477  0.3262 -0.6420
  496DG     C1711402   1.695   1.131   2.749 -0.6646 -0.5361  0.0615
  496DG     C1811403   1.762   1.317   2.606 -0.3769 -0.1598  0.1158
  496DG     O1911404   1.679   1.205   2.627 -0.3398  0.3204  0.1053
  496DG     H2011405   1.684   1.191   2.839 -1.6043 -1.1376  0.3579
  496DG     H2111406   1.616   1.056   2.753 -0.4277 -0.7387  2.9740
  496DG     H2211407   1.867   1.299   2.632 -0.1172  1.5346  0.3653
  496DG     H2311408   1.736   1.404   2.666  1.8307  1.2671 -0.8561
  497DG      C111409   4.937   0.890   5.200  0.3436  0.0074  0.3026
  497DG      C211410   5.544   0.876   4.865  0.1179 -0.2708 -0.0177
  497DG      H311411   4.866   0.852   5.273 -0.2669  0.0344 -0.2596
  497DG      H411412   4.887   0.907   5.104  1.0770  0.3038 -0.0393
  497DG      H511413   4.971   0.987   5.235 -0.2777 -0.5485  2.5898
  497DG      H611414   5.495   0.939   4.791  1.1649  0.5444 -0.0465
  497DG      H711415   5.608   0.940   4.927 -0.1390  0.7956 -0.8253
  497DG      H811416   5.607   0.796   4.825  1.8605  1.5216 -1.0746
  497DG      O911417   5.042   0.803   5.172 -0.2774 -0.1852 -0.2841
  497DG     O1011418   5.453   0.792   4.943 -0.3727 -0.5918 -0.5564
  497DG     C1111419   5.117   0.761   5.287  0.1081  0.4851 -0.0593
  497DG     C1211420   5.525   0.737   5.055 -0.0491  0.8876 -0.3733
  497DG     H1311421   5.052   0.713   5.361  1.1241 -1.5378 -0.4078
  497DG     H1411422   5.165   0.850   5.326  1.8514  0.3417 -1.7446
  497DG     H1511423   5.558   0.823   5.113  0.3445 -0.0804  0.9070
  497DG     H1611424   5.618   0.690   5.022 -0.5375 -0.3866 -0.0173
  497DG     C1711425   5.229   0.664   5.259 -0.2217 -0.7228 -0.8478
  497DG     C1811426   5.432   0.647   5.139  0.0933 -0.0200  0.5741
  497DG     O1911427   5.314   0.724   5.166 -0.4455 -0.1490  0.2590
  497DG     H2011428   5.207   0.564   5.223  0.6717 -0.3515 -2.5430
  497DG     H2111429   5.273   0.638   5.355 -0.6425 -0.1450 -0.4976
  497DG     H2211430   5.395   0.563   5.080  0.4547  1.9079 -2.6494
  497DG     H2311431   5.481   0.622   5.233  1.4044  1.2780  0.2728
  498DG      C111432   0.838   1.951   4.263 -0.4796 -0.6351 -0.4562
  498DG      C211433   0.020   1.777   4.055 -0.2786  0.4337 -0.1466
  498DG      H311434   0.796   1.970   4.362  1.5798 -2.6627  0.9309
  498DG      H411435   0.859   2.048   4.217 -0.3643 -0.1090  0.6697
  498DG      H511436   0.933   1.902   4.284 -0.8922 -0.8515  1.0476
  498DG      H611437  -0.051   1.716   4.000  0.2227 -0.6387  0.3661
  498DG      H711438  -0.004   1.759   4.160  0.5252 -1.2617 -0.2339
  498DG      H811439  -0.002   1.883   4.040 -0.7633  0.3076 -0.3656
  498DG      O911440   0.751   1.865   4.188  0.3703 -0.0278  0.2539
  498DG     O1011441   0.156   1.738   4.048 -0.5314  0.4636  0.2803
  498DG     C1111442   0.620   1.921   4.172 -0.0280 -1.2331  0.2502
  498DG     C1211443   0.216   1.800   3.935 -0.1338 -0.2432  0.6407
  498DG     H1311444   0.624   2.018   4.124  1.7163 -0.5781  1.6033
  498DG     H1411445   0.551   1.925   4.257 -1.8488 -0.3185 -1.2118
  498DG     H1511446   0.190   1.906   3.930 -1.1032 -0.3483  2.5902
  498DG     H1611447   0.184   1.739   3.850  1.0501 -1.1896  0.8597
  498DG     C1711448   0.562   1.825   4.063  0.2751 -0.7184 -0.1102
  498DG     C1811449   0.365   1.790   3.935  0.2097 -0.2409 -0.3272
  498DG     O1911450   0.421   1.864   4.049  0.0258  0.2844 -0.3459
  498DG     H2011451   0.580   1.724   4.100  0.1974 -0.0818  1.7500
  498DG     H2111452   0.614   1.833   3.967 -0.3900 -1.1429 -0.5165
  498DG     H2211453   0.390   1.685   3.944 -0.8392 -0.4490  0.2244
  498DG     H2311454   0.402   1.821   3.837 -1.3042  0.0746 -0.8285
  499DG      C111455   4.573   3.842   5.108  0.4217 -0.1118 -0.0311
  499DG      C211456   5.153   4.224   5.163  0.0739  0.4383 -0.5972
  499DG      H311457   4.490   3.869   5.044  1.1614 -1.0191 -1.4249
  499DG      H411458   4.549   3.766   5.184  2.3206  0.1172  0.8566
  499DG      H511459   4.654   3.797   5.050 -1.0658 -0.6433 -1.7822
  499DG      H611460   5.168   4.133   5.105 -0.0690 -0.3596  0.5736
  499DG      H711461   5.196   4.298   5.095 -2.0208 -0.0012 -2.5253
  499DG      H811462   5.213   4.198   5.251  1.0739 -0.8223 -1.6063
  499DG      O911463   4.627   3.956   5.170  0.0587  0.3841  0.0459
  499DG     O1011464   5.019   4.240   5.193  0.0742 -0.0099  0.4720
  499DG     C1111465   4.552   4.043   5.245  0.1450  0.4462  0.1133
  499DG     C1211466   4.975   4.141   5.282 -0.2826  0.2971  0.0400
  499DG     H1311467   4.540   4.013   5.349 -1.9754 -2.3678 -0.8336
  499DG     H1411468   4.454   4.048   5.198 -0.3839  0.4661  1.1680
  499DG     H1511469   5.029   4.123   5.376 -0.2728  1.4658  0.2786
  499DG     H1611470   4.966   4.048   5.226  0.0120  0.1176  0.2848
  499DG     C1711471   4.597   4.191   5.240  0.8524 -0.2618  0.2266
  499DG     C1811472   4.828   4.157   5.334  0.3608  0.1490  0.0990
  499DG     O1911473   4.742   4.211   5.236  0.1191 -0.2708  0.0531
  499DG     H2011474   4.562   4.244   5.328  0.7469 -0.1943  0.1431
  499DG     H2111475   4.548   4.242   5.157  0.1914 -0.2391  0.6280
  499DG     H2211476   4.789   4.058   5.359  0.0597 -0.0768 -1.1503
  499DG     H2311477   4.809   4.222   5.419  1.1197  2.0786 -1.1315
  500DG      C111478   0.953   2.843   0.757  0.1895  0.2593 -0.5726
  500DG      C211479   0.692   3.668   0.641 -0.0856 -0.3403  1.0554
  500DG      H311480   1.007   2.778   0.826 -1.0341  0.5989  0.7658
  500DG      H411481   0.966   2.812   0.653  0.8738  1.6784 -0.9237
  500DG      H511482   0.849   2.826   0.785  0.6295 -2.6829 -0.3580
  500DG      H611483   0.621   3.694   0.719 -0.5929  2.3390 -0.1607
  500DG      H711484   0.746   3.763   0.628 -0.7756 -0.0365  0.3117
  500DG      H811485   0.639   3.643   0.550  1.5137 -1.5456  0.4046
  500DG      O911486   0.999   2.974   0.787  0.4005 -0.0834 -0.5260
  500DG     O1011487   0.777   3.559   0.675 -0.2822  0.6623  0.0075
  500DG     C1111488   0.916   3.077   0.746 -0.1128 -0.2210 -0.2287
  500DG     C1211489   0.887   3.532   0.581  0.1192 -0.8625  0.0519
  500DG     H1311490   0.829   3.087   0.812  0.1828  0.5791  0.0523
  500DG     H1411491   0.886   3.055   0.643 -3.5382 -0.1117  0.6009
  500DG     H1511492   0.943   3.625   0.579  1.3892 -1.4733  2.5793
  500DG     H1611493   0.856   3.508   0.480  0.1855  2.1657 -0.7862
  500DG     C1711494   1.001   3.203   0.747  0.3665  0.7799 -0.0482
  500DG     C1811495   0.986   3.424   0.651 -0.4797 -0.3591  0.9414
  500DG     O1911496   0.926   3.301   0.661 -0.3190  0.1097 -0.0799
  500DG     H2011497   1.088   3.183   0.684  0.5664  0.9084  0.1874
  500DG     H2111498   1.042   3.246   0.838  2.1247  0.5211 -0.6669
  500DG     H2211499   1.085   3.418   0.604 -1.1496  0.2169 -0.6048
  500DG     H2311500   0.994   3.469   0.750  0.2659 -0.0819  0.7668
  501DG      C111501   0.838   0.549   5.487 -0.0414 -0.9121  0.4469
  501DG      C211502   0.793   0.966   5.997  0.0116 -0.3564  0.1407
  501DG      H311503   0.771   0.478   5.438 -1.1588 -0.0477  0.6817
  501DG      H411504   0.937   0.505   5.470 -0.4176 -1.1974 -1.2653
  501DG      H511505   0.836   0.645   5.437  0.4732 -0.5695  1.0710
  501DG      H611506   0.891   0.962   5.950  0.2279 -0.9931  0.6254
  501DG      H711507   0.720   1.029   5.945 -0.3487 -1.3967 -0.6476
  501DG      H811508   0.798   0.994   6.102 -0.6940 -1.2739  0.4318
  501DG      O911509   0.804   0.574   5.621 -0.2529 -0.0192  0.1745
  501DG     O1011510   0.756   0.826   5.979 -0.1732  0.1624 -0.3933
  501DG     C1111511   0.816   0.453   5.703 -0.6838 -0.4489  0.7996
  501DG     C1211512   0.819   0.738   6.070 -0.0982 -0.7325 -0.1669
  501DG     H1311513   0.924   0.446   5.707 -0.3689 -0.7486 -3.5927
  501DG     H1411514   0.785   0.362   5.652 -1.5968 -1.0079  2.2870
  501DG     H1511515   0.788   0.776   6.168 -1.3552  0.1603 -0.8774
  501DG     H1611516   0.928   0.736   6.063 -0.1701  0.4381 -2.6703
  501DG     C1711517   0.754   0.466   5.837 -0.0275  0.0895  0.4399
  501DG     C1811518   0.781   0.595   6.037  0.7756  0.1659 -0.3487
  501DG     O1911519   0.790   0.589   5.891 -0.6986 -0.1534 -0.0192
  501DG     H2011520   0.790   0.383   5.899  1.2495  0.5261  0.3103
  501DG     H2111521   0.647   0.444   5.837  0.5073 -2.9365  0.2651
  501DG     H2211522   0.852   0.521   6.073 -2.2627 -2.4449  0.7795
  501DG     H2311523   0.681   0.574   6.076  0.2708  0.5933 -1.3502
  502DG      C111524   5.215   2.983   0.058 -0.1847 -0.4088 -0.0450
  502DG      C211525   5.170   2.459   0.117 -0.0242  0.2594  0.2118
  502DG      H311526   5.131   2.914   0.052  1.4587 -2.5073  0.0850
  502DG      H411527   5.179   3.065   0.119 -2.4663 -1.9691  0.8354
  502DG      H511528   5.293   2.929   0.110 -1.7241 -1.4046  1.3363
  502DG      H611529   5.100   2.391   0.165  1.0544 -0.0898  1.3583
  502DG      H711530   5.264   2.405   0.109 -1.5185 -2.5620  0.6764
  502DG      H811531   5.191   2.546   0.180 -1.6622  0.9991 -0.2111
  502DG      O911532   5.238   3.046  -0.065  0.0239  0.1809  0.3569
  502DG     O1011533   5.142   2.505  -0.018 -0.3030 -0.0905 -0.2207
  502DG     C1111534   5.296   2.960  -0.165 -0.4492 -0.2980 -0.0411
  502DG     C1211535   5.025   2.596  -0.030 -0.2452 -0.0157 -0.3969
  502DG     H1311536   5.388   2.912  -0.132  0.1381  0.1630 -0.9782
  502DG     H1411537   5.329   3.026  -0.245  0.2364  2.7257  2.5161
  502DG     H1511538   5.007   2.664   0.053 -1.4927  0.5148 -1.0695
  502DG     H1611539   4.937   2.534  -0.049  2.5942 -3.5131 -4.0473
  502DG     C1711540   5.188   2.865  -0.222 -0.1337  0.0591 -0.3901
  502DG     C1811541   5.057   2.683  -0.153  0.0256 -0.7698  0.8837
  502DG     O1911542   5.178   2.757  -0.135  0.7268 -0.4216 -0.0491
  502DG     H2011543   5.221   2.844  -0.324 -2.6403 -2.0480 -0.8700
  502DG     H2111544   5.099   2.926  -0.237  2.5458  4.5774  0.0795
  502DG     H2211545   5.057   2.630  -0.248 -0.8409  1.0537 -0.1886
  502DG     H2311546   4.976   2.757  -0.153 -1.0627 -1.8740 -1.3723
  503THF     O111547   3.122   1.351   2.194  0.0387  0.2001  0.4238
  503THF     C211548   3.010   1.364   2.105  0.4949 -0.0872 -0.4064
  503THF     C311549   3.193   1.471   2.174 -0.2920 -0.2535  0.0866
  503THF     H411550   2.925   1.410   2.157  0.0612 -0.3101 -0.9060
  503THF     H511551   2.972   1.269   2.067  0.5078 -0.1256 -0.3221
  503THF     H611552   3.152   1.559   2.223  0.6567 -0.6661  1.7148
  503THF     H711553   3.297   1.462   2.208 -0.5692 -2.8730  0.4449
  503THF     C811554   3.183   1.487   2.019 -0.4570  0.6903  0.1994
  503THF     C911555   3.038   1.464   1.991 -0.0881 -0.6264  0.2482
  503THF    H1011556   3.240   1.405   1.975 -1.3533  0.2653 -0.1911
  503THF    H1111557   3.220   1.586   1.992  0.1416  1.4769  3.5061
  503THF    H1211558   2.985   1.559   1.988  1.5006  0.2648 -1.1739
  503THF    H1311559   3.019   1.429   1.890 -2.6084  1.6029 -0.1327
  504THF     O111560   2.402   1.198   0.696  0.8667 -0.8978 -0.1513
  504THF     C211561   2.513   1.281   0.652 -0.0590 -0.1448 -0.3846
  504THF     C311562   2.420   1.068   0.636 -0.1413  0.1331 -0.8127
  504THF     H411563   2.573   1.312   0.738  1.6681  0.0721 -1.6231
  504THF     H511564   2.465   1.370   0.609 -0.6185 -0.7651 -1.0644
  504THF     H611565   2.472   0.996   0.699 -0.8445 -2.0805 -2.6673
  504THF     H711566   2.321   1.025   0.627 -0.6081  0.9527  0.1729
  504THF     C811567   2.490   1.100   0.504  0.1271 -0.1853  0.4598
  504THF     C911568   2.597   1.206   0.544  0.3921 -0.3639  1.1937
  504THF    H1011569   2.422   1.154   0.438  0.4703 -1.8397 -1.3248
  504THF    H1111570   2.520   1.005   0.459  1.3723  0.0572  0.7460
  504THF    H1211571   2.689   1.160   0.580 -0.0619 -2.9803 -0.7106
  504THF    H1311572   2.627   1.265   0.457 -1.7336 -0.9825 -0.0529
  505THF     O111573   4.791   5.325   2.296 -0.1278  0.2830  0.2306
  505THF     C211574   4.879   5.259   2.381  0.4913 -0.4012  0.1334
  505THF     C311575   4.712   5.408   2.382  0.3488 -0.0707 -0.0047
  505THF     H411576   4.976   5.306   2.396  0.3652  0.0849 -0.5533
  505THF     H511577   4.905   5.163   2.336  2.8499  0.9774 -1.7288
  505THF     H611578   4.753   5.509   2.387  0.1670  0.1022 -1.5241
  505THF     H711579   4.610   5.419   2.345  0.5237  0.1661 -0.4244
  505THF     C811580   4.704   5.347   2.525 -0.3237  0.4707 -0.3358
  505THF     C911581   4.809   5.240   2.523 -0.6056 -0.1939  0.2737
  505THF    H1011582   4.612   5.292   2.546  0.0100  0.3073  0.7987
  505THF    H1111583   4.738   5.410   2.607  1.7657  0.2476 -0.9858
  505THF    H1211584   4.882   5.257   2.601  0.4966  0.3121 -0.8363
  505THF    H1311585   4.761   5.142   2.512 -0.4711 -0.3266  0.8522
  506THF     O111586   2.334   1.043   2.941 -0.4275 -0.0428 -0.0290
  506THF     C211587   2.357   1.116   3.064  0.6081  0.2333 -0.7759
  506THF     C311588   2.199   1.069   2.885  0.5286 -0.3824  0.3039
  506THF     H411589   2.443   1.181   3.051  0.6236  0.3368 -0.1798
  506THF     H511590   2.371   1.045   3.146 -2.5736 -0.3022 -0.5482
  506THF     H611591   2.207   1.153   2.815  0.4876  0.9371  1.8154
  506THF     H711592   2.173   0.973   2.841  0.4300 -0.5822  0.7950
  506THF     C811593   2.121   1.109   3.005 -0.1897  0.1543 -0.6865
  506THF     C911594   2.220   1.181   3.096  0.0823  0.1291 -0.5970
  506THF    H1011595   2.087   1.023   3.062  1.5973 -0.1970 -0.0618
  506THF    H1111596   2.046   1.184   2.980  1.4116  1.9801 -0.3047
  506THF    H1211597   2.226   1.287   3.072  1.3128  0.5064  1.1412
  506THF    H1311598   2.199   1.173   3.202  1.1802 -0.3238 -0.3941
  507THF     O111599   1.608   1.876   1.108 -0.4371  0.6316  0.6843
  507THF     C211600   1.748   1.902   1.149  0.0947 -0.3486  0.4163
  507THF     C311601   1.571   1.761   1.178  0.0224 -0.2885 -0.4131
  507THF     H411602   1.753   1.939   1.251  1.6240  0.9885 -0.1031
  507THF     H511603   1.783   1.975   1.076 -0.5967  0.5731  0.9757
  507THF     H611604   1.557   1.793   1.281  1.1349 -0.2043 -0.2710
  507THF     H711605   1.482   1.714   1.136 -1.5992  1.9515  0.3341
  507THF     C811606   1.685   1.664   1.174 -0.6693 -0.1041  0.1007
  507THF     C911607   1.800   1.761   1.143 -0.6465  0.0283 -0.0205
  507THF    H1011608   1.682   1.587   1.096  1.3021  0.1839 -0.3329
  507THF    H1111609   1.707   1.618   1.270 -0.4857  0.3729  0.2895
  507THF    H1211610   1.879   1.763   1.217 -0.3852  0.4677 -0.3068
  507THF    H1311611   1.850   1.746   1.047  1.9451  0.2912  1.2123
  508THF     O111612   1.581   1.983   3.761  0.0492 -0.1535  0.3560
  508THF     C211613   1.657   2.100   3.735 -0.4605 -0.5589  0.2777
  508THF     C311614   1.636   1.908   3.871 -0.0066 -0.5521  0.8431
  508THF     H411615   1.582   2.154   3.677  0.1665 -1.3002 -1.3065
  508THF     H511616   1.747   2.088   3.674  0.9160 -0.0906  2.1293
  508THF     H611617   1.560   1.846   3.919 -0.2626 -0.0011  1.1579
  508THF     H711618   1.711   1.839   3.831  1.2619  1.1646  0.1051
  508THF     C811619   1.692   2.013   3.963 -0.3924 -0.0441 -0.0763
  508THF     C911620   1.689   2.137   3.878 -0.0880 -0.3297  0.2841
  508THF    H1011621   1.790   1.975   3.991 -0.8224 -0.8581  0.3562
  508THF    H1111622   1.622   2.011   4.047  0.0674  1.4935  0.3720
  508THF    H1211623   1.609   2.205   3.909  1.0728  2.0057 -1.4639
  508THF    H1311624   1.783   2.193   3.880  0.3928 -1.1407  2.3292
  509THF     O111625   0.135   1.028   0.766  0.0880 -0.0053  0.0625
  509THF     C211626   0.240   0.958   0.710 -0.1529  0.3932  0.1508
  509THF     C311627   0.060   0.942   0.851 -0.1262  0.1344 -0.2867
  509THF     H411628   0.329   1.019   0.690  0.2965  0.5123  2.2925
  509THF     H511629   0.200   0.912   0.620 -0.7010 -0.8543  1.0047
  509THF     H611630   0.016   1.003   0.930 -0.6029  1.0476 -1.2364
  509THF     H711631  -0.026   0.898   0.800 -1.3555  2.3983 -0.3169
  509THF     C811632   0.153   0.838   0.908 -0.2034 -0.0301 -0.2177
  509THF     C911633   0.277   0.864   0.819 -0.0495  0.0492 -0.0643
  509THF    H1011634   0.122   0.736   0.891  4.5522 -1.7267 -0.3875
  509THF    H1111635   0.173   0.863   1.013 -0.7336 -1.0847  0.1410
  509THF    H1211636   0.360   0.906   0.877  2.4995 -3.2927 -0.9300
  509THF    H1311637   0.310   0.767   0.781  0.6624  0.3612 -0.2507
  510THF     O111638   0.689   2.567   2.091  0.0376  0.0986  0.3264
  510THF     C211639   0.711   2.432   2.044 -0.1484 -0.1990  0.2436
  510THF     C311640   0.689   2.656   1.983 -0.2378  0.0776 -0.4704
  510THF     H411641   0.627   2.384   1.993  0.2359  0.5464 -1.1531
  510THF     H511642   0.734   2.364   2.126 -2.2369 -1.7290 -0.3472
  510THF     H611643   0.584   2.669   1.955 -0.9024  0.7221  2.0707
  510THF     H711644   0.735   2.750   2.012 -1.1937  1.3278 -2.6882
  510THF     C811645   0.762   2.579   1.868  0.6396 -0.3200  0.7199
  510THF     C911646   0.816   2.455   1.939  0.3822 -0.2149 -0.2785
  510THF    H1011647   0.843   2.638   1.827 -0.5657  0.8899  0.0019
  510THF    H1111648   0.686   2.565   1.790  2.4182  1.2320 -1.4208
  510THF    H1211649   0.852   2.372   1.879  2.0101  1.2211 -1.3949
  510THF    H1311650   0.901   2.487   2.000 -0.1492  1.6096 -0.4140
  511THF     O111651   0.850   5.273   5.055 -0.2407  0.2199 -0.3081
  511THF     C211652   0.930   5.365   5.130 -0.4308  0.0691 -0.9582
  511THF     C311653   0.931   5.191   4.969 -0.4858 -0.1381 -0.2726
  511THF     H411654   0.951   5.320   5.227  2.4863 -2.1308 -2.4500
  511THF     H511655   0.891   5.467   5.134 -3.0265 -0.8345 -1.6400
  511THF     H611656   0.895   5.089   4.965 -1.8591  0.3890 -2.4133
  511THF     H711657   0.913   5.224   4.867 -0.4653  0.8110  0.0179
  511THF     C811658   1.082   5.220   5.005 -0.5768 -0.7768  0.1833
  511THF     C911659   1.059   5.364   5.048 -0.1707 -0.0629  0.1157
  511THF    H1011660   1.154   5.201   4.925  2.2003  0.2790  2.2755
  511THF    H1111661   1.118   5.164   5.092 -2.0085  0.1279  1.3993
  511THF    H1211662   1.144   5.396   5.108 -0.4889  0.6296  0.2086
  511THF    H1311663   1.058   5.432   4.962  3.3616  0.6455  0.4836
  512THF     O111664   4.121   4.156   1.742 -0.1000 -0.3646 -0.0502
  512THF     C211665   4.188   4.226   1.639  0.3660  0.1995  0.8814
  512THF     C311666   4.223   4.082   1.802 -0.7652  0.1632 -0.2645
  512THF     H411667   4.124   4.311   1.614 -0.8578 -0.3165  2.1122
  512THF     H511668   4.214   4.160   1.557  3.0289 -0.0595  1.8437
  512THF     H611669   4.201   4.036   1.898 -2.2023 -0.4431 -0.8678
  512THF     H711670   4.255   4.001   1.737  0.1539 -1.2365  1.8171
  512THF     C811671   4.338   4.188   1.820 -0.3319 -0.2938 -0.0163
  512THF     C911672   4.321   4.281   1.695 -0.1473 -0.1731 -0.0991
  512THF    H1011673   4.435   4.137   1.815  0.1483  0.6674 -0.8395
  512THF    H1111674   4.312   4.241   1.911  1.8099 -1.0477  1.0906
  512THF    H1211675   4.318   4.383   1.733  0.8418 -0.1899  0.0545
  512THF    H1311676   4.397   4.271   1.617 -1.2524  2.8121 -1.7315
  513THF     O111677   2.861   2.306   1.355 -0.2491  0.0292 -0.1207
  513THF     C211678   2.969   2.374   1.292 -0.3081  0.0534 -0.0405
  513THF     C311679   2.836   2.181   1.292  0.5668 -0.1729 -0.2467
  513THF     H411680   3.063   2.335   1.331 -1.8885 -0.4245  3.8473
  513THF     H511681   2.965   2.480   1.317  0.2689  0.0279  0.1735
  513THF     H611682   2.906   2.102   1.320  1.1411  0.0994 -0.8763
  513THF     H711683   2.736   2.150   1.322  0.2350  0.6658 -0.4632
  513THF     C811684   2.840   2.227   1.145 -0.6607  0.6012  0.4802
  513THF     C911685   2.950   2.341   1.142 -0.5108 -0.0344  0.1488
  513THF    H1011686   2.739   2.256   1.114 -0.3739  0.4655 -0.6473
  513THF    H1111687   2.875   2.141   1.087 -0.5078 -0.4312  2.0523
  513THF    H1211688   3.037   2.312   1.083  0.1362  0.9635  0.5892
  513THF    H1311689   2.909   2.428   1.091  0.8606  0.6685  0.2009
  514THF     O111690   3.960   5.472   3.404 -0.3722  0.0669 -0.0451
  514THF     C211691   3.843   5.396   3.391 -0.5533 -0.6377 -0.3267
  514THF     C311692   4.071   5.386   3.401  0.5805 -0.1554 -1.1125
  514THF     H411693   3.830   5.381   3.284 -0.2515 -1.0149 -0.3121
  514THF     H511694   3.755   5.448   3.429 -0.0091  1.0424 -1.2440
  514THF     H611695   4.111   5.344   3.308  0.0168  1.5520 -2.1681
  514THF     H711696   4.150   5.443   3.450 -2.2480  2.5271  0.6706
  514THF     C811697   4.021   5.265   3.492  0.4815  0.7446 -0.2035
  514THF     C911698   3.871   5.264   3.461  0.1788  0.6622 -0.5422
  514THF    H1011699   4.040   5.283   3.598 -0.5131  1.6971 -0.1707
  514THF    H1111700   4.067   5.166   3.482 -0.2964 -0.0389  2.7754
  514THF    H1211701   3.848   5.184   3.391  3.3345 -0.0712 -0.8926
  514THF    H1311702   3.830   5.254   3.562  3.3015  0.3738  0.8390
  515THF     O111703   0.799   0.617   2.861 -0.3000 -0.2560 -0.0441
  515THF     C211704   0.782   0.483   2.898 -0.3398 -0.1716  0.0486
  515THF     C311705   0.931   0.629   2.809  0.2171 -0.7367  0.4534
  515THF     H411706   0.689   0.455   2.849 -1.4775  1.3645  1.2060
  515THF     H511707   0.765   0.475   3.005  1.0077  1.9615  0.4885
  515THF     H611708   0.920   0.647   2.702 -0.0487 -1.8008  0.2889
  515THF     H711709   0.986   0.714   2.850  1.4737 -0.4501 -1.6746
  515THF     C811710   1.001   0.499   2.833  0.0311  0.5718  0.6436
  515THF     C911711   0.899   0.399   2.842  0.0328  0.0539  0.1235
  515THF    H1011712   1.052   0.505   2.929  1.2930 -2.8418  0.3548
  515THF    H1111713   1.073   0.459   2.762 -2.3892  0.0139 -1.6506
  515THF    H1211714   0.872   0.379   2.738  1.0842  5.3530 -1.4359
  515THF    H1311715   0.923   0.308   2.897 -1.4115 -0.5029 -0.1149
  516THF     O111716   1.503   1.047   0.452 -0.2306  0.2558 -0.1375
  516THF     C211717   1.380   1.067   0.525 -0.3446  0.0175 -0.8618
  516THF     C311718   1.582   0.954   0.522  0.4480 -0.2392  0.2979
  516THF     H411719   1.316   0.979   0.520  2.0535 -2.0591  1.7253
  516THF     H511720   1.331   1.157   0.488  0.0442  0.7573  0.3820
  516THF     H611721   1.554   0.850   0.500 -0.2738  0.4876 -2.7534
  516THF     H711722   1.688   0.957   0.496  1.0253 -4.4234  1.4466
  516THF     C811723   1.545   0.988   0.669 -0.2019  0.5914 -0.4643
  516THF     C911724   1.435   1.086   0.671 -0.2861 -0.1937  1.0102
  516THF    H1011725   1.628   1.022   0.731  1.2951  0.8318 -2.5078
  516THF    H1111726   1.507   0.891   0.699  0.6257 -0.0702 -1.4696
  516THF    H1211727   1.350   1.057   0.732 -1.0316  0.3130  0.2412
  516THF    H1311728   1.470   1.189   0.676  0.7735 -0.5723  1.7301
  517THF     O111729   1.017   2.080   5.006  0.3148 -0.1393 -0.0413
  517THF     C211730   0.981   2.130   4.876  0.5795  0.1730 -0.1847
  517THF     C311731   0.915   1.989   5.028  0.4901 -0.1503 -0.2830
  517THF     H411732   0.997   2.045   4.810  0.1649  1.1715 -1.6369
  517THF     H511733   1.031   2.221   4.840 -1.0657  0.8216 -0.9349
  517THF     H611734   0.912   1.901   4.963 -1.8433 -0.5036  0.2272
  517THF     H711735   0.926   1.953   5.130 -1.7864  2.0905  0.8393
  517THF     C811736   0.787   2.061   5.007  0.2974  0.2878  0.0763
  517THF     C911737   0.830   2.162   4.890  0.0284 -0.6522 -0.3352
  517THF    H1011738   0.752   2.105   5.101  0.9118 -0.5278  0.6995
  517THF    H1111739   0.708   1.994   4.973  1.2443  0.3212 -2.3642
  517THF    H1211740   0.778   2.149   4.796 -1.5609  2.2519  0.0179
  517THF    H1311741   0.816   2.266   4.920  0.6400 -0.0143 -2.1679
  518THF     O111742   0.966   1.537   3.314 -0.5727 -0.2771 -0.4702
  518THF     C211743   0.853   1.566   3.396  0.2902 -0.0465 -0.0360
  518THF     C311744   0.931   1.414   3.250  0.6736  0.6823 -0.2619
  518THF     H411745   0.781   1.615   3.330 -1.1603 -1.7083  0.2148
  518THF     H511746   0.871   1.639   3.475 -2.5823 -1.0598  1.7317
  518THF     H611747   0.862   1.413   3.166  0.1293  1.2082  0.1710
  518THF     H711748   1.027   1.381   3.210  0.8109  1.4555 -0.5784
  518THF     C811749   0.872   1.336   3.359  0.2006 -0.6821 -0.1847
  518THF     C911750   0.805   1.435   3.456  0.6526 -0.2085 -0.7030
  518THF    H1011751   0.947   1.281   3.415  1.5210  1.2340  0.0420
  518THF    H1111752   0.797   1.270   3.316 -0.5456  0.9977 -1.6110
  518THF    H1211753   0.698   1.422   3.446  0.6747 -0.1007 -1.1011
  518THF    H1311754   0.837   1.407   3.556 -0.1164  3.1081  0.5883
  519THF     O111755   3.027   2.696   2.184  0.5854  0.4357 -0.1819
  519THF     C211756   2.907   2.748   2.238  0.2493  0.0249  0.5014
  519THF     C311757   3.051   2.759   2.065  0.3301 -0.7605  0.2864
  519THF     H411758   2.939   2.843   2.281  2.9404  0.2439 -1.6888
  519THF     H511759   2.859   2.692   2.318  0.2399  1.2249  1.3665
  519THF     H611760   3.104   2.854   2.069 -1.8420  0.6452 -1.4923
  519THF     H711761   3.112   2.702   1.996  1.9600  0.8678  0.3216
  519THF     C811762   2.916   2.789   2.002  0.4946 -0.1754  0.3491
  519THF     C911763   2.813   2.753   2.112  0.2850 -0.0669 -0.4079
  519THF    H1011764   2.911   2.724   1.914  0.2421  1.4889 -0.9122
  519THF    H1111765   2.916   2.888   1.956  1.7876  0.0457  0.7997
  519THF    H1211766   2.731   2.823   2.097  1.5397  1.1938 -1.6727
  519THF    H1311767   2.770   2.656   2.087 -0.5758  0.8493 -2.6793
  520THF     O111768   4.265   2.655   5.274  0.2049  0.4431 -0.2167
  520THF     C211769   4.253   2.766   5.189 -0.3412 -0.2723  0.1840
  520THF     C311770   4.396   2.668   5.336 -0.6365  0.4734 -0.0339
  520THF     H411771   4.150   2.784   5.160 -0.4851 -0.2955  0.6666
  520THF     H511772   4.305   2.753   5.094 -0.0992 -1.8677  0.5106
  520THF     H611773   4.402   2.627   5.437  0.7264 -4.0881 -1.7398
  520THF     H711774   4.476   2.617   5.283 -2.1704 -2.7898  0.5486
  520THF     C811775   4.432   2.814   5.331  0.6032 -0.6527 -0.0085
  520THF     C911776   4.312   2.880   5.271 -0.6731 -0.0623  0.1907
  520THF    H1011777   4.525   2.834   5.277  1.5324  1.9115  2.3450
  520THF    H1111778   4.447   2.867   5.425 -0.5942  1.2271 -0.8150
  520THF    H1211779   4.243   2.925   5.342 -0.7273  1.9400 -1.0512
  520THF    H1311780   4.345   2.962   5.207 -0.1382 -0.3665  0.0742
  521THF     O111781   3.287   2.363   4.118  0.2704  0.1763 -1.1844
  521THF     C211782   3.175   2.311   4.055  0.2210  0.6230  0.3638
  521THF     C311783   3.365   2.256   4.165 -0.0595  0.1663  0.3966
  521THF     H411784   3.202   2.270   3.957  0.4122  0.4257  0.4994
  521THF     H511785   3.106   2.395   4.050 -0.1952  0.2553 -0.2441
  521THF     H611786   3.430   2.223   4.084 -0.2644 -1.0425  0.7073
  521THF     H711787   3.435   2.277   4.246  0.4633 -0.8279  0.2143
  521THF     C811788   3.260   2.141   4.200  0.5681 -0.2129  0.4682
  521THF     C911789   3.127   2.194   4.142 -0.0580  0.4922 -0.0424
  521THF    H1011790   3.254   2.123   4.308 -1.0205 -2.2558  0.0956
  521THF    H1111791   3.280   2.047   4.148 -0.1925 -0.5292  0.7274
  521THF    H1211792   3.065   2.117   4.095 -0.0851  0.7847 -0.4899
  521THF    H1311793   3.070   2.232   4.227  0.0527 -0.4220  0.4556
  522THF     O111794   3.086   4.094   3.605  0.1923  0.0710 -0.2263
  522THF     C211795   3.083   3.964   3.541  0.0197 -0.1246 -0.4043
  522THF     C311796   3.065   4.196   3.507 -0.7979  0.1589 -0.2895
  522THF     H411797   2.991   3.911   3.564  0.0914 -0.5948 -1.1758
  522THF     H511798   3.176   3.909   3.556 -0.7210 -2.2301 -2.8923
  522THF     H611799   2.959   4.214   3.488 -1.5364 -1.5907  1.8148
  522THF     H711800   3.122   4.286   3.533 -0.2438  0.0810 -1.1766
  522THF     C811801   3.132   4.135   3.383  0.2758  0.0746 -0.3028
  522THF     C911802   3.075   3.999   3.387 -0.1990  0.3281  0.4845
  522THF    H1011803   3.240   4.139   3.386  0.2869 -0.7374  0.7264
  522THF    H1111804   3.111   4.200   3.297  0.2598 -0.8046 -0.9715
  522THF    H1211805   2.973   3.995   3.347  0.2236 -1.8396 -0.5391
  522THF    H1311806   3.134   3.921   3.338 -0.0587 -0.3046  1.6291
  523THF     O111807   1.649   1.099   3.246 -0.8314  0.2176  0.5382
  523THF     C211808   1.753   1.152   3.329 -0.2296  0.0834 -0.3679
  523THF     C311809   1.693   0.989   3.170  0.1902 -0.0076 -0.1591
  523THF     H411810   1.714   1.225   3.400  0.2762  0.6795 -0.6874
  523THF     H511811   1.838   1.202   3.281  0.7304 -1.9494 -0.9028
  523THF     H611812   1.603   0.931   3.151  0.1875 -0.5325  1.3718
  523THF     H711813   1.748   1.036   3.088  1.4774  0.9519  1.1827
  523THF     C811814   1.791   0.923   3.270  0.6911  0.4694  0.1764
  523THF     C911815   1.796   1.019   3.391  0.1603  0.4480  0.2743
  523THF    H1011816   1.886   0.913   3.217  0.1510 -0.8948 -0.5740
  523THF    H1111817   1.756   0.832   3.318  1.8496  0.2731  0.6910
  523THF    H1211818   1.727   0.991   3.471  0.6850  0.5494  0.7686
  523THF    H1311819   1.893   1.028   3.441 -0.1685  2.6295  0.6383
  524THF     O111820   1.082   2.206   1.544  0.4104  0.2702  0.1662
  524THF     C211821   0.959   2.150   1.583  0.0640  0.6679  0.3563
  524THF     C311822   1.052   2.267   1.422  0.7609  0.2749 -0.0198
  524THF     H411823   0.891   2.215   1.639 -0.5471  0.9067 -0.6400
  524THF     H511824   0.998   2.069   1.643  0.8151 -0.8389 -2.0251
  524THF     H611825   0.992   2.356   1.442  0.8274  0.2182  0.4423
  524THF     H711826   1.141   2.290   1.363  2.0383 -0.6793  1.4622
  524THF     C811827   0.973   2.154   1.346 -0.1571 -0.5981 -1.1650
  524THF     C911828   0.892   2.099   1.457 -0.1588 -0.5281  0.2483
  524THF    H1011829   1.034   2.075   1.304 -0.2853 -0.5999 -1.3502
  524THF    H1111830   0.903   2.182   1.266 -3.4192 -2.0663  0.9511
  524THF    H1211831   0.793   2.145   1.457  1.0135  2.2506 -1.6761
  524THF    H1311832   0.881   1.991   1.446  0.9064 -0.4625 -2.0001
  525THF     O111833   0.845   1.172   3.670 -0.1743  0.2919 -0.0649
  525THF     C211834   0.762   1.057   3.688 -0.2087 -0.1845 -0.4787
  525THF     C311835   0.972   1.148   3.725  0.0502  0.4476 -0.5775
  525THF     H411836   0.784   0.981   3.613  1.0497  0.0606 -0.3871
  525THF     H511837   0.658   1.088   3.686 -0.1305  0.1058 -0.0676
  525THF     H611838   1.024   1.065   3.678  0.3822 -1.8461  3.4078
  525THF     H711839   1.027   1.242   3.727 -1.8860  1.6546 -1.2258
  525THF     C811840   0.939   1.094   3.861 -0.2332  0.0120 -0.0723
  525THF     C911841   0.818   1.013   3.823  0.7371 -0.1476  0.6751
  525THF    H1011842   0.907   1.167   3.936  2.2059  0.1938  0.8888
  525THF    H1111843   1.020   1.042   3.911 -1.7933 -0.9828  1.5436
  525THF    H1211844   0.845   0.907   3.828 -1.0865 -0.6500  0.4779
  525THF    H1311845   0.739   1.020   3.897 -0.9368 -0.0589 -1.0209
  526THF     O111846   1.840   1.998   5.437  0.0067 -0.3070  0.4150
  526THF     C211847   1.977   2.042   5.459  0.0106 -0.0764 -0.2288
  526THF     C311848   1.848   1.891   5.341 -0.4605 -0.5310  0.1958
  526THF     H411849   1.995   2.076   5.561  0.6140 -1.9056  0.3124
  526THF     H511850   1.996   2.121   5.387 -1.0523 -1.0123 -1.5964
  526THF     H611851   1.770   1.818   5.361 -1.5602  0.2612 -1.0290
  526THF     H711852   1.825   1.928   5.241 -0.2853 -0.4450  0.1866
  526THF     C811853   1.983   1.820   5.353 -0.3034 -0.0922 -0.7098
  526THF     C911854   2.065   1.916   5.438  0.3740 -0.1873  0.5307
  526THF    H1011855   2.023   1.798   5.254  0.8354  0.1531 -0.3087
  526THF    H1111856   1.971   1.731   5.415 -0.9468 -0.3489 -1.1857
  526THF    H1211857   2.091   1.876   5.536  2.5091  1.3374  0.6442
  526THF    H1311858   2.152   1.949   5.382 -0.8735 -0.8219 -1.9224
  527THF     O111859   2.839   0.732   0.718  0.1488  0.0587  0.4539
  527THF     C211860   2.736   0.663   0.647  0.0813  0.1223  0.1283
  527THF     C311861   2.931   0.776   0.624  0.0808  0.4358  0.6815
  527THF     H411862   2.644   0.679   0.702  0.5040  2.0838  0.3209
  527THF     H511863   2.767   0.558   0.653  1.4656  0.4765 -0.3014
  527THF     H611864   2.994   0.857   0.662  0.3605  0.3385  0.4217
  527THF     H711865   3.001   0.699   0.594  1.2453  0.4464  3.1510
  527THF     C811866   2.853   0.822   0.508  0.9900  0.4000 -0.8776
  527THF     C911867   2.741   0.724   0.502  1.0992  0.4783  0.1133
  527THF    H1011868   2.914   0.828   0.418  1.5403 -2.6223 -0.8067
  527THF    H1111869   2.819   0.924   0.523  0.9525  0.4433 -1.2297
  527THF    H1211870   2.644   0.771   0.485  0.5185 -0.5580  0.4802
  527THF    H1311871   2.758   0.645   0.429 -1.9336 -0.7229  0.5575
  528THF     O111872   2.998   4.501   3.092  0.3831  0.0164 -0.6453
  528THF     C211873   3.005   4.633   3.037  0.7957 -0.0998 -0.4037
  528THF     C311874   2.857   4.492   3.139 -0.4217  0.3270 -0.0645
  528THF     H411875   3.089   4.651   2.970 -0.2018  0.9815 -1.4123
  528THF     H511876   3.005   4.709   3.115 -1.2146 -0.2470 -0.2323
  528THF     H611877   2.825   4.391   3.164  0.1681 -0.2017 -1.3130
  528THF     H711878   2.845   4.551   3.230 -2.0314  1.5977 -1.0301
  528THF     C811879   2.783   4.550   3.018  0.9095 -0.8916  0.0428
  528THF     C911880   2.877   4.653   2.954  0.2313  0.2397  0.2520
  528THF    H1011881   2.687   4.599   3.034  0.7873 -0.0321 -2.6882
  528THF    H1111882   2.775   4.472   2.943  0.7322  0.4334 -1.3734
  528THF    H1211883   2.885   4.617   2.851  0.8092  0.2393  0.2970
  528THF    H1311884   2.838   4.755   2.962 -0.7987 -0.2099  1.1559
  529THF     O111885   5.183   2.735   2.716  0.1913  0.1119 -0.0080
  529THF     C211886   5.170   2.716   2.572 -0.3029  0.2163 -0.1544
  529THF     C311887   5.082   2.822   2.759 -0.0294 -0.5903  0.0703
  529THF     H411888   5.236   2.636   2.538  0.2054  1.4386 -2.1576
  529THF     H511889   5.199   2.806   2.518  0.5641  1.1356  1.7542
  529THF     H611890   5.071   2.811   2.867 -2.5525 -2.6712 -0.2957
  529THF     H711891   5.090   2.925   2.726  0.9357 -0.5451  0.4104
  529THF     C811892   4.961   2.761   2.686  0.2512  0.3757 -0.1697
  529THF     C911893   5.021   2.689   2.568  0.5469 -0.5937 -0.3384
  529THF    H1011894   4.889   2.841   2.666  0.9543  1.0260 -0.1019
  529THF    H1111895   4.911   2.691   2.754  0.3397 -1.3666 -1.7884
  529THF    H1211896   4.995   2.584   2.578 -0.3486 -0.1661  2.8726
  529THF    H1311897   4.985   2.724   2.471 -0.2183  1.4053  0.6103
  530THF     O111898   2.476   2.513   5.281 -1.0742  0.1424  0.6716
  530THF     C211899   2.556   2.480   5.395  0.3990 -0.0228 -0.3112
  530THF     C311900   2.429   2.390   5.215  0.4603  0.4767 -0.3446
  530THF     H411901   2.497   2.471   5.486  0.2314  3.5747  0.0836
  530THF     H511902   2.620   2.566   5.416 -0.4483  0.6167 -0.2991
  530THF     H611903   2.325   2.378   5.247  1.3296 -1.3737  2.1461
  530THF     H711904   2.438   2.394   5.107 -2.4494 -1.2767 -0.7861
  530THF     C811905   2.509   2.277   5.280  0.5081  0.6100  0.2886
  530THF     C911906   2.619   2.345   5.359 -0.9933 -0.1034 -0.4055
  530THF    H1011907   2.548   2.193   5.223 -0.7970 -0.3457  0.7692
  530THF    H1111908   2.440   2.241   5.356  1.0314  0.7850  0.8554
  530THF    H1211909   2.653   2.282   5.441 -1.2530 -0.5025 -0.5999
  530THF    H1311910   2.703   2.356   5.289 -1.2492  0.3734 -0.6362
  531THF     O111911   5.345   5.031   4.713 -0.0264 -0.0478  0.4217
  531THF     C211912   5.422   5.059   4.596 -0.3126  0.0087 -0.3393
  531THF     C311913   5.239   5.120   4.708  0.5097  0.7992  0.2738
  531THF     H411914   5.491   4.978   4.571  1.0353  1.3594 -1.1997
  531THF     H511915   5.487   5.144   4.617  0.7487 -1.2977  2.0411
  531THF     H611916   5.152   5.088   4.765  2.0839 -0.7565  1.9417
  531THF     H711917   5.284   5.210   4.750  0.9199 -0.5372  2.8871
  531THF     C811918   5.200   5.127   4.555 -0.3105 -0.2457  0.0768
  531THF     C911919   5.323   5.078   4.481 -0.2762  0.2001  0.3236
  531THF    H1011920   5.164   5.224   4.522 -0.2856 -0.1790  0.2442
  531THF    H1111921   5.118   5.060   4.529 -1.6396  1.4151 -0.1480
  531THF    H1211922   5.301   4.983   4.433  1.2786 -0.2850  0.5372
  531THF    H1311923   5.375   5.146   4.414 -0.0878  0.3830  0.6561
  532THF     O111924   3.588   4.808   4.352  0.1982 -0.9220  0.4430
  532THF     C211925   3.498   4.787   4.457  0.1490  1.2413  0.1418
  532THF     C311926   3.541   4.916   4.278 -0.1612  0.4118  0.4771
  532THF     H411927   3.507   4.858   4.539 -0.0992 -3.4283  4.6995
  532THF     H511928   3.504   4.691   4.507 -1.6391 -0.2298 -2.2977
  532THF     H611929   3.565   5.000   4.342 -0.0448  0.5906  0.2009
  532THF     H711930   3.580   4.922   4.176 -0.4419  1.0988  0.4088
  532THF     C811931   3.388   4.895   4.269 -0.6748  0.7071 -0.7444
  532THF     C911932   3.364   4.792   4.383  0.3389 -0.3964 -0.3024
  532THF    H1011933   3.353   4.849   4.176 -1.1524 -1.0221  0.2493
  532THF    H1111934   3.337   4.989   4.289  0.5901  0.9689  1.6981
  532THF    H1211935   3.284   4.828   4.448 -0.6078  0.5620 -1.9256
  532THF    H1311936   3.340   4.697   4.337 -2.6363  0.2513 -0.3364
  533THF     O111937   0.946   2.370   5.362 -0.1661  0.8091 -0.1868
  533THF     C211938   0.943   2.249   5.293  0.5797  0.6801  0.1438
  533THF     C311939   0.992   2.347   5.491 -0.1393  0.4405 -0.2260
  533THF     H411940   1.040   2.205   5.271 -1.4149 -3.2669 -1.8657
  533THF     H511941   0.889   2.254   5.199 -1.7737  1.3769  1.4361
  533THF     H611942   1.099   2.327   5.492 -0.1656  0.2245 -1.0853
  533THF     H711943   0.968   2.418   5.570 -1.0093  0.1940 -0.2536
  533THF     C811944   0.926   2.215   5.521  0.0637  0.2005 -0.5762
  533THF     C911945   0.867   2.157   5.392 -0.6112 -0.0936  0.4876
  533THF    H1011946   0.841   2.219   5.590 -0.0897 -1.8342 -0.5869
  533THF    H1111947   1.003   2.146   5.555  0.7753  1.3809  0.2958
  533THF    H1211948   0.903   2.054   5.392  0.2330  0.1970  0.2663
  533THF    H1311949   0.758   2.165   5.395 -0.4930  2.2888  3.4301
  534THF     O111950   0.693   0.716   1.182 -0.0682 -0.0345 -0.5917
  534THF     C211951   0.567   0.791   1.171  0.2997  0.0855 -0.4803
  534THF     C311952   0.758   0.704   1.053 -0.4686  0.1759 -0.5957
  534THF     H411953   0.536   0.829   1.268 -0.6097  0.2242 -0.8148
  534THF     H511954   0.484   0.732   1.132  0.2982  1.2494 -2.3966
  534THF     H611955   0.866   0.697   1.065 -0.4901  2.5958  1.9262
  534THF     H711956   0.710   0.628   0.992 -1.5509 -0.3586  0.8761
  534THF     C811957   0.726   0.833   0.977  0.6586  0.0336 -0.2636
  534THF     C911958   0.626   0.903   1.075  0.3524 -0.9107  0.3830
  534THF    H1011959   0.690   0.806   0.878  2.8641  0.8242 -1.3409
  534THF    H1111960   0.820   0.888   0.967  1.6181 -1.5188 -0.1770
  534THF    H1211961   0.662   0.983   1.140  1.7431  0.0782 -1.5038
  534THF    H1311962   0.540   0.948   1.025 -0.8078 -0.8164  2.3689
  535THF     O111963   1.406   3.890   4.967 -0.0803 -0.0127  0.7981
  535THF     C211964   1.405   3.754   5.002 -0.4356  0.0346 -0.4635
  535THF     C311965   1.515   3.914   4.887 -0.7896 -0.0058 -0.4253
  535THF     H411966   1.308   3.714   5.031 -0.6584  0.7086 -0.2638
  535THF     H511967   1.461   3.743   5.095  0.2976  0.3786 -0.8544
  535THF     H611968   1.487   3.973   4.801 -0.7733  0.5415 -0.0595
  535THF     H711969   1.597   3.957   4.945 -0.2730 -1.1937 -0.2399
  535THF     C811970   1.561   3.778   4.828 -0.3472  0.2975 -0.5256
  535THF     C911971   1.467   3.678   4.889  0.2763 -0.4896  0.2492
  535THF    H1011972   1.663   3.749   4.849 -0.4276 -0.1014 -0.6812
  535THF    H1111973   1.560   3.785   4.719 -0.0480 -0.9632 -0.6210
  535THF    H1211974   1.396   3.644   4.814 -0.1214  3.2081 -1.2883
  535THF    H1311975   1.518   3.589   4.926  0.7697 -0.4789 -0.3891
  536THF     O111976   2.183   2.390   2.153 -0.1232 -0.0827 -0.4208
  536THF     C211977   2.054   2.337   2.182 -0.3209 -0.5636 -0.9317
  536THF     C311978   2.240   2.441   2.277  0.5896  0.3708 -0.0352
  536THF     H411979   2.012   2.270   2.107 -0.6327  2.0231 -3.2417
  536THF     H511980   1.987   2.416   2.214 -0.1317 -0.4182 -0.8922
  536THF     H611981   2.348   2.430   2.262  0.4048 -0.6594 -0.6573
  536THF     H711982   2.209   2.545   2.284 -1.0540  0.1011 -2.3430
  536THF     C811983   2.184   2.351   2.378  0.8451 -0.3487 -0.6047
  536THF     C911984   2.082   2.262   2.315  0.5970  0.3683  0.9968
  536THF    H1011985   2.136   2.407   2.459  1.0821  0.5797 -1.0935
  536THF    H1111986   2.262   2.287   2.418  1.0074 -0.9164 -1.7795
  536THF    H1211987   2.125   2.164   2.291 -1.7552 -0.3120 -0.7599
  536THF    H1311988   1.999   2.235   2.380 -0.2666 -1.2360 -0.6816
  537THF     O111989   1.300   0.084   2.745 -0.2166 -0.5784  0.0611
  537THF     C211990   1.259   0.197   2.668 -0.3573  0.3286  0.1603
  537THF     C311991   1.432   0.103   2.795  0.0761 -0.3313  0.8695
  537THF     H411992   1.219   0.262   2.745  0.6836 -1.2423  2.1150
  537THF     H511993   1.178   0.165   2.602  0.5716 -2.0559  0.0781
  537THF     H611994   1.456   0.087   2.900  4.5577  0.1676  0.1154
  537THF     H711995   1.487   0.025   2.742 -0.0282  1.3586 -1.9022
  537THF     C811996   1.467   0.240   2.741  0.2263 -0.4736  0.2284
  537THF     C911997   1.381   0.268   2.618  0.1836  0.8442  0.5383
  537THF    H1011998   1.575   0.247   2.726  0.3887 -0.4032  1.3376
  537THF    H1111999   1.436   0.310   2.818 -1.5621 -0.7883 -0.1691
  537THF    H1212000   1.363   0.375   2.607  1.5939  1.1576  1.0079
  537THF    H1312001   1.409   0.216   2.526 -0.3093  1.0916  0.2495
  538THF     O112002   1.120   1.526   2.566 -0.0267  0.0601 -0.0970
  538THF     C212003   1.072   1.394   2.592 -0.2552 -0.4518  1.0286
  538THF     C312004   1.264   1.525   2.540  0.3561 -0.3447 -0.4367
  538THF     H412005   1.052   1.347   2.496  2.8981  1.9038 -1.0063
  538THF     H512006   0.977   1.391   2.645 -0.5379 -0.1660  0.5483
  538THF     H612007   1.287   1.501   2.436  1.5302 -0.7068 -0.1149
  538THF     H712008   1.317   1.614   2.575  1.3167 -1.1793  0.2789
  538THF     C812009   1.311   1.395   2.608 -0.5245  0.1456  0.3391
  538THF     C912010   1.183   1.331   2.671  0.6093 -0.4916 -0.2130
  538THF    H1012011   1.373   1.425   2.692  1.9491 -1.3737 -0.8236
  538THF    H1112012   1.374   1.331   2.547  0.5173  2.7545 -1.4821
  538THF    H1212013   1.182   1.222   2.681  0.8660 -0.3933  1.0311
  538THF    H1312014   1.180   1.382   2.767 -1.0395  0.4574 -0.7324
  539THF     O112015   0.597   2.323   1.477  0.1539  0.0275 -0.6007
  539THF     C212016   0.691   2.414   1.426 -0.3950  0.2774  0.9065
  539THF     C312017   0.469   2.386   1.476 -0.0486  0.0223 -0.5101
  539THF     H412018   0.715   2.403   1.320  1.6727  2.7183  1.0271
  539THF     H512019   0.780   2.404   1.488  0.4519  0.5696 -0.2153
  539THF     H612020   0.423   2.400   1.379  0.3085  1.5064 -0.4845
  539THF     H712021   0.401   2.334   1.544  1.3859 -1.0474  0.1485
  539THF     C812022   0.501   2.527   1.527  0.1923 -0.3384 -0.8762
  539THF     C912023   0.621   2.554   1.444 -0.0864 -0.2126  0.0757
  539THF    H1012024   0.521   2.544   1.632 -3.6326  2.7561 -0.4348
  539THF    H1112025   0.417   2.590   1.499 -1.2067 -1.4537  0.6258
  539THF    H1212026   0.591   2.600   1.350  0.7306 -1.2390 -0.7041
  539THF    H1312027   0.683   2.629   1.494 -2.5521  2.6686 -0.8705
  540THF     O112028   1.129   2.155   2.462  0.2162  0.3068  0.0043
  540THF     C212029   1.144   2.241   2.572  0.2883  0.0886 -0.5291
  540THF     C312030   1.141   2.020   2.510 -0.4888 -0.0076  0.2455
  540THF     H412031   1.048   2.228   2.622  0.7264 -1.7471 -0.0710
  540THF     H512032   1.166   2.342   2.537  0.0248  0.1458 -0.5283
  540THF     H612033   1.060   2.003   2.581 -1.7845  1.6911 -0.7645
  540THF     H712034   1.147   1.939   2.437  2.0934 -0.0461  0.3989
  540THF     C812035   1.261   2.033   2.597  0.3695 -0.1274 -0.0501
  540THF     C912036   1.251   2.176   2.664  0.7237 -0.6583 -0.4158
  540THF    H1012037   1.342   2.035   2.524  0.6914  1.9355  0.2976
  540THF    H1112038   1.282   1.944   2.656 -1.0769 -1.2057 -1.0953
  540THF    H1212039   1.209   2.164   2.763  1.2983 -1.3932 -0.2595
  540THF    H1312040   1.349   2.224   2.658  0.4292  0.2277  1.3497
  541THF     O112041   1.887   1.096   5.127 -0.4592 -0.0469  0.0110
  541THF     C212042   1.764   1.132   5.050  0.1784  0.1555  0.0593
  541THF     C312043   1.996   1.178   5.082 -0.6219 -0.5739  0.8033
  541THF     H412044   1.679   1.156   5.115 -0.0460  1.0690 -0.5487
  541THF     H512045   1.731   1.049   4.988  1.7729 -0.0586 -0.5271
  541THF     H612046   2.016   1.265   5.145 -0.8140  0.8637 -1.0228
  541THF     H712047   2.091   1.132   5.055 -0.0037  1.2511 -0.3097
  541THF     C812048   1.944   1.225   4.945  0.8472  0.0455  0.2265
  541THF     C912049   1.799   1.247   4.966  0.2711 -0.3198 -0.2174
  541THF    H1012050   1.969   1.148   4.871  3.8007  1.0479  0.0660
  541THF    H1112051   1.993   1.317   4.914  0.0863  0.4921  0.3150
  541THF    H1212052   1.782   1.329   5.036  0.7197 -1.9022  1.8399
  541THF    H1312053   1.747   1.258   4.871 -1.7456  0.3033  0.8866
  542THF     O112054   2.239   3.430   4.731 -0.8246  0.0035 -0.0003
  542THF     C212055   2.275   3.568   4.733 -0.0578 -0.4691  0.1309
  542THF     C312056   2.276   3.370   4.605 -0.1869  0.3887 -0.0504
  542THF     H412057   2.298   3.603   4.834  1.6117  1.6118 -0.8844
  542THF     H512058   2.192   3.620   4.687 -0.5379 -1.3043  0.0332
  542THF     H612059   2.279   3.261   4.611  3.7799  0.3861  0.5428
  542THF     H712060   2.202   3.397   4.529  0.3429 -3.8915 -2.4016
  542THF     C812061   2.401   3.443   4.559 -0.2087  0.0791 -0.3651
  542THF     C912062   2.401   3.562   4.650  0.6461  0.6356 -0.2813
  542THF    H1012063   2.399   3.482   4.458  0.3556  1.6812  0.2153
  542THF    H1112064   2.491   3.383   4.575  0.3109  1.3096  1.7201
  542THF    H1212065   2.481   3.550   4.722 -2.3797 -1.2965  3.0527
  542THF    H1312066   2.416   3.652   4.590  3.7125  0.7591  0.4894
  543THF     O112067   4.105   2.910   1.983 -0.0843 -0.0300 -0.0114
  543THF     C212068   4.198   3.024   1.987  0.6871 -0.5063 -0.1251
  543THF     C312069   4.151   2.824   2.091 -0.2591  0.1723 -1.2170
  543THF     H412070   4.150   3.115   1.948 -1.2983 -2.0298 -1.4687
  543THF     H512071   4.285   3.007   1.924  1.8356  1.5227  0.8303
  543THF     H612072   4.077   2.748   2.117  2.5720 -2.2450  0.3696
  543THF     H712073   4.241   2.771   2.060 -0.3669 -2.0152  1.8450
  543THF     C812074   4.176   2.926   2.199 -0.1819  0.0110  0.1413
  543THF     C912075   4.238   3.045   2.133  0.1388  0.3010 -0.0337
  543THF    H1012076   4.232   2.873   2.276  0.3467  1.0440  0.4906
  543THF    H1112077   4.077   2.961   2.230 -0.4157 -1.1319  0.7532
  543THF    H1212078   4.220   3.137   2.188  0.2766 -0.5669  1.5383
  543THF    H1312079   4.342   3.017   2.153  0.0001  0.9418  1.6814
  544THF     O112080   3.817   0.787   5.085  0.8355  0.1332 -0.2348
  544THF     C212081   3.787   0.886   4.997  0.5183  0.0086 -0.1790
  544THF     C312082   3.770   0.668   5.021  0.5821  0.5833  0.6292
  544THF     H412083   3.864   0.900   4.920 -0.9457  0.8356 -1.5604
  544THF     H512084   3.786   0.981   5.051 -0.4804  0.1613 -0.4514
  544THF     H612085   3.855   0.618   4.975  0.7226  1.6279 -0.2959
  544THF     H712086   3.726   0.604   5.097 -1.0109  1.1094  0.1949
  544THF     C812087   3.658   0.708   4.922  0.3281 -0.2438  0.4760
  544THF     C912088   3.654   0.857   4.942 -0.3152 -0.0871 -1.2462
  544THF    H1012089   3.562   0.665   4.952  0.3193 -1.1497 -0.7592
  544THF    H1112090   3.674   0.683   4.817 -0.3036 -0.9331  0.5329
  544THF    H1212091   3.633   0.904   4.846 -0.0904  0.6745 -0.9268
  544THF    H1312092   3.578   0.875   5.018 -1.5144 -3.0352 -1.6189
  545THF     O112093   5.202   3.751   2.508  0.4416 -0.4489 -0.5811
  545THF     C212094   5.246   3.773   2.369  0.6221  0.1781  0.0698
  545THF     C312095   5.184   3.607   2.518 -0.6402  0.4685  0.1604
  545THF     H412096   5.290   3.873   2.367  0.8104  0.1552  1.7242
  545THF     H512097   5.171   3.761   2.291 -0.8212 -1.6946  1.6514
  545THF     H612098   5.179   3.589   2.626  0.3507 -0.2050  0.1150
  545THF     H712099   5.091   3.571   2.476 -1.3291  0.8179  1.3367
  545THF     C812100   5.316   3.558   2.459 -0.0854 -0.2155 -0.0638
  545THF     C912101   5.348   3.661   2.349 -0.1673  0.1703 -0.4041
  545THF    H1012102   5.320   3.450   2.440 -0.3373 -0.1731 -0.3653
  545THF    H1112103   5.394   3.579   2.532  0.4712  0.9846 -0.9683
  545THF    H1212104   5.446   3.702   2.371  0.1074 -0.4759 -0.3919
  545THF    H1312105   5.354   3.625   2.246  2.1043  1.1522 -0.6751
  546THF     O112106   1.808   0.050   3.615  0.2514 -0.2822 -0.5335
  546THF     C212107   1.810  -0.054   3.717  0.1674 -0.6644  0.2301
  546THF     C312108   1.897   0.020   3.510 -0.6572  0.4715  0.6490
  546THF     H412109   1.710  -0.088   3.742  0.8067 -1.6929  1.5157
  546THF     H512110   1.856  -0.012   3.806 -0.3448  0.2008  0.0921
  546THF     H612111   1.851   0.061   3.420  0.2383 -0.3697 -0.2255
  546THF     H712112   1.994   0.068   3.513  0.5039 -1.6556 -0.2068
  546THF     C812113   1.901  -0.132   3.513  0.4539  0.0078  0.3635
  546THF     C912114   1.904  -0.165   3.660 -0.5578 -0.2345 -0.7321
  546THF    H1012115   1.989  -0.181   3.471  1.1160 -0.3862  2.1020
  546THF    H1112116   1.811  -0.163   3.459  0.2728 -0.7063  1.0525
  546THF    H1212117   1.860  -0.263   3.679 -1.4681  0.3981  0.5848
  546THF    H1312118   2.001  -0.157   3.710 -0.9639  0.9626 -0.1026
  547THF     O112119   2.028   1.590   4.571  0.1247 -0.1985  0.2482
  547THF     C212120   2.169   1.582   4.566  0.5001  0.0035 -0.2100
  547THF     C312121   1.976   1.462   4.579  0.0615  0.3145  0.5876
  547THF     H412122   2.211   1.599   4.665 -1.2188 -1.9391  0.9166
  547THF     H512123   2.211   1.661   4.504  2.6834 -1.8053 -1.1963
  547THF     H612124   1.957   1.442   4.684 -5.4203  0.2277 -0.1167
  547THF     H712125   1.876   1.465   4.536 -0.6186  1.6381  2.1751
  547THF     C812126   2.068   1.366   4.502  0.4666  0.1365  0.1048
  547THF     C912127   2.200   1.442   4.520 -1.1744  0.2604 -0.5112
  547THF    H1012128   2.037   1.356   4.398 -0.5801 -0.3836  0.4454
  547THF    H1112129   2.062   1.269   4.551  1.7758 -1.0863 -2.0286
  547THF    H1212130   2.263   1.384   4.587  0.1129  2.6664  0.4858
  547THF    H1312131   2.250   1.447   4.423  0.1211  1.7365  0.1827
  548THF     O112132   2.994   5.210   5.114 -0.0222 -0.0397  0.1019
  548THF     C212133   2.970   5.304   5.214 -0.4271 -0.1291 -0.0669
  548THF     C312134   2.966   5.081   5.157 -0.2840 -0.1832 -0.4146
  548THF     H412135   2.944   5.402   5.174 -0.6668 -0.1379  0.0646
  548THF     H512136   3.064   5.317   5.267 -1.6493  0.8142  2.0148
  548THF     H612137   2.879   5.049   5.100  0.0329  1.3666 -1.8178
  548THF     H712138   3.051   5.014   5.142 -1.2304 -2.0144  1.7073
  548THF     C812139   2.928   5.091   5.299 -0.7931  0.3120 -0.0112
  548THF     C912140   2.871   5.228   5.299 -0.1461  0.0013  0.3587
  548THF    H1012141   3.017   5.070   5.358 -1.0137  0.8166  0.5067
  548THF    H1112142   2.855   5.012   5.319  0.7039 -0.8315  1.1541
  548THF    H1212143   2.775   5.224   5.246 -0.1704 -0.5922  0.4394
  548THF    H1312144   2.849   5.264   5.400  0.5334 -0.0301  0.5178
  549THF     O112145   2.640   2.778   3.143  0.2300  0.5267 -0.4123
  549THF     C212146   2.591   2.768   3.010 -0.3274  0.3529  0.1574
  549THF     C312147   2.784   2.792   3.130 -0.1017  0.1445 -0.5750
  549THF     H412148   2.484   2.783   2.994 -0.9078  0.5494  3.4874
  549THF     H512149   2.603   2.660   3.001  0.5243  0.3240  1.3642
  549THF     H612150   2.827   2.821   3.226  3.3236 -2.2091 -1.2045
  549THF     H712151   2.845   2.709   3.094  0.0066  0.2542 -0.6462
  549THF     C812152   2.784   2.902   3.029  0.5645 -0.1790  0.1966
  549THF     C912153   2.680   2.853   2.926 -0.6839  0.0478 -0.3604
  549THF    H1012154   2.878   2.907   2.975  0.3389 -2.7312 -0.5300
  549THF    H1112155   2.762   2.997   3.079 -0.1318 -1.7035  2.9696
  549THF    H1212156   2.631   2.940   2.881 -0.3993 -0.7133 -2.2508
  549THF    H1312157   2.737   2.790   2.858  1.1541 -0.3537  1.4616
  550THF     O112158   4.845   5.411   1.374  0.0519  0.2570  0.2022
  550THF     C212159   4.754   5.341   1.458  0.0952  0.3847  0.4245
  550THF     C312160   4.777   5.529   1.330 -0.1669  0.0103  0.1627
  550THF     H412161   4.776   5.361   1.563  1.6551 -2.1882  0.6653
  550THF     H512162   4.768   5.233   1.455  1.0437  0.4838  0.9292
  550THF     H612163   4.768   5.601   1.410 -1.8956  0.1443 -0.1161
  550THF     H712164   4.820   5.581   1.245 -0.0178  0.5866  0.5910
  550THF     C812165   4.635   5.479   1.298  0.2233  0.0730  0.3045
  550THF     C912166   4.611   5.373   1.407 -0.3360  1.1589 -0.2314
  550THF    H1012167   4.641   5.437   1.198  1.1790 -0.1880  0.4557
  550THF    H1112168   4.572   5.568   1.297 -0.2436 -0.2350  1.0279
  550THF    H1212169   4.551   5.410   1.490 -1.3233 -0.2129 -0.2983
  550THF    H1312170   4.554   5.290   1.364 -2.6442  3.5287 -2.0652
  551THF     O112171   0.006   3.910   0.737  0.1312 -0.2532 -0.3674
  551THF     C212172   0.082   3.817   0.666  0.3204  0.1152  0.7758
  551THF     C312173   0.092   4.011   0.788  0.4414 -0.5810 -0.0649
  551THF     H412174   0.102   3.838   0.561 -0.1051  0.8110  0.8264
  551THF     H512175   0.030   3.722   0.670 -1.2752  0.8561 -1.0525
  551THF     H612176   0.067   4.108   0.746 -0.8056 -1.1619 -0.7191
  551THF     H712177   0.059   4.012   0.892 -1.9195 -1.2624 -0.7467
  551THF     C812178   0.238   3.971   0.755  0.0840  1.0627  0.1638
  551THF     C912179   0.216   3.820   0.745 -0.1864  0.0960 -0.2828
  551THF    H1012180   0.312   4.003   0.829 -0.7127  2.0794  0.5469
  551THF    H1112181   0.258   4.014   0.657 -0.4680  0.7217 -0.1007
  551THF    H1212182   0.291   3.752   0.704  0.5446  0.1011  0.9985
  551THF    H1312183   0.192   3.786   0.845  2.0965 -2.9803 -0.6254
  552THF     O112184   1.440   2.597   2.178  0.4348  0.4043 -0.4145
  552THF     C212185   1.442   2.526   2.058  0.3388 -0.4431  0.2250
  552THF     C312186   1.544   2.545   2.256  0.5635  0.0404 -0.2281
  552THF     H412187   1.510   2.575   1.989  0.9563 -0.4695  0.8003
  552THF     H512188   1.346   2.512   2.008  0.4336  0.4660 -0.2375
  552THF     H612189   1.625   2.617   2.267 -0.3454  1.3456 -1.5667
  552THF     H712190   1.508   2.511   2.352  1.7702  0.3367  0.3504
  552THF     C812191   1.604   2.430   2.167  0.0253 -1.4109  0.2315
  552THF     C912192   1.494   2.387   2.080  0.2967  0.1620 -0.2240
  552THF    H1012193   1.657   2.350   2.218  2.4541  0.7854  1.4388
  552THF    H1112194   1.676   2.470   2.094 -0.4760  0.5184  0.7323
  552THF    H1212195   1.529   2.339   1.989  2.8718  2.5016 -0.6132
  552THF    H1312196   1.426   2.320   2.131  0.2604 -0.2639 -0.8136
  553THF     O112197   0.248   1.147   0.139  0.2722 -0.0291 -0.0350
  553THF     C212198   0.362   1.067   0.153 -0.4857  0.2833 -0.7105
  553THF     C312199   0.175   1.133   0.258  0.7118 -0.0557  0.7198
  553THF     H412200   0.427   1.089   0.069  0.7381 -1.9799 -0.4162
  553THF     H512201   0.326   0.964   0.146 -1.4887  0.5394  0.2770
  553THF     H612202   0.135   1.233   0.276 -1.0094 -0.2730 -1.3869
  553THF     H712203   0.088   1.067   0.257  0.1493  0.6361 -1.4207
  553THF     C812204   0.278   1.094   0.367  0.2595 -0.8203 -0.4289
  553THF     C912205   0.408   1.088   0.296  0.6931  0.2922  0.1685
  553THF    H1012206   0.251   0.993   0.397  0.8135 -1.1051 -0.8625
  553THF    H1112207   0.273   1.171   0.444 -1.4317  1.9078 -3.0534
  553THF    H1212208   0.466   1.180   0.311  1.2522  0.4839 -2.6404
  553THF    H1312209   0.468   1.006   0.334 -0.3485  0.0062  1.2138
  554THF     O112210   4.231   4.652   2.959  0.5415  0.4399  0.0584
  554THF     C212211   4.330   4.729   2.890  0.4198 -0.8068 -0.3006
  554THF     C312212   4.159   4.578   2.858 -0.3529 -0.3557 -0.1660
  554THF     H412213   4.434   4.706   2.911  0.4844 -0.8465 -0.6635
  554THF     H512214   4.303   4.829   2.923 -1.5825 -1.7909  1.3022
  554THF     H612215   4.191   4.474   2.848  3.3935  0.8115 -2.3101
  554THF     H712216   4.051   4.577   2.871 -0.3812  0.6623 -0.2306
  554THF     C812217   4.168   4.659   2.731 -0.6655 -0.3391 -0.5266
  554THF     C912218   4.308   4.713   2.738 -0.3049 -0.3687 -0.2774
  554THF    H1012219   4.091   4.736   2.735 -0.9628 -0.5976 -1.2277
  554THF    H1112220   4.144   4.609   2.638 -1.5883  2.1498 -1.7181
  554THF    H1212221   4.383   4.647   2.693  0.8928  1.0714 -0.4553
  554THF    H1312222   4.320   4.805   2.681  0.7680 -0.8937 -0.9467
  555THF     O112223   2.469   3.178   0.482  0.2903  0.1373 -0.6408
  555THF     C212224   2.518   3.186   0.343 -0.2025  0.4411  0.5142
  555THF     C312225   2.374   3.277   0.516  0.7356  0.3998 -0.2329
  555THF     H412226   2.519   3.089   0.294  0.5590  1.1106 -0.8276
  555THF     H512227   2.618   3.226   0.355 -0.4002  0.9728  0.4179
  555THF     H612228   2.275   3.238   0.537  0.3241  1.5736  0.0816
  555THF     H712229   2.389   3.346   0.599  0.2235 -0.5229  0.6553
  555THF     C812230   2.370   3.361   0.394 -0.0932  0.3236 -0.7274
  555THF     C912231   2.414   3.267   0.277  0.2415  0.1027 -0.1291
  555THF    H1012232   2.446   3.439   0.398 -3.2233  3.5493 -0.1409
  555THF    H1112233   2.278   3.412   0.368 -0.2130  0.4577 -0.0570
  555THF    H1212234   2.322   3.216   0.249 -0.4350  0.0402  2.0431
  555THF    H1312235   2.448   3.324   0.191 -1.5914 -1.2827 -1.8771
  556THF     O112236   2.546   2.988   5.304  0.3496 -0.1148 -0.5970
  556THF     C212237   2.513   2.989   5.446  0.1231 -0.0588  0.2533
  556THF     C312238   2.685   3.026   5.296  0.0345  0.4694 -0.1801
  556THF     H412239   2.451   2.902   5.468  0.3344  0.1987  2.0216
  556THF     H512240   2.479   3.086   5.483  0.8179  0.4411 -0.4145
  556THF     H612241   2.714   2.979   5.202 -3.0797 -0.8637 -0.5754
  556THF     H712242   2.694   3.135   5.298 -1.4621  0.5980  0.5111
  556THF     C812243   2.753   2.967   5.418 -0.5163 -0.4198  0.3785
  556THF     C912244   2.642   2.947   5.522  0.7864 -0.5594 -0.7129
  556THF    H1012245   2.830   3.029   5.463 -0.1458  0.7010 -1.6843
  556THF    H1112246   2.808   2.874   5.402  0.9307  0.4432  0.2027
  556THF    H1212247   2.642   2.841   5.548 -0.1417 -0.7350 -1.3851
  556THF    H1312248   2.654   3.010   5.611 -2.1078 -0.2547 -0.4269
  557THF     O112249   3.045   3.123   0.363 -0.6783 -0.5053  0.6356
  557THF     C212250   3.048   3.265   0.340 -0.3238 -0.1598 -0.1398
  557THF     C312251   2.960   3.100   0.465  0.1824  0.7853 -1.0644
  557THF     H412252   2.962   3.309   0.289 -1.6338 -0.0585  2.0225
  557THF     H512253   3.132   3.295   0.277 -0.5105  0.2850 -0.1808
  557THF     H612254   2.860   3.123   0.428  0.0990  2.6670  0.2281
  557THF     H712255   2.976   2.995   0.491  1.5397  0.9529 -1.1901
  557THF     C812256   3.017   3.191   0.575 -0.1348 -0.1637 -0.7803
  557THF     C912257   3.061   3.312   0.485  0.2883  0.5671  0.5954
  557THF    H1012258   3.106   3.152   0.625  0.2534  0.5743 -0.8782
  557THF    H1112259   2.932   3.211   0.639 -0.0811 -3.2975  0.4212
  557THF    H1212260   2.996   3.397   0.510 -2.0840 -0.7958 -0.6532
  557THF    H1312261   3.155   3.365   0.504  0.2909  1.0242 -0.6327
  558THF     O112262   2.995   2.610   3.800 -0.4194 -0.1044 -0.0109
  558THF     C212263   3.103   2.629   3.889 -0.4519 -0.4529  0.6796
  558THF     C312264   2.879   2.589   3.884  0.6193 -0.1635  0.6252
  558THF     H412265   3.185   2.687   3.847 -0.3419 -1.0414  0.0469
  558THF     H512266   3.159   2.536   3.903  1.2894  0.6079  1.0100
  558THF     H612267   2.792   2.612   3.822  0.0765 -0.3003  1.3178
  558THF     H712268   2.883   2.487   3.921 -0.1757 -0.9723 -1.3566
  558THF     C812269   2.908   2.693   3.995  0.0687 -0.2096  0.1235
  558THF     C912270   3.052   2.684   4.022 -0.3287  0.5015  0.1610
  558THF    H1012271   2.850   2.690   4.087 -2.6879 -1.0997 -1.5488
  558THF    H1112272   2.900   2.795   3.957  1.2167  0.6830  2.0577
  558THF    H1212273   3.089   2.780   4.057 -0.4629 -0.0809  2.0341
  558THF    H1312274   3.081   2.621   4.107 -1.5190 -0.7874 -0.3344
  559THF     O112275   4.288   3.651   3.962 -0.0223 -0.1193  0.1479
  559THF     C212276   4.378   3.751   3.922  0.1811 -0.4450  0.6493
  559THF     C312277   4.344   3.578   4.057 -0.5936  0.5025 -0.0594
  559THF     H412278   4.324   3.829   3.868 -1.7082 -0.0152  2.9664
  559THF     H512279   4.462   3.720   3.860  0.5764  2.4521 -0.4079
  559THF     H612280   4.286   3.506   4.115  2.5053 -1.6038  0.6829
  559THF     H712281   4.410   3.512   4.001 -2.4066 -0.7020 -0.8851
  559THF     C812282   4.425   3.685   4.144  0.5346 -0.1804  0.6537
  559THF     C912283   4.438   3.802   4.049  0.0617  0.0387  0.1155
  559THF    H1012284   4.520   3.638   4.169  0.3904 -1.7872 -1.5769
  559THF    H1112285   4.370   3.715   4.233 -0.0220 -1.5876  0.8085
  559THF    H1212286   4.387   3.893   4.082 -1.4367 -0.6331 -0.2945
  559THF    H1312287   4.539   3.842   4.038 -0.0273  0.8319  1.7918
  560THF     O112288   2.139   2.815   0.134  0.1731 -0.6226 -0.0267
  560THF     C212289   2.087   2.880   0.252  0.5426  0.8622  0.2118
  560THF     C312290   2.257   2.749   0.179 -0.4025 -0.3947  0.1804
  560THF     H412291   2.035   2.802   0.308  1.1820 -0.2928 -0.7502
  560THF     H512292   2.009   2.949   0.220 -1.0767 -1.0958 -0.3018
  560THF     H612293   2.237   2.666   0.245 -1.0655 -1.2425 -1.0515
  560THF     H712294   2.322   2.723   0.095 -2.0895  0.7868 -1.5930
  560THF     C812295   2.328   2.861   0.246 -0.9375 -0.2167 -0.2366
  560THF     C912296   2.215   2.934   0.318 -0.6770 -0.3322 -0.2179
  560THF    H1012297   2.381   2.936   0.187  0.6495 -0.3701  0.9450
  560THF    H1112298   2.414   2.827   0.304  0.2475  0.5059 -1.5060
  560THF    H1212299   2.215   2.916   0.425  1.3423 -0.3609 -0.1934
  560THF    H1312300   2.227   3.039   0.291  1.0771 -0.6540 -0.8068
  561THF     O112301   0.896   2.794   3.100 -0.0358  0.0549  0.3438
  561THF     C212302   0.955   2.792   3.234 -0.2256 -0.0990 -0.1342
  561THF     C312303   0.999   2.723   3.031  0.9188 -0.3768 -0.3550
  561THF     H412304   0.882   2.793   3.314  1.1019 -2.6853  1.2650
  561THF     H512305   1.010   2.886   3.231 -1.6523  0.7887 -3.4211
  561THF     H612306   0.945   2.690   2.942  0.4420  0.3891 -0.3624
  561THF     H712307   1.077   2.790   2.994 -0.2754  1.4071  0.2115
  561THF     C812308   1.061   2.613   3.115 -0.8491  0.8101  0.5448
  561THF     C912309   1.051   2.671   3.248  0.8844  0.2032 -0.0905
  561THF    H1012310   1.166   2.600   3.089 -0.7228 -0.0360  1.4351
  561THF    H1112311   1.014   2.515   3.119  0.8398 -0.0653 -0.1330
  561THF    H1212312   1.027   2.601   3.328 -0.5405  0.9705  0.1804
  561THF    H1312313   1.150   2.705   3.280  1.4689 -1.5760  0.1194
  562THF     O112314   4.763   3.602   5.301 -0.1564  0.0616 -0.2947
  562THF     C212315   4.893   3.592   5.357  0.0296 -0.3937 -0.2346
  562THF     C312316   4.770   3.540   5.167  0.8749 -0.1315 -0.2681
  562THF     H412317   4.896   3.495   5.406 -2.1621 -1.2591 -1.6531
  562THF     H512318   4.904   3.667   5.435  0.1094 -0.4581 -0.1843
  562THF     H612319   4.712   3.449   5.176  0.4962  0.1724  0.4079
  562THF     H712320   4.727   3.600   5.087 -2.1296 -1.1040  0.4647
  562THF     C812321   4.917   3.524   5.135 -0.5878  0.5402 -0.3655
  562THF     C912322   4.989   3.597   5.237  0.0870  0.8053 -0.7317
  562THF    H1012323   4.945   3.567   5.038  2.0136 -0.1974 -0.0064
  562THF    H1112324   4.943   3.419   5.125  0.3287  0.4250  2.4607
  562THF    H1212325   5.081   3.546   5.267 -1.8753 -2.6415 -0.0930
  562THF    H1312326   5.016   3.701   5.213 -1.8953  1.3850 -0.5934
  563THF     O112327   3.335   0.255   2.789  0.2689  0.7367 -0.2954
  563THF     C212328   3.362   0.183   2.911 -0.0154 -0.2142  0.8086
  563THF     C312329   3.366   0.177   2.682 -0.8844 -0.5248 -0.5516
  563THF     H412330   3.269   0.145   2.953  0.1071 -1.1600  0.2512
  563THF     H512331   3.407   0.269   2.961 -1.0557  0.9975 -0.2681
  563THF     H612332   3.288   0.108   2.650 -0.3185 -1.3245 -0.2384
  563THF     H712333   3.400   0.247   2.606  0.1572  1.1261  1.3132
  563THF     C812334   3.488   0.095   2.731  0.3898  0.1773  0.6350
  563THF     C912335   3.458   0.064   2.879  0.4159 -0.3955 -0.6587
  563THF    H1012336   3.581   0.149   2.716  2.4648 -3.5996 -1.7012
  563THF    H1112337   3.510   0.005   2.674 -0.2050 -0.0087  0.6902
  563THF    H1212338   3.407  -0.032   2.891 -1.0365  0.5478  1.3524
  563THF    H1312339   3.549   0.055   2.939  0.2230  0.4015 -0.2259
  564THF     O112340   0.962   1.163   0.597 -0.2911 -0.0284 -0.5768
  564THF     C212341   1.027   1.142   0.725 -0.8703 -0.3274 -0.1001
  564THF     C312342   1.030   1.271   0.528  0.3147  0.6892 -0.4492
  564THF     H412343   1.113   1.078   0.709 -0.2789  0.2423  0.7195
  564THF     H512344   0.966   1.102   0.806 -1.8943  1.6463  0.1831
  564THF     H612345   1.076   1.230   0.438  0.0563 -3.5197  1.0953
  564THF     H712346   0.961   1.349   0.496 -0.4398 -0.3324 -1.3529
  564THF     C812347   1.127   1.329   0.628 -0.3665 -0.0892  0.5644
  564THF     C912348   1.077   1.280   0.756  0.2720  0.0195  0.3458
  564THF    H1012349   1.131   1.437   0.613 -2.1631 -0.2141 -1.1896
  564THF    H1112350   1.226   1.284   0.619 -0.3353 -0.1392  1.1204
  564THF    H1212351   1.155   1.295   0.831  0.9000  2.1722 -0.6760
  564THF    H1312352   0.994   1.344   0.786  0.5458  0.3356  0.4411
  565THF     O112353   4.651   2.661   0.052 -0.2907 -0.1440 -0.0755
  565THF     C212354   4.584   2.598   0.164  0.2081 -0.1403 -0.1138
  565THF     C312355   4.682   2.797   0.071 -0.6397  0.0938 -0.1891
  565THF     H412356   4.649   2.534   0.224 -1.7076 -1.2472  0.8668
  565THF     H512357   4.500   2.534   0.139  0.0780 -0.5319  1.2323
  565THF     H612358   4.791   2.793   0.076 -0.4503  2.9552 -0.2111
  565THF     H712359   4.657   2.871  -0.005  2.2135  0.9507 -0.4275
  565THF     C812360   4.631   2.835   0.210 -0.2957 -0.5438 -0.6321
  565THF     C912361   4.533   2.719   0.247 -0.0951  0.3241 -0.0784
  565THF    H1012362   4.569   2.925   0.210  2.1162  1.2666 -1.8001
  565THF    H1112363   4.711   2.849   0.283  1.4889 -3.0098 -1.9570
  565THF    H1212364   4.539   2.680   0.348 -0.6082 -1.7349 -0.7955
  565THF    H1312365   4.431   2.739   0.215 -0.0907  0.1466 -0.2035
  566THF     O112366   3.704   5.477   2.086 -0.1046 -0.4645 -0.2075
  566THF     C212367   3.648   5.546   1.975 -0.4698  0.1181 -0.1606
  566THF     C312368   3.595   5.391   2.130  0.0460 -0.4573 -0.9566
  566THF     H412369   3.729   5.588   1.915  0.1935 -0.3097  0.4069
  566THF     H512370   3.581   5.620   2.018 -1.6718 -0.8174 -0.3938
  566THF     H612371   3.626   5.298   2.177  1.8709 -0.6740 -2.4544
  566THF     H712372   3.533   5.442   2.203  2.1705  1.3352 -0.2987
  566THF     C812373   3.514   5.353   2.004 -0.2864  0.1200  1.1139
  566THF     C912374   3.557   5.452   1.895 -0.3335 -0.3732 -0.7822
  566THF    H1012375   3.407   5.361   2.018 -0.5104 -0.8451  0.1249
  566THF    H1112376   3.535   5.248   1.981  1.7029  0.9708 -1.5405
  566THF    H1212377   3.611   5.402   1.814  1.7883 -0.1730  0.4395
  566THF    H1312378   3.482   5.513   1.845 -1.6584  0.1528  1.6726
  567THF     O112379   0.909   0.591   3.431 -0.0687  0.1836 -0.2525
  567THF     C212380   0.961   0.524   3.553  0.6301  0.6129 -0.5296
  567THF     C312381   0.912   0.476   3.342 -0.2380 -0.1299  0.6153
  567THF     H412382   0.946   0.599   3.630  1.3520  1.8357 -1.5420
  567THF     H512383   1.069   0.516   3.548  0.8140  2.4197 -0.0484
  567THF     H612384   0.864   0.502   3.248 -1.3786 -3.8433 -0.0181
  567THF     H712385   1.017   0.458   3.318 -0.3555 -2.2179  1.3753
  567THF     C812386   0.852   0.353   3.415  0.0859  0.1371  0.4134
  567THF     C912387   0.872   0.391   3.560 -0.2930  0.4742 -0.0954
  567THF    H1012388   0.903   0.264   3.379 -1.7738 -1.9234  2.4732
  567THF    H1112389   0.747   0.349   3.386  0.7798  1.4959 -2.6575
  567THF    H1212390   0.769   0.411   3.589 -1.1424 -1.0340 -1.8968
  567THF    H1312391   0.922   0.321   3.628 -0.4455  1.5406  1.1582
  568THF     O112392   5.065   2.222   3.059 -0.6873 -0.7998  0.4341
  568THF     C212393   5.113   2.204   2.931  0.7018 -0.4141  0.6025
  568THF     C312394   4.928   2.267   3.054  0.1703 -0.5036 -0.3889
  568THF     H412395   5.084   2.116   2.874 -2.6585 -0.1286  1.6621
  568THF     H512396   5.219   2.213   2.951  0.6992  1.1830  0.0879
  568THF     H612397   4.854   2.188   3.035 -4.1421  2.9238  0.5051
  568THF     H712398   4.910   2.319   3.148  1.6784  0.0394 -0.3850
  568THF     C812399   4.926   2.363   2.940  0.7616  0.6648 -0.1244
  568THF     C912400   5.060   2.332   2.863  0.7648 -0.4635  0.3258
  568THF    H1012401   4.935   2.462   2.984  3.7285  0.6452 -0.4608
  568THF    H1112402   4.840   2.344   2.876  0.9842 -1.8771  0.2073
  568THF    H1212403   5.049   2.311   2.756  1.0430  1.2936 -0.0845
  568THF    H1312404   5.135   2.410   2.875  0.5440 -0.2522  0.3527
  569THF     O112405   0.537   3.338   0.968 -0.6366  0.4112  0.2608
  569THF     C212406   0.663   3.374   0.923  0.4530  0.0785  0.4125
  569THF     C312407   0.544   3.211   1.023 -0.7178  0.9859 -0.2576
  569THF     H412408   0.667   3.479   0.895 -0.5591  0.0224  0.0127
  569THF     H512409   0.687   3.319   0.832 -2.1115  0.4166 -0.5499
  569THF     H612410   0.470   3.205   1.102  0.7410 -1.1959  1.0199
  569THF     H712411   0.515   3.136   0.949 -1.1889  0.9884 -0.0808
  569THF     C812412   0.685   3.197   1.077  0.3474 -0.0187 -0.9388
  569THF     C912413   0.747   3.333   1.042 -0.5101 -0.6219 -0.3771
  569THF    H1012414   0.732   3.105   1.041 -1.6406 -0.9639 -1.2265
  569THF    H1112415   0.693   3.190   1.185  2.6708  1.1167 -0.9805
  569THF    H1212416   0.741   3.394   1.132  3.7163 -0.6201  0.0708
  569THF    H1312417   0.855   3.328   1.030  0.0139 -0.9474  3.4217
  570THF     O112418   0.291   5.332   3.770 -1.0990  0.2493 -0.2474
  570THF     C212419   0.195   5.431   3.749  0.0805  0.2806 -0.0289
  570THF     C312420   0.250   5.249   3.886 -0.4496  0.1090  0.0029
  570THF     H412421   0.203   5.463   3.645  0.8166  1.5123  0.3807
  570THF     H512422   0.214   5.518   3.813  0.6920  0.3994 -0.3606
  570THF     H612423   0.316   5.163   3.894  0.6071  0.5209 -2.9557
  570THF     H712424   0.259   5.306   3.978  0.6070 -0.4282  0.2427
  570THF     C812425   0.105   5.221   3.848 -0.3531 -0.5183  0.3654
  570THF     C912426   0.066   5.357   3.785  0.2007  0.7183 -0.1458
  570THF    H1012427   0.037   5.203   3.931 -1.9699 -1.5156 -1.1143
  570THF    H1112428   0.091   5.133   3.785 -1.1741 -1.2236  1.5018
  570THF    H1212429   0.000   5.328   3.704 -0.4875 -3.2961  1.5819
  570THF    H1312430  -0.003   5.409   3.851 -0.5823 -1.6277  1.0227
  571THF     O112431   2.840   5.290   4.287 -0.3990  0.8337  0.0310
  571THF     C212432   2.758   5.195   4.217 -0.0103  0.0500  0.5190
  571THF     C312433   2.756   5.390   4.348 -0.4529  0.4487 -0.1165
  571THF     H412434   2.712   5.137   4.296  1.3057 -0.5338  0.8809
  571THF     H512435   2.802   5.128   4.143  2.7361 -0.2023  2.2244
  571THF     H612436   2.718   5.350   4.443  1.1005  0.1862  0.4199
  571THF     H712437   2.802   5.487   4.367 -0.3083 -0.2860  4.7763
  571THF     C812438   2.640   5.410   4.252  0.0923  0.7258 -0.3242
  571THF     C912439   2.647   5.290   4.164 -0.0799  0.3483 -0.8902
  571THF    H1012440   2.635   5.498   4.189 -3.4735 -0.3575 -1.8710
  571THF    H1112441   2.546   5.414   4.308  0.4323 -0.3298  0.3524
  571THF    H1212442   2.549   5.244   4.150 -0.3841  0.9295 -0.6763
  571THF    H1312443   2.667   5.328   4.064 -1.4275  0.7229 -1.0343
  572THF     O112444   2.830   3.229   2.395  0.6228 -0.0324  0.5315
  572THF     C212445   2.890   3.143   2.503  0.7345  0.2529  0.2835
  572THF     C312446   2.753   3.139   2.311 -0.2282  0.0608 -0.1191
  572THF     H412447   2.921   3.211   2.582 -0.0165 -0.3935  1.1448
  572THF     H512448   2.982   3.096   2.470  0.5184  1.1737 -1.8178
  572THF     H612449   2.691   3.190   2.238 -0.5262  0.6174  0.5104
  572THF     H712450   2.830   3.076   2.266  0.1973 -0.7819  1.7019
  572THF     C812451   2.677   3.067   2.423 -0.2729 -0.3566  0.6147
  572THF     C912452   2.779   3.032   2.532 -0.3886 -0.4806  1.0630
  572THF    H1012453   2.625   2.989   2.369 -0.0789 -0.9500  1.2780
  572THF    H1112454   2.603   3.137   2.462 -0.6142 -0.0084 -0.6235
  572THF    H1212455   2.736   3.038   2.633  1.3418  0.4183  1.7884
  572THF    H1312456   2.819   2.933   2.511 -1.1919 -0.9484  1.6549
  573THF     O112457   5.064   0.080   4.708  0.2666 -0.5596  0.5712
  573THF     C212458   5.189   0.013   4.691 -0.4421  0.0213  0.0352
  573THF     C312459   5.099   0.208   4.760  0.3565 -0.2873  0.1809
  573THF     H412460   5.177  -0.062   4.613  1.2797 -0.5727  0.3119
  573THF     H512461   5.226  -0.034   4.782  0.5206 -2.4190 -1.5234
  573THF     H612462   5.019   0.277   4.734  0.0401 -0.2742  1.1745
  573THF     H712463   5.103   0.189   4.867  1.3517 -0.5388  0.1075
  573THF     C812464   5.233   0.250   4.701  0.3179  0.0636  0.2120
  573THF     C912465   5.285   0.118   4.647  0.6272  0.0316  0.0113
  573THF    H1012466   5.300   0.289   4.778  0.5280  0.9832 -0.4136
  573THF    H1112467   5.223   0.329   4.627 -1.1486  0.3306  0.6557
  573THF    H1212468   5.286   0.127   4.538  2.6421 -0.8692 -0.0901
  573THF    H1312469   5.388   0.090   4.671 -0.1023 -2.2468  0.7603
  574THF     O112470   2.859   0.877   1.414  0.1542 -0.2536  0.1206
  574THF     C212471   2.999   0.851   1.385  0.4226 -0.0370  0.4498
  574THF     C312472   2.853   0.854   1.551 -0.6127  0.0067 -0.3283
  574THF     H412473   3.062   0.936   1.410  0.7939 -0.1753 -0.0254
  574THF     H512474   3.013   0.820   1.282 -0.4674  0.7106  0.0906
  574THF     H612475   2.850   0.954   1.596  1.5080  0.8267 -1.8518
  574THF     H712476   2.751   0.824   1.577 -0.7730  0.2353 -0.6903
  574THF     C812477   2.958   0.763   1.601  0.1890  0.0436 -0.5252
  574THF     C912478   3.033   0.732   1.477 -0.4390 -1.3421 -0.2244
  574THF    H1012479   2.916   0.672   1.644 -0.7906  0.8677  0.3574
  574THF    H1112480   3.025   0.806   1.677 -0.0031 -0.8328  0.1542
  574THF    H1212481   3.140   0.719   1.496  0.1978  1.0623 -1.7156
  574THF    H1312482   2.999   0.638   1.433 -0.3035 -0.6169 -1.9577
  575THF     O112483   2.875   1.106   1.076  0.1901 -0.2250  0.2766
  575THF     C212484   2.964   0.998   1.058  0.1244 -0.1033  0.6696
  575THF     C312485   2.927   1.210   1.001 -0.0550  1.0696 -0.1197
  575THF     H412486   2.916   0.905   1.085  1.8203 -1.5538 -1.0154
  575THF     H512487   3.059   1.013   1.109  0.2920  2.2361 -0.1843
  575THF     H612488   2.855   1.288   0.976 -1.9640 -0.3898  0.5002
  575THF     H712489   3.011   1.255   1.054 -0.6380  0.7325  1.1534
  575THF     C812490   2.968   1.151   0.865 -0.2309 -0.2448 -0.1686
  575THF     C912491   2.986   1.011   0.905 -0.2672 -0.3943  0.1210
  575THF    H1012492   3.058   1.198   0.824  1.2315 -0.8800  2.1011
  575THF    H1112493   2.881   1.164   0.802 -1.1055  0.5505  1.1593
  575THF    H1212494   2.912   0.947   0.856 -0.3060  0.1798 -0.5840
  575THF    H1312495   3.082   0.969   0.873 -0.9609 -2.1390  0.1796
  576THF     O112496   2.857   1.514   0.855  0.1414  0.7684 -0.0168
  576THF     C212497   2.754   1.574   0.779 -0.6939  0.5887 -0.3541
  576THF     C312498   2.977   1.510   0.783  0.2834 -0.3391  0.2001
  576THF     H412499   2.768   1.670   0.830  4.0328 -0.7910  1.5712
  576THF     H512500   2.660   1.527   0.807 -2.3900  3.1721 -1.3571
  576THF     H612501   3.049   1.568   0.841  0.2077  2.2023 -2.0816
  576THF     H712502   3.017   1.409   0.782 -0.3025 -0.5760 -1.4039
  576THF     C812503   2.955   1.568   0.645  0.4155 -0.3449  1.0712
  576THF     C912504   2.801   1.569   0.633  0.1136  0.0405 -0.5547
  576THF    H1012505   3.008   1.515   0.566  0.6739  0.8481  0.4165
  576THF    H1112506   2.986   1.672   0.634  0.7309 -0.6723 -2.4434
  576THF    H1212507   2.756   1.652   0.579 -2.8368 -0.7360  0.5188
  576THF    H1312508   2.768   1.480   0.580 -0.1261 -0.8829  1.0954
  577THF     O112509   3.322   0.633   3.150  0.2771  0.7235 -0.0925
  577THF     C212510   3.313   0.673   3.011  0.5132  0.7730  0.4508
  577THF     C312511   3.242   0.713   3.233  0.5704 -0.3159  0.1309
  577THF     H412512   3.302   0.582   2.952  1.7732 -0.3833  1.9379
  577THF     H512513   3.397   0.735   2.980 -0.0170  0.8986 -0.8372
  577THF     H612514   3.204   0.659   3.320  1.1855  0.0328  0.6300
  577THF     H712515   3.283   0.811   3.258  1.0747 -0.2035 -1.0709
  577THF     C812516   3.121   0.734   3.141  0.6628 -0.0079  0.1292
  577THF     C912517   3.185   0.758   3.003  0.2919  0.0268  0.3959
  577THF    H1012518   3.049   0.807   3.177  0.5894 -0.9202  1.9422
  577THF    H1112519   3.065   0.640   3.139  1.1168 -0.3254  1.3728
  577THF    H1212520   3.116   0.730   2.924 -0.8185  2.2900  0.4635
  577THF    H1312521   3.228   0.858   2.995  2.2880 -0.3915  3.9021
  578THF     O112522   4.939   2.314   3.429 -0.4376  0.3578  0.7165
  578THF     C212523   5.075   2.317   3.388  0.1333 -0.0872 -0.1204
  578THF     C312524   4.949   2.321   3.571 -0.0046 -0.1994 -0.4176
  578THF     H412525   5.081   2.339   3.281  0.8266  2.0707  0.3126
  578THF     H512526   5.125   2.222   3.405 -0.1443 -0.1462  0.3810
  578THF     H612527   4.853   2.355   3.612 -0.1004  1.7578 -2.1232
  578THF     H712528   4.981   2.223   3.608 -0.6971 -0.8157 -1.3946
  578THF     C812529   5.063   2.416   3.606 -0.7092  0.3154 -0.2367
  578THF     C912530   5.138   2.420   3.475  0.3720  0.5621 -0.1132
  578THF    H1012531   5.124   2.373   3.685 -1.3362  0.3806  0.2914
  578THF    H1112532   5.027   2.512   3.643  1.0547  1.1302 -0.5122
  578THF    H1212533   5.128   2.516   3.424 -0.4775 -0.2899 -1.5948
  578THF    H1312534   5.240   2.410   3.512 -0.2043  3.0208  2.4891
  579THF     O112535   0.461   1.622   4.731 -0.2129 -0.8173 -0.6655
  579THF     C212536   0.558   1.595   4.835  0.1915 -0.2756 -0.6268
  579THF     C312537   0.486   1.754   4.682  0.4021 -0.1714  0.7781
  579THF     H412538   0.588   1.491   4.846 -0.9089 -0.5649 -0.2237
  579THF     H512539   0.534   1.626   4.937  1.5381  0.1154 -0.4062
  579THF     H612540   0.442   1.755   4.582  0.4250  0.0094  0.7712
  579THF     H712541   0.449   1.837   4.740 -1.2856 -0.3296 -0.0246
  579THF     C812542   0.641   1.765   4.665  0.7250 -0.3339 -0.0076
  579THF     C912543   0.677   1.675   4.783  0.5184  0.4426 -0.2491
  579THF    H1012544   0.676   1.868   4.674 -0.8317  0.1541  0.8239
  579THF    H1112545   0.674   1.719   4.572  0.2786  1.6502 -1.2244
  579THF    H1212546   0.750   1.603   4.744 -2.4926 -3.3734  0.5650
  579THF    H1312547   0.720   1.741   4.859  0.4783  0.6942 -0.4437
  580THF     O112548   0.573   4.589   4.839  0.1020 -0.5962 -0.1352
  580THF     C212549   0.643   4.546   4.726 -0.1118 -0.2478  0.1985
  580THF     C312550   0.630   4.536   4.950 -0.4150  0.4286 -0.6907
  580THF     H412551   0.718   4.623   4.706  0.4248 -1.0951 -1.2447
  580THF     H512552   0.573   4.542   4.643  0.8068  1.4997 -0.7492
  580THF     H612553   0.710   4.602   4.984 -2.4748  2.8842 -0.3214
  580THF     H712554   0.563   4.524   5.035 -0.8414  1.0068 -0.9369
  580THF     C812555   0.665   4.387   4.910 -0.0419 -0.3102  0.1441
  580THF     C912556   0.700   4.406   4.761 -0.0015  0.0798  0.0366
  580THF    H1012557   0.576   4.325   4.915 -0.2124 -0.2831 -1.8198
  580THF    H1112558   0.749   4.345   4.966  1.7155 -0.1706 -2.2385
  580THF    H1212559   0.808   4.404   4.743 -0.3841 -0.0514 -2.6148
  580THF    H1312560   0.651   4.330   4.700 -0.1992 -1.1252  1.6375
  581THF     O112561   0.094   3.673   2.819 -0.8247  0.1867  0.3390
  581THF     C212562   0.213   3.670   2.900  0.0531 -0.4851  0.7776
  581THF     C312563   0.087   3.798   2.753  0.1203 -0.2317  0.1360
  581THF     H412564   0.261   3.573   2.893 -2.0794 -1.6091  0.8957
  581THF     H512565   0.187   3.684   3.005  3.4482 -0.9863  1.8058
  581THF     H612566   0.095   3.787   2.645 -0.0605 -0.1517  0.1147
  581THF     H712567  -0.004   3.851   2.782  1.2286  1.8885 -0.0684
  581THF     C812568   0.210   3.885   2.796  0.8730  0.1747  0.3170
  581THF     C912569   0.302   3.771   2.842  0.7571 -0.4473 -0.5592
  581THF    H1012570   0.172   3.946   2.879 -0.5961 -0.3142  0.0466
  581THF    H1112571   0.252   3.954   2.722 -0.8902 -0.9920 -1.8959
  581THF    H1212572   0.366   3.732   2.763  3.4364 -0.9568  1.7197
  581THF    H1312573   0.365   3.817   2.918  0.1132  2.4596 -1.6290
  582THF     O112574   3.047   0.228   2.412 -0.3949  0.2551  0.0439
  582THF     C212575   3.174   0.262   2.363  0.0380 -0.4817 -0.1805
  582THF     C312576   3.033   0.093   2.449 -0.4741  0.2291 -0.1807
  582THF     H412577   3.246   0.259   2.446 -1.5900 -1.7395  1.2701
  582THF     H512578   3.182   0.360   2.316 -1.5779 -0.8622 -1.3172
  582THF     H612579   3.071   0.081   2.550 -0.6258 -0.2601 -0.1773
  582THF     H712580   2.931   0.054   2.455 -0.0519 -0.7858  0.8927
  582THF     C812581   3.129   0.025   2.357 -0.3860 -0.2955 -0.3881
  582THF     C912582   3.189   0.134   2.277 -0.5518 -0.3215  0.3081
  582THF    H1012583   3.090  -0.061   2.301  1.6388 -0.0430 -2.3244
  582THF    H1112584   3.209  -0.020   2.415  0.0502 -0.1561 -0.8825
  582THF    H1212585   3.291   0.116   2.245 -1.0031 -2.2266 -0.1564
  582THF    H1312586   3.132   0.138   2.184 -0.5403 -0.4826  0.2940
  583THF     O112587   0.957   0.616   4.519  0.5181  0.2624 -0.2618
  583THF     C212588   1.043   0.550   4.425 -0.0361  0.2979 -0.4749
  583THF     C312589   0.954   0.760   4.490 -0.5272  0.6466  0.1024
  583THF     H412590   0.993   0.460   4.391  1.9601 -0.9203 -0.3102
  583THF     H512591   1.137   0.518   4.470 -1.3860  0.1928  2.4627
  583THF     H612592   0.854   0.799   4.510 -1.0936 -0.0038 -1.3091
  583THF     H712593   1.037   0.810   4.538  1.0972 -0.8581 -0.9914
  583THF     C812594   0.968   0.766   4.339 -0.1376  0.0609  0.5990
  583THF     C912595   1.056   0.648   4.306 -0.3393  1.1512 -0.2375
  583THF    H1012596   0.999   0.865   4.307 -2.2114  0.9717  1.2294
  583THF    H1112597   0.869   0.756   4.296 -0.4145 -1.6681  1.5343
  583THF    H1212598   1.018   0.596   4.218  2.9266 -0.5266 -0.8342
  583THF    H1312599   1.163   0.670   4.295  0.8204 -2.7225  1.4036
  584THF     O112600   1.250   1.125   2.896  0.1202  0.2593 -0.1520
  584THF     C212601   1.342   1.011   2.885  0.0221 -0.1319 -0.0688
  584THF     C312602   1.192   1.120   3.026 -0.9286 -0.0277 -0.1351
  584THF     H412603   1.437   1.024   2.936  0.1238 -1.9520  0.2945
  584THF     H512604   1.364   0.986   2.781  1.1940 -0.9788  0.3551
  584THF     H612605   1.264   1.159   3.098  0.6805  1.2410 -2.3096
  584THF     H712606   1.098   1.175   3.020 -0.8533 -0.0804 -3.0937
  584THF     C812607   1.173   0.972   3.045 -0.4140 -0.3455  0.7772
  584THF     C912608   1.269   0.898   2.947  0.1604  0.1131  0.3824
  584THF    H1012609   1.070   0.942   3.027 -0.1411  0.3581 -2.5876
  584THF    H1112610   1.185   0.944   3.150  0.0059 -0.5360  0.6814
  584THF    H1212611   1.336   0.826   2.995  0.7894  0.3659 -0.0993
  584THF    H1312612   1.197   0.857   2.877  0.1910 -0.6483  0.7798
  585THF     O112613   0.761   3.882   4.082 -0.6244  0.3134  0.6393
  585THF     C212614   0.776   3.961   3.967 -0.2109 -1.0958 -0.3941
  585THF     C312615   0.785   3.748   4.046  0.3749 -0.0451  0.3032
  585THF     H412616   0.874   4.009   3.958  0.1529 -1.3825  1.5773
  585THF     H512617   0.699   4.038   3.973  0.5460 -0.2987 -0.5922
  585THF     H612618   0.860   3.693   4.103  1.2644 -0.3782 -1.1309
  585THF     H712619   0.689   3.698   4.056  0.4067 -0.3140 -0.6029
  585THF     C812620   0.822   3.743   3.898  0.2148 -0.0976  0.0181
  585THF     C912621   0.757   3.870   3.853 -0.2874  0.5929 -0.4625
  585THF    H1012622   0.777   3.663   3.840  0.5437 -0.9004  0.8416
  585THF    H1112623   0.927   3.747   3.871  0.4636 -0.8319  0.8303
  585THF    H1212624   0.784   3.915   3.757 -2.5553  3.5730  0.1114
  585THF    H1312625   0.652   3.849   3.830 -0.5819  0.8660  0.5501
  586THF     O112626   4.440   0.567   1.146  0.5437 -0.0338 -0.1248
  586THF     C212627   4.422   0.430   1.090 -0.6696 -1.2660 -1.1599
  586THF     C312628   4.558   0.570   1.231  0.1298  1.3024 -0.3880
  586THF     H412629   4.462   0.436   0.989 -1.3570 -0.9388 -1.4128
  586THF     H512630   4.316   0.405   1.093 -0.7257 -1.0062 -0.8400
  586THF     H612631   4.628   0.648   1.201 -0.7984  1.8024 -1.3365
  586THF     H712632   4.520   0.579   1.333  2.9483  1.9152  0.7094
  586THF     C812633   4.608   0.422   1.212  0.0850 -0.0419 -0.2289
  586THF     C912634   4.494   0.328   1.182  0.5625 -0.3712  0.1665
  586THF    H1012635   4.671   0.392   1.296 -0.9847  0.7482  0.8865
  586THF    H1112636   4.671   0.407   1.124  3.0736 -4.5669  2.2785
  586THF    H1212637   4.512   0.233   1.132 -1.4213 -0.4079 -0.5726
  586THF    H1312638   4.448   0.309   1.279  1.6216 -0.2159  0.7092
  587THF     O112639   2.108   3.679   4.020 -0.4787 -0.5834  0.4228
  587THF     C212640   2.178   3.648   4.135  0.6464 -0.3943  0.4627
  587THF     C312641   2.011   3.772   4.048 -0.4194 -0.5213  0.1920
  587THF     H412642   2.247   3.730   4.155 -1.3717  1.5408 -0.1938
  587THF     H512643   2.227   3.550   4.129  1.1456 -0.2177  1.3808
  587THF     H612644   2.062   3.862   4.083  0.1299 -0.8609  0.2635
  587THF     H712645   1.954   3.797   3.959  0.6831 -0.3916 -0.4898
  587THF     C812646   1.942   3.697   4.161 -0.7390 -0.6972 -0.4928
  587THF     C912647   2.065   3.636   4.241  0.1185 -0.7930  0.5541
  587THF    H1012648   1.875   3.618   4.128  0.2204 -1.3398 -0.9584
  587THF    H1112649   1.886   3.769   4.220  1.6855  0.2198  0.8243
  587THF    H1212650   2.078   3.694   4.332 -1.0851 -0.3139  0.4373
  587THF    H1312651   2.052   3.533   4.274  1.1825 -0.9343  0.5632
  588THF     O112652   1.033   3.107   4.601  0.3798  0.3082 -0.2034
  588THF     C212653   1.076   3.175   4.717  0.0959  0.0784  0.4950
  588THF     C312654   1.022   3.198   4.499  0.0354 -0.1041  0.4944
  588THF     H412655   1.118   3.109   4.793 -2.5037 -0.8201  1.2312
  588THF     H512656   0.992   3.224   4.765  1.6363  1.1539  2.2024
  588THF     H612657   1.028   3.160   4.397  1.2856 -0.7816  0.8020
  588THF     H712658   0.927   3.250   4.509  0.5796  1.1688 -0.5270
  588THF     C812659   1.127   3.307   4.528  0.0404 -0.1851  0.5412
  588THF     C912660   1.181   3.279   4.667  0.4858  0.1252  0.2584
  588THF    H1012661   1.092   3.410   4.528 -0.0220 -0.1569 -1.8646
  588THF    H1112662   1.214   3.293   4.465 -0.3937 -0.5138  0.0039
  588THF    H1212663   1.281   3.236   4.671 -0.2047 -1.8712 -1.7454
  588THF    H1312664   1.179   3.367   4.730  1.3387  0.6565 -0.4369
  589THF     O112665   0.269   1.555   1.511 -0.4040 -0.1498 -0.8154
  589THF     C212666   0.183   1.464   1.590  0.1773  0.1643 -0.0449
  589THF     C312667   0.406   1.541   1.566  0.0784  0.5977  0.0529
  589THF     H412668   0.206   1.366   1.549  0.8363 -0.3583  1.5308
  589THF     H512669   0.078   1.493   1.582  0.1090 -0.5099 -2.4474
  589THF     H612670   0.467   1.456   1.535  2.7398  0.7941  4.0242
  589THF     H712671   0.467   1.628   1.541  0.5112 -0.3855 -2.7194
  589THF     C812672   0.373   1.528   1.716 -0.5691 -0.2710  0.1039
  589THF     C912673   0.238   1.465   1.732 -0.1455 -0.1994 -0.2376
  589THF    H1012674   0.387   1.626   1.762  0.0570  0.1885 -1.0200
  589THF    H1112675   0.448   1.461   1.758 -0.9831 -0.7106  0.1407
  589THF    H1212676   0.246   1.365   1.776  2.5975  0.7826  1.7963
  589THF    H1312677   0.176   1.535   1.788 -0.4434  0.2270 -1.0880
  590THF     O112678   0.415   2.917   1.148  0.2462  0.0050  0.0998
  590THF     C212679   0.498   2.806   1.179  0.1141  0.0276 -0.7718
  590THF     C312680   0.353   2.895   1.026  0.5291  0.9679 -0.3236
  590THF     H412681   0.519   2.821   1.285 -0.8136 -0.8686 -0.4420
  590THF     H512682   0.594   2.813   1.130  0.1226  1.7496 -0.5724
  590THF     H612683   0.274   2.967   1.003  0.6984  1.9205  1.7715
  590THF     H712684   0.420   2.909   0.941  0.2825 -0.4831 -0.7806
  590THF     C812685   0.307   2.757   1.048  0.2032  1.0523 -0.1153
  590THF     C912686   0.411   2.686   1.139  0.3263 -1.0235 -0.1412
  590THF    H1012687   0.297   2.711   0.949  2.2219 -0.6650  0.3961
  590THF    H1112688   0.216   2.755   1.107  0.4487 -1.0753  0.2786
  590THF    H1212689   0.356   2.648   1.226 -0.3030  2.6247  1.2389
  590THF    H1312690   0.465   2.602   1.095 -1.6053 -2.1401 -0.5080
  591THF     O112691   0.924   4.635   2.654  0.8579  0.3189  0.4038
  591THF     C212692   1.030   4.726   2.685 -0.0227  0.3603  0.4516
  591THF     C312693   0.895   4.561   2.777 -0.1604  0.1288 -0.5454
  591THF     H412694   1.027   4.810   2.615 -0.6055  0.5704  0.7224
  591THF     H512695   1.130   4.683   2.682 -0.1121  0.0291  1.8088
  591THF     H612696   0.794   4.520   2.787 -0.6011  1.1172 -0.8188
  591THF     H712697   0.960   4.474   2.770  2.4753  1.9595 -0.5345
  591THF     C812698   0.933   4.650   2.896 -0.3858  0.3863  0.8081
  591THF     C912699   0.996   4.767   2.828  0.8777  0.0065 -0.3707
  591THF    H1012700   1.007   4.596   2.954 -0.1287 -0.7281 -0.5110
  591THF    H1112701   0.854   4.681   2.965 -0.1159 -0.9751  1.7624
  591THF    H1212702   0.923   4.848   2.817  1.0975  0.2579 -0.0044
  591THF    H1312703   1.075   4.810   2.889  1.1466 -0.9612 -0.0267
  592THF     O112704   0.581   1.760   3.188  0.0517 -0.5450 -0.7902
  592THF     C212705   0.544   1.833   3.306 -0.1399  0.2671  0.5116
  592THF     C312706   0.647   1.843   3.095  0.2586  0.2788 -0.2989
  592THF     H412707   0.633   1.844   3.367  0.0515 -0.8859  0.4531
  592THF     H512708   0.466   1.780   3.361  1.0829  0.9229  3.0161
  592THF     H612709   0.752   1.849   3.124  0.6145 -0.9555 -1.2319
  592THF     H712710   0.642   1.798   2.996  0.2682 -0.8250  0.1892
  592THF     C812711   0.575   1.971   3.100  0.4027  0.1194 -0.4785
  592THF     C912712   0.512   1.964   3.238  0.5989  0.2795  0.5089
  592THF    H1012713   0.509   1.987   3.015  0.4958  2.4089 -0.1700
  592THF    H1112714   0.645   2.054   3.100 -1.5114  1.8145 -0.9084
  592THF    H1212715   0.541   2.053   3.293 -4.2690  1.8356  1.0609
  592THF    H1312716   0.403   1.966   3.227  0.6377 -0.2277  0.0025
  593THF     O112717   0.636   1.192   2.887  0.5300 -0.1559  0.0367
  593THF     C212718   0.767   1.182   2.942  0.5519  0.0091  0.0209
  593THF     C312719   0.614   1.096   2.791 -0.8999 -0.8303  0.1163
  593THF     H412720   0.756   1.154   3.047  0.5155  1.3987  0.3993
  593THF     H512721   0.827   1.272   2.937 -0.8131  0.9347 -0.2505
  593THF     H612722   0.586   1.004   2.842 -0.5518  0.0979  2.0754
  593THF     H712723   0.538   1.137   2.724 -1.3396  1.7232  2.0218
  593THF     C812724   0.753   1.080   2.736  0.1855 -0.5494  0.1642
  593THF     C912725   0.843   1.084   2.858  0.5926  0.1314 -0.2053
  593THF    H1012726   0.778   1.158   2.665  1.9497 -1.0955  0.1519
  593THF    H1112727   0.764   0.988   2.677 -1.2911 -0.1147 -0.8518
  593THF    H1212728   0.836   0.993   2.918 -0.6405  1.2584  1.4411
  593THF    H1312729   0.946   1.115   2.842  0.0923  1.1691 -1.6524
  594THF     O112730   2.901   1.938   2.134  0.7019 -0.0893 -0.0176
  594THF     C212731   2.938   1.943   2.272  0.2031 -0.5793 -0.5129
  594THF     C312732   3.009   1.978   2.055  0.0094  0.9002 -0.9493
  594THF     H412733   2.868   1.880   2.325 -2.1404  2.2160 -0.0078
  594THF     H512734   2.924   2.036   2.327  0.8594 -1.1497  0.6654
  594THF     H612735   2.995   1.956   1.949  0.4102 -3.5244 -0.2772
  594THF     H712736   3.030   2.084   2.070  0.3770  0.4915  2.0696
  594THF     C812737   3.108   1.884   2.125 -0.2401  0.2745 -0.6835
  594THF     C912738   3.076   1.907   2.270 -0.3510 -0.1503 -0.2691
  594THF    H1012739   3.207   1.922   2.098 -0.2641 -0.3978 -1.7926
  594THF    H1112740   3.103   1.778   2.100 -1.2308  0.3296 -0.7341
  594THF    H1212741   3.105   1.821   2.331 -2.3748 -1.5212 -1.1471
  594THF    H1312742   3.128   2.000   2.296 -1.7318  0.7809 -0.7328
  595THF     O112743   4.158   2.457   0.785 -0.0537  0.0212 -0.0121
  595THF     C212744   4.194   2.356   0.701  0.0889 -0.3687  0.8701
  595THF     C312745   4.030   2.492   0.734  0.3284 -0.5096 -0.0181
  595THF     H412746   4.141   2.267   0.733 -3.1343  1.8545  2.2276
  595THF     H512747   4.302   2.340   0.710  0.5451  2.0585  0.5769
  595THF     H612748   3.958   2.415   0.761  1.0325 -1.3496 -0.4535
  595THF     H712749   4.020   2.597   0.761  1.4156 -0.4836  0.3493
  595THF     C812750   4.047   2.497   0.586  0.2954  0.2924  0.1237
  595THF     C912751   4.170   2.415   0.565 -0.3625 -0.5757  0.2616
  595THF    H1012752   4.071   2.597   0.548  0.1891  0.1018 -0.4558
  595THF    H1112753   3.957   2.457   0.539 -0.1359  1.7916 -0.3872
  595THF    H1212754   4.166   2.334   0.492  1.4624 -0.6881  0.2459
  595THF    H1312755   4.243   2.489   0.533 -1.3840  0.9978  1.3857
  596THF     O112756   3.722   5.222   2.670  0.0334 -0.6046  0.2206
  596THF     C212757   3.760   5.097   2.609  1.0778  0.5150  0.3705
  596THF     C312758   3.782   5.326   2.597 -0.3018 -0.5574  0.5003
  596THF     H412759   3.674   5.067   2.549 -0.2458  0.5192  2.2146
  596THF     H512760   3.780   5.014   2.677 -0.4237 -1.3903 -1.3801
  596THF     H612761   3.703   5.389   2.556  1.3040 -0.1052 -2.1008
  596THF     H712762   3.828   5.405   2.656  1.3187 -0.3528 -0.9566
  596THF     C812763   3.873   5.267   2.484  0.0511 -0.4010 -0.0443
  596THF     C912764   3.891   5.118   2.524  0.4836  0.8819 -0.4253
  596THF    H1012765   3.962   5.327   2.464 -0.8236  0.5419 -1.3251
  596THF    H1112766   3.818   5.276   2.390  0.1487 -1.2889 -0.1950
  596THF    H1212767   3.894   5.039   2.449 -0.6858 -1.6831  2.0407
  596THF    H1312768   3.980   5.099   2.584 -0.8403  1.1344  1.7435
  597THF     O112769   2.757   4.647   4.473 -0.2949 -0.2229 -0.0823
  597THF     C212770   2.728   4.517   4.517 -0.3191 -0.0626  0.1280
  597THF     C312771   2.696   4.670   4.349 -0.2486  0.5701  0.0534
  597THF     H412772   2.620   4.503   4.525 -0.4464 -0.6816 -2.0905
  597THF     H512773   2.772   4.490   4.613 -1.1393 -0.2351  0.4697
  597THF     H612774   2.588   4.669   4.361 -0.3408 -3.2581  0.0139
  597THF     H712775   2.728   4.762   4.301  1.1448 -0.9480 -2.1071
  597THF     C812776   2.733   4.536   4.274  0.0513  0.2448 -0.5056
  597THF     C912777   2.781   4.446   4.392 -0.5378  0.2453 -0.5621
  597THF    H1012778   2.819   4.560   4.210 -0.8057 -0.8658 -2.1473
  597THF    H1112779   2.660   4.493   4.206  0.5338 -2.5643  0.6160
  597THF    H1212780   2.730   4.350   4.405 -2.0389  1.0046 -0.6568
  597THF    H1312781   2.890   4.435   4.395 -0.3049  2.3182  0.9354
  598THF     O112782   5.483   4.132   0.314 -0.4241 -0.0882  0.3593
  598THF     C212783   5.561   4.015   0.300 -0.5173 -0.2461  0.0435
  598THF     C312784   5.429   4.168   0.194 -0.1441  0.5420 -0.2588
  598THF     H412785   5.549   3.959   0.393 -0.1224  0.1347  0.3255
  598THF     H512786   5.665   4.036   0.277 -1.2702  0.7935 -2.8278
  598THF     H612787   5.343   4.231   0.216  1.0312  2.4729 -0.9891
  598THF     H712788   5.502   4.220   0.133 -1.6242  1.4689 -1.3009
  598THF     C812789   5.386   4.031   0.145  0.7449  0.0931 -0.4315
  598THF     C912790   5.493   3.937   0.187  0.3861  0.2601  0.0358
  598THF    H1012791   5.371   4.028   0.038  2.4706 -1.3777 -0.6847
  598THF    H1112792   5.295   4.004   0.199  1.2576 -2.4329 -0.7330
  598THF    H1212793   5.451   3.840   0.214 -1.5430  0.7384 -1.1024
  598THF    H1312794   5.560   3.916   0.103 -0.2080  0.3374 -0.4617
  599THF     O112795   0.177   1.443   3.057  0.7045  0.5362  0.5852
  599THF     C212796   0.186   1.534   3.173 -0.2559  0.0583  0.2577
  599THF     C312797   0.098   1.505   2.956 -0.1885 -0.4072  0.0002
  599THF     H412798   0.286   1.523   3.216  0.5044 -0.7295 -1.5938
  599THF     H512799   0.101   1.506   3.236 -2.4311  4.8042 -0.1716
  599THF     H612800   0.123   1.466   2.857  1.9227  0.0758  0.3032
  599THF     H712801  -0.004   1.487   2.990 -0.4933 -0.2599 -0.8168
  599THF     C812802   0.122   1.656   2.972  0.1552 -0.0471  1.0723
  599THF     C912803   0.166   1.675   3.119  0.2590 -0.6812  0.8509
  599THF    H1012804   0.033   1.717   2.957  1.1486  1.0879 -0.4574
  599THF    H1112805   0.202   1.683   2.903 -0.0709 -2.6245 -0.3029
  599THF    H1212806   0.265   1.720   3.119 -0.9377  2.1330  0.7587
  599THF    H1312807   0.096   1.736   3.177  0.2335 -0.2003  0.3203
  600THF     O112808   2.360   4.113   3.186 -0.2753 -0.5814  0.2408
  600THF     C212809   2.415   4.005   3.265 -0.2257 -0.2792  0.3866
  600THF     C312810   2.416   4.100   3.052  0.2679 -0.0356 -0.3373
  600THF     H412811   2.371   3.915   3.224 -0.5278  0.1564 -0.2531
  600THF     H512812   2.400   4.016   3.373 -1.2720  1.1756  0.1130
  600THF     H612813   2.353   4.029   2.998  0.8007 -1.5916  1.0127
  600THF     H712814   2.404   4.196   3.002 -2.7317 -0.4924 -0.6512
  600THF     C812815   2.563   4.060   3.083  0.2143  0.3941  0.4051
  600THF     C912816   2.563   4.009   3.227 -0.1993  0.3928 -0.0024
  600THF    H1012817   2.626   4.149   3.073 -0.3869  0.9421  1.3648
  600THF    H1112818   2.603   3.991   3.010 -3.0442  0.0822 -1.2533
  600THF    H1212819   2.605   3.909   3.234 -1.4296 -0.2418 -1.2138
  600THF    H1312820   2.619   4.071   3.297  1.1660 -0.8352  0.0229
  601THF     O112821   3.261   2.080   5.359 -0.0302  0.4225  1.0443
  601THF     C212822   3.249   2.119   5.219 -0.5396 -0.3803  1.1529
  601THF     C312823   3.392   2.021   5.368 -0.0275 -0.1409  0.1338
  601THF     H412824   3.223   2.224   5.204 -3.0633 -1.0494  0.3148
  601THF     H512825   3.163   2.064   5.180 -0.8634  0.7391  0.1947
  601THF     H612826   3.430   2.005   5.469 -0.5204 -0.8699  0.2168
  601THF     H712827   3.380   1.918   5.334 -0.7389 -0.5805  1.6424
  601THF     C812828   3.476   2.101   5.274 -0.2427  0.1235  0.1268
  601THF     C912829   3.394   2.105   5.147  0.5586 -0.2872 -0.3297
  601THF    H1012830   3.576   2.059   5.263 -0.2241  0.3764 -0.7379
  601THF    H1112831   3.484   2.203   5.314  0.9111 -0.1785  0.7091
  601THF    H1212832   3.409   2.182   5.072  0.0756  1.3170  1.1734
  601THF    H1312833   3.405   2.017   5.082  1.7533  0.1611 -0.7737
  602THF     O112834   3.240   1.049   2.511 -0.4721 -0.2456  0.2159
  602THF     C212835   3.159   1.150   2.563  0.0570 -0.1116  0.0096
  602THF     C312836   3.264   0.959   2.621  0.2011  0.0639 -0.0459
  602THF     H412837   3.062   1.108   2.588  0.5505 -0.4726  1.4237
  602THF     H512838   3.158   1.237   2.497 -1.9425 -2.0470 -2.7133
  602THF     H612839   3.175   0.906   2.656  0.4139 -0.0956  0.2573
  602THF     H712840   3.334   0.884   2.585  0.9509  1.3406 -1.3257
  602THF     C812841   3.308   1.061   2.728  0.3858 -0.2383  0.0101
  602THF     C912842   3.223   1.183   2.701  0.1598 -0.1368  0.5386
  602THF    H1012843   3.410   1.091   2.701  0.0232 -1.0115 -2.5735
  602THF    H1112844   3.299   1.021   2.829  0.8310 -0.7232 -0.1382
  602THF    H1212845   3.148   1.212   2.774 -1.1005  0.9638 -1.1256
  602THF    H1312846   3.289   1.268   2.683  1.1354 -1.5515 -3.9533
  603THF     O112847   4.777   0.307   1.649 -0.0669  0.6203  0.4380
  603THF     C212848   4.906   0.323   1.581  0.4055  0.2300 -0.2959
  603THF     C312849   4.757   0.407   1.752  0.7792  0.1818  0.2351
  603THF     H412850   4.894   0.353   1.476 -1.2228  0.8439  0.0376
  603THF     H512851   4.959   0.228   1.588 -1.1436 -0.6813 -0.3961
  603THF     H612852   4.653   0.439   1.763  1.4698  3.2568 -1.2709
  603THF     H712853   4.787   0.369   1.850 -0.2866  1.6309  1.1633
  603THF     C812854   4.850   0.511   1.705 -0.3159  0.6600 -0.5114
  603THF     C912855   4.974   0.441   1.650 -0.1163  1.0374 -0.1402
  603THF    H1012856   4.867   0.583   1.785 -0.0880  0.7890 -0.6750
  603THF    H1112857   4.797   0.560   1.624 -0.0753  0.7193 -0.6346
  603THF    H1212858   5.031   0.509   1.587  3.0027  0.2015  1.5683
  603THF    H1312859   5.037   0.411   1.733 -0.9737 -0.2688  0.0832
  604THF     O112860   3.351   0.615   4.916 -0.5960  0.3870  0.2889
  604THF     C212861   3.238   0.678   4.967 -0.3970  0.1037  0.0048
  604THF     C312862   3.324   0.594   4.778 -0.1273  0.2429 -0.3660
  604THF     H412863   3.236   0.786   4.953 -1.4595  0.3956  2.0371
  604THF     H512864   3.245   0.669   5.076  0.5668 -0.7742 -0.1037
  604THF     H612865   3.315   0.684   4.718 -1.0103 -0.9349 -2.0534
  604THF     H712866   3.397   0.533   4.725  0.5440  0.4117  0.3374
  604THF     C812867   3.189   0.521   4.795  0.1771 -0.3325 -0.0666
  604THF     C912868   3.117   0.609   4.903  0.0388  0.4465 -0.2282
  604THF    H1012869   3.213   0.422   4.833 -0.5684  0.7067  3.5769
  604THF    H1112870   3.138   0.518   4.699  2.5145  0.1823 -1.4025
  604THF    H1212871   3.037   0.676   4.869 -1.6543 -0.9601  0.8072
  604THF    H1312872   3.068   0.546   4.977  2.9546  0.8228  2.2004
  605THF     O112873   3.419   2.049   2.688  0.2907 -0.2904 -0.4957
  605THF     C212874   3.311   1.973   2.742  0.6546  0.1317  0.2923
  605THF     C312875   3.418   2.023   2.546  0.6584  0.3691  0.3807
  605THF     H412876   3.210   2.013   2.744  0.5088 -0.2293  0.2832
  605THF     H512877   3.343   1.951   2.844  2.7443 -0.2253 -0.3846
  605THF     H612878   3.326   2.065   2.505 -0.7811  0.7161  3.5776
  605THF     H712879   3.506   2.063   2.497 -0.6379  2.0608 -0.6523
  605THF     C812880   3.416   1.871   2.542 -0.3104  0.1188  0.1160
  605THF     C912881   3.331   1.839   2.665  0.2914  0.2272 -0.2555
  605THF    H1012882   3.517   1.831   2.554 -1.5528 -4.0564 -1.5276
  605THF    H1112883   3.380   1.818   2.454  1.1198  1.5301 -1.4009
  605THF    H1212884   3.239   1.784   2.640 -0.7020  2.1277 -0.9511
  605THF    H1312885   3.382   1.756   2.714  1.4283 -0.8664 -3.0567
  606THF     O112886   4.815   0.030   3.001  0.6231 -0.2242 -0.2634
  606THF     C212887   4.754  -0.043   2.894  0.2702 -0.7644  0.0641
  606THF     C312888   4.741  -0.014   3.118 -0.3072 -0.4632  1.1004
  606THF     H412889   4.788  -0.146   2.890  0.6249 -0.6032 -1.8400
  606THF     H512890   4.790   0.012   2.808 -0.8478  0.5764  0.4120
  606THF     H612891   4.790  -0.110   3.135  1.9635  0.7324  1.6736
  606THF     H712892   4.775   0.055   3.195  2.3254  0.7327 -0.9490
  606THF     C812893   4.593  -0.022   3.067 -0.2621  0.4563 -0.1068
  606THF     C912894   4.599  -0.049   2.916 -0.3892 -0.3865  0.2648
  606THF    H1012895   4.548   0.076   3.083 -0.4228  0.5320 -0.9610
  606THF    H1112896   4.538  -0.092   3.130  1.9452 -0.9204  0.4220
  606THF    H1212897   4.563  -0.145   2.878 -0.0199 -0.3691 -0.1336
  606THF    H1312898   4.554   0.033   2.860 -0.1573  0.0924  0.7753
  607THF     O112899   4.600   5.319   4.780  0.8332  0.3777 -0.1097
  607THF     C212900   4.628   5.423   4.690  0.4861 -0.3677  0.4955
  607THF     C312901   4.699   5.312   4.877  0.4817 -0.1646  0.4920
  607THF     H412902   4.581   5.514   4.728 -1.0188 -0.2314 -1.5224
  607THF     H512903   4.581   5.400   4.594 -0.5335  0.4699  0.7691
  607THF     H612904   4.661   5.362   4.967 -1.1195 -3.3495  1.7463
  607THF     H712905   4.721   5.210   4.909  1.9066 -0.1144 -0.2363
  607THF     C812906   4.827   5.373   4.810  0.3587 -0.2345 -0.4124
  607THF     C912907   4.783   5.435   4.681  0.1903  0.1818  0.0589
  607THF    H1012908   4.892   5.287   4.795 -1.7691 -1.7897 -1.1992
  607THF    H1112909   4.871   5.437   4.887 -2.1730 -2.6979  3.4084
  607THF    H1212910   4.815   5.539   4.673 -0.2209  0.2793 -0.3337
  607THF    H1312911   4.822   5.389   4.591 -2.3356  1.4022 -1.7686
  608THF     O112912   0.240   3.327   2.381 -0.7428  0.6466  0.4634
  608THF     C212913   0.109   3.366   2.345 -0.0299 -0.6808  0.0398
  608THF     C312914   0.338   3.381   2.288  0.4395  0.5025 -0.4403
  608THF     H412915   0.092   3.465   2.387 -1.2374 -0.9970  0.3326
  608THF     H512916   0.042   3.289   2.384  0.5501 -1.1927  0.0338
  608THF     H612917   0.360   3.486   2.306  0.4708  0.7808 -1.9634
  608THF     H712918   0.420   3.310   2.278 -0.3747 -0.3331 -1.3366
  608THF     C812919   0.257   3.382   2.158  0.3847  0.2402  0.0744
  608THF     C912920   0.110   3.359   2.196 -0.2435 -0.4088 -0.3394
  608THF    H1012921   0.296   3.305   2.091  0.8175  1.2885 -0.9140
  608THF    H1112922   0.256   3.471   2.095 -0.2799 -0.2369 -0.6169
  608THF    H1212923   0.046   3.436   2.154 -2.0312 -0.9763  1.2034
  608THF    H1312924   0.070   3.262   2.165 -0.7088  0.0964 -1.3502
  609THF     O112925   4.361   3.788   5.431 -0.0225  0.7380 -0.4545
  609THF     C212926   4.480   3.720   5.475  0.0470  0.9693  0.3506
  609THF     C312927   4.252   3.705   5.461 -0.3920  0.1661 -0.0030
  609THF     H412928   4.487   3.718   5.584  1.9316  0.3841  0.2519
  609THF     H512929   4.578   3.756   5.441  1.7275 -2.3433  1.3259
  609THF     H612930   4.229   3.692   5.567 -1.1830 -0.0201 -0.1952
  609THF     H712931   4.163   3.744   5.414 -1.3460 -1.1271  0.6495
  609THF     C812932   4.298   3.574   5.402  0.3634  0.0921 -0.2908
  609THF     C912933   4.448   3.583   5.410 -0.1844 -0.1701 -0.1696
  609THF    H1012934   4.279   3.553   5.297 -0.8794 -2.3060  0.3424
  609THF    H1112935   4.256   3.496   5.465 -0.3192  0.7845  0.1373
  609THF    H1212936   4.494   3.502   5.467  0.8607  1.1044  0.8608
  609THF    H1312937   4.481   3.579   5.306  0.3800  0.9295 -0.0494
  610THF     O112938   3.144   2.456   0.715 -0.2255  0.0622 -0.1344
  610THF     C212939   3.069   2.527   0.620 -0.3288  0.6725 -0.0029
  610THF     C312940   3.121   2.520   0.842  0.0484  1.0173  0.1337
  610THF     H412941   3.054   2.468   0.529 -0.7043  1.0414 -0.1821
  610THF     H512942   3.131   2.615   0.602 -2.3618  2.7029  2.2476
  610THF     H612943   3.159   2.470   0.931  0.5051  1.4245  0.1722
  610THF     H712944   3.184   2.610   0.838  1.3288  0.1094 -0.7111
  610THF     C812945   2.975   2.557   0.852  0.1693  0.1477 -0.2113
  610THF     C912946   2.941   2.560   0.696  0.0046  0.8073 -0.1580
  610THF    H1012947   2.963   2.642   0.919  0.8102 -1.0403  1.4659
  610THF    H1112948   2.907   2.485   0.896  1.6211 -1.4907 -0.5027
  610THF    H1212949   2.878   2.474   0.674  2.3597 -0.9445 -0.4595
  610THF    H1312950   2.888   2.651   0.669  0.4041  1.4276  1.0615
  611THF     O112951   1.751   2.601   0.382  0.6467 -0.2843 -0.6552
  611THF     C212952   1.777   2.581   0.523 -0.3794 -0.8344 -0.3597
  611THF     C312953   1.610   2.620   0.368 -0.5127  0.3585  0.0681
  611THF     H412954   1.881   2.611   0.534 -0.4999 -0.9910  1.4799
  611THF     H512955   1.763   2.478   0.558  1.8890 -1.2415 -0.4683
  611THF     H612956   1.593   2.671   0.273 -0.3996  0.8622  0.3128
  611THF     H712957   1.559   2.524   0.370 -2.3866  1.2260 -1.9765
  611THF     C812958   1.568   2.701   0.495 -0.2662  0.4383  0.4329
  611THF     C912959   1.676   2.663   0.596 -0.6465 -0.3404 -0.0994
  611THF    H1012960   1.468   2.673   0.527 -0.0799  0.3756  0.9725
  611THF    H1112961   1.562   2.808   0.480  0.2478  0.7854  2.4332
  611THF    H1212962   1.722   2.754   0.635  1.0530 -1.5923  0.9673
  611THF    H1312963   1.631   2.608   0.679  1.1041  0.4174  1.4265
  612THF     O112964   4.132   1.410   1.990  0.0161 -0.4765 -0.0702
  612THF     C212965   4.164   1.375   2.122 -0.1041  0.7937 -0.7955
  612THF     C312966   4.067   1.531   2.008  0.5983  0.3321 -0.0988
  612THF     H412967   4.235   1.292   2.123  1.3887  1.9847  1.4949
  612THF     H512968   4.072   1.341   2.168  0.7163  1.0411  1.1096
  612THF     H612969   4.069   1.593   1.919 -1.1246  0.7854  0.1479
  612THF     H712970   3.962   1.510   2.028  0.6669  0.1647  0.0952
  612THF     C812971   4.134   1.606   2.126  0.5308  0.5513  0.3643
  612THF     C912972   4.213   1.503   2.190 -0.2237  0.4117  0.4202
  612THF    H1012973   4.057   1.642   2.194  1.2902  0.6622  1.1974
  612THF    H1112974   4.199   1.689   2.097  2.0249 -0.8077 -0.3683
  612THF    H1212975   4.321   1.511   2.172 -0.1650  0.6148  0.8658
  612THF    H1312976   4.203   1.506   2.298 -3.0059  2.6207  0.2022
  613THF     O112977   4.016   2.755   0.180 -0.6886 -0.3197 -0.3337
  613THF     C212978   4.051   2.889   0.227 -0.2243  0.3130 -0.0445
  613THF     C312979   4.019   2.755   0.043 -0.7100 -0.5827  0.1812
  613THF     H412980   4.157   2.914   0.219 -0.3948  1.1578  0.2685
  613THF     H512981   4.021   2.905   0.330 -0.4603 -1.9080  0.2905
  613THF     H612982   4.116   2.755  -0.007 -1.4685  1.6834 -1.4726
  613THF     H712983   3.977   2.664  -0.001  0.6200 -0.0177 -2.5008
  613THF     C812984   3.959   2.885   0.000 -0.3818 -1.0112 -0.7639
  613THF     C912985   3.970   2.970   0.130  0.2131  0.0095  0.2775
  613THF    H1012986   3.852   2.867  -0.010 -0.4475 -1.5157  0.5390
  613THF    H1112987   3.980   2.934  -0.095 -0.9483  2.2158  0.6341
  613THF    H1212988   4.022   3.059   0.094  0.7824  0.3683  1.8937
  613THF    H1312989   3.872   2.989   0.172 -0.5928  0.6610 -1.7715
  614THF     O112990   1.354   1.786   5.087  1.1689 -0.6947  0.3209
  614THF     C212991   1.398   1.755   5.213 -0.1401 -0.5366 -0.0568
  614THF     C312992   1.337   1.927   5.092  0.3110 -0.1961  0.3058
  614THF     H412993   1.505   1.758   5.230 -0.3081  0.0807  0.9902
  614THF     H512994   1.368   1.652   5.231 -0.1364 -0.9262 -2.0861
  614THF     H612995   1.433   1.979   5.088 -0.2407  0.8450  0.2226
  614THF     H712996   1.268   1.959   5.015 -1.3434 -1.1866  1.3197
  614THF     C812997   1.285   1.961   5.230  1.0968 -0.9052  0.2297
  614THF     C912998   1.337   1.848   5.319 -0.7106  0.8069  0.3855
  614THF    H1012999   1.177   1.964   5.220  0.9883 -0.6588  1.2804
  614THF    H1113000   1.314   2.064   5.251  0.0649 -0.6142  0.2863
  614THF    H1213001   1.411   1.901   5.378 -0.3956 -0.3319  1.0357
  614THF    H1313002   1.269   1.804   5.392 -1.7745 -1.4597 -1.8321
  615THF     O113003   2.622   5.310   1.812 -0.0000 -0.4508 -0.4043
  615THF     C213004   2.653   5.339   1.672 -0.1484  1.0179  0.0800
  615THF     C313005   2.597   5.438   1.868  0.1086  0.8874 -0.0369
  615THF     H413006   2.649   5.248   1.613  0.6861  0.4974  0.7986
  615THF     H513007   2.755   5.378   1.672  0.7034 -1.0147 -1.2886
  615THF     H613008   2.535   5.422   1.957 -1.8212 -1.7245 -1.6873
  615THF     H713009   2.682   5.503   1.888 -1.3334  2.5634  0.9723
  615THF     C813010   2.515   5.509   1.755  0.5492 -0.0335 -0.0329
  615THF     C913011   2.562   5.447   1.624 -0.0620 -0.2761  0.3716
  615THF    H1013012   2.528   5.618   1.755 -2.1768  0.3616 -1.1101
  615THF    H1113013   2.410   5.487   1.771  0.2771 -0.5511 -2.1835
  615THF    H1213014   2.483   5.406   1.561 -0.6667  1.7045 -0.2435
  615THF    H1313015   2.625   5.512   1.565 -0.4676 -0.2919 -0.0825
  616THF     O113016   1.716   4.107   4.543 -0.4790 -0.1200 -0.3745
  616THF     C213017   1.747   4.234   4.572 -0.5661  0.1844  0.5354
  616THF     C313018   1.831   4.036   4.585  0.1197  0.5863  0.0457
  616THF     H413019   1.653   4.287   4.580  0.6133  2.0870  2.9794
  616THF     H513020   1.803   4.272   4.486  0.1832 -0.1811  0.8553
  616THF     H613021   1.817   3.932   4.615  1.6917 -0.2440 -1.8973
  616THF     H713022   1.905   4.032   4.505 -0.1461 -1.7854 -0.1342
  616THF     C813023   1.903   4.112   4.694 -0.4418  0.3454 -0.1068
  616THF     C913024   1.815   4.238   4.704 -0.2653  0.2371 -0.9994
  616THF    H1013025   2.004   4.134   4.662 -0.0256  0.3454  1.1254
  616THF    H1113026   1.912   4.048   4.782  0.7368 -0.6537 -0.9172
  616THF    H1213027   1.745   4.226   4.787  2.4509 -1.4312  1.2170
  616THF    H1313028   1.880   4.322   4.729  1.0914 -1.0069 -0.2119
  617THF     O113029   4.617   0.940   1.530 -0.0503 -0.0947  0.3826
  617THF     C213030   4.688   1.018   1.426 -0.2964  0.3057  0.4965
  617THF     C313031   4.670   0.809   1.537  0.3783  0.3095 -1.0009
  617THF     H413032   4.693   1.127   1.435  1.7921  0.1964  1.1052
  617THF     H513033   4.659   0.983   1.327 -0.1990 -1.4698  1.0504
  617THF     H613034   4.657   0.774   1.639 -1.6625  1.0593 -0.9445
  617THF     H713035   4.614   0.750   1.464  0.2807 -2.1522  0.9274
  617THF     C813036   4.814   0.822   1.499 -0.3707 -0.0901  0.4146
  617THF     C913037   4.828   0.969   1.455 -0.1358  0.1861 -0.3251
  617THF    H1013038   4.827   0.768   1.405 -3.8266  1.3530 -1.0583
  617THF    H1113039   4.888   0.794   1.574 -1.3700 -0.2369  1.3707
  617THF    H1213040   4.853   1.035   1.538 -0.9952  1.7593 -1.2528
  617THF    H1313041   4.897   0.982   1.371 -0.8445  0.4039 -0.8827
  618THF     O113042   4.387   1.046   4.649  0.0933 -0.1869 -0.5757
  618THF     C213043   4.488   1.069   4.742 -0.0009 -0.5494 -0.9671
  618THF     C313044   4.282   0.979   4.706  0.1795 -0.1363 -0.4700
  618THF     H413045   4.549   1.152   4.706 -1.0456  0.3368 -0.7722
  618THF     H513046   4.552   0.985   4.769 -0.5404 -0.7174 -0.1692
  618THF     H613047   4.192   0.976   4.643  0.3256 -0.8566 -0.6479
  618THF     H713048   4.309   0.877   4.731  1.7688  0.7937  1.8533
  618THF     C813049   4.260   1.063   4.832  0.3503 -0.2358  0.2094
  618THF     C913050   4.403   1.110   4.869 -0.1139 -0.0419  0.5190
  618THF    H1013051   4.218   1.006   4.916  0.0617 -0.8278 -0.3296
  618THF    H1113052   4.197   1.148   4.807  1.0316  0.5409  1.0767
  618THF    H1213053   4.406   1.209   4.915  2.6499 -0.6542  1.8641
  618THF    H1313054   4.453   1.049   4.944  1.1587  1.2844  0.7971
  619THF     O113055   5.303   2.237   3.785  0.0133 -0.1223 -0.5665
  619THF     C213056   5.374   2.152   3.696  0.5945  0.5096  0.1185
  619THF     C313057   5.273   2.158   3.897  0.0149  0.0597 -0.2341
  619THF     H413058   5.465   2.134   3.753 -1.3209  1.3493  3.7476
  619THF     H513059   5.398   2.200   3.601 -1.5713  0.6505 -0.3925
  619THF     H613060   5.362   2.116   3.944 -0.6470  0.4333  1.4292
  619THF     H713061   5.209   2.210   3.969 -1.0154 -1.3471 -0.0858
  619THF     C813062   5.207   2.035   3.834  0.4801 -0.0438 -0.4470
  619THF     C913063   5.279   2.027   3.701  0.1635  0.5085  0.1741
  619THF    H1013064   5.099   2.044   3.823  0.6774  0.3670 -2.2482
  619THF    H1113065   5.234   1.954   3.901 -1.2423  1.0062  1.6664
  619THF    H1213066   5.339   1.936   3.697  0.3594  0.6720 -0.6241
  619THF    H1313067   5.205   2.034   3.622  0.8586  2.6147 -0.3399
  620THF     O113068   1.684   5.293   2.500 -1.0184  0.4278 -0.8207
  620THF     C213069   1.721   5.232   2.631 -0.8066 -0.3727 -0.0098
  620THF     C313070   1.756   5.411   2.476 -0.0727  0.6841 -0.5456
  620THF     H413071   1.803   5.161   2.619 -0.1105  0.2294  0.9409
  620THF     H513072   1.635   5.198   2.689 -0.6656  0.9239  1.0187
  620THF     H613073   1.807   5.409   2.380 -0.9350  1.4507 -1.0382
  620THF     H713074   1.684   5.491   2.460 -0.6519  0.3293  0.2036
  620THF     C813075   1.836   5.444   2.605 -0.1095 -0.0070  0.6393
  620THF     C913076   1.778   5.349   2.708  0.3968  0.7499 -0.0907
  620THF    H1013077   1.824   5.547   2.638 -1.4624 -0.8600  3.0283
  620THF    H1113078   1.941   5.424   2.583 -0.4341 -0.5101 -0.5189
  620THF    H1213079   1.841   5.306   2.786  0.1188 -1.9233 -1.2185
  620THF    H1313080   1.704   5.396   2.772 -0.9744 -0.3298 -0.8403
  621THF     O113081   2.129   4.607   3.558 -0.6357  0.0687  0.0420
  621THF     C213082   2.019   4.655   3.487  0.0141  0.5369  0.4648
  621THF     C313083   2.189   4.717   3.628 -0.9357  0.5048  0.0259
  621THF     H413084   1.930   4.618   3.537 -1.8084 -1.8303 -3.9131
  621THF     H513085   2.019   4.611   3.387 -1.6968  1.1130  0.1767
  621THF     H613086   2.137   4.730   3.722  2.1779 -0.7377  2.0990
  621THF     H713087   2.294   4.706   3.655 -1.0026 -0.9660 -0.1958
  621THF     C813088   2.167   4.835   3.531 -1.0163  0.1678 -0.6648
  621THF     C913089   2.026   4.810   3.486  0.3691 -0.4770  0.0874
  621THF    H1013090   2.242   4.849   3.453  0.3805 -0.5048  0.5306
  621THF    H1113091   2.179   4.928   3.587 -1.4590  0.0267 -0.3335
  621THF    H1213092   1.965   4.849   3.567  0.3029 -1.9863  0.7946
  621THF    H1313093   2.004   4.856   3.389 -0.6984 -0.2768  0.4180
  622THF     O113094   4.749   1.274   1.933 -0.1632 -0.0725  0.3751
  622THF     C213095   4.791   1.369   1.836 -0.1285 -0.6832  0.2702
  622THF     C313096   4.630   1.220   1.872 -0.2348 -0.7806 -0.2352
  622THF     H413097   4.900   1.380   1.837 -0.2562  1.4744 -1.5494
  622THF     H513098   4.735   1.458   1.861 -1.3669 -1.1670 -0.6718
  622THF     H613099   4.609   1.125   1.922 -1.1918  1.2878  3.6796
  622THF     H713100   4.548   1.285   1.904  1.4887  1.1039  0.5901
  622THF     C813101   4.643   1.219   1.724 -0.8069  0.8869  0.4066
  622THF     C913102   4.755   1.317   1.699 -0.1427 -0.4987 -0.2245
  622THF    H1013103   4.550   1.247   1.676 -0.1614 -0.3395 -1.6918
  622THF    H1113104   4.665   1.119   1.687 -0.5476  0.8222  0.7262
  622THF    H1213105   4.829   1.258   1.646  1.3601  1.6536 -0.6566
  622THF    H1313106   4.731   1.403   1.636  0.8071  0.8363  1.1780
  623THF     O113107   3.210   3.492   5.206  0.1815  0.1080 -0.7145
  623THF     C213108   3.232   3.526   5.346  0.4012  0.0023 -0.1923
  623THF     C313109   3.087   3.557   5.167  0.5706  0.7480  0.5077
  623THF     H413110   3.339   3.508   5.362  0.5825 -0.4052 -1.6663
  623THF     H513111   3.162   3.470   5.408 -0.3588  0.0725 -0.9763
  623THF     H613112   3.076   3.562   5.058 -1.9841 -0.6646  0.6188
  623THF     H713113   2.998   3.506   5.204  1.2667 -1.8316 -1.0780
  623THF     C813114   3.100   3.690   5.234 -0.2434 -0.2396  0.3286
  623THF     C913115   3.204   3.681   5.342 -0.7854  0.8412  0.2579
  623THF    H1013116   3.003   3.712   5.279 -0.2429  0.0482  0.1950
  623THF    H1113117   3.123   3.768   5.161  1.6744 -1.0688 -0.0228
  623THF    H1213118   3.302   3.718   5.314 -1.1198 -0.7480 -3.5592
  623THF    H1313119   3.169   3.723   5.436 -2.1383  0.6827 -0.1522
  624THF     O113120   0.996   3.851   1.111  0.3496  0.0307  0.1126
  624THF     C213121   0.942   3.758   1.026  0.4637 -0.5055 -0.5906
  624THF     C313122   1.053   3.774   1.215 -0.2393 -0.5574 -0.1389
  624THF     H413123   0.914   3.801   0.930  0.1682 -1.3853 -0.9121
  624THF     H513124   0.849   3.721   1.068  0.7491 -0.6433 -0.0723
  624THF     H613125   1.156   3.802   1.238 -0.2834 -0.4457 -0.0822
  624THF     H713126   0.995   3.778   1.307 -1.6626  2.2444 -1.0598
  624THF     C813127   1.070   3.626   1.169 -0.1654 -0.1919 -0.3418
  624THF     C913128   1.048   3.648   1.023  0.1984 -0.5947  0.2662
  624THF    H1013129   0.994   3.572   1.226  2.7928 -2.4294  1.8203
  624THF    H1113130   1.170   3.594   1.197 -0.6751 -2.2973 -0.7345
  624THF    H1213131   1.139   3.671   0.968  0.1065  0.7034  0.6121
  624THF    H1313132   1.009   3.557   0.979  3.1514 -1.4722 -0.7874
  625THF     O113133   5.410   3.180   2.803  0.0358  0.0326  0.4236
  625THF     C213134   5.351   3.153   2.926  0.1304  0.2823 -0.4316
  625THF     C313135   5.459   3.315   2.803 -0.1901  0.8568  1.0221
  625THF     H413136   5.425   3.141   3.005 -0.2909  0.0804 -0.0616
  625THF     H513137   5.288   3.066   2.910 -0.9047  1.5332 -4.6190
  625THF     H613138   5.561   3.314   2.843 -0.1238 -0.5611  0.8765
  625THF     H713139   5.456   3.367   2.707  1.5511  1.7097  1.3889
  625THF     C813140   5.357   3.384   2.894 -0.5266 -0.5549 -0.5522
  625THF     C913141   5.263   3.276   2.945  0.5970  0.0133  0.2660
  625THF    H1013142   5.301   3.454   2.832 -0.2842  0.1444 -0.0051
  625THF    H1113143   5.414   3.445   2.964  0.8961 -2.1702 -0.2164
  625THF    H1213144   5.228   3.296   3.047 -1.0947 -1.0473 -0.0787
  625THF    H1313145   5.173   3.267   2.884 -0.6171  2.8096  1.4358
  626THF     O113146   2.818   2.039   3.823  0.1741  0.1807  0.5442
  626THF     C213147   2.857   1.920   3.764  0.2258  0.0675  0.9236
  626THF     C313148   2.902   2.152   3.789 -0.7669 -0.3323 -0.3577
  626THF     H413149   2.770   1.860   3.736  0.2875  0.5547 -0.3767
  626THF     H513150   2.934   1.865   3.819 -1.6116 -1.1632  2.4305
  626THF     H613151   2.849   2.244   3.764 -0.1289 -0.1083 -0.8894
  626THF     H713152   2.973   2.180   3.867 -0.4956 -0.0571 -0.7067
  626THF     C813153   2.973   2.101   3.660  0.7760  1.0585 -0.8543
  626THF     C913154   2.908   1.970   3.627  0.3503  0.0506 -0.0814
  626THF    H1013155   3.076   2.081   3.688 -0.1779 -0.5977  1.9478
  626THF    H1113156   2.970   2.175   3.580 -0.8937 -0.4399 -2.2697
  626THF    H1213157   2.831   1.982   3.551  0.3153 -0.6304 -0.1666
  626THF    H1313158   2.985   1.901   3.593  2.0884  1.7006  0.3994
  627THF     O113159   5.216   5.331   2.084 -0.4423  0.2524 -0.3828
  627THF     C213160   5.194   5.211   2.161 -0.4581 -0.1873 -0.2191
  627THF     C313161   5.090   5.378   2.038 -0.4920  0.1451 -0.2780
  627THF     H413162   5.166   5.239   2.263  0.9930  0.7275 -0.0281
  627THF     H513163   5.286   5.152   2.153 -0.6038 -0.3176 -0.9717
  627THF     H613164   5.044   5.430   2.123  2.8504  1.0680  1.1259
  627THF     H713165   5.094   5.458   1.964 -0.1148 -0.0605 -0.4820
  627THF     C813166   5.023   5.253   1.992  0.0275 -0.8653  0.0348
  627THF     C913167   5.091   5.147   2.074 -0.5036  0.0922  0.0553
  627THF    H1013168   5.033   5.220   1.888  0.6229 -1.1831  0.1852
  627THF    H1113169   4.918   5.274   2.011  0.4418  2.3429 -0.6905
  627THF    H1213170   5.023   5.074   2.119 -1.4624 -0.0385 -1.5320
  627THF    H1313171   5.150   5.096   1.998  0.1034  2.2360 -0.9866
  628THF     O113172   4.295   0.025   1.311 -0.1370 -0.5557 -0.0264
  628THF     C213173   4.204  -0.056   1.389  0.0617 -0.0546  0.6506
  628THF     C313174   4.213   0.106   1.226 -0.0071 -0.3446  0.2240
  628THF     H413175   4.151  -0.011   1.474 -0.9477 -1.0968  0.5901
  628THF     H513176   4.250  -0.150   1.419 -0.3641 -0.5676 -0.3014
  628THF     H613177   4.219   0.211   1.255 -3.0475  0.3719 -1.3506
  628THF     H713178   4.256   0.094   1.127  0.7250  1.5384  0.2829
  628THF     C813179   4.077   0.049   1.223  0.2038  0.6309  0.9866
  628THF     C913180   4.094  -0.093   1.288  0.4646 -0.3945 -0.0048
  628THF    H1013181   4.010   0.040   1.137 -0.4823 -0.8201  1.6252
  628THF    H1113182   4.013   0.104   1.291  0.5576  2.8239 -0.3620
  628THF    H1213183   4.006  -0.140   1.331  0.7638 -2.9412 -1.9182
  628THF    H1313184   4.125  -0.164   1.211 -0.1342 -1.0771  0.3653
  629THF     O113185   1.328   1.354   4.019  0.3190 -0.3274  0.1788
  629THF     C213186   1.414   1.302   4.123 -0.6045  0.3057  0.0938
  629THF     C313187   1.286   1.246   3.940 -0.2785  0.7277  0.0011
  629THF     H413188   1.387   1.339   4.221 -1.6470 -0.0953 -0.0306
  629THF     H513189   1.519   1.322   4.099 -0.6679  0.6999  0.1455
  629THF     H613190   1.196   1.271   3.885 -0.6121 -1.3406 -0.4838
  629THF     H713191   1.350   1.214   3.857  0.1103 -0.2162  0.6370
  629THF     C813192   1.278   1.133   4.042  0.2758 -0.1356  0.0722
  629THF     C913193   1.404   1.155   4.127  0.6246 -0.0774 -0.5365
  629THF    H1013194   1.267   1.035   3.995 -2.3901  0.7963 -1.4871
  629THF    H1113195   1.183   1.140   4.095  1.6171 -1.4993  2.8859
  629THF    H1213196   1.394   1.128   4.233  0.8139  0.9140 -0.2614
  629THF    H1313197   1.490   1.100   4.088  3.1507  0.1127  3.9459
  630THF     O113198   4.530   4.085   1.241  0.0009 -0.2831  0.4229
  630THF     C213199   4.424   4.116   1.343  0.4033 -0.4502  0.5706
  630THF     C313200   4.469   4.071   1.108 -0.3602 -0.3809  0.1972
  630THF     H413201   4.475   4.169   1.424 -0.1063  1.5337 -0.3628
  630THF     H513202   4.382   4.022   1.378 -2.3112  0.4162 -0.1500
  630THF     H613203   4.528   4.105   1.023 -0.9158 -1.7260 -0.7666
  630THF     H713204   4.452   3.965   1.091  0.6284 -0.5669  0.3150
  630THF     C813205   4.338   4.148   1.119  0.3585 -0.5663 -0.1025
  630THF     C913206   4.330   4.207   1.263 -0.3495  1.0099  0.3505
  630THF    H1013207   4.258   4.074   1.113 -0.2272  0.0272  0.2448
  630THF    H1113208   4.313   4.221   1.041  1.3993  1.2160  1.1501
  630THF    H1213209   4.375   4.305   1.249  2.4837 -0.2623 -0.1685
  630THF    H1313210   4.226   4.198   1.293 -1.6259  0.1063 -3.7527
  631THF     O113211   3.341   2.388   1.122  0.8572  0.0418  0.7162
  631THF     C213212   3.312   2.523   1.152  0.1788  0.2154 -0.7764
  631THF     C313213   3.483   2.371   1.120 -0.5029 -0.2194  0.5645
  631THF     H413214   3.214   2.528   1.198  0.2451  1.1228 -0.7338
  631THF     H513215   3.307   2.583   1.061  0.0230  1.0904 -0.1950
  631THF     H613216   3.510   2.274   1.161 -1.6936  0.1028  2.2392
  631THF     H713217   3.519   2.374   1.017  0.3468  2.3851  0.8463
  631THF     C813218   3.540   2.497   1.188 -0.4077 -0.3760  0.0255
  631THF     C913219   3.421   2.567   1.239  0.2498 -0.0536  0.2208
  631THF    H1013220   3.596   2.562   1.120  0.2737 -1.8203 -0.8573
  631THF    H1113221   3.608   2.460   1.265  2.4869 -0.7950 -2.5207
  631THF    H1213222   3.404   2.529   1.340 -0.4718  2.0955  0.9632
  631THF    H1313223   3.441   2.674   1.242  0.4034  0.0368 -2.1193
  632THF     O113224   1.257   4.370   5.092 -0.6521 -0.0865 -0.1663
  632THF     C213225   1.357   4.272   5.113 -0.8188  0.0253  0.2440
  632THF     C313226   1.281   4.432   4.966  0.2131  0.3854  0.1311
  632THF     H413227   1.312   4.186   5.162 -1.0858 -1.8957 -3.0440
  632THF     H513228   1.427   4.313   5.187 -0.5003  1.2441 -0.6973
  632THF     H613229   1.193   4.416   4.905 -1.5319  2.0436  2.0416
  632THF     H713230   1.291   4.540   4.971  1.1037  0.3000  0.4394
  632THF     C813231   1.417   4.372   4.915  0.7404  0.2628 -0.4069
  632THF     C913232   1.420   4.237   4.979  0.6454  0.1923  0.2092
  632THF    H1013233   1.499   4.435   4.949  1.3769 -0.4421 -0.6203
  632THF    H1113234   1.425   4.376   4.806  0.6288  0.9577 -0.3940
  632THF    H1213235   1.352   4.170   4.926  0.1971  1.4254 -0.8246
  632THF    H1313236   1.519   4.191   4.982  0.1334 -0.9840 -0.3049
  633THF     O113237   0.987   5.327   4.494  0.2838 -0.7982  0.0807
  633THF     C213238   0.966   5.206   4.435  0.9903  0.3434 -0.7843
  633THF     C313239   1.070   5.308   4.606  0.0307 -0.1560  0.1864
  633THF     H413240   1.055   5.179   4.378 -0.7449 -1.5622 -2.7587
  633THF     H513241   0.879   5.188   4.371  1.8714  0.2853 -2.0004
  633THF     H613242   1.158   5.372   4.598 -0.2244  0.0007 -3.5012
  633THF     H713243   1.013   5.343   4.691  1.3213 -0.8530  1.3736
  633THF     C813244   1.109   5.162   4.611 -0.1692  0.0236 -0.5326
  633THF     C913245   0.981   5.106   4.553 -0.6187 -0.0092  0.3487
  633THF    H1013246   1.124   5.133   4.715 -2.1331 -0.0861 -0.2489
  633THF    H1113247   1.203   5.141   4.559 -0.2370 -1.3318 -0.1509
  633THF    H1213248   0.995   5.006   4.512 -0.3434 -0.0949  0.6516
  633THF    H1313249   0.896   5.115   4.621 -0.9333 -2.3699  0.3440
  634THF     O113250   0.931   2.758   1.552  0.3786  0.1132 -0.1427
  634THF     C213251   1.056   2.711   1.594  0.4140 -0.0680  0.7131
  634THF     C313252   0.919   2.890   1.615  0.5749 -0.3045 -0.2681
  634THF     H413253   1.084   2.624   1.535 -0.4503 -0.9651  1.5875
  634THF     H513254   1.064   2.690   1.701  1.0449  0.7971  0.8461
  634THF     H613255   0.841   2.940   1.558  0.3088  0.9058  1.1031
  634THF     H713256   0.900   2.884   1.722 -1.5150  0.8206 -0.5105
  634THF     C813257   1.061   2.953   1.597 -0.1038  0.5742  0.1710
  634THF     C913258   1.147   2.832   1.563  0.5074 -0.0066 -0.2226
  634THF    H1013259   1.092   3.010   1.685 -0.3387 -1.5965  1.7558
  634THF    H1113260   1.053   3.016   1.509 -1.3777 -1.2890 -1.1157
  634THF    H1213261   1.189   2.831   1.462  1.2876 -0.8707  0.0931
  634THF    H1313262   1.235   2.844   1.627 -0.1079  2.0050  0.3206
  635THF     O113263   2.117   0.276   4.032 -0.1537  0.5542  0.0715
  635THF     C213264   2.011   0.367   4.054 -0.0832 -0.5264 -0.0628
  635THF     C313265   2.060   0.147   4.025 -0.3200 -0.4840  0.4246
  635THF     H413266   1.964   0.398   3.961  1.4348 -0.1023 -0.7261
  635THF     H513267   2.049   0.458   4.101 -2.1040  0.8711 -1.0285
  635THF     H613268   2.030   0.119   3.924 -0.7864  0.9660  0.1439
  635THF     H713269   2.124   0.074   4.075 -1.8806 -0.6872  2.2574
  635THF     C813270   1.934   0.154   4.109  0.0265  0.1109  0.2654
  635THF     C913271   1.911   0.301   4.144  0.5354 -0.3204 -0.4172
  635THF    H1013272   1.943   0.097   4.202  0.9385 -1.6653 -0.8593
  635THF    H1113273   1.847   0.109   4.060 -0.6056  1.8630 -0.2778
  635THF    H1213274   1.810   0.331   4.115  1.2263 -0.7641 -3.7770
  635THF    H1313275   1.940   0.321   4.247 -0.8780  1.8091 -0.3798
  636THF     O113276   0.059   3.440   3.800 -0.3721 -0.2489 -0.0600
  636THF     C213277  -0.074   3.410   3.833  0.0759 -0.3947  0.5546
  636THF     C313278   0.118   3.315   3.752  0.3378  0.2939  0.3123
  636THF     H413279  -0.136   3.427   3.745  0.8182  1.9562  0.4131
  636THF     H513280  -0.114   3.476   3.910  1.4706  2.8988 -1.3325
  636THF     H613281   0.143   3.317   3.646  1.7481 -2.1125  0.5244
  636THF     H713282   0.207   3.313   3.815 -0.5789 -1.8023  1.6659
  636THF     C813283   0.023   3.192   3.793 -0.2610 -0.6398 -0.5477
  636THF     C913284  -0.079   3.261   3.877  0.0751  0.0677 -0.5969
  636THF    H1013285   0.077   3.112   3.844 -1.5524 -0.0682  1.8586
  636THF    H1113286  -0.019   3.156   3.699  0.8519 -0.7371 -1.0276
  636THF    H1213287  -0.180   3.221   3.872  0.6857 -1.7233  0.2638
  636THF    H1313288  -0.052   3.250   3.982 -2.2437 -0.0829  0.0163
  637THF     O113289   3.584   0.745   0.071 -0.3517 -0.2033 -0.1537
  637THF     C213290   3.607   0.736  -0.069  0.0671  0.4233 -0.4432
  637THF     C313291   3.595   0.882   0.107 -0.1128 -0.1916 -0.2491
  637THF     H413292   3.522   0.684  -0.113 -0.6624  1.6603 -0.5152
  637THF     H513293   3.695   0.675  -0.089  0.4803  0.6168  0.6772
  637THF     H613294   3.528   0.904   0.190  0.8038 -3.0137  1.3596
  637THF     H713295   3.694   0.901   0.150  0.3365 -2.0321 -0.3628
  637THF     C813296   3.586   0.967  -0.010  1.0935  0.2194 -0.4408
  637THF     C913297   3.631   0.875  -0.119 -0.0962  0.0889 -0.1553
  637THF    H1013298   3.640   1.062  -0.009 -1.7974  1.9940  1.2621
  637THF    H1113299   3.482   0.999  -0.011  1.0420  0.0878  0.2242
  637THF    H1213300   3.601   0.887  -0.223  0.5588 -0.8654 -0.4696
  637THF    H1313301   3.740   0.885  -0.129  0.0449 -1.9747 -1.2201
  638THF     O113302   4.748   1.846   3.447  0.1354 -0.0409  0.1168
  638THF     C213303   4.631   1.871   3.373  0.5317 -0.4436 -0.2088
  638THF     C313304   4.795   1.973   3.495 -0.7415  0.5288 -0.4704
  638THF     H413305   4.546   1.832   3.428 -2.1914 -0.3892 -3.9478
  638THF     H513306   4.616   1.815   3.280 -1.2335 -0.0085 -0.2178
  638THF     H613307   4.745   1.981   3.592 -1.5074  1.9384 -0.9590
  638THF     H713308   4.901   1.962   3.517 -0.5648 -0.7945 -1.8219
  638THF     C813309   4.755   2.081   3.404  0.0124 -0.0889  0.7184
  638THF     C913310   4.627   2.022   3.342  0.2112 -0.1364  0.5950
  638THF    H1013311   4.839   2.094   3.336 -0.6492  0.4876 -0.0108
  638THF    H1113312   4.730   2.177   3.451  2.8231  0.8626  0.4644
  638THF    H1213313   4.535   2.056   3.390 -0.7956  0.5533 -1.6555
  638THF    H1313314   4.626   2.037   3.234  0.7661  0.6332  0.6859
  639THF     O113315   3.417   3.312   3.480 -0.0076 -0.0903 -0.2227
  639THF     C213316   3.385   3.410   3.380  0.0939  0.3076  0.3421
  639THF     C313317   3.384   3.189   3.423  0.9053  0.5519  0.3062
  639THF     H413318   3.428   3.507   3.406  3.0445 -0.0656 -2.5236
  639THF     H513319   3.277   3.409   3.367  0.2730  0.8535 -1.4848
  639THF     H613320   3.428   3.111   3.485 -1.5849 -1.1539  0.0657
  639THF     H713321   3.277   3.172   3.424  1.2378 -1.9313 -0.0454
  639THF     C813322   3.438   3.206   3.279  0.2646 -0.8993 -0.5703
  639THF     C913323   3.440   3.356   3.246 -0.6581 -0.3993 -0.2456
  639THF    H1013324   3.387   3.148   3.201  0.4957 -1.8690 -0.0140
  639THF    H1113325   3.541   3.169   3.278  0.5566 -0.1022 -1.0605
  639THF    H1213326   3.542   3.391   3.240 -0.3049 -1.0182  1.5695
  639THF    H1313327   3.385   3.386   3.156  0.7526  0.5806 -0.8196
  640THF     O113328   1.235   3.129   2.558 -1.1597 -0.1939  0.7117
  640THF     C213329   1.260   2.989   2.587  0.1913 -0.3251  0.0695
  640THF     C313330   1.232   3.197   2.687 -0.4112 -0.5611 -0.0453
  640THF     H413331   1.367   2.979   2.569  0.7473  1.5272  1.9407
  640THF     H513332   1.193   2.942   2.514 -1.3617 -0.1095  1.2996
  640THF     H613333   1.306   3.277   2.693 -0.9059 -0.2286  2.9186
  640THF     H713334   1.133   3.238   2.707  0.2811  0.6151  1.0923
  640THF     C813335   1.253   3.095   2.798  0.0050  0.0080  0.4280
  640THF     C913336   1.221   2.965   2.729 -0.0272  0.1037 -0.4327
  640THF    H1013337   1.195   3.108   2.890 -0.1863 -0.7901  0.4297
  640THF    H1113338   1.360   3.082   2.815  0.3879  1.9106 -0.2243
  640THF    H1213339   1.256   2.876   2.782 -0.1357  0.0155 -0.5086
  640THF    H1313340   1.113   2.966   2.737 -0.0188 -0.4251 -0.1746
  641THF     O113341   3.705   0.302   0.935 -0.7180 -0.5629  0.6600
  641THF     C213342   3.719   0.173   0.884 -0.0056  0.4051 -0.3285
  641THF     C313343   3.588   0.314   1.017 -0.4073  0.1245 -0.3775
  641THF     H413344   3.765   0.113   0.962  1.4627  1.5128 -0.3059
  641THF     H513345   3.770   0.162   0.788 -0.4313 -2.0489 -0.3413
  641THF     H613346   3.597   0.343   1.122  0.5617  0.0485 -0.4383
  641THF     H713347   3.526   0.389   0.968 -0.2360  0.1119 -0.6157
  641THF     C813348   3.515   0.181   0.993 -0.4521 -0.1309 -0.0447
  641THF     C913349   3.567   0.139   0.863 -0.3391  0.1965 -0.1193
  641THF    H1013350   3.409   0.206   0.992 -0.1335  1.4792 -2.3773
  641THF    H1113351   3.540   0.100   1.061  0.3497 -1.4707 -1.8478
  641THF    H1213352   3.537   0.037   0.837  0.9198  0.2849 -2.1547
  641THF    H1313353   3.526   0.199   0.782 -2.8643 -0.6326  0.4392
  642THF     O113354   4.180   5.009   0.806 -0.5271 -0.3404  0.5296
  642THF     C213355   4.128   4.937   0.694  0.3170 -0.2239  0.2166
  642THF     C313356   4.086   5.106   0.849 -0.0354  0.2918 -0.1068
  642THF     H413357   4.057   4.864   0.733 -1.3655  0.3369 -1.6143
  642THF     H513358   4.204   4.891   0.631  0.4365  2.0440 -1.3944
  642THF     H613359   4.010   5.059   0.911  1.0310 -0.5804  0.5656
  642THF     H713360   4.143   5.177   0.910  1.9779  0.1374 -1.6813
  642THF     C813361   4.035   5.163   0.720 -0.2739  0.1533  0.1729
  642THF     C913362   4.065   5.058   0.615  0.4813  0.6300 -1.0694
  642THF    H1013363   4.082   5.259   0.700 -1.8749  1.2852  1.5408
  642THF    H1113364   3.935   5.202   0.736 -1.4438 -2.1751 -1.0324
  642THF    H1213365   3.976   5.021   0.565  0.7953  0.4276 -1.4909
  642THF    H1313366   4.130   5.086   0.531  2.6720  2.2514  1.0256
  643THF     O113367   4.210   4.539   5.028 -0.4915 -0.0803 -0.0706
  643THF     C213368   4.256   4.426   5.092  0.0212  0.4208  0.5009
  643THF     C313369   4.296   4.559   4.913  0.4281 -0.1134 -0.2472
  643THF     H413370   4.175   4.375   5.145 -0.7930  2.2310  1.0834
  643THF     H513371   4.331   4.450   5.166  1.4762  2.7788 -1.5649
  643THF     H613372   4.248   4.622   4.837  0.3325 -0.9046 -0.8633
  643THF     H713373   4.387   4.610   4.943  0.3759  1.0761 -1.9200
  643THF     C813374   4.331   4.420   4.860 -0.1656 -0.0762  0.2454
  643THF     C913375   4.299   4.331   4.977  0.1092  0.3570  0.6347
  643THF    H1013376   4.431   4.406   4.819 -0.2927  0.4770 -0.2830
  643THF    H1113377   4.268   4.410   4.771 -0.1409  0.4241  0.1713
  643THF    H1213378   4.218   4.272   4.937  1.4205  0.0501 -1.7168
  643THF    H1313379   4.384   4.269   5.008  0.2613 -0.8212 -1.9099
  644THF     O113380   2.937   2.063   0.588  0.9110 -0.0923 -0.9010
  644THF     C213381   3.009   2.176   0.632  1.0187  0.2135 -0.0690
  644THF     C313382   2.956   1.962   0.683  0.1484  0.1888  0.1422
  644THF     H413383   2.957   2.268   0.603 -0.5737 -1.0627 -1.4177
  644THF     H513384   3.112   2.182   0.597  1.0766 -0.5428 -0.0437
  644THF     H613385   2.863   1.906   0.694  1.4694 -2.9685 -2.9095
  644THF     H713386   3.029   1.888   0.652  0.4269  1.0244 -1.2580
  644THF     C813387   2.979   2.026   0.819  0.0654 -0.0493 -0.6447
  644THF     C913388   2.987   2.173   0.782  0.4684  0.0566 -0.9210
  644THF    H1013389   3.076   1.986   0.851  0.4646  0.3377 -1.3388
  644THF    H1113390   2.905   2.005   0.896  1.9139  0.2443  1.3028
  644THF    H1213391   2.893   2.223   0.808  0.7997 -0.6208  1.9162
  644THF    H1313392   3.064   2.223   0.840 -0.7512 -0.7810  1.6029
  645THF     O113393   5.294   0.718   4.651  0.6420 -0.2914  0.3135
  645THF     C213394   5.379   0.613   4.610 -0.0135 -0.2644  0.4236
  645THF     C313395   5.225   0.777   4.537  0.1873  0.0295 -0.0217
  645THF     H413396   5.388   0.525   4.674  1.3058 -1.7418 -1.6716
  645THF     H513397   5.486   0.629   4.592 -0.3243 -0.7142 -2.2091
  645THF     H613398   5.137   0.840   4.547  0.1443  0.3169 -1.8705
  645THF     H713399   5.295   0.848   4.491 -1.7909  1.0066 -1.6751
  645THF     C813400   5.193   0.649   4.456  0.1979  0.2226 -1.0958
  645THF     C913401   5.323   0.575   4.475  0.3615 -0.3919 -0.1321
  645THF    H1013402   5.192   0.661   4.347 -0.6973  1.2826 -0.9792
  645THF    H1113403   5.109   0.597   4.501  0.7580  0.0393 -0.2352
  645THF    H1213404   5.318   0.470   4.445  2.0584 -0.2662 -0.9734
  645THF    H1313405   5.386   0.628   4.403 -0.5436  0.3163 -0.4159
  646THF     O113406   1.002   4.280   1.104 -0.8090  0.1801 -0.2889
  646THF     C213407   0.878   4.339   1.057 -0.4785  0.2554 -0.2351
  646THF     C313408   0.976   4.177   1.196 -0.7267 -0.5914  1.1135
  646THF     H413409   0.830   4.259   1.001 -0.2609  1.2326 -1.8857
  646THF     H513410   0.893   4.425   0.992  3.6092 -0.6736 -0.7953
  646THF     H613411   0.937   4.093   1.139 -0.5390  0.7880 -1.1975
  646THF     H713412   1.061   4.142   1.255 -0.0136 -2.5615 -0.9242
  646THF     C813413   0.857   4.244   1.277  0.3141  0.5614  0.4713
  646THF     C913414   0.799   4.359   1.190 -0.3162  0.3569  0.4770
  646THF    H1013415   0.897   4.281   1.371  2.9226 -0.0003 -0.3210
  646THF    H1113416   0.790   4.164   1.306  1.2380 -0.8823 -1.1829
  646THF    H1213417   0.691   4.364   1.177 -0.3165  0.1357  0.3837
  646THF    H1313418   0.816   4.458   1.232 -2.0348  0.3344  1.3194
  647THF     O113419   3.640   3.237   0.084  0.1248  0.1385  0.4442
  647THF     C213420   3.595   3.348   0.163 -0.2837 -0.4363  0.2174
  647THF     C313421   3.568   3.115   0.102  0.1475 -0.1077  0.1242
  647THF     H413422   3.562   3.435   0.106 -0.9193 -0.8290 -0.0194
  647THF     H513423   3.671   3.375   0.236 -0.7938  0.4633  0.4287
  647THF     H613424   3.479   3.102   0.040 -0.9364 -0.9386  1.7875
  647THF     H713425   3.632   3.028   0.090  0.7148  0.1083  1.3882
  647THF     C813426   3.514   3.139   0.247 -0.4577  0.3151 -0.1185
  647THF     C913427   3.481   3.290   0.244 -0.6670 -0.5745  0.3515
  647THF    H1013428   3.600   3.129   0.312  0.3010 -1.0007 -1.2528
  647THF    H1113429   3.433   3.073   0.280 -1.0741 -0.7476 -3.3194
  647THF    H1213430   3.386   3.300   0.191 -0.1477  1.4797 -0.2688
  647THF    H1313431   3.467   3.343   0.339  1.2636  1.5733 -0.4706
  648THF     O113432   4.624   1.397   3.245  0.5129 -0.5396  0.0967
  648THF     C213433   4.609   1.483   3.133  0.2775  0.1790 -0.5197
  648THF     C313434   4.553   1.463   3.348  0.2759  0.0146 -0.1516
  648THF     H413435   4.638   1.431   3.041  1.0598  0.9502 -0.7176
  648THF     H513436   4.676   1.568   3.140  1.9953 -0.9348 -2.4381
  648THF     H613437   4.531   1.390   3.426  1.8013  0.1974  0.4766
  648THF     H713438   4.616   1.540   3.392  0.5426 -0.6296  0.6158
  648THF     C813439   4.428   1.525   3.285  0.4613 -0.1983  0.2595
  648THF     C913440   4.461   1.530   3.136  0.1424 -0.6673  0.1526
  648THF    H1013441   4.394   1.619   3.329  1.7802 -0.5061  2.0184
  648THF    H1113442   4.352   1.448   3.296 -0.2468  0.4499 -0.0023
  648THF    H1213443   4.400   1.464   3.074 -0.5229  1.1023 -1.1729
  648THF    H1313444   4.453   1.633   3.099  0.0748  0.3434  2.7951
  649THF     O113445   1.625   4.604   3.017 -0.1298 -0.1014 -0.5677
  649THF     C213446   1.750   4.666   3.056 -0.2860  0.8694  0.5532
  649THF     C313447   1.531   4.673   3.097  0.4415  0.2064  0.6037
  649THF     H413448   1.782   4.760   3.010  1.7281  0.2528  0.6051
  649THF     H513449   1.839   4.607   3.034  0.4172  2.2531 -0.5073
  649THF     H613450   1.498   4.769   3.058  0.9072  0.0522 -0.1823
  649THF     H713451   1.449   4.602   3.093 -0.3721  1.1322  0.5933
  649THF     C813452   1.585   4.685   3.237  0.3211 -1.1554  0.2563
  649THF     C913453   1.732   4.675   3.209 -0.0627  0.0065  0.3095
  649THF    H1013454   1.536   4.607   3.296 -0.7888  0.0012  0.9125
  649THF    H1113455   1.555   4.772   3.294 -1.5973 -0.7299 -1.3194
  649THF    H1213456   1.787   4.766   3.236 -1.1162  0.1293  2.2609
  649THF    H1313457   1.763   4.582   3.255  0.5121  0.7432  1.4734
  650THF     O113458   1.912   3.030   4.890 -0.3208  0.2296 -0.2271
  650THF     C213459   1.987   2.961   4.783  0.3256 -0.5674  0.2957
  650THF     C313460   1.812   2.938   4.929 -0.6014  0.4053  0.0996
  650THF     H413461   2.058   2.898   4.837  0.8025  1.1974  1.7921
  650THF     H513462   2.028   3.035   4.714  0.1436  0.0918  0.8818
  650THF     H613463   1.873   2.867   4.985 -0.1270  1.5010  1.0182
  650THF     H713464   1.742   2.984   4.998 -1.7943 -2.7929  1.1842
  650THF     C813465   1.759   2.878   4.802  0.6709  0.2727 -0.2360
  650THF     C913466   1.876   2.888   4.705 -0.8143  0.2171  0.3017
  650THF    H1013467   1.680   2.935   4.753  0.3849  0.3364  0.2951
  650THF    H1113468   1.714   2.781   4.819  1.0362  0.5633  2.8399
  650THF    H1213469   1.902   2.788   4.670  0.4097  0.4728  0.4348
  650THF    H1313470   1.840   2.950   4.623 -2.7770  0.6619  1.4264
  651THF     O113471   4.360   2.670   4.407  0.3959  0.6930 -0.1673
  651THF     C213472   4.406   2.596   4.518  0.1288 -0.2912 -0.0184
  651THF     C313473   4.359   2.808   4.439  0.5032  0.1812  0.4841
  651THF     H413474   4.492   2.539   4.481  0.2276  0.2133 -0.5690
  651THF     H513475   4.329   2.525   4.549 -1.0877  0.1833 -1.8139
  651THF     H613476   4.400   2.870   4.360  0.2490  0.9109  0.9186
  651THF     H713477   4.254   2.835   4.449  0.6681  1.3490 -0.6402
  651THF     C813478   4.452   2.822   4.562 -0.2031 -0.5363 -0.7137
  651THF     C913479   4.432   2.696   4.636 -0.0712  0.6301  0.3168
  651THF    H1013480   4.431   2.912   4.621  0.4263 -0.6732 -0.2715
  651THF    H1113481   4.557   2.823   4.534 -0.1493 -1.6378 -0.5930
  651THF    H1213482   4.517   2.661   4.693 -1.2950 -0.0025  1.8214
  651THF    H1313483   4.339   2.696   4.693 -0.6503  1.7337 -0.5771
  652THF     O113484   5.357   4.250   2.094 -0.1874 -0.0651  0.1767
  652THF     C213485   5.304   4.132   2.149 -0.6294 -0.4899 -0.7241
  652THF     C313486   5.284   4.283   1.973 -0.3316  0.4983 -0.8433
  652THF     H413487   5.293   4.142   2.257 -0.8072 -1.7800 -0.5995
  652THF     H513488   5.368   4.045   2.135  0.5081  0.6602 -2.9352
  652THF     H613489   5.246   4.383   1.992  0.4167  0.7903 -0.8438
  652THF     H713490   5.355   4.300   1.892  3.0358  0.6918  1.9494
  652THF     C813491   5.180   4.180   1.950  0.8265 -0.8132  0.4756
  652THF     C913492   5.159   4.132   2.092 -0.1041 -0.3263  0.7439
  652THF    H1013493   5.214   4.107   1.876  1.6578  1.3117 -1.3776
  652THF    H1113494   5.087   4.213   1.904  1.3055 -0.4570 -0.2597
  652THF    H1213495   5.082   4.189   2.144 -1.3896 -1.4031  0.0835
  652THF    H1313496   5.142   4.024   2.093  2.5195 -0.8089  0.1681
  653THF     O113497   3.736   0.106   2.429 -0.7218 -0.1372  0.3481
  653THF     C213498   3.822   0.194   2.494 -1.1748  0.4307 -0.8012
  653THF     C313499   3.648   0.191   2.359  0.1676 -0.0295 -0.7110
  653THF     H413500   3.916   0.152   2.530 -1.0800  1.0366 -0.3293
  653THF     H513501   3.764   0.249   2.568 -3.4411 -1.1094 -1.3480
  653THF     H613502   3.597   0.137   2.279 -0.4706 -0.0549 -0.2952
  653THF     H713503   3.578   0.238   2.428  0.7646 -1.3408  0.8527
  653THF     C813504   3.736   0.300   2.301 -0.4359 -0.1032 -0.1131
  653THF     C913505   3.865   0.284   2.381 -0.2153 -0.1812  0.2082
  653THF    H1013506   3.685   0.393   2.323 -1.6304 -1.3144  2.7745
  653THF    H1113507   3.757   0.284   2.195 -0.9017 -4.4934  0.2657
  653THF    H1213508   3.941   0.236   2.319 -0.4740  1.4760 -1.4570
  653THF    H1313509   3.908   0.379   2.415 -0.1050 -0.6858  1.5622
  654THF     O113510   5.312   4.205   1.657 -0.5573  0.3839  0.3458
  654THF     C213511   5.437   4.148   1.604 -0.3659 -0.7649 -0.1646
  654THF     C313512   5.202   4.143   1.597  0.3536 -0.5287 -0.0618
  654THF     H413513   5.443   4.043   1.635  1.0414 -1.3390 -2.1631
  654THF     H513514   5.526   4.203   1.633 -1.2608  0.5883  0.1214
  654THF     H613515   5.178   4.055   1.657  0.3602  1.3169  2.8400
  654THF     H713516   5.105   4.190   1.609  1.5884  2.0729  0.2856
  654THF     C813517   5.252   4.121   1.450  0.8051  0.3114 -0.1807
  654THF     C913518   5.403   4.163   1.452  0.2706  0.1140 -0.0621
  654THF    H1013519   5.199   4.181   1.376  0.3863  1.1636  0.7885
  654THF    H1113520   5.242   4.016   1.423  1.2750 -0.1490  1.3513
  654THF    H1213521   5.471   4.116   1.381 -1.2196  2.2898 -3.1063
  654THF    H1313522   5.416   4.269   1.429  0.7828  0.2544  0.7960
  655THF     O113523   1.061   0.426   1.315 -0.0676 -0.1349 -0.0052
  655THF     C213524   0.991   0.309   1.351 -0.3800  0.1379 -0.1925
  655THF     C313525   0.968   0.508   1.243  0.3712  0.5839 -0.7943
  655THF     H413526   1.053   0.258   1.424  2.3311 -1.8770 -3.6084
  655THF     H513527   0.967   0.246   1.266  0.9699  1.4168 -1.5906
  655THF     H613528   0.977   0.615   1.263  0.6309  0.1949  1.5654
  655THF     H713529   0.986   0.491   1.137 -1.1109  3.2260 -1.5383
  655THF     C813530   0.833   0.467   1.291 -0.4492  0.3231 -0.0020
  655THF     C913531   0.860   0.368   1.403  0.3618  1.2594  0.0853
  655THF    H1013532   0.779   0.412   1.213  0.4335  1.5152 -1.5136
  655THF    H1113533   0.764   0.543   1.326 -1.1518 -0.7493  0.9859
  655THF    H1213534   0.888   0.422   1.493 -1.1443  1.3446  0.5298
  655THF    H1313535   0.773   0.303   1.411  0.9929 -0.0845 -2.5007
  656THF     O113536   0.006   0.508   1.321 -0.0618  0.4589 -0.1273
  656THF     C213537   0.137   0.451   1.299  0.4273  0.3578 -0.3311
  656THF     C313538  -0.072   0.466   1.211  0.2402  0.2011 -0.4642
  656THF     H413539   0.140   0.343   1.296  0.6546  0.3438  0.3548
  656THF     H513540   0.214   0.487   1.367 -0.7326  0.7363  0.8328
  656THF     H613541  -0.100   0.362   1.221 -1.7779  0.3639 -3.1391
  656THF     H713542  -0.162   0.526   1.200  0.0639 -0.0106 -0.1648
  656THF     C813543   0.019   0.485   1.088  0.5706 -0.0515 -0.1727
  656THF     C913544   0.156   0.503   1.150 -0.2874 -0.1799  0.1511
  656THF    H1013545  -0.027   0.563   1.029 -0.8356 -1.5535 -1.1586
  656THF    H1113546   0.019   0.402   1.017  1.1841 -0.4153  0.2412
  656THF    H1213547   0.234   0.451   1.095 -0.5542  0.8672 -1.2887
  656THF    H1313548   0.182   0.609   1.146  0.7672 -0.4706 -1.9116
  657THF     O113549   2.320   4.508   4.518  0.7135 -0.2618 -0.3230
  657THF     C213550   2.227   4.418   4.583 -0.7590  0.2171 -0.1979
  657THF     C313551   2.265   4.535   4.395  0.3649  0.6345 -0.1945
  657THF     H413552   2.221   4.433   4.691 -4.5572  0.9369 -0.3615
  657THF     H513553   2.260   4.316   4.562  0.3665  0.3375  0.8772
  657THF     H613554   2.323   4.617   4.353  0.5739 -0.3221 -1.8791
  657THF     H713555   2.289   4.453   4.327  0.3562  0.5012 -0.0368
  657THF     C813556   2.115   4.558   4.432  0.2702 -0.2521 -0.6687
  657THF     C913557   2.088   4.457   4.542 -0.2704 -0.4971  0.5146
  657THF    H1013558   2.049   4.548   4.346  1.6630  3.9589 -2.4843
  657THF    H1113559   2.116   4.662   4.466  2.0898 -0.1874 -0.8320
  657THF    H1213560   2.036   4.506   4.624  1.3369  0.4092  1.0491
  657THF    H1313561   2.029   4.377   4.498 -0.4395 -0.6161  0.9493
  658THF     O113562   1.078   1.940   1.066 -0.3096 -0.1973 -0.1071
  658THF     C213563   1.044   2.030   0.959  0.4678 -0.2261  0.4764
  658THF     C313564   1.133   1.822   1.007 -0.3488  0.4897  0.4938
  658THF     H413565   1.105   2.120   0.964  0.9170 -0.3136 -2.1210
  658THF     H513566   0.938   2.056   0.953 -0.4603 -2.1979  4.4562
  658THF     H613567   1.240   1.836   0.991  0.0024 -0.1820  1.9885
  658THF     H713568   1.115   1.733   1.068  0.2916 -0.9303 -1.2973
  658THF     C813569   1.078   1.814   0.869 -0.1522 -0.0576  0.2011
  658THF     C913570   1.085   1.960   0.828 -0.1065 -0.1163 -0.1812
  658THF    H1013571   0.971   1.796   0.858  0.0251 -0.5684 -0.8244
  658THF    H1113572   1.137   1.755   0.798 -1.3160  0.1525 -0.9841
  658THF    H1213573   1.184   1.979   0.785 -0.2244 -0.8580 -0.7972
  658THF    H1313574   1.021   1.969   0.741 -1.6299 -0.8624  0.8275
  659THF     O113575   2.642   0.095   2.978  0.3498 -0.2504 -0.0447
  659THF     C213576   2.531   0.059   3.058  0.3151 -0.2808 -0.3884
  659THF     C313577   2.696  -0.022   2.936  0.0844 -0.7852  0.1708
  659THF     H413578   2.439   0.035   3.006 -0.7170 -0.7874  1.5941
  659THF     H513579   2.507   0.136   3.132  0.4804  0.1698 -0.7964
  659THF     H613580   2.639  -0.044   2.846 -0.2880 -1.2117  0.5073
  659THF     H713581   2.800  -0.001   2.909 -0.1941 -0.2400 -0.5157
  659THF     C813582   2.679  -0.117   3.065 -0.2799  0.5926  0.1880
  659THF     C913583   2.557  -0.067   3.142  0.1692 -0.1178  0.9802
  659THF    H1013584   2.766  -0.111   3.130 -0.7863  0.9808  0.8405
  659THF    H1113585   2.678  -0.215   3.017  0.6398  0.7728 -0.2172
  659THF    H1213586   2.479  -0.143   3.137  1.4416 -1.4582  1.0584
  659THF    H1313587   2.570  -0.045   3.248 -0.0596 -3.5404  1.8195
  660THF     O113588   0.509   2.354   1.010  0.1342 -0.0541  0.4279
  660THF     C213589   0.483   2.257   1.100 -0.3223 -0.5274  0.2005
  660THF     C313590   0.543   2.281   0.895  0.4825  0.8256  0.5618
  660THF     H413591   0.392   2.202   1.074  1.5062 -2.8649 -1.7856
  660THF     H513592   0.469   2.294   1.201  0.8539 -1.6422  0.8126
  660THF     H613593   0.455   2.241   0.845  1.3788 -0.4410 -0.0465
  660THF     H713594   0.600   2.335   0.819  0.8463  0.3578  0.5049
  660THF     C813595   0.628   2.167   0.941 -0.0389 -0.5682 -0.7696
  660THF     C913596   0.604   2.162   1.086  0.2558 -0.2981 -0.1031
  660THF    H1013597   0.733   2.181   0.916  0.0598  0.7627  0.2478
  660THF    H1113598   0.584   2.077   0.898  1.1657 -2.7779  2.2744
  660THF    H1213599   0.581   2.061   1.121  0.8130  0.6777  3.5425
  660THF    H1313600   0.692   2.190   1.143 -0.1106 -0.9799  0.8346
  661THF     O113601   1.621   5.104   3.646 -0.3844  0.0707 -0.2298
  661THF     C213602   1.513   5.097   3.558  0.2966 -0.0957 -0.8071
  661THF     C313603   1.726   5.037   3.576  0.2708  0.2235 -0.3617
  661THF     H413604   1.532   5.182   3.492  2.8663  0.3383  0.3565
  661THF     H513605   1.418   5.121   3.607  1.6218  1.6263  1.1113
  661THF     H613606   1.756   5.107   3.498 -0.9686  1.8201  0.5259
  661THF     H713607   1.813   5.020   3.638 -1.6218 -1.4135  2.0191
  661THF     C813608   1.661   4.912   3.529  0.0765  0.1153 -0.0991
  661THF     C913609   1.524   4.961   3.491  0.1298 -0.4685  1.0604
  661THF    H1013610   1.646   4.835   3.605 -0.3676 -2.7310 -2.8441
  661THF    H1113611   1.707   4.863   3.443 -1.1981  0.2954 -0.9024
  661THF    H1213612   1.506   4.983   3.386 -0.5529 -1.7004  0.9022
  661THF    H1313613   1.454   4.891   3.536  0.1313 -2.2253 -1.5097
  662THF     O113614   1.381   1.480   3.148 -0.7120  0.0875  0.2697
  662THF     C213615   1.511   1.433   3.114  0.0163 -0.6395  0.3736
  662THF     C313616   1.321   1.564   3.048 -0.0497 -0.1415 -0.0315
  662THF     H413617   1.529   1.326   3.120  0.8769 -0.6245 -1.3491
  662THF     H513618   1.583   1.492   3.171  0.9886  0.2020 -1.6277
  662THF     H613619   1.243   1.503   3.002  2.0092 -1.1839 -2.4315
  662THF     H713620   1.273   1.651   3.092 -0.4970 -0.0793 -0.6286
  662THF     C813621   1.433   1.598   2.954 -0.3543 -0.4643 -0.3351
  662THF     C913622   1.515   1.467   2.968 -0.0567  0.7238  0.1685
  662THF    H1013623   1.487   1.687   2.985 -1.4359 -0.1386  0.6763
  662THF    H1113624   1.403   1.625   2.853  3.2756  1.7682 -1.0084
  662THF    H1213625   1.475   1.389   2.903 -1.5502  1.3604  0.2646
  662THF    H1313626   1.618   1.483   2.936  0.7196 -2.8146  0.4279
  663THF     O113627   4.040   4.595   4.300  0.9444  0.1185 -0.2193
  663THF     C213628   4.102   4.637   4.179 -0.1531 -0.6937  0.3133
  663THF     C313629   3.929   4.691   4.328 -0.3462  0.7955 -0.4573
  663THF     H413630   4.141   4.546   4.133  0.6874 -0.7388  1.0797
  663THF     H513631   4.191   4.694   4.207  0.3894 -1.7545  0.8300
  663THF     H613632   3.847   4.656   4.390  0.1864  0.1648 -0.0936
  663THF     H713633   3.966   4.784   4.371  1.1682 -0.1067  0.3119
  663THF     C813634   3.869   4.708   4.196 -0.0374 -0.4776  0.2833
  663THF     C913635   3.993   4.713   4.106 -0.3085  1.2870  0.7588
  663THF    H1013636   3.816   4.803   4.189 -0.5732 -0.5974  2.2605
  663THF    H1113637   3.804   4.625   4.168  0.0341 -0.6045  0.4910
  663THF    H1213638   3.963   4.662   4.015 -1.1710  0.6454  1.3836
  663THF    H1313639   4.020   4.813   4.075 -0.7886  0.1158 -4.1910
  664THF     O113640   0.527   2.845   0.160 -0.2654 -0.3051 -0.0374
  664THF     C213641   0.421   2.755   0.199 -0.2257 -0.4584 -0.3363
  664THF     C313642   0.478   2.981   0.133 -0.1157 -0.4832 -0.0270
  664THF     H413643   0.436   2.720   0.301 -2.8147 -0.8364 -0.0077
  664THF     H513644   0.417   2.666   0.136  2.9737 -1.8860  1.2421
  664THF     H613645   0.551   3.052   0.172  1.1932 -1.2025 -1.1126
  664THF     H713646   0.473   3.005   0.027  0.7835 -1.6668 -0.3449
  664THF     C813647   0.344   2.983   0.208 -0.5575 -0.0990  0.4307
  664THF     C913648   0.288   2.844   0.190  0.5567  0.4129 -0.0200
  664THF    H1013649   0.282   3.059   0.159 -1.6070  0.7071  2.8488
  664THF    H1113650   0.347   3.011   0.314  0.3059 -0.1301  0.4210
  664THF    H1213651   0.208   2.809   0.255  0.5970  1.2014  0.4785
  664THF    H1313652   0.259   2.831   0.086 -0.5420 -1.7118  0.5134
  665THF     O113653   2.428   1.548   2.794  0.7539 -0.7269 -0.2496
  665THF     C213654   2.544   1.473   2.821  0.3446  0.4404 -0.0111
  665THF     C313655   2.332   1.523   2.897  0.0901  0.2505  0.2956
  665THF     H413656   2.615   1.518   2.752 -1.4098  0.0837 -2.1661
  665THF     H513657   2.533   1.368   2.794  1.4471  0.8808 -2.4623
  665THF     H613658   2.271   1.613   2.902  1.9447  1.6902 -1.3257
  665THF     H713659   2.284   1.432   2.860  0.6885 -0.9947  2.4392
  665THF     C813660   2.419   1.511   3.024 -0.0001  0.3475  0.3724
  665THF     C913661   2.562   1.497   2.971 -0.5379 -0.4689  0.1856
  665THF    H1013662   2.401   1.421   3.082 -0.7113  0.6766  0.6759
  665THF    H1113663   2.403   1.604   3.078 -0.9406  2.1938 -2.8106
  665THF    H1213664   2.625   1.581   3.001 -1.0084 -0.1455  0.2723
  665THF    H1313665   2.606   1.406   3.013 -1.7924 -1.0683  0.2423
  666THF     O113666   0.672   0.112   2.844  0.7393 -0.9426 -0.3311
  666THF     C213667   0.563   0.148   2.751  0.2033 -0.7084 -0.6366
  666THF     C313668   0.609   0.096   2.973  0.0417  1.0703 -0.0455
  666THF     H413669   0.589   0.114   2.651 -1.1894 -1.3881 -0.8076
  666THF     H513670   0.543   0.254   2.759  0.1285 -0.7727  0.1481
  666THF     H613671   0.664   0.035   3.045  0.6953 -1.0052 -2.1798
  666THF     H713672   0.603   0.189   3.030 -0.8796 -0.1089  1.8978
  666THF     C813673   0.475   0.032   2.950  0.3325  0.2350 -0.5166
  666THF     C913674   0.440   0.068   2.807  0.2242 -0.0178  0.0755
  666THF    H1013675   0.404   0.074   3.022 -1.8714  0.3325 -2.6326
  666THF    H1113676   0.484  -0.075   2.968 -0.1371  0.1158 -0.9551
  666THF    H1213677   0.435  -0.023   2.747  0.7730 -0.7588  1.1194
  666THF    H1313678   0.344   0.118   2.795  0.4220  0.2640 -0.3535
  667THF     O113679   4.588   4.024   4.599  0.3059 -0.1126  0.8593
  667THF     C213680   4.508   4.111   4.515 -0.2516  0.2360 -0.1316
  667THF     C313681   4.498   3.967   4.689  0.3417  0.1436  0.3934
  667THF     H413682   4.477   4.051   4.430  0.7150 -0.4888  0.0012
  667THF     H513683   4.572   4.194   4.485 -0.5269  0.4953 -0.0058
  667THF     H613684   4.427   3.894   4.649  0.1770 -0.6338  1.9943
  667THF     H713685   4.541   3.904   4.767 -1.0071 -0.7039  0.4930
  667THF     C813686   4.424   4.088   4.733  0.9060  0.5884 -0.4590
  667THF     C913687   4.394   4.160   4.608 -0.4091  0.0993  0.4589
  667THF    H1013688   4.481   4.140   4.809  0.3662 -1.7841  1.6971
  667THF    H1113689   4.333   4.056   4.783  0.8316  1.4824 -0.0129
  667THF    H1213690   4.296   4.136   4.566  0.5975 -1.7738 -0.9875
  667THF    H1313691   4.408   4.266   4.625 -0.8206  0.3641 -0.7602
  668THF     O113692   2.324   1.509   1.813  0.9141  0.0717  0.1005
  668THF     C213693   2.427   1.443   1.746  0.3593 -0.4521 -0.2341
  668THF     C313694   2.322   1.645   1.787 -0.7149  1.3579 -0.2537
  668THF     H413695   2.395   1.339   1.738 -1.2819  0.1317 -2.0339
  668THF     H513696   2.522   1.453   1.798  1.0888 -0.6463 -1.4694
  668THF     H613697   2.217   1.665   1.805 -1.2039 -2.2957  2.0054
  668THF     H713698   2.378   1.691   1.869 -0.5933 -2.9520  2.4069
  668THF     C813699   2.378   1.645   1.637  0.1600 -0.1099 -0.1720
  668THF     C913700   2.440   1.507   1.606  0.6223 -0.0363  0.0948
  668THF    H1013701   2.453   1.723   1.629 -1.2799  1.1959 -1.8112
  668THF    H1113702   2.294   1.664   1.570 -0.2632  1.4344  0.7445
  668THF    H1213703   2.396   1.444   1.529  0.4022  1.5537 -1.1280
  668THF    H1313704   2.547   1.498   1.588  0.1269  0.5852 -3.8107
  669THF     O113705   3.671   1.935   0.118 -0.4372  0.4117 -0.0578
  669THF     C213706   3.712   2.069   0.084  0.5679  0.6003 -0.6421
  669THF     C313707   3.702   1.858  -0.002 -0.4276  0.6883  0.7645
  669THF     H413708   3.724   2.118   0.181 -0.2957 -0.9876  0.3084
  669THF     H513709   3.634   2.123   0.029  1.7287  3.1180  0.0200
  669THF     H613710   3.706   1.754   0.031  0.9016  0.6599  0.5725
  669THF     H713711   3.643   1.881  -0.090  0.8948 -0.1683 -0.3825
  669THF     C813712   3.841   1.909  -0.048 -0.2416 -0.2719  0.7205
  669THF     C913713   3.832   2.053  -0.009 -0.0325  0.1354  0.2048
  669THF    H1013714   3.859   1.896  -0.154  2.6594  2.5696  0.6829
  669THF    H1113715   3.918   1.857   0.009 -0.5177 -2.7734 -1.0695
  669THF    H1213716   3.933   2.072   0.028  0.3585 -0.2853 -0.6230
  669THF    H1313717   3.815   2.118  -0.094 -1.9377  0.5276  0.8284
  670THF     O113718   1.590   4.982   5.007 -0.1428  0.4738  0.4458
  670THF     C213719   1.601   4.836   4.983  0.4740  0.3472  0.3050
  670THF     C313720   1.481   5.003   5.100  0.4881 -0.0901 -0.3964
  670THF     H413721   1.696   4.813   5.033  0.7158  2.4003  0.8776
  670THF     H513722   1.620   4.809   4.879 -0.2223  0.2676  0.1927
  670THF     H613723   1.510   5.023   5.203 -1.5786 -0.1971  0.2425
  670THF     H713724   1.410   5.079   5.068 -1.2476 -1.3325  0.3423
  670THF     C813725   1.391   4.873   5.101 -0.2706  0.0934  0.2472
  670THF     C913726   1.484   4.761   5.048  0.0410 -0.4693  0.3643
  670THF    H1013727   1.301   4.891   5.040  0.0474  1.0022  0.0266
  670THF    H1113728   1.349   4.848   5.198 -2.6733  0.3107 -0.6564
  670THF    H1213729   1.521   4.688   5.121  1.3378 -0.3001 -0.0880
  670THF    H1313730   1.443   4.715   4.958  4.0361 -1.2811 -1.2738
  671THF     O113731   4.245   2.065   5.225 -0.7116  0.0345  0.0030
  671THF     C213732   4.136   1.973   5.207  0.1966  0.2152 -0.9143
  671THF     C313733   4.307   2.039   5.350 -0.3775 -0.2668  0.6812
  671THF     H413734   4.118   1.966   5.099  2.7255  2.3982 -1.5938
  671THF     H513735   4.045   2.012   5.251  1.3079  2.0934 -0.1633
  671THF     H613736   4.416   2.036   5.348 -0.4021 -0.9223 -0.2453
  671THF     H713737   4.267   2.113   5.419 -1.7090 -1.3757  1.1575
  671THF     C813738   4.244   1.906   5.404 -0.1230  1.0546 -0.3283
  671THF     C913739   4.168   1.850   5.290  0.1092  1.2494  0.1952
  671THF    H1013740   4.162   1.927   5.472  0.2998 -1.1995  0.9805
  671THF    H1113741   4.328   1.860   5.455  1.8818  1.4705 -3.0416
  671THF    H1213742   4.227   1.786   5.225  0.7595  0.1263  1.8318
  671THF    H1313743   4.083   1.785   5.314  1.4027 -0.2141  0.9910
  672THF     O113744   2.379   1.227   4.079 -0.5335 -0.3304  0.3074
  672THF     C213745   2.332   1.351   4.047  0.2490 -0.6712  0.1028
  672THF     C313746   2.278   1.126   4.067  0.1199 -0.3276 -0.4036
  672THF     H413747   2.318   1.357   3.939 -0.9527 -1.6654  0.1852
  672THF     H513748   2.391   1.433   4.088  0.0303  0.0883 -1.0383
  672THF     H613749   2.252   1.113   3.962 -3.0281  0.7285  0.1448
  672THF     H713750   2.300   1.033   4.119 -3.2732 -2.8304 -3.0458
  672THF     C813751   2.167   1.205   4.138 -0.2307 -0.0345  0.8780
  672THF     C913752   2.188   1.348   4.107  0.3437 -0.0153 -0.0799
  672THF    H1013753   2.169   1.180   4.244  0.4270 -0.8260  0.6880
  672THF    H1113754   2.068   1.173   4.106  0.1298 -1.0221  0.7403
  672THF    H1213755   2.115   1.389   4.037  0.4535 -0.5269 -0.4965
  672THF    H1313756   2.184   1.408   4.198 -2.4887 -0.4030  0.1355
  673THF     O113757   4.804   4.501   4.573  0.8258  0.1117 -0.5116
  673THF     C213758   4.657   4.511   4.557 -0.4127 -0.0460  0.0080
  673THF     C313759   4.862   4.623   4.528  0.1552 -0.2923 -0.0858
  673THF     H413760   4.607   4.521   4.653 -3.3515 -0.7308 -1.3553
  673THF     H513761   4.627   4.412   4.525  0.8638 -0.7691  0.9436
  673THF     H613762   4.875   4.688   4.615 -0.6064 -0.0861 -0.1160
  673THF     H713763   4.954   4.593   4.478 -1.2206 -0.7337 -2.4979
  673THF     C813764   4.758   4.687   4.434  0.4245  0.5494 -0.6456
  673THF     C913765   4.622   4.626   4.470 -0.2539  0.3476  0.3126
  673THF    H1013766   4.785   4.658   4.332  3.3658 -0.5725  0.3290
  673THF    H1113767   4.739   4.792   4.450 -1.7142 -0.0066  0.7948
  673THF    H1213768   4.560   4.698   4.523  0.5870  1.0947  0.3253
  673THF    H1313769   4.566   4.586   4.386 -1.3394 -0.7772  1.5428
  674THF     O113770   2.684   0.044   3.503  0.4633 -0.0351  0.5742
  674THF     C213771   2.775  -0.044   3.555 -0.2036  0.3860  0.4471
  674THF     C313772   2.703   0.178   3.550  0.6707 -0.9026  0.1367
  674THF     H413773   2.854  -0.069   3.483  0.6369  1.0200  1.1278
  674THF     H513774   2.727  -0.137   3.587 -0.8127  0.2150 -0.8690
  674THF     H613775   2.708   0.256   3.474 -0.5848  0.4488  1.3478
  674THF     H713776   2.613   0.218   3.598 -0.5871 -1.0655 -1.9520
  674THF     C813777   2.834   0.175   3.620 -0.3105 -0.3221 -1.0339
  674THF     C913778   2.844   0.031   3.669  0.6737  0.7143 -0.6504
  674THF    H1013779   2.848   0.250   3.698  1.1941  0.8974 -2.4223
  674THF    H1113780   2.909   0.192   3.544  2.2683 -0.3492  1.3463
  674THF    H1213781   2.942  -0.015   3.680 -0.0647 -1.2260 -1.5599
  674THF    H1313782   2.784   0.021   3.759 -1.6156  0.9879 -2.0419
  675THF     O113783   1.070   4.003   1.704  0.4270  0.3272  0.0650
  675THF     C213784   1.129   4.032   1.825  0.3838 -0.3984 -0.1565
  675THF     C313785   1.078   3.863   1.676  0.3255 -0.0603 -0.5743
  675THF     H413786   1.067   4.101   1.881 -0.0086 -1.2050  0.4170
  675THF     H513787   1.222   4.084   1.802 -0.4619  1.9514  1.3668
  675THF     H613788   0.996   3.840   1.608 -1.3483 -2.6169  2.0883
  675THF     H713789   1.177   3.837   1.639  0.3051 -2.2969  0.7107
  675THF     C813790   1.065   3.801   1.819  0.2529  0.0748  1.0289
  675THF     C913791   1.146   3.906   1.903 -0.3900  0.1921  0.7828
  675THF    H1013792   1.117   3.705   1.808 -0.5850 -0.1182 -2.6527
  675THF    H1113793   0.965   3.784   1.858 -0.6083  0.7064 -0.7914
  675THF    H1213794   1.114   3.921   2.006 -1.9770 -1.7298  0.6319
  675THF    H1313795   1.253   3.888   1.893 -0.4904  0.1143 -0.1691
  676THF     O113796   0.752   4.374   3.687  0.1190 -0.7451 -0.0142
  676THF     C213797   0.703   4.244   3.685  0.3576 -0.2616 -0.0717
  676THF     C313798   0.717   4.430   3.566 -0.1615  0.9714  0.6555
  676THF     H413799   0.698   4.209   3.788 -2.8539  0.7402  0.2144
  676THF     H513800   0.770   4.184   3.623  0.7004 -0.7071  0.7192
  676THF     H613801   0.732   4.538   3.568  0.5781  0.9079  3.5996
  676THF     H713802   0.775   4.377   3.492 -2.4761 -0.6394 -0.1382
  676THF     C813803   0.574   4.385   3.538  0.7042 -0.5606 -0.3618
  676THF     C913804   0.565   4.261   3.624 -0.1970 -0.0334  0.2092
  676THF    H1013805   0.549   4.374   3.432 -1.3932  5.2538 -0.8290
  676THF    H1113806   0.505   4.462   3.569  1.1199 -0.5653  0.6073
  676THF    H1213807   0.496   4.284   3.706 -1.3335  0.0919 -0.7492
  676THF    H1313808   0.545   4.176   3.559  2.7265  0.7264 -1.8676
  677THF     O113809   1.349   1.836   1.470  0.6231 -0.0392  0.6010
  677THF     C213810   1.218   1.881   1.504  0.2337 -0.4132  0.3173
  677THF     C313811   1.370   1.723   1.547 -0.3409 -0.1373  0.6250
  677THF     H413812   1.151   1.909   1.423 -0.9561  2.4221  2.1161
  677THF     H513813   1.240   1.977   1.550 -0.1338 -0.0029 -0.3421
  677THF     H613814   1.342   1.640   1.481 -0.3062  0.3416  0.0053
  677THF     H713815   1.474   1.710   1.577  1.3489  3.3127 -2.8633
  677THF     C813816   1.279   1.726   1.665  0.3057 -0.2750  0.5936
  677THF     C913817   1.153   1.773   1.598  0.1669 -0.0627  0.0974
  677THF    H1013818   1.321   1.797   1.736 -0.9142 -0.2607  1.3241
  677THF    H1113819   1.251   1.635   1.717 -0.7214  0.6190  1.6665
  677THF    H1213820   1.119   1.687   1.539  0.7679  0.0006 -0.3458
  677THF    H1313821   1.071   1.808   1.661 -0.9276 -2.7002  0.2778
  678THF     O113822   3.708   0.347   3.907 -0.1152 -0.9789  0.2629
  678THF     C213823   3.825   0.270   3.885  0.9324 -0.5416 -0.0063
  678THF     C313824   3.647   0.367   3.784 -0.1854 -0.0282  0.4013
  678THF     H413825   3.852   0.211   3.973  4.6407 -1.0323 -1.3276
  678THF     H513826   3.897   0.352   3.882 -1.9272  2.2168  1.0766
  678THF     H613827   3.539   0.374   3.799 -0.0297  1.2247  1.0022
  678THF     H713828   3.688   0.456   3.737  1.5347 -1.3552 -0.7181
  678THF     C813829   3.680   0.237   3.708 -0.0813  0.2107  0.2415
  678THF     C913830   3.814   0.189   3.761  0.5485  0.2178 -0.3178
  678THF    H1013831   3.671   0.239   3.600 -0.3277 -0.5453  0.2392
  678THF    H1113832   3.606   0.163   3.739 -1.1898  1.6644  1.2010
  678THF    H1213833   3.814   0.082   3.784 -4.0700  0.0696 -0.1537
  678THF    H1313834   3.887   0.224   3.689 -0.3071  2.5051 -0.1522
  679THF     O113835   4.964   1.971   2.334  0.5767  0.1231  0.4966
  679THF     C213836   5.028   2.075   2.411  0.0555  0.2365 -0.1424
  679THF     C313837   4.869   1.899   2.416 -0.6295  0.2920  0.4199
  679THF     H413838   4.959   2.157   2.430  0.2419  0.6181 -1.0765
  679THF     H513839   5.120   2.103   2.360 -0.0587  1.5946  0.3665
  679THF     H613840   4.784   1.964   2.431 -2.4918 -1.2614 -2.4923
  679THF     H713841   4.825   1.808   2.374  0.7813 -1.1870  1.9529
  679THF     C813842   4.946   1.876   2.547  0.3896 -0.2129  0.2397
  679THF     C913843   5.044   1.994   2.544 -0.3942  0.4868  0.1823
  679THF    H1013844   5.002   1.783   2.539  1.1699  0.2420  0.3321
  679THF    H1113845   4.887   1.875   2.639  1.9069 -1.6057  1.2738
  679THF    H1213846   5.028   2.059   2.630 -0.8888 -0.5303  0.8650
  679THF    H1313847   5.148   1.962   2.547 -0.5949 -0.7286 -2.5000
  680THF     O113848   0.672   0.246   1.858  0.3584 -0.2682 -0.5218
  680THF     C213849   0.791   0.314   1.830  0.0165 -0.2979  0.4754
  680THF     C313850   0.684   0.112   1.820 -0.3189  0.3120 -0.1296
  680THF     H413851   0.801   0.387   1.911  1.8388 -0.9480  0.8744
  680THF     H513852   0.782   0.366   1.734  0.1518 -1.3416 -0.1074
  680THF     H613853   0.613   0.056   1.882 -1.0035  3.2923  2.0444
  680THF     H713854   0.659   0.098   1.715 -3.2721  0.9898  0.3725
  680THF     C813855   0.825   0.075   1.857 -0.3145  0.0341  0.3735
  680THF     C913856   0.903   0.201   1.812 -0.5483  0.1216 -0.1568
  680THF    H1013857   0.854  -0.024   1.822 -0.5400 -0.8001  2.3735
  680THF    H1113858   0.824   0.067   1.966 -2.4873  4.7534  0.9626
  680THF    H1213859   1.000   0.207   1.862  0.0432  0.2142 -1.2675
  680THF    H1313860   0.933   0.186   1.708  1.7446 -1.1575  0.6210
  681THF     O113861   2.973   1.751   0.262 -0.5723 -0.1872  0.0509
  681THF     C213862   2.949   1.847   0.365 -0.7619 -0.0513 -0.4824
  681THF     C313863   2.936   1.810   0.135  0.1577 -0.0749 -0.4901
  681THF     H413864   3.027   1.848   0.441 -1.9522  0.2303  0.7755
  681THF     H513865   2.859   1.802   0.408  0.5044 -1.9551  0.3301
  681THF     H613866   3.023   1.856   0.088  0.4015  2.5491  2.2215
  681THF     H713867   2.879   1.737   0.078 -0.6204  0.0595  0.0934
  681THF     C813868   2.843   1.923   0.175 -0.4744  0.1573 -0.7131
  681THF     C913869   2.912   1.974   0.301  0.7250 -0.4649  0.0839
  681THF    H1013870   2.739   1.898   0.196 -0.5801  0.1494 -1.2409
  681THF    H1113871   2.837   2.006   0.105 -1.6610  2.4812  1.9121
  681THF    H1213872   2.998   2.031   0.267  0.4733  0.1816  0.5104
  681THF    H1313873   2.849   2.044   0.356 -2.6973 -3.0106 -0.2401
  682THF     O113874   0.053   0.852   3.431 -0.1851  0.3961  0.8375
  682THF     C213875   0.165   0.875   3.343 -0.3321  0.1346  0.3180
  682THF     C313876   0.057   0.710   3.447 -0.0699 -0.3114 -0.1198
  682THF     H413877   0.256   0.866   3.403 -0.1174  1.5203  0.2415
  682THF     H513878   0.147   0.977   3.308 -1.5208  1.0913  3.3576
  682THF     H613879   0.144   0.695   3.511  1.8507  0.7368 -2.3487
  682THF     H713880  -0.031   0.664   3.494 -0.8691  0.1654 -1.1224
  682THF     C813881   0.088   0.653   3.316  0.0398 -0.7176 -1.3332
  682THF     C913882   0.158   0.763   3.238  0.0882  0.2500 -0.3641
  682THF    H1013883   0.002   0.630   3.253 -1.0685  4.0992 -1.9984
  682THF    H1113884   0.144   0.559   3.319  1.8658  0.3227  1.7198
  682THF    H1213885   0.260   0.741   3.209  0.3746  1.0447  0.0169
  682THF    H1313886   0.097   0.787   3.150 -0.9544  2.0560  0.7875
  683THF     O113887   2.975   4.675   1.678 -0.7807 -0.2867 -0.7929
  683THF     C213888   3.075   4.614   1.752 -0.4462  0.7242  1.1354
  683THF     C313889   3.022   4.691   1.551 -0.5167  0.3139  0.9846
  683THF     H413890   3.084   4.510   1.722 -0.2852  1.6433 -2.5963
  683THF     H513891   3.043   4.607   1.855  0.3094 -1.3294  1.2628
  683THF     H613892   3.021   4.598   1.494  1.3248  1.0500 -0.3600
  683THF     H713893   2.960   4.760   1.493  0.4950  1.4251  1.1891
  683THF     C813894   3.168   4.717   1.567 -0.0313  0.0825 -0.7775
  683THF     C913895   3.194   4.697   1.715 -0.1603 -0.5547  0.0930
  683THF    H1013896   3.185   4.815   1.522 -1.2991  0.3280 -0.7594
  683THF    H1113897   3.233   4.640   1.526 -0.4410 -0.7718  0.1422
  683THF    H1213898   3.290   4.656   1.747  0.3829  0.5417 -0.0829
  683THF    H1313899   3.177   4.783   1.778  0.6300  0.4546 -1.0269
  684THF     O113900   0.778   1.687   3.790  0.2914  0.2021  0.1146
  684THF     C213901   0.803   1.608   3.902 -0.7687  0.7497  0.5924
  684THF     C313902   0.665   1.628   3.718 -0.0895  0.3663  0.2278
  684THF     H413903   0.734   1.639   3.981 -1.3194  1.7027 -0.2427
  684THF     H513904   0.903   1.625   3.941 -0.7046  0.7387  0.4301
  684THF     H613905   0.579   1.693   3.729 -1.2046 -0.9654 -0.3571
  684THF     H713906   0.685   1.611   3.612 -1.9907 -2.6395  0.2375
  684THF     C813907   0.643   1.496   3.787  0.0002  0.0597 -0.4357
  684THF     C913908   0.771   1.469   3.858 -0.6037  0.2276 -0.4903
  684THF    H1013909   0.619   1.417   3.717 -1.8778 -0.5438  0.8271
  684THF    H1113910   0.563   1.495   3.861  0.4703 -0.5213  0.0745
  684THF    H1213911   0.744   1.407   3.943  0.6803  1.6340  0.9980
  684THF    H1313912   0.852   1.422   3.802  0.3120  0.9756  0.1941
  685THF     O113913   5.251   4.982   0.251  0.4380  0.0843 -0.4818
  685THF     C213914   5.299   5.039   0.372 -0.1436 -0.1371 -0.5297
  685THF     C313915   5.332   5.014   0.145  0.0011 -0.3351 -0.3902
  685THF     H413916   5.269   5.003   0.470  0.6259 -0.7031 -0.4944
  685THF     H513917   5.273   5.145   0.372 -0.3068 -0.1723  0.2366
  685THF     H613918   5.306   4.959   0.055 -0.2069  3.0729 -2.6071
  685THF     H713919   5.303   5.117   0.124 -2.6154 -0.8269  0.4060
  685THF     C813920   5.468   4.987   0.205 -0.1389 -0.3449 -0.0021
  685THF     C913921   5.453   5.025   0.354 -0.4200 -0.4292 -1.0112
  685THF    H1013922   5.548   5.034   0.148 -0.5530  0.7650  0.3073
  685THF    H1113923   5.488   4.880   0.214 -1.9523 -0.7657 -0.5841
  685THF    H1213924   5.477   4.952   0.430 -0.2493  0.3849 -0.2651
  685THF    H1313925   5.495   5.122   0.380 -0.4330 -0.6710 -0.0711
  686THF     O113926   2.192   1.027   2.504  0.2724  0.4459 -0.4693
  686THF     C213927   2.143   1.025   2.368 -0.3078  0.8247  0.1904
  686THF     C313928   2.327   1.018   2.509 -0.1776  0.3081 -0.2165
  686THF     H413929   2.146   1.130   2.337 -3.0879  1.1368  0.7177
  686THF     H513930   2.041   0.988   2.356 -0.1113 -0.5671  2.3390
  686THF     H613931   2.376   1.111   2.479  0.4392  0.1664  0.3178
  686THF     H713932   2.377   0.986   2.601 -1.0015 -0.6783 -0.0943
  686THF     C813933   2.355   0.915   2.401 -0.0648  0.5616  0.4870
  686THF     C913934   2.242   0.930   2.295  0.0044  0.1499 -0.6521
  686THF    H1013935   2.351   0.813   2.438  1.4108  0.2440 -0.1675
  686THF    H1113936   2.450   0.943   2.356 -0.0086  0.4770  0.5554
  686THF    H1213937   2.271   0.981   2.202 -0.6524 -0.7814 -1.3843
  686THF    H1313938   2.197   0.837   2.260 -0.2273 -0.4597  1.1502
  687THF     O113939   5.306   1.951   0.236  0.0343 -0.0304 -0.4072
  687THF     C213940   5.437   1.887   0.204  0.2414 -0.3030 -0.2501
  687THF     C313941   5.331   2.066   0.318  0.0662  0.4068 -0.2081
  687THF     H413942   5.494   1.938   0.126  0.7750  0.3493  0.5412
  687THF     H513943   5.418   1.786   0.169 -1.2375  0.8306 -3.0192
  687THF     H613944   5.335   2.154   0.254  1.5686 -0.2337 -1.0292
  687THF     H713945   5.264   2.095   0.400  3.2461  0.4042  2.5840
  687THF     C813946   5.475   2.048   0.373  1.0264  0.0386 -0.0666
  687THF     C913947   5.513   1.903   0.340  0.0837 -0.2067 -0.4504
  687THF    H1013948   5.483   2.070   0.480  3.0532  0.0972 -0.1844
  687THF    H1113949   5.543   2.119   0.327 -1.0883  2.0522 -0.2968
  687THF    H1213950   5.620   1.884   0.332 -0.2364 -4.5964  2.5642
  687THF    H1313951   5.474   1.838   0.418 -1.2279 -0.8846 -1.6267
  688THF     O113952   3.956   2.986   4.733  0.0818 -0.0147  0.1434
  688THF     C213953   3.919   3.115   4.705  0.5022  0.6085  0.0322
  688THF     C313954   4.042   2.941   4.635 -0.3731  0.1819  0.2049
  688THF     H413955   3.867   3.160   4.790  2.9290  1.2282  1.2656
  688THF     H513956   3.851   3.108   4.619 -1.4253 -0.0159  1.5307
  688THF     H613957   4.085   2.847   4.670  0.0180  0.5771  0.8172
  688THF     H713958   3.993   2.931   4.539  1.3488  0.7352 -0.7666
  688THF     C813959   4.139   3.052   4.635 -0.0962 -0.7960  0.1963
  688THF     C913960   4.056   3.176   4.666  0.5787  0.3784  0.1351
  688THF    H1013961   4.201   3.066   4.547  3.4991 -2.8576  2.1533
  688THF    H1113962   4.218   3.039   4.709  0.6490  2.0707  0.0468
  688THF    H1213963   4.095   3.237   4.747  2.0120  1.5686 -1.3857
  688THF    H1313964   4.046   3.241   4.579  2.2449  2.6224  1.5147
  689THF     O113965   3.122   2.234   1.785 -0.0042 -0.1166 -0.0999
  689THF     C213966   3.217   2.304   1.864 -0.5987  0.2320  0.5824
  689THF     C313967   3.053   2.334   1.705  0.0532 -0.2034  0.1369
  689THF     H413968   3.311   2.316   1.811 -0.8726 -0.1433  0.0063
  689THF     H513969   3.233   2.240   1.951  0.6970  0.0519  0.2276
  689THF     H613970   3.108   2.383   1.624  0.6179 -0.3610  0.4219
  689THF     H713971   2.961   2.305   1.653  0.1264  0.9884 -0.6846
  689THF     C813972   3.035   2.445   1.807 -0.3983 -0.1062 -0.2927
  689THF     C913973   3.154   2.430   1.906  0.6099  0.3514 -0.2011
  689THF    H1013974   2.941   2.427   1.859 -0.5412  0.5857 -0.2962
  689THF    H1113975   3.034   2.545   1.765 -1.0710 -0.3121 -0.7715
  689THF    H1213976   3.219   2.516   1.891  1.3919 -0.5179 -2.1704
  689THF    H1313977   3.127   2.432   2.012 -0.4122 -0.5368 -0.4225
  690THF     O113978   0.845   4.399   4.288  0.0636 -0.2889  0.0611
  690THF     C213979   0.919   4.485   4.375 -0.0175 -0.5356 -0.0484
  690THF     C313980   0.813   4.484   4.186 -0.0925 -0.1481 -0.4229
  690THF     H413981   1.007   4.500   4.313  0.6047 -2.0443  0.4287
  690THF     H513982   0.945   4.440   4.471 -0.1236  1.3878  0.9518
  690THF     H613983   0.893   4.488   4.112  0.5405  0.2255  0.2729
  690THF     H713984   0.737   4.444   4.118  0.3183  1.2443 -1.7348
  690THF     C813985   0.770   4.612   4.260  0.0839  0.1025 -0.4419
  690THF     C913986   0.816   4.596   4.400  0.1992 -0.3338  0.1463
  690THF    H1013987   0.664   4.637   4.267  0.1239 -0.1278  1.4932
  690THF    H1113988   0.819   4.696   4.211 -0.3787  1.5970  1.5391
  690THF    H1213989   0.860   4.686   4.445 -0.8924  0.6618 -0.7011
  690THF    H1313990   0.731   4.567   4.462 -0.0714 -0.1510 -0.1344
  691THF     O113991   4.764   4.523   1.932 -0.2327 -0.1941 -0.2245
  691THF     C213992   4.790   4.398   1.866  0.0204 -0.5044 -0.2738
  691THF     C313993   4.645   4.585   1.879 -0.1597  0.0852 -0.4376
  691THF     H413994   4.843   4.326   1.928  0.5157 -2.2485 -2.6052
  691THF     H513995   4.842   4.415   1.772  1.1639  1.6180  0.6813
  691THF     H613996   4.603   4.645   1.960 -0.9934 -0.3728 -0.5174
  691THF     H713997   4.653   4.652   1.794 -1.3033 -0.0102 -0.6472
  691THF     C813998   4.552   4.463   1.853  0.4402  0.2748 -0.0389
  691THF     C913999   4.642   4.344   1.867 -0.7212 -0.6011 -0.3191
  691THF    H1014000   4.526   4.474   1.747 -0.1260 -1.7991 -0.1707
  691THF    H1114001   4.460   4.466   1.912  0.4233 -0.7783  0.0130
  691THF    H1214002   4.631   4.291   1.961  1.1959 -1.6359 -0.6274
  691THF    H1314003   4.624   4.259   1.801  0.9226 -0.4868 -0.9561
  692THF     O114004   2.499   4.375   3.663  0.0125  0.1367  0.7453
  692THF     C214005   2.368   4.333   3.620 -0.1050 -0.2691 -0.4511
  692THF     C314006   2.549   4.479   3.579 -0.0213 -1.3418  0.0711
  692THF     H414007   2.291   4.406   3.645 -0.5564 -1.5027  2.1617
  692THF     H514008   2.330   4.240   3.664 -1.5948  1.0515  1.2273
  692THF     H614009   2.497   4.570   3.610  0.0186 -1.5549  0.7651
  692THF     H714010   2.657   4.495   3.583  0.1271 -2.2582 -0.0603
  692THF     C814011   2.496   4.434   3.440 -0.8397  0.2425 -0.0770
  692THF     C914012   2.388   4.336   3.469 -0.3080  0.3981 -0.2096
  692THF    H1014013   2.571   4.395   3.371 -0.6580  0.4028  0.0305
  692THF    H1114014   2.455   4.517   3.382  0.4749  1.6092  0.8890
  692THF    H1214015   2.294   4.369   3.424 -0.7990  0.1263  0.5899
  692THF    H1314016   2.403   4.234   3.433 -2.0706  0.1982 -0.5017
  693THF     O114017   3.798   4.366   4.482  0.4823  0.4296  0.4255
  693THF     C214018   3.678   4.422   4.533  0.1414 -0.3271 -0.1527
  693THF     C314019   3.774   4.296   4.353  0.5612 -0.2151 -0.6981
  693THF     H414020   3.688   4.531   4.524 -0.0088 -0.3479 -0.6059
  693THF     H514021   3.674   4.397   4.639  1.9481  2.8441  0.8157
  693THF     H614022   3.850   4.327   4.281  0.6565  2.7960  0.5261
  693THF     H714023   3.770   4.189   4.371 -0.7038 -0.1594 -0.5571
  693THF     C814024   3.637   4.350   4.309 -0.1976 -0.1282  0.6349
  693THF     C914025   3.564   4.373   4.444 -0.4855 -0.1445 -0.7080
  693THF    H1014026   3.583   4.285   4.240 -0.0995  2.4918 -2.1217
  693THF    H1114027   3.659   4.440   4.252 -1.3967 -0.6795 -0.7673
  693THF    H1214028   3.489   4.451   4.432 -1.0588 -0.7558 -1.1463
  693THF    H1314029   3.530   4.277   4.482  2.3837 -0.2332  2.1061
  694THF     O114030   5.118   0.185   4.052 -0.6139 -0.2116 -0.8084
  694THF     C214031   5.027   0.282   4.100 -0.6955  0.1869 -0.7408
  694THF     C314032   5.231   0.192   4.128 -0.8556 -0.9328 -0.7214
  694THF     H414033   4.961   0.246   4.179 -1.9785  1.5850 -1.1210
  694THF     H514034   4.969   0.309   4.011 -1.5742 -0.0184 -0.2430
  694THF     H614035   5.199   0.145   4.221 -0.4589 -0.2690 -0.2444
  694THF     H714036   5.311   0.133   4.083 -1.6253 -1.8617 -0.8903
  694THF     C814037   5.262   0.337   4.147 -0.5808  0.4583  0.1192
  694THF     C914038   5.123   0.398   4.145 -0.0568  0.5227  0.0998
  694THF    H1014039   5.319   0.378   4.064  1.0240 -1.9957 -0.0900
  694THF    H1114040   5.322   0.353   4.237  1.4515 -1.3137 -0.8166
  694THF    H1214041   5.092   0.436   4.242  2.5812  2.5451  0.2878
  694THF    H1314042   5.125   0.486   4.081 -0.4291 -0.6788 -1.6496
  695THF     O114043   1.264   3.237   0.891 -0.3579  0.6156 -0.1800
  695THF     C214044   1.336   3.313   0.795 -0.8199 -0.1322 -0.2095
  695THF     C314045   1.350   3.226   1.009 -0.0120 -0.5965 -0.0862
  695THF     H414046   1.272   3.370   0.727 -1.1844  1.4193  1.3663
  695THF     H514047   1.398   3.250   0.730  3.2375  0.0418  3.0479
  695THF     H614048   1.292   3.179   1.088 -0.2426 -2.0615 -1.0820
  695THF     H714049   1.430   3.157   0.983  1.4924  0.9915  0.1399
  695THF     C814050   1.410   3.361   1.026 -0.4555  0.5019  0.6583
  695THF     C914051   1.420   3.404   0.880  0.6342  0.2911  0.7175
  695THF    H1014052   1.507   3.343   1.073 -0.8866  1.8872  2.1592
  695THF    H1114053   1.352   3.434   1.082 -1.5937  1.1818 -1.2964
  695THF    H1214054   1.384   3.505   0.864  1.0020  0.5765  1.6444
  695THF    H1314055   1.523   3.419   0.848  0.3185  0.6803 -0.1612
  696THF     O114056   4.339   1.481   4.521 -0.3393 -0.0168  0.5772
  696THF     C214057   4.415   1.566   4.612  0.4222  0.1027 -0.6515
  696THF     C314058   4.259   1.394   4.600 -0.5127  0.9078  0.4166
  696THF     H414059   4.396   1.664   4.571  1.6156  0.4237 -0.4935
  696THF     H514060   4.520   1.541   4.596  0.3093 -0.8852  0.0197
  696THF     H614061   4.163   1.363   4.560 -1.8037  3.3773  1.3484
  696THF     H714062   4.313   1.303   4.627  1.8331  1.8397 -0.8370
  696THF     C814063   4.244   1.460   4.740 -0.3573  0.2349  0.0584
  696THF     C914064   4.377   1.535   4.754  0.4409  0.1276 -0.2282
  696THF    H1014065   4.217   1.404   4.830 -1.6058 -2.4705 -1.8833
  696THF    H1114066   4.165   1.534   4.729 -1.7322 -0.8837  1.8173
  696THF    H1214067   4.368   1.624   4.816  0.9144  1.3069 -1.7969
  696THF    H1314068   4.451   1.467   4.797  1.3757  0.5053 -1.2005
  697THF     O114069   1.962   0.298   2.538  0.0344 -0.2090 -0.7354
  697THF     C214070   2.026   0.352   2.425  0.3249  0.5789  0.6728
  697THF     C314071   1.845   0.376   2.555 -0.0976  0.1027  0.5235
  697THF     H414072   1.968   0.325   2.337  0.3796  0.3181  0.7163
  697THF     H514073   2.127   0.316   2.405 -0.1929 -0.6741  0.2080
  697THF     H614074   1.767   0.319   2.504 -1.2485 -0.2988  2.6120
  697THF     H714075   1.806   0.390   2.656 -1.9851  1.4497 -0.3346
  697THF     C814076   1.867   0.516   2.492 -0.3682 -0.5347 -0.2427
  697THF     C914077   2.010   0.502   2.443  0.2005 -0.3411 -0.2121
  697THF    H1014078   1.846   0.588   2.571 -0.9520 -1.5133  0.5045
  697THF    H1114079   1.791   0.541   2.418 -0.7758 -0.2357  0.2728
  697THF    H1214080   2.037   0.559   2.354  1.3826 -0.9381 -0.2492
  697THF    H1314081   2.070   0.552   2.520  1.2404 -2.1103  0.1784
  698THF     O114082   1.929   5.165   5.277 -0.0162  0.2990 -0.4648
  698THF     C214083   1.947   5.171   5.418 -0.5384 -0.8205  0.2999
  698THF     C314084   1.832   5.263   5.247 -0.3278 -0.2245  0.5040
  698THF     H414085   2.054   5.183   5.435 -0.5748  0.1406 -0.0570
  698THF     H514086   1.924   5.076   5.464  0.2962 -0.2609  1.9429
  698THF     H614087   1.850   5.303   5.148  0.2448 -1.6037  0.0309
  698THF     H714088   1.738   5.210   5.240  0.1465 -1.0864  0.5467
  698THF     C814089   1.820   5.373   5.362 -0.8708 -0.3752 -0.2877
  698THF     C914090   1.860   5.288   5.476 -0.5949  0.3605  0.4918
  698THF    H1014091   1.717   5.409   5.374 -0.4969  0.0638  2.1196
  698THF    H1114092   1.889   5.456   5.351  0.2292 -1.3367 -0.8492
  698THF    H1214093   1.920   5.343   5.548  3.5770  0.1031 -2.4089
  698THF    H1314094   1.784   5.234   5.532  2.0451 -1.9606  2.1559
  699THF     O114095   1.028   1.427   5.028  0.4281  0.5485  0.0886
  699THF     C214096   1.082   1.552   5.078 -0.4583  0.1533  0.1316
  699THF     C314097   0.922   1.402   5.115  0.5202 -0.2348  0.3148
  699THF     H414098   1.144   1.601   5.004 -2.5181  0.7063 -1.3112
  699THF     H514099   1.146   1.535   5.165 -0.4343  1.5315  0.4058
  699THF     H614100   0.841   1.338   5.082 -0.2560  0.7020  0.3679
  699THF     H714101   0.961   1.344   5.199 -0.4303 -0.1042  0.8547
  699THF     C814102   0.883   1.531   5.180  0.3338  0.9550 -0.0202
  699THF     C914103   0.967   1.635   5.120 -0.0645  0.1773  0.6186
  699THF    H1014104   0.902   1.540   5.287  0.9135  1.4709 -0.1597
  699THF    H1114105   0.777   1.549   5.161 -0.2428 -1.7377  0.3006
  699THF    H1214106   0.906   1.683   5.043  1.4008 -0.9704 -1.3529
  699THF    H1314107   0.989   1.712   5.194  0.7445 -0.4522  1.0369
  700THF     O114108   1.944   2.747   5.219 -0.2918  0.6705  0.1202
  700THF     C214109   1.952   2.877   5.272 -0.4625  0.3372 -0.2724
  700THF     C314110   2.063   2.675   5.255 -0.1471 -0.3019 -0.8908
  700THF     H414111   1.932   2.865   5.378  1.8635 -0.5824  0.1080
  700THF     H514112   1.872   2.940   5.232 -1.3306 -0.4630  0.1486
  700THF     H614113   2.041   2.618   5.346 -1.2820  1.0678 -0.2762
  700THF     H714114   2.103   2.610   5.177  0.1848 -0.7466 -0.3592
  700THF     C814115   2.169   2.782   5.269  1.0904  0.3855 -0.3648
  700THF     C914116   2.093   2.907   5.233 -0.0283 -0.2490 -0.4164
  700THF    H1014117   2.260   2.764   5.212  1.5037 -1.8615  0.9072
  700THF    H1114118   2.196   2.778   5.375 -3.9069 -0.4104  1.1445
  700THF    H1214119   2.142   2.995   5.275 -1.4873  1.4422 -2.1027
  700THF    H1314120   2.094   2.920   5.125 -2.8626 -2.2439 -0.7805
  701THF     O114121   3.970   0.260   2.868 -0.2245  0.1564 -0.3407
  701THF     C214122   3.870   0.334   2.939  0.3524  0.2981 -0.3114
  701THF     C314123   3.920   0.125   2.853 -0.0840  0.6977 -0.0302
  701THF     H414124   3.789   0.363   2.872 -0.9283  1.2350  1.5539
  701THF     H514125   3.918   0.422   2.982  2.3984 -1.9178  2.2716
  701THF     H614126   3.833   0.129   2.787  0.7903 -3.6355 -1.7848
  701THF     H714127   3.990   0.049   2.822 -0.2329  0.2843  0.6304
  701THF     C814128   3.878   0.096   3.008 -0.3385  0.6486  0.3339
  701THF     C914129   3.825   0.240   3.051 -0.6156  0.5534 -0.0176
  701THF    H1014130   3.959   0.061   3.072 -0.7846  1.7232  1.5399
  701THF    H1114131   3.794   0.027   3.002  0.0580 -0.0571  2.2609
  701THF    H1214132   3.717   0.236   3.062 -0.3782 -1.7600  3.0572
  701THF    H1314133   3.880   0.269   3.141  0.6076 -1.3069 -0.0981
  702THF     O114134   3.645   0.766   3.674 -0.0764  0.3347 -0.1161
  702THF     C214135   3.687   0.752   3.540  0.7602  0.5880  0.2080
  702THF     C314136   3.590   0.901   3.688 -0.4540 -0.8942  0.7013
  702THF     H414137   3.702   0.647   3.516  0.5474  0.7699 -0.7444
  702THF     H514138   3.787   0.795   3.535  3.0749 -4.0687  0.8417
  702THF     H614139   3.534   0.918   3.780 -2.8295 -0.9508 -0.6594
  702THF     H714140   3.669   0.975   3.699  1.4062 -2.6015 -0.6707
  702THF     C814141   3.508   0.919   3.555  0.0782  0.5394 -0.2751
  702THF     C914142   3.577   0.826   3.459  0.7506 -0.7829 -0.0811
  702THF    H1014143   3.508   1.023   3.521 -1.6143  0.5583 -0.3176
  702THF    H1114144   3.402   0.895   3.569  0.1807 -0.4862 -1.1543
  702THF    H1214145   3.505   0.759   3.413 -0.4485  0.2933  0.1536
  702THF    H1314146   3.613   0.889   3.378 -1.7298 -0.2325 -0.8543
  703THF     O114147   2.615   2.693   2.610 -0.4886 -0.5321 -0.6085
  703THF     C214148   2.633   2.647   2.484  0.1097  0.6373  0.3042
  703THF     C314149   2.502   2.781   2.604  0.5278  0.4335 -0.1092
  703THF     H414150   2.683   2.554   2.457 -0.4994  0.4612 -0.2725
  703THF     H514151   2.688   2.727   2.434 -0.8610  0.6473 -0.7940
  703THF     H614152   2.436   2.776   2.690  2.2310  1.7176  1.3444
  703THF     H714153   2.537   2.884   2.608 -1.0357  0.9936 -0.2382
  703THF     C814154   2.430   2.758   2.468  0.0170 -0.5106 -0.4350
  703THF     C914155   2.494   2.633   2.428 -0.1225  0.6388  0.0472
  703THF    H1014156   2.460   2.837   2.399 -0.6895 -0.9483 -1.2709
  703THF    H1114157   2.322   2.744   2.474 -0.2488  1.8770  1.7145
  703THF    H1214158   2.457   2.538   2.466  1.2947  0.5958  1.4447
  703THF    H1314159   2.493   2.617   2.320 -0.1392 -0.2606  0.1735
  704THF     O114160   2.168   0.248   3.356 -0.1728 -0.2811  0.4230
  704THF     C214161   2.136   0.374   3.288 -0.1108 -0.0928 -0.5494
  704THF     C314162   2.207   0.276   3.492  0.6229  0.2844 -0.1731
  704THF     H414163   2.028   0.385   3.280  0.0948  1.9917 -1.2233
  704THF     H514164   2.184   0.372   3.190  0.2076 -0.1600 -0.3934
  704THF     H614165   2.116   0.298   3.549 -0.3812  0.3309 -1.7143
  704THF     H714166   2.258   0.193   3.539  0.5566  0.0011 -0.5926
  704THF     C814167   2.290   0.400   3.470  0.3598  0.3062  0.0427
  704THF     C914168   2.195   0.479   3.378  0.5043  0.1120 -0.2381
  704THF    H1014169   2.382   0.385   3.412  0.6428 -1.4677  0.8815
  704THF    H1114170   2.312   0.450   3.564  1.8424 -2.8468  1.5135
  704THF    H1214171   2.109   0.515   3.435 -0.0967 -0.6593 -0.6318
  704THF    H1314172   2.237   0.548   3.305 -2.5452  1.0134 -1.3030
  705THF     O114173   2.580   4.418   0.712 -0.1104  0.2548 -0.3259
  705THF     C214174   2.578   4.304   0.627 -0.2833 -0.4995 -0.2085
  705THF     C314175   2.595   4.372   0.849  0.7500  1.2450 -0.4321
  705THF     H414176   2.671   4.248   0.625  0.0381 -0.1442  1.8381
  705THF     H514177   2.548   4.345   0.531  1.1582  1.7603  0.2156
  705THF     H614178   2.695   4.340   0.877 -0.0572  0.6652  2.0391
  705THF     H714179   2.571   4.458   0.911  1.7200  0.1650  1.5128
  705THF     C814180   2.504   4.250   0.853 -0.0057 -0.1194 -0.0688
  705THF     C914181   2.474   4.217   0.700 -0.0820  0.8717 -0.0740
  705THF    H1014182   2.415   4.276   0.911  1.4130 -0.2274  2.2490
  705THF    H1114183   2.550   4.167   0.904  1.0822  0.2367 -0.4450
  705THF    H1214184   2.486   4.110   0.683  0.3944  0.9022  0.0705
  705THF    H1314185   2.373   4.244   0.668  0.1797  1.1066 -0.7107
  706THF     O114186   1.212   5.018   5.468 -0.1446  0.4248  0.0253
  706THF     C214187   1.313   5.062   5.554  0.2613 -0.3161 -0.1018
  706THF     C314188   1.170   5.124   5.379 -0.2471  0.2149 -0.2455
  706THF     H414189   1.366   4.977   5.596  0.5034  0.2697  0.7890
  706THF     H514190   1.262   5.123   5.629 -1.5523 -1.0738 -0.6477
  706THF     H614191   1.130   5.071   5.293  1.9615 -0.8961 -0.6747
  706THF     H714192   1.091   5.192   5.409  0.0979 -0.2034  1.7745
  706THF     C814193   1.296   5.203   5.347 -0.1774  0.4509 -0.2789
  706THF     C914194   1.395   5.158   5.462 -0.7280  0.5458 -0.0522
  706THF    H1014195   1.274   5.308   5.363  0.5985  0.8270 -1.5028
  706THF    H1114196   1.326   5.185   5.243 -0.4693 -1.4347 -0.0734
  706THF    H1214197   1.466   5.105   5.398 -1.4756 -0.0758 -0.3809
  706THF    H1314198   1.453   5.230   5.520 -1.1134  1.0399 -0.2860
  707THF     O114199   1.171   4.789   1.868 -0.1307 -0.0725  0.5641
  707THF     C214200   1.078   4.874   1.936 -0.6282  0.5758 -0.0659
  707THF     C314201   1.156   4.659   1.915 -0.7955  0.1863 -0.1392
  707THF     H414202   1.066   4.965   1.877  1.3409  0.6608 -0.3823
  707THF     H514203   1.129   4.906   2.028 -0.5663 -0.1321  0.1497
  707THF     H614204   1.205   4.591   1.845 -1.6994 -1.0802  0.4017
  707THF     H714205   1.202   4.656   2.014  0.8494  1.6316 -0.8208
  707THF     C814206   1.006   4.640   1.916 -0.1246 -1.0501 -0.2949
  707THF     C914207   0.953   4.787   1.954  0.4008  0.2793  0.2519
  707THF    H1014208   0.972   4.561   1.982  1.1712 -0.1627  1.5356
  707THF    H1114209   0.973   4.618   1.814 -2.6982 -0.5476  0.3715
  707THF    H1214210   0.879   4.827   1.885 -1.3813 -4.3410 -0.9051
  707THF    H1314211   0.922   4.795   2.059  1.0803  0.5173  0.4383
  708THF     O114212   3.246   4.098   5.383 -0.0169  0.4043 -0.2225
  708THF     C214213   3.173   4.203   5.324  0.0402  0.3226  0.7053
  708THF     C314214   3.357   4.059   5.301 -0.6662  0.9049 -0.7876
  708THF     H414215   3.128   4.263   5.403 -2.4431 -0.9826  0.4045
  708THF     H514216   3.099   4.154   5.260 -0.0843 -0.9014  1.7396
  708THF     H614217   3.441   4.024   5.361 -1.8026  1.2200  1.0662
  708THF     H714218   3.324   3.980   5.234  0.4003  0.0777 -0.3763
  708THF     C814219   3.391   4.186   5.227 -0.8326  1.0644 -0.6255
  708THF     C914220   3.269   4.270   5.225 -0.0302 -0.4052 -0.8893
  708THF    H1014221   3.424   4.166   5.125  0.8873  2.1891 -0.3418
  708THF    H1114222   3.479   4.226   5.277 -0.1877 -2.1888  1.1180
  708THF    H1214223   3.280   4.377   5.242 -1.6944 -0.1372 -1.2965
  708THF    H1314224   3.219   4.277   5.128 -1.7479  0.4077  0.0139
  709THF     O114225   3.979   1.066   2.089  0.3205 -0.0964  0.2401
  709THF     C214226   4.093   0.987   2.128 -0.1651  0.3001 -0.4780
  709THF     C314227   3.897   1.079   2.206 -0.4814  0.3889  0.2271
  709THF     H414228   4.182   1.005   2.068  1.1358 -0.5336  1.1137
  709THF     H514229   4.060   0.883   2.118  1.4446 -0.1713 -1.1699
  709THF     H614230   3.828   1.161   2.187 -1.2051 -0.5457 -1.3883
  709THF     H714231   3.845   0.986   2.225 -0.0866  0.4352  1.6766
  709THF     C814232   3.998   1.094   2.315  0.3466 -0.1921 -0.1890
  709THF     C914233   4.121   1.018   2.277  0.0358 -0.1713  0.5510
  709THF    H1014234   3.945   1.040   2.393 -0.1467 -1.2466 -1.2303
  709THF    H1114235   4.014   1.198   2.344 -3.1351 -0.0816  1.7856
  709THF    H1214236   4.207   1.085   2.284 -0.0796 -0.0809  1.1086
  709THF    H1314237   4.140   0.927   2.334 -1.8326  1.7903  4.7140
  710THF     O114238   1.004   2.558   1.220  0.1626  0.2026 -0.0494
  710THF     C214239   0.976   2.505   1.086  0.0015 -0.1411  0.3075
  710THF     C314240   1.025   2.700   1.197 -0.1074 -0.3068 -0.9214
  710THF     H414241   0.959   2.398   1.070 -0.5063 -0.0918  0.5037
  710THF     H514242   1.061   2.518   1.020  0.9924  0.1261  1.6039
  710THF     H614243   1.024   2.759   1.288 -0.3958  0.5093 -1.4473
  710THF     H714244   1.117   2.720   1.143  0.0236 -0.0617 -0.6100
  710THF     C814245   0.907   2.735   1.102 -0.0712 -0.9800 -0.3521
  710THF     C914246   0.866   2.599   1.041  0.1442  0.1651  0.1112
  710THF    H1014247   0.947   2.791   1.018  1.3389  0.1247  0.9924
  710THF    H1114248   0.830   2.788   1.159  1.9799  1.8865 -0.0557
  710THF    H1214249   0.768   2.574   1.080 -0.2183  1.3117 -0.0220
  710THF    H1314250   0.848   2.611   0.934  0.4921  1.9822  0.2072
  711THF     O114251   2.790   5.059   1.165 -0.5932 -0.3235  0.5291
  711THF     C214252   2.795   5.072   1.027 -0.0742  0.7942  0.4640
  711THF     C314253   2.922   5.054   1.209 -0.2679 -0.0850  0.0441
  711THF     H414254   2.706   5.117   0.983  0.6848  0.1445 -1.8859
  711THF     H514255   2.802   4.968   0.996 -1.9228  0.8930 -0.4720
  711THF     H614256   2.940   5.109   1.301  0.1682 -0.6968  0.3300
  711THF     H714257   2.944   4.951   1.234  2.1896  0.3157 -0.2266
  711THF     C814258   3.012   5.093   1.098 -0.1655  0.3681 -0.0679
  711THF     C914259   2.919   5.155   0.998  0.1517  0.2427 -0.1727
  711THF    H1014260   3.062   5.003   1.062  1.5784  0.7948  1.1467
  711THF    H1114261   3.095   5.156   1.130  1.2587 -2.4233  2.0706
  711THF    H1214262   2.906   5.260   1.025  0.3131  0.2670 -0.1929
  711THF    H1314263   2.959   5.145   0.897 -0.8272 -1.1874 -0.4566
  712THF     O114264   5.246   1.477   4.915  0.9072 -0.1556  0.1601
  712THF     C214265   5.184   1.563   5.020 -0.9386  0.5587  0.3445
  712THF     C314266   5.213   1.525   4.789  0.4423  0.2238 -0.0306
  712THF     H414267   5.231   1.553   5.118 -1.5094  1.3684  0.7090
  712THF     H514268   5.082   1.527   5.033 -0.8241  0.1602  0.1496
  712THF     H614269   5.279   1.483   4.713  0.2735 -0.4087  0.1604
  712THF     H714270   5.111   1.492   4.769 -0.6158  1.9398  2.0672
  712THF     C814271   5.214   1.676   4.806 -0.1173  0.2794 -0.0240
  712THF     C914272   5.186   1.702   4.958 -0.6095  1.0903  0.0757
  712THF    H1014273   5.158   1.726   4.728  1.3156 -0.0023 -1.2785
  712THF    H1114274   5.311   1.721   4.786  0.1395  0.0052  0.5745
  712THF    H1214275   5.256   1.769   5.009 -1.3299  0.6830  1.6927
  712THF    H1314276   5.086   1.742   4.977 -1.1620 -0.1045 -0.2199
  713THF     O114277   5.241   2.475   0.469 -0.3099  0.1972  0.1806
  713THF     C214278   5.337   2.578   0.496 -0.1580 -0.0460  0.3133
  713THF     C314279   5.235   2.381   0.574 -0.6891  0.0058  0.6197
  713THF     H414280   5.293   2.671   0.531 -0.9899 -0.5749  0.6828
  713THF     H514281   5.392   2.603   0.405  2.4322  0.9696  2.0073
  713THF     H614282   5.130   2.393   0.604 -1.1253  0.8579 -1.0924
  713THF     H714283   5.270   2.284   0.539  0.0199  0.7355 -0.7868
  713THF     C814284   5.330   2.437   0.681 -0.1172  0.7950  0.0461
  713THF     C914285   5.428   2.521   0.605 -0.1754  0.0022 -0.3228
  713THF    H1014286   5.375   2.361   0.744 -0.3830  2.8016  2.8667
  713THF    H1114287   5.264   2.497   0.744 -1.3504  0.3873 -0.8173
  713THF    H1214288   5.479   2.602   0.658 -1.0350 -0.9756  2.1169
  713THF    H1314289   5.502   2.457   0.558 -0.1462  0.3097 -0.7087
  714THF     O114290   4.554   3.142   2.597 -0.0420  0.3659  0.2706
  714THF     C214291   4.424   3.201   2.633  0.7810  0.0839  0.3142
  714THF     C314292   4.634   3.130   2.711 -0.9993 -0.1075  0.0892
  714THF     H414293   4.332   3.156   2.595  0.5385 -1.4430  2.5169
  714THF     H514294   4.422   3.303   2.593  3.1404 -0.5455 -1.6429
  714THF     H614295   4.624   3.024   2.735  3.2363 -0.8050 -0.5010
  714THF     H714296   4.742   3.141   2.703 -1.0069 -0.2145 -0.1793
  714THF     C814297   4.566   3.216   2.816  0.8305  0.9519 -0.0412
  714THF     C914298   4.419   3.203   2.785 -0.7641  0.7223 -0.9792
  714THF    H1014299   4.593   3.321   2.804  1.1760  0.8554 -0.1008
  714THF    H1114300   4.604   3.193   2.915  0.5739 -3.1501 -0.7208
  714THF    H1214301   4.369   3.117   2.830  0.6196  0.7574  0.7501
  714THF    H1314302   4.361   3.290   2.816 -0.8607  1.3836 -2.8683
  715THF     O114303   0.328   2.827   0.704 -0.1978  0.4414 -0.0383
  715THF     C214304   0.374   2.694   0.693  0.1094 -0.3852 -0.7900
  715THF     C314305   0.427   2.911   0.649  0.1362  0.1037 -0.4098
  715THF     H414306   0.353   2.671   0.588  0.0826  1.0673 -1.1201
  715THF     H514307   0.318   2.620   0.751 -0.9475 -0.7544 -2.2334
  715THF     H614308   0.424   2.935   0.543  1.2383  3.0739  0.1294
  715THF     H714309   0.428   3.009   0.697 -0.1846 -0.5657  1.0171
  715THF     C814310   0.562   2.844   0.678  0.6307 -0.0494  0.0009
  715THF     C914311   0.520   2.713   0.737 -1.0469 -0.2165 -0.6721
  715THF    H1014312   0.625   2.904   0.743 -0.1552  1.6806 -0.7716
  715THF    H1114313   0.616   2.829   0.585 -0.2809 -0.0193 -0.5503
  715THF    H1214314   0.583   2.631   0.701  1.2271  1.3422 -0.4334
  715THF    H1314315   0.518   2.713   0.846  0.5006 -0.1370 -0.6235
  716THF     O114316   2.824   5.111   2.553  0.1408 -0.5946  0.2383
  716THF     C214317   2.918   5.014   2.586  0.1773 -0.1508 -0.1779
  716THF     C314318   2.882   5.205   2.465  0.0306 -0.0139 -0.8639
  716THF     H414319   2.861   4.924   2.613  0.8834 -1.0741 -1.6408
  716THF     H514320   2.990   5.044   2.662  0.6564  1.0739 -1.0830
  716THF     H614321   2.807   5.256   2.405  0.5880  1.7836 -0.0861
  716THF     H714322   2.933   5.283   2.522 -0.7704  0.8983 -1.3564
  716THF     C814323   2.968   5.119   2.373  0.7218  0.1159  0.2247
  716THF     C914324   2.997   4.990   2.456  0.4818  0.0447  0.5867
  716THF    H1014325   3.062   5.170   2.353 -0.0418  1.3044 -0.4513
  716THF    H1114326   2.908   5.103   2.284 -3.4716  0.4584  2.7307
  716THF    H1214327   2.948   4.906   2.407  0.1189  0.3676  0.3908
  716THF    H1314328   3.104   4.975   2.467  0.7462 -0.1236 -1.7897
  717THF     O114329   0.958   0.939   1.687  0.3781  0.1908 -0.6761
  717THF     C214330   0.950   0.827   1.605  0.2417 -0.2405 -0.0969
  717THF     C314331   0.995   1.059   1.617  0.8448  0.2865  0.3496
  717THF     H414332   0.873   0.758   1.639  0.0347 -1.3241 -2.5447
  717THF     H514333   1.050   0.783   1.603  0.7170  0.8292 -0.7779
  717THF     H614334   0.959   1.149   1.667  1.5565  2.7070 -3.1682
  717THF     H714335   1.103   1.067   1.617  0.8986 -0.3201  1.0200
  717THF     C814336   0.942   1.032   1.475  0.1807 -0.4402 -0.6428
  717THF     C914337   0.914   0.880   1.467  0.1997 -0.2548  0.1786
  717THF    H1014338   1.015   1.084   1.413 -0.5043  2.4057  0.7759
  717THF    H1114339   0.843   1.073   1.455  0.4508  0.2233 -0.6490
  717THF    H1214340   0.808   0.877   1.443  0.2576 -1.2896  0.0259
  717THF    H1314341   0.968   0.832   1.386  0.7827  1.3474 -0.4407
  718THF     O114342   0.656   3.153   5.152  0.4091  0.8812  0.2242
  718THF     C214343   0.717   3.024   5.124 -0.4888 -0.4644 -0.4337
  718THF     C314344   0.743   3.238   5.219 -0.1578 -0.3332 -0.1216
  718THF     H414345   0.677   2.964   5.041 -1.1850  1.7835 -1.8068
  718THF     H514346   0.708   2.974   5.220 -0.0219  0.1505 -0.0727
  718THF     H614347   0.715   3.343   5.205 -0.9535 -0.6172 -0.7454
  718THF     H714348   0.741   3.207   5.323  1.4810 -2.5875 -0.6948
  718THF     C814349   0.881   3.197   5.163  0.2421  0.0110 -0.1448
  718THF     C914350   0.859   3.066   5.082  0.3179  0.5849  0.0744
  718THF    H1014351   0.941   3.182   5.253 -2.9409 -0.1830  2.0816
  718THF    H1114352   0.930   3.271   5.100 -0.2819  0.5452  0.0745
  718THF    H1214353   0.866   3.089   4.976 -2.3717  2.8751  0.2730
  718THF    H1314354   0.933   2.990   5.102  0.6494  0.8292 -0.2168
  719THF     O114355   2.800   0.321   1.972  0.4168 -0.3495 -0.7977
  719THF     C214356   2.795   0.469   1.976  0.0054  0.3991 -0.2065
  719THF     C314357   2.862   0.279   2.090  0.5893 -0.3135 -0.3913
  719THF     H414358   2.723   0.503   2.051  0.5795  1.6787 -0.2000
  719THF     H514359   2.759   0.504   1.880  0.7582  2.2617  0.1548
  719THF     H614360   2.788   0.279   2.171  0.5020 -0.7254 -0.4659
  719THF     H714361   2.905   0.179   2.079  1.2681 -0.0104 -0.5031
  719THF     C814362   2.977   0.381   2.105 -0.4407  0.0676  0.0907
  719THF     C914363   2.935   0.506   2.036 -0.1867  0.1178  0.0321
  719THF    H1014364   3.069   0.341   2.062  0.3740  0.3097  1.5277
  719THF    H1114365   2.997   0.405   2.210  0.6304  0.5898 -0.2085
  719THF    H1214366   2.943   0.592   2.103  2.7887 -0.2154  0.2106
  719THF    H1314367   2.999   0.516   1.949 -0.7287  0.4130 -0.3376
  720THF     O114368   5.059   5.057   2.899  0.2965 -0.3078  0.1417
  720THF     C214369   5.193   5.060   2.956 -1.0493  0.2540  0.4508
  720THF     C314370   4.977   5.146   2.972 -0.4077 -0.3341 -0.4236
  720THF     H414371   5.259   5.049   2.870 -1.8912  1.0795 -0.3175
  720THF     H514372   5.199   4.979   3.029 -1.3645 -0.7830 -0.6424
  720THF     H614373   4.881   5.159   2.923 -0.5257  0.1215 -0.0813
  720THF     H714374   4.958   5.108   3.072 -1.2807 -1.1461 -0.8854
  720THF     C814375   5.075   5.259   2.997 -0.1354  0.1587  0.3616
  720THF     C914376   5.211   5.196   3.026 -0.1168  0.6702 -0.1055
  720THF    H1014377   5.047   5.324   3.080 -1.6342  0.0982 -0.0627
  720THF    H1114378   5.063   5.320   2.907 -0.4165 -0.3907  0.0182
  720THF    H1214379   5.292   5.245   2.971  0.2498  0.1850 -0.0015
  720THF    H1314380   5.246   5.190   3.129 -0.1802  0.2336 -0.1083
  721THF     O114381   0.601   1.523   5.452 -0.1022  0.5242 -0.3995
  721THF     C214382   0.633   1.403   5.376  0.5640 -0.2735 -0.7397
  721THF     C314383   0.458   1.525   5.472 -0.6081 -0.0176 -0.5373
  721THF     H414384   0.740   1.389   5.370  0.5606 -1.5015  1.1086
  721THF     H514385   0.600   1.411   5.273 -0.0050 -3.8206 -0.9537
  721THF     H614386   0.434   1.598   5.550  2.2897 -1.4841  1.9491
  721THF     H714387   0.411   1.548   5.376 -0.5076  2.8501  0.0104
  721THF     C814388   0.433   1.380   5.512 -0.7588 -0.5583  0.1243
  721THF     C914389   0.544   1.299   5.447  0.7367 -0.0587 -0.4732
  721THF    H1014390   0.335   1.346   5.480 -0.2761 -0.6799 -1.2617
  721THF    H1114391   0.427   1.378   5.621 -1.6253 -2.8224  0.0815
  721THF    H1214392   0.606   1.241   5.514 -3.2548 -1.4794  2.3291
  721THF    H1314393   0.493   1.240   5.371 -0.6727 -0.1163  0.4789
  722THF     O114394   4.630   2.237   2.873  0.5931 -0.0592  0.0721
  722THF     C214395   4.563   2.347   2.821  0.5839 -0.0670 -0.0455
  722THF     C314396   4.630   2.130   2.782 -0.1671  0.2043  0.0004
  722THF     H414397   4.634   2.429   2.830  0.8686 -0.1789 -1.0886
  722THF     H514398   4.469   2.370   2.871  0.2044 -3.5496  1.1012
  722THF     H614399   4.704   2.053   2.804 -2.1079 -1.4527  1.1085
  722THF     H714400   4.536   2.073   2.787  0.3421 -0.6685 -0.0782
  722THF     C814401   4.661   2.202   2.652  0.5364 -0.2517  0.3263
  722THF     C914402   4.557   2.315   2.666  0.6094  0.5158  0.6315
  722THF    H1014403   4.646   2.151   2.557  1.5695 -1.3935  0.7499
  722THF    H1114404   4.765   2.235   2.661  0.6010 -0.7051  1.4229
  722THF    H1214405   4.585   2.407   2.613  0.6128  1.8759  2.8597
  722THF    H1314406   4.470   2.261   2.633  1.9232  0.2773 -2.8353
  723THF     O114407   1.320   0.762   4.483  0.5264  0.6641 -0.1809
  723THF     C214408   1.318   0.907   4.443  0.2201  0.7656 -0.3912
  723THF     C314409   1.449   0.712   4.516  0.1344  0.1662  0.1124
  723THF     H414410   1.229   0.958   4.480  0.2307  0.5504 -0.0691
  723THF     H514411   1.295   0.907   4.336 -1.7163 -1.6074 -0.0588
  723THF     H614412   1.463   0.697   4.623  2.7329 -0.4835 -0.2497
  723THF     H714413   1.467   0.617   4.467  3.5626  1.4085 -1.3541
  723THF     C814414   1.548   0.821   4.471  0.5570  0.6029  0.2103
  723THF     C914415   1.466   0.953   4.465 -0.3344 -0.8299 -0.1951
  723THF    H1014416   1.577   0.802   4.368 -0.1184 -2.8425  0.5403
  723THF    H1114417   1.632   0.831   4.540  0.3525  0.2512  0.5153
  723THF    H1214418   1.475   1.012   4.557  0.5718 -0.5194 -0.4745
  723THF    H1314419   1.504   1.014   4.384 -1.5875  1.6674  0.9822
  724THF     O114420   4.284   0.420   1.537  0.1524 -0.3999  0.0228
  724THF     C214421   4.274   0.273   1.546  0.3204  0.1354 -0.3101
  724THF     C314422   4.380   0.456   1.636  0.4497 -0.0899  0.2414
  724THF     H414423   4.332   0.219   1.471 -0.5505 -0.9320 -0.2452
  724THF     H514424   4.172   0.237   1.531  0.9448 -1.9802  0.1614
  724THF     H614425   4.478   0.429   1.597  0.4797 -0.7181  0.7297
  724THF     H714426   4.363   0.558   1.670 -1.0283 -0.8429  1.9891
  724THF     C814427   4.356   0.366   1.754  0.8198  0.3709  0.3851
  724THF     C914428   4.331   0.234   1.685  0.0081  0.3307  0.3055
  724THF    H1014429   4.271   0.400   1.813  1.3220 -1.5979  2.3914
  724THF    H1114430   4.439   0.351   1.823  0.4424  1.6864  1.1641
  724THF    H1214431   4.427   0.184   1.671  0.3308  1.1002 -0.3118
  724THF    H1314432   4.264   0.171   1.744  0.9733 -0.8162  0.2249
  725THF     O114433   0.250   2.904   2.732  0.3054 -0.1015 -0.0484
  725THF     C214434   0.175   3.014   2.673 -0.1722  0.3438 -0.3416
  725THF     C314435   0.224   2.779   2.660 -0.7936  0.0777  0.3558
  725THF     H414436   0.237   3.082   2.614  1.9713 -2.3282 -1.3264
  725THF     H514437   0.138   3.073   2.757  0.4059 -0.4867  0.5058
  725THF     H614438   0.293   2.756   2.579 -1.7361  0.5247 -0.5970
  725THF     H714439   0.228   2.690   2.724 -1.3993 -0.1912  0.0244
  725THF     C814440   0.078   2.801   2.604 -1.1425  0.9061  0.0557
  725THF     C914441   0.073   2.954   2.581  0.9157 -0.5340  0.1803
  725THF    H1014442   0.001   2.757   2.667  0.1121 -2.5466 -0.6284
  725THF    H1114443   0.065   2.748   2.510 -0.9312  1.4169 -0.2658
  725THF    H1214444   0.089   2.982   2.477 -2.4000  0.0804 -0.2570
  725THF    H1314445  -0.027   2.993   2.598  0.7789 -0.6114 -0.4495
  726THF     O114446   4.777   0.401   2.240 -0.2994 -0.2997  0.2543
  726THF     C214447   4.814   0.272   2.204 -0.4212  0.1681 -0.4294
  726THF     C314448   4.637   0.419   2.238 -0.1332  0.5022  1.0000
  726THF     H414449   4.872   0.214   2.276 -1.5129  0.2697  0.5614
  726THF     H514450   4.884   0.280   2.121  1.6742 -0.7330  1.1267
  726THF     H614451   4.603   0.376   2.332  0.1349  0.7334  1.2023
  726THF     H714452   4.610   0.522   2.214  0.9894  0.5773 -0.0496
  726THF     C814453   4.602   0.311   2.126 -0.8512  0.4616  0.5857
  726THF     C914454   4.680   0.199   2.190  0.2496  0.5807 -0.1847
  726THF    H1014455   4.632   0.351   2.029 -1.3706  1.2063  0.7251
  726THF    H1114456   4.497   0.287   2.105  0.1298 -0.8065 -4.1645
  726THF    H1214457   4.635   0.175   2.286  0.1706  0.1833 -0.3221
  726THF    H1314458   4.686   0.108   2.130 -0.2954 -1.0055  2.0578
  727THF     O114459   2.950   4.782   5.279  0.5687 -0.1478 -0.3350
  727THF     C214460   2.902   4.714   5.394 -0.0728  0.5143 -0.5816
  727THF     C314461   2.989   4.693   5.178 -0.3500  0.2834  0.5499
  727THF     H414462   2.805   4.667   5.375  0.8058 -1.8102  0.2443
  727THF     H514463   2.887   4.780   5.479 -2.5185 -1.4515  0.6659
  727THF     H614464   2.895   4.658   5.136 -0.6957  0.2025  1.3699
  727THF     H714465   3.050   4.743   5.103 -2.7943 -0.0863 -1.8230
  727THF     C814466   3.054   4.583   5.261  0.0897  0.3461  0.8145
  727THF     C914467   2.991   4.593   5.399  0.6543 -0.5623  0.4913
  727THF    H1014468   3.162   4.597   5.272 -0.0256  2.1986 -0.0996
  727THF    H1114469   3.030   4.484   5.222  0.0616  1.2783 -1.6823
  727THF    H1214470   2.917   4.521   5.433 -2.0319 -0.1680 -3.8168
  727THF    H1314471   3.080   4.596   5.463  3.0929 -1.5118 -2.5819
  728THF     O114472   1.095   3.509   2.331 -0.2341  0.3386  0.3534
  728THF     C214473   1.104   3.534   2.192  0.0617  0.1439 -0.6452
  728THF     C314474   1.069   3.639   2.386  1.1148 -0.5488 -0.6849
  728THF     H414475   1.100   3.434   2.148  0.5338 -1.0863  1.9244
  728THF     H514476   1.204   3.566   2.163  0.8152 -0.7907  0.7969
  728THF     H614477   1.032   3.636   2.489 -1.1879 -0.9435 -1.4667
  728THF     H714478   1.155   3.706   2.391 -0.1224  1.0176  0.9058
  728THF     C814479   0.960   3.689   2.284 -0.4033  0.0527  0.4319
  728THF     C914480   0.991   3.625   2.149  0.2146 -0.3082 -0.0814
  728THF    H1014481   0.977   3.797   2.281  1.0204 -0.0946  2.0567
  728THF    H1114482   0.873   3.660   2.342  0.1646  0.5026  1.5447
  728THF    H1214483   0.901   3.566   2.127  1.4032 -2.1309 -0.2478
  728THF    H1314484   1.012   3.702   2.075  1.4470  1.2728  1.8140
  729THF     O114485   1.536   0.019   2.114  0.1498  0.3404  0.0550
  729THF     C214486   1.508   0.143   2.169 -0.4129 -0.2609 -0.2769
  729THF     C314487   1.478   0.003   1.979 -0.0359 -0.0281 -0.5726
  729THF     H414488   1.578   0.172   2.248 -1.1791 -0.3927  0.4692
  729THF     H514489   1.415   0.141   2.226 -0.7710 -0.2127 -0.8488
  729THF     H614490   1.554  -0.042   1.915  3.5457  4.4397 -0.0527
  729THF     H714491   1.391  -0.063   1.982  1.9230 -2.7447  0.9171
  729THF     C814492   1.445   0.140   1.930  0.4014 -0.5076  0.1926
  729THF     C914493   1.503   0.232   2.042 -0.2188 -0.7238  0.4618
  729THF    H1014494   1.339   0.161   1.915  1.1609  2.5645 -1.7662
  729THF    H1114495   1.494   0.149   1.833 -0.8870 -2.0771 -0.6655
  729THF    H1214496   1.604   0.267   2.021 -0.1759 -1.2593 -0.2668
  729THF    H1314497   1.446   0.324   2.053  0.6498 -0.1024 -0.0645
  730THF     O114498   3.221   5.065   0.203  0.0939  0.3855  0.0192
  730THF     C214499   3.226   5.114   0.069 -0.0980 -0.0488 -0.4569
  730THF     C314500   3.351   5.020   0.230 -0.0675  0.4337 -0.0113
  730THF     H414501   3.283   5.203   0.043 -0.6010  1.3373  2.7157
  730THF     H514502   3.124   5.140   0.041  0.0729  1.2463  0.0367
  730THF     H614503   3.425   5.100   0.235  1.0280 -0.6256  0.8882
  730THF     H714504   3.360   4.962   0.322  0.4396  0.5502  0.0133
  730THF     C814505   3.371   4.926   0.110  0.4071 -1.5275  0.1323
  730THF     C914506   3.282   4.987  -0.002 -0.4280  0.8284  0.4516
  730THF    H1014507   3.329   4.829   0.134 -2.6433  0.2815  3.1804
  730THF    H1114508   3.478   4.934   0.089  0.7629  1.4135  2.3005
  730THF    H1214509   3.331   5.009  -0.097  0.7106 -1.9395  0.3262
  730THF    H1314510   3.201   4.921  -0.031  2.0954 -1.2550 -2.4902
  731THF     O114511   4.579   3.274   5.024  0.2170  0.1695 -0.9946
  731THF     C214512   4.447   3.288   4.985  0.1587 -0.3886 -0.4863
  731THF     C314513   4.662   3.297   4.906  0.1605  0.2461 -0.4087
  731THF     H414514   4.429   3.394   4.969 -0.8640 -0.4387  0.2290
  731THF     H514515   4.379   3.252   5.063 -0.2157  1.4507  0.0966
  731THF     H614516   4.691   3.402   4.906 -0.5707  0.4627 -1.5579
  731THF     H714517   4.743   3.226   4.915  0.3696  0.7360  3.0061
  731THF     C814518   4.574   3.280   4.785  0.1716  0.2246 -0.4900
  731THF     C914519   4.442   3.223   4.844 -0.2894  0.3961 -0.4820
  731THF    H1014520   4.615   3.211   4.711 -1.1609  0.6156 -1.6492
  731THF    H1114521   4.566   3.373   4.729  1.1254  0.9413  0.5377
  731THF    H1214522   4.352   3.258   4.795  0.0077 -0.2030 -1.4833
  731THF    H1314523   4.449   3.114   4.844 -0.1642  0.4008 -0.0183
  732THF     O114524   2.976   2.160   3.228 -0.3954  0.2271 -0.1932
  732THF     C214525   2.989   2.017   3.212 -0.7318 -0.0558 -0.1468
  732THF     C314526   2.889   2.208   3.124  0.1956  0.0324 -0.0777
  732THF     H414527   2.891   1.978   3.240 -0.9681  0.5516 -0.1020
  732THF     H514528   3.060   1.965   3.276 -2.7819 -1.3130  1.2299
  732THF     H614529   2.785   2.181   3.138  0.3946 -0.1051  1.2837
  732THF     H714530   2.893   2.317   3.126 -1.6272  0.1714 -1.5908
  732THF     C814531   2.943   2.130   2.999  1.2921  0.0083  0.5277
  732THF     C914532   2.999   1.992   3.059 -0.2807 -0.4122 -0.0009
  732THF    H1014533   3.013   2.193   2.945  1.7772 -1.0233 -0.0848
  732THF    H1114534   2.861   2.107   2.931  2.6469 -2.8269 -0.3036
  732THF    H1214535   2.951   1.899   3.028 -0.1175 -1.3318  2.3386
  732THF    H1314536   3.104   1.981   3.030 -0.0468  1.0471  0.2536
  733THF     O114537   3.337   0.214   5.106  0.2181 -0.1446 -0.4084
  733THF     C214538   3.431   0.129   5.170  0.3291 -0.8547  1.0111
  733THF     C314539   3.394   0.346   5.098  0.0146 -0.2053  0.9396
  733THF     H414540   3.509   0.109   5.098  1.3952 -0.4921  2.0410
  733THF     H514541   3.372   0.047   5.212  0.0643 -1.1393  0.1050
  733THF     H614542   3.448   0.351   5.003 -0.0264 -0.4159  0.9056
  733THF     H714543   3.315   0.420   5.096 -1.0699 -1.3553 -0.8256
  733THF     C814544   3.502   0.359   5.196 -0.3541  0.1866 -0.5369
  733THF     C914545   3.493   0.224   5.270  0.5750 -0.2190 -1.1850
  733THF    H1014546   3.488   0.443   5.264 -0.4125  0.7471 -1.2287
  733THF    H1114547   3.604   0.365   5.158  0.6954 -1.7015  1.6915
  733THF    H1214548   3.588   0.186   5.307  0.9846  1.2052 -0.7138
  733THF    H1314549   3.431   0.241   5.358  2.2294 -2.7428  0.5845
  734THF     O114550   5.144   5.395   0.345  0.1177  0.0166  0.3270
  734THF     C214551   5.010   5.442   0.348 -0.5820  0.1851  0.9030
  734THF     C314552   5.169   5.390   0.484 -0.2486 -0.1068  0.9459
  734THF     H414553   4.935   5.370   0.380  1.0550 -1.9340  0.1701
  734THF     H514554   4.984   5.476   0.248  0.0045  1.8328  1.2712
  734THF     H614555   5.140   5.291   0.520  2.4247 -0.7606  1.4878
  734THF     H714556   5.275   5.377   0.503 -0.4181 -0.8707  1.4250
  734THF     C814557   5.106   5.507   0.557  0.6048  0.3518  0.9989
  734THF     C914558   5.010   5.554   0.448 -0.6215  0.3361  0.0448
  734THF    H1014559   5.179   5.577   0.596  1.3697 -0.3103  0.8060
  734THF    H1114560   5.047   5.467   0.640 -1.8264 -0.3902 -0.9383
  734THF    H1214561   4.922   5.583   0.505  0.6250 -0.6711  2.6638
  734THF    H1314562   5.052   5.645   0.404 -1.2038 -0.5084 -2.3850
  735THF     O114563   1.480   5.262   4.138 -0.9505 -0.0465 -0.1065
  735THF     C214564   1.461   5.345   4.027 -0.1867 -0.0980  0.2822
  735THF     C314565   1.425   5.340   4.247  0.0063  0.2250 -0.3283
  735THF     H414566   1.357   5.345   3.993 -0.7372  0.6309  1.8341
  735THF     H514567   1.522   5.324   3.940  0.1458 -1.3344  0.7855
  735THF     H614568   1.316   5.343   4.246  0.0211  0.7494 -0.4370
  735THF     H714569   1.463   5.305   4.343 -0.4034 -0.1438 -0.2979
  735THF     C814570   1.475   5.481   4.229  0.2747 -0.1577  0.2784
  735THF     C914571   1.481   5.489   4.071  0.4562  0.4379  0.1296
  735THF    H1014572   1.572   5.493   4.278  0.9953 -1.4859 -0.7404
  735THF    H1114573   1.397   5.541   4.274  0.5460  0.6868 -0.3552
  735THF    H1214574   1.402   5.547   4.023  0.9436  1.4187  0.4894
  735THF    H1314575   1.581   5.513   4.037  0.2025  0.2436 -0.7758
  736THF     O114576   0.863   5.194   1.211 -0.0430  0.3034  0.5949
  736THF     C214577   0.883   5.260   1.339 -0.2274  0.6279  0.7981
  736THF     C314578   0.826   5.294   1.118  0.3578 -0.3941  0.4963
  736THF     H414579   0.968   5.204   1.377  0.5395 -1.3341 -3.2255
  736THF     H514580   0.802   5.244   1.410 -0.5169 -1.9137  0.0016
  736THF     H614581   0.831   5.261   1.014 -0.1632 -0.1520  0.3904
  736THF     H714582   0.727   5.337   1.129 -1.1672 -3.4493 -0.1012
  736THF     C814583   0.929   5.407   1.144  0.2289 -0.4396 -0.5596
  736THF     C914584   0.920   5.404   1.295  0.4947 -0.2933  0.8408
  736THF    H1014585   0.907   5.503   1.097  2.1499  1.5052  2.1692
  736THF    H1114586   1.026   5.375   1.106  0.3426  0.9678 -1.5529
  736THF    H1214587   1.006   5.446   1.346  1.8547 -0.6040 -1.1018
  736THF    H1314588   0.836   5.469   1.320  1.8457  1.1521  1.7582
  737THF     O114589   5.392   4.771   4.959 -0.4995 -0.3810  0.2358
  737THF     C214590   5.263   4.833   4.966  0.4169 -0.6075 -0.0231
  737THF     C314591   5.410   4.675   5.066  0.4252 -1.1778  0.9125
  737THF     H414592   5.185   4.778   4.913  0.7456 -2.8313  1.6317
  737THF     H514593   5.256   4.934   4.927  0.0526  1.7402  5.2595
  737THF     H614594   5.376   4.593   5.003 -1.6471  0.3988 -0.1581
  737THF     H714595   5.512   4.661   5.102  0.4284 -1.8478  0.6547
  737THF     C814596   5.309   4.717   5.171  0.1056  0.2856  0.6103
  737THF     C914597   5.242   4.842   5.116 -0.2309  0.2793  0.3710
  737THF    H1014598   5.346   4.737   5.271 -0.1235  2.5911  0.2824
  737THF    H1114599   5.244   4.631   5.189  0.3075  0.4599  2.3401
  737THF    H1214600   5.136   4.834   5.138  0.0112 -1.0988  1.1352
  737THF    H1314601   5.282   4.934   5.160 -0.5957 -0.2871  1.9194
  738THF     O114602   1.407   2.829   4.665  0.6271  0.0203 -0.2163
  738THF     C214603   1.462   2.787   4.538 -0.0398 -0.5340  0.5599
  738THF     C314604   1.303   2.927   4.639  0.3342  0.3187  0.4101
  738THF     H414605   1.478   2.679   4.531 -1.0162 -0.9339  3.2964
  738THF     H514606   1.558   2.840   4.531  0.0038 -0.7097 -0.3312
  738THF     H614607   1.217   2.860   4.650 -1.7994  2.9967  1.0599
  738THF     H714608   1.294   3.008   4.711  1.0608  2.8263 -2.1378
  738THF     C814609   1.317   2.977   4.495  1.1119 -0.4967 -0.3935
  738THF     C914610   1.371   2.851   4.431 -0.5673  0.8938 -0.2239
  738THF    H1014611   1.389   3.058   4.483  0.2817  0.4840  1.0068
  738THF    H1114612   1.222   3.007   4.451  0.8749  0.1850  0.5571
  738THF    H1214613   1.289   2.780   4.417 -0.4854  0.4543  1.3277
  738THF    H1314614   1.422   2.875   4.338  0.3775 -0.3396 -0.0493
  739THF     O114615   1.180   1.368   1.130 -0.3311 -0.3686 -0.0763
  739THF     C214616   1.115   1.362   1.253  0.1394 -0.4397 -0.6083
  739THF     C314617   1.314   1.329   1.133 -0.7140  0.2687 -0.1374
  739THF     H414618   1.040   1.283   1.261  1.8955 -2.0237  1.3103
  739THF     H514619   1.075   1.459   1.280  4.0263  0.5917  2.4195
  739THF     H614620   1.332   1.223   1.114 -2.8602  0.1054 -1.6077
  739THF     H714621   1.375   1.376   1.056  0.2338 -0.4614  0.1541
  739THF     C814622   1.358   1.377   1.275  0.0800 -0.0635  0.4513
  739THF     C914623   1.232   1.339   1.352 -0.4751  0.5844 -0.0067
  739THF    H1014624   1.366   1.486   1.285  0.0813 -0.0212 -0.0279
  739THF    H1114625   1.454   1.328   1.293  0.3714  0.6013  0.7637
  739THF    H1214626   1.251   1.241   1.397 -0.6573  1.4035  1.9651
  739THF    H1314627   1.219   1.404   1.438  0.4331 -0.6183  1.0877
  740THF     O114628   1.983   5.336   4.840 -0.7185 -0.1111  0.2773
  740THF     C214629   2.050   5.255   4.933 -0.1366 -0.0779 -1.2049
  740THF     C314630   2.016   5.293   4.709 -0.1415 -0.4926  0.0701
  740THF     H414631   2.019   5.150   4.938 -2.1954  0.4925 -1.1006
  740THF     H514632   2.051   5.307   5.029 -2.9713 -0.9076 -0.6202
  740THF     H614633   1.946   5.221   4.668  3.1951 -2.6748 -2.3367
  740THF     H714634   2.025   5.387   4.654  0.8399 -0.8200 -0.3571
  740THF     C814635   2.153   5.240   4.729 -0.2484  0.6264 -0.0348
  740THF     C914636   2.184   5.245   4.871 -0.4203  0.3136  0.5473
  740THF    H1014637   2.225   5.305   4.679  0.3235 -1.0854 -1.5602
  740THF    H1114638   2.165   5.142   4.682  1.1377  0.1304  1.2697
  740THF    H1214639   2.245   5.160   4.902 -2.7597 -0.4745  3.3456
  740THF    H1314640   2.237   5.340   4.879 -0.2794  0.4431 -1.3076
  741THF     O114641   0.523   2.753   5.064  0.1272 -0.5906 -0.5855
  741THF     C214642   0.450   2.744   4.943  0.0335  0.5053  0.3064
  741THF     C314643   0.439   2.826   5.158 -0.0580  0.2519  0.4250
  741THF     H414644   0.454   2.641   4.907 -0.1433  0.3407  0.7605
  741THF     H514645   0.500   2.805   4.867 -1.7793  0.8212 -0.6865
  741THF     H614646   0.486   2.804   5.254 -0.3924 -1.5537  0.1990
  741THF     H714647   0.463   2.930   5.134  0.1249  0.0597 -0.2522
  741THF     C814648   0.293   2.804   5.115 -0.6930 -0.3943  0.3379
  741THF     C914649   0.305   2.787   4.970  0.1197  0.2119  0.0180
  741THF    H1014650   0.250   2.900   5.144 -1.0004  0.0067 -1.3207
  741THF    H1114651   0.241   2.720   5.161 -1.8436 -0.2426 -0.6206
  741THF    H1214652   0.228   2.719   4.936  1.0512 -0.4590 -0.7831
  741THF    H1314653   0.287   2.885   4.926  1.1978  0.8170  0.8684
  742THF     O114654   0.394   0.799   4.526  0.4347  0.1535 -0.0501
  742THF     C214655   0.534   0.794   4.531 -0.0410  0.6276  0.5706
  742THF     C314656   0.341   0.730   4.641  0.5079  0.7153 -0.4320
  742THF     H414657   0.571   0.861   4.608 -1.1384  1.4896  0.3665
  742THF     H514658   0.581   0.814   4.435 -1.0081  0.7797  0.1209
  742THF     H614659   0.354   0.785   4.734 -2.2639 -2.3522  2.0284
  742THF     H714660   0.236   0.702   4.640  1.1058 -1.8250 -0.0983
  742THF     C814661   0.444   0.618   4.666  0.1883  0.3148  0.1343
  742THF     C914662   0.568   0.649   4.579 -0.5420 -0.4495 -0.7819
  742THF    H1014663   0.397   0.524   4.637  2.1403 -0.1299 -1.9797
  742THF    H1114664   0.466   0.616   4.772 -0.6248 -2.1806  0.3266
  742THF    H1214665   0.656   0.656   4.644  0.6967 -2.2705 -2.1578
  742THF    H1314666   0.587   0.593   4.488 -2.5603 -0.4523 -1.2519
  743THF     O114667   1.579   4.188   4.093 -0.3463  0.4536 -0.2989
  743THF     C214668   1.695   4.207   4.175  0.5834 -0.3169  0.3083
  743THF     C314669   1.529   4.054   4.111 -0.0678 -0.6546  0.3524
  743THF     H414670   1.668   4.248   4.272  0.4960  0.7340 -0.1465
  743THF     H514671   1.755   4.284   4.127 -0.5024 -1.5568 -3.4867
  743THF     H614672   1.430   4.048   4.156 -0.2955 -1.8148 -0.2611
  743THF     H714673   1.530   4.002   4.016 -0.3672 -3.9203  1.9805
  743THF     C814674   1.633   3.983   4.193  0.1794 -0.2041  0.0862
  743THF     C914675   1.756   4.070   4.180 -0.1822  0.2823  0.3132
  743THF    H1014676   1.643   3.888   4.140  0.1532  0.0736 -0.4218
  743THF    H1114677   1.605   3.959   4.296 -1.5775  0.9289 -0.0790
  743THF    H1214678   1.830   4.062   4.260  0.2286  0.7940 -0.0100
  743THF    H1314679   1.814   4.056   4.089  0.5627 -0.7381  0.9255
  744THF     O114680   3.597   3.225   3.930 -0.2015  0.3675 -0.2832
  744THF     C214681   3.575   3.114   3.851 -0.2686  0.7780  0.3606
  744THF     C314682   3.519   3.330   3.883  0.7883  0.0332  0.4150
  744THF     H414683   3.600   3.018   3.896  1.4743  1.3996  0.7787
  744THF     H514684   3.613   3.122   3.749  1.1645 -2.2859  0.5123
  744THF     H614685   3.491   3.410   3.951 -1.1052 -0.9979  0.9037
  744THF     H714686   3.573   3.377   3.801  2.4496 -2.4085  0.0002
  744THF     C814687   3.398   3.262   3.829  0.4783  1.0279  0.7779
  744THF     C914688   3.427   3.114   3.839  0.0916 -0.5110  0.1502
  744THF    H1014689   3.354   3.302   3.738  1.3906 -1.8027 -1.0283
  744THF    H1114690   3.312   3.270   3.896 -0.1698  0.5095  0.0162
  744THF    H1214691   3.382   3.077   3.931  0.2230  0.3878  0.5841
  744THF    H1314692   3.398   3.054   3.753  2.1790  2.8838 -3.2320
  745THF     O114693   1.322   0.459   1.852  0.6303  0.3097 -0.2050
  745THF     C214694   1.191   0.449   1.910 -0.1876 -0.3144 -0.0652
  745THF     C314695   1.304   0.401   1.722 -0.6516 -0.4792 -0.4045
  745THF     H414696   1.181   0.515   1.996  0.6316 -0.2455 -0.0097
  745THF     H514697   1.184   0.345   1.940 -0.2450 -0.3084 -0.0587
  745THF     H614698   1.387   0.430   1.657 -1.3905 -0.9250 -1.5844
  745THF     H714699   1.301   0.292   1.723  2.2676 -0.6502  1.6767
  745THF     C814700   1.175   0.456   1.670 -0.1780  0.5613 -1.0295
  745THF     C914701   1.104   0.498   1.797 -0.3457 -0.5575 -0.7520
  745THF    H1014702   1.115   0.373   1.633  0.5536 -1.8799  2.7245
  745THF    H1114703   1.186   0.540   1.602  0.1540  0.2193 -1.3974
  745THF    H1214704   1.099   0.607   1.801  0.4816 -0.4876 -1.4405
  745THF    H1314705   1.003   0.462   1.819  0.4337 -1.0937  2.6654
  746THF     O114706   2.459   0.576   1.950  0.4529 -0.1192 -0.1663
  746THF     C214707   2.515   0.710   1.952 -0.6294  0.4963  0.1159
  746THF     C314708   2.391   0.575   1.824 -0.2781 -0.5224  0.0279
  746THF     H414709   2.593   0.719   2.028 -0.6895 -0.0905  0.2528
  746THF     H514710   2.438   0.785   1.972 -2.0901 -1.0126  0.3587
  746THF     H614711   2.359   0.475   1.795  0.2172 -1.0018  1.1082
  746THF     H714712   2.304   0.641   1.828 -1.0235 -1.5527  1.6224
  746THF     C814713   2.509   0.624   1.730  0.4865 -0.1400  0.2215
  746THF     C914714   2.560   0.734   1.813  0.4575 -0.3117 -0.5038
  746THF    H1014715   2.470   0.645   1.630 -2.6328  1.6126  1.6562
  746THF    H1114716   2.595   0.558   1.723 -1.1224 -2.2267 -0.9566
  746THF    H1214717   2.668   0.739   1.806  0.6179 -2.0926  0.0271
  746THF    H1314718   2.522   0.829   1.774 -0.7276 -1.3478 -1.9845
  747THF     O114719   1.547   4.876   4.323  0.2314 -0.5836  0.4039
  747THF     C214720   1.660   4.967   4.301  0.0852  0.0291 -0.1710
  747THF     C314721   1.488   4.930   4.438  0.4458 -0.4335  0.0930
  747THF     H414722   1.628   5.049   4.236 -0.0204  0.0829 -0.0519
  747THF     H514723   1.741   4.920   4.246 -0.3910  0.2356 -1.0821
  747THF     H614724   1.444   5.024   4.403 -0.4278 -0.8286  0.1160
  747THF     H714725   1.405   4.875   4.482  0.2827 -1.2509 -1.1695
  747THF     C814726   1.600   4.976   4.532 -0.6017  0.7336  0.4648
  747THF     C914727   1.700   5.035   4.434 -0.0536  0.1000  0.0336
  747THF    H1014728   1.649   4.900   4.593  0.1251  0.7946 -0.0294
  747THF    H1114729   1.560   5.048   4.604 -0.8060  2.2020 -1.0431
  747THF    H1214730   1.680   5.141   4.443 -0.0866  0.2689 -1.7182
  747THF    H1314731   1.801   5.014   4.468 -0.5862 -0.3034  1.4454
  748THF     O114732   5.433   4.290   4.800 -0.5043  0.0793  0.0533
  748THF     C214733   5.438   4.213   4.918  0.6085  0.1306 -0.4844
  748THF     C314734   5.490   4.219   4.691  0.3237  0.1753  0.7691
  748THF     H414735   5.352   4.146   4.924  0.6773  0.1171  0.5229
  748THF     H514736   5.444   4.278   5.005 -2.7888 -0.3875  0.2727
  748THF     H614737   5.413   4.169   4.633  0.2740  0.8855  0.2176
  748THF     H714738   5.549   4.281   4.624 -1.6281  1.1033 -0.1780
  748THF     C814739   5.573   4.105   4.742 -0.0486 -0.1490  0.3218
  748THF     C914740   5.566   4.128   4.895 -0.2449  0.7372  0.1268
  748THF    H1014741   5.670   4.100   4.692 -0.4944 -1.7423 -0.4637
  748THF    H1114742   5.535   4.004   4.724 -2.8323  0.8431  0.2177
  748THF    H1214743   5.560   4.036   4.953  0.2815 -0.1496 -1.1620
  748THF    H1314744   5.657   4.180   4.924  0.4162 -0.3225  0.0035
  749THF     O114745   5.023   5.169   5.180 -0.7037  0.1949  0.5289
  749THF     C214746   5.089   5.240   5.278 -0.2350 -0.8450  0.4823
  749THF     C314747   5.084   5.176   5.046 -0.6691 -0.0698 -0.0573
  749THF     H414748   5.135   5.174   5.352  1.7638 -0.3786 -0.2904
  749THF     H514749   5.022   5.303   5.337  0.9369 -0.7560  1.7758
  749THF     H614750   5.161   5.102   5.028 -1.7704 -1.5436  1.0206
  749THF     H714751   5.007   5.167   4.969 -0.3636  1.0761 -0.5327
  749THF     C814752   5.139   5.322   5.063 -0.1341 -0.3997 -0.1650
  749THF     C914753   5.189   5.324   5.201 -0.3583 -0.0158 -0.3129
  749THF    H1014754   5.066   5.397   5.033 -1.4569 -1.5412  0.1302
  749THF    H1114755   5.222   5.331   4.992 -0.3722 -0.8799 -0.5096
  749THF    H1214756   5.292   5.291   5.198  0.3265  1.9567  0.1126
  749THF    H1314757   5.183   5.423   5.245 -1.1762  0.1274 -0.7187
  750THF     O114758   5.330   3.081   0.354 -0.4958  0.1144  0.3204
  750THF     C214759   5.462   3.033   0.393 -0.4511  0.7013  0.2820
  750THF     C314760   5.243   3.007   0.432  0.3776  0.3063 -0.1699
  750THF     H414761   5.530   3.107   0.350  0.7720  0.4415  1.6876
  750THF     H514762   5.487   2.935   0.352  1.2222  0.5642  1.5215
  750THF     H614763   5.144   3.052   0.444  0.3539 -0.1912  1.8479
  750THF     H714764   5.234   2.909   0.386  3.5669  0.0067 -0.3249
  750THF     C814765   5.317   2.986   0.559 -0.4126 -0.5573 -0.3834
  750THF     C914766   5.458   3.030   0.542  0.6604  0.2516 -0.4554
  750THF    H1014767   5.324   2.881   0.589 -0.4549 -0.2044  0.9309
  750THF    H1114768   5.272   3.036   0.645  2.3624  0.1384  0.7547
  750THF    H1214769   5.459   3.131   0.582  2.6176  0.5378 -1.1030
  750THF    H1314770   5.537   2.968   0.584  0.4525  0.2510 -0.0672
  751THF     O114771   4.600   4.636   5.124  0.0655  0.2678  0.1596
  751THF     C214772   4.663   4.623   5.253 -0.3453 -0.1684 -0.4057
  751THF     C314773   4.671   4.539   5.043 -0.0944 -0.1496 -0.2303
  751THF     H414774   4.619   4.536   5.303 -3.2746  1.3558 -0.1335
  751THF     H514775   4.631   4.703   5.320  0.4172  0.3395 -0.6394
  751THF     H614776   4.622   4.443   5.056  1.8121 -1.0560  0.6902
  751THF     H714777   4.662   4.570   4.939  2.2337 -2.0412 -1.0807
  751THF     C814778   4.813   4.526   5.092  0.0913  0.1148 -0.4291
  751THF     C914779   4.813   4.607   5.224 -0.4246  0.6902  0.0153
  751THF    H1014780   4.902   4.567   5.044  0.6881  0.3442  0.8595
  751THF    H1114781   4.823   4.419   5.108 -2.1423 -0.1475 -0.4129
  751THF    H1214782   4.851   4.554   5.311 -1.7701  2.3381  1.6987
  751THF    H1314783   4.864   4.700   5.199 -0.5553  0.1700 -2.4826
  752THF     O114784   4.583   0.518   5.180 -0.3548 -0.0428  0.3973
  752THF     C214785   4.683   0.625   5.182 -0.3383  0.7659  0.4185
  752THF     C314786   4.453   0.578   5.160  0.7469 -0.6985  0.0989
  752THF     H414787   4.773   0.598   5.127 -0.6597 -1.8062  1.0388
  752THF     H514788   4.722   0.649   5.281 -0.6605  1.1815  0.4476
  752THF     H614789   4.411   0.545   5.065  1.0804 -2.1423  0.4293
  752THF     H714790   4.384   0.542   5.236 -1.5573 -0.9935 -1.9904
  752THF     C814791   4.476   0.728   5.164  0.0567 -0.5499  0.5720
  752THF     C914792   4.621   0.743   5.115  0.9649  0.6799 -0.5032
  752THF    H1014793   4.475   0.768   5.266  0.1437 -0.6578  0.6152
  752THF    H1114794   4.407   0.775   5.094  1.1060 -1.2548 -0.9943
  752THF    H1214795   4.641   0.726   5.009  0.5823 -0.8526 -0.3646
  752THF    H1314796   4.661   0.841   5.140 -1.4628  1.6485 -0.1947
  753THF     O114797   4.828   0.496   0.819 -0.1443 -0.5440  0.5063
  753THF     C214798   4.783   0.362   0.817  0.8679 -0.1389  0.0282
  753THF     C314799   4.948   0.506   0.745 -0.8315  0.4552  0.0877
  753THF     H414800   4.723   0.336   0.730 -1.4157  0.7495  1.2329
  753THF     H514801   4.723   0.333   0.904  1.6861  0.3460  0.7651
  753THF     H614802   4.933   0.499   0.638  1.8956 -0.8479 -0.2851
  753THF     H714803   5.002   0.599   0.768 -0.1514  0.0438  0.1898
  753THF     C814804   5.024   0.378   0.796  0.9341 -0.4348  0.8428
  753THF     C914805   4.911   0.281   0.822 -0.2079 -0.3927  0.2178
  753THF    H1014806   5.087   0.408   0.879  0.4995  2.5188  0.1941
  753THF    H1114807   5.089   0.339   0.718  0.3431 -0.1536  0.2037
  753THF    H1214808   4.916   0.200   0.749  0.0721  0.3274 -0.5604
  753THF    H1314809   4.910   0.247   0.926  1.4366  1.5798  0.9424
  754PF6-    P114810   3.827   2.117   1.019 -0.5482  0.2734 -0.5954
  754PF6-    F214811   3.743   2.067   1.142  0.4861  0.2300  0.0641
  754PF6-    F314812   3.921   2.175   0.908 -0.0996 -0.5245 -0.7121
  754PF6-    F414813   3.696   2.188   0.955  0.1010 -0.0977 -0.1539
  754PF6-    F514814   3.953   2.039   1.077  0.0154  0.4727 -0.3470
  754PF6-    F614815   3.800   1.989   0.929  0.3457  0.3359  0.4455
  754PF6-    F714816   3.858   2.243   1.115  0.2115  0.2096  0.3726
  755PF6-    P114817   3.397   1.466   1.633  0.0265  0.1592  0.2850
  755PF6-    F214818   3.341   1.588   1.727 -0.4794  0.1274 -0.0976
  755PF6-    F314819   3.443   1.351   1.538  0.4125 -0.2966  0.0876
  755PF6-    F414820   3.264   1.382   1.664  0.1444  0.4991  0.2165
  755PF6-    F514821   3.531   1.543   1.605 -0.5446  0.0534  0.5108
  755PF6-    F614822   3.464   1.392   1.756 -0.8416  0.1984  0.2484
  755PF6-    F714823   3.330   1.537   1.508  0.8856  0.4623  0.0181
  756PF6-    P114824   2.499   0.358   0.931  0.1034 -0.5532  0.1912
  756PF6-    F214825   2.385   0.332   1.032  0.2494  0.1949 -0.2167
  756PF6-    F314826   2.612   0.392   0.815  0.5386 -0.5066 -0.1730
  756PF6-    F414827   2.584   0.233   0.985 -0.0277  0.0719  0.1496
  756PF6-    F514828   2.413   0.485   0.872  0.5722  0.3395 -0.6486
  756PF6-    F614829   2.568   0.460   1.036  0.0251  0.4229 -0.0175
  756PF6-    F714830   2.424   0.259   0.838 -0.3449  0.1468 -0.1981
  757PF6-    P114831   1.511   4.947   0.407 -0.0309 -0.1642 -0.0053
  757PF6-    F214832   1.596   5.036   0.512 -0.1858 -0.1436  0.2824
  757PF6-    F314833   1.432   4.847   0.308  0.7084  0.3781 -0.4809
  757PF6-    F414834   1.568   5.022   0.277  0.2425  0.5228 -0.5448
  757PF6-    F514835   1.454   4.873   0.533 -0.1152  0.3243  0.3708
  757PF6-    F614836   1.391   5.057   0.407  0.5044  0.0560 -0.1083
  757PF6-    F714837   1.632   4.839   0.400 -0.4203  0.6296  0.1556
  758PF6-    P114838   0.428   2.066   0.535 -0.0104  0.2848 -0.1066
  758PF6-    F214839   0.321   1.977   0.457 -0.0254 -0.8492  0.1971
  758PF6-    F314840   0.538   2.154   0.611 -0.1161  0.5825  0.5026
  758PF6-    F414841   0.461   2.144   0.402  0.6317  0.7230 -0.2201
  758PF6-    F514842   0.398   1.981   0.665  0.1097  0.2914 -0.1008
  758PF6-    F614843   0.541   1.955   0.499  0.1974 -0.1744  0.3732
  758PF6-    F714844   0.317   2.173   0.571  0.2282  0.2082 -1.0396
  759PF6-    P114845   1.813   2.444   4.215 -0.2558  0.1887 -0.2085
  759PF6-    F214846   1.804   2.559   4.099 -0.5469 -0.2482 -0.0978
  759PF6-    F314847   1.825   2.329   4.326 -0.1941 -0.3941  0.4916
  759PF6-    F414848   1.742   2.338   4.116  0.5805 -0.3767  0.3077
  759PF6-    F514849   1.892   2.551   4.304  0.4746 -0.1300 -0.2950
  759PF6-    F614850   1.666   2.491   4.270 -0.5516  0.1780  0.6772
  759PF6-    F714851   1.957   2.396   4.149 -0.1203  0.7127 -0.8180
  760PF6-    P114852   4.609   2.852   1.641 -0.5479  0.0993  0.1162
  760PF6-    F214853   4.634   2.874   1.493  0.6665 -0.1399 -0.2487
  760PF6-    F314854   4.588   2.829   1.798  0.2530 -0.2197  0.0364
  760PF6-    F414855   4.468   2.930   1.627  0.2336  0.3605  0.4032
  760PF6-    F514856   4.752   2.771   1.653  0.3852  0.3816  0.1094
  760PF6-    F614857   4.679   2.993   1.674 -0.2033 -0.6249  0.4509
  760PF6-    F714858   4.535   2.712   1.611  0.2849  0.0651 -0.0895
  761PF6-    P114859   0.452   0.837   5.169  0.1721  0.7107  0.4728
  761PF6-    F214860   0.508   0.832   5.323  0.0692  0.6205  0.0304
  761PF6-    F314861   0.394   0.841   5.013  0.0811 -0.2732  0.3673
  761PF6-    F414862   0.323   0.753   5.219 -0.0463  0.2543  0.4587
  761PF6-    F514863   0.585   0.918   5.124  0.2490 -0.1176 -0.1459
  761PF6-    F614864   0.530   0.696   5.132  0.3076  0.4237  0.7704
  761PF6-    F714865   0.373   0.973   5.198 -0.2283  0.1035  0.3592
  762PF6-    P114866   1.263   3.468   1.539 -0.0309  0.1650  0.4812
  762PF6-    F214867   1.214   3.399   1.675  0.3484  0.1576 -0.7970
  762PF6-    F314868   1.317   3.519   1.393  0.0134 -0.2956 -0.5932
  762PF6-    F414869   1.152   3.585   1.549 -0.2867 -0.1551  0.1105
  762PF6-    F514870   1.364   3.348   1.524 -0.1918 -0.0320  0.5634
  762PF6-    F614871   1.153   3.379   1.454 -0.1205  0.5007 -0.0705
  762PF6-    F714872   1.374   3.548   1.619  0.2311  0.3658  0.0321
  763PF6-    P114873   3.770   0.788   2.615 -0.1798  0.3073  0.3717
  763PF6-    F214874   3.623   0.737   2.635 -0.0760 -0.1125  0.3103
  763PF6-    F314875   3.921   0.842   2.593  0.7796 -0.0910  0.3487
  763PF6-    F414876   3.763   0.849   2.765 -0.4506 -0.3134  0.4194
  763PF6-    F514877   3.775   0.721   2.468 -0.1698  0.0401  0.0579
  763PF6-    F614878   3.714   0.919   2.554  0.4837 -0.1994 -0.5666
  763PF6-    F714879   3.829   0.648   2.673  0.0500 -0.0320 -0.1597
  764PF6-    P114880   2.826   0.639   3.592 -0.0749  0.3222  0.2621
  764PF6-    F214881   2.749   0.646   3.454  0.6141  0.2301 -0.0329
  764PF6-    F314882   2.900   0.644   3.733 -0.3167 -0.6027  0.5841
  764PF6-    F414883   2.886   0.788   3.566  0.1566 -0.6239  0.3757
  764PF6-    F514884   2.766   0.497   3.630  0.4444  0.0148 -0.0201
  764PF6-    F614885   2.950   0.576   3.522 -0.8598  0.7590  0.0665
  764PF6-    F714886   2.700   0.710   3.655  0.4570 -0.1626 -0.2602
  765PF6-    P114887   3.761   5.407   4.223 -0.5089  0.6804  0.0012
  765PF6-    F214888   3.893   5.495   4.207  0.1155 -0.1259 -0.4730
  765PF6-    F314889   3.628   5.325   4.250 -0.6618 -0.2213 -0.2026
  765PF6-    F414890   3.780   5.334   4.076 -0.6588  0.0731 -0.2100
  765PF6-    F514891   3.738   5.474   4.366  0.3609  1.0448  0.2821
  765PF6-    F614892   3.673   5.523   4.157  0.1282  0.1477  0.1953
  765PF6-    F714893   3.842   5.290   4.294  0.1494 -0.3544  0.4078
  766PF6-    P114894   2.040   4.762   4.064 -0.0512 -0.1508 -0.5175
  766PF6-    F214895   2.126   4.834   3.951 -0.4396 -0.3789 -0.5010
  766PF6-    F314896   1.942   4.690   4.172 -0.4213  0.0195  0.2875
  766PF6-    F414897   2.174   4.677   4.121  0.5651 -0.1042  0.3861
  766PF6-    F514898   1.912   4.848   4.014 -0.2137 -0.2211  0.0052
  766PF6-    F614899   2.013   4.646   3.954 -0.0706 -0.3207 -0.6420
  766PF6-    F714900   2.074   4.878   4.168 -0.0543  0.4224 -0.6200
  767PF6-    P114901   0.147   4.376   5.297 -0.2297 -0.2653  0.1102
  767PF6-    F214902   0.309   4.361   5.294 -0.1355 -0.2075 -0.0700
  767PF6-    F314903  -0.012   4.391   5.295  0.1778 -0.6276 -0.5292
  767PF6-    F414904   0.160   4.492   5.190 -0.2874  0.3417 -0.0194
  767PF6-    F514905   0.142   4.261   5.413 -0.4986  0.2638  0.4013
  767PF6-    F614906   0.153   4.482   5.417  0.5027 -0.1990 -0.3463
  767PF6-    F714907   0.136   4.259   5.184  0.4629 -0.8810  0.4030
  768PF6-    P114908   1.050   0.417   2.340  0.2248 -0.1030  0.0359
  768PF6-    F214909   1.187   0.343   2.334 -0.2285 -0.1861 -0.3368
  768PF6-    F314910   0.913   0.506   2.347 -0.1599  0.0271  0.2697
  768PF6-    F414911   1.008   0.374   2.189  0.0434  0.1979 -0.0138
  768PF6-    F514912   1.086   0.469   2.485  0.0732  0.0904 -0.4507
  768PF6-    F614913   1.123   0.545   2.279  0.5411 -0.0709  0.1893
  768PF6-    F714914   0.976   0.288   2.405  0.3274 -0.0775  0.6708
  769PF6-    P114915   4.128   3.253   0.762  0.3771 -0.5536  0.0415
  769PF6-    F214916   4.138   3.128   0.862  0.1811 -0.1124  0.0561
  769PF6-    F314917   4.128   3.373   0.651 -0.2584  0.4685  0.1126
  769PF6-    F414918   3.983   3.309   0.815 -0.0830  0.0727  0.0407
  769PF6-    F514919   4.275   3.210   0.709 -0.7445 -0.4132  0.4013
  769PF6-    F614920   4.061   3.156   0.651 -0.5672 -0.3661 -0.1351
  769PF6-    F714921   4.193   3.355   0.869 -0.4526  0.0844 -0.6772
  770PF6-    P114922   1.682   5.158   3.055 -0.2048  0.1637  0.1646
  770PF6-    F214923   1.716   5.308   3.006 -0.0798 -0.2917 -0.4375
  770PF6-    F314924   1.640   5.009   3.096  0.4293  0.0479 -0.3927
  770PF6-    F414925   1.823   5.144   3.140  0.3740  0.1535  0.5749
  770PF6-    F514926   1.534   5.167   2.982  0.2211  0.0610 -0.1367
  770PF6-    F614927   1.750   5.095   2.921  0.1577 -0.0306  0.1033
  770PF6-    F714928   1.621   5.217   3.191 -0.8986  0.8377 -0.1159
  771PF6-    P114929   1.405   2.918   3.164  0.0214  0.5480 -0.0930
  771PF6-    F214930   1.315   2.874   3.038 -0.7409 -0.2625 -0.2996
  771PF6-    F314931   1.496   2.954   3.286  0.0276 -0.1251  0.1956
  771PF6-    F414932   1.414   3.064   3.107 -0.3566  0.8649 -0.3059
  771PF6-    F514933   1.393   2.765   3.215 -0.1893  0.1514  0.0261
  771PF6-    F614934   1.537   2.881   3.081  0.6867  0.1589 -0.1961
  771PF6-    F714935   1.272   2.951   3.256  0.0041  0.1960  0.1813
  772PF6-    P114936   1.757   2.345   0.978 -0.5447 -0.1584 -0.4784
  772PF6-    F214937   1.866   2.447   0.913 -0.5860 -0.0660  0.1808
  772PF6-    F314938   1.657   2.252   1.049  0.1631 -0.0590 -0.2890
  772PF6-    F414939   1.788   2.423   1.117  0.1791 -0.3354 -0.6343
  772PF6-    F514940   1.729   2.272   0.840 -0.0966 -0.4466 -0.9564
  772PF6-    F614941   1.869   2.237   1.005 -0.4334  0.1454 -0.6021
  772PF6-    F714942   1.639   2.454   0.950  0.8367 -0.0014  0.6310
  773PF6-    P114943   4.545   1.063   5.419 -0.1245 -0.0142 -0.0701
  773PF6-    F214944   4.445   1.030   5.303 -0.1775 -0.3374  0.2102
  773PF6-    F314945   4.647   1.092   5.541 -0.1248 -0.4562  0.0645
  773PF6-    F414946   4.535   0.913   5.466  0.3734 -0.0035 -0.0156
  773PF6-    F514947   4.546   1.215   5.369 -0.0349  0.4519  0.0687
  773PF6-    F614948   4.424   1.099   5.516  0.1419 -0.1439  0.0062
  773PF6-    F714949   4.669   1.033   5.328 -0.3614  0.4616  0.1810
  774PF6-    P114950   0.907   0.135   5.413 -0.1480  0.1044 -0.1699
  774PF6-    F214951   1.019   0.235   5.476  0.3151 -0.3151 -0.0416
  774PF6-    F314952   0.799   0.034   5.356  0.4952  0.1911 -0.1646
  774PF6-    F414953   0.913   0.218   5.277  0.1812 -0.4543 -0.0170
  774PF6-    F514954   0.906   0.054   5.550  0.7943  0.0738  0.1492
  774PF6-    F614955   0.785   0.232   5.464  0.1440  0.0459 -0.0176
  774PF6-    F714956   1.031   0.044   5.359 -0.3897  0.5329 -0.0880
  775PF6-    P114957   0.666   5.158   1.887  0.2055 -0.2965  0.4855
  775PF6-    F214958   0.719   5.049   1.990 -0.2022 -0.4412  0.0663
  775PF6-    F314959   0.614   5.272   1.786  0.0245 -0.0351  0.1432
  775PF6-    F414960   0.705   5.282   1.989 -0.1168  0.2637 -0.0134
  775PF6-    F514961   0.628   5.044   1.778  0.0408 -0.5928 -0.0447
  775PF6-    F614962   0.519   5.150   1.948 -0.2663 -0.1372  0.3143
  775PF6-    F714963   0.817   5.165   1.825  0.3949 -0.4188  0.0259
  776PF6-    P114964   4.181   4.166   3.244 -0.2207 -0.2400 -0.2007
  776PF6-    F214965   4.035   4.193   3.190  0.0010  0.3576  0.0020
  776PF6-    F314966   4.325   4.135   3.294 -0.0240  0.2653 -0.3349
  776PF6-    F414967   4.138   4.194   3.394 -0.0504  0.3908 -0.7986
  776PF6-    F514968   4.221   4.125   3.091  0.5455 -0.5014  0.1319
  776PF6-    F614969   4.215   4.321   3.219 -0.8366 -0.0013  0.1097
  776PF6-    F714970   4.146   4.009   3.264  0.0725  0.5764 -0.1600
  777PF6-    P114971   2.460   3.521   3.408  0.1931  0.1748  0.2281
  777PF6-    F214972   2.364   3.518   3.529  0.7627 -0.5162 -0.6308
  777PF6-    F314973   2.558   3.529   3.279  0.1163  0.5485 -0.4117
  777PF6-    F414974   2.486   3.671   3.429  0.1778  0.5007 -0.0390
  777PF6-    F514975   2.437   3.360   3.379 -0.3175 -0.3478 -0.2429
  777PF6-    F614976   2.336   3.559   3.315  0.1002  0.0267  0.1209
  777PF6-    F714977   2.582   3.485   3.504  0.1841 -0.1006  0.3982
  778PF6-    P114978   1.441   1.343   1.858  0.0318 -0.1078 -0.0042
  778PF6-    F214979   1.374   1.308   1.999 -0.4806 -0.1071  0.3499
  778PF6-    F314980   1.511   1.366   1.710  0.0969 -0.2337  0.2671
  778PF6-    F414981   1.587   1.374   1.928 -0.7192  0.5734 -0.5612
  778PF6-    F514982   1.302   1.314   1.778 -0.5800 -0.5155 -0.1478
  778PF6-    F614983   1.403   1.496   1.865  0.1659  0.0452 -0.0000
  778PF6-    F714984   1.480   1.188   1.842 -0.2661  0.0101 -0.3335
  779PF6-    P114985   4.867   2.941   0.682 -0.0945  0.0794 -0.0156
  779PF6-    F214986   5.012   2.977   0.748  0.1879 -0.4545  0.3819
  779PF6-    F314987   4.728   2.892   0.616 -0.0395 -0.9560  0.0322
  779PF6-    F414988   4.803   2.942   0.830  0.1369 -0.2606 -0.6104
  779PF6-    F514989   4.930   2.936   0.534 -0.0929 -0.2263 -0.4603
  779PF6-    F614990   4.893   2.782   0.697  0.0318  0.2756 -0.5179
  779PF6-    F714991   4.829   3.097   0.662  0.0432 -0.1326 -0.4934
  780PF6-    P114992   1.614   0.038   0.911 -0.4434 -0.2567  0.1736
  780PF6-    F214993   1.460   0.065   0.872 -0.1608 -0.0589  0.0931
  780PF6-    F314994   1.769   0.010   0.952 -0.4449 -0.0658 -0.2929
  780PF6-    F414995   1.641   0.194   0.916  0.5606  0.4546  0.3018
  780PF6-    F514996   1.590  -0.118   0.905  0.2702 -0.0609 -0.7777
  780PF6-    F614997   1.653   0.049   0.757 -0.1381 -0.4489 -0.4798
  780PF6-    F714998   1.581   0.038   1.069 -0.3143  0.3297  0.0883
  781PF6-    P114999   0.799   1.142   4.285  0.0914  0.0033 -0.0231
  781PF6-    F215000   0.726   1.215   4.163  0.3727  0.1091  0.0998
  781PF6-    F315001   0.872   1.077   4.414  0.3215 -0.0465  0.4896
  781PF6-    F415002   0.685   1.198   4.381  0.5507 -0.0657  0.0787
  781PF6-    F515003   0.915   1.083   4.185 -0.1013  0.3281 -0.1640
  781PF6-    F615004   0.883   1.274   4.306  0.2434 -0.1239  0.0176
  781PF6-    F715005   0.715   1.010   4.267  0.2526  0.7508  0.1305
  782PF6-    P115006   4.929   0.702   3.714  0.0530  0.3137  0.1410
  782PF6-    F215007   4.978   0.726   3.871 -0.3130 -0.5482  0.1863
  782PF6-    F315008   4.876   0.678   3.562  0.2540 -0.3674  0.2962
  782PF6-    F415009   5.064   0.768   3.658  0.3918 -0.2552  0.3162
  782PF6-    F515010   4.789   0.639   3.764 -0.3092 -0.3584  0.0046
  782PF6-    F615011   4.858   0.850   3.719 -0.0732  0.5027  0.6618
  782PF6-    F715012   5.000   0.554   3.711  0.7164  0.5339 -0.2714
  783PF6-    P115013   2.197   4.531   1.475 -0.1163 -0.0747 -0.1424
  783PF6-    F215014   2.349   4.500   1.445 -0.1699 -0.0985 -0.5362
  783PF6-    F315015   2.044   4.579   1.501 -0.3642  0.7517  0.4409
  783PF6-    F415016   2.152   4.463   1.344  0.6206  0.2765 -0.0618
  783PF6-    F515017   2.242   4.608   1.605 -0.5337 -0.4385 -0.2347
  783PF6-    F615018   2.227   4.666   1.401  0.0493  0.2494 -0.1470
  783PF6-    F715019   2.176   4.402   1.561 -0.1956 -0.1065  0.2316
  784PF6-    P115020   3.221   1.218   0.507  0.1468  0.3058  0.0486
  784PF6-    F215021   3.090   1.248   0.598  0.1281  0.0400  0.8097
  784PF6-    F315022   3.352   1.188   0.421 -0.0849 -0.3967  0.0046
  784PF6-    F415023   3.170   1.073   0.472  0.1748  0.3940  0.3880
  784PF6-    F515024   3.269   1.366   0.540 -0.3118  0.2054 -0.0792
  784PF6-    F615025   3.294   1.171   0.638 -0.3001 -0.1572 -0.8037
  784PF6-    F715026   3.150   1.268   0.376  0.1753  0.0410  0.3263
  785PF6-    P115027   2.065   0.770   4.323  0.3015  0.0784 -0.2929
  785PF6-    F215028   2.193   0.728   4.229  0.0075  0.0043  0.3382
  785PF6-    F315029   1.948   0.810   4.423 -0.6254 -0.0364 -0.4841
  785PF6-    F415030   2.054   0.911   4.252 -0.7581 -0.0657  0.0981
  785PF6-    F515031   2.075   0.626   4.398  0.0787  0.0458 -0.0673
  785PF6-    F615032   2.171   0.830   4.428  0.3893  0.3021 -0.2194
  785PF6-    F715033   1.962   0.721   4.214  0.0126 -0.3682 -0.0780
  786PF6-    P115034   0.089   5.441   4.358 -0.0722 -0.1367  0.3087
  786PF6-    F215035  -0.059   5.391   4.414 -0.0910  0.2667 -0.0814
  786PF6-    F315036   0.230   5.489   4.299 -0.1129  0.0646 -0.2444
  786PF6-    F415037   0.149   5.461   4.507 -0.2965  0.6376  0.4310
  786PF6-    F515038   0.027   5.419   4.212 -0.2680  0.3302  0.5628
  786PF6-    F615039   0.037   5.586   4.361  0.0134 -0.5492 -0.1523
  786PF6-    F715040   0.142   5.289   4.362 -0.4612 -0.5397  0.0648
  787PF6-    P115041   2.600   4.172   2.665 -0.2269  0.0827 -0.3858
  787PF6-    F215042   2.705   4.056   2.689 -0.1135 -0.0207 -0.0575
  787PF6-    F315043   2.481   4.289   2.647 -0.3217  0.3282  0.1615
  787PF6-    F415044   2.559   4.106   2.523  0.5575  0.0379 -0.3190
  787PF6-    F515045   2.643   4.247   2.803 -0.0266  0.1444 -0.2086
  787PF6-    F615046   2.707   4.262   2.590 -0.6350  0.3863 -0.1632
  787PF6-    F715047   2.490   4.082   2.745  0.2321 -0.0661 -0.7401
  788PF6-    P115048   5.064   4.806   4.071  0.1488 -0.1560 -0.1511
  788PF6-    F215049   5.104   4.663   4.011 -0.0524  0.1809  0.4934
  788PF6-    F315050   5.022   4.950   4.131 -0.2945 -0.6217  0.2073
  788PF6-    F415051   5.029   4.865   3.921  0.7742 -0.2594 -0.3896
  788PF6-    F515052   5.094   4.760   4.219  0.3679 -0.2924  0.0402
  788PF6-    F615053   5.213   4.866   4.051  0.0133 -0.3262  0.0526
  788PF6-    F715054   4.913   4.759   4.092 -0.3383 -0.0044  0.6150
  789PF6-    P115055   3.886   1.958   3.573 -0.4576 -0.1628 -0.4096
  789PF6-    F215056   3.935   1.930   3.423  0.5803 -0.4538 -0.8383
  789PF6-    F315057   3.834   1.970   3.721 -0.2152  0.6112 -0.0697
  789PF6-    F415058   3.891   2.119   3.554 -0.0644  0.4363  0.1200
  789PF6-    F515059   3.875   1.799   3.593  0.0789 -0.1593 -0.0746
  789PF6-    F615060   4.045   1.960   3.619 -0.2363  0.1811 -0.8120
  789PF6-    F715061   3.734   1.959   3.528  0.1585 -0.0805 -0.2695
  790PF6-    P115062   0.542   2.158   4.517  0.1933  0.1359 -0.6590
  790PF6-    F215063   0.489   2.146   4.673 -0.7759 -0.1533 -0.1242
  790PF6-    F315064   0.590   2.170   4.368 -0.1526 -0.0364  0.1566
  790PF6-    F415065   0.582   2.308   4.540 -0.4034  0.3518  0.3053
  790PF6-    F515066   0.501   2.007   4.491  0.5682  0.1925  0.0648
  790PF6-    F615067   0.396   2.200   4.470  0.0589 -0.7506  0.0582
  790PF6-    F715068   0.689   2.116   4.561  0.4867 -0.0634 -0.1422
  791PF6-    P115069   4.487   3.272   4.358 -0.3116 -0.0300 -0.3943
  791PF6-    F215070   4.538   3.395   4.263  0.8175  0.0472 -0.1343
  791PF6-    F315071   4.435   3.153   4.451 -0.9016  0.1334  0.0351
  791PF6-    F415072   4.372   3.369   4.411  0.1314 -0.5475  0.1292
  791PF6-    F515073   4.610   3.181   4.304 -0.2294  0.4356  0.6915
  791PF6-    F615074   4.581   3.319   4.476  0.1629 -0.1802 -0.1953
  791PF6-    F715075   4.390   3.228   4.239 -0.4545 -0.1959 -0.6695
  792PF6-    P115076   3.076   3.420   1.355 -0.1597 -0.6292  0.0740
  792PF6-    F215077   3.112   3.428   1.197  0.1816 -0.0023  0.6804
  792PF6-    F315078   3.033   3.411   1.508 -0.7939  0.0586 -0.0291
  792PF6-    F415079   3.214   3.504   1.390 -0.0737  0.5111  0.4023
  792PF6-    F515080   2.939   3.340   1.319 -0.2726 -0.1737  0.0165
  792PF6-    F615081   3.156   3.287   1.365  0.0251  0.1514  0.1311
  792PF6-    F715082   2.996   3.554   1.336 -0.0357  0.0908  0.3867
  793PF6-    P115083   3.153   3.101   2.812 -0.6847 -0.3628 -0.5196
  793PF6-    F215084   3.144   3.212   2.697  0.1712  0.1660  0.0623
  793PF6-    F315085   3.166   2.990   2.928 -0.2403 -0.1694 -0.2347
  793PF6-    F415086   3.030   3.180   2.888 -0.3763 -0.1796  0.4798
  793PF6-    F515087   3.264   3.023   2.730 -0.3401 -0.1182 -0.5082
  793PF6-    F615088   3.267   3.189   2.892  0.0263  0.2688  0.5636
  793PF6-    F715089   3.048   3.006   2.734  0.3896 -0.8176 -0.7030
  794PF6-    P115090   2.670   3.525   0.020 -0.1998  0.2506 -0.0816
  794PF6-    F215091   2.533   3.583   0.076 -0.2640  0.0118  0.1269
  794PF6-    F315092   2.809   3.467  -0.029  0.1026 -0.2119  0.1917
  794PF6-    F415093   2.602   3.374   0.000  0.2941  0.0058 -0.0338
  794PF6-    F515094   2.741   3.663   0.042  0.0166 -0.0785 -0.4327
  794PF6-    F615095   2.705   3.488   0.171  0.4892 -0.2850  0.1685
  794PF6-    F715096   2.621   3.568  -0.123 -0.3166 -0.0797 -0.0223
  795PF6-    P115097   5.075   3.733   1.959  0.0321 -0.0174  0.2914
  795PF6-    F215098   5.216   3.777   2.021 -0.5711  0.4334 -0.5488
  795PF6-    F315099   4.933   3.698   1.891 -0.3999 -0.2528  0.3710
  795PF6-    F415100   4.997   3.824   2.065  0.3883 -0.3987  0.1597
  795PF6-    F515101   5.141   3.640   1.852 -0.4541  0.3302  0.3097
  795PF6-    F615102   5.063   3.613   2.058  0.3872  0.1107 -0.4493
  795PF6-    F715103   5.073   3.854   1.858  0.2365  0.0667  0.4203
  796PF6-    P115104   3.468   3.644   4.396 -0.1631 -0.0516 -0.3082
  796PF6-    F215105   3.579   3.749   4.440  0.1178  0.3530 -0.5585
  796PF6-    F315106   3.351   3.546   4.352  0.0774  0.0409 -0.4800
  796PF6-    F415107   3.570   3.524   4.393  0.5326  0.3267  0.5301
  796PF6-    F515108   3.361   3.766   4.404  0.0534 -0.6108 -0.3657
  796PF6-    F615109   3.507   3.679   4.243  0.1839  0.8057 -0.1613
  796PF6-    F715110   3.434   3.610   4.548  0.7256  0.5012 -0.2589
  797PF6-    P115111   4.800   2.063   4.102  0.2381 -0.3994  0.2077
  797PF6-    F215112   4.735   1.992   3.980 -0.3570  0.4371 -0.0147
  797PF6-    F315113   4.866   2.133   4.229  0.2965  0.2336  0.1600
  797PF6-    F415114   4.657   2.069   4.177 -0.2187 -0.1760  0.0617
  797PF6-    F515115   4.944   2.065   4.021  0.2194 -0.2956  0.3892
  797PF6-    F615116   4.767   2.205   4.045 -0.0824  0.7528  0.0247
  797PF6-    F715117   4.830   1.925   4.163 -0.8254  0.5390  0.6680
  798PF6-    P115118   4.478   1.751   2.610 -0.0766 -0.3221  0.0526
  798PF6-    F215119   4.450   1.892   2.535 -0.5339 -0.2696 -0.2475
  798PF6-    F315120   4.503   1.611   2.689 -0.0563 -0.5325  0.7030
  798PF6-    F415121   4.357   1.784   2.712 -0.3293 -0.2928 -0.0393
  798PF6-    F515122   4.599   1.717   2.516 -0.4555 -0.2353  0.5375
  798PF6-    F615123   4.578   1.824   2.712  0.3465 -0.1290 -0.2946
  798PF6-    F715124   4.382   1.680   2.510  0.1103  0.0926  0.3523
  799PF6-    P115125   3.626   2.294   4.626  0.2128  0.1684  0.1040
  799PF6-    F215126   3.639   2.315   4.471 -0.1611 -0.5165  0.6079
  799PF6-    F315127   3.607   2.264   4.781  0.2036  0.5807 -0.1321
  799PF6-    F415128   3.588   2.451   4.655  0.3866  0.6198 -0.2485
  799PF6-    F515129   3.666   2.139   4.612 -0.2580 -0.0792 -0.5468
  799PF6-    F615130   3.784   2.323   4.645 -0.3725 -0.0875 -0.2144
  799PF6-    F715131   3.466   2.258   4.605 -0.0688 -0.0095 -0.2443
  800PF6-    P115132   4.027   3.077   2.918 -0.3967  0.3116  0.2428
  800PF6-    F215133   4.131   3.179   2.985  0.3266 -0.4406  0.0179
  800PF6-    F315134   3.926   2.971   2.846  0.3242 -0.6124 -0.1967
  800PF6-    F415135   4.020   2.992   3.054  0.1039 -0.0827 -0.0255
  800PF6-    F515136   4.042   3.164   2.784  0.1426  0.0722  0.1634
  800PF6-    F615137   4.156   2.986   2.884  0.5898 -0.1637 -0.5494
  800PF6-    F715138   3.901   3.167   2.967 -0.4854  0.1629 -0.5230
  801PF6-    P115139   3.532   1.352   4.436  0.1744 -0.1277  0.1218
  801PF6-    F215140   3.597   1.238   4.349  0.4487  0.0993 -0.2882
  801PF6-    F315141   3.463   1.466   4.529 -1.0278  0.2880  0.3824
  801PF6-    F415142   3.397   1.350   4.353  0.5306 -0.0836 -0.4142
  801PF6-    F515143   3.662   1.348   4.533  0.3289  0.0531 -0.4515
  801PF6-    F615144   3.594   1.465   4.340  0.6178 -0.4290  0.4407
  801PF6-    F715145   3.471   1.238   4.534 -0.0743  0.2906  0.1278
  802PF6-    P115146   0.246   3.634   0.277  0.7355  0.4898  0.2455
  802PF6-    F215147   0.338   3.669   0.147 -0.8735  0.1482 -0.5216
  802PF6-    F315148   0.140   3.617   0.406 -0.2324 -0.1333  0.1022
  802PF6-    F415149   0.370   3.653   0.372  0.1658  0.0484 -0.9764
  802PF6-    F515150   0.117   3.615   0.179  0.2039 -0.4917  0.2596
  802PF6-    F615151   0.272   3.478   0.267  0.2392 -0.1683 -0.5438
  802PF6-    F715152   0.217   3.790   0.287 -0.7193 -0.3576 -0.5616
  803PF6-    P115153   3.351   5.202   1.621  0.0697 -0.2528  0.2739
  803PF6-    F215154   3.264   5.245   1.752 -0.1202  0.3459 -0.1403
  803PF6-    F315155   3.430   5.170   1.492 -0.3068 -0.0843  0.3550
  803PF6-    F415156   3.472   5.172   1.718  0.2009  0.0008  0.5705
  803PF6-    F515157   3.222   5.243   1.531  0.2431  0.1773  0.0979
  803PF6-    F615158   3.401   5.352   1.612 -0.1189  0.1642  0.1475
  803PF6-    F715159   3.314   5.045   1.623 -0.3617  0.2806  0.0570
  804PF6-    P115160   1.951   1.608   3.126  0.1166  0.3797  0.1003
  804PF6-    F215161   2.058   1.535   3.036 -0.0876  0.1749 -0.2953
  804PF6-    F315162   1.845   1.686   3.224 -0.0068 -0.2442  0.2108
  804PF6-    F415163   1.884   1.668   2.994 -0.5845 -0.1476  0.3468
  804PF6-    F515164   2.030   1.560   3.255 -0.2636  0.4297  0.0339
  804PF6-    F615165   2.042   1.738   3.122  0.2454 -0.3967  0.6049
  804PF6-    F715166   1.861   1.482   3.128 -0.3888  0.1910  0.0466
  805PF6-    P115167   4.534   0.607   4.648  0.3511  0.1736 -0.2903
  805PF6-    F215168   4.470   0.564   4.789 -0.3537  0.0531  0.0558
  805PF6-    F315169   4.592   0.650   4.506 -0.5973 -0.1534 -0.3393
  805PF6-    F415170   4.577   0.745   4.710  0.4569  0.1577  0.2329
  805PF6-    F515171   4.489   0.467   4.591  0.1231 -0.9997 -0.1958
  805PF6-    F615172   4.388   0.664   4.601 -0.1324  0.5124  0.3763
  805PF6-    F715173   4.673   0.549   4.698  0.3288 -0.5620 -0.1999
  806PF6-    P115174   3.902   3.455   1.801  0.1651  0.2773  0.1089
  806PF6-    F215175   3.914   3.399   1.647 -0.2380 -0.4214  0.3330
  806PF6-    F315176   3.891   3.506   1.955  0.0711  0.2168  0.6100
  806PF6-    F415177   4.036   3.376   1.840  0.3305  0.4836 -0.3061
  806PF6-    F515178   3.775   3.527   1.767  0.0509 -0.2533 -0.1328
  806PF6-    F615179   3.827   3.321   1.842  0.5557 -0.1387  0.5032
  806PF6-    F715180   3.988   3.587   1.765 -0.2682 -0.0216 -0.0445
  807PF6-    P115181   1.926   4.293   0.359  0.5235  0.2838  0.9310
  807PF6-    F215182   2.043   4.201   0.288  0.4233  0.6947  0.1638
  807PF6-    F315183   1.815   4.392   0.427 -0.2944 -0.3700  0.3332
  807PF6-    F415184   1.899   4.353   0.212  0.1218 -0.0834  0.0337
  807PF6-    F515185   1.960   4.227   0.494 -0.3292  0.3016 -0.3407
  807PF6-    F615186   2.040   4.402   0.379  0.3911 -0.7864  0.2044
  807PF6-    F715187   1.818   4.172   0.332 -0.0139 -0.0539  0.0782
  808PF6-    P115188   5.475   1.548   2.470  0.5432 -0.1292  0.3971
  808PF6-    F215189   5.621   1.577   2.518  0.1252  0.2232  0.2928
  808PF6-    F315190   5.330   1.532   2.409 -0.0436  0.2326 -0.6475
  808PF6-    F415191   5.434   1.694   2.531 -0.4110 -0.3440  0.1838
  808PF6-    F515192   5.523   1.413   2.400  0.2414  0.4348  0.0231
  808PF6-    F615193   5.437   1.474   2.608 -0.6677  0.1656  0.0146
  808PF6-    F715194   5.508   1.622   2.329 -0.1853  0.5505 -0.2001
  809PF6-    P115195   4.476   4.777   0.300  0.1349 -0.1075  0.3152
  809PF6-    F215196   4.587   4.659   0.318  0.6539  0.2430  0.2065
  809PF6-    F315197   4.366   4.896   0.292  0.1473 -0.4005  0.3460
  809PF6-    F415198   4.359   4.681   0.359  0.3054 -0.2985  0.0903
  809PF6-    F515199   4.581   4.877   0.230  0.1960 -0.4219  0.3539
  809PF6-    F615200   4.430   4.729   0.159 -0.2601  0.3294  0.2531
  809PF6-    F715201   4.515   4.828   0.446 -0.3492  0.1791  0.0593
  810PF6-    P115202   1.356   4.263   2.116  0.0233  0.0417  0.6112
  810PF6-    F215203   1.335   4.290   2.270 -0.1002 -0.2062 -0.0322
  810PF6-    F315204   1.381   4.227   1.958 -0.0596  0.5441 -0.8193
  810PF6-    F415205   1.481   4.161   2.149  0.2281  0.0133 -0.2457
  810PF6-    F515206   1.228   4.361   2.076 -0.2700  0.4365  0.3943
  810PF6-    F615207   1.455   4.387   2.114  0.5547  0.4229 -0.4852
  810PF6-    F715208   1.252   4.145   2.122  0.4400  0.8337  0.1993
  811PF6-    P115209   0.396   3.129   3.477 -0.0379  0.0080  0.6968
  811PF6-    F215210   0.527   3.154   3.388 -0.4325 -0.3624  0.3355
  811PF6-    F315211   0.259   3.085   3.564 -0.1495 -0.1253 -0.2681
  811PF6-    F415212   0.438   3.249   3.569 -0.0825  0.0015  0.3730
  811PF6-    F515213   0.358   3.015   3.369  0.1572 -0.1271  0.3818
  811PF6-    F615214   0.486   3.021   3.563  0.2585  0.1483 -0.3181
  811PF6-    F715215   0.306   3.224   3.387 -0.4148 -0.2230  0.1889
  812PF6-    P115216   0.704   4.345   3.114  0.2787 -0.0618 -0.1955
  812PF6-    F215217   0.721   4.477   3.202 -0.1247  0.2956  0.5569
  812PF6-    F315218   0.694   4.211   3.029 -0.0060 -0.5381  0.4712
  812PF6-    F415219   0.576   4.301   3.205  0.6278  0.3449 -0.3755
  812PF6-    F515220   0.822   4.390   3.018 -0.1959 -0.0934 -0.2578
  812PF6-    F615221   0.802   4.269   3.214 -0.3177  0.4262 -0.2725
  812PF6-    F715222   0.604   4.422   3.015 -0.0534 -0.4569  0.4237
  813PF6-    P115223   1.188   0.722   0.812 -0.3526 -0.2972  0.4386
  813PF6-    F215224   1.058   0.777   0.892 -0.3774 -0.1370  0.0517
  813PF6-    F315225   1.316   0.659   0.730 -0.1294  0.0891 -0.0445
  813PF6-    F415226   1.290   0.808   0.899 -0.2836  0.1116  0.1159
  813PF6-    F515227   1.094   0.632   0.715 -0.5477 -0.2797 -0.1288
  813PF6-    F615228   1.177   0.841   0.705 -0.0292 -0.2583 -0.0076
  813PF6-    F715229   1.198   0.601   0.914 -0.5141 -0.1060  0.0847
  814PF6-    P115230   5.107   1.202   4.432 -0.2988  0.0356  0.0343
  814PF6-    F215231   4.970   1.275   4.431  0.1513  0.4692  0.5651
  814PF6-    F315232   5.246   1.129   4.421  0.1014  0.8381 -0.5065
  814PF6-    F415233   5.042   1.076   4.508 -0.1536  0.1585  0.1757
  814PF6-    F515234   5.172   1.331   4.358  0.4133 -0.0458  0.0939
  814PF6-    F615235   5.152   1.264   4.574 -0.3575  0.2929 -0.2623
  814PF6-    F715236   5.075   1.134   4.295 -0.2972  0.2664  0.4058
  815PF6-    P115237   2.683   1.915   5.260 -0.4221 -0.4818 -0.5496
  815PF6-    F215238   2.604   1.784   5.305  0.1506 -0.5699  0.8196
  815PF6-    F315239   2.753   2.052   5.208 -0.4143  0.0962 -0.0561
  815PF6-    F415240   2.549   1.955   5.178  1.1786 -0.3712 -0.8940
  815PF6-    F515241   2.822   1.882   5.342  0.4372  0.3322  0.3569
  815PF6-    F615242   2.737   1.838   5.132 -0.3641 -0.1870  0.0897
  815PF6-    F715243   2.635   1.995   5.389 -0.1290 -0.2738 -0.4924
  816PF6-    P115244   3.561   5.357   0.476  0.2237  0.0165 -0.0165
  816PF6-    F215245   3.443   5.401   0.382  0.5034 -0.3827 -0.4064
  816PF6-    F315246   3.683   5.303   0.565  0.0886  0.0529  0.1100
  816PF6-    F415247   3.654   5.469   0.414  0.0510  0.0888  0.3260
  816PF6-    F515248   3.464   5.244   0.538 -0.3488 -0.0705  0.2467
  816PF6-    F615249   3.600   5.254   0.364 -0.0013  0.1874  0.2727
  816PF6-    F715250   3.519   5.454   0.598  0.0385 -0.0793  0.0474
  817PF6-    P115251   2.156   0.846   0.338 -0.2870  0.2715 -0.3296
  817PF6-    F215252   2.291   0.753   0.363  0.2691 -0.2711  0.2865
  817PF6-    F315253   2.036   0.945   0.313  0.1337 -0.5266 -0.0681
  817PF6-    F415254   2.159   0.877   0.490 -0.1822  0.4406 -0.3690
  817PF6-    F515255   2.160   0.802   0.187  0.0409  0.3128  0.2899
  817PF6-    F615256   2.058   0.720   0.373 -0.2682 -0.7443  0.1754
  817PF6-    F715257   2.253   0.968   0.297  0.2663 -0.2049  0.2553
  818PF6-    P115258   3.497   4.456   1.423 -0.1254  0.3193 -0.1731
  818PF6-    F215259   3.514   4.299   1.402  0.3681 -0.0749  0.2117
  818PF6-    F315260   3.490   4.614   1.445  0.0399  0.3847 -0.3814
  818PF6-    F415261   3.344   4.429   1.479  0.0106 -0.1413  0.5845
  818PF6-    F515262   3.646   4.471   1.364  0.3132 -0.0403  0.3750
  818PF6-    F615263   3.436   4.472   1.278 -0.2651  0.3493  0.3492
  818PF6-    F715264   3.553   4.435   1.574  0.1533 -0.2398  0.7329
  819PF6-    P115265   5.047   2.469   4.858  0.4669 -0.1735  0.3481
  819PF6-    F215266   4.930   2.419   4.758  0.1533 -0.2778  0.2174
  819PF6-    F315267   5.161   2.517   4.957 -0.5610 -0.1219 -0.1407
  819PF6-    F415268   5.160   2.435   4.752 -0.2376 -0.0311  0.3000
  819PF6-    F515269   4.935   2.504   4.960  0.3969 -0.2215 -0.0774
  819PF6-    F615270   5.053   2.321   4.914  0.3068 -0.4743 -0.2274
  819PF6-    F715271   5.034   2.617   4.794  0.2869  0.4076  0.3943
  820PF6-    P115272   2.907   4.790   3.483 -0.1825  0.2344 -0.1302
  820PF6-    F215273   2.788   4.761   3.377  0.3920 -0.3577  0.1287
  820PF6-    F315274   3.024   4.822   3.581 -0.0541 -0.6155 -0.1111
  820PF6-    F415275   2.807   4.841   3.590  0.0731  0.5048 -0.0640
  820PF6-    F515276   3.021   4.742   3.386  0.0814 -0.6519  0.4622
  820PF6-    F615277   2.931   4.939   3.423 -0.0003  0.5205 -0.3649
  820PF6-    F715278   2.900   4.638   3.544 -0.1161 -0.1041  0.3916
  821PF6-    P115279   5.443   4.709   2.937  0.3475 -0.2957 -0.3738
  821PF6-    F215280   5.467   4.604   3.050 -0.5223  0.3763  0.3493
  821PF6-    F315281   5.418   4.820   2.822  0.1817 -0.4600  0.1668
  821PF6-    F415282   5.285   4.711   2.978  0.3833  0.1783  0.4061
  821PF6-    F515283   5.598   4.713   2.904  0.0594 -0.0508 -0.0058
  821PF6-    F615284   5.426   4.595   2.825  0.4502  0.3083 -0.1435
  821PF6-    F715285   5.465   4.823   3.046 -0.1590  0.0563 -0.5616
  822PF6-    P115286   5.462   2.466   1.973  0.1301 -0.5723  0.2405
  822PF6-    F215287   5.386   2.552   2.085 -0.0158 -0.1567 -0.5897
  822PF6-    F315288   5.543   2.379   1.869 -0.2314 -0.2022  0.0380
  822PF6-    F415289   5.329   2.467   1.873  0.1582 -0.4063 -0.7866
  822PF6-    F515290   5.592   2.469   2.069  0.7227 -0.5838  0.1272
  822PF6-    F615291   5.404   2.332   2.052 -0.0541 -0.1358  0.1428
  822PF6-    F715292   5.521   2.596   1.907 -0.2673 -0.7399  0.2884
  823PF6-    P115293   1.689   0.656   2.958  0.4621  0.5223  0.3034
  823PF6-    F215294   1.805   0.768   2.965  0.2596 -0.0025 -0.1330
  823PF6-    F315295   1.571   0.547   2.954 -0.2272  0.2171  0.4380
  823PF6-    F415296   1.801   0.548   2.998  0.3247  0.3446  0.3572
  823PF6-    F515297   1.582   0.770   2.932  0.5034  0.0237  0.4760
  823PF6-    F615298   1.723   0.633   2.794  0.0728 -0.2343 -0.5829
  823PF6-    F715299   1.657   0.682   3.113  0.0221  0.1731  0.0720
  824PF6-    P115300   0.910   2.179   3.423  0.2298  0.1341  0.3023
  824PF6-    F215301   0.880   2.037   3.493  0.4314  0.1242  0.0222
  824PF6-    F315302   0.938   2.323   3.348  0.4088  0.2017 -0.2496
  824PF6-    F415303   1.012   2.099   3.320 -0.2610  0.1468 -0.2952
  824PF6-    F515304   0.806   2.254   3.523  0.8381  0.2937  0.3794
  824PF6-    F615305   1.029   2.207   3.523 -0.3409  0.1431  0.6519
  824PF6-    F715306   0.787   2.154   3.317 -0.5645 -0.5314 -0.1028
  825PF6-    P115307   2.174   5.144   2.460 -0.0672 -0.1106 -0.3868
  825PF6-    F215308   2.319   5.197   2.497  0.1890  0.5625  0.1641
  825PF6-    F315309   2.027   5.090   2.430 -0.3018  0.1053  0.0368
  825PF6-    F415310   2.233   5.000   2.423 -0.2680 -0.3264 -0.8062
  825PF6-    F515311   2.115   5.288   2.498  0.1481  0.0982  0.4755
  825PF6-    F615312   2.194   5.182   2.310 -0.0012  0.1998  0.0499
  825PF6-    F715313   2.166   5.099   2.607  0.0963  0.2223 -0.2665
  826PF6-    P115314   0.338   0.434   0.605 -0.0228  0.3031 -0.1332
  826PF6-    F215315   0.258   0.434   0.467  0.2772  0.3340  0.0720
  826PF6-    F315316   0.412   0.434   0.746  0.2612 -0.4469  0.4730
  826PF6-    F415317   0.206   0.496   0.680  0.1650  0.6591 -0.0208
  826PF6-    F515318   0.476   0.375   0.537 -0.0799 -0.0849 -0.0039
  826PF6-    F615319   0.392   0.580   0.574 -0.5841 -0.5025  0.1219
  826PF6-    F715320   0.281   0.289   0.639  0.4457  0.2161  0.1052
  827PF6-    P115321   5.405   3.630   4.972  0.2495  0.5216 -0.2797
  827PF6-    F215322   5.351   3.751   5.062  0.0257  0.1126  0.2049
  827PF6-    F315323   5.457   3.505   4.881 -0.2982  0.5915  0.5486
  827PF6-    F415324   5.399   3.534   5.102  0.5241  0.5700  0.5620
  827PF6-    F515325   5.407   3.726   4.837  0.1407 -0.4981  0.0632
  827PF6-    F615326   5.560   3.662   5.001 -0.0616  0.1459 -0.0527
  827PF6-    F715327   5.258   3.586   4.937  0.4488 -0.1385  0.2248
  828PF6-    P115328   1.851   3.255   0.450  0.1670 -0.1271 -0.5494
  828PF6-    F215329   1.744   3.295   0.335  0.3100  0.0639 -0.6351
  828PF6-    F315330   1.955   3.218   0.568 -0.7202  0.2183  0.0740
  828PF6-    F415331   1.753   3.123   0.489 -0.0645 -0.3399 -0.5359
  828PF6-    F515332   1.947   3.380   0.407 -0.3389 -0.5211  0.3487
  828PF6-    F615333   1.775   3.347   0.550  0.0879  0.4079  0.5839
  828PF6-    F715334   1.929   3.152   0.352  0.2806 -0.6859 -0.0676
  829PF6-    P115335   1.032   5.313   3.781  0.1149  0.2764  0.0215
  829PF6-    F215336   0.890   5.355   3.823  0.1054 -0.4903 -0.6377
  829PF6-    F315337   1.186   5.269   3.744 -0.5424  0.2700 -0.1544
  829PF6-    F415338   1.028   5.404   3.644  0.3196  0.0272  0.5258
  829PF6-    F515339   1.041   5.229   3.919  0.0633 -0.6683  0.3522
  829PF6-    F615340   0.974   5.181   3.704 -0.0748  0.1733  0.1025
  829PF6-    F715341   1.086   5.445   3.857  0.3226  0.3733 -0.6354
  830PF6-    P115342   0.065   1.616   5.339  0.0911  0.1859 -0.1362
  830PF6-    F215343   0.213   1.578   5.295  0.0651 -0.1475  0.1477
  830PF6-    F315344  -0.081   1.657   5.401 -0.5094  0.2683 -0.2476
  830PF6-    F415345  -0.008   1.511   5.241 -0.3335  0.5074 -0.7251
  830PF6-    F515346   0.128   1.726   5.434 -0.0213 -0.2200 -0.4073
  830PF6-    F615347   0.048   1.729   5.224 -0.5197 -0.3817  0.0165
  830PF6-    F715348   0.085   1.505   5.454 -0.8688  0.3866 -0.4440
  831PF6-    P115349   2.247   3.305   1.162 -0.4747 -0.1135  0.2659
  831PF6-    F215350   2.341   3.332   1.289  0.3453  0.3479 -0.0953
  831PF6-    F315351   2.157   3.268   1.029 -0.3243  0.4505 -0.1768
  831PF6-    F415352   2.185   3.172   1.224 -0.7885 -0.1938  0.0088
  831PF6-    F515353   2.317   3.437   1.095 -0.3187  0.1376 -0.2571
  831PF6-    F615354   2.367   3.216   1.100 -0.6144  0.0992 -0.4519
  831PF6-    F715355   2.133   3.394   1.225 -0.4608  0.2351 -0.2260
  832PF6-    P115356   0.274   4.213   1.153 -0.4536 -0.3143 -0.1488
  832PF6-    F215357   0.156   4.110   1.151 -0.0207  0.2584 -0.3872
  832PF6-    F315358   0.402   4.308   1.157  0.3402 -0.1020 -0.3974
  832PF6-    F415359   0.257   4.248   0.996 -0.5003  0.2197 -0.1068
  832PF6-    F515360   0.298   4.181   1.314 -0.9182  0.2256  0.6243
  832PF6-    F615361   0.373   4.091   1.113 -0.5925 -0.0141  0.0850
  832PF6-    F715362   0.172   4.338   1.187  0.3317 -0.0208  0.0254
  833PF6-    P115363   3.401   0.832   1.154 -0.1499 -0.1880  0.4050
  833PF6-    F215364   3.516   0.759   1.235  0.5571  0.5845  0.3968
  833PF6-    F315365   3.287   0.907   1.075 -0.0181 -0.2814 -0.2992
  833PF6-    F415366   3.507   0.873   1.036 -0.1521 -0.0800 -0.1394
  833PF6-    F515367   3.303   0.795   1.272  0.1628  0.0334 -0.0179
  833PF6-    F615368   3.443   0.964   1.226  0.3722 -0.0226  0.1536
  833PF6-    F715369   3.365   0.700   1.077 -0.0887  0.0466  0.3361
  834PF6-    P115370   2.304   3.963   4.491 -0.1045  0.3327  0.1442
  834PF6-    F215371   2.365   3.877   4.359 -0.1651  0.3758  0.1749
  834PF6-    F315372   2.257   4.039   4.628  0.2689  0.1381 -0.4968
  834PF6-    F415373   2.413   4.083   4.464 -0.4096  0.0696  0.3106
  834PF6-    F515374   2.203   3.841   4.520  0.4458  0.3760  0.1496
  834PF6-    F615375   2.415   3.889   4.577 -0.2946 -0.1145 -0.2213
  834PF6-    F715376   2.199   4.036   4.388 -0.2255  0.7942 -0.4549
  835PF6-    P115377   3.438   2.679   1.687 -0.0013 -0.0803  0.0200
  835PF6-    F215378   3.531   2.778   1.762  0.0308 -0.4886  0.3324
  835PF6-    F315379   3.342   2.573   1.617  0.0727 -0.5063 -0.3472
  835PF6-    F415380   3.570   2.630   1.606 -0.5215 -0.5263  0.7301
  835PF6-    F515381   3.308   2.732   1.762 -0.2552 -0.3752 -0.2107
  835PF6-    F615382   3.412   2.788   1.577  0.0122 -0.0857 -0.1319
  835PF6-    F715383   3.463   2.573   1.807  0.6333  0.2295  0.0504
  836PF6-    P115384   3.797   4.700   2.481  0.2625 -0.3876 -0.2044
  836PF6-    F215385   3.856   4.557   2.512  0.4172  0.3131 -0.3997
  836PF6-    F315386   3.737   4.838   2.450 -0.0581  0.1023 -0.5794
  836PF6-    F415387   3.650   4.643   2.523  0.0155  0.0244  0.6209
  836PF6-    F515388   3.942   4.749   2.440 -0.5670 -0.4031 -0.1925
  836PF6-    F615389   3.762   4.652   2.339  0.0391 -0.2617 -0.3690
  836PF6-    F715390   3.818   4.746   2.636 -0.3086  0.4687 -0.1604
  837PF6-    P115391   5.182   1.226   1.552 -0.4293  0.1123 -0.0479
  837PF6-    F215392   5.127   1.088   1.601 -0.2888 -0.4721  0.4705
  837PF6-    F315393   5.229   1.366   1.501  0.2323  0.1711  0.5680
  837PF6-    F415394   5.228   1.266   1.697 -0.1973 -0.3631 -0.1453
  837PF6-    F515395   5.128   1.190   1.402  0.1775  0.3909  0.1350
  837PF6-    F615396   5.042   1.289   1.585 -0.1774 -0.2401  0.2205
  837PF6-    F715397   5.325   1.155   1.521 -0.8634  0.3183  0.0663
  838PF6-    P115398   4.420   0.762   2.049 -0.1202 -0.0330  0.1097
  838PF6-    F215399   4.273   0.792   1.984 -0.5255 -0.6141 -0.3006
  838PF6-    F315400   4.568   0.731   2.106 -0.2378  0.0676 -0.3077
  838PF6-    F415401   4.383   0.845   2.177  0.1766 -0.2925 -0.1095
  838PF6-    F515402   4.454   0.673   1.915 -0.0546 -0.6804 -0.0638
  838PF6-    F615403   4.469   0.895   1.970  0.0182 -0.6107  0.3063
  838PF6-    F715404   4.363   0.627   2.118 -0.1859 -0.0064  0.0740
  839PF6-    P115405   2.729   1.013   2.119 -0.3795  0.0582  0.2104
  839PF6-    F215406   2.605   0.992   2.023  0.4588 -0.2451  0.6229
  839PF6-    F315407   2.864   1.026   2.205 -0.0018 -0.0463 -0.1417
  839PF6-    F415408   2.694   0.881   2.198 -0.5868  0.0164 -0.2868
  839PF6-    F515409   2.762   1.150   2.043 -0.3366  0.0315  0.3229
  839PF6-    F615410   2.648   1.098   2.222  0.1395  0.1378 -0.0093
  839PF6-    F715411   2.821   0.932   2.010 -0.0320  0.0830 -0.2722
  840PF6-    P115412   4.547   5.050   3.257  0.0427 -0.1468  0.1871
  840PF6-    F215413   4.449   5.058   3.130  0.2195 -0.0095  0.2666
  840PF6-    F315414   4.647   5.042   3.385  0.0133  0.1968  0.1506
  840PF6-    F415415   4.488   5.192   3.303 -0.3055 -0.2533  0.3913
  840PF6-    F515416   4.605   4.904   3.206  0.2724 -0.2011  0.0704
  840PF6-    F615417   4.664   5.130   3.172  0.3547  0.2181  0.4052
  840PF6-    F715418   4.433   4.977   3.344 -0.6164  0.0031  0.2370
  841PF6-    P115419   4.583   1.839   0.314  0.4453 -0.1872  0.3447
  841PF6-    F215420   4.582   1.692   0.377 -0.0291 -0.2622 -0.6500
  841PF6-    F315421   4.588   1.984   0.246 -0.0156  0.4425 -0.1473
  841PF6-    F415422   4.735   1.812   0.257  0.0757  0.8590  0.3334
  841PF6-    F515423   4.435   1.872   0.371 -0.0256 -0.3258  0.2984
  841PF6-    F615424   4.645   1.893   0.445  0.5256 -1.3389 -0.1891
  841PF6-    F715425   4.516   1.779   0.177  0.2728  0.2100 -0.8265
  842PF6-    P115426   2.394   1.785   0.695 -0.2376  0.0750 -0.1517
  842PF6-    F215427   2.543   1.840   0.664  0.3999  0.4058  0.2783
  842PF6-    F315428   2.241   1.740   0.724  0.3067 -0.1186 -0.3478
  842PF6-    F415429   2.451   1.653   0.761  0.5260 -0.3546 -0.0529
  842PF6-    F515430   2.341   1.922   0.627 -0.7449 -0.5838  0.8967
  842PF6-    F615431   2.381   1.714   0.547 -0.2353 -0.1340 -0.4933
  842PF6-    F715432   2.392   1.857   0.837 -0.2166  0.3063 -0.3025
  843PF6-    P115433   1.150   1.469   0.041 -0.0700  0.0035 -0.4305
  843PF6-    F215434   1.075   1.448   0.180  0.2918  0.0068 -0.2713
  843PF6-    F315435   1.216   1.487  -0.106 -0.5100 -0.2535  0.3492
  843PF6-    F415436   1.052   1.582   0.005  0.6319 -0.3038  0.4498
  843PF6-    F515437   1.248   1.351   0.076 -0.0211  0.1409  0.7286
  843PF6-    F615438   1.051   1.363  -0.017  0.3539  0.1153 -0.2745
  843PF6-    F715439   1.256   1.574   0.107  0.1087 -0.2794  0.7417
  844PF6-    P115440   1.068   4.758   4.770  0.3048  0.2170 -0.1838
  844PF6-    F215441   1.059   4.745   4.612 -0.5748  0.3430  0.4264
  844PF6-    F315442   1.081   4.768   4.931  0.1961  0.0873  0.5368
  844PF6-    F415443   0.977   4.892   4.776  0.3400 -0.0747 -0.4067
  844PF6-    F515444   1.157   4.621   4.771 -0.3362 -0.0279 -0.1727
  844PF6-    F615445   1.202   4.843   4.753 -0.1792 -1.2373  0.1011
  844PF6-    F715446   0.931   4.669   4.796 -0.0170  0.5384  0.2942
  845PF6-    P115447   4.941   3.810   3.831 -0.4763 -0.1400  0.1077
  845PF6-    F215448   5.088   3.754   3.853  0.3683  0.3749  0.1158
  845PF6-    F315449   4.790   3.859   3.816 -0.0438  0.2215  0.5281
  845PF6-    F415450   4.897   3.660   3.798 -0.3112  0.3595  0.1593
  845PF6-    F515451   4.989   3.957   3.869  0.2507 -0.5057 -0.0969
  845PF6-    F615452   4.978   3.839   3.676 -0.0927 -0.5047  0.5762
  845PF6-    F715453   4.912   3.784   3.988 -0.6207 -0.3690 -0.3614
  846PF6-    P115454   0.201   1.925   3.532  0.1753  0.2059 -0.0422
  846PF6-    F215455   0.221   2.024   3.660 -0.4357  0.6817  0.1499
  846PF6-    F315456   0.182   1.828   3.404 -0.1464  0.2910  0.0668
  846PF6-    F415457   0.340   1.847   3.565  0.0596 -0.2568 -0.0064
  846PF6-    F515458   0.060   1.995   3.497  0.0417 -0.1226 -0.5979
  846PF6-    F615459   0.283   2.031   3.436 -0.6976  0.0356 -0.2368
  846PF6-    F715460   0.127   1.821   3.625 -0.2897  0.2039 -0.1288
  847PF6-    P115461   0.411   4.963   0.258 -0.0564  0.1498  0.0139
  847PF6-    F215462   0.248   4.940   0.258 -0.3221  0.2272  0.8224
  847PF6-    F315463   0.571   4.976   0.265 -0.1109 -0.1946  0.0397
  847PF6-    F415464   0.394   5.116   0.223  0.3684  0.2902 -0.6392
  847PF6-    F515465   0.427   4.807   0.290  0.3975  0.0940 -0.3215
  847PF6-    F615466   0.428   4.935   0.097  0.1685  0.1287 -1.0097
  847PF6-    F715467   0.406   4.989   0.415  0.0957 -0.5525 -0.3363
  848PF6-    P115468   4.971   2.935   3.595  0.1107 -0.6305  0.5195
  848PF6-    F215469   5.042   2.810   3.537  0.4793  0.4285 -0.4109
  848PF6-    F315470   4.898   3.067   3.652  0.0644  0.0176 -0.1119
  848PF6-    F415471   4.824   2.869   3.587 -0.8723  0.1134 -0.0933
  848PF6-    F515472   5.121   2.997   3.614 -0.0972 -0.6829 -0.2861
  848PF6-    F615473   4.967   2.998   3.448 -0.0357  0.1947  0.1639
  848PF6-    F715474   4.982   2.877   3.745 -0.1645 -0.3346  0.0703
  849PF6-    P115475   1.226   3.691   2.906  0.0938  0.0718  0.2609
  849PF6-    F215476   1.311   3.596   2.809  0.1081  0.5590 -0.2191
  849PF6-    F315477   1.146   3.795   3.003  0.0981 -0.3299 -0.0793
  849PF6-    F415478   1.286   3.620   3.035  0.0749  0.0160 -0.0717
  849PF6-    F515479   1.168   3.756   2.776  0.4729  0.5913 -0.2895
  849PF6-    F615480   1.103   3.588   2.901 -0.2233  0.2987  0.4382
  849PF6-    F715481   1.346   3.790   2.903 -0.2938 -0.8059  0.3121
  850PF6-    P115482   5.366   0.239   5.152 -0.1413  0.1267  0.0092
  850PF6-    F215483   5.450   0.137   5.244 -0.5192 -0.2531  0.4868
  850PF6-    F315484   5.283   0.343   5.062  0.1427  0.0863  0.7156
  850PF6-    F415485   5.327   0.321   5.284  0.2077 -0.0056  0.3168
  850PF6-    F515486   5.408   0.157   5.020 -0.3219 -0.1442  0.2609
  850PF6-    F615487   5.232   0.146   5.162 -0.2445  0.0539  0.1132
  850PF6-    F715488   5.494   0.330   5.135 -0.1423 -0.4571 -0.8648
  851PF6-    P115489   3.197   1.605   3.164  0.2877 -0.4643  0.0921
  851PF6-    F215490   3.052   1.546   3.199  0.2375 -0.2716 -0.6657
  851PF6-    F315491   3.345   1.662   3.129 -0.1925  0.7922  0.4432
  851PF6-    F415492   3.233   1.474   3.079 -0.3933 -0.8211  0.0083
  851PF6-    F515493   3.161   1.732   3.255 -0.1499 -0.3477  0.2666
  851PF6-    F615494   3.246   1.540   3.304  0.0158  0.9329  0.7032
  851PF6-    F715495   3.141   1.683   3.042 -0.5710  0.0374  0.1888
  852PF6-    P115496   2.432   2.971   1.954 -0.0099 -0.0489  0.2569
  852PF6-    F215497   2.531   2.859   1.900 -0.3996 -0.1086 -0.3836
  852PF6-    F315498   2.331   3.088   2.007  0.0816 -0.1753 -0.6460
  852PF6-    F415499   2.318   2.866   1.967 -0.0305 -0.0681  0.4793
  852PF6-    F515500   2.551   3.076   1.935  0.2825 -0.0588 -0.2932
  852PF6-    F615501   2.386   3.002   1.804  0.6983  0.0688 -0.4348
  852PF6-    F715502   2.471   2.947   2.107 -0.2838 -0.2534  0.4988
  853PF6-    P115503   2.043   3.529   2.617 -0.1328 -0.0416 -0.0241
  853PF6-    F215504   1.915   3.628   2.631 -0.1632 -0.1512  0.0155
  853PF6-    F315505   2.174   3.438   2.602  0.2598  0.4088 -0.2518
  853PF6-    F415506   1.992   3.477   2.472  0.8673 -0.1384 -0.6540
  853PF6-    F515507   2.099   3.573   2.760  0.0754  0.0283 -0.4437
  853PF6-    F615508   1.961   3.411   2.691  0.0647 -0.0981 -0.1041
  853PF6-    F715509   2.123   3.648   2.547 -0.7880 -0.1062 -0.3731
  854Na+     N115510   2.722   1.034   1.278 -0.5044 -0.2307 -0.3428
  855Na+     N115511   4.097   1.879   4.348  0.3829 -0.3026 -0.1553
  856Na+     N115512   0.847   0.783   0.253 -0.1277  0.1008  0.1556
  857Na+     N115513   0.295   3.705   5.037 -0.1194  0.0901  0.3625
  858Na+     N115514   1.131   1.214   4.912 -0.0005  0.2891  0.2439
  859Na+     N115515   5.390   4.297   3.553  0.3039 -0.4029 -0.3397
  860Na+     N115516   4.462   0.627   2.810 -0.0890  0.4478  0.1109
  861Na+     N115517   5.240   0.817   4.912 -0.0809  0.0876 -0.1844
  862Na+     N115518   3.534   0.577   0.465  0.3552 -0.0876  0.1917
  863Na+     N115519   1.992   3.110   1.063  0.3354  0.3065  0.0108
  864Na+     N115520   0.203   0.365   0.169  0.0905  0.3293  0.1885
  865Na+     N115521   1.898   0.849   1.042  0.2155 -0.3005  1.1316
  866Na+     N115522   4.749   4.762   3.379  0.3846  0.3503 -0.0055
  867Na+     N115523   1.185   0.801   2.341  0.6138 -0.1972 -0.3950
  868Na+     N115524   2.338   1.733   2.663  0.1313  0.1870  0.1487
  869Na+     N115525   2.954   3.070   1.383 -0.1072 -0.0632 -0.3962
  870Na+     N115526   3.835   3.261   1.460  0.0207  0.0740 -0.0293
  871Na+     N115527   3.914   4.773   1.928  0.1167 -0.4314 -0.2903
  872Na+     N115528   4.509   3.554   3.311  0.0695  0.3453  0.0648
  873Na+     N115529   1.790   3.534   3.202 -0.8782 -0.0023 -0.3209
  874Na+     N115530   5.456   2.785   3.326  0.0551  0.1254 -0.0638
  875Na+     N115531   0.552   5.017   3.195  0.2133  0.1406 -0.5366
  876Na+     N115532   0.208   2.334   4.358  0.4395  0.2608 -0.2140
  877Na+     N115533   4.726   3.449   1.266 -0.4867  0.1081  0.1852
  878Na+     N115534   4.805   1.228   4.224  0.4857 -0.1945  0.2272
  879Na+     N115535   0.087   4.720   4.464  0.6739  0.0188 -0.0647
  880Na+     N115536   5.499   1.615   0.974 -0.1200 -0.0811 -0.2130
  881Na+     N115537   1.590   0.244   3.536 -0.0555 -0.2827  0.6555
  882Na+     N115538   2.373   0.123   0.629  0.3744  0.0438  0.4486
  883Na+     N115539   3.986   0.934   1.492 -0.2487 -0.0253 -0.3959
  884Na+     N115540   2.332   2.186   0.565  0.1475  0.6569  0.1728
  885Na+     N115541   4.577   1.459   0.417 -0.6622 -0.3581  0.0775
  886Na+     N115542   5.127   1.605   3.128  0.0887  0.0447  0.0679
  887Na+     N115543   0.741   2.363   3.768 -0.1233 -0.1923 -0.0802
  888Na+     N115544   0.493   0.409   1.863 -0.3903 -0.0167 -0.2252
  889Na+     N115545   4.964   0.005   3.968  0.1134  0.3188 -0.0431
  890Na+     N115546   1.977   3.058   3.725 -0.4060  0.0539  0.1989
  891Na+     N115547   2.539   4.264   3.880 -0.3200 -0.2365  0.3804
  892Na+     N115548   3.587   4.623   3.312 -0.2326  0.1688 -0.6173
  893Na+     N115549   1.192   5.147   0.525 -0.3178  0.5601  0.1215
  894Na+     N115550   3.531   2.983   2.305  0.0892 -0.1592 -0.4059
  895Na+     N115551   4.899   2.082   5.352 -0.1738 -0.0150  0.1857
  896Na+     N115552   4.273   2.627   0.923 -0.2536 -0.3715  0.7558
  897Na+     N115553   3.839   3.214   4.004 -0.3351  0.2981 -0.1868
  898Na+     N115554   3.496   4.022   1.882  0.1265 -0.4406 -0.2607
  899Na+     N115555   3.382   2.638   4.671 -0.1320 -0.0506 -0.2496
  900Na+     N115556   0.327   4.629   2.295 -0.4648 -0.0364 -0.2732
  901Na+     N115557   1.876   4.584   5.487  0.0368  0.1151  0.0244
  902Na+     N115558   5.266   3.090   1.961  0.7844 -0.0646 -0.3859
  903Na+     N115559   1.595   1.767   0.460 -0.0848  0.1571 -0.4586
  904Na+     N115560   0.030   1.715   2.066 -0.3676  0.0177 -0.0759
  905Na+     N115561   3.267   1.598   1.175  0.2343  0.1859  0.0236
  906Na+     N115562   5.018   3.457   0.280 -0.5412  0.5640 -0.1641
  907Na+     N115563   2.626   5.029   1.888 -0.4275 -0.5148 -0.2965
  908Na+     N115564   0.465   2.112   5.308  0.5085  0.0646  0.3023
  909Na+     N115565   3.398   0.952   1.889 -0.0010 -0.8424 -0.0338
  910Na+     N115566   4.040   2.314   1.692 -0.3764 -0.3596  0.0801
  911Na+     N115567   4.849   1.243   2.151 -0.1843  0.2544  0.3429
  912Na+     N115568   4.005   4.653   5.119 -0.0499  0.2070 -0.3296
  913Na+     N115569   1.921   5.252   1.563  0.2548 -0.5179  0.2513
  914Na+     N115570   4.850   3.234   4.311  0.3228 -0.2134  0.4292
  915Na+     N115571   4.639   0.260   5.288  0.2266  0.3547  0.0224
  916Na+     N115572   2.761   3.700   0.749 -0.7588 -0.4242 -0.0426
  917Na+     N115573   1.610   2.319   1.318 -0.2492 -0.0356  0.3110
  918Na+     N115574   2.353   4.881   2.905  0.4390 -0.3317  0.3259
  919Na+     N115575   1.365   1.874   3.677 -0.4062 -0.3915 -0.0219
  920Na+     N115576   0.494   2.208   2.455  0.0708 -0.3312 -0.4425
  921Na+     N115577   1.543   4.323   1.530 -0.3362  0.1400 -0.2124
  922Na+     N115578   2.180   4.844   0.810 -0.0952  0.1401 -0.4270
  923Na+     N115579   4.409   2.469   3.859  0.4567 -0.5662  0.3495
  924Na+     N115580   1.088   5.260   2.538  0.2545 -0.1994 -0.0117
  925Na+     N115581   2.309   4.024   1.974 -0.1764  0.4167 -0.1929
  926Na+     N115582   0.909   4.587   5.453 -0.2691  0.2004 -0.4505
  927Na+     N115583   2.396   3.414   2.747  0.1008  0.1733 -0.6478
  928Na+     N115584   3.591   2.549   3.043  0.0368  0.1819  0.1706
  929Na+     N115585   1.753   3.166   2.154 -0.2640  0.4702  0.0582
  930Na+     N115586   1.379   4.707   4.188 -0.3490  0.3119  0.0838
  931Na+     N115587   0.285   1.494   4.655 -0.2892 -0.2097  0.1299
  932Na+     N115588   3.938   0.346   4.593 -0.8069 -0.1212 -0.2208
  933Na+     N115589   0.212   4.967   1.149  0.0069  0.0574  0.1218
  934Na+     N115590   2.533   0.292   2.881 -0.3205  0.2972  0.2083
  935Na+     N115591   3.806   1.604   2.992  0.1581  0.3808 -0.1462
  936Na+     N115592   0.284   5.130   5.173 -0.0802  0.4358 -0.3218
  937Na+     N115593   5.161   4.730   0.215 -0.1054 -0.0064 -0.2324
  938Na+     N115594   2.048   3.425   5.311 -0.1184  0.1926 -0.4161
  939Na+     N115595   0.680   3.321   3.246  0.0526 -0.1636  0.0674
  940Na+     N115596   0.105   1.038   4.010 -0.1081  0.0897 -0.3231
  941Na+     N115597   2.875   1.261   5.408  0.5904  0.1111 -0.0399
  942Na+     N115598   0.824   0.069   4.456 -0.0150 -0.0884  0.1878
  943Na+     N115599   4.844   3.971   4.625  0.4149  0.2917  0.1079
  944Na+     N115600   3.637   3.787   2.994  0.2661  0.1056  0.0458
  945Na+     N115601   2.877   3.952   4.754  0.0457 -0.1503 -0.0536
  946Na+     N115602   1.919   2.226   4.907  0.1631 -0.2030 -0.1982
  947Na+     N115603   0.449   3.917   1.280  0.7361  0.3399 -0.0365
  948Na+     N115604   2.940   1.309   3.309 -0.7647 -0.1181  0.0244
  949Na+     N115605   2.619   1.172   4.048 -0.4610  0.0402 -0.0255
  950Na+     N115606   3.156   0.325   4.155 -0.1252 -0.3221 -0.1133
  951Na+     N115607   1.354   4.044   2.869  0.1272  0.8007  0.0590
  952Na+     N115608   1.599   0.584   5.432 -0.1122 -0.0850 -0.2258
  953Na+     N115609   3.754   1.842   0.354  0.8522  0.2096 -0.0154
   5.49883   5.49883   5.49883
