DG-THF-PF6-Na    Amber RESP
15609
    1DG      C1    1   1.435   5.098   2.484 -0.5321 -1.2354  0.1783
    1DG      C2    2   1.125   4.458   2.376 -0.3492 -1.0914 -0.1179
    1DG      H3    3   1.371   5.113   2.398  0.1833 -1.5587 -0.4208
    1DG      H4    4   1.520   5.154   2.446 -2.5177  0.5612 -1.8682
    1DG      H5    5   1.415   5.142   2.582  0.9332 -1.0321  0.4085
    1DG      H6    6   1.079   4.450   2.277 -0.8972 -1.7552  0.1868
    1DG      H7    7   1.134   4.360   2.422 -0.8856 -0.7978  0.6179
    1DG      H8    8   1.062   4.517   2.443  2.4712  1.9374  0.1648
    1DG      O9    9   1.467   4.962   2.503 -0.1380  0.2465  0.2833
    1DG     O10   10   1.262   4.497   2.369 -0.3294  0.5296 -0.4202
    1DG     C11   11   1.547   4.901   2.398 -0.0174  0.0654 -0.2398
    1DG     C12   12   1.329   4.496   2.497  0.2083 -0.1669  0.1813
    1DG     H13   13   1.638   4.957   2.381 -0.1335 -0.4769 -3.0026
    1DG     H14   14   1.486   4.914   2.309 -1.5186 -0.1408  0.7056
    1DG     H15   15   1.331   4.391   2.525 -0.0093 -0.2888 -0.2625
    1DG     H16   16   1.259   4.541   2.568 -2.0790  0.7348 -2.4512
    1DG     C17   17   1.575   4.758   2.417  0.0430 -0.4314 -0.4017
    1DG     C18   18   1.472   4.557   2.485 -0.1407  0.2562  0.7336
    1DG     O19   19   1.448   4.696   2.446 -0.3729  0.0513 -0.9441
    1DG     H20   20   1.636   4.752   2.507 -1.1151  0.2559  0.4597
    1DG     H21   21   1.634   4.715   2.337 -0.1535 -1.0848 -0.1995
    1DG     H22   22   1.532   4.552   2.575  0.1385  0.5970  0.5712
    1DG     H23   23   1.525   4.499   2.410 -1.8170 -0.9288  0.3959
    2DG      C1   24   3.306   2.184   2.124  0.1809  0.2345  0.1400
    2DG      C2   25   3.890   2.132   2.179 -0.3519 -0.2619 -0.2491
    2DG      H3   26   3.361   2.094   2.150 -0.3625  0.4649  2.2220
    2DG      H4   27   3.229   2.162   2.050 -0.0412 -2.8602  1.1618
    2DG      H5   28   3.250   2.204   2.215 -1.8904 -0.6379 -0.8670
    2DG      H6   29   3.963   2.136   2.098 -0.0394 -3.4844 -0.2674
    2DG      H7   30   3.938   2.133   2.276 -0.9675 -1.2788  0.0876
    2DG      H8   31   3.840   2.036   2.191 -1.1231  0.2997  1.2533
    2DG      O9   32   3.404   2.277   2.094 -0.9169  0.3322  0.1883
    2DG     O10   33   3.784   2.224   2.169 -0.3349  0.1651 -0.5376
    2DG     C11   34   3.371   2.419   2.100  0.5073  0.7698 -0.4008
    2DG     C12   35   3.804   2.353   2.222  0.6596 -0.0907 -0.3002
    2DG     H13   36   3.322   2.438   2.195 -0.4007 -2.3962 -0.1298
    2DG     H14   37   3.292   2.451   2.032 -0.9292  1.7415  1.6370
    2DG     H15   38   3.867   2.403   2.147  1.0982 -0.3887 -0.1378
    2DG     H16   39   3.843   2.350   2.323 -0.0606 -0.6496 -0.0326
    2DG     C17   40   3.497   2.495   2.069  0.1153 -0.3503 -0.2635
    2DG     C18   41   3.670   2.435   2.225  0.0648  0.3949  0.2659
    2DG     O19   42   3.625   2.430   2.093 -0.0703 -0.0154 -0.1965
    2DG     H20   43   3.489   2.591   2.118 -1.3126 -0.2965 -0.5799
    2DG     H21   44   3.495   2.511   1.961  1.3860 -4.6012 -1.1188
    2DG     H22   45   3.594   2.399   2.295  0.0577 -0.9950 -0.4234
    2DG     H23   46   3.697   2.538   2.250 -0.6084  0.8704 -0.8660
    3DG      C1   47   4.138   0.872   0.311 -0.1642 -0.0532 -0.2580
    3DG      C2   48   3.583   0.561   0.419  0.2690 -0.5126 -0.6578
    3DG      H3   49   4.102   0.837   0.408 -0.8477  2.9117  0.6580
    3DG      H4   50   4.112   0.977   0.303 -2.4574 -0.4175  1.3855
    3DG      H5   51   4.247   0.875   0.308 -0.0755 -0.9587  1.1239
    3DG      H6   52   3.569   0.653   0.476 -0.0567 -1.5728  1.0178
    3DG      H7   53   3.508   0.550   0.341 -1.6885  0.6238  0.9679
    3DG      H8   54   3.579   0.478   0.490 -1.4300 -1.8153 -2.1794
    3DG      O9   55   4.089   0.797   0.203  0.4773  0.2003 -0.0407
    3DG     O10   56   3.714   0.573   0.361  0.0234  0.4815 -0.1329
    3DG     C11   57   4.147   0.662   0.196 -0.0232 -0.6044 -0.6588
    3DG     C12   58   3.763   0.455   0.296  0.5027  0.2025 -0.3710
    3DG     H13   59   4.142   0.607   0.290 -1.9492 -0.4752 -0.6457
    3DG     H14   60   4.250   0.668   0.162  0.4845  2.7529  1.0563
    3DG     H15   61   3.699   0.415   0.216  1.3225  0.0393 -0.9580
    3DG     H16   62   3.770   0.375   0.370 -1.8683  0.2784  0.0001
    3DG     C17   63   4.054   0.591   0.093 -0.0631 -0.3698  0.4094
    3DG     C18   64   3.900   0.466   0.230 -0.4094  0.1845  0.3325
    3DG     O19   65   3.919   0.579   0.147  0.1759  0.2257  0.1117
    3DG     H20   66   4.083   0.492   0.058 -0.6457 -0.3113 -0.2683
    3DG     H21   67   4.054   0.663   0.012 -0.7703  0.1874  0.8885
    3DG     H22   68   3.978   0.470   0.306  0.5245 -0.7854 -0.5297
    3DG     H23   69   3.930   0.375   0.177  0.9703  0.6486  0.2896
    4DG      C1   70   4.983   0.134   1.309  0.0662  0.3753 -1.2999
    4DG      C2   71   4.963  -0.544   1.397 -0.1232  0.3530  0.6655
    4DG      H3   72   5.053   0.117   1.390  0.7343 -0.9000 -2.1216
    4DG      H4   73   4.888   0.129   1.361  0.1314 -0.3565 -1.2453
    4DG      H5   74   4.988   0.236   1.269 -0.6753  0.9852  0.0749
    4DG      H6   75   4.900  -0.631   1.377  0.2295  0.2552 -0.0315
    4DG      H7   76   5.060  -0.581   1.363  0.0967  0.7290  0.8747
    4DG      H8   77   4.977  -0.529   1.505  0.8719  1.3725  0.4096
    4DG      O9   78   4.994   0.020   1.219  0.2042  0.0806  0.2097
    4DG     O10   79   4.918  -0.432   1.325 -0.8688 -0.2487 -0.3793
    4DG     C11   80   4.888  -0.012   1.133  0.4136  0.4640  0.5439
    4DG     C12   81   4.788  -0.404   1.366  0.7756 -0.5878  0.4688
    4DG     H13   82   4.927  -0.083   1.060  0.6495 -0.7192  1.7631
    4DG     H14   83   4.851   0.077   1.083  1.5496  0.9233  0.4893
    4DG     H15   84   4.782  -0.376   1.471 -5.1744 -1.3090  0.6347
    4DG     H16   85   4.722  -0.490   1.355  1.4036 -1.0177 -0.0190
    4DG     C17   86   4.769  -0.072   1.199  0.3598  0.9650  0.0917
    4DG     C18   87   4.726  -0.286   1.289  0.6813 -0.4763 -0.5224
    4DG     O19   88   4.820  -0.186   1.269  0.1149  0.1515 -0.4286
    4DG     H20   89   4.695  -0.113   1.129  0.7039 -1.2321  0.9162
    4DG     H21   90   4.714  -0.005   1.264 -0.4178  3.0387 -2.5290
    4DG     H22   91   4.701  -0.325   1.190 -0.0397 -0.1844 -0.4579
    4DG     H23   92   4.637  -0.253   1.342  1.5412  1.4506 -0.2059
    5DG      C1   93   4.318   3.296   2.909  0.6738 -0.0110  0.5883
    5DG      C2   94   4.076   2.488   2.830  0.3604  0.0319 -0.2123
    5DG      H3   95   4.367   3.328   3.001 -1.5576  1.1818  1.4255
    5DG      H4   96   4.231   3.360   2.897  0.0008 -1.1526 -0.9196
    5DG      H5   97   4.367   3.309   2.813 -1.8791  0.0862 -0.7819
    5DG      H6   98   4.122   2.421   2.903  2.0251  1.5836  0.2235
    5DG      H7   99   3.982   2.515   2.876 -0.1513 -0.1969 -1.0950
    5DG      H8  100   4.057   2.433   2.737 -0.8593  0.5655 -0.2950
    5DG      O9  101   4.264   3.167   2.920  0.2546 -0.0110 -0.0304
    5DG     O10  102   4.163   2.601   2.813  0.3386  0.5792  0.1156
    5DG     C11  103   4.360   3.064   2.896 -0.4334 -0.4563  0.0362
    5DG     C12  104   4.097   2.717   2.779 -0.4825 -1.1229  0.2797
    5DG     H13  105   4.455   3.100   2.936 -1.3452  0.3880  1.5798
    5DG     H14  106   4.373   3.055   2.789  1.7820 -0.2712  0.2322
    5DG     H15  107   4.014   2.742   2.845 -0.1771  2.2873 -0.4129
    5DG     H16  108   4.069   2.718   2.674 -1.0499 -2.5563  0.3967
    5DG     C17  109   4.336   2.931   2.974 -0.1698  0.4526 -0.0787
    5DG     C18  110   4.191   2.840   2.810 -0.1221  0.9079 -0.2714
    5DG     O19  111   4.212   2.866   2.950 -0.2054  0.0650 -0.2559
    5DG     H20  112   4.329   2.952   3.081 -1.4301 -0.4919  0.0534
    5DG     H21  113   4.413   2.857   2.953  0.0019  1.0482 -1.6661
    5DG     H22  114   4.288   2.822   2.765 -0.5624 -0.7138 -0.6540
    5DG     H23  115   4.148   2.924   2.756 -1.3169  0.3606 -0.2214
    6DG      C1  116   4.779   2.021   0.075 -0.4954  0.4818  0.1182
    6DG      C2  117   4.616   2.322   0.657  0.3216  1.0442  0.0127
    6DG      H3  118   4.679   2.027   0.033  0.3458  1.3130 -1.9387
    6DG      H4  119   4.832   1.933   0.036  0.1309  0.5237  0.8601
    6DG      H5  120   4.839   2.110   0.053  0.7378 -0.1563  0.7716
    6DG      H6  121   4.611   2.296   0.763  1.8012 -0.5425 -0.2589
    6DG      H7  122   4.695   2.397   0.649  1.1441  0.2205  0.2845
    6DG      H8  123   4.525   2.374   0.627  0.7461  1.2098 -1.0309
    6DG      O9  124   4.771   1.998   0.216 -0.4013  0.3548  0.1867
    6DG     O10  125   4.646   2.204   0.582 -0.1039 -0.0501  0.3141
    6DG     C11  126   4.712   1.869   0.236 -0.0901  0.1100 -0.0305
    6DG     C12  127   4.531   2.118   0.602 -0.6533  0.1881 -0.3986
    6DG     H13  128   4.790   1.796   0.215 -0.7726 -1.5483  2.6477
    6DG     H14  129   4.623   1.853   0.175 -0.7412  2.1665  0.3107
    6DG     H15  130   4.445   2.147   0.541  0.7810  2.4030 -1.4761
    6DG     H16  131   4.502   2.101   0.705  0.2416  1.5143  0.0889
    6DG     C17  132   4.662   1.856   0.380 -0.0238  0.5598  0.1326
    6DG     C18  133   4.572   1.972   0.562  0.5045 -0.0170 -0.0904
    6DG     O19  134   4.616   1.979   0.429 -0.3647  0.7364  0.1301
    6DG     H20  135   4.739   1.827   0.452 -0.8873  0.7741  1.1810
    6DG     H21  136   4.581   1.783   0.383 -0.2147  0.7410 -0.5046
    6DG     H22  137   4.642   1.927   0.631 -0.0708  0.2930  0.7092
    6DG     H23  138   4.491   1.899   0.567  0.1376  0.1349 -2.3451
    7DG      C1  139   2.715   3.052   0.787  0.5054 -0.0451 -0.2794
    7DG      C2  140   2.320   3.431   0.246  0.0957  0.1680 -0.3767
    7DG      H3  141   2.793   3.073   0.715  2.1932  0.1079  1.5142
    7DG      H4  142   2.743   2.970   0.852  2.1332 -1.1752 -2.2880
    7DG      H5  143   2.718   3.140   0.852  0.1615  0.7263 -1.2742
    7DG      H6  144   2.382   3.500   0.189  0.5706 -1.2245 -1.6127
    7DG      H7  145   2.270   3.376   0.165  1.9200 -2.0740 -0.0703
    7DG      H8  146   2.244   3.485   0.303 -1.3822 -0.5063 -1.6167
    7DG      O9  147   2.601   3.024   0.707  0.7733  0.2479  0.2448
    7DG     O10  148   2.389   3.352   0.340 -0.4106  0.3752  0.6123
    7DG     C11  149   2.483   3.057   0.773  0.0795 -0.1058  0.2979
    7DG     C12  150   2.308   3.309   0.447  0.0516 -1.2157  0.1283
    7DG     H13  151   2.475   3.163   0.798  2.0025  0.3800 -0.9871
    7DG     H14  152   2.477   2.997   0.864  2.8177 -2.0426 -0.6553
    7DG     H15  153   2.208   3.285   0.411 -1.1185  1.2853  1.4838
    7DG     H16  154   2.292   3.383   0.526 -0.2187 -2.5079  1.3116
    7DG     C17  155   2.358   3.031   0.683 -0.0780 -0.4892 -0.5838
    7DG     C18  156   2.379   3.193   0.503 -0.0799 -0.5020  0.5152
    7DG     O19  157   2.318   3.153   0.630 -0.2021 -0.2955  0.1444
    7DG     H20  158   2.274   2.993   0.741  1.5877 -0.8496  1.7394
    7DG     H21  159   2.382   2.962   0.602  1.5519  0.6705 -1.1309
    7DG     H22  160   2.386   3.111   0.432 -0.3638 -0.6927  0.7045
    7DG     H23  161   2.486   3.210   0.520 -0.2141  1.3244 -0.2972
    8DG      C1  162   1.824   0.365   4.324 -0.0851  0.4482 -0.2010
    8DG      C2  163   1.378   0.498   3.827  0.4888 -0.0053  0.6110
    8DG      H3  164   1.901   0.427   4.279 -0.1206  0.0453 -0.8244
    8DG      H4  165   1.825   0.273   4.265 -0.2500  1.3168 -1.5760
    8DG      H5  166   1.852   0.341   4.427 -3.5351 -1.1590  0.5091
    8DG      H6  167   1.277   0.525   3.796  0.4672  1.0108  1.5009
    8DG      H7  168   1.446   0.490   3.743 -1.7144 -0.7883 -1.1984
    8DG      H8  169   1.372   0.400   3.875 -2.1162 -0.1818  0.0978
    8DG      O9  170   1.686   0.414   4.331 -0.5210 -0.1107  0.3061
    8DG     O10  171   1.425   0.593   3.921  0.7202 -0.1044  0.0488
    8DG     C11  172   1.693   0.551   4.355  0.3177  0.0454  0.3085
    8DG     C12  173   1.327   0.615   4.027  0.5681 -0.1979  0.0419
    8DG     H13  174   1.768   0.594   4.289  1.9098 -0.3464  1.7955
    8DG     H14  175   1.727   0.576   4.455  0.6192  0.2225  0.1650
    8DG     H15  176   1.284   0.520   4.061  0.4562  0.6832  2.6251
    8DG     H16  177   1.251   0.688   4.004  1.5672  1.5407  1.9228
    8DG     C17  178   1.556   0.619   4.334 -0.4349  0.2593 -0.5806
    8DG     C18  179   1.396   0.671   4.162 -0.2154  0.0536 -0.6254
    8DG     O19  180   1.505   0.594   4.206  0.6546  0.1512  0.6050
    8DG     H20  181   1.565   0.726   4.349  0.5747  0.1201 -0.0988
    8DG     H21  182   1.484   0.590   4.410  1.7505 -0.4377  1.3535
    8DG     H22  183   1.437   0.770   4.144  1.4748 -0.5827 -0.4274
    8DG     H23  184   1.327   0.684   4.245  1.5792 -0.8263  1.0720
    9DG      C1  185   1.091   3.465   4.148 -0.0580  0.1186 -0.7869
    9DG      C2  186   1.554   3.245   4.322 -0.7122 -0.5979  0.1740
    9DG      H3  187   1.152   3.556   4.146 -1.5583  1.1438 -1.9539
    9DG      H4  188   1.059   3.442   4.046  0.7315  2.2457 -1.5669
    9DG      H5  189   1.162   3.392   4.188  1.1113  2.1921  1.1637
    9DG      H6  190   1.580   3.335   4.379  0.2788 -1.3901  1.0226
    9DG      H7  191   1.619   3.166   4.360  0.4398 -0.2716 -1.0684
    9DG      H8  192   1.580   3.264   4.218 -2.6375 -2.5478 -0.7296
    9DG      O9  193   0.988   3.464   4.244  0.3002  0.0851  0.1474
    9DG     O10  194   1.413   3.217   4.341 -0.0978  0.1510  0.0795
    9DG     C11  195   1.032   3.487   4.379  0.3680  0.3631  0.1861
    9DG     C12  196   1.379   3.177   4.474 -0.5313  0.3273  1.2552
    9DG     H13  197   0.956   3.538   4.439  1.6842  1.7456  0.7160
    9DG     H14  198   1.119   3.551   4.368  1.2588 -0.8668 -0.0948
    9DG     H15  199   1.447   3.217   4.549  0.0848  2.0719 -0.1424
    9DG     H16  200   1.395   3.069   4.475 -1.9855  0.0792  0.5382
    9DG     C17  201   1.069   3.356   4.453  1.0663  0.4696  0.4483
    9DG     C18  202   1.233   3.198   4.515 -0.4926 -0.0426 -0.5329
    9DG     O19  203   1.208   3.328   4.462 -0.0547  0.9729 -0.2915
    9DG     H20  204   1.023   3.276   4.394 -0.3907  1.6714 -0.1056
    9DG     H21  205   1.036   3.356   4.557 -0.7778  2.1430 -0.0802
    9DG     H22  206   1.177   3.117   4.468  0.9707  0.3253 -3.0523
    9DG     H23  207   1.222   3.190   4.623 -1.6167  3.4815 -0.2550
   10DG      C1  208   2.928   5.223   5.321  0.5505 -0.0171  0.2095
   10DG      C2  209   2.536   4.573   5.397 -0.4239  0.5178 -0.3553
   10DG      H3  210   2.956   5.319   5.366 -2.4059  1.0993 -0.1127
   10DG      H4  211   2.958   5.212   5.217  0.0724  0.3905  0.0229
   10DG      H5  212   2.988   5.151   5.377  1.4006 -0.0078 -0.6606
   10DG      H6  213   2.483   4.514   5.323  2.5217 -3.3862  0.2786
   10DG      H7  214   2.643   4.552   5.384 -0.0583  2.4554 -0.8582
   10DG      H8  215   2.515   4.545   5.500  0.4005  2.3161  0.3503
   10DG      O9  216   2.785   5.200   5.329  0.3055 -0.3245  0.1118
   10DG     O10  217   2.502   4.705   5.367  0.6045  0.7844 -0.1828
   10DG     C11  218   2.736   5.191   5.460  0.4725  0.2472  0.3651
   10DG     C12  219   2.603   4.771   5.295 -0.0119 -0.4322 -0.1269
   10DG     H13  220   2.731   5.294   5.496  4.2234  0.3728  0.9104
   10DG     H14  221   2.801   5.133   5.526 -0.0373  1.3263  1.8755
   10DG     H15  222   2.587   4.739   5.192  0.9822 -1.5506  0.0415
   10DG     H16  223   2.704   4.753   5.333  0.2957  0.5730 -0.4163
   10DG     C17  224   2.596   5.122   5.445  0.4161 -0.3461  0.5300
   10DG     C18  225   2.571   4.927   5.300 -0.4728 -0.2217 -0.3091
   10DG     O19  226   2.608   4.982   5.424 -0.4662  0.0455  0.2949
   10DG     H20  227   2.532   5.171   5.371  0.7980 -1.8003 -0.8108
   10DG     H21  228   2.540   5.138   5.537 -1.5609  0.9805 -0.7989
   10DG     H22  229   2.630   4.990   5.233  1.7953 -0.4590  1.3959
   10DG     H23  230   2.468   4.949   5.268  0.0788 -0.0040 -2.0709
   11DG      C1  231   4.471   2.093   3.161 -0.6618 -0.2507  0.0054
   11DG      C2  232   4.135   2.013   2.405 -0.3827 -0.6162 -0.2733
   11DG      H3  233   4.561   2.070   3.103 -0.4522  0.3367  0.0923
   11DG      H4  234   4.398   2.012   3.154  0.3729 -1.2762  0.6175
   11DG      H5  235   4.496   2.102   3.267  1.6296  0.4506 -0.5396
   11DG      H6  236   4.229   1.976   2.364  1.3301  2.6796  0.3341
   11DG      H7  237   4.050   1.957   2.365  0.4560 -0.5237 -2.2511
   11DG      H8  238   4.132   2.117   2.374  3.5772 -0.6661 -1.3569
   11DG      O9  239   4.405   2.211   3.112  0.3401  0.5436  0.7627
   11DG     O10  240   4.151   2.003   2.547  0.3247  0.2338  0.2631
   11DG     C11  241   4.363   2.208   2.980  0.4084  0.0267  0.9752
   11DG     C12  242   4.056   2.060   2.629  0.4913 -0.0502  0.8182
   11DG     H13  243   4.439   2.158   2.920 -0.6745 -1.5275  0.8254
   11DG     H14  244   4.362   2.310   2.943 -3.6786 -0.0169  0.4196
   11DG     H15  245   3.962   2.005   2.616  0.2567  0.2869  1.0790
   11DG     H16  246   4.047   2.165   2.602  1.3666  0.3058  1.8888
   11DG     C17  247   4.228   2.144   2.951 -0.2080  0.3552 -0.6864
   11DG     C18  248   4.093   2.056   2.778 -0.9228 -0.3784  0.1463
   11DG     O19  249   4.210   2.140   2.811  0.4790 -0.3535  0.4515
   11DG     H20  250   4.150   2.210   2.990 -3.0834 -1.4652 -2.8734
   11DG     H21  251   4.212   2.043   2.991  0.8562  0.5415  0.2531
   11DG     H22  252   4.009   2.088   2.839 -1.8458 -3.3091  0.5274
   11DG     H23  253   4.122   1.957   2.814  1.4957  0.0197 -0.4956
   12DG      C1  254   4.463   3.683   0.005 -0.6423 -0.2210 -0.5687
   12DG      C2  255   3.918   3.148  -0.175 -0.7253  1.1732 -0.0188
   12DG      H3  256   4.426   3.647  -0.092 -2.1185  2.4150 -1.0851
   12DG      H4  257   4.547   3.752  -0.008  0.6268 -1.4513  0.7586
   12DG      H5  258   4.384   3.750   0.039  0.6315  1.0672 -0.0229
   12DG      H6  259   3.910   3.104  -0.274  0.5350 -2.1326  1.2436
   12DG      H7  260   3.898   3.066  -0.107 -1.0695  0.7619 -0.6042
   12DG      H8  261   3.835   3.219  -0.165 -0.2796  2.2544 -2.9844
   12DG      O9  262   4.504   3.573   0.087  0.0376  0.0034  0.1766
   12DG     O10  263   4.030   3.226  -0.159 -0.2629 -0.1541 -0.2135
   12DG     C11  264   4.419   3.463   0.073  0.3386 -0.4273 -0.3969
   12DG     C12  265   4.151   3.149  -0.154  0.0607  0.1976  0.3049
   12DG     H13  266   4.314   3.481   0.096 -0.0149 -1.6443 -0.9951
   12DG     H14  267   4.452   3.392   0.149 -0.5929  1.2081  1.6255
   12DG     H15  268   4.153   3.076  -0.235  1.4804 -0.3009  0.7706
   12DG     H16  269   4.142   3.096  -0.059 -4.2784  1.2483  0.6732
   12DG     C17  270   4.426   3.385  -0.060  0.3749  0.6808 -0.0384
   12DG     C18  271   4.286   3.220  -0.172  0.5114  0.6726 -0.5614
   12DG     O19  272   4.315   3.292  -0.049 -0.4370 -0.1618 -0.3973
   12DG     H20  273   4.517   3.328  -0.078 -0.6548 -1.0924  0.1809
   12DG     H21  274   4.413   3.451  -0.146 -1.0999  0.0749 -0.3115
   12DG     H22  275   4.367   3.151  -0.194  0.4165  0.9109 -1.7199
   12DG     H23  276   4.284   3.290  -0.256  0.7679  0.9108 -0.3743
   13DG      C1  277   3.293   1.808   4.853 -0.0906 -0.1228 -0.2181
   13DG      C2  278   2.949   2.261   5.383 -0.1676  0.1339 -0.3622
   13DG      H3  279   3.318   1.858   4.760 -0.2022  0.9468  0.3216
   13DG      H4  280   3.250   1.711   4.828 -0.9241  0.4060 -0.8861
   13DG      H5  281   3.382   1.792   4.913  1.1810 -0.2327 -2.0373
   13DG      H6  282   3.035   2.290   5.443 -1.0970 -1.1940  1.7312
   13DG      H7  283   2.871   2.336   5.368 -0.8250 -0.6971 -1.2264
   13DG      H8  284   2.905   2.175   5.434 -1.6707  0.8644 -0.3679
   13DG      O9  285   3.208   1.895   4.925 -0.7054 -0.1167  0.3190
   13DG     O10  286   3.004   2.245   5.250 -0.3044 -0.1074  0.3094
   13DG     C11  287   3.274   1.990   5.012 -0.0543  0.2503 -0.2058
   13DG     C12  288   2.916   2.223   5.145 -0.2281 -0.2814 -0.1056
   13DG     H13  289   3.355   2.033   4.953  0.6062  0.6696  0.9803
   13DG     H14  290   3.318   1.941   5.099 -1.7083 -2.1327 -0.5932
   13DG     H15  291   2.842   2.303   5.137  1.1895  1.2882  1.5588
   13DG     H16  292   2.857   2.131   5.157  0.6459 -0.7972  0.2794
   13DG     C17  293   3.173   2.090   5.070  0.3819 -0.1949  0.2052
   13DG     C18  294   2.991   2.235   5.010 -0.5570  0.0170 -0.6012
   13DG     O19  295   3.076   2.123   4.971 -0.8285 -0.2453  0.0353
   13DG     H20  296   3.233   2.178   5.094 -2.6587  1.2644  3.5507
   13DG     H21  297   3.130   2.063   5.167 -0.3528 -0.6994 -0.2575
   13DG     H22  298   2.910   2.241   4.939 -0.8543 -1.2470 -0.3822
   13DG     H23  299   3.045   2.330   5.007 -1.0181  0.2823 -0.6083
   14DG      C1  300   5.120   5.357   4.922  0.1627 -0.3491 -0.1631
   14DG      C2  301   4.804   5.342   4.215  0.1121  0.1576  0.7259
   14DG      H3  302   5.180   5.339   5.011  1.3521 -0.2227 -0.9062
   14DG      H4  303   5.023   5.316   4.948 -0.1664  0.1279 -0.6232
   14DG      H5  304   5.100   5.453   4.873 -1.4329 -0.7018 -0.2374
   14DG      H6  305   4.706   5.297   4.230 -0.2624  0.4637 -0.6968
   14DG      H7  306   4.795   5.450   4.221 -1.9033  0.1018 -0.4859
   14DG      H8  307   4.840   5.309   4.118  0.4828 -0.5403  1.0920
   14DG      O9  308   5.168   5.269   4.823 -0.4996  0.1675  0.2489
   14DG     O10  309   4.882   5.300   4.329 -0.0403  0.8783 -0.1392
   14DG     C11  310   5.089   5.270   4.707 -0.6159 -0.6993  0.3904
   14DG     C12  311   4.907   5.154   4.337  0.4967 -0.3937  0.3423
   14DG     H13  312   5.079   5.372   4.668  0.5088 -1.6241 -2.5820
   14DG     H14  313   4.985   5.240   4.724 -1.1612  0.1110 -1.2729
   14DG     H15  314   4.965   5.126   4.248 -0.8674  1.4962 -1.2310
   14DG     H16  315   4.805   5.116   4.337  0.0494  0.7511  0.9278
   14DG     C17  316   5.168   5.200   4.594  0.4416  0.4560 -0.0631
   14DG     C18  317   4.978   5.114   4.465 -0.6047  0.6385  0.3836
   14DG     O19  318   5.093   5.200   4.469 -0.4666 -0.7553  0.0061
   14DG     H20  319   5.195   5.098   4.624 -1.9799 -1.2794 -3.0950
   14DG     H21  320   5.260   5.248   4.563  0.4028 -1.2085 -3.1899
   14DG     H22  321   4.906   5.122   4.547 -0.9061  0.7501  0.1067
   14DG     H23  322   5.009   5.011   4.450 -0.0509  1.1284 -2.2940
   15DG      C1  323   0.322   1.340   2.952 -0.0835  0.4508  0.2979
   15DG      C2  324   0.347   1.800   3.413  0.7115  0.0129 -1.4723
   15DG      H3  325   0.257   1.302   2.872 -0.3215 -1.2771  1.2487
   15DG      H4  326   0.373   1.256   2.999  1.7586  1.2207 -0.2367
   15DG      H5  327   0.402   1.400   2.909 -0.5852  0.4795 -0.6259
   15DG      H6  328   0.429   1.736   3.446  0.8277  1.1418  0.5871
   15DG      H7  329   0.383   1.840   3.318  0.8529 -0.3592 -1.5772
   15DG      H8  330   0.327   1.880   3.484  0.4054 -2.2415  1.1503
   15DG      O9  331   0.230   1.405   3.030  0.6668 -0.7383  0.2658
   15DG     O10  332   0.242   1.715   3.378 -0.3894  0.0823 -0.2935
   15DG     C11  333   0.146   1.315   3.098 -0.0908 -1.5515  0.1028
   15DG     C12  334   0.191   1.627   3.467  0.3860  0.4140  0.2481
   15DG     H13  335   0.193   1.233   3.152  1.8191 -0.3732  0.3004
   15DG     H14  336   0.069   1.268   3.037 -1.9482  1.2832  0.0333
   15DG     H15  337   0.130   1.663   3.550 -1.0279 -2.6383  0.6649
   15DG     H16  338   0.275   1.569   3.505  0.7919  2.5523  2.8778
   15DG     C17  339   0.066   1.404   3.197 -0.4542 -0.1893  0.0074
   15DG     C18  340   0.096   1.538   3.388 -0.2099 -0.2477 -0.3534
   15DG     O19  341   0.152   1.480   3.276 -0.1928  0.1140  0.8764
   15DG     H20  342   0.007   1.342   3.264 -0.2772  0.1993  0.5318
   15DG     H21  343  -0.000   1.465   3.135 -2.5126 -1.4628  0.8451
   15DG     H22  344   0.046   1.474   3.461 -0.5636 -0.6497 -0.9385
   15DG     H23  345   0.022   1.606   3.346 -0.6657  0.1044  0.9814
   16DG      C1  346   2.130   4.001   2.599  0.6880 -0.6020 -0.3376
   16DG      C2  347   2.758   4.328   2.764  0.0602 -0.4635 -0.7274
   16DG      H3  348   2.045   4.068   2.612  0.6880 -0.5808 -0.4463
   16DG      H4  349   2.071   3.911   2.587 -2.4164  0.9873  1.7040
   16DG      H5  350   2.183   4.010   2.504  0.1081  0.9673 -0.5468
   16DG      H6  351   2.699   4.377   2.842  0.0986  0.1405 -1.0711
   16DG      H7  352   2.860   4.328   2.802  0.0573 -0.9249 -0.7165
   16DG      H8  353   2.746   4.409   2.692 -0.7579 -0.0358 -0.1190
   16DG      O9  354   2.208   3.992   2.719 -0.0678 -0.2226  0.0345
   16DG     O10  355   2.695   4.212   2.716 -0.3260  0.7261  0.1752
   16DG     C11  356   2.300   3.883   2.707  0.3142 -0.0175  0.0486
   16DG     C12  357   2.728   4.093   2.789 -0.2019 -1.2411  0.3285
   16DG     H13  358   2.330   3.860   2.605 -0.8887  0.4668 -0.4283
   16DG     H14  359   2.244   3.792   2.729 -1.4036  1.2106  0.9924
   16DG     H15  360   2.820   4.105   2.845  0.2242 -2.0538 -0.1765
   16DG     H16  361   2.748   4.019   2.711  0.1377 -1.6214  0.7686
   16DG     C17  362   2.415   3.898   2.802 -0.0227 -0.7978 -0.0953
   16DG     C18  363   2.603   4.040   2.859 -0.1203  0.1772  0.0114
   16DG     O19  364   2.501   4.013   2.764  0.8347  0.3030 -0.1536
   16DG     H20  365   2.454   3.796   2.801  0.1810 -0.7515  1.2696
   16DG     H21  366   2.368   3.933   2.894  2.4909 -0.4299  1.1256
   16DG     H22  367   2.646   3.958   2.918  2.7134  0.0353 -2.0635
   16DG     H23  368   2.562   4.097   2.942  0.3854 -0.1643  0.5061
   17DG      C1  369   1.903   4.431   0.079 -0.0580  0.1337 -0.0980
   17DG      C2  370   2.264   4.226  -0.494 -0.2486 -0.9393  0.6015
   17DG      H3  371   1.867   4.336   0.119 -0.4060 -0.2410 -1.2918
   17DG      H4  372   1.848   4.457  -0.011  1.7872  1.5307 -0.8899
   17DG      H5  373   1.924   4.502   0.159 -1.3283  0.6662 -0.2246
   17DG      H6  374   2.353   4.279  -0.527 -0.2383 -0.8397  0.7839
   17DG      H7  375   2.262   4.122  -0.527  0.8195 -0.7416 -0.1047
   17DG      H8  376   2.184   4.270  -0.552  0.0453  1.1372  1.6831
   17DG      O9  377   2.025   4.398   0.020  0.2798  0.0256 -0.1892
   17DG     O10  378   2.253   4.241  -0.351  0.1198  0.0124 -0.2435
   17DG     C11  379   2.123   4.365   0.106 -0.0793  0.1134 -0.0361
   17DG     C12  380   2.298   4.136  -0.272  0.6095 -1.2012  0.1004
   17DG     H13  381   2.082   4.291   0.174 -0.0227  1.4285  1.5046
   17DG     H14  382   2.142   4.445   0.178 -2.2744  2.2711 -1.7031
   17DG     H15  383   2.394   4.110  -0.316  2.2945  2.0454  1.5793
   17DG     H16  384   2.224   4.057  -0.257 -2.1099  0.6302 -2.4792
   17DG     C17  385   2.257   4.327   0.035  0.1515  0.2312 -0.3621
   17DG     C18  386   2.347   4.203  -0.137 -0.1422 -0.2267 -0.0863
   17DG     O19  387   2.230   4.246  -0.072 -0.7565 -0.4060  0.1768
   17DG     H20  388   2.326   4.280   0.104 -0.7435 -0.6625 -0.0366
   17DG     H21  389   2.299   4.418  -0.007 -1.2515  0.8670 -0.4556
   17DG     H22  390   2.385   4.130  -0.065 -0.2654  0.6653  0.9081
   17DG     H23  391   2.422   4.278  -0.161  1.9620 -2.1670  0.1421
   18DG      C1  392   3.893   2.735   0.460  0.4738 -0.8767  0.5678
   18DG      C2  393   4.267   2.374   0.877 -0.1736 -0.4345 -0.5004
   18DG      H3  394   3.941   2.801   0.387 -0.7622  0.6946  1.1050
   18DG      H4  395   3.892   2.778   0.560 -1.2861  0.6580 -0.0377
   18DG      H5  396   3.788   2.721   0.435  0.6995 -0.2085 -0.8588
   18DG      H6  397   4.367   2.331   0.867  0.4384 -0.4257  3.8708
   18DG      H7  398   4.288   2.465   0.933  0.6753 -0.2659 -1.0797
   18DG      H8  399   4.202   2.304   0.928 -0.1252 -0.4497 -0.4598
   18DG      O9  400   3.958   2.619   0.476  0.3326 -0.2088 -0.1247
   18DG     O10  401   4.218   2.401   0.742  0.5891  0.1633 -0.2242
   18DG     C11  402   3.964   2.550   0.355  0.2015 -0.0717 -0.7865
   18DG     C12  403   4.190   2.288   0.668 -0.0458 -0.3110 -0.3004
   18DG     H13  404   3.973   2.628   0.280 -0.2300  1.4788  0.6946
   18DG     H14  405   3.865   2.505   0.342 -0.1658  0.6945 -0.7404
   18DG     H15  406   4.092   2.247   0.694 -0.1736 -2.0354 -3.0791
   18DG     H16  407   4.268   2.215   0.690  2.0795  1.7415 -0.6600
   18DG     C17  408   4.077   2.444   0.360 -0.3710  0.3522  0.5652
   18DG     C18  409   4.190   2.305   0.521  0.2714 -0.8991  1.0999
   18DG     O19  410   4.068   2.367   0.478 -0.3985  0.3862 -0.0178
   18DG     H20  411   4.171   2.499   0.357 -1.7803  3.2920  3.5026
   18DG     H21  412   4.064   2.370   0.281 -0.0890  0.4798  0.3990
   18DG     H22  413   4.282   2.361   0.505 -0.9161  1.0317  0.7788
   18DG     H23  414   4.202   2.209   0.470 -0.2980 -0.5163  0.2227
   19DG      C1  415   0.404   4.955   5.085 -0.1355 -0.2639  0.3775
   19DG      C2  416   1.022   5.227   4.883  0.1356  0.0606 -0.1209
   19DG      H3  417   0.321   4.891   5.113 -1.7464  1.0526 -1.1801
   19DG      H4  418   0.391   4.978   4.979  0.5054 -1.7901 -0.0515
   19DG      H5  419   0.394   5.042   5.150  0.8226 -0.3615  0.6706
   19DG      H6  420   1.094   5.262   4.957  0.2567 -1.3158  0.4479
   19DG      H7  421   1.064   5.200   4.786 -0.3062 -1.8157  0.1540
   19DG      H8  422   0.959   5.313   4.861  0.6617 -0.1305 -2.8014
   19DG      O9  423   0.531   4.899   5.113  0.4335 -0.0481 -0.1811
   19DG     O10  424   0.948   5.117   4.940 -0.1919  0.3233 -0.4927
   19DG     C11  425   0.584   4.800   5.030  0.0717 -0.1786 -0.0287
   19DG     C12  426   1.015   4.995   4.930 -0.4803  0.1858 -0.7069
   19DG     H13  427   0.549   4.825   4.930  1.9407  0.5368 -0.5447
   19DG     H14  428   0.538   4.705   5.057  0.9906 -0.3386  1.0678
   19DG     H15  429   1.119   5.003   4.963 -0.4481  0.5043 -0.8763
   19DG     H16  430   1.022   4.950   4.832  0.2120 -1.4865  0.0717
   19DG     C17  431   0.739   4.777   5.045  0.1106 -0.2321 -0.2939
   19DG     C18  432   0.953   4.895   5.034 -0.0540  0.0034  0.4282
   19DG     O19  433   0.808   4.894   5.009 -0.4322  0.5780 -0.8120
   19DG     H20  434   0.777   4.696   4.982  0.5744  1.0603 -1.7644
   19DG     H21  435   0.757   4.772   5.152  2.1723  1.6956 -0.4824
   19DG     H22  436   0.986   4.793   5.014 -0.5698 -0.0083 -0.4432
   19DG     H23  437   0.985   4.913   5.136 -0.9883 -0.4285  0.8059
   20DG      C1  438   0.707   0.750   3.200  1.0079 -0.1387  0.3063
   20DG      C2  439   0.574   0.115   2.831 -0.4689  0.3862  0.4586
   20DG      H3  440   0.601   0.724   3.210  1.0639  0.3282  3.0845
   20DG      H4  441   0.713   0.838   3.136  1.3267 -0.5641 -0.2560
   20DG      H5  442   0.735   0.775   3.303 -0.6067 -2.6609  1.4525
   20DG      H6  443   0.568   0.096   2.938  0.4453  2.8244  1.0241
   20DG      H7  444   0.477   0.116   2.781 -0.3910 -2.7655  0.0918
   20DG      H8  445   0.616   0.034   2.773 -3.9571 -0.6937 -0.7918
   20DG      O9  446   0.785   0.646   3.149 -0.7187  0.2261  0.0822
   20DG     O10  447   0.640   0.240   2.815  0.0633 -0.1157  0.0591
   20DG     C11  448   0.763   0.514   3.207 -0.1848 -0.3332 -0.2902
   20DG     C12  449   0.782   0.234   2.826  0.5714 -0.0144 -0.3242
   20DG     H13  450   0.659   0.483   3.212 -0.2839  0.1899  2.0825
   20DG     H14  451   0.796   0.522   3.311  3.9098 -0.5711 -1.4230
   20DG     H15  452   0.813   0.322   2.770 -0.2326 -1.0747 -2.5505
   20DG     H16  453   0.820   0.144   2.778  3.8111 -0.1006  2.0369
   20DG     C17  454   0.860   0.402   3.144 -0.2436 -0.4260 -0.7828
   20DG     C18  455   0.839   0.240   2.969 -0.0766 -0.0422  0.0365
   20DG     O19  456   0.797   0.364   3.021 -0.4435  0.4909  0.1337
   20DG     H20  457   0.873   0.316   3.210  0.7202  0.5645  0.3463
   20DG     H21  458   0.962   0.428   3.116 -0.4928  0.4848 -0.8611
   20DG     H22  459   0.817   0.159   3.038 -0.0085  0.5133  0.7216
   20DG     H23  460   0.947   0.231   2.981 -0.2407 -1.1107  0.9062
   21DG      C1  461   2.742   2.670   1.746  0.4578 -0.2371  0.0521
   21DG      C2  462   2.854   2.425   1.108  0.4513  0.1824  0.1223
   21DG      H3  463   2.837   2.724   1.735  0.9669 -1.0240  0.4600
   21DG      H4  464   2.735   2.639   1.851  2.0902 -1.4514 -0.1486
   21DG      H5  465   2.670   2.749   1.724  1.1388  0.7271  1.1615
   21DG      H6  466   2.771   2.482   1.066  1.4718  0.7223 -1.2450
   21DG      H7  467   2.948   2.481   1.107  0.1745  0.6616 -1.1634
   21DG      H8  468   2.862   2.337   1.044 -1.3735 -0.2295  0.4036
   21DG      O9  469   2.736   2.563   1.651 -0.0303  0.1180  0.1953
   21DG     O10  470   2.819   2.383   1.242 -0.0639  0.6582  0.6815
   21DG     C11  471   2.609   2.500   1.652  0.2040 -0.0984 -0.6146
   21DG     C12  472   2.718   2.285   1.244 -0.3969  0.0140 -0.0902
   21DG     H13  473   2.536   2.575   1.620  0.2982  0.8838  1.3155
   21DG     H14  474   2.588   2.469   1.754  0.9794  0.9839 -0.1053
   21DG     H15  475   2.742   2.195   1.187 -0.0392  0.3616 -0.4999
   21DG     H16  476   2.629   2.332   1.204 -1.4058 -0.0307  1.9630
   21DG     C17  477   2.609   2.374   1.561 -0.2440 -0.3612  0.1911
   21DG     C18  478   2.702   2.246   1.386 -0.5380 -0.5959  0.2415
   21DG     O19  479   2.706   2.366   1.457 -0.4424  0.1117 -0.0697
   21DG     H20  480   2.511   2.342   1.524 -0.0790 -0.0563 -0.5151
   21DG     H21  481   2.638   2.296   1.632 -0.4102  0.4871  1.2140
   21DG     H22  482   2.607   2.193   1.390 -1.8622  1.6306  0.0109
   21DG     H23  483   2.789   2.194   1.426  1.6140  1.7505 -1.1113
   22DG      C1  484   4.101   3.174   4.121 -0.0186 -0.4868  0.9173
   22DG      C2  485   4.421   2.701   4.507  0.1259  0.2272 -0.7329
   22DG      H3  486   4.197   3.222   4.103 -0.3719 -0.5359 -1.2824
   22DG      H4  487   4.019   3.239   4.093 -0.3028 -1.4583 -0.5965
   22DG      H5  488   4.100   3.077   4.071 -1.2940 -1.3668  2.5456
   22DG      H6  489   4.410   2.597   4.539  0.0369  0.2069 -0.8298
   22DG      H7  490   4.508   2.716   4.442  0.3746  0.0166 -0.4520
   22DG      H8  491   4.460   2.754   4.594  0.0735 -1.3000  0.2568
   22DG      O9  492   4.097   3.169   4.258 -0.3252 -0.6728  0.7219
   22DG     O10  493   4.303   2.753   4.470  0.4329 -0.1827  0.4696
   22DG     C11  494   3.975   3.107   4.302  0.8550  0.1265  0.0398
   22DG     C12  495   4.266   2.714   4.329 -0.0891  0.2837 -0.3701
   22DG     H13  496   3.888   3.154   4.256 -0.5041 -0.9232  1.4416
   22DG     H14  497   3.966   3.128   4.408 -0.4217 -0.9126  0.1602
   22DG     H15  498   4.271   2.605   4.328  2.2899  0.3065  0.8019
   22DG     H16  499   4.333   2.759   4.255  0.2155  0.2856 -0.0962
   22DG     C17  500   3.974   2.952   4.295 -0.5584 -0.1568  0.4344
   22DG     C18  501   4.124   2.760   4.305  0.1436  0.4230 -0.4432
   22DG     O19  502   4.104   2.903   4.322 -0.1066  0.9343  0.4800
   22DG     H20  503   3.963   2.922   4.191 -0.8432 -0.9936  0.6964
   22DG     H21  504   3.889   2.908   4.348 -1.7837  0.6514 -0.7844
   22DG     H22  505   4.104   2.733   4.202  2.7156 -1.6397 -0.5185
   22DG     H23  506   4.061   2.708   4.378  1.0903 -0.6034 -0.3329
   23DG      C1  507   2.855   3.171   3.053  0.1183  0.0334  0.2360
   23DG      C2  508   3.606   3.272   2.558 -0.0236 -0.1317  0.3450
   23DG      H3  509   2.770   3.106   3.071 -1.3465  2.3739  2.4348
   23DG      H4  510   2.824   3.269   3.088 -1.2287 -0.5202  0.6719
   23DG      H5  511   2.922   3.122   3.123  1.6081 -0.9048 -1.7385
   23DG      H6  512   3.655   3.229   2.471 -0.0240 -2.9132  1.6098
   23DG      H7  513   3.644   3.374   2.555  1.7050 -0.7669 -1.5086
   23DG      H8  514   3.649   3.216   2.641  0.9285  1.6009  1.0843
   23DG      O9  515   2.888   3.191   2.917  0.0465 -0.0714  0.3647
   23DG     O10  516   3.471   3.272   2.541 -0.4496 -0.2653  0.4198
   23DG     C11  517   3.000   3.267   2.900  0.6068 -0.4072  0.0824
   23DG     C12  518   3.398   3.317   2.652  0.1233 -0.3115  0.1889
   23DG     H13  519   3.076   3.213   2.955  0.0650 -0.0985  1.1707
   23DG     H14  520   2.973   3.370   2.924 -0.7842 -0.2356 -1.9693
   23DG     H15  521   3.414   3.424   2.664 -1.0648 -0.2507  1.5404
   23DG     H16  522   3.432   3.268   2.743 -1.9327 -1.0211  0.6233
   23DG     C17  523   3.050   3.262   2.761 -0.1930  0.2350  0.1159
   23DG     C18  524   3.244   3.303   2.625 -0.6129  0.1980 -0.0718
   23DG     O19  525   3.180   3.318   2.754  0.0620 -0.2763  0.2584
   23DG     H20  526   2.981   3.321   2.701  0.4673  3.3538  2.2004
   23DG     H21  527   3.049   3.163   2.714  1.0713  0.3932 -0.2887
   23DG     H22  528   3.219   3.382   2.554  1.4972  1.0666  0.0677
   23DG     H23  529   3.225   3.204   2.585  0.0658  1.0660 -2.7114
   24DG      C1  530   1.459   3.756   1.881  0.8055  0.1489  0.2877
   24DG      C2  531   1.469   3.398   1.153  0.0510 -0.1389 -0.3088
   24DG      H3  532   1.360   3.798   1.863  1.0993  0.8207  0.2063
   24DG      H4  533   1.524   3.829   1.930  1.9942  0.3322 -1.5005
   24DG      H5  534   1.446   3.680   1.959  0.0231 -1.5715 -1.4527
   24DG      H6  535   1.373   3.430   1.111  0.1913 -0.5282 -0.9526
   24DG      H7  536   1.551   3.427   1.086  1.3290 -1.0402  0.8197
   24DG      H8  537   1.473   3.289   1.164  0.8299 -0.1638 -0.7366
   24DG      O9  538   1.506   3.698   1.765 -0.6185 -0.1951 -0.5235
   24DG     O10  539   1.501   3.479   1.266 -0.0981 -0.5830 -0.4312
   24DG     C11  540   1.564   3.802   1.677  0.3690 -0.2103  0.0211
   24DG     C12  541   1.416   3.457   1.378 -1.0610 -0.4801  0.2112
   24DG     H13  542   1.655   3.853   1.709  2.4262 -2.1225 -2.2493
   24DG     H14  543   1.485   3.873   1.655  1.0072  0.2927 -0.7372
   24DG     H15  544   1.407   3.350   1.399  1.0104 -0.7954 -0.3233
   24DG     H16  545   1.323   3.507   1.350 -0.2450  0.7055 -0.4640
   24DG     C17  546   1.599   3.744   1.532  0.0524  0.7820  0.2114
   24DG     C18  547   1.483   3.534   1.503  0.4461 -0.0273 -0.3135
   24DG     O19  548   1.487   3.673   1.473 -0.1721 -0.3723  0.5816
   24DG     H20  549   1.696   3.697   1.552 -0.4135  0.7133  2.6377
   24DG     H21  550   1.621   3.822   1.459 -0.5945 -0.7455 -1.6863
   24DG     H22  551   1.438   3.511   1.600  1.2927  1.3489  0.4424
   24DG     H23  552   1.587   3.503   1.509 -0.3486 -2.9581  0.1981
   25DG      C1  553   1.541   0.635   0.065  0.1056  1.0901 -0.1729
   25DG      C2  554   1.049   0.699  -0.517 -0.0917 -0.2718 -0.7295
   25DG      H3  555   1.591   0.699   0.138  0.1682  0.1939  0.6030
   25DG      H4  556   1.603   0.631  -0.024  0.2668 -0.0134 -0.0312
   25DG      H5  557   1.549   0.534   0.106 -1.2226  1.8386  2.1514
   25DG      H6  558   1.079   0.730  -0.617 -0.7956 -0.2491 -0.9368
   25DG      H7  559   1.026   0.594  -0.500  0.8238 -0.5546 -1.1594
   25DG      H8  560   0.960   0.755  -0.489  1.7478  1.0577  3.1208
   25DG      O9  561   1.413   0.665   0.020  0.6126 -0.5173  0.2399
   25DG     O10  562   1.150   0.738  -0.422 -0.3177  0.3448  0.8311
   25DG     C11  563   1.387   0.797  -0.008  0.7237  0.7692 -0.0715
   25DG     C12  564   1.278   0.686  -0.456  0.2008  0.2828  0.0331
   25DG     H13  565   1.417   0.868   0.069 -2.8434  0.7111  1.5558
   25DG     H14  566   1.278   0.805  -0.003  0.7105  0.5931 -0.0739
   25DG     H15  567   1.301   0.710  -0.560  1.1332 -1.4655 -0.2075
   25DG     H16  568   1.277   0.578  -0.442  0.6960  0.5892  3.1130
   25DG     C17  569   1.438   0.821  -0.148 -0.3625 -0.4033  0.0965
   25DG     C18  570   1.394   0.752  -0.374  0.2831  0.2594  0.1874
   25DG     O19  571   1.375   0.735  -0.234 -0.1870  0.0442  0.2890
   25DG     H20  572   1.547   0.811  -0.148 -0.3586 -0.3664 -0.0712
   25DG     H21  573   1.407   0.922  -0.174  1.6168  0.0169 -0.8774
   25DG     H22  574   1.485   0.699  -0.401 -0.7020 -1.5266  0.2665
   25DG     H23  575   1.399   0.860  -0.392 -0.7508  0.4617  1.0244
   26DG      C1  576   3.682   0.570   1.508  0.6818 -0.0378 -0.6263
   26DG      C2  577   3.539   0.779   0.907  0.1116  0.2492  0.3686
   26DG      H3  578   3.648   0.504   1.588 -2.0776  2.3297  0.3051
   26DG      H4  579   3.690   0.675   1.535  1.4806 -0.2953  0.1739
   26DG      H5  580   3.784   0.544   1.477  0.1770 -0.7635 -1.7311
   26DG      H6  581   3.597   0.719   0.837  0.1365 -0.9657  1.4062
   26DG      H7  582   3.468   0.844   0.855  0.8511  1.0998  0.3849
   26DG      H8  583   3.602   0.831   0.979 -2.2323 -0.4316  3.1223
   26DG      O9  584   3.584   0.555   1.412  0.6899 -0.6956  0.2431
   26DG     O10  585   3.462   0.684   0.985  0.0062 -0.2650  0.6004
   26DG     C11  586   3.452   0.575   1.472 -0.1756  0.5044 -0.2252
   26DG     C12  587   3.347   0.748   1.037 -0.6099 -0.0642 -0.0789
   26DG     H13  588   3.468   0.673   1.517 -2.7207  0.0634  1.9477
   26DG     H14  589   3.439   0.506   1.556  1.9598  0.5628  0.2135
   26DG     H15  590   3.269   0.748   0.960 -1.5686 -0.0740  0.8662
   26DG     H16  591   3.365   0.850   1.070  2.7191 -0.3021 -0.8056
   26DG     C17  592   3.342   0.574   1.364 -0.0043  0.1398 -0.3169
   26DG     C18  593   3.293   0.649   1.144 -0.3101 -0.3964  0.3161
   26DG     O19  594   3.387   0.646   1.250  0.2041 -0.7891  0.3995
   26DG     H20  595   3.245   0.615   1.394 -1.7074 -3.3944 -0.4145
   26DG     H21  596   3.321   0.470   1.337  0.5009 -0.5856  1.8752
   26DG     H22  597   3.196   0.690   1.172  0.8594  2.9646 -0.0251
   26DG     H23  598   3.275   0.549   1.106 -0.3449  0.1635 -1.2045
   27DG      C1  599   4.308   4.377   3.967  0.8728 -0.0151 -0.3561
   27DG      C2  600   3.911   4.898   4.499  0.3580 -0.6718  0.3575
   27DG      H3  601   4.409   4.348   3.997  0.6642 -0.5883 -0.2061
   27DG      H4  602   4.320   4.465   3.904  0.4413  1.3845  1.4148
   27DG      H5  603   4.273   4.287   3.917  3.6024 -1.6908  0.5045
   27DG      H6  604   3.826   4.914   4.566  2.0089  0.5562  2.3077
   27DG      H7  605   3.991   4.881   4.571  1.8183  2.4077 -0.3329
   27DG      H8  606   3.944   4.991   4.452  2.6177 -1.6705 -0.1483
   27DG      O9  607   4.240   4.389   4.089 -0.2131 -0.0618  0.8455
   27DG     O10  608   3.881   4.801   4.397  0.2653  0.0490  0.1306
   27DG     C11  609   4.295   4.489   4.173  0.2182  0.4047  0.0756
   27DG     C12  610   4.000   4.777   4.326 -0.3912 -0.3748  0.5939
   27DG     H13  611   4.341   4.574   4.124  3.1768  0.1731  2.1881
   27DG     H14  612   4.365   4.439   4.241  0.1894  0.5882  0.2402
   27DG     H15  613   4.090   4.765   4.387  0.4029  3.6118  0.4653
   27DG     H16  614   4.032   4.855   4.257  0.7140 -0.8001  0.5999
   27DG     C17  615   4.180   4.538   4.254  0.1010  0.5238 -0.6188
   27DG     C18  616   3.974   4.651   4.244  0.1364 -0.4947 -0.0377
   27DG     O19  617   4.088   4.609   4.170 -0.6408 -0.1216  0.6023
   27DG     H20  618   4.219   4.591   4.341  0.4223 -0.7135  0.0178
   27DG     H21  619   4.119   4.453   4.284 -2.7617  1.9375 -2.0749
   27DG     H22  620   3.933   4.573   4.309 -2.1402 -0.7399 -1.6733
   27DG     H23  621   3.891   4.687   4.184 -0.8923  0.0086  1.5976
   28DG      C1  622   0.079   3.486   1.839  0.6847 -0.3744  0.0435
   28DG      C2  623  -0.446   3.075   1.931  0.2327  0.3653 -0.3679
   28DG      H3  624   0.145   3.414   1.888  0.1368 -1.7019 -1.1028
   28DG      H4  625   0.134   3.579   1.825  2.6582 -1.7141 -1.9881
   28DG      H5  626   0.064   3.440   1.741 -1.2983 -0.1745  0.2145
   28DG      H6  627  -0.511   3.037   2.009  1.0513  0.5280  0.4081
   28DG      H7  628  -0.476   3.061   1.827  4.0748  0.4742 -1.6353
   28DG      H8  629  -0.349   3.029   1.948 -0.8265 -1.5950  0.6948
   28DG      O9  630  -0.051   3.510   1.895 -0.4970 -0.4528 -0.0547
   28DG     O10  631  -0.422   3.215   1.954 -0.0448  0.2470 -0.3554
   28DG     C11  632  -0.131   3.584   1.803 -0.5315  0.0541  0.3731
   28DG     C12  633  -0.503   3.306   1.889 -0.3496  0.0596 -1.1627
   28DG     H13  634  -0.147   3.537   1.706  2.7658  0.3184 -0.4273
   28DG     H14  635  -0.086   3.679   1.776  0.8065 -1.0907 -1.7636
   28DG     H15  636  -0.606   3.299   1.924  0.0323 -0.1143 -0.0280
   28DG     H16  637  -0.498   3.298   1.780  1.7382 -1.6926 -1.0016
   28DG     C17  638  -0.276   3.594   1.867 -0.0625  0.5042  0.4278
   28DG     C18  639  -0.451   3.446   1.918 -0.3441 -0.0037 -0.0409
   28DG     O19  640  -0.325   3.458   1.859  0.0950  0.2363  0.3374
   28DG     H20  641  -0.343   3.658   1.809  0.1657 -0.5197 -1.0004
   28DG     H21  642  -0.264   3.628   1.970 -0.6686  0.7402  0.4249
   28DG     H22  643  -0.519   3.524   1.883 -2.0000 -0.6952  1.4876
   28DG     H23  644  -0.425   3.458   2.023 -1.8240 -0.6347  0.4210
   29DG      C1  645   3.256   3.196   1.031  0.1674  0.2922  0.4249
   29DG      C2  646   2.670   3.460   0.427  0.3310  0.3867  0.3343
   29DG      H3  647   3.296   3.095   1.040 -2.1252 -0.5550  2.2079
   29DG      H4  648   3.277   3.257   1.119  0.6067  0.2101  0.3812
   29DG      H5  649   3.311   3.247   0.952 -1.1300  0.9136 -0.1030
   29DG      H6  650   2.595   3.400   0.479  0.9124  0.6616  1.5241
   29DG      H7  651   2.658   3.568   0.436 -0.1618  0.6181 -2.1899
   29DG      H8  652   2.658   3.422   0.325 -0.0910 -1.1026  0.9210
   29DG      O9  653   3.116   3.187   1.010 -0.4188  0.5437  0.1572
   29DG     O10  654   2.797   3.416   0.466 -0.2473 -0.6110 -0.0228
   29DG     C11  655   3.087   3.107   0.896  0.8052  0.6044 -0.4730
   29DG     C12  656   2.814   3.386   0.609 -0.4914  0.1017  0.5027
   29DG     H13  657   2.984   3.075   0.912  0.9872  0.9806  1.8583
   29DG     H14  658   3.134   3.012   0.869  1.1945  0.8097 -0.5173
   29DG     H15  659   2.737   3.311   0.628 -0.3153 -0.7700 -1.8145
   29DG     H16  660   2.790   3.471   0.672 -2.2929  0.0308 -0.0350
   29DG     C17  661   3.091   3.190   0.768 -0.0460 -0.6546  0.1627
   29DG     C18  662   2.951   3.315   0.630 -0.2700 -0.4712 -0.0424
   29DG     O19  663   2.969   3.265   0.758 -0.6618 -0.1251  0.4263
   29DG     H20  664   3.103   3.122   0.683 -1.1497  0.4341 -0.8936
   29DG     H21  665   3.175   3.259   0.767 -0.9961  0.6057  2.1825
   29DG     H22  666   2.963   3.236   0.555  1.8681 -0.4553  0.2118
   29DG     H23  667   3.036   3.381   0.612 -1.2089  0.6360 -0.5668
   30DG      C1  668   4.473   1.078   3.498  0.5442  0.0872 -0.2234
   30DG      C2  669   4.248   1.597   3.661  0.2601  0.5701  0.3316
   30DG      H3  670   4.431   1.009   3.571  0.7930 -0.7994 -0.9070
   30DG      H4  671   4.557   1.132   3.542 -0.0885  0.2699  0.8140
   30DG      H5  672   4.516   1.012   3.423  0.9763  0.6354 -0.4623
   30DG      H6  673   4.276   1.493   3.645 -0.9172  0.2850  0.0031
   30DG      H7  674   4.336   1.658   3.687 -0.2225  1.0726  0.8356
   30DG      H8  675   4.182   1.589   3.747  0.6762  2.7136  0.9149
   30DG      O9  676   4.365   1.159   3.459 -0.4885 -0.2999  0.0651
   30DG     O10  677   4.187   1.646   3.545  0.3019  0.1692  0.1456
   30DG     C11  678   4.399   1.228   3.340 -0.3660 -0.3021 -0.5087
   30DG     C12  679   4.094   1.553   3.483 -0.3587 -0.1972  0.0383
   30DG     H13  680   4.435   1.163   3.260  0.9646 -0.6147  0.3104
   30DG     H14  681   4.478   1.294   3.379  1.3988 -3.0287  0.8635
   30DG     H15  682   4.014   1.617   3.446 -1.7554 -0.4528  2.3982
   30DG     H16  683   4.052   1.473   3.544 -2.9422  1.7466  0.9755
   30DG     C17  684   4.277   1.306   3.299  0.3007 -0.1898 -0.2896
   30DG     C18  685   4.160   1.499   3.359 -0.1308 -0.0027 -0.0737
   30DG     O19  686   4.240   1.391   3.404  0.5222 -0.7635  0.1758
   30DG     H20  687   4.201   1.231   3.281  1.9445 -1.7268 -1.0731
   30DG     H21  688   4.281   1.361   3.204 -4.4178 -0.7128 -1.0404
   30DG     H22  689   4.090   1.465   3.283  0.8787 -0.4201 -0.8540
   30DG     H23  690   4.227   1.567   3.306 -1.3623  0.0347 -1.6285
   31DG      C1  691   5.122   3.312   0.382 -0.5778 -0.2844 -0.0532
   31DG      C2  692   5.675   3.678   0.259  0.2453 -0.3112  0.3198
   31DG      H3  693   5.202   3.244   0.409  1.0151  1.1596 -0.9834
   31DG      H4  694   5.100   3.296   0.277  1.8999  1.7545 -0.9753
   31DG      H5  695   5.033   3.288   0.441 -1.9267  1.1222 -1.3931
   31DG      H6  696   5.708   3.608   0.182 -1.9161 -0.7936 -0.2089
   31DG      H7  697   5.720   3.770   0.221  1.0263 -1.5177 -1.8594
   31DG      H8  698   5.709   3.644   0.357  3.2986  0.7218 -0.2647
   31DG      O9  699   5.170   3.442   0.413  0.3049  0.0253 -0.1838
   31DG     O10  700   5.534   3.683   0.248 -0.1846  0.0942  0.6458
   31DG     C11  701   5.086   3.548   0.377  0.6973  0.1364  0.1307
   31DG     C12  702   5.485   3.789   0.330 -0.0474  0.1876  0.3534
   31DG     H13  703   4.994   3.534   0.433  1.0125 -1.9387  0.2104
   31DG     H14  704   5.061   3.532   0.272  2.0133  0.7817 -0.3095
   31DG     H15  705   5.525   3.885   0.299  1.3854  0.3815  2.5442
   31DG     H16  706   5.522   3.772   0.431  0.4132  0.2961  0.2034
   31DG     C17  707   5.144   3.690   0.414 -0.0055 -0.2919 -0.1448
   31DG     C18  708   5.335   3.807   0.327 -0.0182 -0.3088  0.2776
   31DG     O19  709   5.271   3.686   0.340  0.0294 -0.5873 -0.4572
   31DG     H20  710   5.155   3.685   0.523 -3.3023 -1.5709  0.2271
   31DG     H21  711   5.089   3.778   0.380 -0.5447 -0.8251 -0.6820
   31DG     H22  712   5.299   3.880   0.400 -0.8227 -0.8818  0.4737
   31DG     H23  713   5.306   3.836   0.226 -2.2362  0.1436  0.9783
   32DG      C1  714   2.610   5.109   0.843 -1.1516  0.0150 -0.2347
   32DG      C2  715   1.831   4.966   0.644 -0.8817 -0.3911 -0.8974
   32DG      H3  716   2.665   5.202   0.854 -1.6143  0.1859  0.7346
   32DG      H4  717   2.672   5.021   0.822 -2.4531 -1.0815  0.3687
   32DG      H5  718   2.563   5.096   0.941 -1.2997 -0.7170 -0.3966
   32DG      H6  719   1.754   4.889   0.640 -1.7872  0.3487  1.2068
   32DG      H7  720   1.805   5.009   0.741  1.0773 -1.5125  0.1798
   32DG      H8  721   1.811   5.045   0.571 -0.5526  0.1633 -0.3967
   32DG      O9  722   2.516   5.127   0.742 -0.4950  0.4482  0.2207
   32DG     O10  723   1.960   4.921   0.631 -0.9271  0.2522  0.6919
   32DG     C11  724   2.508   5.016   0.659  0.1287  0.3785 -0.1230
   32DG     C12  725   2.059   5.020   0.666  0.5007  0.1134  0.0363
   32DG     H13  726   2.476   4.918   0.695 -0.7148  0.5822 -0.2964
   32DG     H14  727   2.596   5.002   0.596 -0.1966 -0.8118 -0.3439
   32DG     H15  728   2.068   5.025   0.774 -0.6796  0.2135  0.1361
   32DG     H16  729   2.043   5.118   0.622  0.8288  0.5924  0.9712
   32DG     C17  730   2.407   5.040   0.551  0.5500 -0.3778  0.9632
   32DG     C18  731   2.188   4.959   0.607 -0.3823 -0.3423 -0.6519
   32DG     O19  732   2.278   5.068   0.602  0.6719  0.4262  0.0263
   32DG     H20  733   2.404   4.957   0.481 -1.3361  1.0883 -0.8229
   32DG     H21  734   2.444   5.118   0.485 -0.0293  0.7485  1.9193
   32DG     H22  735   2.211   4.865   0.657 -0.7352  1.7511  4.0550
   32DG     H23  736   2.160   4.940   0.504  0.3842 -0.0842 -0.9203
   33DG      C1  737   0.638   4.261   2.511  0.0957 -0.4238  0.2629
   33DG      C2  738   1.187   3.955   2.834 -0.1125  0.0383 -0.3759
   33DG      H3  739   0.646   4.369   2.512 -0.1902 -0.4070  1.1036
   33DG      H4  740   0.616   4.245   2.617 -0.6700 -3.0600 -0.2009
   33DG      H5  741   0.552   4.228   2.452 -2.2149  2.5395  1.7177
   33DG      H6  742   1.257   4.034   2.862 -0.1577 -0.2312  0.4991
   33DG      H7  743   1.113   3.951   2.913  1.4494 -0.2686  1.1183
   33DG      H8  744   1.232   3.856   2.829  1.4128  0.6510  0.6508
   33DG      O9  745   0.761   4.197   2.498 -0.2897  0.0180 -0.0872
   33DG     O10  746   1.118   3.999   2.721 -0.2169  0.5239 -0.0069
   33DG     C11  747   0.839   4.242   2.384  0.2571 -0.0778  0.7313
   33DG     C12  748   1.194   3.998   2.602  0.0365  0.0111 -0.3103
   33DG     H13  749   0.893   4.336   2.390 -1.1747  0.9051 -0.9699
   33DG     H14  750   0.775   4.234   2.296  0.9041 -0.1541  0.2615
   33DG     H15  751   1.254   3.909   2.588  1.3056  0.6169  1.0850
   33DG     H16  752   1.255   4.088   2.611  1.8060 -1.0199 -1.5128
   33DG     C17  753   0.931   4.129   2.371 -0.3080  0.5299 -0.0930
   33DG     C18  754   1.097   4.009   2.484  0.6328  0.5406  0.2139
   33DG     O19  755   1.011   4.119   2.495 -0.2654  0.2702  0.0970
   33DG     H20  756   0.986   4.140   2.277 -1.8171 -0.8605 -1.1874
   33DG     H21  757   0.866   4.043   2.355 -0.4082  0.9541 -2.2547
   33DG     H22  758   1.155   4.017   2.392  1.8391  0.3471  0.9361
   33DG     H23  759   1.047   3.913   2.476  0.5500  0.6306 -0.4088
   34DG      C1  760   1.416   2.925   5.150 -0.5550 -0.1599  0.6770
   34DG      C2  761   1.193   3.594   5.210 -0.3071 -0.2928  0.4121
   34DG      H3  762   1.394   2.999   5.072  1.5905  1.3435  1.3901
   34DG      H4  763   1.375   2.827   5.125 -0.0919  0.4009 -2.7377
   34DG      H5  764   1.524   2.918   5.144 -0.5917  0.4899 -2.4530
   34DG      H6  765   1.134   3.611   5.120 -0.5268  1.4505  0.8511
   34DG      H7  766   1.178   3.677   5.278  4.1468 -1.1574  2.8579
   34DG      H8  767   1.299   3.603   5.186 -0.7827  0.1871 -1.7250
   34DG      O9  768   1.357   2.962   5.273 -0.6511 -0.4471 -0.3397
   34DG     O10  769   1.171   3.472   5.269  0.0325  0.8380 -0.4643
   34DG     C11  770   1.213   2.962   5.284 -0.9269 -0.7981  0.2508
   34DG     C12  771   1.265   3.444   5.372 -0.7220  0.2829 -0.9134
   34DG     H13  772   1.174   2.868   5.324 -2.8881 -1.1261 -2.1774
   34DG     H14  773   1.166   2.965   5.186  1.0478 -1.5624 -0.7687
   34DG     H15  774   1.262   3.511   5.458  0.9236  0.9414 -1.3310
   34DG     H16  775   1.371   3.450   5.347  0.3870  0.4742  3.0623
   34DG     C17  776   1.179   3.090   5.367 -0.1174  0.2380  0.6793
   34DG     C18  777   1.225   3.312   5.435 -0.5120  0.5694  0.1496
   34DG     O19  778   1.234   3.213   5.334  0.6415  0.1623 -0.7750
   34DG     H20  779   1.216   3.075   5.468 -0.5673 -0.4321  0.7521
   34DG     H21  780   1.072   3.109   5.372 -0.2123  0.5274 -1.4003
   34DG     H22  781   1.290   3.281   5.517 -0.3033  0.4034 -0.0777
   34DG     H23  782   1.125   3.313   5.479 -0.6679 -1.9308  0.0103
   35DG      C1  783   2.019   1.720   0.723 -0.4663  1.0884  0.1230
   35DG      C2  784   1.953   1.248   0.322  0.2060 -0.2137 -0.3305
   35DG      H3  785   2.069   1.671   0.806  0.2750  0.2782 -0.7652
   35DG      H4  786   1.937   1.787   0.747 -3.2603 -1.9160 -0.2572
   35DG      H5  787   2.097   1.764   0.660 -0.7791  0.1933 -0.9339
   35DG      H6  788   1.882   1.168   0.300  0.3074 -0.3718 -0.0866
   35DG      H7  789   1.948   1.302   0.227 -4.1947 -0.3174 -0.3519
   35DG      H8  790   2.054   1.209   0.334  0.5009  0.0159 -1.7776
   35DG      O9  791   1.954   1.609   0.664 -0.2182 -0.4126  0.0701
   35DG     O10  792   1.908   1.338   0.424  1.0783  0.2300 -0.0568
   35DG     C11  793   1.900   1.528   0.762 -0.0628 -0.3496 -0.1669
   35DG     C12  794   1.874   1.251   0.542 -0.0965 -0.4201 -0.2707
   35DG     H13  795   1.904   1.571   0.862  2.0302  1.1997 -0.8466
   35DG     H14  796   1.945   1.429   0.757 -0.0926 -0.3177 -3.7057
   35DG     H15  797   1.950   1.257   0.620 -0.2762 -1.6888  0.0217
   35DG     H16  798   1.864   1.144   0.525 -0.1048 -0.2998 -1.0822
   35DG     C17  799   1.751   1.499   0.730 -0.7186  0.4287  0.5804
   35DG     C18  800   1.742   1.299   0.598 -0.8093 -0.0863  0.3449
   35DG     O19  801   1.735   1.436   0.609 -0.1912 -0.4053  0.1951
   35DG     H20  802   1.697   1.593   0.736  0.7235  1.2103  2.6322
   35DG     H21  803   1.702   1.445   0.811  0.9812  0.0456  1.4122
   35DG     H22  804   1.667   1.265   0.526 -0.5530 -1.0334  0.5034
   35DG     H23  805   1.721   1.246   0.690 -1.7893 -1.8025 -0.8055
   36DG      C1  806   0.912   4.210   0.090 -0.0943 -0.6561 -0.5590
   36DG      C2  807   0.786   4.862  -0.046  0.0519  0.6725  0.0730
   36DG      H3  808   0.804   4.218   0.105 -0.1238 -0.4292 -0.8762
   36DG      H4  809   0.952   4.123   0.142 -0.4217 -1.8577 -2.2447
   36DG      H5  810   0.933   4.203  -0.017 -0.8731  1.1000 -0.8679
   36DG      H6  811   0.791   4.971  -0.041 -0.5905  0.8214 -1.8451
   36DG      H7  812   0.812   4.841  -0.150  1.2244 -1.5659  0.7657
   36DG      H8  813   0.683   4.832  -0.028  0.2774 -0.3099 -0.2374
   36DG      O9  814   0.967   4.346   0.123  0.2609  0.2211  0.2174
   36DG     O10  815   0.882   4.792   0.038 -0.3836  0.1349 -0.2743
   36DG     C11  816   1.109   4.353   0.116  0.1934  0.4787  0.0834
   36DG     C12  817   1.015   4.816   0.003  0.4310  0.1821 -0.3195
   36DG     H13  818   1.141   4.328   0.015  0.7239 -0.6609  0.5204
   36DG     H14  819   1.151   4.273   0.177  1.3329  0.3344 -0.8686
   36DG     H15  820   1.044   4.919   0.023  1.2154 -0.0697 -0.1402
   36DG     H16  821   1.027   4.797  -0.103 -0.9655 -0.1158 -0.4513
   36DG     C17  822   1.146   4.499   0.151  0.1865 -0.2817 -0.0019
   36DG     C18  823   1.102   4.720   0.089  0.5443 -0.0960  0.5442
   36DG     O19  824   1.061   4.584   0.083  0.4578 -0.1117 -0.1804
   36DG     H20  825   1.253   4.513   0.140  0.0193  0.4430 -0.8097
   36DG     H21  826   1.136   4.517   0.259 -0.6579 -0.2865 -0.0719
   36DG     H22  827   1.207   4.746   0.072  0.9966 -1.6170  0.8126
   36DG     H23  828   1.090   4.749   0.194 -1.0197 -0.3707  0.4536
   37DG      C1  829   4.900   0.117   3.398  0.1480  0.1311 -0.2272
   37DG      C2  830   4.675  -0.414   3.808 -0.4025  0.0897 -0.3291
   37DG      H3  831   4.945   0.059   3.317 -1.5272 -0.1001 -1.0274
   37DG      H4  832   4.970   0.096   3.479  0.9489 -2.2035 -1.4107
   37DG      H5  833   4.916   0.223   3.377 -0.3580  0.2793  0.1300
   37DG      H6  834   4.718  -0.457   3.717 -0.4730  0.6515 -0.6312
   37DG      H7  835   4.743  -0.409   3.892 -0.4448 -0.8524 -0.2235
   37DG      H8  836   4.582  -0.468   3.831 -0.0768  0.0568  0.9779
   37DG      O9  837   4.773   0.067   3.421  0.0586  0.4810 -0.0970
   37DG     O10  838   4.641  -0.275   3.802 -0.7688 -0.3403  0.4393
   37DG     C11  839   4.689   0.148   3.496  0.0753 -0.3951  0.4370
   37DG     C12  840   4.588  -0.237   3.682  0.7826 -1.4611  0.2178
   37DG     H13  841   4.677   0.250   3.459 -1.8489 -0.1495  1.5774
   37DG     H14  842   4.724   0.149   3.600  0.7094 -2.1376  0.2730
   37DG     H15  843   4.487  -0.277   3.682  0.9701 -1.9775  1.2787
   37DG     H16  844   4.633  -0.275   3.589 -1.1666  1.0187 -1.8750
   37DG     C17  845   4.560   0.079   3.482 -0.1771  0.5472 -0.2846
   37DG     C18  846   4.578  -0.088   3.659 -0.0023 -0.2952 -0.0620
   37DG     O19  847   4.570  -0.064   3.516 -0.3468  0.3246 -0.3615
   37DG     H20  848   4.522   0.081   3.380 -0.1615  2.4204 -0.2939
   37DG     H21  849   4.483   0.118   3.549  1.1403 -0.5115  1.9664
   37DG     H22  850   4.496  -0.046   3.717 -1.2939 -3.0563  0.2732
   37DG     H23  851   4.669  -0.040   3.695 -0.0422 -0.1940 -0.0953
   38DG      C1  852   3.253   2.052   4.006 -0.0464 -0.6634 -0.6021
   38DG      C2  853   3.169   2.560   4.475 -0.7025 -0.2975  0.6979
   38DG      H3  854   3.357   2.023   4.021 -0.2354 -0.4410  1.2708
   38DG      H4  855   3.246   2.091   3.904 -0.0231 -1.5111 -0.9304
   38DG      H5  856   3.194   1.961   4.006  0.1649 -0.8005 -0.7680
   38DG      H6  857   3.275   2.537   4.470 -1.0090 -1.9398  1.4404
   38DG      H7  858   3.137   2.600   4.379 -1.5744  1.4462  1.6517
   38DG      H8  859   3.144   2.638   4.548  0.4759 -0.2668  1.0829
   38DG      O9  860   3.212   2.149   4.111 -0.1757  0.5256 -0.0725
   38DG     O10  861   3.094   2.444   4.486  0.4002 -0.5657  0.0493
   38DG     C11  862   3.196   2.093   4.240  0.3403 -0.2940  0.6077
   38DG     C12  863   3.144   2.358   4.592 -0.3715  0.0604 -0.4362
   38DG     H13  864   3.300   2.082   4.273  0.7387  0.2838 -0.4124
   38DG     H14  865   3.157   1.992   4.230 -0.2050 -0.1429  1.1719
   38DG     H15  866   3.139   2.397   4.694 -0.5608  1.3074 -0.9053
   38DG     H16  867   3.251   2.348   4.579 -0.2824  1.4147 -0.8232
   38DG     C17  868   3.115   2.185   4.329  0.9665  0.1863 -0.1343
   38DG     C18  869   3.084   2.214   4.572 -0.1076  0.3082 -0.3933
   38DG     O19  870   3.152   2.146   4.461 -0.4460  0.6225  0.1008
   38DG     H20  871   3.008   2.167   4.320  0.6339  1.3569  1.1883
   38DG     H21  872   3.155   2.285   4.312  1.5854  0.1049  0.7892
   38DG     H22  873   3.106   2.152   4.659  0.5099  2.0871  0.7693
   38DG     H23  874   2.976   2.216   4.553 -0.0418 -3.7763 -2.5193
   39DG      C1  875   3.567   3.466   1.903  0.0989 -0.1687 -0.0270
   39DG      C2  876   4.004   3.887   1.908  0.0435 -0.2356 -0.5982
   39DG      H3  877   3.510   3.469   1.996 -1.0815 -1.6964 -0.6705
   39DG      H4  878   3.522   3.389   1.841 -1.4199  1.7200 -1.4088
   39DG      H5  879   3.552   3.558   1.846  1.6874 -0.5940 -1.2069
   39DG      H6  880   4.083   3.961   1.924 -1.2916  1.0014  0.4201
   39DG      H7  881   4.024   3.836   1.814 -0.3534 -1.0695 -0.2344
   39DG      H8  882   3.906   3.933   1.894 -0.2613 -1.2008 -1.8579
   39DG      O9  883   3.710   3.448   1.923 -0.3104  0.4323  1.0170
   39DG     O10  884   3.999   3.799   2.016  0.2007 -0.1030 -0.3509
   39DG     C11  885   3.786   3.447   1.800 -0.3190  0.1991  0.1898
   39DG     C12  886   4.116   3.718   2.031 -0.5250  0.0365 -0.5168
   39DG     H13  887   3.753   3.521   1.727 -0.4848 -1.6969 -1.7720
   39DG     H14  888   3.770   3.351   1.750 -1.6541 -0.0797  1.1109
   39DG     H15  889   4.120   3.679   2.132  2.6351  3.2732  0.8197
   39DG     H16  890   4.205   3.778   2.013 -0.3241 -0.1176 -0.0290
   39DG     C17  891   3.944   3.455   1.826  0.6733  0.0757 -0.3442
   39DG     C18  892   4.105   3.602   1.925 -0.1631 -0.1058 -0.2583
   39DG     O19  893   3.971   3.579   1.886 -0.3116  0.1348 -0.1069
   39DG     H20  894   3.997   3.438   1.732  0.3849 -0.0320 -0.4876
   39DG     H21  895   3.973   3.373   1.892 -1.8490 -0.4311  0.2281
   39DG     H22  896   4.171   3.629   1.842  0.9379 -0.5934  0.4357
   39DG     H23  897   4.145   3.514   1.975 -0.1348  0.7371  1.2989
   40DG      C1  898   4.663   5.346   4.703  0.3417  1.1081 -0.2923
   40DG      C2  899   5.161   4.845   4.757 -0.0332 -0.3788 -0.2288
   40DG      H3  900   4.727   5.410   4.763  0.7838 -0.7495  1.3630
   40DG      H4  901   4.576   5.400   4.667  0.0934  0.8503 -0.0875
   40DG      H5  902   4.732   5.303   4.631 -0.1059 -0.8751  0.3870
   40DG      H6  903   5.222   4.787   4.688  0.8261 -1.8562  1.6702
   40DG      H7  904   5.211   4.942   4.769 -0.8144  0.0746 -0.5795
   40DG      H8  905   5.178   4.786   4.847 -0.9342 -1.0093 -0.4565
   40DG      O9  906   4.655   5.233   4.799 -0.1397  0.1400  0.3705
   40DG     O10  907   5.025   4.866   4.715 -0.9810  0.4926 -0.1482
   40DG     C11  908   4.577   5.125   4.750 -0.0368 -0.3502 -1.1418
   40DG     C12  909   4.941   4.906   4.822 -0.0798  0.1339 -0.2757
   40DG     H13  910   4.622   5.093   4.656  0.2320 -0.9167 -0.8169
   40DG     H14  911   4.472   5.149   4.732 -0.6496 -2.5695 -0.7733
   40DG     H15  912   4.988   4.996   4.861  2.1871 -0.6056 -1.1629
   40DG     H16  913   4.942   4.836   4.906 -0.9851  0.1011 -0.2772
   40DG     C17  914   4.594   5.007   4.843 -0.2933 -0.3674 -0.1689
   40DG     C18  915   4.803   4.927   4.770 -0.2784  0.7852 -0.4246
   40DG     O19  916   4.728   4.988   4.869  0.0569 -0.3350 -0.1667
   40DG     H20  917   4.550   4.919   4.796 -0.6462  0.8067 -2.1320
   40DG     H21  918   4.547   5.018   4.941 -0.6849 -3.5551  0.1029
   40DG     H22  919   4.808   4.998   4.687  1.4540 -0.0680 -1.1040
   40DG     H23  920   4.756   4.832   4.744  0.8723  0.2634 -0.6692
   41DG      C1  921   2.281   4.538   0.912 -0.7435  0.1743 -0.3714
   41DG      C2  922   2.085   4.545   1.532 -0.2856  0.8289 -0.6688
   41DG      H3  923   2.362   4.487   0.964 -0.8969 -2.0169 -2.1535
   41DG      H4  924   2.316   4.574   0.816  0.9429  2.7566  1.0890
   41DG      H5  925   2.212   4.454   0.900  0.8318 -0.9208 -2.2535
   41DG      H6  926   2.018   4.465   1.501  0.0122  0.1404  0.4286
   41DG      H7  927   2.178   4.514   1.579  1.3284  3.9242 -1.5083
   41DG      H8  928   2.024   4.583   1.614  1.3100 -0.2663  1.0839
   41DG      O9  929   2.228   4.632   1.001  0.5794  0.7113  0.1781
   41DG     O10  930   2.108   4.648   1.435 -0.5468 -0.2989 -0.0942
   41DG     C11  931   2.308   4.745   1.012 -0.8877 -0.3361  0.1758
   41DG     C12  932   2.190   4.749   1.485  0.4355  0.2088  0.0515
   41DG     H13  933   2.305   4.806   0.922  0.9677  0.5624  0.6842
   41DG     H14  934   2.411   4.712   1.025 -1.1389 -0.4931  2.0914
   41DG     H15  935   2.283   4.712   1.528  0.1531 -0.9165 -0.2871
   41DG     H16  936   2.135   4.813   1.554  0.7508  0.2974  0.2268
   41DG     C17  937   2.275   4.841   1.136  0.2912  0.5017  0.2029
   41DG     C18  938   2.220   4.836   1.362 -0.3172 -0.5426 -0.2408
   41DG     O19  939   2.258   4.754   1.248 -0.0065 -0.2556 -0.1533
   41DG     H20  940   2.180   4.892   1.118  0.3559  1.7013  2.8246
   41DG     H21  941   2.348   4.917   1.163  1.0434  0.3696 -1.3524
   41DG     H22  942   2.128   4.888   1.341  0.5250  0.6350 -1.1325
   41DG     H23  943   2.293   4.912   1.389  0.9752 -1.7692 -0.0910
   42DG      C1  944   1.033   2.926   1.686 -0.7605 -0.3660  0.0428
   42DG      C2  945   0.408   2.881   1.916  0.2771 -0.7851  0.4149
   42DG      H3  946   1.108   3.005   1.675 -0.7380 -0.5227 -1.0407
   42DG      H4  947   0.982   2.904   1.592 -1.5453  2.4030 -0.2804
   42DG      H5  948   1.092   2.839   1.714 -0.7192 -1.4658 -3.0457
   42DG      H6  949   0.356   2.953   1.979  1.5387  1.4807 -1.0002
   42DG      H7  950   0.384   2.903   1.812 -4.1895  1.3997  1.6465
   42DG      H8  951   0.368   2.781   1.933 -2.9312  0.0134 -1.4810
   42DG      O9  952   0.938   2.960   1.780  0.6001  0.2859  0.7253
   42DG     O10  953   0.551   2.897   1.945 -0.1360  0.2635 -0.3328
   42DG     C11  954   0.987   2.992   1.907 -0.2042 -0.4262 -0.1775
   42DG     C12  955   0.588   2.847   2.074  0.0258  0.5066 -0.1978
   42DG     H13  956   1.052   3.079   1.901 -0.6156 -0.0242  0.9212
   42DG     H14  957   1.059   2.922   1.949  0.7232  1.9999  2.5735
   42DG     H15  958   0.609   2.740   2.064  0.5438  0.7062 -1.4251
   42DG     H16  959   0.505   2.855   2.143 -0.9113 -0.3987 -1.1697
   42DG     C17  960   0.870   3.024   1.998 -0.0997 -0.5291 -0.5156
   42DG     C18  961   0.719   2.906   2.127  0.3494  0.7422 -1.0208
   42DG     O19  962   0.802   2.907   2.010  0.0932  0.3587  0.0057
   42DG     H20  963   0.815   3.110   1.960  2.5719  0.9473 -1.2806
   42DG     H21  964   0.904   3.045   2.100 -0.4809 -3.4300  0.2950
   42DG     H22  965   0.704   3.001   2.179 -0.0821  0.3565 -0.4338
   42DG     H23  966   0.754   2.847   2.211 -0.0682  1.6427 -0.1990
   43DG      C1  967   0.410   3.506   0.934 -0.6060  0.1092 -0.3658
   43DG      C2  968   0.444   2.883   0.928 -0.2972  0.2061  0.5181
   43DG      H3  969   0.438   3.610   0.952  0.0475 -0.0382 -0.4716
   43DG      H4  970   0.384   3.477   1.036 -0.5686  4.0769  0.9446
   43DG      H5  971   0.315   3.496   0.883 -1.0618 -0.1464  0.5107
   43DG      H6  972   0.394   2.879   0.831 -1.0408  1.1297  0.8555
   43DG      H7  973   0.510   2.798   0.946 -0.7492 -0.2237  0.2041
   43DG      H8  974   0.367   2.879   1.005 -0.3279  1.2142  0.5493
   43DG      O9  975   0.514   3.425   0.868  0.9340 -0.0438  0.0832
   43DG     O10  976   0.519   3.005   0.942 -0.2486  0.6361 -0.5472
   43DG     C11  977   0.651   3.448   0.904 -0.0939  0.1814 -0.8288
   43DG     C12  978   0.586   3.014   1.072 -0.3698 -0.4221  0.0576
   43DG     H13  979   0.674   3.553   0.919  1.5488 -0.2247 -0.2953
   43DG     H14  980   0.707   3.418   0.816  1.1207  0.1706 -0.0730
   43DG     H15  981   0.691   2.988   1.058 -0.7308 -2.6753  1.0811
   43DG     H16  982   0.548   2.949   1.150  0.4379 -1.2281 -0.1981
   43DG     C17  983   0.675   3.371   1.031 -0.7103  0.3104  0.0420
   43DG     C18  984   0.574   3.161   1.110  0.7677  0.1428 -0.7520
   43DG     O19  985   0.621   3.237   1.004  0.2201 -0.5894 -0.4361
   43DG     H20  986   0.609   3.401   1.112 -1.0863 -0.0078 -0.1436
   43DG     H21  987   0.776   3.353   1.068 -0.9523 -0.2646  0.4327
   43DG     H22  988   0.477   3.187   1.150  0.8635 -0.5555 -0.0400
   43DG     H23  989   0.642   3.166   1.195  1.3849  0.1272 -1.2353
   44DG      C1  990   1.262   1.462   2.099 -0.4397 -0.0550  0.0162
   44DG      C2  991   0.911   2.121   1.704  0.2653 -0.4530 -0.2469
   44DG      H3  992   1.199   1.410   2.171  1.4645 -2.8048 -0.1683
   44DG      H4  993   1.363   1.444   2.135 -1.0153 -1.6806  0.9471
   44DG      H5  994   1.251   1.410   2.004  0.1425  1.8965 -1.1727
   44DG      H6  995   0.901   2.230   1.695  0.7973 -0.4903 -1.4656
   44DG      H7  996   0.988   2.084   1.637 -0.9721 -1.2458 -1.2815
   44DG      H8  997   0.820   2.067   1.677 -0.7048 -0.3012  2.3898
   44DG      O9  998   1.248   1.601   2.076 -0.0385  0.3306  0.0956
   44DG     O10  999   0.947   2.104   1.837  0.4325  0.1627 -0.5222
   44DG     C11 1000   1.322   1.652   1.962  0.0355 -0.0858 -0.2534
   44DG     C12 1001   0.973   1.971   1.882 -0.2680  0.1869 -0.4023
   44DG     H13 1002   1.300   1.603   1.868 -0.7866  1.6334 -0.9969
   44DG     H14 1003   1.431   1.650   1.971  0.1199  2.3133 -0.1999
   44DG     H15 1004   0.903   1.899   1.839  1.1891 -0.9185 -1.0129
   44DG     H16 1005   0.957   1.978   1.989  2.7233 -0.9685  0.1945
   44DG     C17 1006   1.290   1.801   1.929 -0.7802 -0.0945 -0.4913
   44DG     C18 1007   1.117   1.938   1.856  0.2325 -1.1619  0.2748
   44DG     O19 1008   1.150   1.815   1.910  0.0041  0.1487  0.5351
   44DG     H20 1009   1.343   1.823   1.836 -2.2480  0.9082 -1.1309
   44DG     H21 1010   1.326   1.872   2.004  0.2680 -2.2802  1.1863
   44DG     H22 1011   1.135   1.941   1.749 -0.3423  2.1751  0.1646
   44DG     H23 1012   1.173   2.022   1.897  0.0233 -0.0276 -1.6576
   45DG      C1 1013   0.513   4.448   4.800 -0.1387  0.3956 -0.4157
   45DG      C2 1014   0.001   5.046   4.469  0.0480  0.2790 -0.5380
   45DG      H3 1015   0.503   4.348   4.842 -1.4525  0.2873 -0.9425
   45DG      H4 1016   0.614   4.487   4.804 -0.3444  0.8690  2.1022
   45DG      H5 1017   0.485   4.432   4.696  2.1658  0.6523 -1.1145
   45DG      H6 1018  -0.007   4.962   4.401 -0.9207 -0.2888  0.2506
   45DG      H7 1019  -0.084   5.114   4.459  1.9747  2.5814 -2.4412
   45DG      H8 1020   0.085   5.110   4.441 -0.8993  0.9312 -2.0126
   45DG      O9 1021   0.430   4.555   4.846 -0.2393 -0.3379 -0.0321
   45DG     O10 1022   0.014   5.011   4.603 -0.2601  0.3090  0.1264
   45DG     C11 1023   0.290   4.521   4.844 -0.9046  0.0332 -0.0007
   45DG     C12 1024   0.127   4.920   4.611 -0.1707 -0.2001  0.1075
   45DG     H13 1025   0.265   4.442   4.915 -3.1409  1.6135  1.0987
   45DG     H14 1026   0.263   4.473   4.749  0.9452 -4.3250  1.4425
   45DG     H15 1027   0.221   4.975   4.617 -0.2722  0.0348 -0.3752
   45DG     H16 1028   0.127   4.844   4.533  0.0802 -0.2013  0.1058
   45DG     C17 1029   0.209   4.649   4.858  0.1201 -0.4450 -0.2745
   45DG     C18 1030   0.122   4.844   4.748 -0.0511 -0.2947 -0.1364
   45DG     O19 1031   0.222   4.739   4.748  0.6212  0.3579 -0.2728
   45DG     H20 1032   0.232   4.702   4.950 -2.2882 -1.3158  0.9201
   45DG     H21 1033   0.103   4.622   4.863  0.6288 -2.7154 -0.3828
   45DG     H22 1034   0.132   4.911   4.833  1.1951 -1.5371  0.7281
   45DG     H23 1035   0.024   4.795   4.747 -0.8312  1.1788 -1.3718
   46DG      C1 1036   4.120   3.754   2.893 -0.2810 -0.8549  0.4001
   46DG      C2 1037   3.441   3.958   2.588  0.5869  0.2405 -0.3978
   46DG      H3 1038   4.109   3.836   2.822 -0.1548  0.3633  1.7207
   46DG      H4 1039   4.205   3.691   2.872  0.7298  0.7405 -0.5072
   46DG      H5 1040   4.137   3.803   2.989 -0.4126 -0.1212  0.0566
   46DG      H6 1041   3.455   4.050   2.646  1.4637 -0.7392  0.9993
   46DG      H7 1042   3.448   3.983   2.482 -2.8628 -0.3385 -0.8554
   46DG      H8 1043   3.337   3.929   2.599  0.2264  1.0482 -1.5302
   46DG      O9 1044   3.996   3.686   2.901  0.0797  1.1491 -0.5411
   46DG     O10 1045   3.529   3.863   2.645  0.3419  0.2531  0.0720
   46DG     C11 1046   3.943   3.629   2.777 -1.3203  0.0186  0.5503
   46DG     C12 1047   3.492   3.829   2.779  0.3495 -0.7396  0.7343
   46DG     H13 1048   3.989   3.531   2.767 -1.1545  0.1293  0.2092
   46DG     H14 1049   3.973   3.693   2.695  0.5256  0.8885  1.8367
   46DG     H15 1050   3.387   3.800   2.783  0.5444 -1.7890 -0.9634
   46DG     H16 1051   3.499   3.919   2.839 -0.7856  0.0417 -0.2538
   46DG     C17 1052   3.794   3.605   2.786  0.2587 -0.4562 -1.0423
   46DG     C18 1053   3.577   3.708   2.818  0.1346  0.8044 -0.0497
   46DG     O19 1054   3.717   3.728   2.796  0.1662  0.6698 -0.8813
   46DG     H20 1055   3.795   3.556   2.883  0.7707  1.4686 -0.0057
   46DG     H21 1056   3.763   3.544   2.702 -0.8584 -0.0368 -0.9524
   46DG     H22 1057   3.563   3.663   2.917  1.6743 -1.2740 -0.7267
   46DG     H23 1058   3.541   3.634   2.747  0.5665 -1.5558  2.0594
   47DG      C1 1059   3.306   1.930   2.390 -0.3171 -0.2486  0.4790
   47DG      C2 1060   3.015   2.256   1.805 -0.1207  0.2065 -0.5563
   47DG      H3 1061   3.282   1.892   2.489  1.2351  0.5866  1.2269
   47DG      H4 1062   3.361   2.023   2.409 -0.5118  0.2682 -1.2696
   47DG      H5 1063   3.358   1.864   2.321 -2.3020 -1.3277 -0.0593
   47DG      H6 1064   3.064   2.208   1.720 -0.7351  0.0299 -0.8149
   47DG      H7 1065   2.933   2.318   1.768 -1.3570 -0.5841  0.7971
   47DG      H8 1066   3.085   2.323   1.854 -1.9505  0.6888  1.5673
   47DG      O9 1067   3.191   1.983   2.326  0.6758  0.3269  0.4335
   47DG     O10 1068   2.966   2.140   1.891  1.2335 -0.0554 -0.2310
   47DG     C11 1069   3.104   1.869   2.279  0.3596 -0.1014  0.0933
   47DG     C12 1070   2.888   2.195   1.999  0.8755  0.6427 -0.1961
   47DG     H13 1071   3.095   1.808   2.369  1.7810  1.0824  1.0794
   47DG     H14 1072   3.156   1.809   2.205  1.5880  0.9677  0.0646
   47DG     H15 1073   2.796   2.242   1.964 -1.6938 -3.0336  1.0180
   47DG     H16 1074   2.933   2.265   2.070  1.2372  0.8942 -0.6664
   47DG     C17 1075   2.967   1.926   2.238 -0.0737  0.2478 -0.1054
   47DG     C18 1076   2.853   2.079   2.092 -0.0454 -0.2388  0.0089
   47DG     O19 1077   2.981   2.016   2.128 -0.4784 -0.0870  0.1224
   47DG     H20 1078   2.925   1.979   2.324  1.1900  1.0349  0.0519
   47DG     H21 1079   2.902   1.841   2.216  0.1970 -0.0575  0.2724
   47DG     H22 1080   2.800   2.124   2.176 -2.4609  1.0089 -2.0580
   47DG     H23 1081   2.796   2.001   2.042 -1.3368  0.7127 -0.0498
   48DG      C1 1082   0.481   3.345   1.940 -0.4949  0.4310 -0.5858
   48DG      C2 1083   0.648   4.014   2.040 -0.6311 -0.1828 -0.2414
   48DG      H3 1084   0.574   3.289   1.953 -1.3459 -0.5743  1.8530
   48DG      H4 1085   0.471   3.383   1.838 -0.5410 -0.3555 -0.8824
   48DG      H5 1086   0.407   3.265   1.940 -0.8554  0.7537  0.1876
   48DG      H6 1087   0.631   4.016   1.932 -0.2499 -0.8470 -0.3160
   48DG      H7 1088   0.623   4.105   2.095 -2.4185  0.3714 -1.8227
   48DG      H8 1089   0.757   4.012   2.044 -0.6718 -0.3387  2.3991
   48DG      O9 1090   0.475   3.447   2.031 -0.4961  0.2167 -0.3603
   48DG     O10 1091   0.577   3.898   2.091 -0.0252 -0.2150  0.1800
   48DG     C11 1092   0.469   3.411   2.170 -0.9480  0.3726 -0.3798
   48DG     C12 1093   0.641   3.851   2.216  0.0185 -0.8743  0.2427
   48DG     H13 1094   0.550   3.343   2.197 -1.3512 -0.3882 -1.0619
   48DG     H14 1095   0.379   3.349   2.178 -1.3007  0.8714 -0.4269
   48DG     H15 1096   0.665   3.933   2.284  1.8303 -0.4066 -0.8929
   48DG     H16 1097   0.737   3.801   2.197 -0.5231 -1.9071  0.1420
   48DG     C17 1098   0.466   3.535   2.254  0.3754 -0.6028 -0.9965
   48DG     C18 1099   0.556   3.749   2.278 -0.3303 -0.5180 -1.1232
   48DG     O19 1100   0.551   3.636   2.198 -0.3100 -0.2024  0.0282
   48DG     H20 1101   0.498   3.503   2.353 -1.6773  0.0588 -0.0654
   48DG     H21 1102   0.362   3.570   2.258  1.0920  1.5943  1.2397
   48DG     H22 1103   0.599   3.715   2.372  0.3423  1.6621 -0.5808
   48DG     H23 1104   0.453   3.780   2.294 -0.5549 -0.5299 -2.4163
   49DG      C1 1105   4.685   1.487   1.503  0.9277  0.4302  0.2363
   49DG      C2 1106   4.807   2.146   1.012 -0.4740 -0.8994  0.1475
   49DG      H3 1107   4.752   1.416   1.551  0.6605  0.5296  0.7651
   49DG      H4 1108   4.609   1.429   1.449  1.9900 -0.5421 -0.2446
   49DG      H5 1109   4.653   1.550   1.586  3.0709  1.3242  0.4373
   49DG      H6 1110   4.889   2.152   0.940  1.7080 -0.4085  2.5026
   49DG      H7 1111   4.731   2.077   0.976 -1.2316 -0.5440  1.0292
   49DG      H8 1112   4.770   2.247   1.031 -1.2815 -1.2548  0.5197
   49DG      O9 1113   4.749   1.573   1.412 -0.2186  0.1060 -0.2483
   49DG     O10 1114   4.859   2.076   1.123  0.2393  0.4518  0.8869
   49DG     C11 1115   4.850   1.655   1.474  0.0954  0.0556 -0.1137
   49DG     C12 1116   4.943   1.965   1.092 -0.8601  0.3190  0.3835
   49DG     H13 1117   4.915   1.593   1.536  0.3448  0.9025  0.5006
   49DG     H14 1118   4.797   1.731   1.532  1.9752  0.0472  1.7849
   49DG     H15 1119   5.031   1.991   1.035 -1.3971  3.3839  0.8012
   49DG     H16 1120   4.901   1.889   1.025 -0.4576  1.1655 -0.8546
   49DG     C17 1121   4.954   1.731   1.385  0.6742 -0.1045 -0.6774
   49DG     C18 1122   4.997   1.883   1.208 -0.7999  0.5234 -0.8242
   49DG     O19 1123   4.899   1.811   1.278  0.5152 -0.1173 -0.4248
   49DG     H20 1124   5.028   1.667   1.337 -0.9283  0.8866 -4.9338
   49DG     H21 1125   5.015   1.788   1.455  0.7432 -0.7665 -0.1892
   49DG     H22 1126   5.080   1.827   1.164  0.2316  1.0536  0.3747
   49DG     H23 1127   5.034   1.959   1.277 -0.3032 -0.5343  0.0990
   50DG      C1 1128   1.372   2.881   2.232  0.3923 -0.4269 -0.5994
   50DG      C2 1129   1.227   2.290   1.697  0.6577  0.0394  0.0911
   50DG      H3 1130   1.378   2.989   2.241  0.7557 -0.5773  1.3380
   50DG      H4 1131   1.458   2.840   2.285 -0.3640 -0.1858  0.8384
   50DG      H5 1132   1.294   2.844   2.298  1.3653  1.6719  1.8991
   50DG      H6 1133   1.146   2.298   1.769  0.8453  0.2828  0.2725
   50DG      H7 1134   1.185   2.242   1.608  0.5438 -0.8355  0.6059
   50DG      H8 1135   1.305   2.225   1.736  1.4723  0.7652 -0.2943
   50DG      O9 1136   1.358   2.834   2.099 -0.1148 -0.1716 -0.6069
   50DG     O10 1137   1.277   2.417   1.675 -0.4219 -0.1665 -0.1952
   50DG     C11 1138   1.449   2.893   2.000  0.5215  0.6279  0.4994
   50DG     C12 1139   1.328   2.482   1.791 -0.2615  0.0953  0.2884
   50DG     H13 1140   1.554   2.875   2.024  0.5331 -0.0535 -0.0421
   50DG     H14 1141   1.438   3.002   2.001 -0.2706  0.5748 -0.4087
   50DG     H15 1142   1.409   2.429   1.841  0.3175  1.8731  1.3098
   50DG     H16 1143   1.244   2.481   1.859  0.7204  0.6053  1.5454
   50DG     C17 1144   1.397   2.836   1.865  0.6170 -0.0283  0.3817
   50DG     C18 1145   1.361   2.628   1.745 -0.5173 -1.3955 -0.4827
   50DG     O19 1146   1.402   2.691   1.868  0.2422 -0.0760  0.0868
   50DG     H20 1147   1.465   2.848   1.781  0.2848 -0.4866  0.0454
   50DG     H21 1148   1.296   2.869   1.841  0.8588  0.6397  0.2685
   50DG     H22 1149   1.423   2.637   1.656 -1.7879  0.0532 -1.2924
   50DG     H23 1150   1.266   2.671   1.712 -0.1929 -2.4910 -2.9941
   51DG      C1 1151   2.184   4.946   3.381 -0.3598  0.4389  0.2416
   51DG      C2 1152   2.694   4.809   2.770 -0.2049 -0.6840  0.0407
   51DG      H3 1153   2.080   4.916   3.388 -0.1935 -0.1790  0.0701
   51DG      H4 1154   2.178   5.048   3.343  0.9489  0.7444  0.7893
   51DG      H5 1155   2.234   4.962   3.477  1.0053  0.3763 -0.4391
   51DG      H6 1156   2.678   4.881   2.689 -1.1130 -1.0006 -0.0782
   51DG      H7 1157   2.766   4.851   2.840  0.7910 -0.8433 -0.8595
   51DG      H8 1158   2.754   4.728   2.729  0.8053  0.1608 -0.2117
   51DG      O9 1159   2.260   4.863   3.286  0.6892  0.3401  0.0069
   51DG     O10 1160   2.576   4.767   2.834 -0.1262  0.2753  0.3301
   51DG     C11 1161   2.274   4.724   3.309  0.3344 -0.5336 -0.3288
   51DG     C12 1162   2.611   4.689   2.951  0.2928 -0.6551 -0.9083
   51DG     H13 1163   2.188   4.673   3.351 -1.2459  0.2023 -2.4461
   51DG     H14 1164   2.368   4.710   3.363 -0.2465 -1.0650  0.5555
   51DG     H15 1165   2.680   4.739   3.019  0.6638  0.1329 -1.8355
   51DG     H16 1166   2.654   4.593   2.923 -2.4037 -2.2105 -0.0742
   51DG     C17 1167   2.307   4.668   3.168  0.7284  0.3242  0.5265
   51DG     C18 1168   2.486   4.634   3.019  0.1566 -0.3509 -0.1001
   51DG     O19 1169   2.429   4.723   3.107  0.4417  0.3148 -0.4492
   51DG     H20 1170   2.223   4.679   3.100 -0.4944 -2.4193  1.4310
   51DG     H21 1171   2.310   4.560   3.186 -0.8640  0.1152 -0.3098
   51DG     H22 1172   2.417   4.619   2.936  2.1382 -1.1928 -1.6784
   51DG     H23 1173   2.505   4.543   3.075  0.0801 -0.1785  0.2071
   52DG      C1 1174   3.182   3.022   5.455  0.0586 -0.3045 -0.1311
   52DG      C2 1175   2.690   3.013   5.084 -0.8140  0.5094  0.3341
   52DG      H3 1176   3.237   3.100   5.508 -0.7393  0.7338 -0.7824
   52DG      H4 1177   3.251   2.986   5.379  1.4927  2.1919 -0.1494
   52DG      H5 1178   3.156   2.954   5.536  1.3493  0.8013  1.2828
   52DG      H6 1179   2.628   3.005   5.174  1.0888 -0.9349  1.5786
   52DG      H7 1180   2.748   3.103   5.103  2.0890 -1.1685 -0.0516
   52DG      H8 1181   2.627   3.037   4.998  0.5031 -0.0521 -0.8170
   52DG      O9 1182   3.070   3.087   5.398  0.6734  0.2077 -0.2418
   52DG     O10 1183   2.778   2.903   5.061  0.9691 -0.6546 -0.0354
   52DG     C11 1184   3.112   3.186   5.299  0.0571 -0.2999 -0.6331
   52DG     C12 1185   2.871   2.938   4.961  0.6926 -0.3849 -0.2524
   52DG     H13 1186   3.201   3.245   5.319  0.4683 -0.5031 -1.7440
   52DG     H14 1187   3.032   3.259   5.285  1.8340  2.0955  0.8412
   52DG     H15 1188   2.849   3.024   4.897 -0.4529  0.4178  1.1622
   52DG     H16 1189   2.876   2.868   4.878 -1.0214  0.6958 -1.3357
   52DG     C17 1190   3.121   3.124   5.159  0.0483  0.1849  0.2578
   52DG     C18 1191   3.006   2.966   5.031 -0.8133 -0.2197 -0.0871
   52DG     O19 1192   2.989   3.079   5.125 -0.3839 -0.2669 -0.1717
   52DG     H20 1193   3.202   3.052   5.145 -1.3592 -1.0268 -2.5173
   52DG     H21 1194   3.128   3.204   5.086 -1.4584 -0.1115 -0.2404
   52DG     H22 1195   3.038   2.872   5.076  0.1768  0.3487  0.4340
   52DG     H23 1196   3.074   2.986   4.949 -0.1416 -0.7667  0.3292
   53DG      C1 1197   4.631   0.908   2.355  0.1629  0.3829  0.1726
   53DG      C2 1198   4.798   0.237   2.472 -0.2377 -0.0050  0.1004
   53DG      H3 1199   4.683   0.889   2.261  1.4464 -1.1538  1.1411
   53DG      H4 1200   4.635   1.016   2.369 -0.4360  0.6107 -1.2324
   53DG      H5 1201   4.528   0.875   2.344  0.2370  0.5906 -1.4933
   53DG      H6 1202   4.847   0.176   2.547  1.0837  1.2680  0.3227
   53DG      H7 1203   4.692   0.213   2.475 -0.6573  1.6964 -0.1017
   53DG      H8 1204   4.843   0.209   2.376 -0.5337  1.1899 -0.4061
   53DG      O9 1205   4.684   0.839   2.464 -0.1337  0.2684 -0.2723
   53DG     O10 1206   4.813   0.376   2.506 -0.3274  0.5831 -0.9582
   53DG     C11 1207   4.822   0.869   2.476 -0.4958  0.2618  0.1116
   53DG     C12 1208   4.941   0.416   2.530  0.0495 -0.7113  0.2533
   53DG     H13 1209   4.837   0.968   2.518  0.4798  1.1402 -2.1425
   53DG     H14 1210   4.874   0.871   2.380  1.4569  0.6495  1.1145
   53DG     H15 1211   4.973   0.422   2.426 -1.3007 -2.3045 -0.2954
   53DG     H16 1212   5.007   0.344   2.579  0.8484 -1.1010 -1.3496
   53DG     C17 1213   4.884   0.773   2.580 -0.2072  0.4582  0.4121
   53DG     C18 1214   4.940   0.548   2.607 -0.4685 -0.4478  0.4781
   53DG     O19 1215   4.856   0.634   2.540  0.3647 -0.7958  0.4061
   53DG     H20 1216   4.853   0.801   2.681  2.4074  2.8267  0.6915
   53DG     H21 1217   4.992   0.785   2.578 -0.0359 -0.6367 -3.3697
   53DG     H22 1218   4.904   0.532   2.708 -1.3174  0.3531  0.3121
   53DG     H23 1219   5.044   0.578   2.617 -0.7175  1.2492 -1.3464
   54DG      C1 1220   2.703   3.607   3.523 -0.1480  0.3001  0.3779
   54DG      C2 1221   2.455   3.756   4.033 -0.0659 -0.3281  0.2570
   54DG      H3 1222   2.660   3.547   3.443 -0.6686  0.0804  0.8205
   54DG      H4 1223   2.699   3.714   3.506 -1.7564  0.0873 -0.7925
   54DG      H5 1224   2.644   3.590   3.613 -0.2703  1.6758  0.5752
   54DG      H6 1225   2.382   3.685   4.072  0.4511  0.2528  2.4334
   54DG      H7 1226   2.492   3.821   4.112  0.5311 -1.5135  0.9734
   54DG      H8 1227   2.403   3.824   3.965  0.1996  0.7243  1.0893
   54DG      O9 1228   2.845   3.588   3.542 -0.0392 -0.0913 -0.3470
   54DG     O10 1229   2.556   3.690   3.954  0.2316 -0.6582 -0.1980
   54DG     C11 1230   2.904   3.660   3.646  0.0338 -0.3196  0.0399
   54DG     C12 1231   2.657   3.646   4.042 -0.2782 -0.1183 -0.1098
   54DG     H13 1232   2.883   3.767   3.650 -2.8859 -0.7557 -1.2134
   54DG     H14 1233   3.012   3.659   3.628 -0.1425  0.8016 -1.1672
   54DG     H15 1234   2.615   3.598   4.130 -1.4100  2.2289  0.7054
   54DG     H16 1235   2.705   3.732   4.090  0.5956 -0.6678  0.0387
   54DG     C17 1236   2.902   3.607   3.783  0.3462 -0.4201  0.1998
   54DG     C18 1237   2.757   3.561   3.963  0.3299  0.0059  0.4355
   54DG     O19 1238   2.772   3.614   3.830 -0.3607 -0.0156 -0.5525
   54DG     H20 1239   2.968   3.661   3.850  0.8666  1.4113 -1.6733
   54DG     H21 1240   2.948   3.508   3.779 -2.9955 -2.1173 -4.1404
   54DG     H22 1241   2.851   3.564   4.018 -0.4585 -0.5156  1.8519
   54DG     H23 1242   2.720   3.461   3.944  1.7248 -0.3809 -0.4056
   55DG      C1 1243   0.562   0.311   4.084  0.2651  0.4091 -0.2731
   55DG      C2 1244   1.252   0.300   4.326 -0.6069 -0.0002  0.6437
   55DG      H3 1245   0.557   0.420   4.082  0.4927  0.4445  0.5903
   55DG      H4 1246   0.537   0.270   4.182  1.4426  1.5906  0.5690
   55DG      H5 1247   0.491   0.270   4.012 -0.0532  0.4420  0.0184
   55DG      H6 1248   1.242   0.266   4.429 -0.5501 -0.6766  0.4340
   55DG      H7 1249   1.351   0.268   4.295  0.6144  1.3869  2.8372
   55DG      H8 1250   1.259   0.409   4.325 -1.5635  0.0791 -0.7116
   55DG      O9 1251   0.706   0.272   4.061 -0.2510 -0.4200 -0.1225
   55DG     O10 1252   1.157   0.252   4.231  0.0944  0.1586  0.3067
   55DG     C11 1253   0.705   0.132   4.029  0.0101  0.1368  0.2322
   55DG     C12 1254   1.149   0.112   4.218  0.1079 -0.5531  0.5897
   55DG     H13 1255   0.637   0.119   3.945 -1.9092 -1.6156  1.9416
   55DG     H14 1256   0.664   0.075   4.112  2.0919 -1.0316  0.5229
   55DG     H15 1257   1.120   0.062   4.311  3.2430 -1.2736  1.3013
   55DG     H16 1258   1.253   0.083   4.201  0.3582  1.2429 -1.4144
   55DG     C17 1259   0.853   0.098   4.001 -0.7796 -0.7701  0.3866
   55DG     C18 1260   1.058   0.079   4.105 -0.6061  0.1547 -0.3407
   55DG     O19 1261   0.929   0.133   4.115 -0.1229 -0.1181  0.1173
   55DG     H20 1262   0.888   0.154   3.914 -0.1696 -0.5333  0.7740
   55DG     H21 1263   0.848  -0.006   3.969  0.0731 -0.9727  0.8762
   55DG     H22 1264   1.113   0.104   4.014  3.0024 -2.4606  0.8561
   55DG     H23 1265   1.061  -0.029   4.092  1.6970  0.1856 -0.5665
   56DG      C1 1266   4.948   4.486   4.762 -0.1157 -0.0628  0.1865
   56DG      C2 1267   4.604   3.888   4.692  0.4511 -0.3080 -0.2909
   56DG      H3 1268   5.013   4.399   4.757  1.7173  1.2866 -0.6727
   56DG      H4 1269   4.914   4.495   4.865  1.0699  2.3077  0.4451
   56DG      H5 1270   5.010   4.572   4.738  1.4812 -0.6269  2.0048
   56DG      H6 1271   4.601   3.845   4.592  0.1835  1.2601 -0.9928
   56DG      H7 1272   4.694   3.863   4.748 -0.3030 -0.4607  0.8872
   56DG      H8 1273   4.518   3.846   4.745 -0.7633 -1.9669 -3.3228
   56DG      O9 1274   4.825   4.486   4.691  0.0918  0.2728 -0.1008
   56DG     O10 1275   4.574   4.028   4.699 -0.6126 -0.0779 -0.5419
   56DG     C11 1276   4.840   4.489   4.552  0.3343  0.3175  0.2764
   56DG     C12 1277   4.633   4.103   4.592 -0.4996  0.5690 -0.0830
   56DG     H13 1278   4.909   4.407   4.530  1.9381  0.7498  3.2442
   56DG     H14 1279   4.875   4.586   4.517  0.7657 -0.3937 -1.3397
   56DG     H15 1280   4.617   4.056   4.495  2.9150  0.6398 -0.8033
   56DG     H16 1281   4.742   4.104   4.596 -0.3239  2.3503 -2.9514
   56DG     C17 1282   4.704   4.449   4.490 -0.0827 -0.4942  0.8479
   56DG     C18 1283   4.606   4.262   4.598  0.0703  0.3432  0.7129
   56DG     O19 1284   4.676   4.306   4.486 -0.2433 -0.6283  0.1654
   56DG     H20 1285   4.694   4.491   4.390 -0.3182 -0.3335  0.9364
   56DG     H21 1286   4.616   4.500   4.530 -1.6533 -1.7288 -0.8408
   56DG     H22 1287   4.503   4.295   4.596 -0.5488 -1.4549  0.8279
   56DG     H23 1288   4.641   4.293   4.697  1.8454 -0.2168  0.3114
   57DG      C1 1289   4.944   4.430   2.533  0.8260 -0.4621 -0.4278
   57DG      C2 1290   4.525   5.142   2.568  0.0383 -0.6472  0.1959
   57DG      H3 1291   4.895   4.412   2.437  2.2873 -1.0924 -1.0806
   57DG      H4 1292   4.914   4.336   2.580  2.0771 -1.1434 -0.9422
   57DG      H5 1293   5.049   4.414   2.511  0.3169 -1.6625 -2.2937
   57DG      H6 1294   4.502   5.180   2.468  1.7786  1.4226  0.5178
   57DG      H7 1295   4.458   5.059   2.591 -1.9166  0.9580  0.5315
   57DG      H8 1296   4.517   5.222   2.641 -1.7486 -0.6533  0.0447
   57DG      O9 1297   4.904   4.548   2.600  0.0974  0.2628  0.2185
   57DG     O10 1298   4.656   5.088   2.576  0.0650 -0.4379 -0.3960
   57DG     C11 1299   4.970   4.664   2.548  0.2420 -0.1296 -0.2558
   57DG     C12 1300   4.697   5.045   2.705  0.1210  0.6752 -0.3865
   57DG     H13 1301   4.949   4.687   2.443 -0.5668 -0.0855 -0.0858
   57DG     H14 1302   5.077   4.644   2.554  0.3957  0.6694 -0.1351
   57DG     H15 1303   4.617   4.980   2.742 -1.3494  1.4903 -1.9639
   57DG     H16 1304   4.694   5.128   2.774 -2.6942  0.4531 -0.1305
   57DG     C17 1305   4.951   4.785   2.640 -0.1675 -0.2704  0.7405
   57DG     C18 1306   4.832   4.974   2.707  0.2186  0.1933  0.4048
   57DG     O19 1307   4.824   4.851   2.635 -0.3488  0.5372 -0.3494
   57DG     H20 1308   5.038   4.846   2.617  0.9562 -2.3758 -0.9220
   57DG     H21 1309   4.963   4.744   2.741  0.0353 -0.4860  0.6307
   57DG     H22 1310   4.907   5.036   2.658  0.1417  0.4258  0.5788
   57DG     H23 1311   4.862   4.945   2.808 -1.5319 -1.0116  0.6371
   58DG      C1 1312   2.203   2.864   3.528 -0.0930 -0.3763 -0.1558
   58DG      C2 1313   1.538   2.994   3.719 -0.5536 -0.7752  0.0520
   58DG      H3 1314   2.217   2.781   3.598  0.5520  0.0307  0.2093
   58DG      H4 1315   2.206   2.952   3.592  0.5632  0.6670 -1.5605
   58DG      H5 1316   2.284   2.871   3.455 -2.2011  0.1180 -2.5867
   58DG      H6 1317   1.435   2.989   3.683 -0.8772  0.9987  0.6154
   58DG      H7 1318   1.552   2.916   3.794  0.9966 -0.6068 -0.0450
   58DG      H8 1319   1.550   3.089   3.771  0.8181 -0.4596 -0.8032
   58DG      O9 1320   2.081   2.843   3.464  0.0124  0.4914 -0.1054
   58DG     O10 1321   1.613   2.988   3.599 -0.5806 -0.3334  0.0310
   58DG     C11 1322   2.052   2.955   3.381  0.4028 -0.1745 -0.0968
   58DG     C12 1323   1.584   2.868   3.535  0.7027  0.0515 -0.3137
   58DG     H13 1324   2.109   2.959   3.288 -1.3667 -0.4187 -1.2315
   58DG     H14 1325   2.057   3.046   3.442 -0.3894 -0.3345  0.2241
   58DG     H15 1326   1.483   2.845   3.502  0.9135  0.8141 -1.5706
   58DG     H16 1327   1.607   2.786   3.602  0.4792  1.4486  1.5480
   58DG     C17 1328   1.908   2.929   3.327 -0.0236 -0.0659  0.0351
   58DG     C18 1329   1.683   2.871   3.412  0.3985  0.2320 -0.2318
   58DG     O19 1330   1.813   2.918   3.438 -0.0263 -0.2431  0.6541
   58DG     H20 1331   1.922   2.836   3.272  0.3397  0.7592 -1.3194
   58DG     H21 1332   1.873   3.007   3.260  1.0141 -0.4497 -0.9750
   58DG     H22 1333   1.690   2.767   3.379  0.8515 -0.1955  1.1276
   58DG     H23 1334   1.642   2.941   3.339  1.1168  0.5147 -0.3768
   59DG      C1 1335   2.090   4.011   0.258  0.0379 -0.1675 -0.8211
   59DG      C2 1336   1.879   4.261  -0.331 -0.3004 -0.6819 -0.0089
   59DG      H3 1337   2.183   4.050   0.216 -1.0317  0.8581 -2.3447
   59DG      H4 1338   2.115   3.906   0.272  0.2301  0.2481  3.0612
   59DG      H5 1339   2.088   4.069   0.350  2.0160  1.3022 -1.6214
   59DG      H6 1340   1.813   4.244  -0.416  0.0113 -2.0772  0.0018
   59DG      H7 1341   1.924   4.361  -0.333  1.1527 -1.3048 -0.2010
   59DG      H8 1342   1.974   4.208  -0.341  0.0059  0.1391 -2.0767
   59DG      O9 1343   1.983   4.038   0.164  0.0065  0.5220  0.5917
   59DG     O10 1344   1.824   4.214  -0.209  0.4296 -0.0372 -0.0229
   59DG     C11 1345   1.866   3.984   0.212  0.3372 -0.5201  0.5463
   59DG     C12 1346   1.763   4.087  -0.223 -0.0576 -0.1547  0.1558
   59DG     H13 1347   1.845   4.007   0.316  0.8288 -1.5302  0.8851
   59DG     H14 1348   1.862   3.876   0.202  0.3990 -0.6255  1.5280
   59DG     H15 1349   1.839   4.009  -0.233 -0.3874 -0.5382  0.6149
   59DG     H16 1350   1.697   4.087  -0.310 -0.9351 -3.2401  0.7073
   59DG     C17 1351   1.752   4.044   0.126 -0.1893 -0.5750  0.4186
   59DG     C18 1352   1.681   4.060  -0.097  0.0753 -0.3467 -0.0862
   59DG     O19 1353   1.776   4.008  -0.008  0.0233 -0.0951  0.9330
   59DG     H20 1354   1.727   4.148   0.147 -0.1304 -0.8048  1.7423
   59DG     H21 1355   1.663   3.995   0.165 -1.1694 -0.2856 -1.3388
   59DG     H22 1356   1.639   4.155  -0.063  0.7809  0.0383 -0.2569
   59DG     H23 1357   1.601   3.988  -0.114  0.9404 -1.5125  0.6161
   60DG      C1 1358   4.973   0.834   0.919  0.1567  0.0579  0.1607
   60DG      C2 1359   5.317   0.383   1.123  0.0153 -0.7661 -0.1349
   60DG      H3 1360   4.996   0.903   0.837 -1.6514  2.7757  1.7818
   60DG      H4 1361   4.885   0.872   0.970  0.0540  0.7510 -0.5085
   60DG      H5 1362   4.937   0.741   0.875  0.2181 -0.2029  0.6504
   60DG      H6 1363   5.390   0.325   1.179 -1.0553 -2.1887 -0.1745
   60DG      H7 1364   5.230   0.380   1.189 -0.2746  1.9689 -0.2693
   60DG      H8 1365   5.311   0.318   1.036  0.3610 -1.7044  0.5301
   60DG      O9 1366   5.082   0.826   1.009  0.2158 -0.2571  0.0522
   60DG     O10 1367   5.360   0.517   1.087 -0.6332 -0.3610  0.8565
   60DG     C11 1368   5.170   0.938   1.007  1.0345 -0.5306  0.1978
   60DG     C12 1369   5.379   0.597   1.199 -0.0029 -0.0897  0.3141
   60DG     H13 1370   5.114   1.027   1.035 -2.4416 -1.9029 -1.7607
   60DG     H14 1371   5.211   0.956   0.908  0.9841  0.0121  0.2736
   60DG     H15 1372   5.457   0.552   1.260  1.1252  0.1156 -0.9329
   60DG     H16 1373   5.299   0.594   1.273 -1.1159 -0.2632 -0.8729
   60DG     C17 1374   5.283   0.919   1.106 -0.3815  0.3916  0.0505
   60DG     C18 1375   5.429   0.739   1.170 -0.3213 -0.4715  0.3041
   60DG     O19 1376   5.336   0.789   1.078  0.0963 -0.4633  0.1268
   60DG     H20 1377   5.237   0.905   1.203 -1.8293 -1.5992 -0.8602
   60DG     H21 1378   5.354   1.003   1.111 -0.9509  0.8208  1.3417
   60DG     H22 1379   5.426   0.794   1.264  0.7639  0.2980 -0.0835
   60DG     H23 1380   5.530   0.742   1.129 -1.1197 -2.7723 -2.1027
   61DG      C1 1381   3.581   4.418   4.987  0.6137 -0.9597  0.0113
   61DG      C2 1382   3.195   4.358   5.488  0.3394 -0.1807 -0.0745
   61DG      H3 1383   3.540   4.515   4.957  1.2422 -0.4237  0.8145
   61DG      H4 1384   3.506   4.343   4.961 -0.3132  0.7413 -2.5910
   61DG      H5 1385   3.671   4.394   4.932 -0.4845  0.0655 -2.3796
   61DG      H6 1386   3.179   4.256   5.452  0.8942  0.1993 -1.4790
   61DG      H7 1387   3.149   4.376   5.585  1.9573  2.3683  0.2972
   61DG      H8 1388   3.147   4.431   5.422  1.2083 -0.5314 -1.1358
   61DG      O9 1389   3.620   4.424   5.124  0.2467 -0.4714 -0.4061
   61DG     O10 1390   3.337   4.378   5.490 -0.4796 -0.1115  0.0247
   61DG     C11 1391   3.671   4.304   5.178  0.1766 -0.7904  0.0828
   61DG     C12 1392   3.413   4.273   5.552  0.9663 -0.2775  0.3782
   61DG     H13 1393   3.762   4.278   5.123 -0.0308 -1.3477 -0.0085
   61DG     H14 1394   3.600   4.224   5.157 -1.0275  0.3863 -0.4613
   61DG     H15 1395   3.389   4.176   5.509  0.9693 -0.8231  1.5822
   61DG     H16 1396   3.395   4.255   5.658 -1.1886 -1.0072 -0.0563
   61DG     C17 1397   3.693   4.319   5.325  0.3835 -0.6710 -0.0727
   61DG     C18 1398   3.556   4.291   5.513 -0.4094  0.4265 -0.1932
   61DG     O19 1399   3.561   4.325   5.381 -0.5276  0.0696  0.2073
   61DG     H20 1400   3.753   4.405   5.355  0.3969  0.2124 -2.4473
   61DG     H21 1401   3.754   4.232   5.346  1.3043 -0.5736 -2.1039
   61DG     H22 1402   3.612   4.366   5.569  0.5248 -0.9498  0.7682
   61DG     H23 1403   3.604   4.195   5.530  1.8408  1.6662  0.8991
   62DG      C1 1404   0.749   4.153   4.500  0.0360  0.6173  0.0020
   62DG      C2 1405   0.671   3.694   4.037  0.3128 -0.6231 -0.4389
   62DG      H3 1406   0.853   4.154   4.469  0.7917  2.5897  2.2169
   62DG      H4 1407   0.753   4.085   4.585 -1.0924  0.4398 -0.0717
   62DG      H5 1408   0.742   4.257   4.535 -0.0421  0.2733  1.0385
   62DG      H6 1409   0.772   3.735   4.046 -0.7709  1.9260  1.1478
   62DG      H7 1410   0.663   3.605   4.100  0.3643 -1.6915 -1.8823
   62DG      H8 1411   0.652   3.651   3.939  0.4574  1.2977 -1.3602
   62DG      O9 1412   0.660   4.124   4.400  0.0338 -0.2615  0.2360
   62DG     O10 1413   0.594   3.809   4.070 -0.3531 -0.1040  0.3383
   62DG     C11 1414   0.530   4.112   4.454  0.1140 -0.2131 -0.2739
   62DG     C12 1415   0.458   3.782   4.100 -0.8034  0.0414  0.7900
   62DG     H13 1416   0.505   4.204   4.506 -0.3940 -0.2502 -0.4514
   62DG     H14 1417   0.513   4.035   4.529  2.2209 -0.0197  0.4856
   62DG     H15 1418   0.454   3.713   4.185 -1.8602 -0.5865  0.2583
   62DG     H16 1419   0.406   3.755   4.008 -0.6077  3.4534 -0.4488
   62DG     C17 1420   0.428   4.066   4.347  0.2401 -0.5170 -0.4750
   62DG     C18 1421   0.390   3.906   4.166 -0.3027 -0.1321 -0.4998
   62DG     O19 1422   0.470   3.942   4.281  0.0929  0.2124 -0.5374
   62DG     H20 1423   0.420   4.139   4.266 -2.9339 -0.8423 -0.5714
   62DG     H21 1424   0.329   4.049   4.391  0.9051  0.7768  1.6808
   62DG     H22 1425   0.364   3.993   4.106  0.2894  0.0659 -0.4783
   62DG     H23 1426   0.294   3.874   4.208  0.5684 -1.8886  0.2648
   63DG      C1 1427   4.850   4.369   3.998 -0.1665 -0.5732 -0.3723
   63DG      C2 1428   5.173   4.881   3.420  0.2230  0.5714 -0.7960
   63DG      H3 1429   4.940   4.364   4.059  0.4165 -2.3974 -1.3010
   63DG      H4 1430   4.774   4.293   4.019  2.0179 -2.7122  0.3097
   63DG      H5 1431   4.805   4.468   4.006  2.6388  1.1355 -3.2558
   63DG      H6 1432   5.105   4.966   3.412  1.2573  1.5359  0.1742
   63DG      H7 1433   5.232   4.888   3.511 -2.0154 -1.0022  0.8946
   63DG      H8 1434   5.245   4.881   3.338 -1.2411 -1.5513 -2.1720
   63DG      O9 1435   4.913   4.365   3.871 -0.1139  0.0520  0.3521
   63DG     O10 1436   5.108   4.755   3.410  0.1705  0.2832 -0.1192
   63DG     C11 1437   4.811   4.363   3.761  0.0662  0.5299  0.0499
   63DG     C12 1438   5.064   4.708   3.535 -0.0930 -0.4662 -0.2888
   63DG     H13 1439   4.738   4.439   3.788  0.2161  0.4344  0.7467
   63DG     H14 1440   4.763   4.265   3.758  2.6961 -0.8399 -0.5243
   63DG     H15 1441   4.986   4.772   3.577 -0.5359 -2.2471  1.8259
   63DG     H16 1442   5.138   4.698   3.615 -1.0239  3.4089  1.3018
   63DG     C17 1443   4.871   4.406   3.631  0.4324  0.1146  0.1806
   63DG     C18 1444   4.991   4.569   3.505  0.0306 -0.4116 -0.7557
   63DG     O19 1445   4.944   4.530   3.632 -0.3468 -0.0370 -0.1537
   63DG     H20 1446   4.787   4.411   3.561  0.2115  1.4129  0.5122
   63DG     H21 1447   4.945   4.335   3.595  0.6104  0.2305  0.3228
   63DG     H22 1448   4.908   4.583   3.436 -1.0608  0.2511  0.6378
   63DG     H23 1449   5.063   4.502   3.458  0.0907 -2.2259  1.7664
   64DG      C1 1450   2.999   4.784   1.485 -0.7821 -0.2880 -0.1564
   64DG      C2 1451   3.497   4.321   1.218  0.8698  0.4434 -0.4981
   64DG      H3 1452   2.893   4.797   1.507 -0.7015 -1.1258  0.7904
   64DG      H4 1453   3.040   4.853   1.412 -2.7230  0.4348 -0.6201
   64DG      H5 1454   3.057   4.799   1.576  2.0040 -1.8747 -1.5603
   64DG      H6 1455   3.510   4.214   1.202 -0.7681  0.2253 -0.5176
   64DG      H7 1456   3.546   4.377   1.137  1.7485 -0.8773 -0.9028
   64DG      H8 1457   3.554   4.358   1.303  2.3078  0.0637 -1.2491
   64DG      O9 1458   3.030   4.648   1.453 -1.0085 -0.7215 -0.4683
   64DG     O10 1459   3.363   4.351   1.228  0.3212  0.2279 -0.2350
   64DG     C11 1460   2.966   4.605   1.330 -0.4920  0.2028  0.2798
   64DG     C12 1461   3.305   4.280   1.338  0.4176  0.7121 -0.1314
   64DG     H13 1462   3.019   4.644   1.243 -0.3413 -0.4535  0.0695
   64DG     H14 1463   2.862   4.632   1.314 -0.0682  2.1318  0.6314
   64DG     H15 1464   3.340   4.332   1.427  1.5280 -0.6867  0.2849
   64DG     H16 1465   3.337   4.176   1.332  0.7425  0.6090  2.5117
   64DG     C17 1466   2.978   4.453   1.317  0.0992 -0.3059 -0.7050
   64DG     C18 1467   3.153   4.284   1.334 -0.1713 -0.3977 -0.3158
   64DG     O19 1468   3.121   4.423   1.304  0.0837  0.8816 -0.5080
   64DG     H20 1469   2.927   4.407   1.233 -1.2097  2.0951 -1.3183
   64DG     H21 1470   2.942   4.408   1.409  0.3437  0.1128 -0.4007
   64DG     H22 1471   3.119   4.221   1.251 -2.1481 -0.4742  0.4867
   64DG     H23 1472   3.109   4.250   1.428  0.2402  0.5831  0.2371
   65DG      C1 1473   2.394   5.240   1.542 -0.3210 -0.0518  0.0491
   65DG      C2 1474   2.796   5.485   0.856  0.2210  0.5658  0.3161
   65DG      H3 1475   2.409   5.136   1.517  0.1480  0.0372 -0.0506
   65DG      H4 1476   2.290   5.248   1.574 -0.3778 -1.9228  0.4198
   65DG      H5 1477   2.464   5.270   1.620 -0.3474 -0.5711  0.2721
   65DG      H6 1478   2.771   5.537   0.764 -2.3746  1.8264  1.6013
   65DG      H7 1479   2.889   5.526   0.895  0.3129 -0.5081  1.2774
   65DG      H8 1480   2.790   5.380   0.828 -1.3381  0.2168  1.7573
   65DG      O9 1481   2.415   5.320   1.427  0.6682  0.2742 -0.4433
   65DG     O10 1482   2.685   5.534   0.937  0.3183 -0.3481 -0.0523
   65DG     C11 1483   2.379   5.456   1.446 -0.5617  0.9397 -0.0996
   65DG     C12 1484   2.685   5.482   1.066  0.4420  0.1871 -0.1184
   65DG     H13 1485   2.448   5.491   1.523  3.0580 -1.1122 -2.1448
   65DG     H14 1486   2.278   5.464   1.485  0.3887 -1.4735  3.3163
   65DG     H15 1487   2.772   5.509   1.127  0.2144 -1.2105  0.8740
   65DG     H16 1488   2.686   5.373   1.066 -1.0347  0.1400  1.6944
   65DG     C17 1489   2.403   5.521   1.305 -0.1082  0.0055  1.2064
   65DG     C18 1490   2.551   5.537   1.115  0.7415  0.2940 -0.2510
   65DG     O19 1491   2.534   5.489   1.250 -0.3819 -0.4537  0.0240
   65DG     H20 1492   2.382   5.628   1.302 -0.6554 -0.1194 -0.9928
   65DG     H21 1493   2.321   5.485   1.244 -0.7041  0.0940  1.9412
   65DG     H22 1494   2.545   5.645   1.123  3.3142  0.6477 -1.9705
   65DG     H23 1495   2.463   5.508   1.058  1.0963 -1.3947 -0.0044
   66DG      C1 1496   3.041   5.328   3.083  0.0202  0.2987 -0.2525
   66DG      C2 1497   3.539   5.149   3.491  0.0928  0.5706 -0.1320
   66DG      H3 1498   3.115   5.321   3.164 -1.4664 -1.9100  1.0192
   66DG      H4 1499   2.954   5.275   3.120 -1.8948  3.5146  0.2607
   66DG      H5 1500   3.012   5.433   3.086 -2.2004 -0.1745 -2.2279
   66DG      H6 1501   3.559   5.255   3.509  2.0632  0.2082 -0.0445
   66DG      H7 1502   3.449   5.113   3.541 -0.5858  1.4563 -0.6833
   66DG      H8 1503   3.619   5.087   3.531  0.8643  1.7139  0.1356
   66DG      O9 1504   3.093   5.281   2.957  0.3136 -0.2818 -0.1600
   66DG     O10 1505   3.529   5.132   3.350  0.6202  0.1138 -0.5549
   66DG     C11 1506   3.208   5.348   2.905  0.3039  0.2763  0.5470
   66DG     C12 1507   3.434   5.220   3.297  0.3918  0.3302 -0.0862
   66DG     H13 1508   3.204   5.455   2.924 -2.4312  0.7061 -1.7326
   66DG     H14 1509   3.205   5.350   2.796  1.4368  1.3693  0.5117
   66DG     H15 1510   3.454   5.318   3.341 -0.8964  0.3897  0.4428
   66DG     H16 1511   3.333   5.196   3.332  0.3951 -0.9334 -0.8745
   66DG     C17 1512   3.331   5.278   2.956 -0.4335 -0.2729  0.3305
   66DG     C18 1513   3.443   5.215   3.143 -0.3820  0.4021  0.1975
   66DG     O19 1514   3.339   5.296   3.098  0.3717 -0.2038  0.3270
   66DG     H20 1515   3.425   5.308   2.910  0.2928 -0.2884  1.7482
   66DG     H21 1516   3.318   5.173   2.928  0.5576 -1.0781  2.6820
   66DG     H22 1517   3.540   5.235   3.100 -0.6282  0.5776 -0.2772
   66DG     H23 1518   3.411   5.114   3.117  1.4936 -0.1226 -0.1757
   67DG      C1 1519   0.677   3.833   4.977  0.1222 -0.7165  0.5894
   67DG      C2 1520   0.600   3.532   4.549 -0.2712 -0.1503  0.5270
   67DG      H3 1521   0.711   3.775   5.063  0.3864 -2.1737 -0.4639
   67DG      H4 1522   0.764   3.859   4.917  0.4816  1.2878  1.8565
   67DG      H5 1523   0.617   3.769   4.913  1.6058 -1.9792  0.4093
   67DG      H6 1524   0.565   3.511   4.448  0.5994 -0.1357  0.2108
   67DG      H7 1525   0.693   3.589   4.537 -1.4681  1.8648  0.2502
   67DG      H8 1526   0.625   3.435   4.590 -0.6975 -0.0219  1.0942
   67DG      O9 1527   0.610   3.945   5.037  0.1474  0.1015  0.7572
   67DG     O10 1528   0.516   3.608   4.637  0.5246 -0.4242 -0.1565
   67DG     C11 1529   0.556   4.034   4.941 -0.0035 -0.2895  0.4111
   67DG     C12 1530   0.459   3.725   4.588 -0.5326 -0.4064  0.9611
   67DG     H13 1531   0.642   4.046   4.874  0.3723  0.5218  1.0131
   67DG     H14 1532   0.528   4.124   4.996  1.5496  0.0552  0.6882
   67DG     H15 1533   0.380   3.702   4.517  0.2478  2.2342 -0.9505
   67DG     H16 1534   0.532   3.787   4.536 -0.6596 -0.0789  1.1668
   67DG     C17 1535   0.433   3.977   4.861 -0.4014  0.0643 -0.2930
   67DG     C18 1536   0.395   3.807   4.702 -0.0868 -0.4658  0.7315
   67DG     O19 1537   0.487   3.904   4.751  0.2556 -0.0687 -0.2536
   67DG     H20 1538   0.368   4.058   4.827 -1.2411 -0.5907 -0.3027
   67DG     H21 1539   0.370   3.919   4.929 -1.2147  0.5482 -0.6107
   67DG     H22 1540   0.301   3.853   4.673  0.6530  1.2699  0.9340
   67DG     H23 1541   0.365   3.736   4.778 -1.0137 -0.9642 -0.0855
   68DG      C1 1542   2.551   2.090   4.775  0.3004  0.0550  0.2439
   68DG      C2 1543   2.415   2.389   3.986 -0.3729 -0.0867  0.4932
   68DG      H3 1544   2.484   2.165   4.816 -1.8235 -1.8642  0.5307
   68DG      H4 1545   2.633   2.080   4.846  1.1375  0.2643 -0.6694
   68DG      H5 1546   2.512   1.988   4.778 -0.9822  0.4947  4.0854
   68DG      H6 1547   2.379   2.288   4.000  0.8667 -0.1923  3.5851
   68DG      H7 1548   2.335   2.463   3.975 -0.9487 -0.9115 -1.2292
   68DG      H8 1549   2.459   2.381   3.886  0.1728 -0.4127  0.7585
   68DG      O9 1550   2.598   2.130   4.647  0.3090 -0.4731  0.4806
   68DG     O10 1551   2.521   2.408   4.082  0.3820  0.1878 -0.1164
   68DG     C11 1552   2.655   2.265   4.653  0.2240  0.6626 -0.2694
   68DG     C12 1553   2.482   2.369   4.210 -0.0837 -0.7843 -0.1047
   68DG     H13 1554   2.753   2.256   4.699  1.5145 -1.3456 -3.0925
   68DG     H14 1555   2.600   2.335   4.715 -0.2153 -0.2734  0.4220
   68DG     H15 1556   2.431   2.273   4.200 -0.2794 -0.6753 -0.1554
   68DG     H16 1557   2.422   2.436   4.271 -0.3128  0.2307 -1.3984
   68DG     C17 1558   2.690   2.315   4.514 -0.8012  0.2528 -0.4250
   68DG     C18 1559   2.609   2.351   4.292 -0.2470 -0.4390 -0.5018
   68DG     O19 1560   2.573   2.318   4.427  0.9576 -0.0459  0.0176
   68DG     H20 1561   2.754   2.236   4.474  0.5513  0.2674  1.5606
   68DG     H21 1562   2.743   2.410   4.509 -1.9556  0.9469  0.1079
   68DG     H22 1563   2.669   2.266   4.258  0.7961  0.1451 -0.1517
   68DG     H23 1564   2.678   2.434   4.285 -2.3975  1.5884  0.9196
   69DG      C1 1565   2.575   0.953   5.352 -0.8786  0.0347 -0.2613
   69DG      C2 1566   2.350   0.892   4.705  0.3561 -0.0909 -0.0060
   69DG      H3 1567   2.619   0.930   5.449 -0.1438  0.4751 -0.4838
   69DG      H4 1568   2.478   0.997   5.374 -0.3171  1.4506 -0.5339
   69DG      H5 1569   2.632   1.039   5.318 -1.1452  0.0183 -0.7641
   69DG      H6 1570   2.245   0.864   4.697 -0.7034  3.0708  1.0724
   69DG      H7 1571   2.350   1.000   4.723  0.3136 -0.3655  1.8138
   69DG      H8 1572   2.399   0.858   4.614  2.5653 -1.9239  1.7598
   69DG      O9 1573   2.573   0.849   5.252 -0.1779 -0.4616  0.4017
   69DG     O10 1574   2.412   0.833   4.819  0.1475  0.0450  0.2425
   69DG     C11 1575   2.473   0.752   5.275  0.5297 -0.5798 -0.4727
   69DG     C12 1576   2.412   0.694   4.809 -0.7520  0.8577  0.6000
   69DG     H13 1577   2.378   0.804   5.267  1.6681  1.2894 -3.1673
   69DG     H14 1578   2.497   0.713   5.374 -1.5841 -0.8071 -0.0143
   69DG     H15 1579   2.460   0.681   4.712  0.9797  0.0029  1.5355
   69DG     H16 1580   2.310   0.662   4.789 -0.2732  0.1722 -0.9282
   69DG     C17 1581   2.468   0.633   5.176 -0.3549  0.0606  0.3210
   69DG     C18 1582   2.476   0.619   4.933 -0.1003 -0.1003  0.3874
   69DG     O19 1583   2.462   0.701   5.050  0.2897 -0.0845  0.3937
   69DG     H20 1584   2.376   0.578   5.195 -0.7036 -0.4640 -2.4515
   69DG     H21 1585   2.552   0.565   5.189  0.7445  1.3251 -0.0432
   69DG     H22 1586   2.434   0.520   4.948 -0.8224  0.3714  1.6729
   69DG     H23 1587   2.581   0.603   4.909 -0.3593 -1.7592  0.2241
   70DG      C1 1588   2.913   0.734   3.935 -0.2291  0.1116 -0.9350
   70DG      C2 1589   3.707   0.433   4.079  0.0087  0.1677 -0.3356
   70DG      H3 1590   2.955   0.795   3.855  0.8248  0.3469 -0.2231
   70DG      H4 1591   2.857   0.797   4.004 -0.7854 -0.5262 -0.8007
   70DG      H5 1592   2.829   0.680   3.893 -0.1265 -1.5804  0.8948
   70DG      H6 1593   3.780   0.365   4.121  0.7667  0.7096 -0.7394
   70DG      H7 1594   3.687   0.420   3.972  2.5245 -1.0971 -0.7207
   70DG      H8 1595   3.753   0.532   4.088 -0.9673  0.9507 -2.9427
   70DG      O9 1596   3.001   0.650   4.008 -0.7947 -0.5009 -0.8089
   70DG     O10 1597   3.586   0.437   4.153  0.2808 -0.2939  0.3527
   70DG     C11 1598   3.078   0.721   4.106  0.5274  0.3854  0.3010
   70DG     C12 1599   3.485   0.508   4.087  0.2249 -0.2752  0.4989
   70DG     H13 1600   3.011   0.777   4.173  0.6963  0.1298  0.6876
   70DG     H14 1601   3.131   0.808   4.067 -0.9531  0.8108 -0.8701
   70DG     H15 1602   3.462   0.476   3.985 -2.4226  0.6207  0.7301
   70DG     H16 1603   3.513   0.613   4.076 -1.1526 -0.0861 -2.0148
   70DG     C17 1604   3.163   0.621   4.183  0.4641  0.4071  0.0395
   70DG     C18 1605   3.364   0.494   4.179  0.0689 -0.4617  0.4415
   70DG     O19 1606   3.272   0.582   4.105 -0.0492  0.4614 -0.3634
   70DG     H20 1607   3.103   0.538   4.221 -0.3770  1.8285  1.9686
   70DG     H21 1608   3.201   0.664   4.276 -1.5468  1.0995  0.6040
   70DG     H22 1609   3.330   0.391   4.183 -0.7190 -0.1921  1.0056
   70DG     H23 1610   3.399   0.536   4.274  1.0818  1.1391 -0.5887
   71DG      C1 1611   1.727   1.918   3.128 -0.8963  0.0452  0.2672
   71DG      C2 1612   2.219   2.049   3.845  0.7296 -1.0159  0.1776
   71DG      H3 1613   1.625   1.882   3.133 -0.6027 -0.5870  3.4739
   71DG      H4 1614   1.781   1.847   3.064  1.1856  2.3348 -0.7081
   71DG      H5 1615   1.735   2.014   3.076  0.6015 -2.0134 -3.7106
   71DG      H6 1616   2.299   2.013   3.780 -0.2036 -0.6883 -1.2051
   71DG      H7 1617   2.235   2.157   3.850  1.7445 -1.0187 -2.0412
   71DG      H8 1618   2.229   2.017   3.949  0.4033  0.7230  0.7870
   71DG      O9 1619   1.781   1.921   3.255  0.3077  0.0936  0.1150
   71DG     O10 1620   2.094   2.022   3.796  0.1205 -0.1055  0.3449
   71DG     C11 1621   1.918   1.956   3.252 -0.1858  0.4196 -0.3123
   71DG     C12 1622   2.070   2.049   3.660 -0.2678  0.0516  0.0567
   71DG     H13 1623   1.940   2.028   3.173 -1.4324  1.1301 -0.0494
   71DG     H14 1624   1.962   1.860   3.227  0.6300  0.5080  0.7485
   71DG     H15 1625   2.156   2.028   3.596  0.4060  1.4939  0.4448
   71DG     H16 1626   2.067   2.158   3.656  0.2589  0.1743  1.9529
   71DG     C17 1627   1.980   2.000   3.386  0.3447  0.5624 -0.6812
   71DG     C18 1628   1.940   1.969   3.622 -0.6995 -0.1745 -1.0933
   71DG     O19 1629   1.947   1.909   3.494  0.7512 -0.0401  0.3192
   71DG     H20 1630   1.946   2.102   3.407 -1.7419  0.3813 -2.7879
   71DG     H21 1631   2.089   2.004   3.387  0.4571 -1.5728  0.0871
   71DG     H22 1632   1.947   1.883   3.689  0.5028  0.2985 -0.5880
   71DG     H23 1633   1.850   2.028   3.637 -0.2725  0.0488  0.8500
   72DG      C1 1634   3.485   5.250   4.381 -1.2710  0.3453 -0.2613
   72DG      C2 1635   3.316   5.069   5.055  0.8823 -0.3682  0.1357
   72DG      H3 1636   3.379   5.275   4.378 -1.0877  1.1012 -0.9254
   72DG      H4 1637   3.513   5.167   4.316  0.6282  1.4352 -0.9448
   72DG      H5 1638   3.530   5.327   4.317  0.0886  0.0590  0.3063
   72DG      H6 1639   3.282   4.975   5.012 -0.9666  0.1156  0.4389
   72DG      H7 1640   3.340   5.057   5.160  1.2907  2.2980  0.4174
   72DG      H8 1641   3.227   5.132   5.046  0.8234 -0.5119 -0.3616
   72DG      O9 1642   3.532   5.263   4.516 -0.4306 -0.2314  0.8498
   72DG     O10 1643   3.419   5.111   4.977 -0.1783 -0.7065 -0.1823
   72DG     C11 1644   3.646   5.184   4.532 -0.1648  0.7161 -0.8845
   72DG     C12 1645   3.545   5.055   5.003  0.0405 -0.0308  0.2235
   72DG     H13 1646   3.729   5.212   4.467 -0.1188  0.4461 -0.9433
   72DG     H14 1647   3.613   5.085   4.499  1.9334 -1.0275  1.7560
   72DG     H15 1648   3.538   4.947   4.999  0.3144 -0.0292 -1.1608
   72DG     H16 1649   3.577   5.080   5.104  1.0460  0.4269 -0.1843
   72DG     C17 1650   3.695   5.182   4.680  0.1474 -0.0377  0.1331
   72DG     C18 1651   3.649   5.117   4.904 -0.1827 -0.4909  0.1360
   72DG     O19 1652   3.601   5.117   4.768  0.6760  0.6133 -0.0565
   72DG     H20 1653   3.705   5.286   4.711 -2.1047 -0.3288  2.1340
   72DG     H21 1654   3.796   5.142   4.685  0.7097  1.1984 -0.7398
   72DG     H22 1655   3.674   5.220   4.929  0.5640 -0.9439  1.3633
   72DG     H23 1656   3.741   5.061   4.917  0.4611  0.2324 -1.1992
   73DG      C1 1657   4.104   3.654   4.618  0.2391  0.2961  0.4487
   73DG      C2 1658   3.888   3.728   4.006  0.0772  0.2694 -0.5477
   73DG      H3 1659   4.043   3.742   4.641 -0.0875  1.3343 -3.6636
   73DG      H4 1660   4.190   3.657   4.685  0.1631  1.7875  0.5147
   73DG      H5 1661   4.047   3.563   4.637 -0.7906  0.6534 -0.8090
   73DG      H6 1662   3.869   3.689   3.906 -1.8023  0.3684 -0.2652
   73DG      H7 1663   3.826   3.666   4.070  0.4876  0.3515 -0.0655
   73DG      H8 1664   3.855   3.832   4.005 -0.3526  0.1356 -1.0293
   73DG      O9 1665   4.153   3.646   4.485 -0.0131  0.2181  0.0407
   73DG     O10 1666   4.020   3.703   4.047 -0.0913 -0.3023 -0.2091
   73DG     C11 1667   4.217   3.518   4.464 -0.0498 -0.8792 -1.1442
   73DG     C12 1668   4.075   3.575   4.014  0.2007 -0.2480  0.4236
   73DG     H13 1669   4.155   3.431   4.484  1.8509 -2.2020 -0.7720
   73DG     H14 1670   4.305   3.507   4.526 -0.5013  0.5267 -0.1942
   73DG     H15 1671   4.120   3.586   3.915  0.3204  2.0968  0.6916
   73DG     H16 1672   4.007   3.490   4.006  0.7123 -0.5359 -1.4967
   73DG     C17 1673   4.269   3.504   4.328 -0.2963  0.1808 -1.0599
   73DG     C18 1674   4.192   3.572   4.116 -0.0824  0.6030 -0.2953
   73DG     O19 1675   4.157   3.543   4.251  0.4395  0.5120  0.1956
   73DG     H20 1676   4.288   3.398   4.312 -0.3460  0.1564 -0.9562
   73DG     H21 1677   4.363   3.555   4.309 -0.5011  0.8268 -0.3838
   73DG     H22 1678   4.260   3.493   4.084 -1.8905 -1.2757  0.3065
   73DG     H23 1679   4.260   3.656   4.104  2.7911 -1.8268 -2.5489
   74DG      C1 1680   3.145   5.450   5.070 -0.8835 -0.0286  0.0471
   74DG      C2 1681   3.839   5.454   5.712  0.5098  0.0741  0.7278
   74DG      H3 1682   3.077   5.507   5.134 -0.2454  0.8760 -0.0571
   74DG      H4 1683   3.090   5.398   4.992 -0.9980  1.6479 -1.0311
   74DG      H5 1684   3.202   5.522   5.012  0.0748  0.9839  2.1232
   74DG      H6 1685   3.791   5.489   5.803  1.3534  0.1972  1.1320
   74DG      H7 1686   3.929   5.397   5.733 -0.8709 -2.0582  1.0686
   74DG      H8 1687   3.889   5.537   5.661  0.4933  1.5577  2.9767
   74DG      O9 1688   3.247   5.360   5.126 -0.2234 -1.0917  0.5959
   74DG     O10 1689   3.751   5.369   5.637 -0.0328  0.3148  0.1080
   74DG     C11 1690   3.323   5.420   5.230 -0.9771  0.6225  0.2519
   74DG     C12 1691   3.648   5.429   5.564  0.0310 -0.2657 -0.0794
   74DG     H13 1692   3.258   5.466   5.305 -2.8098 -0.8090 -0.3657
   74DG     H14 1693   3.387   5.493   5.180 -2.1343  1.3655 -0.1812
   74DG     H15 1694   3.688   5.509   5.502  0.3061  0.0827  0.5373
   74DG     H16 1695   3.566   5.474   5.620 -0.6362 -0.0831 -1.1723
   74DG     C17 1696   3.413   5.322   5.302  0.3074 -0.5199  0.0129
   74DG     C18 1697   3.585   5.326   5.465  0.3021 -0.4610 -0.1196
   74DG     O19 1698   3.484   5.393   5.394  0.2458 -0.6279  0.3315
   74DG     H20 1699   3.496   5.273   5.251  2.0981  1.8906  0.4583
   74DG     H21 1700   3.354   5.241   5.344  1.6185 -2.5762 -1.8247
   74DG     H22 1701   3.663   5.295   5.395 -0.5510  0.1214 -1.3814
   74DG     H23 1702   3.552   5.232   5.510 -0.6099 -1.7218 -3.1499
   75DG      C1 1703   0.586   1.363   3.759 -0.3959 -0.0321 -0.4545
   75DG      C2 1704   0.783   1.021   4.369  0.1756  0.2607  0.6213
   75DG      H3 1705   0.587   1.351   3.650  0.3315 -0.3923 -0.4135
   75DG      H4 1706   0.679   1.414   3.785 -1.2149  0.6536  1.2701
   75DG      H5 1707   0.502   1.432   3.769 -0.5760 -0.1861 -0.8674
   75DG      H6 1708   0.742   0.947   4.439  0.0888  0.0570  0.3579
   75DG      H7 1709   0.885   1.011   4.407 -0.2322 -1.2512  1.4503
   75DG      H8 1710   0.737   1.111   4.409  0.3837  0.7006 -0.1241
   75DG      O9 1711   0.563   1.240   3.817  0.4402 -0.3837  0.1851
   75DG     O10 1712   0.762   0.997   4.231  0.3868 -0.3018  0.1659
   75DG     C11 1713   0.663   1.153   3.771 -0.0452 -0.4297  0.7478
   75DG     C12 1714   0.628   0.967   4.213 -0.8661 -0.2204  0.0514
   75DG     H13 1715   0.767   1.183   3.785 -0.5796  0.9794  1.9911
   75DG     H14 1716   0.648   1.136   3.665  0.8880  0.2208  0.4970
   75DG     H15 1717   0.563   1.052   4.233 -2.1988 -1.6328  2.0100
   75DG     H16 1718   0.602   0.877   4.268 -0.1304 -1.3821 -1.3945
   75DG     C17 1719   0.644   1.020   3.846 -0.0064 -0.5764  0.1727
   75DG     C18 1720   0.613   0.925   4.068 -0.2638  0.6699  0.3485
   75DG     O19 1721   0.643   1.039   3.986 -0.0359 -0.5445 -0.4119
   75DG     H20 1722   0.723   0.952   3.813  1.5614  0.4701  1.6235
   75DG     H21 1723   0.542   0.983   3.828 -1.2556  2.4546  0.4889
   75DG     H22 1724   0.681   0.841   4.051  0.9867  1.7342 -0.0757
   75DG     H23 1725   0.506   0.906   4.055 -0.5515  1.6558  1.1691
   76DG      C1 1726   2.261   1.236   4.127  0.1834 -0.1510  0.2438
   76DG      C2 1727   2.165   0.571   4.292 -0.0306 -0.9867 -0.0614
   76DG      H3 1728   2.341   1.200   4.192 -0.1533 -0.9003  0.2439
   76DG      H4 1729   2.194   1.279   4.202  1.0632  0.2777  0.8061
   76DG      H5 1730   2.293   1.312   4.056 -1.0112  0.5892  0.4633
   76DG      H6 1731   2.184   0.676   4.313  3.0715 -1.2907 -0.8597
   76DG      H7 1732   2.083   0.529   4.351 -0.2245 -1.9753 -1.0047
   76DG      H8 1733   2.252   0.508   4.312  0.7463 -0.3286 -1.2938
   76DG      O9 1734   2.185   1.135   4.067  0.2882 -0.0019 -0.0240
   76DG     O10 1735   2.121   0.555   4.156 -0.1111 -0.1952  0.1102
   76DG     C11 1736   2.120   1.049   4.163 -0.1226 -0.1226 -0.4291
   76DG     C12 1737   2.217   0.590   4.055  0.3311  0.0348  0.5928
   76DG     H13 1738   2.022   1.096   4.178  0.1775  0.4477 -0.2244
   76DG     H14 1739   2.169   1.039   4.260  0.3978  0.7767 -0.5925
   76DG     H15 1740   2.208   0.527   3.967  2.5840 -2.2107  1.8451
   76DG     H16 1741   2.317   0.571   4.096  0.8536 -3.0380 -1.7808
   76DG     C17 1742   2.093   0.916   4.088  0.0529 -0.2375  0.1010
   76DG     C18 1743   2.183   0.725   4.001  0.2241 -0.1038  0.9141
   76DG     O19 1744   2.193   0.823   4.099  0.2513  0.7205  0.5045
   76DG     H20 1745   2.054   0.944   3.990 -0.9226 -0.3685  0.4356
   76DG     H21 1746   2.008   0.868   4.135  0.0966 -0.9764 -0.5492
   76DG     H22 1747   2.249   0.755   3.920  3.0498 -1.5411  2.5565
   76DG     H23 1748   2.083   0.713   3.959 -0.0609  0.1213  1.5101
   77DG      C1 1749   0.002   3.350   2.192  0.0151  0.0919 -0.6794
   77DG      C2 1750  -0.276   3.279   1.574 -0.4435  0.4616  0.5184
   77DG      H3 1751  -0.015   3.309   2.291 -0.7582  1.3319 -0.2735
   77DG      H4 1752  -0.071   3.430   2.182 -0.5744 -0.5164 -1.3569
   77DG      H5 1753   0.105   3.382   2.176  0.4853 -2.5823 -4.0879
   77DG      H6 1754  -0.210   3.349   1.523 -1.6937  2.1553  1.1386
   77DG      H7 1755  -0.312   3.204   1.503  0.3985 -0.2113  0.7890
   77DG      H8 1756  -0.351   3.335   1.629 -0.1970 -1.4184  2.9208
   77DG      O9 1757  -0.027   3.249   2.094  0.3190 -0.6116 -0.5941
   77DG     O10 1758  -0.201   3.209   1.678  0.0777  0.3807 -0.2129
   77DG     C11 1759   0.087   3.160   2.073  0.1228  0.6249  0.2791
   77DG     C12 1760  -0.095   3.129   1.631  0.4324  0.0177  0.4187
   77DG     H13 1761   0.110   3.123   2.173  0.2773 -1.6484 -0.5289
   77DG     H14 1762   0.172   3.203   2.021  0.3738  0.0791  0.2252
   77DG     H15 1763  -0.024   3.201   1.591  0.7465  0.3728  1.5675
   77DG     H16 1764  -0.115   3.059   1.550 -0.3037  0.4611  0.2132
   77DG     C17 1765   0.039   3.046   1.976  0.4170  0.0693  0.2392
   77DG     C18 1766  -0.035   3.042   1.746 -0.0697  0.4808  0.2204
   77DG     O19 1767  -0.018   3.117   1.867 -0.0848 -0.2555  0.6767
   77DG     H20 1768  -0.037   2.980   2.016  2.0412 -1.3430  1.1067
   77DG     H21 1769   0.119   2.983   1.937 -0.6162 -2.3469  1.7845
   77DG     H22 1770  -0.095   2.953   1.761  1.4183 -0.2966  1.9516
   77DG     H23 1771   0.058   3.006   1.702 -0.4910 -0.5723  0.1618
   78DG      C1 1772   4.863   4.763   1.789 -0.3188 -0.3556  0.4756
   78DG      C2 1773   4.670   4.660   2.282  0.0718 -0.4436  0.6721
   78DG      H3 1774   4.887   4.657   1.800 -0.2026 -0.1935  2.0681
   78DG      H4 1775   4.956   4.813   1.814 -0.0854 -1.0723  1.1086
   78DG      H5 1776   4.831   4.782   1.687  0.5814 -0.6903  0.1274
   78DG      H6 1777   4.710   4.699   2.376 -1.0777  3.3202 -0.2578
   78DG      H7 1778   4.656   4.552   2.287 -0.9586 -0.5048 -2.1464
   78DG      H8 1779   4.730   4.673   2.192 -1.3612  0.1810 -0.2252
   78DG      O9 1780   4.780   4.808   1.892 -0.4120  0.3772  0.4355
   78DG     O10 1781   4.541   4.713   2.279 -0.3331 -0.5350 -0.1097
   78DG     C11 1782   4.764   4.950   1.907 -0.0092  0.0812  0.1104
   78DG     C12 1783   4.537   4.849   2.315 -1.2018 -0.2683  0.0632
   78DG     H13 1784   4.753   4.996   1.809 -0.4318 -1.1592 -0.4505
   78DG     H14 1785   4.850   4.999   1.953 -0.7625 -0.6393  2.4285
   78DG     H15 1786   4.616   4.884   2.380 -0.3689 -0.8547 -0.6068
   78DG     H16 1787   4.442   4.870   2.364 -1.5667  1.8567 -1.4197
   78DG     C17 1788   4.636   4.991   1.986 -0.1059 -0.2699  0.0567
   78DG     C18 1789   4.534   4.947   2.192 -0.0071 -0.4129 -0.3207
   78DG     O19 1790   4.648   4.924   2.113  0.1851 -0.5123  0.3449
   78DG     H20 1791   4.553   4.971   1.918 -0.0515  0.5263 -0.2600
   78DG     H21 1792   4.638   5.100   1.993  0.2334 -0.1987 -0.9493
   78DG     H22 1793   4.437   4.934   2.144 -0.6436  0.8074  0.5694
   78DG     H23 1794   4.529   5.048   2.234  0.2240 -0.5048 -0.0692
   79DG      C1 1795   1.506   3.690   0.779  0.1319  0.3156 -0.2330
   79DG      C2 1796   2.097   3.390   0.882  0.0757  0.5523 -0.0204
   79DG      H3 1797   1.457   3.696   0.876  1.2611 -4.0850  0.8025
   79DG      H4 1798   1.413   3.681   0.722 -0.6542 -0.1267  1.0849
   79DG      H5 1799   1.557   3.783   0.754  0.5307  0.2884  0.4555
   79DG      H6 1800   2.171   3.362   0.957  0.5103  1.4846 -0.0961
   79DG      H7 1801   2.066   3.311   0.814 -1.2482  0.1944  0.9523
   79DG      H8 1802   2.153   3.461   0.822  0.9614 -0.1913 -0.0970
   79DG      O9 1803   1.591   3.572   0.755 -0.1730 -0.3488 -0.4171
   79DG     O10 1804   1.976   3.444   0.948 -0.4767 -0.0117 -0.3525
   79DG     C11 1805   1.516   3.454   0.776  0.3025  0.8000  0.4269
   79DG     C12 1806   1.898   3.353   1.026 -0.5222  0.0322 -0.4378
   79DG     H13 1807   1.447   3.445   0.693  0.7239 -0.9007  0.2205
   79DG     H14 1808   1.449   3.460   0.862 -2.1548  0.8087 -1.4117
   79DG     H15 1809   1.859   3.399   1.117  0.6160  1.9724 -0.8739
   79DG     H16 1810   1.970   3.276   1.054  1.5875  1.8313 -0.5968
   79DG     C17 1811   1.621   3.338   0.784  0.5814  0.1950  0.1865
   79DG     C18 1812   1.797   3.277   0.938  0.4389  0.0798 -0.1688
   79DG     O19 1813   1.728   3.380   0.868  0.0420  0.6068 -0.5709
   79DG     H20 1814   1.648   3.297   0.687 -2.6100  1.2596 -1.2799
   79DG     H21 1815   1.573   3.257   0.838 -1.2412 -0.9580 -2.9272
   79DG     H22 1816   1.841   3.204   0.870 -1.7684 -0.9806 -0.5766
   79DG     H23 1817   1.724   3.219   0.996 -0.1998 -1.5213 -2.4195
   80DG      C1 1818   2.145   1.180   1.699  0.3795  0.1437 -0.1730
   80DG      C2 1819   2.062   0.848   2.461  0.2957 -0.0636 -0.3717
   80DG      H3 1820   2.098   1.262   1.753  0.3289  0.2168 -0.3270
   80DG      H4 1821   2.084   1.129   1.624  1.5713 -2.5530  0.6025
   80DG      H5 1822   2.237   1.214   1.651 -1.0724  1.1189 -2.4842
   80DG      H6 1823   2.008   0.924   2.517 -2.4687 -0.3979 -2.4231
   80DG      H7 1824   1.986   0.774   2.438 -0.7592  0.8530  0.0590
   80DG      H8 1825   2.144   0.803   2.518 -0.3847 -0.0645  0.6253
   80DG      O9 1826   2.163   1.080   1.800 -0.2282 -0.2979  0.3032
   80DG     O10 1827   2.121   0.892   2.339 -0.3033 -0.4281 -0.4215
   80DG     C11 1828   2.260   1.126   1.900 -0.2118 -0.5424  0.3652
   80DG     C12 1829   2.020   0.932   2.244 -0.2096  0.5866  0.9906
   80DG     H13 1830   2.224   1.220   1.944 -0.3010 -1.1630  1.6718
   80DG     H14 1831   2.353   1.159   1.854  0.4873 -0.9313  1.4573
   80DG     H15 1832   1.954   1.011   2.280 -1.8151  0.2914 -1.0779
   80DG     H16 1833   1.966   0.839   2.226  1.1676 -0.0889  0.1393
   80DG     C17 1834   2.303   1.040   2.015  0.2883 -0.1303  0.1468
   80DG     C18 1835   2.099   0.962   2.113  0.1576 -0.5118 -0.1785
   80DG     O19 1836   2.217   1.045   2.124 -0.3506 -0.4698 -0.9153
   80DG     H20 1837   2.393   1.092   2.050 -0.2480  1.6841 -1.0219
   80DG     H21 1838   2.326   0.935   2.001 -0.8861 -0.4571  0.6140
   80DG     H22 1839   2.143   0.877   2.060  1.3113 -0.0423 -0.0121
   80DG     H23 1840   2.025   1.014   2.051 -0.4326  0.3166  1.1730
   81DG      C1 1841   3.873   3.447   4.356  0.2381  0.8327 -0.4170
   81DG      C2 1842   4.097   4.046   4.186 -0.6940  0.5452 -0.2762
   81DG      H3 1843   3.813   3.372   4.407  0.2893  0.1587 -1.3353
   81DG      H4 1844   3.976   3.419   4.381 -0.2857 -0.3742  0.4635
   81DG      H5 1845   3.871   3.443   4.248  1.6921  2.2587 -0.5449
   81DG      H6 1846   4.194   3.998   4.188 -0.6736  0.3336 -2.8127
   81DG      H7 1847   4.065   4.024   4.084 -0.1644  3.3853 -1.1206
   81DG      H8 1848   4.106   4.154   4.193 -4.2700  1.0423 -1.4326
   81DG      O9 1849   3.850   3.580   4.394  0.0302  0.3202  0.0033
   81DG     O10 1850   4.007   3.979   4.274 -0.5950  0.1340 -0.2645
   81DG     C11 1851   3.713   3.605   4.409 -0.1526  0.8044 -0.0206
   81DG     C12 1852   3.879   4.040   4.287 -0.3513 -0.2603  0.1946
   81DG     H13 1853   3.647   3.554   4.480 -1.5265  2.0770 -0.3384
   81DG     H14 1854   3.665   3.595   4.312  2.3993  3.4299 -1.7164
   81DG     H15 1855   3.832   4.028   4.189  0.6595 -0.7576 -0.2411
   81DG     H16 1856   3.884   4.142   4.324  1.7544 -0.7261  1.3278
   81DG     C17 1857   3.712   3.751   4.444 -0.7327 -0.1222 -0.1488
   81DG     C18 1858   3.798   3.966   4.401  0.1000 -0.2999 -0.6231
   81DG     O19 1859   3.805   3.827   4.373  0.2006 -0.5688 -0.1475
   81DG     H20 1860   3.738   3.755   4.550  0.2711 -2.3977 -0.2658
   81DG     H21 1861   3.615   3.801   4.438  1.1143  4.3490  2.2922
   81DG     H22 1862   3.840   3.993   4.497 -0.9185  1.4657 -0.6382
   81DG     H23 1863   3.699   4.010   4.412  0.5100  1.1372 -2.2686
   82DG      C1 1864   2.855   0.919   1.086 -0.6730  0.0981 -0.1017
   82DG      C2 1865   3.218   0.127   1.035  0.1785 -0.5499 -0.3452
   82DG      H3 1866   2.766   0.982   1.080 -0.4948  0.3012 -0.7296
   82DG      H4 1867   2.929   0.946   1.011 -1.7613  1.4979 -0.7324
   82DG      H5 1868   2.895   0.939   1.186 -0.9308 -1.5765  0.3580
   82DG      H6 1869   3.303   0.134   0.968 -0.4724 -0.8424 -1.2136
   82DG      H7 1870   3.258   0.133   1.136 -1.1888  3.4657  0.1398
   82DG      H8 1871   3.180   0.025   1.024  2.3158 -1.3188 -0.9329
   82DG      O9 1872   2.823   0.779   1.090 -0.1585  0.4216  0.2149
   82DG     O10 1873   3.126   0.229   1.007  0.7319 -0.3720 -0.1165
   82DG     C11 1874   2.932   0.692   1.113  0.8466 -0.2292 -0.0929
   82DG     C12 1875   3.028   0.216   1.109 -0.8305  0.0658  0.1499
   82DG     H13 1876   2.989   0.715   1.203 -1.2924 -0.6579  1.4521
   82DG     H14 1877   2.992   0.712   1.024 -1.3067  0.7129 -1.4069
   82DG     H15 1878   3.086   0.234   1.199  1.5827 -0.4251 -1.2294
   82DG     H16 1879   2.972   0.122   1.111  1.0567 -1.1373 -0.8688
   82DG     C17 1880   2.876   0.557   1.116 -0.6310 -0.1899  0.0459
   82DG     C18 1881   2.920   0.317   1.108 -0.2781 -0.6106  0.1030
   82DG     O19 1882   2.974   0.452   1.108  0.1961  0.0752  0.1956
   82DG     H20 1883   2.807   0.555   1.032 -1.3388 -1.5721  0.6204
   82DG     H21 1884   2.820   0.538   1.208  1.7599 -0.1041  1.6199
   82DG     H22 1885   2.876   0.309   1.008  0.2927  0.6534 -0.2739
   82DG     H23 1886   2.840   0.308   1.180 -0.9464 -2.0023 -0.7709
   83DG      C1 1887   0.085   1.121   2.262  0.2980 -0.1307 -0.2930
   83DG      C2 1888  -0.342   1.319   1.824 -0.6592  0.7102 -0.3033
   83DG      H3 1889   0.121   1.082   2.167  0.0092 -2.3422  0.4521
   83DG      H4 1890   0.021   1.046   2.309  0.3016  1.3043  2.2167
   83DG      H5 1891   0.170   1.137   2.328  0.4598 -2.2734  0.0766
   83DG      H6 1892  -0.377   1.379   1.740  0.1839  0.1925 -1.0481
   83DG      H7 1893  -0.293   1.230   1.784  2.4962  1.7018  1.0473
   83DG      H8 1894  -0.435   1.287   1.871 -0.0629 -1.5444 -0.5348
   83DG      O9 1895   0.010   1.232   2.229 -0.4103  0.3608  0.8747
   83DG     O10 1896  -0.256   1.387   1.910 -0.6451  0.2716 -0.9028
   83DG     C11 1897  -0.057   1.302   2.334 -0.3100 -0.1677  0.1068
   83DG     C12 1898  -0.332   1.467   1.993  0.4142 -1.1226 -0.2108
   83DG     H13 1899   0.017   1.327   2.411 -0.8130  0.6968  0.3246
   83DG     H14 1900  -0.136   1.236   2.369 -0.2347 -1.1344 -1.4754
   83DG     H15 1901  -0.416   1.414   2.038  0.2068 -1.5807 -1.1109
   83DG     H16 1902  -0.382   1.552   1.946 -1.7791 -1.4365  1.3747
   83DG     C17 1903  -0.126   1.433   2.284 -0.9321 -0.1455 -0.4454
   83DG     C18 1904  -0.248   1.518   2.105 -0.2631 -0.1138 -0.4111
   83DG     O19 1905  -0.185   1.399   2.163 -0.1991 -0.2693  0.3860
   83DG     H20 1906  -0.043   1.500   2.262 -0.4225 -0.5954  0.0764
   83DG     H21 1907  -0.198   1.479   2.350 -1.9499 -0.6426 -1.1790
   83DG     H22 1908  -0.177   1.591   2.068  0.2993 -0.5244 -0.1532
   83DG     H23 1909  -0.310   1.572   2.177 -0.7059  2.5319 -2.6050
   84DG      C1 1910   0.978   2.665   4.777  0.0749  0.3040  0.5667
   84DG      C2 1911   1.645   2.714   4.937 -0.6960 -0.8546  0.0665
   84DG      H3 1912   0.949   2.679   4.881 -4.3140  0.4744 -0.4579
   84DG      H4 1913   0.966   2.557   4.760  0.2875  0.2655  0.6599
   84DG      H5 1914   0.896   2.710   4.721  0.4058  1.0947  0.7137
   84DG      H6 1915   1.711   2.629   4.918 -0.4418 -0.6590  0.0760
   84DG      H7 1916   1.703   2.806   4.947 -0.6373 -0.8196 -0.5167
   84DG      H8 1917   1.597   2.694   5.033 -2.7269 -0.2415 -0.7582
   84DG      O9 1918   1.099   2.714   4.727 -0.7588  0.1539  0.2037
   84DG     O10 1919   1.530   2.735   4.848 -0.6457  0.7137 -1.0935
   84DG     C11 1920   1.110   2.705   4.585 -0.7781  0.1300 -0.6056
   84DG     C12 1921   1.573   2.771   4.715 -0.0424  0.0931  0.0691
   84DG     H13 1922   1.024   2.750   4.535 -1.1606  0.5369  0.3949
   84DG     H14 1923   1.129   2.603   4.551 -1.0941  0.5679 -2.1819
   84DG     H15 1924   1.629   2.685   4.678  1.2649  0.0010  2.1033
   84DG     H16 1925   1.646   2.851   4.720 -1.2456  1.2554 -0.3393
   84DG     C17 1926   1.230   2.795   4.566  0.0693  0.0673  0.3486
   84DG     C18 1927   1.456   2.832   4.631 -0.0846 -0.0921  0.1248
   84DG     O19 1928   1.346   2.740   4.626 -0.3595  0.2670 -0.4121
   84DG     H20 1929   1.218   2.897   4.603  0.5446 -0.6826  2.6856
   84DG     H21 1930   1.236   2.807   4.458 -0.0553  1.3111  0.4640
   84DG     H22 1931   1.428   2.917   4.693 -1.8991 -0.3819 -0.2482
   84DG     H23 1932   1.480   2.859   4.528 -1.7613  1.0594 -0.0034
   85DG      C1 1933   3.586   4.145   3.428 -0.3766 -0.5586 -0.0034
   85DG      C2 1934   3.865   4.377   4.094 -0.3365 -0.1451 -0.3012
   85DG      H3 1935   3.509   4.221   3.424 -1.7378 -1.8868  0.1490
   85DG      H4 1936   3.545   4.052   3.390 -2.9104 -0.1756  1.5740
   85DG      H5 1937   3.663   4.187   3.363  0.6746 -0.8879  0.9835
   85DG      H6 1938   3.967   4.407   4.118 -0.6590  1.9053 -1.2665
   85DG      H7 1939   3.815   4.468   4.060 -0.0080 -0.0357 -0.5021
   85DG      H8 1940   3.820   4.359   4.192 -1.4046  0.6511 -0.6295
   85DG      O9 1941   3.639   4.110   3.554 -0.1292  0.2563 -0.3601
   85DG     O10 1942   3.855   4.261   4.011 -0.1735 -0.9065 -0.0214
   85DG     C11 1943   3.746   4.021   3.544  0.6327  0.0368 -0.9744
   85DG     C12 1944   3.942   4.267   3.899 -0.7031 -0.3313 -0.0250
   85DG     H13 1945   3.823   4.059   3.477 -1.5434  0.9862 -3.0772
   85DG     H14 1946   3.707   3.934   3.491  1.1858  1.9698 -4.9204
   85DG     H15 1947   4.043   4.277   3.939 -0.6408  2.0914 -0.6098
   85DG     H16 1948   3.926   4.359   3.842 -2.0509 -1.4926 -1.6385
   85DG     C17 1949   3.824   4.001   3.674  0.3257  0.3182  0.3979
   85DG     C18 1950   3.962   4.139   3.819  0.2232 -0.2286  0.3190
   85DG     O19 1951   3.848   4.127   3.734 -0.5362  0.2343 -0.5814
   85DG     H20 1952   3.916   3.947   3.655  0.0316  0.5418 -1.9985
   85DG     H21 1953   3.767   3.950   3.751  0.7711  2.6499  2.4208
   85DG     H22 1954   4.054   4.138   3.760  0.0964  2.3791 -0.0060
   85DG     H23 1955   3.969   4.046   3.875 -3.3230 -1.9669 -1.7263
   86DG      C1 1956   3.808   0.779   3.683  0.2242 -0.3000 -0.5451
   86DG      C2 1957   3.179   0.722   3.374 -0.7143  0.4844 -0.2881
   86DG      H3 1958   3.863   0.862   3.728 -0.4347  0.4162 -1.0278
   86DG      H4 1959   3.807   0.803   3.577  1.5952  0.6914 -0.3625
   86DG      H5 1960   3.883   0.701   3.684  0.4373 -0.1099 -1.2553
   86DG      H6 1961   3.072   0.720   3.349 -0.2785 -2.1464 -2.4166
   86DG      H7 1962   3.220   0.776   3.289 -0.7473  0.5935 -0.2341
   86DG      H8 1963   3.222   0.623   3.360 -1.7313  0.0901 -0.7853
   86DG      O9 1964   3.695   0.741   3.756 -0.4771  0.4217 -0.2934
   86DG     O10 1965   3.207   0.793   3.499 -0.4059  0.2470 -0.1436
   86DG     C11 1966   3.610   0.853   3.772  0.5336  0.6479  0.1636
   86DG     C12 1967   3.177   0.718   3.612 -0.2193 -0.2011 -0.8128
   86DG     H13 1968   3.597   0.915   3.684 -2.4086 -1.6128 -1.1950
   86DG     H14 1969   3.641   0.921   3.851  0.3996  0.4795  0.3662
   86DG     H15 1970   3.208   0.613   3.607  1.6026  0.2245  0.4718
   86DG     H16 1971   3.073   0.726   3.643 -0.3658 -2.1885 -0.6374
   86DG     C17 1972   3.470   0.811   3.817 -0.1552  0.1279 -0.5920
   86DG     C18 1973   3.251   0.785   3.726  0.8327 -0.1665  0.1142
   86DG     O19 1974   3.389   0.767   3.704  0.5610  0.2086 -1.4675
   86DG     H20 1975   3.427   0.890   3.879  0.7592 -0.6309  1.0717
   86DG     H21 1976   3.474   0.726   3.885  0.1331  1.2052  0.7648
   86DG     H22 1977   3.222   0.890   3.735  0.1288 -0.2272 -1.2150
   86DG     H23 1978   3.227   0.745   3.824  0.0634  3.8682  1.7551
   87DG      C1 1979   5.336   3.484   4.549 -0.2075  0.0352 -0.0625
   87DG      C2 1980   5.259   2.836   4.655 -0.4794  0.0360 -0.1471
   87DG      H3 1981   5.440   3.473   4.580 -0.7560 -2.6492  1.0765
   87DG      H4 1982   5.284   3.504   4.643 -0.3484  1.1342 -0.3556
   87DG      H5 1983   5.329   3.571   4.483  0.5167  1.1198  1.2266
   87DG      H6 1984   5.188   2.753   4.649 -0.6309  0.2167 -0.9919
   87DG      H7 1985   5.362   2.801   4.642 -0.2363  0.9929 -0.8515
   87DG      H8 1986   5.262   2.871   4.758  0.4406  2.3670 -0.9116
   87DG      O9 1987   5.305   3.361   4.493 -0.2195 -0.1983 -0.2797
   87DG     O10 1988   5.210   2.931   4.558  0.1243  0.2095 -0.9396
   87DG     C11 1989   5.366   3.334   4.366 -0.4369 -0.4752 -0.1917
   87DG     C12 1990   5.218   2.880   4.425  0.0188 -0.8189 -0.3158
   87DG     H13 1991   5.469   3.302   4.383  0.4424 -0.3639 -4.4376
   87DG     H14 1992   5.365   3.418   4.297 -1.5923 -0.0855  0.2758
   87DG     H15 1993   5.147   2.800   4.403 -0.3577 -0.3840 -0.6907
   87DG     H16 1994   5.317   2.839   4.401 -0.0148 -0.1637 -1.6973
   87DG     C17 1995   5.287   3.226   4.290 -0.3211 -0.6621 -0.4453
   87DG     C18 1996   5.186   3.014   4.355 -0.3824  0.3667  0.3279
   87DG     O19 1997   5.292   3.104   4.369 -0.1334 -0.3226 -0.2527
   87DG     H20 1998   5.321   3.216   4.187 -0.8483  1.1330 -0.8327
   87DG     H21 1999   5.187   3.269   4.285 -0.9787 -1.6639  2.3728
   87DG     H22 2000   5.167   2.983   4.252 -0.1667  0.3285  0.2988
   87DG     H23 2001   5.093   3.053   4.397 -1.2700 -0.5346 -0.7335
   88DG      C1 2002   5.266   4.606   3.877  0.0013 -0.2310  0.7216
   88DG      C2 2003   4.857   4.814   4.212  0.7941  0.4893  0.6210
   88DG      H3 2004   5.175   4.570   3.830 -0.3502 -0.5432  1.6291
   88DG      H4 2005   5.320   4.655   3.796 -1.5382  0.6025  0.1593
   88DG      H5 2006   5.251   4.674   3.960  0.4427 -0.9645  1.4164
   88DG      H6 2007   4.831   4.851   4.311 -0.7044 -1.4353  0.9960
   88DG      H7 2008   4.833   4.887   4.135  1.2037 -0.5921 -0.5625
   88DG      H8 2009   4.791   4.729   4.194  1.2953 -0.4173  2.7382
   88DG      O9 2010   5.353   4.503   3.905  0.2447  0.1467  0.2916
   88DG     O10 2011   4.997   4.784   4.202 -0.4700 -0.7652  0.2202
   88DG     C11 2012   5.310   4.416   4.008  0.0775 -0.2809  0.3002
   88DG     C12 2013   5.037   4.694   4.302 -0.4616  0.6343  0.4660
   88DG     H13 2014   5.397   4.351   4.015  0.7885  0.6964  1.0721
   88DG     H14 2015   5.225   4.350   4.001 -1.5258  1.7977 -1.4063
   88DG     H15 2016   4.966   4.611   4.302 -0.3019  0.4772  1.8670
   88DG     H16 2017   5.032   4.736   4.402 -0.3433 -0.2231  0.8469
   88DG     C17 2018   5.307   4.483   4.138 -0.0077 -0.7063  0.3066
   88DG     C18 2019   5.175   4.628   4.280  0.1633  0.5630 -0.0292
   88DG     O19 2020   5.180   4.547   4.161  0.3028  0.6827 -0.4086
   88DG     H20 2021   5.394   4.548   4.145 -2.3520  2.5135  1.9417
   88DG     H21 2022   5.329   4.412   4.217  2.2411  0.9279  1.2559
   88DG     H22 2023   5.249   4.708   4.283 -0.0269  0.7395  0.0359
   88DG     H23 2024   5.195   4.571   4.371  0.9202  0.4753 -0.2480
   89DG      C1 2025   2.999   0.527   1.600  0.2484 -0.0227 -0.6595
   89DG      C2 2026   3.682   0.393   1.862  0.1082 -0.2842  0.3446
   89DG      H3 2027   3.034   0.560   1.502  1.5012 -1.9050 -0.9014
   89DG      H4 2028   2.895   0.548   1.622  0.5001 -0.3152  0.9854
   89DG      H5 2029   3.017   0.421   1.582  0.9571 -0.2186  0.9548
   89DG      H6 2030   3.622   0.305   1.839  0.9148 -0.1711 -2.4552
   89DG      H7 2031   3.742   0.408   1.773 -2.4532  1.1742 -1.2489
   89DG      H8 2032   3.738   0.373   1.954  1.4830 -2.7673 -0.9314
   89DG      O9 2033   3.083   0.586   1.696  0.0485 -0.3677  0.5659
   89DG     O10 2034   3.588   0.499   1.861 -0.1891 -0.0182  0.0858
   89DG     C11 2035   3.060   0.537   1.829  0.1842 -0.0467  0.3714
   89DG     C12 2036   3.514   0.496   1.982  0.6875 -0.3143 -0.5983
   89DG     H13 2037   3.058   0.429   1.816  1.3299 -0.5246  3.3066
   89DG     H14 2038   2.962   0.575   1.858  0.6588  2.2165 -0.7431
   89DG     H15 2039   3.583   0.531   2.058 -0.0227  2.2482 -1.0221
   89DG     H16 2040   3.483   0.394   2.004 -0.0549  0.4735  2.5065
   89DG     C17 2041   3.165   0.595   1.929 -0.2037  0.0709  0.0202
   89DG     C18 2042   3.390   0.590   1.987 -0.2710 -0.4026 -0.5261
   89DG     O19 2043   3.282   0.526   1.918  0.0336 -0.0412 -0.3356
   89DG     H20 2044   3.126   0.571   2.028  2.1841 -1.6319  0.6423
   89DG     H21 2045   3.186   0.701   1.915  2.0848 -0.5856 -2.2602
   89DG     H22 2046   3.360   0.612   2.090 -1.2516 -0.3838 -0.8042
   89DG     H23 2047   3.419   0.681   1.936  0.7924  0.9161  2.2318
   90DG      C1 2048   0.950   5.467   2.189  0.1813  0.0095 -0.6403
   90DG      C2 2049   0.435   5.859   2.036 -0.0946  0.3485 -0.2238
   90DG      H3 2050   1.053   5.448   2.220 -0.5561 -0.5703  1.6407
   90DG      H4 2051   0.944   5.529   2.099  1.1353  1.1663  0.0612
   90DG      H5 2052   0.916   5.366   2.171 -0.5888  0.5796 -2.6108
   90DG      H6 2053   0.377   5.770   2.060  2.3342 -1.1373  0.5437
   90DG      H7 2054   0.357   5.931   2.057 -1.1385 -0.3248 -1.6462
   90DG      H8 2055   0.460   5.860   1.930  1.2700  1.2317  0.0806
   90DG      O9 2056   0.877   5.539   2.290  0.3102  0.0417 -0.5135
   90DG     O10 2057   0.554   5.873   2.116 -0.1533 -0.1960 -0.3930
   90DG     C11 2058   0.941   5.662   2.325 -0.3117 -0.6591 -0.5117
   90DG     C12 2059   0.518   5.886   2.251  0.2937 -0.1957 -0.7799
   90DG     H13 2060   0.988   5.721   2.246  2.3426 -0.5664  1.0087
   90DG     H14 2061   1.021   5.655   2.398 -1.9832 -0.2790  1.4623
   90DG     H15 2062   0.454   5.805   2.287  0.1073  0.7366  1.1540
   90DG     H16 2063   0.455   5.971   2.273  1.9996  0.2095  3.6660
   90DG     C17 2064   0.832   5.752   2.395 -0.4791 -0.2127 -0.1909
   90DG     C18 2065   0.649   5.887   2.338  0.1320  0.0969  0.1321
   90DG     O19 2066   0.732   5.779   2.307 -0.2044 -0.0512  0.4879
   90DG     H20 2067   0.862   5.841   2.450 -0.2462  0.2238 -1.0120
   90DG     H21 2068   0.803   5.691   2.481  0.2332 -1.2774 -0.6774
   90DG     H22 2069   0.711   5.976   2.327  0.2546 -0.1106 -1.0150
   90DG     H23 2070   0.622   5.875   2.443 -0.1297  0.0697  0.0631
   91DG      C1 2071   2.636   1.601   4.954  0.7521  0.1780 -0.5911
   91DG      C2 2072   2.152   1.185   4.524 -0.3841 -0.8209  0.8585
   91DG      H3 2073   2.683   1.520   5.009 -0.8651 -2.1022 -2.3205
   91DG      H4 2074   2.617   1.686   5.020 -2.4182 -2.5629  2.3884
   91DG      H5 2075   2.700   1.622   4.868 -0.4232  0.0647 -1.5247
   91DG      H6 2076   2.055   1.144   4.553 -0.6922 -0.7698 -0.0655
   91DG      H7 2077   2.157   1.212   4.418 -0.4400  0.6246  1.2098
   91DG      H8 2078   2.229   1.113   4.553  1.6376  0.7505 -0.3388
   91DG      O9 2079   2.515   1.550   4.902 -0.4065  0.4634 -0.1466
   91DG     O10 2080   2.158   1.309   4.603  0.1613 -0.6108 -0.6573
   91DG     C11 2081   2.420   1.646   4.869 -0.0729  0.2239  0.1670
   91DG     C12 2082   2.137   1.287   4.745  0.2777  0.0719 -0.5211
   91DG     H13 2083   2.438   1.684   4.769  1.1600 -0.6936  0.0212
   91DG     H14 2084   2.428   1.731   4.936 -0.6987 -0.2267  0.8291
   91DG     H15 2085   2.218   1.220   4.774  0.3227 -0.4740 -1.8566
   91DG     H16 2086   2.036   1.250   4.760 -0.8485  2.2045 -2.2708
   91DG     C17 2087   2.277   1.586   4.890 -0.1647  0.3252  0.0089
   91DG     C18 2088   2.134   1.416   4.819  0.3869  0.3301  0.4228
   91DG     O19 2089   2.264   1.471   4.806 -0.1007 -0.3700  0.6590
   91DG     H20 2090   2.212   1.668   4.860 -0.9122 -1.1527 -2.6708
   91DG     H21 2091   2.266   1.568   4.997  1.5573 -3.7221 -0.3489
   91DG     H22 2092   2.052   1.477   4.780 -0.7769 -0.1651  1.9981
   91DG     H23 2093   2.120   1.399   4.925 -1.3320 -0.1924  0.1428
   92DG      C1 2094   0.969   0.617   5.357 -0.3616 -0.5885  0.1982
   92DG      C2 2095   0.608   0.246   4.886  0.3134 -0.2604 -1.2404
   92DG      H3 2096   0.992   0.711   5.408  1.8342 -0.8409 -0.2191
   92DG      H4 2097   0.940   0.654   5.259 -0.6199  1.0214  0.8414
   92DG      H5 2098   1.054   0.549   5.365  0.4970  0.6614  2.8973
   92DG      H6 2099   0.529   0.174   4.905  2.3336 -2.3040 -0.0922
   92DG      H7 2100   0.596   0.287   4.785 -2.7779  0.2912 -0.7613
   92DG      H8 2101   0.704   0.195   4.893  0.1432 -0.3645  1.4837
   92DG      O9 2102   0.869   0.536   5.418  0.2678  0.1383 -0.2452
   92DG     O10 2103   0.604   0.343   4.996 -0.2819  0.1937 -0.1700
   92DG     C11 2104   0.742   0.610   5.424 -0.9081  0.0036 -0.2671
   92DG     C12 2105   0.694   0.454   4.977 -0.0119  0.4719 -0.3518
   92DG     H13 2106   0.757   0.693   5.493 -0.7216 -0.2134 -0.0472
   92DG     H14 2107   0.686   0.535   5.479  0.8904 -2.6804 -1.8597
   92DG     H15 2108   0.695   0.504   4.880  1.5461  0.7164 -0.2465
   92DG     H16 2109   0.796   0.424   5.001 -1.0232 -2.1248  1.0400
   92DG     C17 2110   0.679   0.650   5.292  0.3360 -0.2857  0.4865
   92DG     C18 2111   0.665   0.565   5.075  0.4046  0.0670 -0.0453
   92DG     O19 2112   0.682   0.528   5.208 -0.1478 -0.8682  0.2136
   92DG     H20 2113   0.732   0.731   5.242 -0.8909  0.7163  0.7642
   92DG     H21 2114   0.577   0.683   5.309  0.7462  2.2458 -1.4155
   92DG     H22 2115   0.736   0.643   5.047  0.0650  0.3190 -0.2161
   92DG     H23 2116   0.566   0.599   5.044 -1.2632 -2.5472  1.9867
   93DG      C1 2117   4.282   4.356   2.135  0.2217  0.1078  0.1831
   93DG      C2 2118   3.570   4.307   2.513 -1.1428  0.1246 -0.1165
   93DG      H3 2119   4.239   4.378   2.037  3.2447 -1.1902 -1.5835
   93DG      H4 2120   4.375   4.301   2.121  0.5266  0.5594  0.4356
   93DG      H5 2121   4.319   4.453   2.168 -0.2555 -0.2166  1.7169
   93DG      H6 2122   3.469   4.270   2.532 -0.2366 -2.1421  0.7078
   93DG      H7 2123   3.622   4.271   2.602 -1.4931 -1.7217 -0.6150
   93DG      H8 2124   3.574   4.415   2.508 -0.5974  0.0649 -1.4374
   93DG      O9 2125   4.180   4.298   2.214  0.2184  0.6379  0.3025
   93DG     O10 2126   3.609   4.249   2.393 -0.0406  0.0502  0.0788
   93DG     C11 2127   4.157   4.154   2.190 -0.2155  0.5080 -0.2955
   93DG     C12 2128   3.744   4.236   2.369  0.1928  0.2507  0.6204
   93DG     H13 2129   4.236   4.087   2.223  0.9018  1.2370 -1.4407
   93DG     H14 2130   4.173   4.137   2.083  0.4894  0.9095 -0.2581
   93DG     H15 2131   3.785   4.175   2.449  2.5398  2.5509  1.3144
   93DG     H16 2132   3.792   4.332   2.388 -2.1204  1.8227 -0.8566
   93DG     C17 2133   4.014   4.109   2.232  0.1484 -0.5849 -0.3250
   93DG     C18 2134   3.776   4.179   2.227 -0.1551  0.2841 -0.3485
   93DG     O19 2135   3.916   4.202   2.188  0.3738  0.5043  1.0671
   93DG     H20 2136   4.002   4.114   2.341  1.3378  1.4747 -0.2437
   93DG     H21 2137   3.985   4.010   2.198 -0.1946  0.4454 -3.3374
   93DG     H22 2138   3.751   4.075   2.210 -2.2514  0.6135  0.4171
   93DG     H23 2139   3.711   4.238   2.161  1.0570  1.1113 -0.8405
   94DG      C1 2140   1.129   1.766   2.372 -0.1334  0.2404 -0.3569
   94DG      C2 2141   0.567   2.114   2.756 -0.1841 -0.6401  0.6666
   94DG      H3 2142   1.139   1.821   2.278 -0.2828  1.1707  0.1587
   94DG      H4 2143   1.068   1.676   2.369 -1.3004  1.0115 -0.4623
   94DG      H5 2144   1.230   1.732   2.396  0.8231  1.4412 -2.3797
   94DG      H6 2145   0.560   2.184   2.838  1.9820 -0.0644  0.4213
   94DG      H7 2146   0.474   2.093   2.703  1.3496  0.0492 -2.5710
   94DG      H8 2147   0.601   2.020   2.800 -0.8785 -0.6646  1.1605
   94DG      O9 2148   1.072   1.853   2.469  0.2010  0.1450 -0.4313
   94DG     O10 2149   0.672   2.149   2.658  0.3856  0.0283  0.1321
   94DG     C11 2150   1.034   1.794   2.590 -0.0452 -0.0077 -0.5963
   94DG     C12 2151   0.793   2.187   2.705  0.0547  0.5775  0.2419
   94DG     H13 2152   1.114   1.723   2.609 -2.3062 -2.6100 -0.1229
   94DG     H14 2153   0.948   1.727   2.595  1.5440 -2.0519  1.4110
   94DG     H15 2154   0.783   2.272   2.772  0.8973  2.4652 -1.8816
   94DG     H16 2155   0.844   2.231   2.619 -3.0148  4.3256  0.0636
   94DG     C17 2156   1.023   1.893   2.706 -0.5193 -0.1324  1.5774
   94DG     C18 2157   0.895   2.087   2.764 -0.5066 -0.1198 -0.3932
   94DG     O19 2158   0.933   1.994   2.662  0.3144  0.3056 -0.4220
   94DG     H20 2159   1.124   1.929   2.723  0.3284 -0.7883 -1.4576
   94DG     H21 2160   0.981   1.842   2.793 -2.0732 -0.2466  0.8006
   94DG     H22 2161   0.986   2.131   2.806  0.5810 -2.1653 -0.5039
   94DG     H23 2162   0.849   2.033   2.847  1.2398 -1.4930 -0.2506
   95DG      C1 2163   0.520   5.261   4.291 -0.3743 -0.2627 -0.0886
   95DG      C2 2164   0.643   4.696   4.509  0.2204 -0.2795  0.2842
   95DG      H3 2165   0.523   5.370   4.293 -1.2407 -0.1897 -1.4339
   95DG      H4 2166   0.418   5.223   4.291 -0.1239 -0.9729 -1.5225
   95DG      H5 2167   0.565   5.217   4.202  0.0756  0.1281 -0.0598
   95DG      H6 2168   0.666   4.609   4.570  0.4295  0.3772  1.1704
   95DG      H7 2169   0.540   4.729   4.517  0.3910  0.3501 -0.0304
   95DG      H8 2170   0.672   4.683   4.405  0.6362  0.2373  0.3281
   95DG      O9 2171   0.603   5.210   4.396 -0.2901  0.4687 -0.4527
   95DG     O10 2172   0.718   4.808   4.534 -0.3449 -0.7149  0.0270
   95DG     C11 2173   0.557   5.253   4.528 -0.0907  0.6539  0.0974
   95DG     C12 2174   0.727   4.839   4.674 -0.2652 -0.2200 -0.2242
   95DG     H13 2175   0.453   5.219   4.538  0.2436  0.2229  3.3782
   95DG     H14 2176   0.566   5.358   4.557  0.6681  0.3781  0.8890
   95DG     H15 2177   0.799   4.774   4.725  2.0833  0.8016 -2.0317
   95DG     H16 2178   0.636   4.816   4.729  0.2860 -1.3277  0.2577
   95DG     C17 2179   0.660   5.197   4.630 -0.6649 -0.3452 -0.1080
   95DG     C18 2180   0.759   4.988   4.703  0.0707  0.0941  0.1427
   95DG     O19 2181   0.655   5.056   4.624  0.4486  0.1298  0.6135
   95DG     H20 2182   0.625   5.224   4.730 -0.4935 -0.3199 -0.0537
   95DG     H21 2183   0.760   5.235   4.612 -0.8063 -0.4911 -1.2991
   95DG     H22 2184   0.749   5.002   4.810  0.0149 -2.7731  0.5897
   95DG     H23 2185   0.855   5.026   4.669 -1.3196  1.3540 -2.7398
   96DG      C1 2186   5.293   1.214   3.102  0.1755  0.6367 -0.5386
   96DG      C2 2187   4.965   0.387   3.129  0.1696  0.0245 -0.5238
   96DG      H3 2188   5.220   1.276   3.154  0.8164 -0.3053  1.5869
   96DG      H4 2189   5.319   1.272   3.014 -1.1520  1.3882 -0.4532
   96DG      H5 2190   5.381   1.211   3.166 -0.1456 -1.8597 -0.1141
   96DG      H6 2191   4.925   0.419   3.225  0.8389  1.9075 -0.8171
   96DG      H7 2192   4.897   0.314   3.085 -0.7178  0.5891 -0.1370
   96DG      H8 2193   5.059   0.335   3.147  1.2099  2.2123  0.7836
   96DG      O9 2194   5.262   1.086   3.064 -0.2687  0.1560  0.7152
   96DG     O10 2195   4.975   0.500   3.040  0.0395  0.4007 -0.0887
   96DG     C11 2196   5.144   1.080   2.977  0.1960 -0.4787  0.4053
   96DG     C12 2197   5.012   0.624   3.099 -0.1634  0.3008 -0.1897
   96DG     H13 2198   5.153   1.147   2.891 -0.2858  0.0005  0.7210
   96DG     H14 2199   5.055   1.117   3.028 -0.1844  0.2533 -0.7328
   96DG     H15 2200   5.113   0.611   3.138 -0.7531  0.1675  1.3702
   96DG     H16 2201   4.948   0.644   3.184 -0.9031 -2.5719  0.0226
   96DG     C17 2202   5.117   0.935   2.924  0.6937  0.5420  0.4350
   96DG     C18 2203   5.018   0.733   2.989  0.0163  0.2470 -0.2189
   96DG     O19 2204   5.083   0.847   3.034  0.0552 -0.1476 -0.0694
   96DG     H20 2205   5.198   0.903   2.858  1.7089  0.9693  1.4427
   96DG     H21 2206   5.032   0.948   2.856  2.5517 -1.9215 -2.6771
   96DG     H22 2207   5.061   0.691   2.898 -2.2664  1.9947 -2.2352
   96DG     H23 2208   4.914   0.749   2.960 -0.8089 -1.5079  1.5436
   97DG      C1 2209   3.390   4.977   0.328  0.7948 -0.3245  0.6612
   97DG      C2 2210   2.900   5.570  -0.004 -0.0459  0.1034 -0.7370
   97DG      H3 2211   3.311   4.902   0.331 -1.8346  2.1507 -1.7197
   97DG      H4 2212   3.357   5.055   0.396  0.6788 -0.1871  0.4452
   97DG      H5 2213   3.486   4.937   0.362  0.2155 -3.3835 -0.9434
   97DG      H6 2214   2.858   5.516  -0.088  1.5137  1.3053 -2.3771
   97DG      H7 2215   2.833   5.562   0.082 -0.0909 -1.6318 -0.8909
   97DG      H8 2216   2.914   5.677  -0.015  0.3613  0.1864  0.4055
   97DG      O9 2217   3.403   5.029   0.203 -0.0801  0.5248  0.3016
   97DG     O10 2218   3.019   5.501   0.032 -0.3514  0.6438 -0.2536
   97DG     C11 2219   3.309   5.121   0.159  0.5292 -0.1451 -0.2174
   97DG     C12 2220   3.087   5.549   0.146 -0.0798  0.1320  0.0672
   97DG     H13 2221   3.209   5.088   0.185  0.4015 -0.6012 -1.2511
   97DG     H14 2222   3.325   5.112   0.052  0.7686 -1.6519 -0.0757
   97DG     H15 2223   3.029   5.544   0.239 -1.0111  0.1937 -0.4923
   97DG     H16 2224   3.102   5.655   0.126  0.9359  0.1950  1.0423
   97DG     C17 2225   3.315   5.267   0.210 -0.7226  0.2943  0.0529
   97DG     C18 2226   3.220   5.479   0.161 -0.2558 -0.0786  0.4430
   97DG     O19 2227   3.210   5.338   0.143  0.1735 -0.9265 -0.0311
   97DG     H20 2228   3.408   5.318   0.187 -0.3735 -0.6495 -0.7391
   97DG     H21 2229   3.303   5.285   0.317 -1.2530  2.3812 -0.3117
   97DG     H22 2230   3.295   5.519   0.093  1.0296  0.4146  2.0844
   97DG     H23 2231   3.263   5.501   0.259  1.8288  3.2863 -1.0361
   98DG      C1 2232   3.795   0.844   5.456 -0.1644 -0.0841  0.2051
   98DG      C2 2233   3.919   0.656   6.097 -0.1872 -0.8900 -0.2377
   98DG      H3 2234   3.900   0.838   5.428 -0.4006 -0.2514 -0.6617
   98DG      H4 2235   3.741   0.904   5.382 -0.7355 -1.8565 -0.8892
   98DG      H5 2236   3.740   0.751   5.439 -3.1123  1.1778  1.9416
   98DG      H6 2237   4.003   0.595   6.064  0.5389  0.6563 -1.3617
   98DG      H7 2238   3.938   0.689   6.200 -0.3988 -1.1521 -0.1133
   98DG      H8 2239   3.828   0.596   6.092 -1.1083  0.5410 -1.1210
   98DG      O9 2240   3.781   0.899   5.585 -0.1783 -0.7504  0.2320
   98DG     O10 2241   3.907   0.771   6.008  0.3085 -0.0356 -0.5070
   98DG     C11 2242   3.856   1.022   5.602  0.4510  0.0224  0.0701
   98DG     C12 2243   3.819   0.873   6.054  0.1601 -0.0598 -0.1724
   98DG     H13 2244   3.834   1.101   5.530  2.2311  0.7214  0.2493
   98DG     H14 2245   3.963   1.009   5.589  0.5071  1.0822 -0.6377
   98DG     H15 2246   3.845   0.904   6.156 -0.4348 -2.5426  0.8035
   98DG     H16 2247   3.718   0.833   6.058  0.1394  0.0389  0.3615
   98DG     C17 2248   3.826   1.075   5.742  0.0076 -0.2484 -0.1411
   98DG     C18 2249   3.814   1.000   5.969 -0.4093  0.4673 -0.3682
   98DG     O19 2250   3.802   0.971   5.836 -0.1808 -0.1452  0.1888
   98DG     H20 2251   3.727   1.120   5.738 -0.3776 -1.1239 -0.4749
   98DG     H21 2252   3.891   1.163   5.751 -0.0113  0.0406 -2.2736
   98DG     H22 2253   3.737   1.067   6.008  0.9212  1.7970  0.0761
   98DG     H23 2254   3.906   1.055   5.990  0.6051 -1.0927 -0.5811
   99DG      C1 2255   4.463   4.029   3.085  0.2247 -0.4111 -0.2069
   99DG      C2 2256   4.379   3.713   3.709 -0.1863 -0.1406  0.3069
   99DG      H3 2257   4.483   4.113   3.152  1.3686  0.3489 -1.4569
   99DG      H4 2258   4.385   4.049   3.011 -0.6797 -1.3374  0.4606
   99DG      H5 2259   4.552   4.021   3.022  1.9421 -2.6721  2.2839
   99DG      H6 2260   4.352   3.811   3.748 -0.4054  0.5621 -1.4908
   99DG      H7 2261   4.319   3.635   3.756  0.1517 -0.8535 -0.4220
   99DG      H8 2262   4.479   3.686   3.743  0.3289  0.6908 -0.4793
   99DG      O9 2263   4.442   3.917   3.166 -0.6114 -0.7592 -0.3379
   99DG     O10 2264   4.356   3.714   3.569 -0.4258  0.4417  0.2087
   99DG     C11 2265   4.432   3.802   3.078  0.3064 -0.2751 -0.5073
   99DG     C12 2266   4.425   3.603   3.507 -0.0729 -1.0065  0.4017
   99DG     H13 2267   4.533   3.782   3.044  0.4682 -1.1432  0.4458
   99DG     H14 2268   4.371   3.816   2.989  0.9744 -0.0803 -0.9391
   99DG     H15 2269   4.420   3.509   3.562  0.1862 -0.4941  1.3398
   99DG     H16 2270   4.528   3.637   3.496 -0.2122 -0.8424 -0.4396
   99DG     C17 2271   4.376   3.670   3.148  0.0841  0.6942 -0.3661
   99DG     C18 2272   4.370   3.571   3.371  0.2060  0.0613  0.3166
   99DG     O19 2273   4.422   3.670   3.288 -0.1361 -0.5900  0.1774
   99DG     H20 2274   4.395   3.574   3.102 -0.8722  0.8351 -1.0884
   99DG     H21 2275   4.269   3.693   3.150  0.1955  1.3569 -1.3890
   99DG     H22 2276   4.403   3.469   3.350  0.8634  0.5325 -1.0727
   99DG     H23 2277   4.261   3.572   3.378  0.2512  0.7577  0.9676
  100DG      C1 2278   4.563   1.875   1.294  0.4409 -0.1359 -0.4000
  100DG      C2 2279   4.727   2.467   1.557  0.1879 -0.1879 -0.5439
  100DG      H3 2280   4.618   1.854   1.387  0.0204  0.9989  0.1161
  100DG      H4 2281   4.641   1.853   1.221  1.2003 -0.5968  0.5165
  100DG      H5 2282   4.477   1.810   1.280  1.1831 -1.3001  0.2596
  100DG      H6 2283   4.642   2.453   1.624 -0.3405  0.0619 -1.1404
  100DG      H7 2284   4.822   2.429   1.594 -0.0019 -0.2185 -0.0774
  100DG      H8 2285   4.749   2.572   1.534 -0.2546  0.1933  0.6970
  100DG      O9 2286   4.515   2.005   1.303  0.2217 -0.2786 -0.0723
  100DG     O10 2287   4.693   2.401   1.440 -0.1854  0.5001  0.2823
  100DG     C11 2288   4.448   2.057   1.190  0.1593  0.4552 -0.2447
  100DG     C12 2289   4.580   2.449   1.370  0.2804 -0.7423  0.1205
  100DG     H13 2290   4.352   2.005   1.189 -1.5341  3.3517  0.7800
  100DG     H14 2291   4.504   2.035   1.098  2.8315  1.6191  0.9899
  100DG     H15 2292   4.582   2.558   1.371  1.7401 -0.7446  2.1500
  100DG     H16 2293   4.487   2.420   1.419 -0.4300  0.9184 -0.1652
  100DG     C17 2294   4.439   2.208   1.208 -0.0889 -0.1753  0.1743
  100DG     C18 2295   4.573   2.401   1.224  0.1271 -0.6162 -0.0913
  100DG     O19 2296   4.569   2.260   1.213  0.1554  0.6691  0.1353
  100DG     H20 2297   4.408   2.230   1.310 -1.1783 -1.9962  0.2766
  100DG     H21 2298   4.371   2.256   1.137 -0.4950 -1.3468 -0.2461
  100DG     H22 2299   4.487   2.447   1.175 -1.1796 -1.2364  1.5172
  100DG     H23 2300   4.664   2.433   1.174  1.5258 -0.9468  2.1281
  101DG      C1 2301   4.815   4.036   2.444  0.4983 -0.0035 -0.8354
  101DG      C2 2302   5.265   3.516   2.512  0.8528  0.5445 -0.3163
  101DG      H3 2303   4.783   4.093   2.356  2.7019  1.9144 -0.4771
  101DG      H4 2304   4.790   4.093   2.533  0.5745 -2.7488  1.0545
  101DG      H5 2305   4.754   3.947   2.432  0.0830  0.1373  0.1641
  101DG      H6 2306   5.315   3.548   2.603  1.1657 -0.8428  0.0151
  101DG      H7 2307   5.179   3.454   2.535  0.9380 -0.7367 -3.0040
  101DG      H8 2308   5.323   3.459   2.439 -2.1880 -1.3726 -1.4310
  101DG      O9 2309   4.945   3.998   2.433 -0.5738 -0.2652  0.5872
  101DG     O10 2310   5.217   3.637   2.457  0.2030 -0.6236  0.0588
  101DG     C11 2311   5.039   4.104   2.415 -0.3512 -0.6931 -0.0168
  101DG     C12 2312   5.325   3.712   2.402  0.7917  0.5724  0.2678
  101DG     H13 2313   5.064   4.140   2.515  0.4131 -0.4571 -0.2785
  101DG     H14 2314   5.013   4.184   2.345 -1.4052 -1.3211 -0.3629
  101DG     H15 2315   5.381   3.645   2.337 -0.8922 -1.8313  1.1196
  101DG     H16 2316   5.393   3.740   2.483  0.9974  1.2825 -0.1435
  101DG     C17 2317   5.160   4.034   2.344 -0.1440  0.0402  0.4944
  101DG     C18 2318   5.271   3.829   2.327  0.4994 -0.3799 -0.0398
  101DG     O19 2319   5.197   3.914   2.415  0.2273 -0.4219  0.0836
  101DG     H20 2320   5.246   4.101   2.350  1.8718 -2.0187 -2.6622
  101DG     H21 2321   5.142   4.010   2.239  1.9459 -1.8544  0.4941
  101DG     H22 2322   5.352   3.880   2.274  0.0333  2.2197  1.5979
  101DG     H23 2323   5.207   3.803   2.243  1.0788 -1.9581 -0.0324
  102DG      C1 2324   1.587   5.209   5.316 -0.4215 -0.8132  0.7163
  102DG      C2 2325   0.928   5.236   5.674  0.5189 -0.2645 -0.3059
  102DG      H3 2326   1.586   5.142   5.402 -2.5724  1.3137  2.5057
  102DG      H4 2327   1.618   5.307   5.351  2.6046 -0.4916 -2.2842
  102DG      H5 2328   1.660   5.172   5.244  0.2498 -0.0959  1.0183
  102DG      H6 2329   0.929   5.166   5.757  0.7896 -0.1083 -0.1751
  102DG      H7 2330   0.979   5.328   5.703  0.1837  0.0572 -0.6982
  102DG      H8 2331   0.822   5.258   5.656  0.7190  0.8668 -0.1834
  102DG      O9 2332   1.452   5.227   5.262  0.1847 -0.4131  0.5551
  102DG     O10 2333   0.978   5.184   5.553  0.1156 -0.4165  0.1895
  102DG     C11 2334   1.396   5.106   5.211 -0.2502 -0.2463 -0.8226
  102DG     C12 2335   0.987   5.273   5.442 -0.6014 -0.1577 -0.3102
  102DG     H13 2336   1.415   5.015   5.268 -1.6100 -0.2041 -0.2563
  102DG     H14 2337   1.425   5.087   5.108  1.2632 -1.1965 -0.2625
  102DG     H15 2338   1.026   5.371   5.468 -1.3888  0.1942 -0.4446
  102DG     H16 2339   0.885   5.302   5.418 -0.7564  1.0052  1.5264
  102DG     C17 2340   1.243   5.132   5.209 -0.2245 -0.1829  0.1363
  102DG     C18 2341   1.052   5.211   5.317 -0.5721  0.6911  0.5111
  102DG     O19 2342   1.192   5.190   5.328 -0.0322  0.3165 -0.9934
  102DG     H20 2343   1.188   5.041   5.183 -2.9795  0.8681  1.7694
  102DG     H21 2344   1.224   5.200   5.126  0.2082 -1.3776 -0.9714
  102DG     H22 2345   1.012   5.111   5.301  0.2870  0.3526  0.4376
  102DG     H23 2346   1.037   5.281   5.235 -0.5196  2.0654  1.6329
  103DG      C1 2347   2.575   0.530   3.788 -0.0795 -0.3587 -0.0303
  103DG      C2 2348   2.427   0.371   4.596 -0.5147  0.3840 -0.0062
  103DG      H3 2349   2.542   0.617   3.731 -0.1506 -1.2684 -1.4424
  103DG      H4 2350   2.491   0.461   3.785 -1.3429  1.1269 -2.5101
  103DG      H5 2351   2.656   0.475   3.739  1.4189  1.4537  0.2953
  103DG      H6 2352   2.369   0.463   4.584  1.2395  1.6105  0.4932
  103DG      H7 2353   2.355   0.290   4.603  0.1604 -0.1067  1.6707
  103DG      H8 2354   2.484   0.383   4.688 -0.0349 -0.8453 -0.1262
  103DG      O9 2355   2.603   0.558   3.921  0.8308  0.0597  0.3046
  103DG     O10 2356   2.521   0.359   4.485  0.2192 -0.0199 -0.2605
  103DG     C11 2357   2.633   0.444   4.001  0.3664  0.3358  0.6439
  103DG     C12 2358   2.612   0.468   4.464  0.6011  0.3295 -0.8745
  103DG     H13 2359   2.729   0.405   3.967 -0.0673 -0.4164  0.2645
  103DG     H14 2360   2.574   0.355   3.982  0.6716 -0.0899  1.6684
  103DG     H15 2361   2.673   0.495   4.550  2.3316  1.4821 -2.3843
  103DG     H16 2362   2.555   0.557   4.436  0.4258  0.6386  0.4052
  103DG     C17 2363   2.624   0.484   4.148  0.1258  0.3519  0.5429
  103DG     C18 2364   2.719   0.425   4.363  0.1484 -0.4924  0.3093
  103DG     O19 2365   2.671   0.381   4.233  0.5057 -0.0930  0.1245
  103DG     H20 2366   2.523   0.500   4.185 -0.0088 -0.7408  0.6764
  103DG     H21 2367   2.697   0.565   4.152  0.8970 -0.1586 -1.7729
  103DG     H22 2368   2.790   0.504   4.338  0.3269 -0.1983  1.6511
  103DG     H23 2369   2.776   0.341   4.403 -1.7580 -1.4876  1.0838
  104DG      C1 2370   0.256   4.082   3.707  0.1204  0.2346 -0.0420
  104DG      C2 2371   0.038   3.809   4.375 -0.0784  0.0094  0.6010
  104DG      H3 2372   0.169   4.067   3.643 -0.8797  2.5902  0.6449
  104DG      H4 2373   0.328   4.001   3.700  1.1012  0.5454  3.9738
  104DG      H5 2374   0.317   4.171   3.692 -0.4901  0.8293  0.8633
  104DG      H6 2375  -0.005   3.741   4.302  1.8863  0.4290 -1.0238
  104DG      H7 2376   0.123   3.753   4.414  0.3920 -0.1381 -0.5994
  104DG      H8 2377  -0.040   3.817   4.451  1.2441  0.4017  1.9606
  104DG      O9 2378   0.217   4.087   3.838  0.5044  0.1519 -0.3846
  104DG     O10 2379   0.075   3.927   4.306  0.1625  0.2623  0.6709
  104DG     C11 2380   0.161   4.205   3.884  0.1171 -0.3452 -0.1361
  104DG     C12 2381  -0.039   3.997   4.276  0.3449  0.1033 -0.1647
  104DG     H13 2382   0.057   4.223   3.854 -0.3336  0.5021  1.7883
  104DG     H14 2383   0.213   4.296   3.855 -1.2309 -0.1283 -2.0335
  104DG     H15 2384  -0.104   4.020   4.361 -0.6264  2.3943 -1.4328
  104DG     H16 2385  -0.097   3.937   4.207 -1.4929 -0.4328  1.7217
  104DG     C17 2386   0.147   4.217   4.040  0.4726  0.7077  0.2820
  104DG     C18 2387  -0.004   4.130   4.210  0.2373  0.0398 -0.1855
  104DG     O19 2388   0.069   4.115   4.091 -0.2957 -0.1996 -0.6821
  104DG     H20 2389   0.123   4.320   4.067 -0.7724  0.2412  1.0103
  104DG     H21 2390   0.248   4.196   4.077  0.5368  3.8760  2.3023
  104DG     H22 2391  -0.085   4.202   4.199  0.9312  1.1847  1.6384
  104DG     H23 2392   0.065   4.181   4.278 -1.7754  3.8567 -0.7259
  105DG      C1 2393   3.531   3.412   1.488 -0.6241 -0.3178 -0.3575
  105DG      C2 2394   3.675   2.644   1.306  0.5946 -0.4720 -0.2590
  105DG      H3 2395   3.568   3.514   1.471 -0.8832 -0.2370 -0.4435
  105DG      H4 2396   3.569   3.383   1.586  3.5833 -2.8178 -2.4424
  105DG      H5 2397   3.422   3.411   1.481 -0.8050  0.7948  1.5297
  105DG      H6 2398   3.716   2.663   1.405  1.4055 -2.2611 -0.2211
  105DG      H7 2399   3.577   2.599   1.321  1.0668 -1.4283 -0.0033
  105DG      H8 2400   3.735   2.567   1.258  2.5343  0.1155  1.0939
  105DG      O9 2401   3.594   3.337   1.390 -0.1366  0.1853  0.5898
  105DG     O10 2402   3.668   2.759   1.224  0.0607 -0.2793  0.8657
  105DG     C11 2403   3.559   3.349   1.256 -0.5696 -0.6669  0.3143
  105DG     C12 2404   3.599   2.865   1.281  0.1170  0.2074  0.1687
  105DG     H13 2405   3.591   3.445   1.214  0.1423 -0.9459  0.2034
  105DG     H14 2406   3.451   3.360   1.249 -0.3456  1.2980 -1.2051
  105DG     H15 2407   3.645   2.886   1.378 -0.1887  1.4572  0.0580
  105DG     H16 2408   3.495   2.842   1.303  0.2735  0.9265  1.8380
  105DG     C17 2409   3.622   3.226   1.189  0.1870  0.3020 -0.5378
  105DG     C18 2410   3.608   2.988   1.190  0.0834 -0.5419 -0.5161
  105DG     O19 2411   3.579   3.108   1.259 -1.0084  0.1103 -0.0760
  105DG     H20 2412   3.731   3.236   1.192  0.1442  0.5514  0.7597
  105DG     H21 2413   3.584   3.215   1.088  0.3160 -2.3060 -0.3693
  105DG     H22 2414   3.714   2.986   1.165 -0.0767 -1.5943 -1.1657
  105DG     H23 2415   3.547   2.983   1.100 -2.2266  1.6422  0.7828
  106DG      C1 2416   5.413   4.280   5.469 -0.3460 -0.0602  0.6659
  106DG      C2 2417   5.104   4.279   6.204 -0.1370  0.4079 -0.9901
  106DG      H3 2418   5.491   4.341   5.426 -0.4610  0.0888  0.6689
  106DG      H4 2419   5.319   4.328   5.442  0.3131  1.3018  0.7056
  106DG      H5 2420   5.422   4.178   5.430 -0.0562 -0.2810  1.2973
  106DG      H6 2421   5.045   4.192   6.175  1.6897 -0.8038 -1.2563
  106DG      H7 2422   5.120   4.277   6.311  0.2316 -1.1326 -1.0458
  106DG      H8 2423   5.046   4.369   6.184  0.2752  0.6256 -1.2314
  106DG      O9 2424   5.438   4.286   5.606 -0.3351  0.5561  1.0954
  106DG     O10 2425   5.229   4.272   6.133  0.2507  0.2271  0.2204
  106DG     C11 2426   5.355   4.202   5.687  0.2019 -0.4873 -0.2744
  106DG     C12 2427   5.304   4.157   6.159 -0.1095  0.0174  0.0840
  106DG     H13 2428   5.328   4.102   5.652 -0.0860 -0.5672  0.1630
  106DG     H14 2429   5.264   4.262   5.695  0.2327 -0.6418  1.7043
  106DG     H15 2430   5.244   4.067   6.167 -1.3819  0.6988 -1.3818
  106DG     H16 2431   5.349   4.170   6.258 -0.5628  1.4000  0.1317
  106DG     C17 2432   5.431   4.191   5.815 -1.0515 -0.1027  0.4795
  106DG     C18 2433   5.411   4.144   6.049 -0.0130 -0.2625 -0.7822
  106DG     O19 2434   5.347   4.150   5.922  0.0749  0.0997  0.1074
  106DG     H20 2435   5.455   4.292   5.848  0.1097 -0.3323  0.3932
  106DG     H21 2436   5.520   4.127   5.805 -1.4079 -0.6486  0.7200
  106DG     H22 2437   5.502   4.202   6.067  0.0045 -0.5569  0.1024
  106DG     H23 2438   5.459   4.047   6.058  1.3428  0.5030  0.9077
  107DG      C1 2439   2.860   2.765   3.007  0.2565  0.5312 -0.8142
  107DG      C2 2440   3.357   2.821   2.302  0.3512 -0.3248 -0.2267
  107DG      H3 2441   2.810   2.861   3.019  2.1670  1.6226 -1.1874
  107DG      H4 2442   2.861   2.695   3.091  1.4903 -0.6985 -1.8073
  107DG      H5 2443   2.819   2.716   2.918  0.2165 -0.4250 -0.2836
  107DG      H6 2444   3.312   2.732   2.257  1.6711 -0.5169 -1.2264
  107DG      H7 2445   3.326   2.913   2.254 -0.7829 -0.4171  0.2913
  107DG      H8 2446   3.464   2.813   2.283  0.4085 -1.5765  0.5020
  107DG      O9 2447   3.000   2.793   2.988 -0.5273 -0.6267  0.3203
  107DG     O10 2448   3.338   2.822   2.434  0.1336 -0.2148 -0.3139
  107DG     C11 2449   3.023   2.852   2.861 -0.5065  0.3085  0.2183
  107DG     C12 2450   3.341   2.946   2.501  0.1029 -0.0936 -0.6995
  107DG     H13 2451   2.962   2.938   2.834  0.8566  1.0565 -0.6447
  107DG     H14 2452   2.990   2.773   2.794  0.1693  1.1408 -1.1374
  107DG     H15 2453   3.256   3.003   2.464  0.1429  1.0824  0.9116
  107DG     H16 2454   3.429   3.008   2.483 -0.0761  0.7316  1.1058
  107DG     C17 2455   3.177   2.883   2.836 -0.1275 -0.0569  0.5495
  107DG     C18 2456   3.335   2.933   2.656  0.5474  0.1164 -0.0826
  107DG     O19 2457   3.201   2.897   2.694  0.4092  0.1268 -0.0468
  107DG     H20 2458   3.244   2.808   2.877 -1.3811 -0.4265  2.0288
  107DG     H21 2459   3.199   2.980   2.882 -3.1336  1.4270 -0.8475
  107DG     H22 2460   3.397   2.846   2.681 -0.1882 -0.0582  1.1513
  107DG     H23 2461   3.388   3.020   2.694  0.7636 -0.7563  1.7263
  108DG      C1 2462   3.061   3.892   1.255 -0.0752  0.4606  0.1787
  108DG      C2 2463   3.268   3.742   0.625  0.5948  0.0928 -0.1393
  108DG      H3 2464   2.957   3.860   1.258  0.3758 -0.9809  0.8673
  108DG      H4 2465   3.059   3.988   1.202  1.7726  0.2865 -0.2603
  108DG      H5 2466   3.109   3.926   1.347  0.1584 -0.5073  0.4194
  108DG      H6 2467   3.211   3.667   0.571 -0.5821 -0.9089  2.3359
  108DG      H7 2468   3.214   3.836   0.609 -0.0976 -0.2493  0.1434
  108DG      H8 2469   3.364   3.756   0.575  1.1302 -0.2609  0.7628
  108DG      O9 2470   3.139   3.806   1.168  0.1239 -0.3867  0.0734
  108DG     O10 2471   3.273   3.709   0.763 -0.3615  1.0533  0.2995
  108DG     C11 2472   3.165   3.683   1.225  0.4561 -0.5401  0.0694
  108DG     C12 2473   3.331   3.580   0.778  0.3087 -0.2566  0.8127
  108DG     H13 2474   3.067   3.636   1.222 -1.4312  3.0304 -1.9469
  108DG     H14 2475   3.198   3.689   1.329  3.1105  0.2752 -0.7411
  108DG     H15 2476   3.431   3.575   0.735 -0.9138  0.7549 -2.3687
  108DG     H16 2477   3.267   3.505   0.732  1.5822 -1.5506  1.0476
  108DG     C17 2478   3.270   3.609   1.150 -1.2385 -0.1129  0.4274
  108DG     C18 2479   3.344   3.557   0.932 -0.2596 -0.6101 -0.3220
  108DG     O19 2480   3.233   3.610   1.015 -0.0285 -0.8376  0.8281
  108DG     H20 2481   3.283   3.505   1.182  2.6387  0.2048  0.3390
  108DG     H21 2482   3.365   3.659   1.168 -0.8328 -0.4588 -0.6579
  108DG     H22 2483   3.351   3.451   0.954 -1.8527 -0.6714  0.0400
  108DG     H23 2484   3.435   3.596   0.977 -2.1134  0.3763  2.9632
  109DG      C1 2485   0.819   1.725   0.664  0.4269 -0.5196  0.2752
  109DG      C2 2486   0.812   1.694  -0.006 -0.2419  0.3664  0.2903
  109DG      H3 2487   0.741   1.794   0.696  0.5312 -0.8000  1.1549
  109DG      H4 2488   0.895   1.715   0.741  1.0483  1.3918 -0.0284
  109DG      H5 2489   0.764   1.631   0.657  3.9503 -2.6721 -1.6494
  109DG      H6 2490   0.745   1.614   0.028  0.3274 -0.2680 -0.0738
  109DG      H7 2491   0.745   1.767  -0.051 -1.8164 -0.9593  0.3395
  109DG      H8 2492   0.886   1.657  -0.076 -0.3261 -0.1478  0.4661
  109DG      O9 2493   0.876   1.779   0.543 -0.1222  0.1073  0.0755
  109DG     O10 2494   0.869   1.768   0.103 -0.4195 -0.6591 -0.1742
  109DG     C11 2495   0.958   1.893   0.567 -0.1852 -0.4440  0.1277
  109DG     C12 2496   0.981   1.858   0.064  0.3767  0.2965 -0.0767
  109DG     H13 2497   1.038   1.896   0.641  0.1206  1.4498 -0.2350
  109DG     H14 2498   0.896   1.978   0.594 -0.0409 -0.8101  1.6914
  109DG     H15 2499   0.946   1.948   0.014 -1.1451  0.8268  1.8099
  109DG     H16 2500   1.063   1.816   0.005  0.3173  1.1002 -0.7539
  109DG     C17 2501   1.037   1.924   0.432 -0.3432  0.1577  0.2413
  109DG     C18 2502   1.050   1.893   0.196 -0.0204 -0.0247  0.0922
  109DG     O19 2503   0.963   1.920   0.304 -0.4162  0.2638  0.1381
  109DG     H20 2504   1.128   1.864   0.425  1.1374  2.3759 -0.4453
  109DG     H21 2505   1.086   2.021   0.437 -0.3312  0.1742 -0.1766
  109DG     H22 2506   1.123   1.814   0.211 -0.3966 -0.7669 -1.7173
  109DG     H23 2507   1.100   1.986   0.169 -2.2597  1.9172  2.2016
  110DG      C1 2508   1.115   0.973   5.336  0.0470 -0.2810 -0.3238
  110DG      C2 2509   1.461   1.018   5.985 -0.1277  0.3836 -0.1988
  110DG      H3 2510   1.210   1.007   5.295  0.3992  1.1072  1.4984
  110DG      H4 2511   1.045   1.042   5.288  1.6919  1.7907  0.1192
  110DG      H5 2512   1.081   0.880   5.291 -0.7603  1.6669 -4.1689
  110DG      H6 2513   1.412   0.937   6.040 -1.1277  1.1516  0.0768
  110DG      H7 2514   1.553   1.043   6.037 -0.3392  3.6808 -1.1782
  110DG      H8 2515   1.394   1.104   5.993  2.3053  2.3489  0.2839
  110DG      O9 2516   1.109   0.989   5.481  0.4057  0.0776  0.5559
  110DG     O10 2517   1.476   0.973   5.846  0.0662 -0.3564 -0.1128
  110DG     C11 2518   1.115   1.122   5.523 -0.4091  0.2753  0.0451
  110DG     C12 2519   1.509   1.080   5.748 -0.1271 -0.0396 -0.9921
  110DG     H13 2520   1.022   1.175   5.505 -0.1804  0.4711 -0.6058
  110DG     H14 2521   1.203   1.162   5.472 -0.4787 -0.4276 -0.6386
  110DG     H15 2522   1.565   1.039   5.665  3.1489  1.2536  0.4012
  110DG     H16 2523   1.591   1.141   5.785 -0.9525  0.0143  0.8995
  110DG     C17 2524   1.153   1.131   5.673 -0.0274  0.6323 -0.2513
  110DG     C18 2525   1.383   1.157   5.712  0.5509  0.3570  0.6651
  110DG     O19 2526   1.278   1.063   5.688  0.0482 -0.3290 -0.3532
  110DG     H20 2527   1.079   1.069   5.724  0.9979 -1.1774 -0.8588
  110DG     H21 2528   1.152   1.230   5.718 -0.6794  0.8890 -0.8205
  110DG     H22 2529   1.360   1.221   5.797 -1.0648 -1.1977  1.4872
  110DG     H23 2530   1.405   1.212   5.621 -1.9861  1.6630  0.7371
  111DG      C1 2531   2.685   4.299   2.149  0.1035  0.0403  0.0031
  111DG      C2 2532   2.033   4.249   1.781 -0.4612 -0.3599 -0.0473
  111DG      H3 2533   2.719   4.234   2.068 -1.8809 -2.8473  1.3079
  111DG      H4 2534   2.636   4.225   2.212 -1.1285 -1.0098 -2.0807
  111DG      H5 2535   2.759   4.360   2.201  1.5443 -1.4138 -0.2537
  111DG      H6 2536   2.047   4.188   1.692 -1.3294 -1.1126  0.3141
  111DG      H7 2537   2.056   4.183   1.864 -1.2969  1.6393  1.8858
  111DG      H8 2538   1.936   4.295   1.800 -1.6630 -2.4248 -0.8883
  111DG      O9 2539   2.573   4.378   2.118  0.6133  0.0195  0.7351
  111DG     O10 2540   2.134   4.354   1.782  0.1371 -0.1406 -0.0796
  111DG     C11 2541   2.595   4.454   1.999  0.4511 -0.2557  0.2173
  111DG     C12 2542   2.117   4.440   1.905 -0.2460  1.3598 -0.3619
  111DG     H13 2543   2.618   4.392   1.912  2.0642  0.5098  0.0607
  111DG     H14 2544   2.680   4.522   2.010  0.7638 -0.4877 -0.6781
  111DG     H15 2545   2.095   4.371   1.986 -0.4390 -0.2138 -1.7100
  111DG     H16 2546   2.033   4.509   1.898 -2.3774 -0.8533  1.6029
  111DG     C17 2547   2.467   4.535   1.967  0.7291  0.2533 -0.1175
  111DG     C18 2548   2.237   4.523   1.943 -0.0288 -0.1213  0.3519
  111DG     O19 2549   2.353   4.444   1.966 -0.0137 -0.1797  0.5029
  111DG     H20 2550   2.485   4.611   1.891  1.4278  0.1147 -0.0946
  111DG     H21 2551   2.453   4.602   2.052  1.6144 -1.4599  1.4286
  111DG     H22 2552   2.262   4.582   1.854  2.9480 -0.3055  0.9523
  111DG     H23 2553   2.220   4.581   2.033 -1.2250 -0.8114  0.5906
  112DG      C1 2554   2.873   3.451   1.473  1.2447 -0.1872  0.2354
  112DG      C2 2555   2.693   3.714   1.059  0.3042  0.3159  0.0990
  112DG      H3 2556   2.879   3.555   1.505  0.6426 -0.0113 -0.2167
  112DG      H4 2557   2.942   3.391   1.532  2.1125 -0.1202 -0.6906
  112DG      H5 2558   2.774   3.408   1.490  1.0152 -0.8613 -2.3403
  112DG      H6 2559   2.626   3.705   1.145 -0.6153 -0.5869 -0.6846
  112DG      H7 2560   2.785   3.660   1.083  0.5589  0.4893 -0.4889
  112DG      H8 2561   2.729   3.815   1.041  1.4791 -0.2973 -1.2214
  112DG      O9 2562   2.902   3.443   1.332 -0.7120 -0.4530 -0.0312
  112DG     O10 2563   2.622   3.650   0.952 -0.5502 -0.5254 -0.0085
  112DG     C11 2564   2.897   3.313   1.272 -0.0560  0.0776  0.0059
  112DG     C12 2565   2.568   3.519   0.987 -0.3998  0.2846  0.2394
  112DG     H13 2566   2.819   3.250   1.314 -0.9036  0.5379 -0.8614
  112DG     H14 2567   2.989   3.255   1.284  0.3834  0.7302 -0.1286
  112DG     H15 2568   2.495   3.507   0.908 -0.8455  1.5284  0.4483
  112DG     H16 2569   2.511   3.518   1.080 -0.3535 -0.7114  0.2690
  112DG     C17 2570   2.857   3.328   1.126  0.4145  0.3001 -0.8910
  112DG     C18 2571   2.676   3.407   0.992  0.6259  0.2748  0.0026
  112DG     O19 2572   2.748   3.412   1.115  0.2200  0.6850 -0.3672
  112DG     H20 2573   2.831   3.227   1.093  0.7066 -0.0723 -0.0149
  112DG     H21 2574   2.937   3.363   1.061  1.3717 -2.5947 -1.4419
  112DG     H22 2575   2.614   3.319   0.973  0.4286  0.8820 -2.5166
  112DG     H23 2576   2.734   3.431   0.903 -0.7401 -0.0128 -1.0002
  113DG      C1 2577   4.864   0.517   4.402 -0.3997  0.1424 -0.6596
  113DG      C2 2578   4.925   0.881   4.833 -0.4790  0.5556 -0.5748
  113DG      H3 2579   4.771   0.460   4.400  0.1245 -0.9712  2.1943
  113DG      H4 2580   4.913   0.511   4.305  1.1954  0.4629  0.0988
  113DG      H5 2581   4.846   0.624   4.414 -0.2271 -0.0144  1.3266
  113DG      H6 2582   4.836   0.912   4.779 -1.8403 -2.6632 -0.4394
  113DG      H7 2583   4.908   0.776   4.859  0.6306  0.4479 -0.2111
  113DG      H8 2584   4.915   0.932   4.929 -3.6045 -1.3029  0.2520
  113DG      O9 2585   4.951   0.462   4.500 -0.2371 -0.2466  0.2350
  113DG     O10 2586   5.049   0.906   4.766 -0.8130 -0.5205  0.3045
  113DG     C11 2587   5.090   0.485   4.490  0.2285  0.2650 -0.4862
  113DG     C12 2588   5.171   0.845   4.814 -0.1031 -0.8475  0.0246
  113DG     H13 2589   5.119   0.565   4.421 -0.3765  0.6781 -0.2736
  113DG     H14 2590   5.132   0.392   4.453 -2.0928 -0.9124 -0.3177
  113DG     H15 2591   5.184   0.867   4.921  1.3583 -1.3118 -0.0323
  113DG     H16 2592   5.251   0.891   4.756 -2.3093  2.4243 -0.7109
  113DG     C17 2593   5.143   0.530   4.631  0.2458 -0.3154  0.2676
  113DG     C18 2594   5.171   0.697   4.800  0.2592  0.6840 -0.4142
  113DG     O19 2595   5.120   0.665   4.669 -0.8378  0.0542  0.0410
  113DG     H20 2596   5.250   0.508   4.626  0.3562  0.2163  0.2036
  113DG     H21 2597   5.105   0.458   4.702 -1.8515  0.6043  0.1653
  113DG     H22 2598   5.263   0.641   4.818 -0.1199 -0.1124 -0.8885
  113DG     H23 2599   5.099   0.662   4.874  1.1990 -0.6627 -0.0920
  114DG      C1 2600   0.337   4.584   0.760 -0.6961 -0.5991  0.0826
  114DG      C2 2601  -0.160   4.951   0.695 -0.1523  0.3019 -0.2341
  114DG      H3 2602   0.315   4.648   0.845 -0.3906  0.8159 -0.8696
  114DG      H4 2603   0.391   4.650   0.691 -0.9691  0.3780  0.7799
  114DG      H5 2604   0.396   4.501   0.800  2.5494  1.5288  0.1386
  114DG      H6 2605  -0.223   4.970   0.782  3.3917  0.8436  2.4555
  114DG      H7 2606  -0.070   5.012   0.710 -0.0598  0.4100 -1.1741
  114DG      H8 2607  -0.208   4.998   0.610  1.7946  0.1406 -1.4740
  114DG      O9 2608   0.215   4.549   0.704 -0.2348 -0.2453 -0.2781
  114DG     O10 2609  -0.128   4.813   0.670 -0.2539  0.4179  0.4691
  114DG     C11 2610   0.140   4.470   0.791 -0.3342 -1.0397  0.0429
  114DG     C12 2611  -0.243   4.724   0.691  0.2586 -0.0891  0.0948
  114DG     H13 2612   0.136   4.512   0.892  0.4215  0.0175 -0.3487
  114DG     H14 2613   0.192   4.375   0.798  0.1272 -0.7304  1.0934
  114DG     H15 2614  -0.323   4.756   0.625  0.5029 -0.4313 -0.3686
  114DG     H16 2615  -0.279   4.740   0.793 -2.1495 -1.8049 -0.4061
  114DG     C17 2616  -0.002   4.459   0.729  0.2345  0.2478  0.1250
  114DG     C18 2617  -0.201   4.581   0.678  0.2592  0.5092 -0.5396
  114DG     O19 2618  -0.083   4.569   0.760 -0.1918 -0.0232  0.0340
  114DG     H20 2619  -0.055   4.371   0.767  2.3394 -1.3247 -0.4076
  114DG     H21 2620   0.015   4.441   0.623  1.6425  0.5416  0.2872
  114DG     H22 2621  -0.281   4.519   0.717  1.2015 -0.4302 -0.0217
  114DG     H23 2622  -0.187   4.561   0.571 -0.1396  0.3080 -0.5561
  115DG      C1 2623   3.318   4.518   0.937  1.4980  0.4915  0.0260
  115DG      C2 2624   3.485   4.633   0.264 -0.2169  0.2357  0.3862
  115DG      H3 2625   3.241   4.481   1.004 -2.4424  0.7605 -3.8788
  115DG      H4 2626   3.344   4.623   0.951 -0.9778  1.2623 -0.6620
  115DG      H5 2627   3.405   4.459   0.966  0.8315 -0.9305 -0.7557
  115DG      H6 2628   3.543   4.712   0.311 -0.7849 -0.3471  2.1610
  115DG      H7 2629   3.545   4.552   0.306  0.8704 -0.0080 -1.5063
  115DG      H8 2630   3.500   4.639   0.156  1.6793  0.2186  0.6201
  115DG      O9 2631   3.268   4.489   0.807  0.4579 -0.2096 -0.2374
  115DG     O10 2632   3.353   4.646   0.321  0.2103 -0.5942 -0.3680
  115DG     C11 2633   3.165   4.579   0.769  0.0889  0.1810  0.1863
  115DG     C12 2634   3.267   4.541   0.305 -0.1022 -0.4056 -0.5064
  115DG     H13 2635   3.198   4.683   0.769 -1.4315  0.6892 -0.1150
  115DG     H14 2636   3.093   4.577   0.852 -1.8210 -3.6227 -1.3270
  115DG     H15 2637   3.322   4.448   0.317 -0.5921 -0.8670 -1.6441
  115DG     H16 2638   3.232   4.537   0.201  1.9474 -0.8796 -1.2247
  115DG     C17 2639   3.113   4.550   0.630 -0.0611  0.1096 -0.5671
  115DG     C18 2640   3.157   4.546   0.408 -0.9833  0.2841  0.2168
  115DG     O19 2641   3.213   4.565   0.538  0.4005 -0.1721  0.0588
  115DG     H20 2642   3.021   4.608   0.617 -1.4487 -1.7646  0.3574
  115DG     H21 2643   3.080   4.447   0.645 -1.1200  0.4862 -0.2471
  115DG     H22 2644   3.080   4.619   0.380 -1.6730 -0.1904  0.8306
  115DG     H23 2645   3.112   4.448   0.395 -0.1150 -0.2933  1.3692
  116DG      C1 2646   2.340   0.670   2.326 -0.6248  0.1290  0.0230
  116DG      C2 2647   2.097  -0.000   2.371 -0.1861 -0.3196  0.4229
  116DG      H3 2648   2.339   0.775   2.297  1.5842  0.4447  0.9204
  116DG      H4 2649   2.426   0.609   2.296 -1.0107 -1.1238  1.3695
  116DG      H5 2650   2.354   0.661   2.434  1.0753 -0.5214 -0.2105
  116DG      H6 2651   2.193  -0.052   2.374 -0.6493 -1.1553  1.8506
  116DG      H7 2652   2.046  -0.016   2.466 -1.0869 -1.6937 -0.2622
  116DG      H8 2653   2.049  -0.056   2.290  2.0139  0.0309 -1.2311
  116DG      O9 2654   2.219   0.606   2.300 -0.3661 -0.4201 -0.1263
  116DG     O10 2655   2.127   0.141   2.357  0.1278 -0.2094  0.0163
  116DG     C11 2656   2.181   0.586   2.163 -0.7158  0.4929  0.1164
  116DG     C12 2657   2.003   0.219   2.349  0.4021  0.0143  0.1863
  116DG     H13 2658   2.258   0.518   2.126  0.4529  0.9180  1.6221
  116DG     H14 2659   2.183   0.686   2.120 -2.3839  0.5308  0.0776
  116DG     H15 2660   1.956   0.216   2.448  0.6927 -1.0368  0.3069
  116DG     H16 2661   1.925   0.181   2.282 -0.1840  0.9029  0.3507
  116DG     C17 2662   2.045   0.524   2.148 -0.0763  0.6328  0.3496
  116DG     C18 2663   2.041   0.362   2.319 -0.0566  0.1581 -0.5311
  116DG     O19 2664   2.050   0.386   2.177 -0.3328 -0.4284  0.4250
  116DG     H20 2665   2.011   0.525   2.044 -0.5496  0.3319  0.4968
  116DG     H21 2666   1.974   0.571   2.215 -0.0219  0.7522  0.3237
  116DG     H22 2667   1.968   0.428   2.367  0.9969  1.1055 -0.1834
  116DG     H23 2668   2.144   0.382   2.349  0.2722  1.3415 -2.2589
  117DG      C1 2669   5.365   2.564   5.343 -0.6473  0.4206 -0.0631
  117DG      C2 2670   5.762   2.177   5.801  0.3223 -0.1006  0.0281
  117DG      H3 2671   5.439   2.580   5.264  0.3381 -1.6546  0.3577
  117DG      H4 2672   5.299   2.649   5.329  1.8751  2.2700 -1.6569
  117DG      H5 2673   5.316   2.472   5.310  0.2324  0.0851 -0.4796
  117DG      H6 2674   5.735   2.128   5.895 -2.6473 -1.2189 -1.2815
  117DG      H7 2675   5.757   2.097   5.726 -3.3510  0.6497 -0.7478
  117DG      H8 2676   5.853   2.237   5.806 -0.2871  0.8299  0.1941
  117DG      O9 2677   5.413   2.549   5.481  0.0762  0.2430 -0.1501
  117DG     O10 2678   5.659   2.271   5.775  0.2269 -0.1209 -0.2876
  117DG     C11 2679   5.307   2.538   5.581  0.0707  0.3274 -0.2152
  117DG     C12 2680   5.640   2.355   5.891  0.1516  0.2108 -0.3842
  117DG     H13 2681   5.251   2.445   5.575 -0.1943  0.5107 -0.5802
  117DG     H14 2682   5.243   2.622   5.556 -0.0957 -0.3059 -2.0149
  117DG     H15 2683   5.732   2.397   5.931  0.5597  0.4659 -1.5380
  117DG     H16 2684   5.584   2.294   5.961 -2.6754  1.7180 -1.2023
  117DG     C17 2685   5.368   2.547   5.721 -0.2263 -0.6997 -0.6746
  117DG     C18 2686   5.550   2.474   5.856 -0.1424 -0.2094  0.2510
  117DG     O19 2687   5.467   2.446   5.744 -0.1155 -0.2413  0.4177
  117DG     H20 2688   5.289   2.547   5.796  0.4274  1.3158  0.1018
  117DG     H21 2689   5.417   2.645   5.724 -0.8688 -0.3693  2.0095
  117DG     H22 2690   5.485   2.477   5.943  0.5601 -0.3961  0.7935
  117DG     H23 2691   5.601   2.570   5.850  2.0545 -1.2868  0.4932
  118DG      C1 2692   1.287   2.670   0.019  0.2460  0.0878  0.5518
  118DG      C2 2693   1.097   2.643   0.688  0.4712 -0.4792  0.1887
  118DG      H3 2694   1.352   2.721  -0.052 -0.6631 -0.1239 -0.4628
  118DG      H4 2695   1.183   2.691  -0.008  0.8194  0.7192 -1.3756
  118DG      H5 2696   1.307   2.564   0.008 -0.0968  0.2331 -2.5293
  118DG      H6 2697   1.092   2.536   0.666  1.1962 -0.0444 -2.4278
  118DG      H7 2698   1.160   2.643   0.777  1.0754  0.4886 -0.2238
  118DG      H8 2699   1.006   2.696   0.714  1.8384  1.6101  1.0001
  118DG      O9 2700   1.307   2.716   0.152 -0.1113 -0.3917 -0.5405
  118DG     O10 2701   1.179   2.705   0.589  0.0585 -0.2956 -0.0015
  118DG     C11 2702   1.319   2.861   0.157 -0.4150 -0.1686  0.2530
  118DG     C12 2703   1.220   2.840   0.616  0.0641  0.0793 -0.2057
  118DG     H13 2704   1.222   2.905   0.138 -0.1103 -0.2920 -1.8006
  118DG     H14 2705   1.383   2.895   0.075 -2.3910 -0.5027 -1.5167
  118DG     H15 2706   1.267   2.852   0.714 -0.4848  1.0024 -0.0401
  118DG     H16 2707   1.131   2.902   0.605 -1.4324 -2.1065 -1.0306
  118DG     C17 2708   1.376   2.904   0.290  0.2864 -0.3463  0.2650
  118DG     C18 2709   1.336   2.874   0.525  0.0194  0.0428 -0.0350
  118DG     O19 2710   1.285   2.853   0.391 -0.0556  0.2087 -0.1765
  118DG     H20 2711   1.377   3.012   0.298  0.2659 -0.2475 -0.9388
  118DG     H21 2712   1.478   2.867   0.296 -0.0965 -1.6198 -0.5677
  118DG     H22 2713   1.366   2.978   0.534 -1.2381  0.6258 -1.9993
  118DG     H23 2714   1.419   2.805   0.542  0.8034  1.1198  0.6423
  119DG      C1 2715   3.623   5.059   1.437 -0.3246 -0.7374 -0.0915
  119DG      C2 2716   3.059   5.097   0.806 -0.0117  0.2932  0.0430
  119DG      H3 2717   3.603   5.166   1.447  0.2531 -0.6452  0.1016
  119DG      H4 2718   3.694   5.043   1.357  0.2560 -0.6853  0.4076
  119DG      H5 2719   3.684   5.023   1.520  0.3483 -1.5775 -0.9373
  119DG      H6 2720   2.980   5.028   0.777 -0.5073  0.5523  0.7572
  119DG      H7 2721   3.004   5.188   0.786 -1.7201 -1.3739 -3.9289
  119DG      H8 2722   3.142   5.083   0.737 -1.6484  0.1405 -2.0016
  119DG      O9 2723   3.498   4.994   1.409  0.2199  0.3757 -0.0997
  119DG     O10 2724   3.091   5.067   0.942  0.6949  0.2582 -0.2451
  119DG     C11 2725   3.448   5.029   1.288  0.0419  0.6227 -1.1000
  119DG     C12 2726   3.111   4.921   0.964  0.5348 -0.6759 -0.2516
  119DG     H13 2727   3.526   5.015   1.213  0.2930  0.0536 -0.7415
  119DG     H14 2728   3.422   5.135   1.279 -0.2409  0.6006 -0.5829
  119DG     H15 2729   3.184   4.884   0.892 -0.5670 -1.8050 -0.8296
  119DG     H16 2730   3.022   4.864   0.938  0.8841 -0.1478 -2.9041
  119DG     C17 2731   3.334   4.931   1.268  0.2117 -0.6665 -0.7343
  119DG     C18 2732   3.165   4.890   1.109 -0.7094  0.8134 -0.7346
  119DG     O19 2733   3.283   4.968   1.145  0.1343  0.5677  0.0459
  119DG     H20 2734   3.255   4.949   1.341  1.7522  2.2508  0.3799
  119DG     H21 2735   3.369   4.828   1.266  1.4260 -0.2836 -0.1536
  119DG     H22 2736   3.091   4.908   1.188  1.7861  0.1683  1.9292
  119DG     H23 2737   3.191   4.785   1.114 -2.6092  0.2597 -1.7926
  120DG      C1 2738   0.309   3.882   3.260  0.1710 -0.4531  0.2721
  120DG      C2 2739   0.341   3.221   2.999 -0.5154 -0.3766 -0.5704
  120DG      H3 2740   0.314   3.850   3.364 -0.4206  0.9794  0.7667
  120DG      H4 2741   0.204   3.885   3.231 -0.3265 -2.2254  1.6811
  120DG      H5 2742   0.356   3.980   3.265  1.9468 -1.0410 -2.4633
  120DG      H6 2743   0.441   3.201   2.960 -1.2233 -4.5569 -0.6901
  120DG      H7 2744   0.337   3.178   3.099 -0.2684  4.7227  1.9581
  120DG      H8 2745   0.274   3.173   2.927  0.0164 -1.8479 -0.1274
  120DG      O9 2746   0.411   3.816   3.189  0.3862  0.1808 -0.1892
  120DG     O10 2747   0.327   3.362   3.001 -0.2655 -0.0752  0.3729
  120DG     C11 2748   0.404   3.849   3.051  0.1850 -0.6278 -0.0696
  120DG     C12 2749   0.196   3.412   3.025  0.6311  0.8980  0.0025
  120DG     H13 2750   0.502   3.826   3.010  0.9831  1.4089  0.5960
  120DG     H14 2751   0.392   3.955   3.031 -0.0820 -0.5589  0.4276
  120DG     H15 2752   0.175   3.405   3.132  2.9179 -1.4185  0.4037
  120DG     H16 2753   0.130   3.339   2.978  2.4647 -1.0169  0.2579
  120DG     C17 2754   0.292   3.765   2.983 -0.1620  0.4466  0.4423
  120DG     C18 2755   0.190   3.556   2.976  0.0287 -0.7744 -0.1301
  120DG     O19 2756   0.297   3.637   3.036  0.6221  0.7458 -0.3650
  120DG     H20 2757   0.317   3.758   2.877 -1.2503  2.0982  0.0301
  120DG     H21 2758   0.200   3.823   2.991 -0.0769  0.4763  1.2532
  120DG     H22 2759   0.203   3.557   2.868 -1.4173 -0.9152 -0.3199
  120DG     H23 2760   0.097   3.605   3.005 -0.1094 -0.3816 -1.1906
  121DG      C1 2761   1.119   1.739   0.956  0.3411 -0.1085 -0.5520
  121DG      C2 2762   1.303   1.617   1.600  0.0308  0.0988 -0.2085
  121DG      H3 2763   1.014   1.736   0.985  0.1279 -3.0956 -1.3021
  121DG      H4 2764   1.122   1.631   0.939 -0.0744 -0.2896  0.4226
  121DG      H5 2765   1.136   1.777   0.856 -2.4193 -0.6854 -1.3445
  121DG      H6 2766   1.253   1.528   1.563  0.6069  0.1438 -1.1467
  121DG      H7 2767   1.399   1.598   1.647  0.4667  1.1636 -0.6378
  121DG      H8 2768   1.240   1.661   1.677  0.7755 -2.0540  1.7246
  121DG      O9 2769   1.209   1.769   1.059  0.2622  0.0966 -0.5518
  121DG     O10 2770   1.308   1.707   1.492 -0.0574  0.4582 -0.2915
  121DG     C11 2771   1.196   1.908   1.086 -0.7746 -0.2637  0.3011
  121DG     C12 2772   1.342   1.844   1.529 -0.1743  0.4439  0.2441
  121DG     H13 2773   1.100   1.932   1.132 -0.8752  0.7727 -0.4099
  121DG     H14 2774   1.197   1.979   1.003  1.6164  2.5867  2.5076
  121DG     H15 2775   1.424   1.840   1.601 -0.9885 -1.4206  1.1462
  121DG     H16 2776   1.248   1.887   1.565 -1.0889  0.3325 -1.8775
  121DG     C17 2777   1.308   1.954   1.186  0.4336  0.3080 -0.3835
  121DG     C18 2778   1.382   1.911   1.398 -0.3199 -0.1465 -0.1673
  121DG     O19 2779   1.282   1.890   1.302 -0.0147  0.2118  0.3597
  121DG     H20 2780   1.312   2.061   1.204  0.4896  0.2978 -0.3351
  121DG     H21 2781   1.405   1.912   1.160 -0.2053 -1.8465  0.4989
  121DG     H22 2782   1.414   2.015   1.405 -1.0493  0.1042 -0.3610
  121DG     H23 2783   1.463   1.847   1.365 -1.9608 -1.9428 -0.9274
  122DG      C1 2784   3.891   3.521   2.315  0.5510 -0.5337 -0.3896
  122DG      C2 2785   3.671   3.810   1.732 -0.0120 -1.6544  0.1612
  122DG      H3 2786   3.985   3.575   2.307 -0.3178  1.0028 -0.7229
  122DG      H4 2787   3.900   3.434   2.250  0.0883 -0.7592 -0.1618
  122DG      H5 2788   3.865   3.491   2.417 -0.1691 -0.4432 -0.5358
  122DG      H6 2789   3.665   3.917   1.708 -0.2783 -2.2709 -2.9805
  122DG      H7 2790   3.773   3.783   1.707  0.5887 -0.7670  1.5462
  122DG      H8 2791   3.597   3.759   1.670 -0.9233 -0.7592  0.4803
  122DG      O9 2792   3.788   3.600   2.255 -0.2060 -0.0973 -0.2843
  122DG     O10 2793   3.648   3.803   1.873 -0.7807  0.2254  0.0275
  122DG     C11 2794   3.740   3.702   2.340 -0.1255 -0.1400 -0.3334
  122DG     C12 2795   3.556   3.892   1.934  0.4969 -0.5833  0.0287
  122DG     H13 2796   3.817   3.780   2.348 -0.6831  0.5118 -1.1105
  122DG     H14 2797   3.719   3.664   2.439 -0.9316 -0.4246 -0.6029
  122DG     H15 2798   3.458   3.890   1.887 -0.5862 -2.3274  2.1488
  122DG     H16 2799   3.597   3.993   1.933 -1.3808  0.2444 -1.8630
  122DG     C17 2800   3.610   3.762   2.276 -0.3162  0.2652  0.9923
  122DG     C18 2801   3.525   3.847   2.075 -0.1055 -0.3988 -0.6636
  122DG     O19 2802   3.643   3.801   2.143  0.2005  0.1480  0.7946
  122DG     H20 2803   3.572   3.839   2.343  0.6757 -0.6192  2.6534
  122DG     H21 2804   3.544   3.677   2.262 -0.2373  0.4558 -0.7326
  122DG     H22 2805   3.476   3.920   2.138 -0.7898 -1.0648 -0.4063
  122DG     H23 2806   3.458   3.762   2.060  1.6027 -1.8308 -0.6051
  123DG      C1 2807   2.567   1.480   4.156  0.0705 -0.1959  0.6358
  123DG      C2 2808   3.172   1.757   4.425  0.4682  0.3112 -0.2495
  123DG      H3 2809   2.519   1.443   4.246  1.9075  1.3546  2.3637
  123DG      H4 2810   2.537   1.423   4.068  2.4839 -0.5214 -0.0363
  123DG      H5 2811   2.545   1.585   4.137  2.4953  0.6312  1.9870
  123DG      H6 2812   3.203   1.726   4.525 -4.7245 -1.9467  0.9591
  123DG      H7 2813   3.252   1.825   4.394 -0.7034  0.7071 -2.6578
  123DG      H8 2814   3.080   1.813   4.441  0.9289  0.4348  2.4166
  123DG      O9 2815   2.709   1.483   4.169  0.2858  0.5111  0.2843
  123DG     O10 2816   3.157   1.649   4.327  0.2449  0.5846  0.2594
  123DG     C11 2817   2.772   1.358   4.176 -0.2379 -0.5529 -0.2345
  123DG     C12 2818   3.115   1.678   4.192  0.4491  0.0346  0.0295
  123DG     H13 2819   2.715   1.276   4.133 -0.2321 -0.4216 -0.4905
  123DG     H14 2820   2.796   1.331   4.279  0.7049 -1.7930 -0.7475
  123DG     H15 2821   3.198   1.726   4.141  1.1245 -0.0228  1.0358
  123DG     H16 2822   3.020   1.732   4.187 -0.1349 -0.9675  0.0522
  123DG     C17 2823   2.917   1.370   4.126  0.4903  0.7421  0.5268
  123DG     C18 2824   3.084   1.542   4.128  0.9743  0.4512  0.3097
  123DG     O19 2825   2.974   1.477   4.196 -0.2361  0.2700  0.1972
  123DG     H20 2826   2.913   1.405   4.022  0.4049  2.1694  0.9864
  123DG     H21 2827   2.968   1.274   4.134 -1.1476 -0.1491  0.5337
  123DG     H22 2828   3.064   1.556   4.021 -0.5597  0.8528  0.6160
  123DG     H23 2829   3.165   1.475   4.156  0.5862  0.6075  1.8731
  124DG      C1 2830   2.641   0.022   2.856  0.5579 -0.3248 -0.6286
  124DG      C2 2831   2.040  -0.243   3.057  0.9635  0.3354  0.0309
  124DG      H3 2832   2.732   0.021   2.916  0.4839 -0.0501 -0.5105
  124DG      H4 2833   2.633   0.107   2.789  1.0146 -0.4006 -0.7794
  124DG      H5 2834   2.637  -0.072   2.801 -0.3969 -0.4104 -0.4234
  124DG      H6 2835   1.974  -0.211   2.976  1.0946 -0.5680 -0.4541
  124DG      H7 2836   2.089  -0.337   3.029  0.1066 -0.3079  0.6555
  124DG      H8 2837   1.968  -0.261   3.137 -1.2745  0.3334 -1.8765
  124DG      O9 2838   2.539   0.020   2.951  0.5656  0.9707  0.0608
  124DG     O10 2839   2.121  -0.139   3.083  0.0988  0.0664  0.2364
  124DG     C11 2840   2.501   0.151   3.001 -0.1087 -0.0669 -0.1411
  124DG     C12 2841   2.180  -0.127   3.211  0.1241 -0.1227  0.7123
  124DG     H13 2842   2.436   0.202   2.930 -1.3460 -1.5657 -0.1333
  124DG     H14 2843   2.584   0.219   3.023 -0.5378  0.0746  1.0946
  124DG     H15 2844   2.251  -0.208   3.228  0.5873  0.3497  1.0753
  124DG     H16 2845   2.112  -0.146   3.294 -0.5960 -0.7496  0.0019
  124DG     C17 2846   2.428   0.135   3.129  0.0796 -0.1140 -0.5050
  124DG     C18 2847   2.245   0.010   3.225 -0.4340  0.3485  0.4019
  124DG     O19 2848   2.332   0.035   3.117 -0.4084  0.3877  0.2933
  124DG     H20 2849   2.377   0.229   3.154 -1.1571 -0.6250 -1.0307
  124DG     H21 2850   2.496   0.108   3.209 -0.2097  0.0365 -0.2087
  124DG     H22 2851   2.172   0.091   3.232  1.9904  2.7320 -0.0045
  124DG     H23 2852   2.304   0.019   3.316  3.7838 -1.5351 -1.8638
  125DG      C1 2853   2.668   2.329   3.010  0.6240  0.3617 -0.1814
  125DG      C2 2854   3.364   2.079   3.131  0.0715 -0.1379  0.3726
  125DG      H3 2855   2.699   2.401   2.934  0.4589 -0.6788 -1.2760
  125DG      H4 2856   2.582   2.370   3.061  0.8360 -1.1369  1.5212
  125DG      H5 2857   2.646   2.235   2.959  2.8502  0.4328 -1.4371
  125DG      H6 2858   3.385   2.185   3.123  0.7629 -0.1482  1.7324
  125DG      H7 2859   3.429   2.029   3.204  0.2224  0.8326  0.9163
  125DG      H8 2860   3.350   2.026   3.036 -1.2753 -0.5738  0.7931
  125DG      O9 2861   2.785   2.322   3.103  0.7093  0.7712  0.6477
  125DG     O10 2862   3.232   2.060   3.193  0.2192  0.2191 -0.1058
  125DG     C11 2863   2.766   2.239   3.215  0.3411 -0.0518  0.1569
  125DG     C12 2864   3.219   2.125   3.322 -0.2281  0.3557 -0.4336
  125DG     H13 2865   2.755   2.131   3.203  2.1020 -0.4183  1.4544
  125DG     H14 2866   2.678   2.278   3.266  0.1949 -0.7531  0.4567
  125DG     H15 2867   3.258   2.226   3.308 -1.2669  0.9157  0.5521
  125DG     H16 2868   3.291   2.079   3.390  0.9539  0.2524 -1.7009
  125DG     C17 2869   2.878   2.259   3.319 -0.2307 -0.0632 -0.2356
  125DG     C18 2870   3.075   2.127   3.368 -0.1377 -0.2367  0.7146
  125DG     O19 2871   3.009   2.208   3.269 -0.1626 -0.0949  1.0282
  125DG     H20 2872   2.844   2.204   3.407  1.3839  2.9064  2.4595
  125DG     H21 2873   2.891   2.364   3.344 -0.3923 -0.4247  1.5036
  125DG     H22 2874   3.036   2.027   3.388 -1.6136  0.5469  1.9977
  125DG     H23 2875   3.069   2.170   3.468 -0.4152  1.7756 -0.1396
  126DG      C1 2876   2.675   2.028   0.248  0.0690 -0.3989  0.7538
  126DG      C2 2877   2.330   2.043  -0.311  0.7684  0.8546  0.4314
  126DG      H3 2878   2.634   2.097   0.322 -1.4244 -2.9822  2.4976
  126DG      H4 2879   2.717   2.083   0.164 -1.0264  1.8802  1.6142
  126DG      H5 2880   2.754   1.971   0.298  0.6862 -0.6106 -0.4329
  126DG      H6 2881   2.231   2.039  -0.356 -0.4526 -0.5738  3.0024
  126DG      H7 2882   2.325   2.150  -0.288 -0.9539  0.5660  1.5973
  126DG      H8 2883   2.413   2.030  -0.380 -0.3604 -1.8228 -0.5272
  126DG      O9 2884   2.565   1.940   0.219 -0.2446 -0.0444  0.1431
  126DG     O10 2885   2.351   1.956  -0.196  0.0453  0.5391 -0.4809
  126DG     C11 2886   2.617   1.819   0.179 -0.0148  0.2556  0.2127
  126DG     C12 2887   2.377   1.823  -0.228 -0.1365 -0.0330 -0.2732
  126DG     H13 2888   2.649   1.759   0.263 -2.2008 -1.7752 -0.2980
  126DG     H14 2889   2.694   1.828   0.102  0.0116 -1.2092  0.0512
  126DG     H15 2890   2.467   1.832  -0.289  1.5026 -0.7652  1.9201
  126DG     H16 2891   2.299   1.782  -0.292  1.3930 -1.1828 -1.4770
  126DG     C17 2892   2.510   1.736   0.105  0.8393 -0.7560  0.4142
  126DG     C18 2893   2.401   1.729  -0.104  0.2298  0.3954 -0.1016
  126DG     O19 2894   2.483   1.803  -0.021 -0.0210  0.3691  0.1260
  126DG     H20 2895   2.415   1.744   0.157 -0.2143 -0.1303 -1.5086
  126DG     H21 2896   2.537   1.630   0.102  2.6830 -0.3080 -0.9365
  126DG     H22 2897   2.307   1.711  -0.054  0.5010  0.6073  0.4873
  126DG     H23 2898   2.457   1.638  -0.126 -2.4167 -1.0255 -1.3830
  127DG      C1 2899   2.935   1.084   2.655 -0.0812 -0.6158 -0.0692
  127DG      C2 2900   3.272   0.803   2.783 -0.3798  0.8718 -0.9495
  127DG      H3 2901   2.908   1.029   2.565 -1.6538 -1.3647  0.8185
  127DG      H4 2902   3.036   1.123   2.643 -0.6875  0.5457 -1.8024
  127DG      H5 2903   2.861   1.163   2.666 -2.1455 -2.3447 -0.7611
  127DG      H6 2904   3.373   0.837   2.760 -0.2917  0.7572 -0.7334
  127DG      H7 2905   3.245   0.723   2.715 -0.7450 -0.0061  0.1852
  127DG      H8 2906   3.193   0.875   2.763 -1.9162 -0.4919 -0.0068
  127DG      O9 2907   2.932   1.008   2.773  0.0113  0.7449  0.3432
  127DG     O10 2908   3.278   0.743   2.916 -0.3848  0.3550  0.1935
  127DG     C11 2909   2.840   0.902   2.765 -0.0731 -1.0622 -0.0568
  127DG     C12 2910   3.187   0.632   2.943  0.3119  0.6200  0.0932
  127DG     H13 2911   2.842   0.856   2.666  1.2340  0.7440 -0.9248
  127DG     H14 2912   2.743   0.951   2.767  1.4507  2.2524 -0.4564
  127DG     H15 2913   3.197   0.606   3.048  0.4804 -0.1352 -0.1025
  127DG     H16 2914   3.218   0.545   2.885 -1.9733 -1.1012  1.3093
  127DG     C17 2915   2.856   0.812   2.888 -0.3906 -0.2819  0.3405
  127DG     C18 2916   3.033   0.649   2.899 -0.1852 -0.1400 -0.4826
  127DG     O19 2917   2.989   0.781   2.934  0.3144  0.0598  0.1778
  127DG     H20 2918   2.812   0.716   2.861  0.1974 -0.9213  1.5315
  127DG     H21 2919   2.799   0.846   2.974 -2.5818  2.3900 -1.9616
  127DG     H22 2920   3.032   0.636   2.791  0.5060  2.9600 -0.9681
  127DG     H23 2921   2.973   0.568   2.940  0.5228 -0.9564 -1.0222
  128DG      C1 2922   3.483   3.969   4.200 -0.2625 -0.2592 -0.0375
  128DG      C2 2923   2.938   4.041   3.817  0.5029 -0.4475  0.3911
  128DG      H3 2924   3.515   4.072   4.215 -0.4992 -0.2275  0.2508
  128DG      H4 2925   3.570   3.908   4.225 -1.5207 -1.0910  2.7041
  128DG      H5 2926   3.405   3.947   4.272  0.1698 -2.8857 -0.2496
  128DG      H6 2927   2.902   3.945   3.854  0.5822 -0.2722  0.9388
  128DG      H7 2928   2.916   4.114   3.895 -1.6126  0.6665 -1.1564
  128DG      H8 2929   2.889   4.064   3.723  1.8226  1.6135  0.1422
  128DG      O9 2930   3.433   3.946   4.073  0.4605 -0.5992 -0.2594
  128DG     O10 2931   3.077   4.044   3.797 -0.8639 -0.1657 -0.2097
  128DG     C11 2932   3.526   3.974   3.973  0.2355 -0.1804  0.5493
  128DG     C12 2933   3.128   3.949   3.704 -0.0325 -0.4170 -0.5086
  128DG     H13 2934   3.611   3.905   3.975  1.4566  1.1448 -1.6987
  128DG     H14 2935   3.573   4.070   3.994 -2.2596  1.9653 -2.6125
  128DG     H15 2936   3.070   3.967   3.614  1.8069  0.4309 -1.5813
  128DG     H16 2937   3.112   3.846   3.736 -0.9208 -0.1899 -0.2073
  128DG     C17 2938   3.476   3.974   3.831 -0.1787  0.5466  0.5177
  128DG     C18 2939   3.283   3.974   3.688  0.3721 -0.2363  0.0438
  128DG     O19 2940   3.340   3.958   3.822 -0.1195  0.4980  0.2870
  128DG     H20 2941   3.520   3.890   3.777  1.2873 -1.1882  4.1100
  128DG     H21 2942   3.517   4.067   3.791  0.5248 -0.2528 -0.6897
  128DG     H22 2943   3.324   3.914   3.606  1.6012 -1.2548  1.3562
  128DG     H23 2944   3.303   4.078   3.665 -1.9032  0.5241  1.2020
  129DG      C1 2945   4.841   2.515   2.909  0.1507 -0.8235  0.5989
  129DG      C2 2946   5.120   2.628   3.554  0.2036  0.5339  0.7370
  129DG      H3 2947   4.859   2.540   2.804  0.1135 -0.3622  0.7002
  129DG      H4 2948   4.776   2.580   2.967  0.0539  0.9700 -1.3993
  129DG      H5 2949   4.795   2.417   2.917 -1.3071 -0.2870 -0.6639
  129DG      H6 2950   5.023   2.666   3.586 -0.2269  0.5217 -0.4906
  129DG      H7 2951   5.159   2.572   3.639  0.9331  0.3040  0.2593
  129DG      H8 2952   5.190   2.711   3.539  0.5964  0.0675 -0.0556
  129DG      O9 2953   4.962   2.511   2.984  0.0739  0.3730  0.6266
  129DG     O10 2954   5.098   2.559   3.434  0.1241 -0.4761 -0.1634
  129DG     C11 2955   5.041   2.634   2.963  0.1591 -0.1314  0.5944
  129DG     C12 2956   5.212   2.496   3.387  0.6534  0.7372  0.3823
  129DG     H13 2957   4.972   2.716   2.985 -0.9242 -0.3227 -1.7428
  129DG     H14 2958   5.072   2.623   2.859 -0.6159  0.9502  0.2329
  129DG     H15 2959   5.185   2.390   3.378 -0.5115  0.5507  4.2181
  129DG     H16 2960   5.295   2.492   3.457  0.4668  0.3392  0.5831
  129DG     C17 2961   5.166   2.629   3.048 -0.3030 -0.0962  0.0417
  129DG     C18 2962   5.251   2.569   3.257 -0.0369 -0.4381 -0.0242
  129DG     O19 2963   5.134   2.581   3.184  0.1436  0.2391  0.5489
  129DG     H20 2964   5.212   2.728   3.041 -0.7384  0.1466  0.5100
  129DG     H21 2965   5.233   2.570   2.985 -1.6466 -0.0531 -1.4830
  129DG     H22 2966   5.304   2.662   3.276  1.3273 -0.8345 -1.6412
  129DG     H23 2967   5.320   2.501   3.207  0.6438  1.1943 -1.4224
  130DG      C1 2968   1.627   2.515   2.049 -0.7105 -0.1619 -0.5691
  130DG      C2 2969   1.545   1.758   2.268  0.1521 -0.3526  0.2421
  130DG      H3 2970   1.547   2.543   1.980 -0.4240 -0.8050 -1.1772
  130DG      H4 2971   1.716   2.490   1.991 -1.1811  1.2086 -1.9702
  130DG      H5 2972   1.652   2.609   2.100 -1.7602 -1.0263  1.6363
  130DG      H6 2973   1.470   1.769   2.190 -0.5587 -0.3907  0.9130
  130DG      H7 2974   1.617   1.680   2.241  0.2486 -0.5723  1.1009
  130DG      H8 2975   1.487   1.714   2.349 -1.0087  0.6524 -0.0199
  130DG      O9 2976   1.598   2.416   2.151  0.4679 -0.5897  0.2830
  130DG     O10 2977   1.601   1.876   2.312 -0.2763 -0.0880 -0.3782
  130DG     C11 2978   1.722   2.375   2.218  0.5326  0.0626 -0.1270
  130DG     C12 2979   1.510   1.969   2.366 -0.5227  0.2198 -0.1398
  130DG     H13 2980   1.780   2.463   2.245 -1.0679  1.1600 -0.0987
  130DG     H14 2981   1.778   2.309   2.152  0.5691  0.8829 -0.9374
  130DG     H15 2982   1.456   1.925   2.451  0.9933 -0.9569  0.2632
  130DG     H16 2983   1.436   1.991   2.289 -1.8788 -1.1767  0.6898
  130DG     C17 2984   1.700   2.294   2.337 -0.6959  0.4879 -0.1222
  130DG     C18 2985   1.594   2.090   2.408 -0.0706 -0.0608  0.0900
  130DG     O19 2986   1.645   2.170   2.297 -0.4590 -0.2748 -0.8148
  130DG     H20 2987   1.650   2.348   2.417  0.4335 -0.0998  1.0163
  130DG     H21 2988   1.798   2.282   2.384 -1.1185 -0.3269  0.5623
  130DG     H22 2989   1.530   2.161   2.459 -0.9192 -1.9334  1.8058
  130DG     H23 2990   1.665   2.060   2.485 -1.7015  0.4540  1.8824
  131DG      C1 2991   5.447   2.130   4.215 -0.6001  0.2368 -0.2758
  131DG      C2 2992   5.275   1.607   4.503  0.4005 -0.2712 -0.7979
  131DG      H3 2993   5.479   2.232   4.192 -3.2910  0.9631 -1.2306
  131DG      H4 2994   5.370   2.101   4.143 -2.2016  0.3549  1.3208
  131DG      H5 2995   5.532   2.066   4.193 -1.2290 -1.2286  1.3359
  131DG      H6 2996   5.232   1.540   4.578 -0.1247  1.1509  0.2292
  131DG      H7 2997   5.216   1.594   4.412  0.7327 -0.3686 -0.9987
  131DG      H8 2998   5.377   1.581   4.474  0.2107 -1.2053 -0.6685
  131DG      O9 2999   5.412   2.097   4.345  0.0501  0.2413 -0.1244
  131DG     O10 3000   5.291   1.738   4.552 -0.8735  0.6814  0.3122
  131DG     C11 3001   5.504   2.140   4.445  0.2553  0.3612 -0.4986
  131DG     C12 3002   5.375   1.749   4.669 -0.3578  0.8493 -0.0204
  131DG     H13 3003   5.505   2.249   4.437 -0.7140  0.5788  1.6824
  131DG     H14 3004   5.603   2.101   4.421  1.0806  0.1900  2.7219
  131DG     H15 3005   5.473   1.701   4.658 -1.3734 -1.4317  0.3045
  131DG     H16 3006   5.329   1.705   4.758  2.9826  0.3445  1.6173
  131DG     C17 3007   5.456   2.093   4.586 -0.7548 -0.2088  0.2831
  131DG     C18 3008   5.390   1.898   4.695 -0.6735  0.1621 -0.5292
  131DG     O19 3009   5.449   1.954   4.577 -0.0384 -0.2194 -0.5886
  131DG     H20 3010   5.355   2.129   4.604 -1.0931 -0.4161 -1.0782
  131DG     H21 3011   5.527   2.134   4.658  0.2421  0.4521 -1.0172
  131DG     H22 3012   5.298   1.947   4.727 -0.6923 -0.7628  0.9430
  131DG     H23 3013   5.457   1.898   4.781 -2.2910 -0.3174  0.7741
  132DG      C1 3014   1.840   3.844   2.716 -0.3286 -0.5617 -0.9456
  132DG      C2 3015   1.933   4.017   2.172  0.1568 -0.1423 -0.2066
  132DG      H3 3016   1.865   3.950   2.712 -0.5876 -0.5474 -3.6182
  132DG      H4 3017   1.935   3.791   2.718  1.2737  2.1130 -0.2719
  132DG      H5 3018   1.802   3.818   2.815  1.8043 -0.2271  0.0298
  132DG      H6 3019   1.953   4.121   2.197 -1.5822  0.3831 -0.8764
  132DG      H7 3020   1.933   3.964   2.267 -4.7230  0.3110  0.2974
  132DG      H8 3021   2.005   3.977   2.101 -1.7363 -2.3343 -1.0353
  132DG      O9 3022   1.774   3.806   2.594 -0.1681  0.2451 -0.4532
  132DG     O10 3023   1.795   4.009   2.119 -0.0319  0.1835  0.0116
  132DG     C11 3024   1.650   3.865   2.573 -0.0270 -0.0512 -0.3870
  132DG     C12 3025   1.748   3.875   2.097  0.0489  0.3501 -0.4541
  132DG     H13 3026   1.666   3.973   2.579 -0.2637 -0.0558  0.3394
  132DG     H14 3027   1.575   3.829   2.643 -2.4470  0.2445 -2.6554
  132DG     H15 3028   1.826   3.799   2.103 -0.2906 -0.2601 -2.9121
  132DG     H16 3029   1.700   3.875   1.999 -0.9217  0.2778  0.0037
  132DG     C17 3030   1.599   3.829   2.431 -0.3025  0.1292 -0.3018
  132DG     C18 3031   1.645   3.837   2.203 -0.0756 -0.1320 -0.1625
  132DG     O19 3032   1.693   3.872   2.333 -1.0335  0.0484  0.3713
  132DG     H20 3033   1.498   3.865   2.415 -0.3649  1.1476  1.9906
  132DG     H21 3034   1.597   3.720   2.432 -1.8154  0.1290  1.0198
  132DG     H22 3035   1.557   3.897   2.181  0.6555  0.5266 -1.4138
  132DG     H23 3036   1.621   3.731   2.195 -1.4899  0.1294  0.4054
  133DG      C1 3037   3.494   0.357   0.956  0.2222 -0.0438 -0.4028
  133DG      C2 3038   3.771   0.864   1.274  0.1869 -0.1006  0.0775
  133DG      H3 3039   3.414   0.385   1.024 -0.8505 -1.6052 -0.9462
  133DG      H4 3040   3.493   0.248   0.945  1.1997 -0.1898  0.8278
  133DG      H5 3041   3.462   0.392   0.857  0.0950  0.4705 -0.1802
  133DG      H6 3042   3.780   0.958   1.220 -0.3105  0.3236  0.7277
  133DG      H7 3043   3.671   0.860   1.318  0.1954  1.4376  0.2727
  133DG      H8 3044   3.847   0.873   1.351  0.3492  0.5359 -0.1527
  133DG      O9 3045   3.623   0.404   0.996  0.0145  0.2900  0.1253
  133DG     O10 3046   3.794   0.745   1.189 -0.3057 -0.7785 -0.1826
  133DG     C11 3047   3.733   0.348   0.933 -0.2683 -0.5679  0.3359
  133DG     C12 3048   3.884   0.771   1.079  0.3183  0.4882  0.5691
  133DG     H13 3049   3.725   0.369   0.826 -0.0093 -2.9940 -0.2093
  133DG     H14 3050   3.754   0.241   0.936  1.0027 -0.5035 -2.6747
  133DG     H15 3051   3.965   0.840   1.104 -0.2477  0.6410  2.1498
  133DG     H16 3052   3.834   0.806   0.989 -0.0508  0.9139  0.9297
  133DG     C17 3053   3.853   0.420   0.981  0.7371  0.1224 -0.2653
  133DG     C18 3054   3.939   0.631   1.030  1.2245  0.2596 -0.0872
  133DG     O19 3055   3.824   0.558   0.992  0.6474  0.2172  0.0511
  133DG     H20 3056   3.945   0.392   0.929  0.8725  0.2154 -0.0769
  133DG     H21 3057   3.857   0.395   1.087  0.7663 -0.8820 -0.4943
  133DG     H22 3058   4.022   0.631   0.960 -0.5033  0.0004 -2.2762
  133DG     H23 3059   3.979   0.584   1.119  0.1215  1.2728  0.9858
  134DG      C1 3060   4.968   2.895   3.315  0.1502 -0.6552 -0.1933
  134DG      C2 3061   4.728   3.557   3.274  1.0136  0.0341 -0.5133
  134DG      H3 3062   4.870   2.856   3.288  0.6703 -0.9273 -1.7847
  134DG      H4 3063   5.012   2.827   3.388 -2.7419 -0.7269  1.6618
  134DG      H5 3064   5.036   2.896   3.230  0.9303 -3.2674  0.2985
  134DG      H6 3065   4.784   3.557   3.180 -0.5973  0.8218 -1.5274
  134DG      H7 3066   4.629   3.521   3.247  0.9202 -0.9935  1.0976
  134DG      H8 3067   4.714   3.652   3.325 -0.3752 -1.3726  1.8973
  134DG      O9 3068   4.957   3.030   3.370 -0.0023  0.0550  0.3058
  134DG     O10 3069   4.796   3.465   3.362  0.0631  0.5375  0.2989
  134DG     C11 3070   5.093   3.074   3.386 -0.6023  0.0752 -0.3429
  134DG     C12 3071   4.916   3.518   3.411  0.0064 -0.3306  0.2994
  134DG     H13 3072   5.133   3.095   3.287 -1.3322 -0.1181 -0.6891
  134DG     H14 3073   5.151   3.001   3.442 -0.5523 -0.5619 -1.2057
  134DG     H15 3074   4.885   3.596   3.481 -2.5475 -1.6657  0.7513
  134DG     H16 3075   4.984   3.559   3.336  0.2031 -1.9285 -0.4317
  134DG     C17 3076   5.088   3.199   3.485 -0.1357 -0.0341  0.2224
  134DG     C18 3077   4.991   3.420   3.501 -0.1299  0.1888 -0.5846
  134DG     O19 3078   4.995   3.296   3.429 -0.0203 -0.1640 -0.2633
  134DG     H20 3079   5.190   3.236   3.487  0.3405 -1.1780 -1.1566
  134DG     H21 3080   5.060   3.173   3.587 -1.4714  0.9776  0.1440
  134DG     H22 3081   5.090   3.449   3.534  0.3260  1.1727 -2.6603
  134DG     H23 3082   4.934   3.384   3.587 -0.5524  0.8382 -0.5838
  135DG      C1 3083   4.201   0.510   2.498 -0.8233 -0.4325  0.0593
  135DG      C2 3084   4.749   0.295   2.826 -0.3916 -0.4309  0.6100
  135DG      H3 3085   4.208   0.415   2.444 -2.0503 -0.3820 -0.2142
  135DG      H4 3086   4.129   0.577   2.453 -1.2290  1.8518  3.7401
  135DG      H5 3087   4.147   0.469   2.583 -0.3028 -1.6878 -0.1810
  135DG      H6 3088   4.691   0.255   2.908  0.8263  1.0892  2.2856
  135DG      H7 3089   4.752   0.218   2.749 -0.1223  0.6147 -0.4608
  135DG      H8 3090   4.855   0.305   2.849 -0.6938 -0.0970  1.9097
  135DG      O9 3091   4.317   0.577   2.546  0.0202 -0.0231 -0.7525
  135DG     O10 3092   4.689   0.413   2.774  0.4972  0.5134  0.3406
  135DG     C11 3093   4.289   0.677   2.645 -0.0509 -0.5294 -0.8086
  135DG     C12 3094   4.672   0.509   2.867 -0.4382 -0.0537  0.0379
  135DG     H13 3095   4.229   0.637   2.727  0.7569 -0.7641 -0.3189
  135DG     H14 3096   4.229   0.756   2.602 -0.0710 -0.2925 -0.3525
  135DG     H15 3097   4.770   0.521   2.913 -0.1154  0.2402 -0.7023
  135DG     H16 3098   4.607   0.465   2.943 -2.5261 -0.0837 -1.6769
  135DG     C17 3099   4.419   0.723   2.703 -0.0700 -0.4873  0.5518
  135DG     C18 3100   4.615   0.642   2.804  0.3048 -0.2675 -0.0083
  135DG     O19 3101   4.485   0.610   2.745 -0.5098 -0.0750 -0.4606
  135DG     H20 3102   4.402   0.798   2.780 -1.9462  0.8161 -1.0323
  135DG     H21 3103   4.484   0.765   2.626  0.7534 -0.4692  1.2405
  135DG     H22 3104   4.619   0.726   2.873 -1.4670  0.7690 -1.0737
  135DG     H23 3105   4.677   0.675   2.720  2.0330 -1.7837  0.6038
  136DG      C1 3106   1.907   3.956   1.562 -0.1931  0.1641 -0.1154
  136DG      C2 3107   1.742   3.299   1.434 -0.3763 -0.5827 -0.4233
  136DG      H3 3108   1.933   4.000   1.466 -0.1482  0.0717 -0.1453
  136DG      H4 3109   1.838   4.027   1.607 -0.5219 -0.1824 -0.0686
  136DG      H5 3110   1.840   3.877   1.528 -1.6641  1.7643 -1.0373
  136DG      H6 3111   1.812   3.227   1.392 -0.6339 -0.4538 -1.0789
  136DG      H7 3112   1.655   3.256   1.484 -0.1275  1.6299  2.1665
  136DG      H8 3113   1.696   3.366   1.361 -2.1254 -1.4229 -0.1469
  136DG      O9 3114   2.009   3.916   1.643 -0.2980  0.3328 -0.3731
  136DG     O10 3115   1.812   3.388   1.520  0.0325 -0.1586  0.0632
  136DG     C11 3116   1.976   3.832   1.757 -0.2191  0.1701 -0.5607
  136DG     C12 3117   1.886   3.480   1.445  0.0903 -0.7098 -0.1505
  136DG     H13 3118   1.879   3.862   1.796  1.1531  3.9761  0.4018
  136DG     H14 3119   2.034   3.872   1.840 -1.1156 -0.3288  0.3236
  136DG     H15 3120   1.825   3.542   1.380 -1.0231 -0.1273  1.3834
  136DG     H16 3121   1.949   3.429   1.372 -0.1879  1.5845 -2.1190
  136DG     C17 3122   2.002   3.688   1.726  0.0309 -0.2970 -0.0991
  136DG     C18 3123   1.983   3.555   1.535  0.8244  0.1693  0.0602
  136DG     O19 3124   1.926   3.658   1.613  0.4649  0.1966  0.1400
  136DG     H20 3125   1.983   3.610   1.800 -1.6008  0.0182 -0.1421
  136DG     H21 3126   2.107   3.691   1.697  0.1500  1.9752  0.3830
  136DG     H22 3127   2.029   3.479   1.598  0.4265  0.7784  1.1038
  136DG     H23 3128   2.055   3.607   1.471 -0.2721  1.1838 -0.3963
  137DG      C1 3129   3.119   5.222   4.585 -0.7414  0.0951  0.6710
  137DG      C2 3130   3.312   5.836   4.550  0.2605  0.0266  0.5943
  137DG      H3 3131   3.168   5.125   4.591  2.7834  1.4317 -2.6669
  137DG      H4 3132   3.103   5.237   4.478  2.0288  3.9214  0.5866
  137DG      H5 3133   3.025   5.218   4.641 -1.1708 -0.6897 -0.0814
  137DG      H6 3134   3.225   5.882   4.598 -0.1051 -1.9323  1.9190
  137DG      H7 3135   3.386   5.916   4.557  0.2021  0.2609 -1.0401
  137DG      H8 3136   3.291   5.822   4.444 -1.4269 -0.3879  0.9537
  137DG      O9 3137   3.214   5.312   4.636  0.0969 -0.4350  0.0288
  137DG     O10 3138   3.350   5.721   4.608 -0.1545 -0.2601 -0.7320
  137DG     C11 3139   3.251   5.274   4.766 -0.7642 -0.1665  1.8155
  137DG     C12 3140   3.378   5.743   4.746 -0.0123 -0.4291 -0.6658
  137DG     H13 3141   3.302   5.179   4.781  0.8544  0.2112 -0.5889
  137DG     H14 3142   3.166   5.278   4.834 -1.0033 -1.0864  1.5775
  137DG     H15 3143   3.291   5.786   4.795 -0.0267 -1.2443  0.0687
  137DG     H16 3144   3.455   5.819   4.761  1.2797 -1.6504 -0.7693
  137DG     C17 3145   3.358   5.375   4.795  0.0824  0.5077 -0.6746
  137DG     C18 3146   3.408   5.606   4.813  0.4059 -0.2143 -0.8217
  137DG     O19 3147   3.313   5.509   4.768 -0.1146  0.1197  0.7633
  137DG     H20 3148   3.457   5.361   4.751  0.1874 -0.8606 -0.0369
  137DG     H21 3149   3.379   5.386   4.901 -2.8530  1.4038 -0.0993
  137DG     H22 3150   3.505   5.571   4.776 -0.0801 -2.6577  0.0554
  137DG     H23 3151   3.418   5.601   4.921 -0.6664  1.8877 -0.5783
  138DG      C1 3152   2.499   2.222   2.674  0.1266  0.6391  0.2859
  138DG      C2 3153   3.140   2.531   2.556  0.2279  0.2856  0.0123
  138DG      H3 3154   2.493   2.264   2.775  0.8568  0.1879  0.5261
  138DG      H4 3155   2.564   2.135   2.674  1.2104  1.3867 -1.0551
  138DG      H5 3156   2.401   2.201   2.632 -0.4439  3.1932  0.1684
  138DG      H6 3157   3.098   2.545   2.655  0.8477 -0.1910  0.3521
  138DG      H7 3158   3.203   2.443   2.566 -3.9420 -2.9765  0.4993
  138DG      H8 3159   3.200   2.617   2.527 -0.0856  0.7733  0.7887
  138DG      O9 3160   2.538   2.331   2.588  0.5087 -0.6753 -0.5105
  138DG     O10 3161   3.039   2.493   2.463 -0.1128  0.3991  0.2631
  138DG     C11 3162   2.564   2.288   2.458 -0.6791 -0.0856  0.4782
  138DG     C12 3163   2.977   2.370   2.489 -0.1530 -0.1372  0.1538
  138DG     H13 3164   2.472   2.255   2.409 -0.7878 -0.4218  0.9070
  138DG     H14 3165   2.627   2.200   2.449 -1.6844 -0.9486  1.4915
  138DG     H15 3166   2.931   2.368   2.587  0.0186  0.3417  0.2437
  138DG     H16 3167   3.038   2.280   2.476  1.3811  0.5602  2.0672
  138DG     C17 3168   2.619   2.411   2.381 -0.0917 -0.1050 -0.1081
  138DG     C18 3169   2.863   2.345   2.387 -0.0843 -0.1548 -0.5450
  138DG     O19 3170   2.753   2.439   2.424  0.0899  0.0388  0.4709
  138DG     H20 3171   2.546   2.489   2.402  0.0690  0.5198 -1.7668
  138DG     H21 3172   2.613   2.406   2.272  0.4201  0.7787 -0.1868
  138DG     H22 3173   2.884   2.348   2.280  0.7239  2.5380 -0.4092
  138DG     H23 3174   2.824   2.245   2.404  0.2648 -0.0612  1.0011
  139DG      C1 3175   5.327   3.814   3.305 -0.5293  0.3708 -0.3061
  139DG      C2 3176   5.047   3.988   4.031 -0.8075 -0.5749 -0.4110
  139DG      H3 3177   5.249   3.738   3.314  1.1814 -1.2070  2.1424
  139DG      H4 3178   5.410   3.756   3.265 -0.2501  0.0639  0.7005
  139DG      H5 3179   5.293   3.888   3.232 -0.2298 -1.6983 -2.7046
  139DG      H6 3180   4.963   3.919   4.028 -0.7026 -0.7958  0.9956
  139DG      H7 3181   5.073   4.010   4.135 -0.3378  4.5604 -1.3423
  139DG      H8 3182   5.015   4.085   3.992 -1.0973 -0.0023  1.1839
  139DG      O9 3183   5.348   3.869   3.438  0.3559  0.1140 -0.1882
  139DG     O10 3184   5.166   3.934   3.968 -1.0554 -0.3301 -0.1189
  139DG     C11 3185   5.366   3.757   3.520  0.1085 -0.0737 -0.2713
  139DG     C12 3186   5.265   4.023   3.928 -0.2990  0.2520 -0.3809
  139DG     H13 3187   5.441   3.686   3.485  0.0599 -0.8142  1.0834
  139DG     H14 3188   5.276   3.699   3.538  0.9880 -1.4915 -0.2806
  139DG     H15 3189   5.311   4.078   4.010  0.7092  0.5561 -1.1165
  139DG     H16 3190   5.212   4.093   3.863 -0.1586 -0.0972 -0.8846
  139DG     C17 3191   5.425   3.799   3.657  0.9766 -0.8083 -0.9363
  139DG     C18 3192   5.376   3.945   3.847  0.4910 -0.6704 -0.9677
  139DG     O19 3193   5.325   3.868   3.734  0.2488  0.0652 -0.3862
  139DG     H20 3194   5.510   3.866   3.649  0.6805 -0.4886 -1.4696
  139DG     H21 3195   5.454   3.716   3.721 -1.3261 -0.0448  1.2405
  139DG     H22 3196   5.438   4.027   3.811 -0.1661  0.0663 -0.4641
  139DG     H23 3197   5.430   3.890   3.924 -0.6807  2.3620  2.2746
  140DG      C1 3198   1.551   1.685   0.483 -0.1086  0.0182  0.2065
  140DG      C2 3199   2.240   1.499   0.377  0.8076 -0.0689  0.0997
  140DG      H3 3200   1.463   1.749   0.480 -1.1258 -1.3352  0.3710
  140DG      H4 3201   1.555   1.631   0.577 -0.0114  0.3918  0.4213
  140DG      H5 3202   1.537   1.609   0.406 -1.2396 -0.7629  1.1511
  140DG      H6 3203   2.223   1.405   0.430 -0.3563  1.1684  2.0415
  140DG      H7 3204   2.260   1.478   0.272 -1.2940  0.9192 -0.5362
  140DG      H8 3205   2.335   1.536   0.416  0.3451  0.0525  1.1359
  140DG      O9 3206   1.672   1.751   0.469 -0.3146  0.2123 -0.4358
  140DG     O10 3207   2.134   1.593   0.408 -0.2776 -0.0831  0.4595
  140DG     C11 3208   1.685   1.829   0.354 -0.1676 -0.0111 -0.2971
  140DG     C12 3209   2.151   1.702   0.320 -0.8328  0.1763  0.0956
  140DG     H13 3210   1.612   1.908   0.366 -1.2240 -1.1061  0.8066
  140DG     H14 3211   1.674   1.775   0.260  0.6013 -0.1991 -0.2891
  140DG     H15 3212   2.129   1.660   0.221 -0.9513 -0.2320  0.2952
  140DG     H16 3213   2.254   1.737   0.316 -0.6366 -0.4544 -0.9096
  140DG     C17 3214   1.827   1.891   0.356 -0.3027 -0.2079 -0.2152
  140DG     C18 3215   2.057   1.816   0.360 -0.3885  0.0102 -0.0663
  140DG     O19 3216   1.924   1.782   0.326 -0.0932 -0.7087 -0.1856
  140DG     H20 3217   1.837   1.944   0.450 -3.7499  1.4991 -0.6498
  140DG     H21 3218   1.828   1.961   0.272  1.6936 -1.8063 -1.6176
  140DG     H22 3219   2.059   1.840   0.467  0.0509 -2.5446  0.5788
  140DG     H23 3220   2.093   1.904   0.307  1.7409 -0.7993 -0.0573
  141DG      C1 3221   4.038   1.720   1.890  0.2291  0.7344  0.2422
  141DG      C2 3222   4.528   2.434   1.992  0.1211  0.8249 -0.8053
  141DG      H3 3223   4.054   1.614   1.906  0.6414  0.9735  1.5422
  141DG      H4 3224   4.069   1.752   1.791 -0.2465  1.8736  0.4334
  141DG      H5 3225   3.931   1.734   1.907  0.5023  3.4132  0.2546
  141DG      H6 3226   4.473   2.463   1.902  1.8350 -2.2999 -3.0806
  141DG      H7 3227   4.477   2.481   2.075  1.2154  2.2591 -0.9135
  141DG      H8 3228   4.622   2.487   2.002  0.5363 -0.3025  2.2077
  141DG      O9 3229   4.099   1.777   2.004  0.1324  0.1323  0.1096
  141DG     O10 3230   4.546   2.297   2.006  0.1849  0.3765 -0.1757
  141DG     C11 3231   4.242   1.784   1.976  0.1416 -0.0095 -0.5261
  141DG     C12 3232   4.413   2.240   2.005  0.1507  0.5025  0.0160
  141DG     H13 3233   4.269   1.805   1.873  1.5704 -0.1718 -0.2202
  141DG     H14 3234   4.280   1.683   1.992 -0.0444 -0.3110 -1.8829
  141DG     H15 3235   4.368   2.250   1.906 -0.2394  1.2644  0.2598
  141DG     H16 3236   4.350   2.277   2.086  0.1067 -2.2813  1.3773
  141DG     C17 3237   4.320   1.882   2.073 -0.1127 -0.0952  0.5599
  141DG     C18 3238   4.426   2.089   2.038 -0.6313  0.3237 -0.3105
  141DG     O19 3239   4.300   2.027   2.041 -0.5811  0.1085 -0.5878
  141DG     H20 3240   4.425   1.854   2.080  0.1001 -1.3950 -4.2299
  141DG     H21 3241   4.281   1.871   2.175  0.1427  3.1493  1.1262
  141DG     H22 3242   4.487   2.050   1.957 -2.2821  0.1097 -1.4972
  141DG     H23 3243   4.468   2.079   2.138 -0.2207  0.8543 -0.4314
  142DG      C1 3244   0.573   5.067   2.760  0.1797  0.0795  0.3183
  142DG      C2 3245   1.323   5.436   2.516 -0.1599  0.1808  0.8534
  142DG      H3 3246   0.588   4.988   2.687 -2.1837 -1.3777  1.2805
  142DG      H4 3247   0.495   5.039   2.831  0.5252  0.0185  0.6785
  142DG      H5 3248   0.653   5.066   2.834  0.1041 -0.3692  0.3976
  142DG      H6 3249   1.424   5.429   2.556 -0.0180 -0.3440  0.4150
  142DG      H7 3250   1.326   5.360   2.438 -0.4967 -0.4135  1.4188
  142DG      H8 3251   1.298   5.529   2.465  0.9235  0.3607  0.6098
  142DG      O9 3252   0.544   5.193   2.704 -0.8762  0.3223  0.0668
  142DG     O10 3253   1.221   5.397   2.608 -0.1376  0.0727 -0.2664
  142DG     C11 3254   0.651   5.240   2.621 -0.4967 -0.1408  0.7290
  142DG     C12 3255   1.088   5.412   2.559 -0.0087  0.1750  0.3678
  142DG     H13 3256   0.612   5.319   2.556 -0.5271  1.2738  2.3777
  142DG     H14 3257   0.667   5.160   2.550  0.3170  0.4621  0.2141
  142DG     H15 3258   1.069   5.361   2.465  0.9554  0.2803  0.1079
  142DG     H16 3259   1.064   5.515   2.531 -0.3576  0.0528  0.2167
  142DG     C17 3260   0.781   5.280   2.704 -0.2816 -0.1981  0.4398
  142DG     C18 3261   0.997   5.357   2.665  0.1078 -0.0090  0.1425
  142DG     O19 3262   0.868   5.339   2.610 -0.5236  0.7658 -0.3550
  142DG     H20 3263   0.817   5.192   2.757  1.1480  0.9798  1.5165
  142DG     H21 3264   0.752   5.363   2.768 -1.9630 -0.6415  0.3181
  142DG     H22 3265   1.029   5.253   2.677 -1.3506 -0.4857  0.1646
  142DG     H23 3266   0.991   5.422   2.753 -0.9549  0.9353 -0.6016
  143DG      C1 3267   1.518   1.362   3.528  0.0817 -0.4061 -0.3747
  143DG      C2 3268   1.198   1.847   3.894  0.6334 -0.1389 -0.1953
  143DG      H3 3269   1.581   1.353   3.616  0.1915  0.6262 -0.3387
  143DG      H4 3270   1.576   1.318   3.447 -0.8263 -0.4436 -1.0195
  143DG      H5 3271   1.441   1.285   3.529  0.4442 -0.7701 -0.0544
  143DG      H6 3272   1.100   1.807   3.921  0.3722 -1.5500 -2.9300
  143DG      H7 3273   1.257   1.828   3.984 -0.4658 -2.1250  0.1460
  143DG      H8 3274   1.200   1.956   3.883  3.1718 -0.0309  0.6246
  143DG      O9 3275   1.476   1.490   3.490 -0.4090  0.0456  0.1977
  143DG     O10 3276   1.237   1.806   3.764 -0.4652 -0.3693  1.1297
  143DG     C11 3277   1.373   1.490   3.393  0.5884  0.9544 -0.4804
  143DG     C12 3278   1.124   1.792   3.676  0.0782 -0.2529 -0.1144
  143DG     H13 3279   1.298   1.415   3.416  0.8992  0.7662 -0.0810
  143DG     H14 3280   1.407   1.461   3.293  0.9621 -0.6233  0.0737
  143DG     H15 3281   1.082   1.891   3.663 -1.5218 -0.8841 -0.0572
  143DG     H16 3282   1.048   1.722   3.713 -0.1881  0.1854  0.1802
  143DG     C17 3283   1.294   1.621   3.387  0.3013 -0.4714  0.8437
  143DG     C18 3284   1.164   1.754   3.532 -0.0567  0.7097 -0.3676
  143DG     O19 3285   1.270   1.665   3.522  1.0213 -0.2506 -0.1356
  143DG     H20 3286   1.200   1.601   3.335 -0.5393 -1.5098  2.6705
  143DG     H21 3287   1.351   1.688   3.323  1.1147 -1.1573  0.8364
  143DG     H22 3288   1.087   1.703   3.475  0.7715  0.1966 -1.0580
  143DG     H23 3289   1.182   1.837   3.464  0.1566 -0.6624 -2.0426
  144DG      C1 3290   2.020   1.832   0.003  0.2232  0.5551  0.2680
  144DG      C2 3291   2.601   2.235  -0.138  0.4391  0.5208 -0.2100
  144DG      H3 3292   2.001   1.803  -0.100  2.0489 -4.9726  1.1496
  144DG      H4 3293   1.929   1.845   0.062 -0.6446  2.3970 -1.3717
  144DG      H5 3294   2.054   1.734   0.035 -2.2744 -0.8368 -1.0824
  144DG      H6 3295   2.599   2.237  -0.247 -2.1611 -1.4539 -0.2946
  144DG      H7 3296   2.665   2.311  -0.092  2.1286 -1.2421  0.5080
  144DG      H8 3297   2.652   2.141  -0.121  1.7921  0.8695 -2.0219
  144DG      O9 3298   2.101   1.945   0.022  0.1699  0.2502 -0.1728
  144DG     O10 3299   2.476   2.222  -0.076 -0.5880 -0.3927  0.3540
  144DG     C11 3300   2.017   2.053   0.004 -0.0771  0.4597 -0.0217
  144DG     C12 3301   2.403   2.345  -0.097 -0.7471 -0.2263 -0.3331
  144DG     H13 3302   1.931   2.054   0.071  1.7100 -1.6094  2.4938
  144DG     H14 3303   1.978   2.046  -0.098  0.2049 -0.7434 -0.0641
  144DG     H15 3304   2.385   2.353  -0.205  0.0125  0.8996 -0.3918
  144DG     H16 3305   2.459   2.434  -0.070  0.2040 -1.2689  1.2928
  144DG     C17 3306   2.084   2.186   0.027 -0.9547 -1.0339 -0.9702
  144DG     C18 3307   2.269   2.322  -0.020 -0.2560 -0.6548 -0.3491
  144DG     O19 3308   2.204   2.206  -0.046  0.0611 -0.0691 -0.6387
  144DG     H20 3309   2.098   2.196   0.134  0.4414  1.4333 -1.3062
  144DG     H21 3310   2.014   2.262  -0.008 -0.4040 -0.6391 -1.2398
  144DG     H22 3311   2.305   2.328   0.083 -2.0098 -2.1273  0.4016
  144DG     H23 3312   2.201   2.405  -0.038  0.8648  0.6965  1.3282
  145DG      C1 3313   5.212   3.680   4.201 -0.5122  0.3800 -1.3947
  145DG      C2 3314   4.972   3.902   3.677  0.5107 -0.9253  0.2547
  145DG      H3 3315   5.188   3.780   4.236 -0.0069  0.1952 -0.4669
  145DG      H4 3316   5.310   3.689   4.154  0.3258  0.7942  0.3387
  145DG      H5 3317   5.241   3.614   4.284  1.2974  0.3740 -1.9807
  145DG      H6 3318   4.932   3.993   3.721 -0.4537 -0.4161 -1.5556
  145DG      H7 3319   5.080   3.910   3.664  1.3005 -4.2538  3.2604
  145DG      H8 3320   4.918   3.900   3.582 -1.1691  0.8926  1.0956
  145DG      O9 3321   5.115   3.612   4.118 -0.1986 -0.5310  0.2650
  145DG     O10 3322   4.946   3.776   3.731 -0.7705 -0.7176  0.0909
  145DG     C11 3323   4.989   3.604   4.180 -0.6879  0.1276 -0.1242
  145DG     C12 3324   4.812   3.764   3.766  0.1871  0.5662 -0.5006
  145DG     H13 3325   4.968   3.699   4.228  2.3421  1.2713 -0.8998
  145DG     H14 3326   4.994   3.529   4.259 -3.1166 -0.8315 -0.7685
  145DG     H15 3327   4.738   3.756   3.686 -2.6164  0.4399  1.9720
  145DG     H16 3328   4.786   3.854   3.822  0.1525 -0.9558  2.0594
  145DG     C17 3329   4.894   3.560   4.072  0.0805  0.5707  0.0615
  145DG     C18 3330   4.797   3.641   3.864 -0.4181 -0.1660  0.5670
  145DG     O19 3331   4.900   3.652   3.963  0.4861 -0.0343 -0.3641
  145DG     H20 3332   4.795   3.563   4.118  0.0203  3.3082 -0.0283
  145DG     H21 3333   4.928   3.462   4.041  0.5802  1.5909 -2.9362
  145DG     H22 3334   4.701   3.642   3.916 -0.4987  0.1276  0.4133
  145DG     H23 3335   4.794   3.542   3.818 -0.9300  0.4411 -0.7617
  146DG      C1 3336   1.265   5.310   4.506 -0.5320 -0.1790  0.6897
  146DG      C2 3337   1.123   5.687   5.004 -1.1571 -0.2276  0.5470
  146DG      H3 3338   1.172   5.258   4.532 -0.5675 -1.1238 -1.1484
  146DG      H4 3339   1.327   5.240   4.450  0.7262  1.3267  0.1392
  146DG      H5 3340   1.239   5.386   4.432 -1.5354 -2.1021 -1.0508
  146DG      H6 3341   1.076   5.723   4.913 -1.2824 -2.4970 -0.3380
  146DG      H7 3342   1.043   5.645   5.066 -1.6142 -1.2053 -0.6679
  146DG      H8 3343   1.162   5.780   5.047 -0.4443  0.1379 -0.8289
  146DG      O9 3344   1.340   5.353   4.615 -0.3234 -0.5454  0.4286
  146DG     O10 3345   1.218   5.594   4.963  0.2094 -0.4461  0.3342
  146DG     C11 3346   1.378   5.244   4.690  0.8281  0.2060 -0.0898
  146DG     C12 3347   1.292   5.530   5.067  0.5019  0.0662 -0.4506
  146DG     H13 3348   1.451   5.181   4.638  1.6510 -1.3175  2.7012
  146DG     H14 3349   1.300   5.173   4.718  0.8929  0.7897  1.7103
  146DG     H15 3350   1.234   5.463   5.131  0.8922  0.1529 -0.0012
  146DG     H16 3351   1.321   5.612   5.132 -2.2943  2.1666 -1.6331
  146DG     C17 3352   1.440   5.297   4.817 -0.1167  0.3060 -0.4059
  146DG     C18 3353   1.415   5.460   5.000  0.0282  0.5605  0.1335
  146DG     O19 3354   1.349   5.378   4.892  0.2442  0.1394 -0.4748
  146DG     H20 3355   1.529   5.355   4.794 -2.3125  3.9567 -0.4051
  146DG     H21 3356   1.471   5.208   4.872  1.3782 -1.6792 -4.0774
  146DG     H22 3357   1.495   5.513   4.949  0.6839  2.3634  2.8266
  146DG     H23 3358   1.458   5.386   5.067  0.3361  0.3607 -0.2781
  147DG      C1 3359   5.187   0.908   3.357 -0.5592 -0.3243 -0.1284
  147DG      C2 3360   4.837   1.330   3.337 -0.3791 -0.8464 -0.0599
  147DG      H3 3361   5.096   0.851   3.373 -1.2908  0.9357  0.3719
  147DG      H4 3362   5.228   0.871   3.263  0.4218 -2.7007  1.1488
  147DG      H5 3363   5.160   1.012   3.335 -1.0724 -0.5833 -0.7916
  147DG      H6 3364   4.814   1.432   3.369  2.7006 -0.3887  1.0211
  147DG      H7 3365   4.863   1.338   3.231 -2.3920  2.0432 -0.4356
  147DG      H8 3366   4.745   1.271   3.335 -0.8394 -0.1326 -0.5791
  147DG      O9 3367   5.278   0.917   3.466  0.1529  0.0496 -0.1580
  147DG     O10 3368   4.945   1.275   3.421  0.4858 -0.2782  0.2942
  147DG     C11 3369   5.224   0.893   3.593  0.0675  0.3471  0.0432
  147DG     C12 3370   4.907   1.252   3.552  0.3581  0.5656  0.5557
  147DG     H13 3371   5.297   0.849   3.661  0.9182  1.2940 -0.2396
  147DG     H14 3372   5.139   0.825   3.596  0.0657  0.3442 -0.0768
  147DG     H15 3373   4.819   1.189   3.552  0.3167  0.6206  0.7133
  147DG     H16 3374   4.873   1.340   3.607 -2.5290 -0.2522  0.2493
  147DG     C17 3375   5.191   1.028   3.666 -0.2567  0.2017  0.6090
  147DG     C18 3376   5.033   1.201   3.629 -0.1442 -0.0282  0.0050
  147DG     O19 3377   5.078   1.074   3.590 -0.0050  0.4248  0.0802
  147DG     H20 3378   5.271   1.100   3.650  1.9550 -2.4801 -1.2797
  147DG     H21 3379   5.172   1.020   3.773  2.0144 -1.3504  0.9651
  147DG     H22 3380   5.117   1.269   3.611 -1.2245  0.5817 -3.5375
  147DG     H23 3381   5.012   1.189   3.735 -3.2394  0.4554 -0.4673
  148DG      C1 3382   0.409   4.211   0.618 -0.2448 -0.5521 -0.0517
  148DG      C2 3383   0.774   3.953  -0.098  0.5590  0.7292 -0.1505
  148DG      H3 3384   0.400   4.141   0.702 -0.0578 -2.6571 -1.6872
  148DG      H4 3385   0.328   4.283   0.628  1.9722  2.2761 -1.0792
  148DG      H5 3386   0.505   4.262   0.615 -1.9643  2.9119 -1.5252
  148DG      H6 3387   0.832   3.883  -0.038 -0.8372  0.2743  0.7126
  148DG      H7 3388   0.727   3.888  -0.172  0.3352  0.0352  0.5866
  148DG      H8 3389   0.844   4.023  -0.145  2.2200 -1.5391 -1.2590
  148DG      O9 3390   0.383   4.139   0.498 -0.0029 -0.2060  0.0780
  148DG     O10 3391   0.665   4.011  -0.026  0.2422  0.4106  0.1820
  148DG     C11 3392   0.399   4.217   0.379 -0.2436 -0.1076 -0.6726
  148DG     C12 3393   0.580   3.917   0.042 -0.1680  0.0700 -0.5295
  148DG     H13 3394   0.495   4.263   0.355 -0.3291  1.2290  1.2771
  148DG     H14 3395   0.330   4.298   0.403 -0.4926 -0.5769  0.2561
  148DG     H15 3396   0.641   3.875   0.122 -1.6564  2.0393  1.7663
  148DG     H16 3397   0.555   3.838  -0.029 -0.5792  0.5094 -0.8795
  148DG     C17 3398   0.359   4.131   0.259  0.4783 -0.2678  0.3543
  148DG     C18 3399   0.454   3.991   0.098 -0.6253 -0.3426  0.4704
  148DG     O19 3400   0.477   4.065   0.216 -0.2940  0.1660 -0.2246
  148DG     H20 3401   0.306   4.188   0.182  0.7237 -0.4973  0.0154
  148DG     H21 3402   0.292   4.054   0.296 -0.0938 -0.1665 -0.4285
  148DG     H22 3403   0.426   4.056   0.016 -2.3737  0.2165  1.4561
  148DG     H23 3404   0.373   3.917   0.102  0.6546 -1.8311  0.1196
  149DG      C1 3405   3.308   5.012   1.762 -0.4912  0.2250  0.3710
  149DG      C2 3406   3.869   5.523   1.915  0.6283  0.2072 -0.7945
  149DG      H3 3407   3.239   5.034   1.844 -1.1760  0.8552 -0.3505
  149DG      H4 3408   3.403   4.987   1.809 -0.8548  1.6672  1.9900
  149DG      H5 3409   3.269   4.922   1.715 -1.3201 -0.3273  2.0347
  149DG      H6 3410   3.891   5.598   1.991  0.5026 -0.3997 -0.1516
  149DG      H7 3411   3.949   5.449   1.919  2.1258  1.7598 -0.4972
  149DG      H8 3412   3.870   5.564   1.814  0.1447  2.6376  0.1312
  149DG      O9 3413   3.316   5.114   1.664 -0.1901  0.4363  0.1952
  149DG     O10 3414   3.745   5.457   1.937 -0.1374  0.3696  0.3986
  149DG     C11 3415   3.416   5.209   1.683  0.4396 -0.1047 -0.4248
  149DG     C12 3416   3.633   5.537   1.915 -0.0077 -0.4281 -0.4316
  149DG     H13 3417   3.434   5.274   1.598  0.3260  1.6661  0.8479
  149DG     H14 3418   3.518   5.170   1.692 -0.1289 -1.4215  0.7760
  149DG     H15 3419   3.627   5.580   1.815 -1.1928  1.4054  0.3700
  149DG     H16 3420   3.640   5.627   1.978  4.0350  0.4490 -1.8444
  149DG     C17 3421   3.394   5.291   1.811 -0.6266  0.0797 -0.3893
  149DG     C18 3422   3.509   5.448   1.942  0.1711  0.6329 -0.5084
  149DG     O19 3423   3.504   5.374   1.818  0.0785 -0.0267 -0.2710
  149DG     H20 3424   3.400   5.228   1.899  1.5549  0.6988 -0.0409
  149DG     H21 3425   3.303   5.351   1.817 -1.4588 -1.3289  2.7047
  149DG     H22 3426   3.525   5.390   2.033 -0.2451  0.2204 -0.6957
  149DG     H23 3427   3.419   5.509   1.940 -0.1699  0.1376 -0.4974
  150DG      C1 3428   3.347   1.146   2.520  0.2532  0.0367 -0.8786
  150DG      C2 3429   3.986   1.373   2.859 -0.2331  0.1826  0.0274
  150DG      H3 3430   3.428   1.196   2.466  0.4512  0.2842 -0.3526
  150DG      H4 3431   3.284   1.217   2.573 -0.2396 -1.9251  1.3056
  150DG      H5 3432   3.286   1.072   2.467 -0.1731 -1.3207  1.3735
  150DG      H6 3433   4.066   1.383   2.785  2.3145 -2.2324  2.2075
  150DG      H7 3434   3.928   1.464   2.874  1.1978  1.0404  0.5576
  150DG      H8 3435   4.028   1.330   2.950  0.2240 -2.7807 -1.4545
  150DG      O9 3436   3.406   1.085   2.633  0.1015 -0.3382  0.4568
  150DG     O10 3437   3.906   1.255   2.825 -0.0318 -0.1709 -0.5557
  150DG     C11 3438   3.515   0.993   2.605  0.2904  0.4622 -0.2367
  150DG     C12 3439   3.791   1.241   2.909 -0.3280 -0.0012  0.0786
  150DG     H13 3440   3.590   1.020   2.531 -0.2798 -1.2141 -1.4717
  150DG     H14 3441   3.481   0.892   2.582  1.7861  0.2085 -1.4833
  150DG     H15 3442   3.717   1.318   2.888 -1.2145 -0.2803  2.0336
  150DG     H16 3443   3.824   1.263   3.010  0.6163  0.0421 -0.2219
  150DG     C17 3444   3.599   0.989   2.738  0.2094 -0.0251  0.3572
  150DG     C18 3445   3.731   1.105   2.879  0.4208  0.2810 -0.6745
  150DG     O19 3446   3.671   1.113   2.752 -0.2626  0.1303  0.0291
  150DG     H20 3447   3.669   0.907   2.726 -1.9461 -1.7103 -1.5294
  150DG     H21 3448   3.535   0.965   2.823  0.6275  0.6004  0.8621
  150DG     H22 3449   3.806   1.028   2.862 -3.1734 -3.3249 -1.6714
  150DG     H23 3450   3.664   1.070   2.958 -1.6050 -2.2099 -3.3216
  151DG      C1 3451   4.478   1.042   0.778 -0.0279 -0.2164 -0.2967
  151DG      C2 3452   3.913   1.207   1.158  0.4839  0.2963 -0.1976
  151DG      H3 3453   4.551   0.986   0.718 -0.0518  0.1645 -0.6831
  151DG      H4 3454   4.524   1.063   0.875  0.0075  0.7793 -0.5246
  151DG      H5 3455   4.458   1.130   0.717 -2.1082 -0.5732 -0.1917
  151DG      H6 3456   3.976   1.293   1.132 -0.0529  0.7523 -0.0007
  151DG      H7 3457   3.810   1.240   1.168  0.8003  1.2751 -0.0589
  151DG      H8 3458   3.937   1.177   1.260 -1.4155 -1.4119 -0.1950
  151DG      O9 3459   4.354   0.980   0.804  0.3706  0.4974 -0.0382
  151DG     O10 3460   3.934   1.106   1.064 -0.0444 -0.0689 -0.2842
  151DG     C11 3461   4.264   0.986   0.695 -0.8070 -0.3852 -0.3469
  151DG     C12 3462   3.908   1.137   0.933  0.2530  1.0994  0.0037
  151DG     H13 3463   4.311   0.945   0.605  1.2440 -0.0666  0.5304
  151DG     H14 3464   4.245   1.089   0.665 -0.8368 -0.1537  0.4578
  151DG     H15 3465   3.886   1.244   0.930  0.8292  1.3711  2.8272
  151DG     H16 3466   3.818   1.088   0.894  1.0074 -1.0017  0.7779
  151DG     C17 3467   4.136   0.919   0.728 -0.0841  0.7959 -0.2908
  151DG     C18 3468   4.029   1.103   0.843 -0.2219 -0.2314 -0.0461
  151DG     O19 3469   4.066   0.966   0.841 -0.0046 -0.0850 -0.7994
  151DG     H20 3470   4.161   0.815   0.751 -0.1086  1.5501  3.8572
  151DG     H21 3471   4.068   0.928   0.643 -1.5890  1.1933  0.9220
  151DG     H22 3472   4.005   1.128   0.740  1.6265  2.6875  0.1081
  151DG     H23 3473   4.110   1.174   0.859 -0.3737  0.2847 -1.4098
  152DG      C1 3474   2.577   1.774   1.077  0.2911 -0.1786  0.6395
  152DG      C2 3475   2.731   1.788   1.806 -0.4818 -1.4036  1.0567
  152DG      H3 3476   2.579   1.865   1.016 -4.2936 -0.6081 -0.5211
  152DG      H4 3477   2.470   1.751   1.079  0.0247  0.6931 -1.1277
  152DG      H5 3478   2.633   1.693   1.029  0.7464 -0.7209  2.0407
  152DG      H6 3479   2.691   1.792   1.908  1.5639  0.0907  1.8613
  152DG      H7 3480   2.808   1.711   1.801 -0.1148 -1.0812  1.6251
  152DG      H8 3481   2.774   1.886   1.786 -3.1945 -0.6092 -1.6971
  152DG      O9 3482   2.634   1.801   1.208 -0.3250  0.1467 -0.2896
  152DG     O10 3483   2.630   1.767   1.707  0.3235 -0.0095  0.3324
  152DG     C11 3484   2.547   1.887   1.281 -0.6463  0.2363 -0.0027
  152DG     C12 3485   2.517   1.849   1.722 -0.4030 -0.2280  0.0874
  152DG     H13 3486   2.443   1.854   1.281 -0.6916  0.3782 -0.0312
  152DG     H14 3487   2.554   1.984   1.232  0.4613 -0.0116 -0.3422
  152DG     H15 3488   2.491   1.862   1.827  1.8196  0.0254  0.6613
  152DG     H16 3489   2.441   1.790   1.671 -1.2700 -0.2649  1.3896
  152DG     C17 3490   2.606   1.895   1.427  0.3346  0.2617  0.6949
  152DG     C18 3491   2.530   1.982   1.642 -0.0997  0.2393  0.4890
  152DG     O19 3492   2.501   1.957   1.503 -0.0120 -0.2255 -0.4257
  152DG     H20 3493   2.698   1.950   1.440  0.8742 -0.7848  1.4357
  152DG     H21 3494   2.628   1.795   1.466 -0.8094 -0.4294 -0.3450
  152DG     H22 3495   2.462   2.060   1.677  0.6103  1.2966 -0.4226
  152DG     H23 3496   2.626   2.033   1.651 -0.4403  0.9762  0.0831
  153DG      C1 3497   2.176   4.690   4.260 -0.1015 -0.2549  0.4540
  153DG      C2 3498   2.650   4.163   4.089  0.6260 -0.0946  0.7259
  153DG      H3 3499   2.146   4.787   4.300  1.0704  0.4177 -0.2477
  153DG      H4 3500   2.178   4.616   4.341  0.3653 -1.1562 -0.3529
  153DG      H5 3501   2.089   4.664   4.200 -0.5111  2.0042  0.0020
  153DG      H6 3502   2.700   4.154   3.992  1.1093 -0.5590  1.0183
  153DG      H7 3503   2.727   4.150   4.164  1.1448 -1.0201  0.0547
  153DG      H8 3504   2.567   4.092   4.089  0.1150  0.4276 -1.1543
  153DG      O9 3505   2.297   4.688   4.178  0.2699  0.3202  0.0267
  153DG     O10 3506   2.607   4.300   4.103  0.6250 -0.0448 -0.7448
  153DG     C11 3507   2.413   4.722   4.259 -0.3741  0.4875  0.2019
  153DG     C12 3508   2.713   4.391   4.102 -0.1743 -0.0071  0.5020
  153DG     H13 3509   2.426   4.652   4.341  0.6495 -0.4556 -0.7266
  153DG     H14 3510   2.396   4.823   4.296 -0.9970 -0.6089  3.1477
  153DG     H15 3511   2.752   4.359   4.005  0.0553 -0.0860  0.6180
  153DG     H16 3512   2.782   4.378   4.186 -1.2693 -1.1406  1.2593
  153DG     C17 3513   2.541   4.720   4.172  0.3033 -0.5614 -0.2934
  153DG     C18 3514   2.668   4.534   4.070  0.0403 -0.0594  0.0663
  153DG     O19 3515   2.583   4.580   4.175 -0.6680 -0.1697 -0.3484
  153DG     H20 3516   2.617   4.778   4.223  3.7203 -2.5031 -2.7941
  153DG     H21 3517   2.518   4.756   4.071  0.0665  0.0281 -0.0348
  153DG     H22 3518   2.756   4.598   4.065  0.6866 -0.7739  1.7605
  153DG     H23 3519   2.613   4.536   3.976 -0.8876 -0.8791  0.5764
  154DG      C1 3520   4.210   5.466   2.092  0.2035  0.0424 -0.7050
  154DG      C2 3521   4.817   5.683   1.914 -0.6412  0.4957 -1.0019
  154DG      H3 3522   4.181   5.550   2.028 -0.2426  0.5197  0.1071
  154DG      H4 3523   4.202   5.500   2.195  2.4670  0.0183 -0.4811
  154DG      H5 3524   4.153   5.374   2.080  3.9452 -3.2995  3.5832
  154DG      H6 3525   4.767   5.772   1.875  1.4171  2.0650 -0.3197
  154DG      H7 3526   4.869   5.735   1.996  1.3449 -2.4642 -0.2295
  154DG      H8 3527   4.892   5.642   1.847 -0.8289 -1.0617 -0.2907
  154DG      O9 3528   4.347   5.435   2.076  0.1036 -0.2689  0.0921
  154DG     O10 3529   4.742   5.574   1.957  0.0868  0.1203  0.0664
  154DG     C11 3530   4.398   5.336   2.167 -0.2523  0.2920  0.1134
  154DG     C12 3531   4.816   5.481   2.039  0.3084 -0.3946  0.0198
  154DG     H13 3532   4.367   5.236   2.138  0.6779  0.0216 -0.0002
  154DG     H14 3533   4.363   5.350   2.269  0.8115  0.7895  0.4211
  154DG     H15 3534   4.809   5.510   2.144 -0.2682 -3.9611  1.1148
  154DG     H16 3535   4.922   5.476   2.012  0.2503 -0.0428 -0.2855
  154DG     C17 3536   4.551   5.350   2.169 -0.4770  0.0322  0.6733
  154DG     C18 3537   4.744   5.349   2.019  0.1765 -0.2170  1.0579
  154DG     O19 3538   4.596   5.350   2.034 -0.3244 -0.9843 -0.2086
  154DG     H20 3539   4.608   5.281   2.231  2.1564  1.4983  0.0425
  154DG     H21 3540   4.581   5.440   2.224  1.0352 -1.6131  2.7405
  154DG     H22 3541   4.764   5.321   1.915  0.1642  0.2130  0.9393
  154DG     H23 3542   4.797   5.287   2.091  0.9739  0.5047  1.1003
  155DG      C1 3543   3.420   3.338   4.855  0.5846  0.2130  0.3153
  155DG      C2 3544   4.020   2.969   4.710  1.5422  1.0532  0.3353
  155DG      H3 3545   3.362   3.421   4.815  0.7386 -0.3382 -1.1191
  155DG      H4 3546   3.366   3.278   4.928  1.0155 -2.4225 -1.3622
  155DG      H5 3547   3.419   3.280   4.762 -1.6739 -1.6632  1.4170
  155DG      H6 3548   4.113   2.943   4.760  0.7564 -0.7310  0.9188
  155DG      H7 3549   3.937   2.899   4.724  0.8949  1.6980 -0.1716
  155DG      H8 3550   4.043   2.963   4.603  0.9051 -0.0750  0.2430
  155DG      O9 3551   3.551   3.361   4.894  0.0218 -0.1117  0.3976
  155DG     O10 3552   4.004   3.110   4.742  0.5534 -0.2057 -0.2934
  155DG     C11 3553   3.617   3.454   4.813  0.2176  0.1176 -0.0958
  155DG     C12 3554   3.963   3.130   4.875  0.0300 -0.4571  0.5114
  155DG     H13 3555   3.573   3.547   4.849  0.0747 -0.1818  0.5204
  155DG     H14 3556   3.596   3.441   4.707 -0.8740  0.6634  0.0439
  155DG     H15 3557   4.032   3.090   4.949 -1.7767 -0.6377  2.1748
  155DG     H16 3558   3.880   3.062   4.892 -0.8000 -0.6255 -3.3398
  155DG     C17 3559   3.761   3.446   4.837 -0.0657  0.2848 -0.8023
  155DG     C18 3560   3.928   3.278   4.880  0.6035 -0.5950 -0.1514
  155DG     O19 3561   3.797   3.310   4.827 -0.0542  0.1759 -0.2241
  155DG     H20 3562   3.799   3.485   4.931 -0.3345 -1.7333  0.1917
  155DG     H21 3563   3.817   3.502   4.762  1.9586  0.5863  0.8674
  155DG     H22 3564   3.928   3.300   4.987 -0.0822 -0.6284 -0.1403
  155DG     H23 3565   4.013   3.328   4.833  2.1860 -3.2482 -0.2991
  156DG      C1 3566   3.223   1.221   1.849  0.7610 -0.9618 -0.6170
  156DG      C2 3567   3.962   0.782   1.740  0.4870 -0.0989 -0.5224
  156DG      H3 3568   3.176   1.279   1.769  1.1805  0.6865  0.2720
  156DG      H4 3569   3.298   1.295   1.877  0.8944 -1.1851 -0.3849
  156DG      H5 3570   3.149   1.218   1.929 -1.4109 -1.1851 -2.5350
  156DG      H6 3571   4.010   0.806   1.645  1.5805  0.4426  0.1496
  156DG      H7 3572   4.031   0.723   1.799 -0.5885 -2.7995 -1.7733
  156DG      H8 3573   3.879   0.713   1.725  0.5038 -0.7898  2.1694
  156DG      O9 3574   3.261   1.092   1.801 -0.0855  0.7765 -0.4043
  156DG     O10 3575   3.920   0.895   1.800  0.2200  0.0437 -0.1485
  156DG     C11 3576   3.391   1.091   1.753 -0.9784 -0.0089  0.6411
  156DG     C12 3577   3.802   0.958   1.738 -0.0987 -0.4282  0.2271
  156DG     H13 3578   3.469   1.121   1.823  1.0195 -1.7352 -0.7178
  156DG     H14 3579   3.411   1.165   1.675 -0.6338 -1.4801 -0.7210
  156DG     H15 3580   3.812   0.942   1.631 -2.3882 -0.7029 -0.0113
  156DG     H16 3581   3.810   1.065   1.753  0.5522 -0.4533  0.0608
  156DG     C17 3582   3.431   0.955   1.693  0.2923  0.8748 -0.5363
  156DG     C18 3583   3.655   0.906   1.773  0.0442 -0.0037  0.3383
  156DG     O19 3584   3.570   0.942   1.667  0.1725 -0.1415  0.2145
  156DG     H20 3585   3.370   0.944   1.603 -1.0543 -1.3129  0.5698
  156DG     H21 3586   3.411   0.864   1.749  0.3865  0.9718 -0.3454
  156DG     H22 3587   3.656   0.798   1.780 -1.3665 -0.2389 -1.9767
  156DG     H23 3588   3.617   0.950   1.865 -1.3851  1.1260 -0.7202
  157DG      C1 3589   0.606   5.321   2.150 -0.8988  0.5421  0.0820
  157DG      C2 3590  -0.038   5.466   1.929 -0.5003  0.1128  0.7303
  157DG      H3 3591   0.711   5.303   2.132 -1.1128 -0.7359  0.0496
  157DG      H4 3592   0.558   5.228   2.181 -1.4419  0.2237 -1.5933
  157DG      H5 3593   0.592   5.394   2.231  0.9177  0.8767  0.1260
  157DG      H6 3594  -0.052   5.393   2.009 -2.4580  0.5817  0.8796
  157DG      H7 3595  -0.090   5.561   1.943  1.0258  1.1109 -0.1112
  157DG      H8 3596  -0.082   5.422   1.839  0.7570 -0.1866  0.2397
  157DG      O9 3597   0.548   5.372   2.035 -0.6988 -0.5554  0.2872
  157DG     O10 3598   0.103   5.484   1.913  0.3020 -0.3587  0.6383
  157DG     C11 3599   0.597   5.502   1.996  0.6053  0.6282 -0.2124
  157DG     C12 3600   0.141   5.601   1.839 -0.3740  0.7074 -0.2188
  157DG     H13 3601   0.705   5.495   1.984  0.7215 -2.2008  1.6291
  157DG     H14 3602   0.574   5.567   2.081 -0.1519  1.8696 -1.3318
  157DG     H15 3603   0.117   5.698   1.882  2.7997  1.5462 -0.0360
  157DG     H16 3604   0.079   5.606   1.750 -0.3986 -1.9722 -0.4148
  157DG     C17 3605   0.517   5.529   1.868  0.2202 -0.0015 -0.3645
  157DG     C18 3606   0.292   5.588   1.795 -0.9796 -0.1591 -0.2247
  157DG     O19 3607   0.376   5.547   1.904  0.2152 -0.6990 -0.4633
  157DG     H20 3608   0.538   5.451   1.795  3.1791  0.8748 -0.6068
  157DG     H21 3609   0.557   5.619   1.820 -1.5139  1.6853  1.1950
  157DG     H22 3610   0.297   5.515   1.715 -0.3846 -1.6277  1.1156
  157DG     H23 3611   0.334   5.675   1.743  2.3176 -0.9085  0.9777
  158DG      C1 3612   4.557   2.069   2.664  0.1407  0.1469  0.0518
  158DG      C2 3613   5.076   1.658   2.494  0.0620  0.0833 -0.3507
  158DG      H3 3614   4.520   2.169   2.644 -2.7990 -0.4405  1.8689
  158DG      H4 3615   4.475   2.012   2.708 -1.5350  3.6333  1.8252
  158DG      H5 3616   4.576   2.022   2.568  0.4601 -1.7946  0.9987
  158DG      H6 3617   5.050   1.681   2.391  0.6294  1.1285 -0.2709
  158DG      H7 3618   5.184   1.647   2.484 -0.3030 -4.3982 -1.6795
  158DG      H8 3619   5.032   1.562   2.523 -0.9011  1.2187  2.2542
  158DG      O9 3620   4.677   2.066   2.733  0.0689  1.2868 -0.3971
  158DG     O10 3621   5.025   1.763   2.570  0.2334 -0.1663 -0.0280
  158DG     C11 3622   4.774   2.147   2.678 -0.0376 -0.2083  0.9052
  158DG     C12 3623   5.110   1.808   2.677 -0.1960  0.7265  0.0590
  158DG     H13 3624   4.760   2.252   2.704  3.3643  0.2879  1.1919
  158DG     H14 3625   4.780   2.146   2.569 -0.5494  0.7423  0.8602
  158DG     H15 3626   5.217   1.798   2.658 -0.4219 -1.7441 -0.2407
  158DG     H16 3627   5.094   1.738   2.759 -0.0851  2.7738  1.9153
  158DG     C17 3628   4.903   2.102   2.755 -0.2907 -0.5003  0.3385
  158DG     C18 3629   5.075   1.943   2.735 -0.3104  0.0431  0.6140
  158DG     O19 3630   4.933   1.969   2.731 -0.6159 -0.0723 -0.8800
  158DG     H20 3631   4.879   2.137   2.856  0.6160  0.3631  0.2637
  158DG     H21 3632   4.986   2.167   2.730 -0.5703  0.6006  2.0393
  158DG     H22 3633   5.120   1.958   2.833  1.3181 -0.2351 -0.0578
  158DG     H23 3634   5.134   2.017   2.681 -0.6029  1.0033  1.5771
  159DG      C1 3635   5.390   2.939   0.844  0.2737 -0.1692 -0.2969
  159DG      C2 3636   4.774   3.068   1.040  0.2096  0.1792 -0.0667
  159DG      H3 3637   5.458   2.927   0.760 -0.0513  0.2037 -0.6191
  159DG      H4 3638   5.350   2.842   0.871 -0.5208 -0.5359 -2.5958
  159DG      H5 3639   5.439   2.969   0.936  0.2918 -2.0824  0.3431
  159DG      H6 3640   4.807   3.106   1.136  0.4711 -1.1781  0.4035
  159DG      H7 3641   4.667   3.085   1.037  0.0857 -0.5527 -0.0930
  159DG      H8 3642   4.797   2.961   1.039  2.1280  0.5426 -0.8886
  159DG      O9 3643   5.277   3.022   0.806 -0.1584  0.2795  0.1109
  159DG     O10 3644   4.859   3.127   0.942 -0.0779 -0.4828  0.2477
  159DG     C11 3645   5.294   3.165   0.796 -0.7072 -0.5609 -0.3193
  159DG     C12 3646   4.851   3.266   0.930 -0.9767 -0.2773 -0.2473
  159DG     H13 3647   5.369   3.187   0.720 -1.1046  2.4149  0.0259
  159DG     H14 3648   5.334   3.208   0.888  2.4407  0.8520 -2.1734
  159DG     H15 3649   4.879   3.314   1.023  2.2420 -0.4584 -0.9930
  159DG     H16 3650   4.754   3.300   0.895 -0.5085 -0.3363 -1.6808
  159DG     C17 3651   5.163   3.237   0.755 -0.3014  0.8988  0.7596
  159DG     C18 3652   4.958   3.289   0.821  0.1716  0.1590  0.5546
  159DG     O19 3653   5.069   3.207   0.848 -0.5121 -0.2608 -0.1741
  159DG     H20 3654   5.131   3.201   0.658  1.2433 -2.5137  1.3718
  159DG     H21 3655   5.168   3.346   0.748  2.0541  0.8856  1.3149
  159DG     H22 3656   4.916   3.254   0.727  1.2569  1.4987 -0.4681
  159DG     H23 3657   4.980   3.396   0.821 -1.0416  0.4693 -1.7297
  160DG      C1 3658   3.559   0.496   4.983  0.5253  0.8935  0.3978
  160DG      C2 3659   3.791   0.345   5.375 -0.3279  0.4331 -0.4038
  160DG      H3 3660   3.647   0.461   4.930  0.2614  1.3469 -0.3698
  160DG      H4 3661   3.596   0.569   5.054  2.0785  1.1615 -0.6353
  160DG      H5 3662   3.491   0.546   4.913  0.8583  1.5564  0.5389
  160DG      H6 3663   3.721   0.379   5.298 -1.0624 -1.2603 -0.5318
  160DG      H7 3664   3.825   0.437   5.423 -1.6404  0.8594 -0.2511
  160DG      H8 3665   3.877   0.291   5.336 -0.3644 -0.4797  0.7227
  160DG      O9 3666   3.481   0.390   5.027  0.0686  0.2550 -0.1415
  160DG     O10 3667   3.726   0.262   5.468 -0.2218  0.2056 -0.4108
  160DG     C11 3668   3.360   0.424   5.088  0.2563 -0.0585 -0.3266
  160DG     C12 3669   3.589   0.291   5.485  0.4230  0.2527 -0.7290
  160DG     H13 3670   3.277   0.422   5.017  1.0589 -0.2012 -1.2789
  160DG     H14 3671   3.365   0.532   5.107 -0.1654  0.2061 -1.6339
  160DG     H15 3672   3.572   0.397   5.503  0.0302  0.2489 -1.0579
  160DG     H16 3673   3.546   0.242   5.573 -1.6610 -1.3053 -2.4872
  160DG     C17 3674   3.346   0.329   5.213  0.4003  0.4695 -0.3518
  160DG     C18 3675   3.498   0.237   5.372 -0.1617  0.4930  0.3647
  160DG     O19 3676   3.472   0.339   5.277 -0.1391 -0.2121 -0.1272
  160DG     H20 3677   3.313   0.226   5.193  0.6519  0.2090  0.5232
  160DG     H21 3678   3.277   0.375   5.283  2.2633  0.9828  1.2246
  160DG     H22 3679   3.539   0.148   5.325  0.6883  0.3296  1.3777
  160DG     H23 3680   3.407   0.197   5.418  0.8614 -0.8992  1.2680
  161DG      C1 3681   1.767   1.167   4.791 -0.3623  0.5035 -0.2052
  161DG      C2 3682   1.183   1.462   4.793  0.2251  0.0662 -0.2391
  161DG      H3 3683   1.738   1.081   4.851 -1.3530  1.6066  0.9726
  161DG      H4 3684   1.830   1.239   4.843 -0.2333  0.3308 -0.1220
  161DG      H5 3685   1.827   1.121   4.713 -1.6105 -0.0705 -0.8682
  161DG      H6 3686   1.144   1.376   4.848  1.2202 -0.7375 -0.7556
  161DG      H7 3687   1.223   1.539   4.858 -2.0996  1.0979  0.0853
  161DG      H8 3688   1.099   1.514   4.748 -0.5180  1.0507  2.1110
  161DG      O9 3689   1.661   1.234   4.729  0.1399  0.8274  0.2032
  161DG     O10 3690   1.265   1.393   4.700  0.0191 -0.5684  1.0006
  161DG     C11 3691   1.710   1.333   4.638  0.2036  0.0086  0.3676
  161DG     C12 3692   1.298   1.482   4.590 -0.7302 -0.1286  0.1902
  161DG     H13 3693   1.768   1.277   4.565 -1.5053 -0.9730 -0.3061
  161DG     H14 3694   1.778   1.401   4.688 -0.4574  1.1406 -0.2192
  161DG     H15 3695   1.351   1.561   4.641 -1.0940  1.2587 -1.4756
  161DG     H16 3696   1.204   1.513   4.544 -1.0738  0.2558  1.1459
  161DG     C17 3697   1.604   1.416   4.570  0.4500 -0.1163 -1.4103
  161DG     C18 3698   1.381   1.405   4.483 -0.3441  0.4953 -0.1924
  161DG     O19 3699   1.496   1.333   4.525  0.0618  0.6427  0.4829
  161DG     H20 3700   1.646   1.485   4.497  1.5655  1.1548  0.3512
  161DG     H21 3701   1.568   1.481   4.650 -2.2504 -1.0439 -1.7924
  161DG     H22 3702   1.313   1.336   4.432 -1.2383  1.0600  0.2087
  161DG     H23 3703   1.409   1.479   4.408 -0.4434  1.0010  0.2623
  162DG      C1 3704   3.823   4.806   3.424  0.6206  0.0725 -1.0002
  162DG      C2 3705   4.290   4.765   3.118  0.3432  0.8239 -0.1392
  162DG      H3 3706   3.715   4.789   3.428  0.8807 -1.5952  0.1762
  162DG      H4 3707   3.837   4.900   3.477 -0.5728 -0.0708 -0.3754
  162DG      H5 3708   3.865   4.719   3.475  0.1248  1.3836  1.8303
  162DG      H6 3709   4.329   4.800   3.213  0.6778  0.4408 -0.1296
  162DG      H7 3710   4.185   4.748   3.140  0.1547  1.0931 -0.8194
  162DG      H8 3711   4.331   4.665   3.102 -1.5987 -0.6964  3.2159
  162DG      O9 3712   3.885   4.812   3.301  0.1788  0.0886  0.5030
  162DG     O10 3713   4.328   4.849   3.009 -0.2746  0.5897  0.1943
  162DG     C11 3714   3.815   4.890   3.198 -0.0313  0.6421  1.0018
  162DG     C12 3715   4.243   4.959   2.998  0.4109  0.1827 -0.2239
  162DG     H13 3716   3.817   4.992   3.237  0.0713  1.0422 -0.0153
  162DG     H14 3717   3.710   4.864   3.187 -0.4784  2.3481  0.9050
  162DG     H15 3718   4.281   5.011   2.910 -0.9194  0.1695 -0.8353
  162DG     H16 3719   4.243   5.026   3.083  0.9242  1.0826 -0.9167
  162DG     C17 3720   3.881   4.870   3.062 -0.9977  0.4110 -0.5476
  162DG     C18 3721   4.090   4.928   2.968 -0.0247  0.2090 -0.0601
  162DG     O19 3722   4.021   4.903   3.084  0.4304 -0.1376 -0.0735
  162DG     H20 3723   3.826   4.937   2.996  0.7824  1.0014 -1.4898
  162DG     H21 3724   3.878   4.766   3.030  1.6764 -0.0572  0.4753
  162DG     H22 3725   4.043   5.018   2.930 -1.5286 -1.0675 -1.4018
  162DG     H23 3726   4.074   4.837   2.911 -0.8486  0.1498  0.2557
  163DG      C1 3727   4.764   4.540   5.116  0.4471 -0.7025 -0.6322
  163DG      C2 3728   4.155   4.030   5.388 -0.2764 -0.4081  0.2194
  163DG      H3 3729   4.776   4.636   5.066  3.1221  0.0857  1.3053
  163DG      H4 3730   4.808   4.466   5.049 -1.1730 -0.2109 -2.3193
  163DG      H5 3731   4.827   4.545   5.204  0.0597 -2.4241 -0.2147
  163DG      H6 3732   4.234   3.970   5.433  0.7378  0.2312 -0.6751
  163DG      H7 3733   4.060   4.001   5.433 -0.0004 -0.3573  0.8583
  163DG      H8 3734   4.148   4.000   5.284  0.9006  0.4304 -0.1175
  163DG      O9 3735   4.628   4.508   5.142  0.3514  0.0162 -0.3012
  163DG     O10 3736   4.177   4.167   5.389  0.1351  0.0462  0.4078
  163DG     C11 3737   4.571   4.588   5.237  0.0931 -0.3940 -0.9137
  163DG     C12 3738   4.311   4.205   5.352  0.1401  0.4638 -0.5509
  163DG     H13 3739   4.587   4.692   5.206  0.6863 -0.0019  0.6311
  163DG     H14 3740   4.628   4.578   5.328 -2.2795  2.1809  1.0504
  163DG     H15 3741   4.341   4.153   5.261 -0.4581 -1.9627  0.5636
  163DG     H16 3742   4.373   4.166   5.433  1.3446 -2.0179 -2.5168
  163DG     C17 3743   4.434   4.539   5.270 -0.3684  0.1559 -0.0030
  163DG     C18 3744   4.305   4.352   5.323 -0.2420 -1.1896 -1.3866
  163DG     O19 3745   4.433   4.403   5.293  0.3193 -0.0345  0.0756
  163DG     H20 3746   4.356   4.563   5.198  2.1342  0.0612 -2.9479
  163DG     H21 3747   4.399   4.594   5.357  0.7451  2.2939 -0.8490
  163DG     H22 3748   4.233   4.367   5.242 -1.4420  2.2485  0.1122
  163DG     H23 3749   4.274   4.385   5.422  0.5642  0.0769 -1.5349
  164DG      C1 3750   1.984   3.873   3.101  0.4843 -0.6252 -0.4809
  164DG      C2 3751   2.072   4.087   3.759 -0.4774  0.1861  0.2926
  164DG      H3 3752   2.067   3.943   3.086 -0.5330  0.9860  1.0034
  164DG      H4 3753   1.895   3.928   3.070  1.3249  1.0750  0.0020
  164DG      H5 3754   2.004   3.795   3.028  1.6178 -1.4721  0.6820
  164DG      H6 3755   2.180   4.091   3.743 -0.7950  0.1408 -2.4139
  164DG      H7 3756   2.028   4.177   3.716  2.9078  0.8181 -2.3706
  164DG      H8 3757   2.063   4.077   3.867 -0.6612 -2.9254  0.0938
  164DG      O9 3758   1.977   3.847   3.235 -0.1211 -0.1298 -0.0029
  164DG     O10 3759   2.029   3.968   3.694  0.4113  0.2364 -0.7894
  164DG     C11 3760   1.874   3.753   3.259  0.2672 -0.5721 -0.5201
  164DG     C12 3761   1.889   3.949   3.711  0.3133  0.1676 -0.2546
  164DG     H13 3762   1.920   3.659   3.229  2.7330  0.5746 -0.5598
  164DG     H14 3763   1.792   3.767   3.188  2.1954  1.9375 -2.4350
  164DG     H15 3764   1.821   4.032   3.690 -0.3274 -0.6462 -1.5349
  164DG     H16 3765   1.867   3.923   3.814 -1.0499 -0.3028 -0.6318
  164DG     C17 3766   1.840   3.739   3.404  0.0706 -1.0022  0.1356
  164DG     C18 3767   1.842   3.830   3.624 -0.0423 -0.3617  0.4222
  164DG     O19 3768   1.831   3.861   3.487 -0.4364 -0.2576 -0.1781
  164DG     H20 3769   1.921   3.681   3.449  2.0803  2.0652  0.7793
  164DG     H21 3770   1.751   3.681   3.424  1.1784 -2.1368  2.0635
  164DG     H22 3771   1.911   3.749   3.647 -0.7279 -0.9473  0.4259
  164DG     H23 3772   1.744   3.797   3.659 -0.0567 -1.6213 -0.7571
  165DG      C1 3773   2.682   1.363   5.397 -0.1421  0.3264  0.2928
  165DG      C2 3774   3.115   1.346   6.030 -1.3204 -0.3439 -0.1188
  165DG      H3 3775   2.599   1.312   5.447  1.1547 -1.0358  1.1403
  165DG      H4 3776   2.751   1.285   5.365  1.0181  1.3352  0.3138
  165DG      H5 3777   2.653   1.417   5.307  0.8312 -1.6977 -1.3316
  165DG      H6 3778   3.219   1.331   6.059 -1.2566  0.9075  0.3636
  165DG      H7 3779   3.077   1.370   6.130  0.7337  0.9387  0.4336
  165DG      H8 3780   3.084   1.253   5.982 -1.7964  0.1645 -0.8187
  165DG      O9 3781   2.748   1.443   5.494  0.1337  0.5984 -0.2579
  165DG     O10 3782   3.106   1.461   5.952  0.1750  0.6287  0.5862
  165DG     C11 3783   2.881   1.494   5.469  0.2815 -0.2124 -0.2680
  165DG     C12 3784   2.974   1.503   5.945 -0.2082 -0.4927  0.8491
  165DG     H13 3785   2.894   1.556   5.380  0.9181 -0.2779 -0.2257
  165DG     H14 3786   2.947   1.408   5.460 -1.3756 -1.4647 -1.0721
  165DG     H15 3787   2.955   1.562   6.034  1.1395 -0.7681  1.3557
  165DG     H16 3788   2.910   1.415   5.942  0.3461 -0.8853 -1.5508
  165DG     C17 3789   2.917   1.577   5.594 -0.0516  0.5026  0.2037
  165DG     C18 3790   2.960   1.585   5.816 -0.3055 -0.2229  0.1418
  165DG     O19 3791   2.948   1.499   5.704  0.0203 -0.7454  0.6524
  165DG     H20 3792   2.832   1.645   5.607 -0.5015 -0.2507  1.3479
  165DG     H21 3793   3.004   1.642   5.583  1.8893 -1.8030  1.1317
  165DG     H22 3794   2.870   1.647   5.824  0.0079  0.1891  0.5724
  165DG     H23 3795   3.047   1.649   5.806  0.3771 -1.1990 -0.2259
  166DG      C1 3796   4.215   4.256   4.492  0.2483 -0.4589  0.3485
  166DG      C2 3797   4.013   4.420   5.069 -0.1977  0.0426  0.2323
  166DG      H3 3798   4.246   4.359   4.477  1.6176 -1.1300 -1.8570
  166DG      H4 3799   4.109   4.258   4.464  0.3212  1.9588  0.0034
  166DG      H5 3800   4.263   4.190   4.420  1.0834  0.0260  0.4487
  166DG      H6 3801   4.080   4.505   5.062  1.5572 -1.3259 -0.3458
  166DG      H7 3802   3.921   4.433   5.010 -0.9102 -0.4533  1.2030
  166DG      H8 3803   3.987   4.426   5.175 -1.4844  0.1247 -0.0705
  166DG      O9 3804   4.238   4.209   4.624 -0.0573  0.4879 -0.8725
  166DG     O10 3805   4.084   4.309   5.012  0.2535  0.4918 -0.3445
  166DG     C11 3806   4.201   4.072   4.637 -0.1612 -0.4568 -0.2925
  166DG     C12 3807   4.036   4.183   5.057 -0.2380 -0.3869  0.0295
  166DG     H13 3808   4.248   4.013   4.557 -1.9826  0.1589 -1.8728
  166DG     H14 3809   4.094   4.055   4.628 -0.5227  0.8305  1.3040
  166DG     H15 3810   3.940   4.166   5.009 -0.3415 -1.0975  0.4644
  166DG     H16 3811   4.025   4.172   5.165  0.3210  1.3982  0.3049
  166DG     C17 3812   4.224   4.032   4.779  0.3602 -0.5964  0.4247
  166DG     C18 3813   4.132   4.081   4.996  0.6796 -0.4617  0.2613
  166DG     O19 3814   4.148   4.122   4.858  0.0592  0.2382 -0.4074
  166DG     H20 3815   4.326   4.030   4.818  0.4649  0.9500  0.2939
  166DG     H21 3816   4.179   3.933   4.786 -1.3321 -0.0160 -1.3074
  166DG     H22 3817   4.224   4.063   5.052  0.9186  0.8379  0.3245
  166DG     H23 3818   4.089   3.981   4.991  0.8982 -0.5016 -2.8593
  167DG      C1 3819   2.637   2.777   0.524  0.7300 -0.0168 -0.6810
  167DG      C2 3820   3.066   2.470   0.206  0.2138 -0.8795  0.0131
  167DG      H3 3821   2.643   2.697   0.597  2.6351  0.4404 -0.2654
  167DG      H4 3822   2.544   2.827   0.552  0.5312 -0.6221 -0.2518
  167DG      H5 3823   2.722   2.842   0.547  1.5796 -1.8636  1.7927
  167DG      H6 3824   3.113   2.385   0.256  2.7304 -0.1666 -0.9672
  167DG      H7 3825   3.072   2.456   0.098 -0.3517 -0.1405 -0.1220
  167DG      H8 3826   3.135   2.549   0.234  1.0464 -1.1228 -1.2764
  167DG      O9 3827   2.640   2.739   0.385  0.8939 -0.1572 -0.6650
  167DG     O10 3828   2.935   2.487   0.252 -0.3058 -0.5888  0.8100
  167DG     C11 3829   2.535   2.653   0.349 -0.8868  0.3181  0.2895
  167DG     C12 3830   2.853   2.381   0.223  0.8211 -0.6694  0.3995
  167DG     H13 3831   2.440   2.704   0.365  0.0270  1.4235  2.4908
  167DG     H14 3832   2.540   2.570   0.420  2.1298 -1.7540 -2.0644
  167DG     H15 3833   2.880   2.294   0.283  2.3130  0.0106  0.7797
  167DG     H16 3834   2.861   2.355   0.118 -1.4421 -1.5202  0.3976
  167DG     C17 3835   2.551   2.599   0.201 -0.1650 -0.6990 -0.0653
  167DG     C18 3836   2.701   2.409   0.235 -0.3149  0.0965 -0.3712
  167DG     O19 3837   2.679   2.537   0.180  0.2793 -0.0492  0.1351
  167DG     H20 3838   2.546   2.675   0.124  1.8360  0.6746  1.0890
  167DG     H21 3839   2.470   2.526   0.190 -1.0648  0.2451  0.1465
  167DG     H22 3840   2.633   2.330   0.203 -0.8751  0.5466 -0.2955
  167DG     H23 3841   2.674   2.410   0.341 -0.6353 -0.4026 -0.4483
  168DG      C1 3842   2.623   1.536   4.514 -0.1223  0.2419  0.6191
  168DG      C2 3843   3.281   1.359   4.463 -0.0139  0.6359  0.3183
  168DG      H3 3844   2.541   1.512   4.447  1.6859  2.1136 -2.5591
  168DG      H4 3845   2.667   1.627   4.472 -0.3677  1.0434  2.0446
  168DG      H5 3846   2.590   1.551   4.616  1.5828 -1.0256  1.4053
  168DG      H6 3847   3.307   1.352   4.357 -0.9833 -0.5367  0.1364
  168DG      H7 3848   3.278   1.459   4.506  0.5786  0.8586 -0.1446
  168DG      H8 3849   3.361   1.300   4.507  0.2856 -0.6078 -1.7483
  168DG      O9 3850   2.721   1.438   4.525 -0.3134  0.0296  0.3634
  168DG     O10 3851   3.157   1.301   4.474  0.2598  0.0724 -0.2177
  168DG     C11 3852   2.665   1.308   4.546 -0.2078 -0.1957  0.3392
  168DG     C12 3853   3.149   1.179   4.537 -0.4172 -0.5178 -0.2051
  168DG     H13 3854   2.646   1.259   4.451  1.1758 -0.9614  0.4411
  168DG     H14 3855   2.579   1.307   4.613 -0.8719 -1.2580 -0.5116
  168DG     H15 3856   3.191   1.196   4.637 -2.3074  1.1365  0.3568
  168DG     H16 3857   3.199   1.098   4.483 -1.2590 -1.8948  0.9923
  168DG     C17 3858   2.784   1.226   4.590  0.1676  1.0161 -0.5366
  168DG     C18 3859   2.999   1.140   4.550  0.7877 -0.1783 -0.1757
  168DG     O19 3860   2.904   1.246   4.515  0.1551  0.2088  0.6186
  168DG     H20 3861   2.744   1.125   4.590  3.4458 -0.4662  2.1097
  168DG     H21 3862   2.811   1.241   4.694  1.9358 -0.8032 -0.6858
  168DG     H22 3863   2.975   1.044   4.503  2.1024 -0.4247 -0.3806
  168DG     H23 3864   2.982   1.119   4.655  1.7995  0.6978  0.1795
  169DG      C1 3865   0.064   2.978   1.231  0.0184  0.1308  0.4673
  169DG      C2 3866   0.266   2.691   0.634 -0.1875  0.5284 -0.6696
  169DG      H3 3867   0.007   2.992   1.323 -2.5573  0.8007 -1.1395
  169DG      H4 3868   0.023   3.060   1.173 -2.4424 -0.9800  0.5019
  169DG      H5 3869   0.171   2.999   1.241  0.3832 -1.2932 -0.1301
  169DG      H6 3870   0.352   2.756   0.649 -0.3329  0.4172  0.8556
  169DG      H7 3871   0.287   2.607   0.567 -0.4791  1.6601 -2.2330
  169DG      H8 3872   0.190   2.751   0.584 -0.3377  1.4753  0.6451
  169DG      O9 3873   0.026   2.858   1.162  0.3083  0.0524  0.1126
  169DG     O10 3874   0.234   2.641   0.765  0.2626 -0.0396  0.0935
  169DG     C11 3875   0.076   2.743   1.225  0.0455 -0.2299  0.3883
  169DG     C12 3876   0.102   2.605   0.770  0.0875 -0.0853  0.2230
  169DG     H13 3877   0.049   2.733   1.330 -1.5042 -2.9152 -0.1535
  169DG     H14 3878   0.184   2.755   1.221  0.2861 -0.2651  3.9978
  169DG     H15 3879   0.077   2.526   0.700 -1.5795  0.7106 -0.1469
  169DG     H16 3880   0.036   2.690   0.751  0.8348  0.2568 -0.9776
  169DG     C17 3881   0.037   2.625   1.130  0.3516 -0.2998 -0.5926
  169DG     C18 3882   0.071   2.549   0.911 -0.6108 -0.2114  0.0469
  169DG     O19 3883   0.094   2.647   1.011 -0.2364  0.4644  0.3720
  169DG     H20 3884  -0.070   2.619   1.115 -0.3062 -1.0535  3.3621
  169DG     H21 3885   0.059   2.529   1.178 -2.3787 -0.4093  0.6195
  169DG     H22 3886  -0.031   2.510   0.917 -0.3323 -1.2930 -1.5263
  169DG     H23 3887   0.138   2.464   0.927  1.3501  1.2810  0.1846
  170DG      C1 3888   5.246   1.047   0.598 -0.6625 -0.2428  0.3795
  170DG      C2 3889   4.874   1.563   0.775 -0.3710 -0.4957  0.0235
  170DG      H3 3890   5.283   1.072   0.498 -1.4576  1.2631  0.4272
  170DG      H4 3891   5.167   0.972   0.587 -0.3768 -0.2168 -3.0149
  170DG      H5 3892   5.331   1.005   0.652  0.4738  1.7360  0.2298
  170DG      H6 3893   4.883   1.462   0.736  1.1623 -0.4720  0.2505
  170DG      H7 3894   4.821   1.575   0.870  0.6263 -0.3963  0.5792
  170DG      H8 3895   4.813   1.608   0.697  0.5179 -0.9608 -0.9635
  170DG      O9 3896   5.199   1.161   0.667  0.0592  0.5733 -0.3629
  170DG     O10 3897   4.998   1.629   0.785  0.5013 -0.0545 -0.4403
  170DG     C11 3898   5.294   1.272   0.684  0.8012 -0.6505 -0.1495
  170DG     C12 3899   5.072   1.600   0.898  0.3525  0.0949 -1.1320
  170DG     H13 3900   5.288   1.341   0.601 -0.1916  0.6484  0.9479
  170DG     H14 3901   5.389   1.223   0.705  0.1884 -1.7592  0.1371
  170DG     H15 3902   5.029   1.658   0.980 -2.2589  0.5523 -2.7086
  170DG     H16 3903   5.168   1.640   0.866  0.7706  1.4705  1.5404
  170DG     C17 3904   5.257   1.339   0.819  0.5233  0.2405  0.0700
  170DG     C18 3905   5.094   1.450   0.933 -0.0674  0.8766  0.4469
  170DG     O19 3906   5.115   1.358   0.827 -0.6741  0.9137  0.1410
  170DG     H20 3907   5.308   1.435   0.827 -1.9186  1.4416  3.0737
  170DG     H21 3908   5.276   1.276   0.905 -1.3135  0.5391  0.7480
  170DG     H22 3909   5.167   1.440   1.013 -0.2841 -0.1941  0.5276
  170DG     H23 3910   4.998   1.416   0.972 -0.2487  0.6089 -0.2236
  171DG      C1 3911   3.973   0.465   5.048  0.8092  0.0176  0.3800
  171DG      C2 3912   4.289   0.697   4.761 -0.8189 -0.1880  0.3601
  171DG      H3 3913   3.916   0.426   4.964 -1.6156 -0.5613  2.1931
  171DG      H4 3914   3.964   0.398   5.133  2.2611  1.8728  2.1035
  171DG      H5 3915   4.074   0.487   5.013  0.9238  0.3630  0.9178
  171DG      H6 3916   4.200   0.747   4.799 -0.5965  0.7527 -0.3188
  171DG      H7 3917   4.353   0.778   4.725  0.4482 -0.9591  0.7996
  171DG      H8 3918   4.270   0.640   4.670  0.3056 -1.4969  0.9007
  171DG      O9 3919   3.922   0.599   5.082 -0.3481 -0.2548  0.2172
  171DG     O10 3920   4.344   0.618   4.863  0.1604 -0.0486 -0.2903
  171DG     C11 3921   3.970   0.649   5.199 -0.3724 -0.4831 -0.7100
  171DG     C12 3922   4.399   0.691   4.979 -0.3975  0.0595 -0.1262
  171DG     H13 3923   3.988   0.573   5.275 -0.6022  0.2709  0.1151
  171DG     H14 3924   3.899   0.710   5.254  3.2527  3.4749  0.0447
  171DG     H15 3925   4.477   0.760   4.948 -0.4981  0.0139 -0.4946
  171DG     H16 3926   4.450   0.602   5.017  2.1519  0.5334 -2.1648
  171DG     C17 3927   4.081   0.742   5.161 -0.9676  0.3014  0.1942
  171DG     C18 3928   4.294   0.758   5.063  0.6790 -0.3101 -0.6779
  171DG     O19 3929   4.191   0.669   5.102 -0.1424  0.6542  0.0107
  171DG     H20 3930   4.101   0.791   5.257 -2.3484  1.5432 -0.1144
  171DG     H21 3931   4.050   0.830   5.105  1.9307  0.6947 -0.9520
  171DG     H22 3932   4.345   0.797   5.151  0.4698  0.2559 -0.8000
  171DG     H23 3933   4.260   0.846   5.008 -0.3010  0.5710  1.2453
  172DG      C1 3934   4.512   1.601   0.044 -0.5954 -0.0866 -0.8648
  172DG      C2 3935   5.106   1.984  -0.075  0.3312 -0.5436 -0.5219
  172DG      H3 3936   4.483   1.698   0.085 -0.1012 -1.0707  2.1096
  172DG      H4 3937   4.467   1.545   0.126  1.0408  0.1516  0.2534
  172DG      H5 3938   4.473   1.572  -0.053  1.7538  0.9899 -2.2102
  172DG      H6 3939   5.084   1.975  -0.181 -2.0360  0.6160 -0.2024
  172DG      H7 3940   5.045   2.072  -0.055  0.1467 -0.3111 -1.9678
  172DG      H8 3941   5.207   2.026  -0.067  0.0229 -0.1712  2.3482
  172DG      O9 3942   4.654   1.594   0.050  0.0697 -0.2613  0.3249
  172DG     O10 3943   5.069   1.865   0.002 -0.0581 -0.2535 -0.7270
  172DG     C11 3944   4.708   1.476   0.004  0.1760 -0.3016 -0.4557
  172DG     C12 3945   5.111   1.744  -0.050 -0.2231  0.1632  0.4111
  172DG     H13 3946   4.698   1.472  -0.104 -1.5056  0.4721 -0.3653
  172DG     H14 3947   4.670   1.388   0.056 -0.5429  0.4556  0.3445
  172DG     H15 3948   5.219   1.762  -0.046 -0.0410 -0.5505 -0.9532
  172DG     H16 3949   5.088   1.739  -0.156 -0.1003  0.9251  0.3400
  172DG     C17 3950   4.859   1.478   0.036 -0.1256  0.2327  1.0267
  172DG     C18 3951   5.051   1.630   0.035  0.2368  0.3971 -0.0516
  172DG     O19 3952   4.907   1.613   0.019  0.5474  0.4950 -0.6363
  172DG     H20 3953   4.916   1.416  -0.033 -1.8146  1.2004 -1.3590
  172DG     H21 3954   4.879   1.445   0.138  0.0777  2.1215  1.6327
  172DG     H22 3955   5.090   1.534   0.003  2.0138  1.1133 -0.1584
  172DG     H23 3956   5.084   1.644   0.138  1.3012 -1.2990 -0.1363
  173DG      C1 3957   1.391   2.342   2.709 -0.0680 -0.0864 -0.2629
  173DG      C2 3958   1.087   2.631   2.114  0.2077 -0.4559 -0.2693
  173DG      H3 3959   1.332   2.433   2.715 -0.7691 -0.5933  0.5964
  173DG      H4 3960   1.497   2.370   2.706 -0.2352  0.4546 -2.0884
  173DG      H5 3961   1.377   2.280   2.797  0.0911  0.6972  0.3228
  173DG      H6 3962   1.105   2.708   2.190 -5.6543  2.3720 -1.0943
  173DG      H7 3963   1.154   2.665   2.035 -0.4452  0.3183 -0.5134
  173DG      H8 3964   0.986   2.643   2.073  1.7437  1.3254 -3.9606
  173DG      O9 3965   1.367   2.278   2.584 -0.0328  0.5383  0.1929
  173DG     O10 3966   1.121   2.503   2.161 -0.4705  0.3239 -0.3442
  173DG     C11 3967   1.231   2.230   2.578 -0.2701 -0.2557  0.1041
  173DG     C12 3968   1.250   2.489   2.213  0.3570 -0.0297 -0.2806
  173DG     H13 3969   1.167   2.318   2.592 -0.6942 -0.5157 -0.1788
  173DG     H14 3970   1.195   2.155   2.649 -1.7664  0.1627 -0.1704
  173DG     H15 3971   1.255   2.549   2.304  0.8499 -0.9177  0.3025
  173DG     H16 3972   1.327   2.529   2.147  0.4861  0.1749 -0.0070
  173DG     C17 3973   1.207   2.189   2.433 -0.9978  0.0284 -0.0738
  173DG     C18 3974   1.274   2.343   2.256  0.1069 -0.1461  0.5060
  173DG     O19 3975   1.170   2.306   2.353 -0.0186 -0.1795 -0.0311
  173DG     H20 3976   1.113   2.134   2.427 -0.1251 -1.5215  0.0914
  173DG     H21 3977   1.292   2.129   2.401 -2.5573 -1.5933 -1.3607
  173DG     H22 3978   1.286   2.275   2.172  2.7447  0.1468  0.5568
  173DG     H23 3979   1.373   2.345   2.301 -1.0589  0.6553  3.2922
  174DG      C1 3980   2.932   3.406   4.281  0.2980  0.0734 -0.0255
  174DG      C2 3981   2.652   3.991   4.527 -0.0017 -0.5392  0.0883
  174DG      H3 3982   2.978   3.458   4.365  2.0408 -2.9143  1.0230
  174DG      H4 3983   3.003   3.418   4.199 -1.3038  0.6484 -1.3842
  174DG      H5 3984   2.938   3.300   4.306  2.4873  0.3065  0.6609
  174DG      H6 3985   2.713   4.008   4.616  0.6895 -0.9736 -0.2884
  174DG      H7 3986   2.712   4.017   4.439 -2.5915  2.6424 -0.9240
  174DG      H8 3987   2.570   4.062   4.532  0.9297  0.5238  0.7220
  174DG      O9 3988   2.804   3.458   4.276 -0.3775 -0.0368  0.1078
  174DG     O10 3989   2.612   3.861   4.524 -0.3922  0.2351 -0.8149
  174DG     C11 3990   2.728   3.410   4.381  0.5311  0.3233 -0.2209
  174DG     C12 3991   2.522   3.841   4.416  0.1902  1.0224 -0.4097
  174DG     H13 3992   2.775   3.435   4.476  0.7268 -1.1440  0.0890
  174DG     H14 3993   2.715   3.302   4.377 -0.7859  0.4614 -0.1826
  174DG     H15 3994   2.573   3.871   4.324  0.1495 -1.1130 -1.1792
  174DG     H16 3995   2.432   3.896   4.444 -1.7036 -1.8011 -0.6580
  174DG     C17 3996   2.592   3.486   4.399  0.2606  0.7552  0.4519
  174DG     C18 3997   2.478   3.692   4.413  0.4419  0.2710 -0.4804
  174DG     O19 3998   2.608   3.628   4.392  0.7522 -0.2688  0.0369
  174DG     H20 3999   2.561   3.457   4.499 -0.6369  0.5835  0.1343
  174DG     H21 4000   2.515   3.452   4.330 -0.5654  3.6843 -0.2011
  174DG     H22 4001   2.427   3.662   4.505  2.4019 -2.0028 -0.0548
  174DG     H23 4002   2.412   3.683   4.327 -0.1974  1.8143 -0.1864
  175DG      C1 4003   1.783   0.777   5.092  0.0197 -0.3885 -0.1663
  175DG      C2 4004   1.908   0.104   5.605  0.0748 -0.4964  0.6242
  175DG      H3 4005   1.797   0.873   5.044  0.0325  0.7164  1.9198
  175DG      H4 4006   1.707   0.790   5.169  2.0728  0.6835  1.8005
  175DG      H5 4007   1.739   0.707   5.021 -2.0629  0.1986  0.4715
  175DG      H6 4008   1.861   0.030   5.540  1.6212 -0.6634 -0.3705
  175DG      H7 4009   1.992   0.051   5.651  0.3655 -0.7009 -0.1178
  175DG      H8 4010   1.838   0.138   5.680  0.5653  1.1584  0.3744
  175DG      O9 4011   1.897   0.709   5.156  0.0278  0.0231 -0.5422
  175DG     O10 4012   1.967   0.212   5.527  0.4467  0.5673  0.1668
  175DG     C11 4013   1.861   0.632   5.271  0.7197  0.5047 -0.4021
  175DG     C12 4014   2.001   0.329   5.613 -0.0448 -0.3110  0.2327
  175DG     H13 4015   1.794   0.548   5.251 -1.9952  2.3899  0.1815
  175DG     H14 4016   1.809   0.694   5.344 -0.9888 -0.0640 -1.0872
  175DG     H15 4017   2.085   0.300   5.676  2.5699  1.4118 -2.2324
  175DG     H16 4018   1.914   0.376   5.659 -0.1652  0.3955 -0.6982
  175DG     C17 4019   1.988   0.577   5.330  0.3015 -0.8254  0.6018
  175DG     C18 4020   2.051   0.431   5.518 -0.4979 -0.1527  0.1571
  175DG     O19 4021   1.950   0.483   5.432  1.0104  0.0354 -0.1173
  175DG     H20 4022   2.049   0.662   5.362 -0.5099 -0.7660  2.0999
  175DG     H21 4023   2.045   0.524   5.255 -0.0843  1.6943 -1.6266
  175DG     H22 4024   2.107   0.516   5.558  0.7480 -0.6923 -0.4010
  175DG     H23 4025   2.123   0.378   5.455  1.8617  0.6062  2.0549
  176DG      C1 4026   3.989   1.461   1.488  0.6094 -0.1713 -0.1166
  176DG      C2 4027   3.574   1.408   1.053  0.5172  0.8188 -0.2990
  176DG      H3 4028   4.088   1.463   1.534  0.6598 -2.5319 -0.0064
  176DG      H4 4029   3.930   1.379   1.527 -1.0665  0.0707 -1.9769
  176DG      H5 4030   3.944   1.555   1.518  0.3523 -0.8986  1.8959
  176DG      H6 4031   3.540   1.325   1.113  0.2804  0.8905 -0.3312
  176DG      H7 4032   3.488   1.424   0.987  1.5019  0.7722 -1.6350
  176DG      H8 4033   3.661   1.374   0.997 -0.6056 -0.7707 -1.1365
  176DG      O9 4034   3.996   1.456   1.341 -0.4506  0.0183 -0.0471
  176DG     O10 4035   3.614   1.526   1.120  0.6004  0.5076  0.1778
  176DG     C11 4036   4.070   1.564   1.283  0.1921  0.0127 -0.4339
  176DG     C12 4037   3.655   1.634   1.041 -0.3291 -0.0306  0.6589
  176DG     H13 4038   4.177   1.552   1.270 -0.0780 -1.6213 -1.5394
  176DG     H14 4039   4.059   1.664   1.324  3.3747  0.9930 -1.6402
  176DG     H15 4040   3.619   1.727   1.086  0.0198 -0.3064  1.5333
  176DG     H16 4041   3.601   1.635   0.947 -1.9887  1.2860  1.5797
  176DG     C17 4042   4.011   1.583   1.139  0.3625  0.5479 -0.2231
  176DG     C18 4043   3.807   1.623   1.035  0.6267 -0.9898 -0.3395
  176DG     O19 4044   3.868   1.605   1.162 -0.4926  0.2041 -0.3316
  176DG     H20 4045   4.041   1.504   1.070 -0.4709 -0.1690  0.2160
  176DG     H21 4046   4.059   1.668   1.092 -1.1591  0.0630 -2.8707
  176DG     H22 4047   3.832   1.547   0.961 -1.1329 -1.0786 -0.8894
  176DG     H23 4048   3.852   1.717   1.005 -1.6107  0.6990  1.2693
  177DG      C1 4049   2.941   4.819   4.036  0.5099 -0.3186  0.1565
  177DG      C2 4050   2.695   5.091   4.576  0.4702 -0.3574  0.1667
  177DG      H3 4051   3.006   4.903   4.012 -2.7405  2.4293  0.3238
  177DG      H4 4052   2.938   4.737   3.964  3.2167 -0.0788 -0.3337
  177DG      H5 4053   2.998   4.784   4.123  2.4451  0.3742 -0.7724
  177DG      H6 4054   2.609   5.077   4.641  0.9553 -0.4448  0.7974
  177DG      H7 4055   2.775   5.030   4.617  3.0625  2.2881 -0.6097
  177DG      H8 4056   2.736   5.191   4.589  0.3458 -0.3597  0.5763
  177DG      O9 4057   2.807   4.863   4.074  0.2776 -0.3010  0.0789
  177DG     O10 4058   2.671   5.067   4.437 -0.2249  0.0605 -0.1766
  177DG     C11 4059   2.762   4.968   3.983  0.0708 -0.0095  0.5661
  177DG     C12 4060   2.603   5.176   4.372  0.6580 -0.0053  0.1492
  177DG     H13 4061   2.739   4.943   3.879  0.5192  3.6931 -0.5797
  177DG     H14 4062   2.835   5.047   3.967  1.5342 -1.1250  1.4859
  177DG     H15 4063   2.656   5.268   4.347 -1.2217  0.6922 -1.5430
  177DG     H16 4064   2.525   5.210   4.440 -1.1301 -1.8109 -0.8870
  177DG     C17 4065   2.630   5.026   4.031 -0.2961  0.2778  0.0349
  177DG     C18 4066   2.551   5.132   4.233 -0.2774 -0.1635 -0.2388
  177DG     O19 4067   2.656   5.087   4.158 -0.4351  0.0386 -0.0280
  177DG     H20 4068   2.551   4.951   4.042  2.3994 -2.6206  0.9694
  177DG     H21 4069   2.592   5.094   3.954 -2.1681 -0.8297 -0.0867
  177DG     H22 4070   2.493   5.041   4.249  1.0871 -0.8353  1.2263
  177DG     H23 4071   2.496   5.214   4.186  0.0421 -0.2154 -0.7090
  178DG      C1 4072   1.656   4.141   1.821 -0.6674 -0.2037 -0.1656
  178DG      C2 4073   1.354   4.716   2.110  0.4368  0.0537 -0.1577
  178DG      H3 4074   1.584   4.086   1.761 -2.0875  0.2315  1.0792
  178DG      H4 4075   1.657   4.112   1.926 -0.7638  1.1632  0.2366
  178DG      H5 4076   1.759   4.118   1.793 -0.5471 -1.7772  1.3777
  178DG      H6 4077   1.353   4.825   2.113 -1.1413  0.0657 -0.5382
  178DG      H7 4078   1.258   4.678   2.075  1.6616 -1.7322 -1.7631
  178DG      H8 4079   1.347   4.695   2.216 -0.1329  0.5981 -0.0842
  178DG      O9 4080   1.631   4.275   1.830  0.4309  0.2210 -0.6137
  178DG     O10 4081   1.459   4.664   2.031 -0.1918  0.2587  0.3133
  178DG     C11 4082   1.630   4.333   1.690 -0.6050  0.0016  0.3689
  178DG     C12 4083   1.453   4.719   1.895 -0.2653 -0.4336 -0.4422
  178DG     H13 4084   1.551   4.298   1.624 -1.9236  0.7069  1.5130
  178DG     H14 4085   1.717   4.300   1.634  0.0159  1.5954  0.3337
  178DG     H15 4086   1.446   4.828   1.902  0.9269 -0.3338 -0.5444
  178DG     H16 4087   1.358   4.699   1.846 -0.8993 -0.6542  0.8346
  178DG     C17 4088   1.648   4.488   1.696  0.2739  0.1583 -0.0173
  178DG     C18 4089   1.582   4.681   1.823 -0.2780  1.1478 -0.6418
  178DG     O19 4090   1.564   4.533   1.805 -0.6158  0.6060  0.4712
  178DG     H20 4091   1.626   4.542   1.605 -0.0766 -0.6414 -0.4195
  178DG     H21 4092   1.753   4.510   1.718 -0.1358  1.8956  0.2807
  178DG     H22 4093   1.587   4.730   1.726 -2.4538 -1.6773 -2.3443
  178DG     H23 4094   1.672   4.697   1.882 -0.2360 -2.3427  0.4545
  179DG      C1 4095   5.406   0.557   2.893 -0.5250  0.3167  0.5567
  179DG      C2 4096   6.024   0.686   2.782 -0.1113  0.8539  0.0545
  179DG      H3 4097   5.385   0.664   2.889  1.7822  0.8130  0.5077
  179DG      H4 4098   5.311   0.511   2.922 -1.1997  1.0769 -0.3820
  179DG      H5 4099   5.418   0.525   2.790  2.1177  2.5657  0.0507
  179DG      H6 4100   5.992   0.790   2.774  0.2037  1.0899  1.4543
  179DG      H7 4101   6.125   0.691   2.822  0.0684  1.6885 -0.4889
  179DG      H8 4102   6.015   0.643   2.683  1.1361 -1.1522  0.7345
  179DG      O9 4103   5.508   0.543   2.991 -0.5227  0.1754 -0.1494
  179DG     O10 4104   5.941   0.614   2.874 -0.2972  0.6775 -0.5612
  179DG     C11 4105   5.538   0.408   3.034 -0.1625  0.1537  0.2988
  179DG     C12 4106   5.997   0.487   2.902 -0.1912  0.9193  0.6959
  179DG     H13 4107   5.525   0.330   2.958 -0.5770  0.9191 -0.4344
  179DG     H14 4108   5.477   0.371   3.116  0.0265 -2.9041 -0.7865
  179DG     H15 4109   6.101   0.479   2.934  0.2318 -2.9970 -1.1467
  179DG     H16 4110   5.981   0.426   2.813  1.5523  0.7126  0.4785
  179DG     C17 4111   5.685   0.405   3.077 -0.1784 -0.5339 -0.0957
  179DG     C18 4112   5.910   0.419   3.008 -0.1568  0.0156  0.4843
  179DG     O19 4113   5.778   0.449   2.984  0.0631  0.3360  0.4547
  179DG     H20 4114   5.712   0.304   3.107 -1.5419 -1.3803 -1.5369
  179DG     H21 4115   5.697   0.479   3.156  1.3330 -0.9532  0.0970
  179DG     H22 4116   5.922   0.311   3.003  0.6047  0.1462 -1.3272
  179DG     H23 4117   5.935   0.456   3.107  0.1301 -0.2168  0.5013
  180DG      C1 4118   3.874   2.636   4.604  0.6776 -0.6910  0.2384
  180DG      C2 4119   3.535   2.299   5.183 -1.1214  0.3934  0.1554
  180DG      H3 4120   3.784   2.654   4.546 -0.5972 -1.6387  1.8496
  180DG      H4 4121   3.924   2.543   4.579  0.6700 -0.4196 -0.8520
  180DG      H5 4122   3.944   2.716   4.579 -0.4829  0.5999  0.9785
  180DG      H6 4123   3.455   2.346   5.126  0.2101  1.7106 -0.6971
  180DG      H7 4124   3.513   2.192   5.187  0.2591  0.1344  1.8690
  180DG      H8 4125   3.518   2.335   5.285 -3.2928  1.6000 -0.5749
  180DG      O9 4126   3.860   2.647   4.745 -0.2449 -0.0479  0.5189
  180DG     O10 4127   3.661   2.324   5.121 -0.0526  0.1583 -0.4321
  180DG     C11 4128   3.981   2.625   4.821  0.0280 -0.5066  0.5704
  180DG     C12 4129   3.677   2.459   5.071 -0.5565 -0.9139  0.2498
  180DG     H13 4130   4.064   2.686   4.786  0.2321 -1.6431 -1.0685
  180DG     H14 4131   4.018   2.526   4.793  2.5869  0.5491 -0.0445
  180DG     H15 4132   3.638   2.521   5.151 -0.8034  0.3888 -0.8412
  180DG     H16 4133   3.621   2.459   4.977 -0.1560 -1.5075  0.0027
  180DG     C17 4134   3.961   2.654   4.968  0.4403  0.6432 -0.0435
  180DG     C18 4135   3.827   2.483   5.049 -0.3557  0.3977  0.2784
  180DG     O19 4136   3.832   2.618   5.016  0.1406  0.3833  0.1220
  180DG     H20 4137   3.968   2.762   4.977  0.7387  0.4481  2.7451
  180DG     H21 4138   4.044   2.611   5.024  0.0323  3.1100  2.6900
  180DG     H22 4139   3.881   2.463   5.141  0.8372  0.5781 -0.3530
  180DG     H23 4140   3.865   2.420   4.968  2.4326  0.0626  1.7313
  181DG      C1 4141   4.092   2.336   4.079  0.3307 -0.0924 -0.4078
  181DG      C2 4142   4.516   1.926   3.790  0.8127 -0.0047  0.0301
  181DG      H3 4143   4.001   2.395   4.083 -1.2970 -2.4697 -0.2967
  181DG      H4 4144   4.170   2.388   4.022  0.5624  2.1327  1.7620
  181DG      H5 4145   4.109   2.326   4.186 -2.1429  0.3144  0.0692
  181DG      H6 4146   4.507   1.829   3.740  1.5058  0.0561 -0.2164
  181DG      H7 4147   4.547   1.993   3.710  0.6532  4.2941  3.2208
  181DG      H8 4148   4.593   1.923   3.867  0.5282 -2.5344  0.3209
  181DG      O9 4149   4.081   2.211   4.013 -0.2020  0.5071 -0.4067
  181DG     O10 4150   4.399   1.978   3.856 -0.1381  0.3449 -0.2082
  181DG     C11 4151   4.031   2.218   3.883 -0.2930  0.4520  0.2318
  181DG     C12 4152   4.317   1.875   3.922 -0.7550  0.3519  0.2922
  181DG     H13 4153   4.106   2.276   3.830 -0.1414 -0.3359 -0.4132
  181DG     H14 4154   3.934   2.269   3.880 -0.3776  0.3633  1.0192
  181DG     H15 4155   4.363   1.853   4.018  0.3845  1.7206  0.0972
  181DG     H16 4156   4.304   1.783   3.866 -1.0822  0.8470 -0.4742
  181DG     C17 4157   4.012   2.080   3.830  0.0841  0.0350  0.1676
  181DG     C18 4158   4.182   1.939   3.942  0.3613 -0.5432  0.2538
  181DG     O19 4159   4.134   2.004   3.827  0.1038 -0.3150 -0.2755
  181DG     H20 4160   3.975   2.080   3.727  0.2427  2.1479  0.0633
  181DG     H21 4161   3.946   2.027   3.898  1.5857 -1.3288  0.6168
  181DG     H22 4162   4.111   1.868   3.986 -0.7863  1.3683  1.6110
  181DG     H23 4163   4.194   2.015   4.019  0.4624  1.2214 -1.4499
  182DG      C1 4164   2.514   1.107   0.245 -0.7322 -0.1015 -0.1855
  182DG      C2 4165   2.926   1.033   0.707  0.2032 -0.3175  1.0381
  182DG      H3 4166   2.481   1.006   0.269 -1.0522 -0.1771 -0.9065
  182DG      H4 4167   2.611   1.092   0.198 -0.8304  1.3123 -0.8829
  182DG      H5 4168   2.446   1.138   0.164 -0.0892 -1.0915 -1.1267
  182DG      H6 4169   2.899   0.931   0.682 -0.0115 -0.8236  3.1218
  182DG      H7 4170   3.002   1.068   0.637  0.9443 -3.1351  0.3418
  182DG      H8 4171   2.982   1.034   0.801  2.0749  1.2793 -0.0157
  182DG      O9 4172   2.515   1.187   0.364 -0.0518  0.1273  0.4868
  182DG     O10 4173   2.801   1.110   0.716  0.2621  0.3069  0.2798
  182DG     C11 4174   2.573   1.316   0.355 -0.2548  1.0841  0.1003
  182DG     C12 4175   2.818   1.252   0.745 -0.0364  0.1754 -0.7091
  182DG     H13 4176   2.490   1.376   0.318 -1.5435 -0.6037  0.1430
  182DG     H14 4177   2.663   1.328   0.294 -0.5990  1.5970 -0.3148
  182DG     H15 4178   2.904   1.275   0.682 -0.3123  1.2905 -0.6962
  182DG     H16 4179   2.838   1.282   0.848  1.6866  1.0502 -1.2567
  182DG     C17 4180   2.604   1.372   0.487 -0.1546 -0.0040 -0.3820
  182DG     C18 4181   2.699   1.325   0.695 -0.1988  0.2275  0.6414
  182DG     O19 4182   2.690   1.290   0.564  0.2249  0.0803  0.2133
  182DG     H20 4183   2.516   1.375   0.552  0.0775 -2.2200  0.1081
  182DG     H21 4184   2.665   1.462   0.488 -0.6298  0.3459 -1.4711
  182DG     H22 4185   2.608   1.291   0.745 -0.8322  1.8864  0.6984
  182DG     H23 4186   2.718   1.429   0.724 -0.1863  0.7014 -0.9712
  183DG      C1 4187   0.442   1.768   3.929 -0.1798  0.0126 -0.4241
  183DG      C2 4188   0.737   2.422   4.031  0.4337  0.6111 -0.3783
  183DG      H3 4189   0.353   1.714   3.964 -0.2635  1.6020  2.1010
  183DG      H4 4190   0.528   1.710   3.963  0.4378  0.9072 -0.4373
  183DG      H5 4191   0.441   1.783   3.821  0.7791  3.8340 -0.0234
  183DG      H6 4192   0.754   2.522   3.990  1.8673  0.1047 -1.1001
  183DG      H7 4193   0.693   2.412   4.130  1.6059 -1.6188 -0.0246
  183DG      H8 4194   0.840   2.385   4.036  0.1207 -0.3855 -0.9931
  183DG      O9 4195   0.441   1.897   3.988  0.0380  0.3563  0.0896
  183DG     O10 4196   0.653   2.337   3.944 -0.5116  0.1097  0.5304
  183DG     C11 4197   0.316   1.973   3.953 -0.0439  0.7671  0.5236
  183DG     C12 4198   0.526   2.386   3.920 -0.5363  0.0156 -0.4571
  183DG     H13 4199   0.291   2.019   4.048 -0.2784  0.5444  0.5731
  183DG     H14 4200   0.230   1.911   3.925 -0.8489  0.9478  2.4553
  183DG     H15 4201   0.536   2.483   3.871 -0.3949  1.3718  2.0994
  183DG     H16 4202   0.467   2.402   4.010 -0.9815 -2.7022 -0.1548
  183DG     C17 4203   0.339   2.079   3.844 -0.3384  0.5959  0.3096
  183DG     C18 4204   0.458   2.288   3.827 -0.2949 -0.1829  0.3547
  183DG     O19 4205   0.438   2.167   3.897 -0.5334 -0.5389  0.0789
  183DG     H20 4206   0.242   2.128   3.837  0.8369  2.9233 -0.9917
  183DG     H21 4207   0.368   2.035   3.748  1.5722 -0.5397  1.3423
  183DG     H22 4208   0.357   2.319   3.800 -0.2823 -1.2251 -0.9963
  183DG     H23 4209   0.507   2.281   3.730  1.2530  1.1429  1.0022
  184DG      C1 4210   4.666   1.565   4.291 -1.2386  0.0704 -0.1593
  184DG      C2 4211   4.700   0.872   4.380 -0.0494 -0.0543  0.2334
  184DG      H3 4212   4.617   1.585   4.386 -0.0153 -0.0842  0.5275
  184DG      H4 4213   4.588   1.551   4.216 -0.5867 -1.0237 -0.6516
  184DG      H5 4214   4.738   1.641   4.258  0.9280 -1.6724  0.3156
  184DG      H6 4215   4.592   0.882   4.374  0.1451  2.9591 -0.1170
  184DG      H7 4216   4.735   0.794   4.313  1.0611  0.5417  0.0916
  184DG      H8 4217   4.735   0.848   4.480  2.4798 -0.2338 -0.6063
  184DG      O9 4218   4.757   1.459   4.295 -0.0855  0.6233  0.4544
  184DG     O10 4219   4.759   1.005   4.353 -0.8326  0.9924 -0.0866
  184DG     C11 4220   4.864   1.474   4.383  0.1673  0.9996 -0.0887
  184DG     C12 4221   4.903   0.999   4.385  0.5219 -0.3523 -0.2456
  184DG     H13 4222   4.834   1.489   4.487 -0.0374  1.4051 -0.2062
  184DG     H14 4223   4.920   1.565   4.364 -1.4215  1.7678 -1.3180
  184DG     H15 4224   4.962   0.924   4.333  1.1589  1.3243 -2.0391
  184DG     H16 4225   4.905   0.980   4.492  0.6285  0.3787 -0.1130
  184DG     C17 4226   4.950   1.358   4.343 -0.3291 -0.1915  0.2666
  184DG     C18 4227   4.968   1.133   4.344  0.0392  0.2059  0.1102
  184DG     O19 4228   4.886   1.239   4.374  0.0277 -0.4183  0.0655
  184DG     H20 4229   5.043   1.366   4.400  1.7670 -3.3404 -2.2974
  184DG     H21 4230   4.962   1.343   4.236  0.0887 -0.2584  0.3193
  184DG     H22 4231   5.068   1.137   4.388 -0.5431  2.8986  1.4146
  184DG     H23 4232   4.979   1.131   4.236 -1.3524  0.7491 -0.0631
  185DG      C1 4233   4.943   3.991   1.669  0.0190 -0.9623  0.0585
  185DG      C2 4234   5.328   4.309   1.046 -0.2192 -0.0293  0.4719
  185DG      H3 4235   5.024   3.947   1.726 -0.2022 -0.3191  0.8843
  185DG      H4 4236   4.862   3.922   1.644 -0.2310 -1.8480  2.9888
  185DG      H5 4237   4.887   4.063   1.728  0.5146 -0.8467  0.3880
  185DG      H6 4238   5.407   4.237   1.067  0.0624  0.0601 -0.2417
  185DG      H7 4239   5.304   4.322   0.941  1.2945  1.0174  0.2268
  185DG      H8 4240   5.347   4.407   1.089 -0.6345  1.0907 -1.7832
  185DG      O9 4241   5.002   4.063   1.554 -0.2430  0.2374 -0.3390
  185DG     O10 4242   5.222   4.256   1.122 -0.2047  0.8528  0.3822
  185DG     C11 4243   4.911   4.157   1.482  0.6194 -0.3082 -0.6279
  185DG     C12 4244   5.202   4.116   1.091 -0.1105  0.1704 -0.3959
  185DG     H13 4245   4.933   4.254   1.526  4.0487 -1.8222  1.4413
  185DG     H14 4246   4.810   4.132   1.513  0.5822 -0.7031 -1.0580
  185DG     H15 4247   5.285   4.080   1.151 -0.0137  2.6904  1.1163
  185DG     H16 4248   5.215   4.070   0.993 -1.1972  1.1688 -1.0399
  185DG     C17 4249   4.909   4.141   1.330 -0.5195  0.0547 -0.3773
  185DG     C18 4250   5.061   4.086   1.144 -0.2326  0.3481 -0.2506
  185DG     O19 4251   5.051   4.128   1.285  0.2951 -0.7446  0.1315
  185DG     H20 4252   4.853   4.220   1.280  0.8254  2.0478  1.1196
  185DG     H21 4253   4.853   4.051   1.304  1.7114 -1.2762 -0.8550
  185DG     H22 4254   4.972   4.119   1.090 -1.0487  0.1351  0.9196
  185DG     H23 4255   5.050   3.978   1.141  2.1706 -0.0369  1.5369
  186DG      C1 4256   0.397   5.497   2.411 -0.2043  0.0311  0.7530
  186DG      C2 4257   0.327   5.152   1.853 -0.5263 -0.5146  0.3022
  186DG      H3 4258   0.409   5.486   2.518  0.6174  0.6947  0.7399
  186DG      H4 4259   0.315   5.566   2.393 -1.6226 -0.8635  3.3187
  186DG      H5 4260   0.492   5.531   2.368  0.1888 -1.7430  0.1274
  186DG      H6 4261   0.317   5.053   1.810  2.0011  0.2950 -2.5216
  186DG      H7 4262   0.375   5.214   1.777  2.0030 -2.4258  0.2212
  186DG      H8 4263   0.398   5.149   1.936 -1.0584  0.4458  0.8151
  186DG      O9 4264   0.361   5.373   2.343  0.3520  0.2656 -0.7074
  186DG     O10 4265   0.211   5.213   1.904 -0.4117 -0.3404  0.4983
  186DG     C11 4266   0.238   5.315   2.380  0.1680  0.1792 -0.0721
  186DG     C12 4267   0.115   5.121   1.959 -0.8140  0.5061  0.0924
  186DG     H13 4268   0.145   5.369   2.360 -1.0264 -2.3725 -2.0062
  186DG     H14 4269   0.240   5.289   2.486 -1.0957 -0.5346 -0.2040
  186DG     H15 4270   0.106   5.037   1.890 -0.6020  0.3741  0.2258
  186DG     H16 4271   0.019   5.171   1.975 -0.9763 -0.3044  1.8583
  186DG     C17 4272   0.220   5.175   2.313 -0.4875  0.0553 -0.2275
  186DG     C18 4273   0.168   5.067   2.099 -0.7560 -0.9093 -0.4422
  186DG     O19 4274   0.196   5.191   2.173  0.3847 -0.3071 -0.1113
  186DG     H20 4275   0.140   5.110   2.349  0.3725 -1.2089 -0.5204
  186DG     H21 4276   0.312   5.118   2.325  0.2133  1.0289 -0.9259
  186DG     H22 4277   0.094   5.009   2.154 -1.4159  1.4258  1.2962
  186DG     H23 4278   0.260   5.008   2.095 -1.4280 -1.9820 -0.5902
  187DG      C1 4279   0.824   3.436   2.006 -0.5006  0.1062  0.1455
  187DG      C2 4280   0.553   2.977   2.552  0.5109 -0.7832 -0.2518
  187DG      H3 4281   0.794   3.541   2.015 -2.0570 -0.3892  1.1207
  187DG      H4 4282   0.760   3.401   1.924  0.0980 -1.2048  0.2316
  187DG      H5 4283   0.924   3.421   1.966 -0.8788 -1.8427 -0.1547
  187DG      H6 4284   0.537   2.957   2.446 -0.1425  0.4744 -0.3952
  187DG      H7 4285   0.600   2.886   2.590 -2.3869 -1.7007  1.4077
  187DG      H8 4286   0.469   3.000   2.617  1.0084  1.0144 -0.1850
  187DG      O9 4287   0.821   3.374   2.128  0.7496 -0.5371 -0.0814
  187DG     O10 4288   0.646   3.081   2.558  0.1626 -1.0744  0.4256
  187DG     C11 4289   0.891   3.432   2.233 -0.2767 -1.0327  0.7335
  187DG     C12 4290   0.616   3.203   2.476  0.0402 -0.3665  0.1277
  187DG     H13 4291   0.834   3.518   2.268  2.1172  0.0336  2.2834
  187DG     H14 4292   0.982   3.474   2.189 -1.3556 -1.1080 -1.7708
  187DG     H15 4293   0.528   3.256   2.512 -0.4788 -0.3620 -1.1032
  187DG     H16 4294   0.595   3.179   2.372  0.6377 -2.8116  0.5032
  187DG     C17 4295   0.938   3.331   2.334  0.1837 -0.0194 -0.6048
  187DG     C18 4296   0.733   3.300   2.470  0.1572 -0.1613  0.5147
  187DG     O19 4297   0.835   3.248   2.386  0.3817  0.3898  0.1532
  187DG     H20 4298   0.993   3.370   2.420  1.0826 -2.0725 -0.1960
  187DG     H21 4299   0.999   3.263   2.274 -0.1751  0.8900 -2.0499
  187DG     H22 4300   0.694   3.394   2.432  3.0268  0.3090 -1.5670
  187DG     H23 4301   0.766   3.327   2.570 -2.4453  1.1682  1.1106
  188DG      C1 4302   4.823   2.490   3.573 -0.3175 -0.3787 -0.0469
  188DG      C2 4303   5.131   2.245   3.028  0.7837 -0.2249 -0.3024
  188DG      H3 4304   4.840   2.578   3.511  2.1838 -1.0861 -0.4999
  188DG      H4 4305   4.885   2.490   3.663 -1.6362  0.4751  0.8955
  188DG      H5 4306   4.725   2.492   3.620  0.0339 -0.6336  0.7090
  188DG      H6 4307   5.127   2.350   3.001  1.5254 -0.3220 -0.8205
  188DG      H7 4308   5.236   2.225   3.053  0.4756 -2.0444 -0.3129
  188DG      H8 4309   5.106   2.192   2.936 -0.6480 -0.8554  0.4266
  188DG      O9 4310   4.837   2.369   3.498  0.4531 -0.2985 -0.5136
  188DG     O10 4311   5.037   2.218   3.131 -0.7977 -0.3672  0.7088
  188DG     C11 4312   4.788   2.252   3.558 -0.1009 -0.1118 -0.6089
  188DG     C12 4313   5.073   2.102   3.207  0.2866  0.0999  0.9510
  188DG     H13 4314   4.699   2.264   3.619  1.3629  0.7279  1.4894
  188DG     H14 4315   4.869   2.201   3.612  1.3592  1.9783 -0.6941
  188DG     H15 4316   5.155   2.127   3.274  0.5214  1.8349  0.0435
  188DG     H16 4317   5.108   2.018   3.147 -1.7173  0.7577 -1.2756
  188DG     C17 4318   4.781   2.158   3.433  1.3285  0.2276  0.1592
  188DG     C18 4319   4.950   2.056   3.293 -0.3449  0.4994  1.2350
  188DG     O19 4320   4.909   2.166   3.380  0.3394 -0.2035 -0.0714
  188DG     H20 4321   4.698   2.183   3.367  0.7876 -2.4598 -0.3056
  188DG     H21 4322   4.764   2.055   3.465  2.3116 -0.4666 -1.4135
  188DG     H22 4323   4.866   2.036   3.227  0.5872  0.1708  0.1214
  188DG     H23 4324   4.970   1.966   3.351  1.1742 -0.0856 -0.1400
  189DG      C1 4325   3.104   2.437   3.069  0.8960 -0.4638 -0.3917
  189DG      C2 4326   2.775   1.983   2.822 -0.7288  0.7955 -0.3406
  189DG      H3 4327   3.002   2.463   3.096 -0.0541 -3.0535 -1.2545
  189DG      H4 4328   3.162   2.528   3.053 -2.0140  1.3506 -1.3925
  189DG      H5 4329   3.149   2.381   3.151  0.2455 -0.1074  0.2123
  189DG      H6 4330   2.720   2.015   2.910 -1.5331 -1.5377  0.0946
  189DG      H7 4331   2.729   2.010   2.727 -0.7194 -2.6795 -1.5003
  189DG      H8 4332   2.765   1.874   2.826 -2.1916  0.9288 -0.0262
  189DG      O9 4333   3.100   2.358   2.947  0.4864 -0.2074  0.0164
  189DG     O10 4334   2.914   1.998   2.841  0.3515 -0.0464  0.2324
  189DG     C11 4335   3.227   2.350   2.887 -0.0866  0.4126  0.0080
  189DG     C12 4336   2.989   1.978   2.721  0.8745  0.1875 -0.1369
  189DG     H13 4337   3.301   2.318   2.960  1.1036 -0.0406 -1.3651
  189DG     H14 4338   3.269   2.440   2.842  3.7429 -1.2217 -0.0544
  189DG     H15 4339   2.944   2.047   2.650 -3.5555  0.3529  2.4101
  189DG     H16 4340   2.959   1.879   2.687 -1.0110  0.4055  0.7400
  189DG     C17 4341   3.212   2.246   2.781  0.0125  0.7149  0.8796
  189DG     C18 4342   3.135   2.020   2.749  0.0142 -0.3703  0.2387
  189DG     O19 4343   3.148   2.132   2.840 -0.1100 -0.2132  0.4682
  189DG     H20 4344   3.310   2.228   2.737 -0.5354  0.6480 -0.3465
  189DG     H21 4345   3.157   2.288   2.697  1.3847 -0.7844 -0.8690
  189DG     H22 4346   3.163   1.929   2.803 -1.6189  0.5269  2.7349
  189DG     H23 4347   3.195   2.036   2.659  1.6115  2.3832  1.6436
  190DG      C1 4348   3.927   2.892   0.836  0.2056 -0.4097 -0.2206
  190DG      C2 4349   3.763   2.293   0.559  0.1462  0.2005  0.8025
  190DG      H3 4350   3.819   2.899   0.825  0.1679 -1.6701 -0.8157
  190DG      H4 4351   3.968   2.918   0.739 -2.6254  4.6759 -0.3878
  190DG      H5 4352   3.953   2.973   0.905 -1.3126  1.1293 -1.3890
  190DG      H6 4353   3.820   2.201   0.551 -2.3108 -1.3327 -0.2899
  190DG      H7 4354   3.656   2.276   0.547  0.2678  0.9003 -2.2530
  190DG      H8 4355   3.775   2.338   0.460 -4.2565  1.6594  0.7070
  190DG      O9 4356   3.979   2.762   0.881 -0.5488  0.7710  0.2265
  190DG     O10 4357   3.789   2.382   0.658  0.0035  0.6493 -0.2013
  190DG     C11 4358   3.903   2.701   0.988  0.2180  0.4245 -0.3929
  190DG     C12 4359   3.769   2.313   0.790 -0.1830 -0.2687  0.1343
  190DG     H13 4360   3.795   2.704   0.972 -0.0231  0.7831  1.1290
  190DG     H14 4361   3.926   2.765   1.073 -1.1389  0.7770 -0.2692
  190DG     H15 4362   3.831   2.224   0.803  0.3182 -0.0503 -0.7010
  190DG     H16 4363   3.672   2.264   0.793 -0.3496  0.0649  0.2399
  190DG     C17 4364   3.950   2.552   1.018  0.0617  0.3603 -0.0971
  190DG     C18 4365   3.782   2.408   0.911 -0.4356 -0.2212 -0.5770
  190DG     O19 4366   3.911   2.460   0.910 -0.0737  0.5807 -0.0598
  190DG     H20 4367   3.900   2.510   1.105 -2.5306  0.7521 -1.3048
  190DG     H21 4368   4.057   2.539   1.035  0.0604  0.5733  0.0693
  190DG     H22 4369   3.708   2.488   0.905 -0.2289  0.1076  0.9411
  190DG     H23 4370   3.768   2.366   1.011  3.2638  0.3393  0.3071
  191DG      C1 4371   0.151   1.790   4.222  0.4849  0.5357 -0.0866
  191DG      C2 4372  -0.480   1.895   4.497 -0.1780  0.4659 -0.0639
  191DG      H3 4373   0.209   1.781   4.131 -0.9680  0.8309 -1.0761
  191DG      H4 4374   0.172   1.712   4.295  2.1626  1.3029  0.2980
  191DG      H5 4375   0.179   1.883   4.272  0.0406 -0.0256  1.2530
  191DG      H6 4376  -0.498   1.789   4.515  0.5731 -0.2104 -2.7650
  191DG      H7 4377  -0.434   1.932   4.588 -2.9902  0.8209  1.3196
  191DG      H8 4378  -0.572   1.954   4.490 -0.7619 -0.5777 -2.1242
  191DG      O9 4379   0.017   1.812   4.190  0.0073  0.6594  0.0254
  191DG     O10 4380  -0.402   1.901   4.379  0.4703 -0.2079 -0.2898
  191DG     C11 4381  -0.036   1.728   4.088  0.3932  0.6666  0.8072
  191DG     C12 4382  -0.469   1.841   4.265  0.3280  0.1724 -0.0826
  191DG     H13 4383  -0.025   1.625   4.121 -0.3674  0.1338 -0.5281
  191DG     H14 4384   0.032   1.735   4.002 -0.9496 -0.9579 -0.4604
  191DG     H15 4385  -0.562   1.897   4.258  0.5651  0.4475 -1.2404
  191DG     H16 4386  -0.487   1.734   4.272 -0.7913  0.3921  0.6362
  191DG     C17 4387  -0.176   1.779   4.055 -0.3587 -0.4465 -0.5424
  191DG     C18 4388  -0.374   1.860   4.148  0.6098  0.1686 -0.1476
  191DG     O19 4389  -0.247   1.795   4.176  0.3619  0.1548  0.3428
  191DG     H20 4390  -0.224   1.711   3.985 -1.4828 -1.9502  1.5676
  191DG     H21 4391  -0.169   1.882   4.020  1.3872 -0.9131 -1.7016
  191DG     H22 4392  -0.416   1.813   4.059  0.8893  0.5106 -0.4637
  191DG     H23 4393  -0.348   1.962   4.120 -0.6111  0.2761 -0.9705
  192DG      C1 4394   0.585   0.371   4.479  0.7464  0.3406  0.0147
  192DG      C2 4395   1.012   0.434   3.939 -0.0989  0.0756  0.1502
  192DG      H3 4396   0.505   0.349   4.409  1.6251 -0.8067 -0.6661
  192DG      H4 4397   0.546   0.409   4.573 -0.8447 -1.4561  0.1402
  192DG      H5 4398   0.644   0.281   4.498  0.9966 -0.2786 -3.1824
  192DG      H6 4399   0.909   0.416   3.907  0.0641 -0.8912  0.1239
  192DG      H7 4400   1.052   0.497   3.860 -0.2589  0.5314  0.4262
  192DG      H8 4401   1.064   0.338   3.943  4.5238  2.1013 -2.9939
  192DG      O9 4402   0.667   0.473   4.428 -0.2186  0.2221  0.8602
  192DG     O10 4403   1.015   0.496   4.068  0.0774  0.0394  0.5380
  192DG     C11 4404   0.773   0.523   4.513 -0.4234 -0.0933 -0.2425
  192DG     C12 4405   0.928   0.608   4.074  0.0910  0.1966 -0.0181
  192DG     H13 4406   0.838   0.442   4.546  0.1901  0.4975 -0.0099
  192DG     H14 4407   0.732   0.573   4.600  1.6781  0.8488  0.2636
  192DG     H15 4408   0.829   0.567   4.055  1.4806 -3.2453 -0.5953
  192DG     H16 4409   0.943   0.678   3.991 -0.7548  0.5010  0.0729
  192DG     C17 4410   0.846   0.633   4.425 -0.4582  0.5790  0.6173
  192DG     C18 4411   0.940   0.678   4.207  0.1480 -0.3636  0.0935
  192DG     O19 4412   0.910   0.585   4.309 -0.4313  0.1800  0.2437
  192DG     H20 4413   0.910   0.693   4.489 -1.2890  2.7694 -0.5229
  192DG     H21 4414   0.774   0.706   4.390 -0.9663  0.1772  0.8014
  192DG     H22 4415   1.038   0.722   4.222 -0.7324  1.3116  1.3163
  192DG     H23 4416   0.877   0.767   4.210  0.7766  0.0613  1.0877
  193DG      C1 4417   1.206   0.069   3.153 -0.6783  0.4744 -0.8208
  193DG      C2 4418   0.952  -0.615   2.924  0.5484  0.6922 -0.1756
  193DG      H3 4419   1.130   0.147   3.158  1.3750  2.7359 -2.7742
  193DG      H4 4420   1.295   0.125   3.122 -1.2095  2.9171  1.6179
  193DG      H5 4421   1.232   0.032   3.253  0.2433  1.7003 -0.5754
  193DG      H6 4422   0.876  -0.570   2.988 -1.0276 -1.3720 -0.4830
  193DG      H7 4423   0.912  -0.656   2.830  0.5370  0.9233 -0.2718
  193DG      H8 4424   0.984  -0.703   2.980  0.5716  1.0102  0.3170
  193DG      O9 4425   1.161  -0.020   3.059  0.4204  0.2647 -0.3473
  193DG     O10 4426   1.043  -0.516   2.901  0.0804 -0.4600 -0.2091
  193DG     C11 4427   1.236  -0.142   3.058  0.0284 -0.3126  0.1030
  193DG     C12 4428   1.177  -0.568   2.886  0.0352 -0.3310 -0.1978
  193DG     H13 4429   1.231  -0.198   3.152 -0.5080 -0.7188 -0.1653
  193DG     H14 4430   1.342  -0.117   3.063 -0.0771  0.0514  0.5446
  193DG     H15 4431   1.173  -0.645   2.809  3.4839 -0.6994 -0.1603
  193DG     H16 4432   1.215  -0.618   2.975  3.0233  0.2256 -1.0547
  193DG     C17 4433   1.204  -0.236   2.940 -0.1337  0.1693  0.6667
  193DG     C18 4434   1.266  -0.449   2.842  0.6616  0.3119  0.5233
  193DG     O19 4435   1.296  -0.349   2.943  0.1336 -0.1198  0.6116
  193DG     H20 4436   1.200  -0.192   2.841 -1.2748 -2.3721 -0.5030
  193DG     H21 4437   1.101  -0.267   2.952  0.0813 -2.4854 -2.8020
  193DG     H22 4438   1.361  -0.500   2.822  1.7034  2.5765 -0.6641
  193DG     H23 4439   1.232  -0.402   2.750  0.9954 -0.9756 -0.2885
  194DG      C1 4440   4.793   2.872   2.545 -0.3707 -0.1990  0.1191
  194DG      C2 4441   4.224   2.531   2.235  0.2480  0.3593  0.0786
  194DG      H3 4442   4.876   2.841   2.481 -0.0565  2.9329 -1.1497
  194DG      H4 4443   4.831   2.939   2.623  0.1443  2.6502 -2.3936
  194DG      H5 4444   4.722   2.934   2.491  1.1695  0.8804 -0.7511
  194DG      H6 4445   4.150   2.453   2.250 -0.1421  0.4494 -1.2726
  194DG      H7 4446   4.160   2.620   2.239 -0.3318 -0.0679  0.6809
  194DG      H8 4447   4.259   2.521   2.133  0.3587  0.8324  0.0644
  194DG      O9 4448   4.724   2.756   2.589 -0.3637 -0.2017  0.1981
  194DG     O10 4449   4.332   2.538   2.323  0.1786  0.0521 -0.1790
  194DG     C11 4450   4.616   2.772   2.684  0.0908 -0.1245  0.3467
  194DG     C12 4451   4.294   2.491   2.452  0.2498 -0.8716 -0.3621
  194DG     H13 4452   4.546   2.846   2.645 -1.3574 -1.8674 -0.5138
  194DG     H14 4453   4.655   2.798   2.783  1.3804 -1.3977  0.2098
  194DG     H15 4454   4.262   2.387   2.443  1.2666 -1.3471  1.1358
  194DG     H16 4455   4.209   2.542   2.496 -1.0829 -3.9378  0.9239
  194DG     C17 4456   4.535   2.635   2.695  0.2721  0.6591 -0.1524
  194DG     C18 4457   4.399   2.498   2.561  0.4365  0.2483 -1.1829
  194DG     O19 4458   4.458   2.625   2.573 -0.7900  0.5941  0.6657
  194DG     H20 4459   4.463   2.628   2.777 -0.0945 -0.4111 -0.5481
  194DG     H21 4460   4.605   2.553   2.712 -1.4062 -0.7830  0.1656
  194DG     H22 4461   4.357   2.463   2.656  2.0843 -1.4679 -1.0258
  194DG     H23 4462   4.488   2.438   2.544  1.1584  1.5189 -2.0484
  195DG      C1 4463   0.376   4.885   4.365 -0.0205  0.4658 -0.0669
  195DG      C2 4464   0.878   5.308   4.296  0.0711  0.0146 -0.0597
  195DG      H3 4465   0.291   4.927   4.311  1.3302  2.2259 -0.9644
  195DG      H4 4466   0.395   4.919   4.467  2.3072  0.8337 -0.5580
  195DG      H5 4467   0.369   4.777   4.370  2.0606  0.2971 -0.0589
  195DG      H6 4468   0.870   5.314   4.405 -0.0351  0.4550 -0.0908
  195DG      H7 4469   0.985   5.306   4.275  0.4868 -1.5612  1.8826
  195DG      H8 4470   0.836   5.394   4.244  0.7978  0.8281  0.6491
  195DG      O9 4471   0.486   4.915   4.290  0.6832 -0.2273  0.2034
  195DG     O10 4472   0.827   5.182   4.253 -0.1559 -0.0178  0.0249
  195DG     C11 4473   0.485   4.854   4.163  0.7491 -0.1905  0.0529
  195DG     C12 4474   0.849   5.155   4.112  0.7957 -0.2885  0.0718
  195DG     H13 4475   0.421   4.911   4.095  1.5983  1.4593  0.5615
  195DG     H14 4476   0.454   4.750   4.172 -0.3684  0.0321 -0.9844
  195DG     H15 4477   0.953   5.173   4.086  1.1495  0.4879  1.9354
  195DG     H16 4478   0.777   5.215   4.057  0.8357 -0.5374 -0.2595
  195DG     C17 4479   0.623   4.864   4.097 -0.1850  0.9429 -0.0498
  195DG     C18 4480   0.800   5.017   4.070  0.1930  0.8636  0.5264
  195DG     O19 4481   0.674   4.991   4.125  0.2826 -0.1226 -0.1019
  195DG     H20 4482   0.620   4.860   3.988  0.3759  2.1537 -0.1229
  195DG     H21 4483   0.696   4.790   4.131  1.0339  2.1656  0.0320
  195DG     H22 4484   0.794   5.009   3.962 -4.2077  0.9297  0.5711
  195DG     H23 4485   0.869   4.940   4.105 -1.6029 -0.5517  1.1389
  196DG      C1 4486   0.019   5.120   0.098  0.1906  0.0458 -0.3751
  196DG      C2 4487   0.164   4.501   0.170 -0.1044 -0.3733  0.0212
  196DG      H3 4488   0.013   5.099  -0.009  0.6500  2.1485 -0.8617
  196DG      H4 4489   0.117   5.165   0.113  0.7734 -1.1837 -0.4370
  196DG      H5 4490  -0.053   5.197   0.128  0.4004 -0.1816  0.7425
  196DG      H6 4491   0.057   4.510   0.183 -0.1509 -1.1257  0.2143
  196DG      H7 4492   0.186   4.498   0.063 -0.6379 -1.9829 -0.0726
  196DG      H8 4493   0.200   4.412   0.221  1.7095 -0.1901 -0.8484
  196DG      O9 4494   0.002   5.004   0.188 -0.6497 -0.4782 -0.7737
  196DG     O10 4495   0.222   4.612   0.234 -0.2753 -0.0700 -0.1920
  196DG     C11 4496   0.026   5.046   0.321 -0.3106  0.1350  0.2193
  196DG     C12 4497   0.204   4.626   0.377  0.4009 -0.2067  0.1744
  196DG     H13 4498  -0.042   5.128   0.345 -2.6740 -1.5038 -0.5158
  196DG     H14 4499   0.130   5.080   0.331  0.6465 -2.7216  0.9865
  196DG     H15 4500   0.294   4.682   0.400  0.8598 -1.1469  0.7295
  196DG     H16 4501   0.219   4.529   0.424  0.2492 -1.4906 -2.2435
  196DG     C17 4502  -0.004   4.922   0.406 -0.3691 -0.0700 -0.5854
  196DG     C18 4503   0.080   4.702   0.423  0.3402 -0.0646  0.3493
  196DG     O19 4504   0.077   4.818   0.345  0.1409  0.2572  0.8185
  196DG     H20 4505  -0.112   4.904   0.408 -0.5595  1.0467 -0.5080
  196DG     H21 4506   0.026   4.940   0.509 -2.3500  0.1601  0.0016
  196DG     H22 4507  -0.003   4.634   0.408 -0.1911  0.7050 -0.2718
  196DG     H23 4508   0.089   4.724   0.530 -0.0901  0.1080  0.3542
  197DG      C1 4509   2.582   0.781   0.775  0.4994  0.2355  0.8361
  197DG      C2 4510   2.903   1.167   0.225 -0.1474 -0.4329  0.0207
  197DG      H3 4511   2.640   0.725   0.849 -1.3967 -0.6489  1.7075
  197DG      H4 4512   2.488   0.726   0.777  0.3846  0.4396  0.9764
  197DG      H5 4513   2.568   0.882   0.813 -0.6332  1.2520 -2.0044
  197DG      H6 4514   3.010   1.161   0.243  0.1067 -0.1655 -1.3130
  197DG      H7 4515   2.875   1.187   0.122  0.0779  1.5238  0.2884
  197DG      H8 4516   2.871   1.261   0.270 -0.4229 -0.7218  0.4346
  197DG      O9 4517   2.639   0.797   0.646 -0.5107 -0.0366 -0.0938
  197DG     O10 4518   2.836   1.055   0.278 -0.5745  0.2416 -0.2106
  197DG     C11 4519   2.694   0.682   0.589 -0.3955  0.0931  0.1251
  197DG     C12 4520   2.901   0.935   0.234  0.5026 -0.6623  0.2030
  197DG     H13 4521   2.637   0.589   0.600 -0.6712 -0.1310 -2.5475
  197DG     H14 4522   2.796   0.667   0.624 -0.9407 -1.0126  1.3532
  197DG     H15 4523   2.989   0.933   0.298  1.4482  0.5186 -1.0130
  197DG     H16 4524   2.921   0.946   0.127  0.7917  1.2970  0.4301
  197DG     C17 4525   2.700   0.707   0.440  0.2662 -0.6365 -0.7267
  197DG     C18 4526   2.812   0.815   0.263  0.0507  0.3391 -0.1234
  197DG     O19 4527   2.786   0.818   0.407  0.2046 -0.1403  0.2104
  197DG     H20 4528   2.599   0.720   0.400  0.3644  1.3541 -0.4124
  197DG     H21 4529   2.735   0.613   0.397  4.3047 -0.1957  1.2288
  197DG     H22 4530   2.726   0.809   0.196  0.4332  1.5380 -0.7517
  197DG     H23 4531   2.874   0.729   0.238  2.0105  1.8540 -0.7853
  198DG      C1 4532   0.094   1.453   1.849  0.1756 -0.3288  0.0780
  198DG      C2 4533  -0.374   1.037   2.070  0.3225 -0.1853 -0.2251
  198DG      H3 4534   0.128   1.483   1.750  0.9779 -0.3717  0.3349
  198DG      H4 4535   0.174   1.479   1.918  0.3898  2.2506 -0.9983
  198DG      H5 4536   0.009   1.519   1.870  0.0870 -0.1370 -0.8448
  198DG      H6 4537  -0.357   0.962   2.147 -0.3891  0.1701  0.2924
  198DG      H7 4538  -0.398   1.135   2.111 -0.4189 -0.6965  0.5896
  198DG      H8 4539  -0.469   1.013   2.021 -0.2893 -2.8072  1.9970
  198DG      O9 4540   0.052   1.318   1.860 -0.3237 -0.2040  0.5850
  198DG     O10 4541  -0.273   1.058   1.968  0.1208  0.5624  0.6729
  198DG     C11 4542   0.161   1.223   1.840 -0.1876  0.4133 -0.4222
  198DG     C12 4543  -0.196   0.940   1.965  0.8396 -0.3848 -0.6358
  198DG     H13 4544   0.234   1.240   1.920 -0.0198 -0.1281 -0.4559
  198DG     H14 4545   0.206   1.242   1.743 -1.0841 -0.2211 -0.9707
  198DG     H15 4546  -0.260   0.861   1.927 -1.2944  1.3503 -0.8961
  198DG     H16 4547  -0.165   0.922   2.068 -0.1197  0.9202 -0.0811
  198DG     C17 4548   0.112   1.076   1.823  0.2211 -0.2513  0.4260
  198DG     C18 4549  -0.082   0.965   1.876  0.2992 -0.2510 -0.1149
  198DG     O19 4550   0.013   1.056   1.928  0.1577 -0.7830  0.8958
  198DG     H20 4551   0.188   0.998   1.833 -1.0403 -1.3820  1.5020
  198DG     H21 4552   0.072   1.067   1.723 -0.5328  0.1299  0.6846
  198DG     H22 4553  -0.045   0.863   1.874 -1.4892 -0.9386  0.5861
  198DG     H23 4554  -0.112   0.993   1.775  0.3023 -0.4965 -0.1833
  199DG      C1 4555   2.867   3.947   5.414 -0.2967  0.5380 -0.2538
  199DG      C2 4556   2.518   4.497   4.837  1.1792 -0.5927  0.2141
  199DG      H3 4557   2.768   3.908   5.438  0.2685 -0.7582  0.0410
  199DG      H4 4558   2.924   3.964   5.506 -0.1903  0.9733 -0.4004
  199DG      H5 4559   2.910   3.864   5.358 -0.8095  0.0035  0.1285
  199DG      H6 4560   2.419   4.515   4.880  1.5485  0.6699  0.5709
  199DG      H7 4561   2.526   4.568   4.755 -0.5317 -0.8494 -0.2049
  199DG      H8 4562   2.519   4.395   4.797 -1.8111  0.6242 -3.5257
  199DG      O9 4563   2.859   4.062   5.326  0.8221  0.0753 -0.0269
  199DG     O10 4564   2.618   4.516   4.931  0.0736 -0.2739  0.0711
  199DG     C11 4565   2.825   4.178   5.400  0.0562  0.1822 -0.0931
  199DG     C12 4566   2.597   4.433   5.041  0.7730  0.8930  0.2822
  199DG     H13 4567   2.907   4.193   5.470 -0.9366  1.4259  0.8333
  199DG     H14 4568   2.731   4.172   5.454  0.4125  0.2825  0.5580
  199DG     H15 4569   2.564   4.335   5.008  0.6808  0.6288  1.1413
  199DG     H16 4570   2.519   4.478   5.102  0.2392  1.1208 -0.5602
  199DG     C17 4571   2.829   4.296   5.303  0.2329  0.5021 -0.4461
  199DG     C18 4572   2.735   4.400   5.116 -0.3923 -0.4310  0.2633
  199DG     O19 4573   2.718   4.301   5.216 -0.2245 -0.0612  1.1543
  199DG     H20 4574   2.928   4.298   5.258 -0.7610  1.2144 -2.7039
  199DG     H21 4575   2.836   4.387   5.363  0.8927  1.2823 -1.6757
  199DG     H22 4576   2.805   4.363   5.042  0.6680 -0.9417  1.4689
  199DG     H23 4577   2.779   4.495   5.146 -0.0812 -0.8235  1.0956
  200DG      C1 4578   0.329   4.714   3.382  0.1288  0.3804 -0.1982
  200DG      C2 4579  -0.253   4.266   3.026 -0.4317 -0.1253 -0.4922
  200DG      H3 4580   0.276   4.809   3.393 -0.3968  0.1497 -0.6585
  200DG      H4 4581   0.432   4.738   3.354 -0.5248  0.1105 -3.2630
  200DG      H5 4582   0.346   4.648   3.467  1.5398 -0.8659 -1.3783
  200DG      H6 4583  -0.154   4.221   3.028  0.9826  2.7874 -0.5005
  200DG      H7 4584  -0.311   4.199   3.090  0.6956 -1.1777 -0.5248
  200DG      H8 4585  -0.285   4.255   2.922  0.3532  0.7035 -0.8290
  200DG      O9 4586   0.267   4.640   3.279  0.3766  0.1714  0.2667
  200DG     O10 4587  -0.225   4.398   3.071  0.2789  0.0973 -0.4409
  200DG     C11 4588   0.127   4.647   3.290  0.6606 -0.1222 -1.6846
  200DG     C12 4589  -0.189   4.406   3.209  0.2823  0.2475  0.6468
  200DG     H13 4590   0.096   4.750   3.307  3.1394  0.9664 -3.1949
  200DG     H14 4591   0.097   4.577   3.367 -0.2689  1.5783 -0.4518
  200DG     H15 4592  -0.103   4.342   3.226 -0.4491 -1.1485 -0.6789
  200DG     H16 4593  -0.280   4.373   3.260 -1.1994  0.2783 -1.8479
  200DG     C17 4594   0.070   4.600   3.159  0.0988  0.2081  0.1386
  200DG     C18 4595  -0.151   4.551   3.252  0.0158  0.0083 -0.4674
  200DG     O19 4596  -0.068   4.617   3.151  0.6582 -0.0656 -0.2783
  200DG     H20 4597   0.093   4.494   3.150  0.3961  0.2331  0.5690
  200DG     H21 4598   0.114   4.663   3.081 -2.1818  1.5475 -0.1492
  200DG     H22 4599  -0.247   4.599   3.269  0.6242  1.0180  0.2478
  200DG     H23 4600  -0.107   4.550   3.352 -1.3119 -0.4792  0.1383
  201DG      C1 4601   3.610   3.234   4.532  0.0261 -0.1645 -0.0611
  201DG      C2 4602   3.265   2.558   4.912 -0.0334  0.0281 -0.3805
  201DG      H3 4603   3.687   3.273   4.599  0.1860 -0.4360 -0.0833
  201DG      H4 4604   3.532   3.308   4.514 -1.1708 -1.7962 -2.1884
  201DG      H5 4605   3.665   3.213   4.440 -0.2134  1.0898 -0.5066
  201DG      H6 4606   3.247   2.451   4.908  2.9043 -0.5059 -1.0655
  201DG      H7 4607   3.363   2.584   4.951 -0.7479  0.3307  1.3437
  201DG      H8 4608   3.197   2.600   4.987  1.3712 -0.3869  1.1758
  201DG      O9 4609   3.557   3.117   4.589  0.4675  0.3951  0.2551
  201DG     O10 4610   3.247   2.619   4.786  0.2498  0.0746  0.1727
  201DG     C11 4611   3.660   3.033   4.635  0.4026 -0.1758 -0.3879
  201DG     C12 4612   3.295   2.757   4.783  0.0559  0.8052  0.0226
  201DG     H13 4613   3.697   3.065   4.732 -1.5008 -1.0741  0.6820
  201DG     H14 4614   3.752   3.024   4.577  1.7197 -2.1044  1.8008
  201DG     H15 4615   3.303   2.801   4.882 -1.7950  0.7657  0.2233
  201DG     H16 4616   3.234   2.828   4.727 -0.7380 -0.0410 -0.2215
  201DG     C17 4617   3.612   2.892   4.655  0.4931 -0.1658  0.4605
  201DG     C18 4618   3.438   2.751   4.732  0.4499 -0.4805 -0.2884
  201DG     O19 4619   3.480   2.886   4.721 -0.2584  0.4631 -0.1086
  201DG     H20 4620   3.679   2.822   4.704 -1.5730 -1.7462  1.2105
  201DG     H21 4621   3.593   2.845   4.558  1.3232 -0.7879  0.5933
  201DG     H22 4622   3.501   2.695   4.801  1.4406 -0.8168 -1.4347
  201DG     H23 4623   3.440   2.703   4.634 -2.0879 -0.2541 -0.5090
  202DG      C1 4624   3.905   1.641   2.595 -0.6153  0.5788  0.4078
  202DG      C2 4625   3.881   1.093   2.079 -0.5008 -0.1838  0.4648
  202DG      H3 4626   3.863   1.690   2.507 -0.9621 -0.4778 -0.0457
  202DG      H4 4627   4.004   1.686   2.605 -0.5101  0.3740  0.3028
  202DG      H5 4628   3.845   1.671   2.681 -1.5783  0.1969 -0.1135
  202DG      H6 4629   3.927   1.011   2.024  1.4397  1.8163 -1.0867
  202DG      H7 4630   3.799   1.064   2.144 -0.5021 -1.1353  0.0490
  202DG      H8 4631   3.824   1.140   1.999 -0.0814  0.4953  0.5542
  202DG      O9 4632   3.911   1.493   2.591  0.7134 -0.0304  0.2785
  202DG     O10 4633   3.959   1.204   2.136  0.4165  0.5995  0.2676
  202DG     C11 4634   3.780   1.438   2.560  0.0897  0.4707 -0.2225
  202DG     C12 4635   3.881   1.323   2.140  0.0456 -0.9495 -0.0358
  202DG     H13 4636   3.730   1.494   2.482 -2.8822  0.0125  1.2288
  202DG     H14 4637   3.714   1.449   2.646  0.8756 -0.8558  0.5986
  202DG     H15 4638   3.834   1.347   2.044  0.9042 -1.2502 -0.5447
  202DG     H16 4639   3.950   1.408   2.144 -0.8752 -0.1904  0.3313
  202DG     C17 4640   3.795   1.295   2.502  0.4166 -0.0956  0.1050
  202DG     C18 4641   3.792   1.326   2.266 -0.4415 -0.6270  0.0835
  202DG     O19 4642   3.869   1.289   2.381 -0.1322 -0.0220 -0.1345
  202DG     H20 4643   3.695   1.255   2.483 -0.1386  1.2267  0.1559
  202DG     H21 4644   3.843   1.232   2.577 -3.5389 -3.5539  0.0946
  202DG     H22 4645   3.749   1.425   2.280 -2.8730 -1.8607  2.0270
  202DG     H23 4646   3.706   1.260   2.256 -2.3810  1.7596  0.1622
  203DG      C1 4647   0.727   3.724   1.747  0.2193  0.0465 -0.3437
  203DG      C2 4648   0.175   3.808   2.156 -0.1640  0.3561  0.2314
  203DG      H3 4649   0.779   3.680   1.832  1.4658  0.5041 -0.8478
  203DG      H4 4650   0.718   3.831   1.765 -1.3480 -0.1018 -0.0772
  203DG      H5 4651   0.764   3.695   1.649 -0.6108 -0.7949 -0.4280
  203DG      H6 4652   0.138   3.709   2.181  0.1030 -0.5885 -2.7605
  203DG      H7 4653   0.256   3.839   2.223  1.0292  0.1054 -1.0589
  203DG      H8 4654   0.092   3.878   2.158 -0.0581  0.5385 -1.1527
  203DG      O9 4655   0.600   3.664   1.747 -0.0290 -0.0829 -0.9357
  203DG     O10 4656   0.214   3.789   2.018 -0.8684  0.7741  0.3292
  203DG     C11 4657   0.519   3.712   1.636  0.8975 -0.2524 -0.2091
  203DG     C12 4658   0.241   3.911   1.955 -0.6226 -0.3969 -0.5026
  203DG     H13 4659   0.532   3.646   1.550  0.1007  0.3556 -0.8096
  203DG     H14 4660   0.551   3.812   1.606 -0.4981  0.2754 -0.0053
  203DG     H15 4661   0.325   3.970   1.989 -2.0429  0.4368  1.8613
  203DG     H16 4662   0.157   3.976   1.981 -0.3294 -1.2104  3.0707
  203DG     C17 4663   0.368   3.728   1.666  0.6804  0.5004 -0.1352
  203DG     C18 4664   0.237   3.876   1.812 -0.4103 -0.6512  0.5678
  203DG     O19 4665   0.362   3.814   1.781  0.1778  0.2182  0.4287
  203DG     H20 4666   0.329   3.629   1.690  0.8366  0.2361 -0.9600
  203DG     H21 4667   0.308   3.773   1.588 -0.0447  0.3877  0.3415
  203DG     H22 4668   0.155   3.816   1.773 -0.0584  0.3513 -1.9463
  203DG     H23 4669   0.242   3.961   1.744 -0.6719 -0.8162  0.3418
  204DG      C1 4670   0.847   3.594   5.283 -0.5501  0.6094 -0.2585
  204DG      C2 4671   1.114   3.075   4.880  0.6214  0.5896 -0.3882
  204DG      H3 4672   0.943   3.603   5.333  0.1414 -1.2051 -1.1584
  204DG      H4 4673   0.766   3.616   5.352  0.1069  1.5766  0.2293
  204DG      H5 4674   0.843   3.664   5.199 -0.6300 -0.3010 -1.0283
  204DG      H6 4675   1.057   3.110   4.794  0.5915  0.6869 -0.3299
  204DG      H7 4676   1.201   3.140   4.884  1.4716 -0.4556 -1.2931
  204DG      H8 4677   1.162   2.978   4.873  3.2315  1.6324  1.5168
  204DG      O9 4678   0.815   3.468   5.227  0.1385 -0.2593 -0.1569
  204DG     O10 4679   1.038   3.088   5.001 -0.2925  0.3858 -0.3968
  204DG     C11 4680   0.814   3.362   5.327 -0.1056 -0.6832 -0.1357
  204DG     C12 4681   0.905   3.052   4.988 -0.0144 -0.0791  0.7534
  204DG     H13 4682   0.755   3.391   5.414  1.7388 -2.0583  1.6731
  204DG     H14 4683   0.915   3.364   5.368 -0.6729  0.6561  1.2880
  204DG     H15 4684   0.894   2.952   4.945 -2.8606  0.9102 -1.0737
  204DG     H16 4685   0.858   3.123   4.920  1.0950 -1.4213 -1.5696
  204DG     C17 4686   0.773   3.234   5.264 -0.5849  0.5674  0.0879
  204DG     C18 4687   0.845   3.061   5.125  0.1019  0.1709  0.0993
  204DG     O19 4688   0.870   3.185   5.175 -0.4797 -0.1138 -0.0970
  204DG     H20 4689   0.679   3.261   5.216  0.8189  2.6594 -1.6577
  204DG     H21 4690   0.748   3.157   5.338  1.1134  0.7728  0.9309
  204DG     H22 4691   0.743   3.028   5.109 -0.1655  1.3623 -0.8361
  204DG     H23 4692   0.892   2.987   5.189  0.8690  1.1927  0.7485
  205DG      C1 4693   0.337   4.713   5.374 -0.0722 -0.7148  1.1293
  205DG      C2 4694  -0.447   4.556   5.660 -0.8517 -1.3524  0.4615
  205DG      H3 4695   0.361   4.758   5.278 -2.8861 -2.3797 -0.5102
  205DG      H4 4696   0.349   4.609   5.345  1.2484 -0.2043 -0.2928
  205DG      H5 4697   0.414   4.748   5.443  0.1272 -0.8355  0.9685
  205DG      H6 4698  -0.460   4.493   5.572 -2.4535 -0.2174 -0.1717
  205DG      H7 4699  -0.405   4.504   5.746  0.7396 -0.5976  0.1667
  205DG      H8 4700  -0.547   4.579   5.696 -1.3309 -0.4365 -1.3283
  205DG      O9 4701   0.206   4.756   5.411  0.2401 -0.3949 -0.4681
  205DG     O10 4702  -0.375   4.676   5.627 -0.0417 -0.3593  0.3881
  205DG     C11 4703   0.101   4.716   5.320 -0.4116  0.1001  0.0326
  205DG     C12 4704  -0.258   4.654   5.555 -0.0940  0.1010  0.1473
  205DG     H13 4705   0.086   4.608   5.317  1.0104 -0.0959 -2.0692
  205DG     H14 4706   0.124   4.744   5.217 -0.7883 -0.7825 -0.3014
  205DG     H15 4707  -0.280   4.620   5.454 -0.8122 -1.1986  0.7146
  205DG     H16 4708  -0.206   4.569   5.600  0.3413  0.4671  0.3488
  205DG     C17 4709  -0.020   4.790   5.373  0.6009 -0.0294 -0.3134
  205DG     C18 4710  -0.169   4.777   5.563  0.9533  0.0915 -0.1046
  205DG     O19 4711  -0.043   4.746   5.506  0.4445  0.6724 -0.5775
  205DG     H20 4712  -0.111   4.795   5.313  0.0685 -0.8974  0.3909
  205DG     H21 4713   0.004   4.895   5.382  0.6550  0.1342 -2.0179
  205DG     H22 4714  -0.212   4.862   5.510  0.7847  0.5757  0.7850
  205DG     H23 4715  -0.150   4.803   5.667 -1.9696 -1.8776  1.0486
  206DG      C1 4716   1.080   4.389   2.747 -0.4006  1.3731 -0.3451
  206DG      C2 4717   0.633   4.799   3.170 -0.1065  0.2821  0.2470
  206DG      H3 4718   1.155   4.422   2.675  0.1019  1.9210  0.4197
  206DG      H4 4719   1.036   4.293   2.718 -0.6166  1.2829  0.2800
  206DG      H5 4720   1.126   4.381   2.846 -2.0249  2.1397  0.5022
  206DG      H6 4721   0.690   4.886   3.202  1.2158 -0.6743  0.5829
  206DG      H7 4722   0.529   4.826   3.192  0.0260  1.2097 -0.2322
  206DG      H8 4723   0.657   4.701   3.212  0.1306  0.0317 -0.4507
  206DG      O9 4724   0.977   4.486   2.757 -0.2968  0.3813  0.3223
  206DG     O10 4725   0.651   4.787   3.033  0.4189  0.1518 -0.4600
  206DG     C11 4726   0.865   4.450   2.680 -0.0662 -0.6900 -0.4371
  206DG     C12 4727   0.559   4.710   2.968 -0.3499 -0.1967  0.2162
  206DG     H13 4728   0.832   4.347   2.694  0.0735 -0.6876 -0.0937
  206DG     H14 4729   0.900   4.453   2.577 -0.8093 -1.5827 -0.7307
  206DG     H15 4730   0.466   4.766   2.956  0.3887  0.8026 -0.9651
  206DG     H16 4731   0.547   4.615   3.021  0.3564 -0.3834  0.0423
  206DG     C17 4732   0.756   4.568   2.689 -0.1005 -0.2047 -0.5254
  206DG     C18 4733   0.603   4.664   2.829  0.2437 -0.0364 -0.8944
  206DG     O19 4734   0.713   4.576   2.827  0.1388 -0.0963  0.4610
  206DG     H20 4735   0.680   4.552   2.612  0.2277  1.5000 -1.2388
  206DG     H21 4736   0.801   4.666   2.675 -2.3239  1.1717  1.3375
  206DG     H22 4737   0.516   4.614   2.787  0.0003  1.2140 -1.9625
  206DG     H23 4738   0.613   4.752   2.764 -0.7274  1.4904  0.9468
  207DG      C1 4739   1.613   1.500   2.539  0.2935  0.0404 -0.4410
  207DG      C2 4740   0.718   1.523   2.653 -0.3424  0.6167 -0.2007
  207DG      H3 4741   1.710   1.456   2.559  0.1915 -0.1213 -0.3021
  207DG      H4 4742   1.609   1.605   2.568 -0.6034 -0.8521  3.0936
  207DG      H5 4743   1.590   1.479   2.434 -0.0221  0.7326 -0.5183
  207DG      H6 4744   0.707   1.579   2.559 -0.0790  2.9566  1.0869
  207DG      H7 4745   0.679   1.422   2.644 -2.0476  1.2878 -0.6747
  207DG      H8 4746   0.656   1.586   2.715 -1.5417  2.0713 -2.7062
  207DG      O9 4747   1.526   1.438   2.623 -0.1555  0.1015  0.5878
  207DG     O10 4748   0.850   1.530   2.707  0.0313 -0.3270  0.1778
  207DG     C11 4749   1.395   1.483   2.592 -0.1786 -0.5504  0.5280
  207DG     C12 4750   0.938   1.429   2.653  0.5997  0.3794  0.1432
  207DG     H13 4751   1.359   1.439   2.499 -1.4325  0.0040  0.7333
  207DG     H14 4752   1.372   1.589   2.584 -0.9550 -0.7994 -1.1964
  207DG     H15 4753   0.974   1.439   2.551 -0.5651 -3.2161 -0.7929
  207DG     H16 4754   0.887   1.333   2.669  1.0477  0.0439 -0.3980
  207DG     C17 4755   1.311   1.413   2.698  0.6004 -0.5684  0.0953
  207DG     C18 4756   1.068   1.434   2.743  0.2697 -0.0205 -0.0488
  207DG     O19 4757   1.177   1.453   2.664  0.2380  0.1323  0.2841
  207DG     H20 4758   1.338   1.464   2.791 -0.4738  0.6847 -0.2429
  207DG     H21 4759   1.312   1.304   2.702  1.8701 -0.5504  1.6049
  207DG     H22 4760   1.053   1.505   2.824 -1.8458  1.4113 -1.6268
  207DG     H23 4761   1.081   1.336   2.791 -3.9707 -0.3389  0.8045
  208DG      C1 4762   1.777   0.591   3.364 -0.6576  0.1706 -0.2597
  208DG      C2 4763   1.582   0.245   4.033 -0.5022  0.5212  0.4300
  208DG      H3 4764   1.680   0.638   3.345 -1.2633 -1.0354 -0.2465
  208DG      H4 4765   1.857   0.626   3.300  0.6833  1.2702  1.8703
  208DG      H5 4766   1.803   0.640   3.459 -2.1363  2.4473 -0.9379
  208DG      H6 4767   1.614   0.337   4.081 -0.1866  0.9499 -0.5911
  208DG      H7 4768   1.481   0.219   4.067 -0.1866 -2.8320 -0.8164
  208DG      H8 4769   1.635   0.164   4.085 -2.2614 -0.7376  0.3634
  208DG      O9 4770   1.768   0.449   3.379  0.3809  0.4115 -0.5456
  208DG     O10 4771   1.601   0.257   3.891  0.1772 -0.2893 -0.1151
  208DG     C11 4772   1.708   0.406   3.501  0.3301  0.6639 -0.0883
  208DG     C12 4773   1.538   0.161   3.807 -0.2325 -0.3528  0.5453
  208DG     H13 4774   1.602   0.430   3.509  0.5951  1.3404  2.1339
  208DG     H14 4775   1.751   0.451   3.591 -0.7270 -0.6014  1.1080
  208DG     H15 4776   1.433   0.161   3.835 -0.3279  1.4280  0.2693
  208DG     H16 4777   1.574   0.064   3.843 -0.5284 -0.7012 -0.0859
  208DG     C17 4778   1.734   0.256   3.513  0.4913  0.0473 -0.3296
  208DG     C18 4779   1.576   0.191   3.655  0.2197  0.5777  0.0551
  208DG     O19 4780   1.713   0.208   3.641  0.0370  0.0514  0.2678
  208DG     H20 4781   1.839   0.240   3.490  1.0680  2.6092  0.2943
  208DG     H21 4782   1.677   0.201   3.437  0.1291 -0.0399  0.0011
  208DG     H22 4783   1.559   0.105   3.590  1.4963 -0.3054  0.8302
  208DG     H23 4784   1.520   0.278   3.619  2.0782  1.5820 -0.5306
  209DG      C1 4785   3.924   3.550   0.919  0.2092  0.1954 -0.3024
  209DG      C2 4786   4.542   3.258   0.673  0.1718  0.3000 -0.5492
  209DG      H3 4787   3.864   3.591   1.000  0.1998  2.4840 -1.3665
  209DG      H4 4788   3.859   3.499   0.848 -0.0638 -0.4583  0.4055
  209DG      H5 4789   3.958   3.628   0.851 -0.1050 -0.7630 -1.5979
  209DG      H6 4790   4.637   3.222   0.713  0.0012  0.5088  0.0548
  209DG      H7 4791   4.514   3.213   0.577  1.9432  1.3806 -1.6313
  209DG      H8 4792   4.568   3.360   0.647 -2.0768  1.4530  1.4024
  209DG      O9 4793   4.020   3.457   0.960 -0.4946 -0.1644  0.1410
  209DG     O10 4794   4.454   3.258   0.784 -0.2528  0.4078  0.9727
  209DG     C11 4795   3.983   3.315   0.977 -0.2016  0.0126  0.1521
  209DG     C12 4796   4.392   3.132   0.812  0.8113  0.3134  0.2405
  209DG     H13 4797   3.939   3.273   0.886  0.6338  2.1981 -1.3427
  209DG     H14 4798   3.908   3.308   1.056 -0.2953  0.5844  0.1189
  209DG     H15 4799   4.467   3.053   0.821  0.1103 -0.4155 -0.1855
  209DG     H16 4800   4.320   3.120   0.730  0.2663 -0.6646  0.8388
  209DG     C17 4801   4.103   3.230   1.012  0.0701  0.9091 -0.4866
  209DG     C18 4802   4.299   3.141   0.939 -0.3002  0.2503  0.0567
  209DG     O19 4803   4.189   3.220   0.900  0.4736 -0.1426  0.5333
  209DG     H20 4804   4.071   3.130   1.042  1.1128  0.9419  0.8387
  209DG     H21 4805   4.158   3.275   1.095  0.7745 -0.1043 -0.3753
  209DG     H22 4806   4.255   3.041   0.948 -2.3240  1.0000 -0.8390
  209DG     H23 4807   4.348   3.186   1.024  0.4050 -0.4344  0.0270
  210DG      C1 4808   1.620   0.989   1.775  0.0602  0.0063 -0.1670
  210DG      C2 4809   1.765   0.380   1.928  0.2183 -0.5901  0.3453
  210DG      H3 4810   1.603   0.976   1.882  0.6134 -0.2701 -0.1105
  210DG      H4 4811   1.521   1.020   1.741  0.4686  2.2285  0.5274
  210DG      H5 4812   1.694   1.067   1.759 -1.0346  1.5374  1.7551
  210DG      H6 4813   1.872   0.398   1.940 -0.2225  0.5145  3.4570
  210DG      H7 4814   1.730   0.479   1.901 -1.2969 -1.5734 -1.5849
  210DG      H8 4815   1.735   0.354   2.029 -0.7421 -1.7136 -0.2002
  210DG      O9 4816   1.647   0.866   1.704 -0.0997 -0.0826  0.2997
  210DG     O10 4817   1.750   0.294   1.813  0.5518  0.4471  0.0022
  210DG     C11 4818   1.539   0.778   1.717 -0.4013 -0.1798 -0.9451
  210DG     C12 4819   1.780   0.352   1.688 -0.9142 -0.6948 -0.6546
  210DG     H13 4820   1.451   0.830   1.679 -1.0106 -1.9599 -2.0866
  210DG     H14 4821   1.516   0.750   1.820 -1.0595 -1.9243 -1.5224
  210DG     H15 4822   1.813   0.274   1.620 -1.8699 -1.2181 -0.5359
  210DG     H16 4823   1.865   0.420   1.697 -0.7686 -0.5451 -2.7296
  210DG     C17 4824   1.547   0.653   1.627  0.1313  0.2983 -0.3229
  210DG     C18 4825   1.675   0.449   1.622 -0.2285  0.0478 -0.2916
  210DG     O19 4826   1.657   0.575   1.685  0.3141 -0.4066  0.1659
  210DG     H20 4827   1.580   0.682   1.527  0.7421 -0.0404 -0.2238
  210DG     H21 4828   1.460   0.589   1.615  0.6019 -0.3791 -0.1461
  210DG     H22 4829   1.698   0.469   1.517 -0.3068 -0.8122 -0.4793
  210DG     H23 4830   1.580   0.395   1.625  0.4534 -1.2021 -0.7238
  211DG      C1 4831   1.865   2.783   3.708  0.2187 -0.3692 -0.2700
  211DG      C2 4832   1.531   2.558   4.430 -0.4935 -0.4004  0.3593
  211DG      H3 4833   1.782   2.848   3.734 -0.4060 -0.2614 -2.3107
  211DG      H4 4834   1.824   2.717   3.631 -0.5148  1.6305 -1.6821
  211DG      H5 4835   1.936   2.845   3.654  0.9224 -1.0459 -0.1547
  211DG      H6 4836   1.527   2.479   4.355  0.4455 -1.0167  0.9328
  211DG      H7 4837   1.621   2.541   4.489 -0.6487  0.2591  0.7906
  211DG      H8 4838   1.443   2.554   4.493 -0.8002 -0.7085 -0.0794
  211DG      O9 4839   1.911   2.707   3.823 -0.0461 -0.2038 -0.1720
  211DG     O10 4840   1.543   2.691   4.366 -0.0331  0.8733  0.1043
  211DG     C11 4841   1.930   2.777   3.945  0.2027 -0.5178 -0.3211
  211DG     C12 4842   1.649   2.686   4.273  0.0552  0.0705  0.6287
  211DG     H13 4843   1.969   2.877   3.926 -0.5528  0.0004  0.7479
  211DG     H14 4844   2.005   2.733   4.011  2.6570 -0.6511 -2.9854
  211DG     H15 4845   1.629   2.619   4.189  2.4300 -2.3092  1.7895
  211DG     H16 4846   1.741   2.645   4.316  0.1769 -0.8763 -0.4731
  211DG     C17 4847   1.795   2.778   4.017  0.2895 -0.4191  0.2135
  211DG     C18 4848   1.682   2.825   4.227 -0.6865  0.1186 -0.4341
  211DG     O19 4849   1.804   2.820   4.155  0.2955 -0.6530 -0.0179
  211DG     H20 4850   1.757   2.678   4.034  1.1734 -0.4548  2.2209
  211DG     H21 4851   1.721   2.843   3.969  1.3003 -0.9440 -2.2140
  211DG     H22 4852   1.600   2.855   4.162 -2.2311 -0.1890  1.3044
  211DG     H23 4853   1.695   2.892   4.312 -1.3833 -1.2460  0.8052
  212DG      C1 4854   5.039   1.995   4.984  0.3059  0.1553  0.2448
  212DG      C2 4855   4.595   1.589   4.733 -0.5891 -0.4612  0.5067
  212DG      H3 4856   5.033   1.910   5.051  1.7179 -2.2676 -2.4936
  212DG      H4 4857   5.042   2.092   5.034 -2.6950  1.8190 -2.3701
  212DG      H5 4858   5.135   1.986   4.933  1.3912 -0.8127  2.3670
  212DG      H6 4859   4.669   1.525   4.781  0.5368  0.6916  0.3867
  212DG      H7 4860   4.505   1.593   4.795 -2.1190 -0.0538 -1.6506
  212DG      H8 4861   4.571   1.546   4.636 -0.4034  1.2129 -0.3288
  212DG      O9 4862   4.944   1.993   4.872  0.5937  0.0715  0.0338
  212DG     O10 4863   4.653   1.718   4.715 -0.3958 -0.2450 -0.3746
  212DG     C11 4864   4.883   2.125   4.853  0.8045 -0.0045  0.1528
  212DG     C12 4865   4.581   1.807   4.632 -0.5791 -0.3227 -0.4788
  212DG     H13 4866   4.960   2.201   4.842 -0.5139  1.5772  1.4128
  212DG     H14 4867   4.833   2.158   4.944  0.9668  1.8399 -0.3895
  212DG     H15 4868   4.482   1.799   4.677 -0.2501  0.8381  0.5033
  212DG     H16 4869   4.582   1.764   4.532  1.0316 -1.3885 -0.0461
  212DG     C17 4870   4.783   2.102   4.735 -0.7394 -0.0036  0.0245
  212DG     C18 4871   4.634   1.948   4.633 -0.5111  0.5447  0.2664
  212DG     O19 4872   4.704   1.981   4.750  0.3718  0.2467 -0.3432
  212DG     H20 4873   4.851   2.107   4.650  0.3006  0.4293  0.8536
  212DG     H21 4874   4.723   2.192   4.723 -0.1794  0.2116 -1.2801
  212DG     H22 4875   4.702   1.956   4.549 -0.7521 -1.0688 -0.1231
  212DG     H23 4876   4.551   2.016   4.613 -0.1014  0.6972 -0.9688
  213DG      C1 4877   0.225   5.477   2.815  0.0077 -0.4364 -0.2392
  213DG      C2 4878  -0.473   5.326   2.837 -0.4341 -0.2906 -0.7608
  213DG      H3 4879   0.273   5.559   2.762  1.6306 -2.6247 -2.4024
  213DG      H4 4880   0.235   5.388   2.753  1.2299 -0.5782  0.1319
  213DG      H5 4881   0.284   5.466   2.907  0.3905 -3.2855 -0.7368
  213DG      H6 4882  -0.424   5.247   2.894  1.8389  0.9384 -0.8970
  213DG      H7 4883  -0.564   5.348   2.892  0.0195  1.0640 -0.5099
  213DG      H8 4884  -0.501   5.286   2.740 -0.4518  0.2966 -0.9991
  213DG      O9 4885   0.091   5.499   2.862  0.1239 -0.4128  0.0690
  213DG     O10 4886  -0.403   5.451   2.823  0.1199 -0.3733  0.3822
  213DG     C11 4887   0.032   5.575   2.755  0.8210 -0.2148 -0.2127
  213DG     C12 4888  -0.374   5.518   2.948 -0.2122  1.0866 -0.6820
  213DG     H13 4889   0.035   5.537   2.653 -1.3905  0.7350 -0.6835
  213DG     H14 4890   0.075   5.675   2.743  1.1683 -0.4551 -1.0154
  213DG     H15 4891  -0.308   5.451   3.002 -0.3987 -0.0178 -1.7901
  213DG     H16 4892  -0.464   5.524   3.010 -0.2569  2.7934 -0.8586
  213DG     C17 4893  -0.124   5.586   2.770  0.3032  0.1442  0.5797
  213DG     C18 4894  -0.302   5.645   2.924 -0.2126 -0.0402  0.2552
  213DG     O19 4895  -0.162   5.635   2.898  0.1198 -0.2553 -0.7482
  213DG     H20 4896  -0.165   5.486   2.757  1.5526 -0.2532 -0.4883
  213DG     H21 4897  -0.171   5.651   2.697  1.1134  0.4843  0.3466
  213DG     H22 4898  -0.357   5.716   2.862 -1.8695 -1.3668  0.1286
  213DG     H23 4899  -0.298   5.695   3.021  0.8249  1.6955 -0.6423
  214DG      C1 4900   4.052   0.759   3.335 -0.3399  0.3838  0.1661
  214DG      C2 4901   4.358   0.775   3.060 -0.2574 -0.2710 -0.2568
  214DG      H3 4902   4.039   0.655   3.307  0.8188  0.5807 -1.2216
  214DG      H4 4903   4.104   0.754   3.431 -0.8997 -0.3963  0.4418
  214DG      H5 4904   4.122   0.809   3.269 -1.1249 -0.0109 -0.9962
  214DG      H6 4905   4.393   0.683   3.012  1.2028 -0.2731  0.7388
  214DG      H7 4906   4.425   0.856   3.032 -0.8634  0.2543 -0.2010
  214DG      H8 4907   4.364   0.763   3.168  0.3001 -0.4830 -0.3075
  214DG      O9 4908   3.932   0.829   3.340  0.2280 -0.2764 -0.7820
  214DG     O10 4909   4.223   0.805   3.030  0.7724  0.0298  0.3055
  214DG     C11 4910   3.844   0.796   3.236 -0.7224 -0.1543 -0.1016
  214DG     C12 4911   4.202   0.944   3.003  0.2004 -0.2611  0.0471
  214DG     H13 4912   3.749   0.842   3.261 -1.1455 -0.4865 -1.0462
  214DG     H14 4913   3.818   0.691   3.241 -0.4256 -0.2050  0.5253
  214DG     H15 4914   4.255   0.958   2.909 -0.4676  0.5539 -0.2282
  214DG     H16 4915   4.235   1.010   3.085  0.4332 -1.9000  1.3262
  214DG     C17 4916   3.897   0.826   3.099  0.5956  0.3835 -0.1069
  214DG     C18 4917   4.050   0.964   2.970  0.0458 -0.9958  0.5797
  214DG     O19 4918   3.970   0.952   3.087  0.0539  0.5422 -0.0118
  214DG     H20 4919   3.808   0.826   3.037 -0.2316  1.5376  1.0410
  214DG     H21 4920   3.964   0.744   3.071 -2.1323 -1.4557 -1.6714
  214DG     H22 4921   4.043   1.068   2.936 -0.1208 -0.9776  0.6680
  214DG     H23 4922   4.010   0.910   2.884 -0.0612  1.9173 -1.3488
  215DG      C1 4923   0.562   0.726   1.908 -0.4018 -0.1583 -0.5416
  215DG      C2 4924   1.093   0.457   1.650 -0.1960 -0.2903 -0.0466
  215DG      H3 4925   0.556   0.618   1.893  0.8883 -0.2954 -0.2025
  215DG      H4 4926   0.461   0.758   1.881 -1.3779 -1.3051  1.4891
  215DG      H5 4927   0.590   0.756   2.009 -1.2827 -0.4607 -0.1959
  215DG      H6 4928   1.140   0.501   1.738  0.0191  0.9775 -0.7828
  215DG      H7 4929   1.039   0.373   1.694  0.3236 -1.7838 -2.1288
  215DG      H8 4930   1.169   0.431   1.576  0.2197 -0.2753  0.3638
  215DG      O9 4931   0.666   0.783   1.826 -0.5219  0.3249 -0.1038
  215DG     O10 4932   0.999   0.547   1.599  0.3582 -0.6277 -0.3404
  215DG     C11 4933   0.620   0.836   1.702 -0.0628 -0.2061  0.6991
  215DG     C12 4934   1.047   0.676   1.561 -0.1667 -0.1925 -0.4836
  215DG     H13 4935   0.562   0.928   1.713  1.0469  0.7532 -1.0964
  215DG     H14 4936   0.553   0.759   1.663  3.9085 -4.5945  1.5804
  215DG     H15 4937   1.123   0.657   1.485 -1.1372 -0.1605 -1.4842
  215DG     H16 4938   1.105   0.720   1.642 -2.6211  0.7803  0.8541
  215DG     C17 4939   0.737   0.858   1.598 -0.4490  1.0887 -0.3041
  215DG     C18 4940   0.936   0.770   1.516 -0.1088 -0.1460  0.4892
  215DG     O19 4941   0.835   0.762   1.619  0.0284 -0.0860 -0.2327
  215DG     H20 4942   0.784   0.956   1.601 -0.0804  0.9996 -2.0336
  215DG     H21 4943   0.690   0.841   1.501 -1.2209  0.1266  0.2213
  215DG     H22 4944   0.982   0.868   1.508  2.7918 -1.2557  1.9202
  215DG     H23 4945   0.903   0.745   1.415  1.3886  2.7763 -0.8491
  216DG      C1 4946   0.605   2.158   1.865  0.9840  0.0487  0.3092
  216DG      C2 4947   1.093   2.222   1.365 -0.4936  0.2901  0.1117
  216DG      H3 4948   0.522   2.194   1.926  0.0382 -0.7875 -0.4490
  216DG      H4 4949   0.693   2.198   1.916  0.5926  1.1296  0.1659
  216DG      H5 4950   0.608   2.051   1.883 -1.2639  0.4854  4.5575
  216DG      H6 4951   1.107   2.220   1.257 -1.0421  2.4357 -0.0356
  216DG      H7 4952   1.164   2.298   1.397 -0.6332 -0.2137  1.7472
  216DG      H8 4953   1.124   2.122   1.398 -0.3414  0.5756  0.8564
  216DG      O9 4954   0.597   2.212   1.725  0.3625 -0.7799 -0.2503
  216DG     O10 4955   0.956   2.240   1.394  0.2166  0.2270  0.0127
  216DG     C11 4956   0.528   2.130   1.632 -0.2808  0.2973 -0.5838
  216DG     C12 4957   0.864   2.191   1.294  0.1561  0.4083  1.0350
  216DG     H13 4958   0.423   2.128   1.661  0.2539 -1.6525  1.5549
  216DG     H14 4959   0.566   2.028   1.624  1.4536  0.7646  0.9268
  216DG     H15 4960   0.886   2.090   1.261  0.3452  0.2693  1.5831
  216DG     H16 4961   0.887   2.244   1.201  1.9287 -1.1907  0.5062
  216DG     C17 4962   0.542   2.183   1.492  0.7109 -0.1162  0.3932
  216DG     C18 4963   0.717   2.219   1.326  0.2846 -0.6689 -0.4031
  216DG     O19 4964   0.675   2.167   1.457 -0.0598 -0.1613  0.3527
  216DG     H20 4965   0.510   2.285   1.510  1.4513 -0.1744  2.2714
  216DG     H21 4966   0.479   2.120   1.428 -0.8402  0.3846  1.3746
  216DG     H22 4967   0.695   2.325   1.318 -2.8636 -1.2332 -0.2485
  216DG     H23 4968   0.655   2.166   1.254 -1.2293 -1.4534  1.4067
  217DG      C1 4969   1.386   1.187   5.017 -0.6248  0.2886  0.1013
  217DG      C2 4970   1.395   1.028   4.349 -0.6532  1.0617 -0.0802
  217DG      H3 4971   1.475   1.240   4.984 -1.0505  0.5713 -0.6153
  217DG      H4 4972   1.415   1.099   5.075  0.5830 -0.5334 -1.6630
  217DG      H5 4973   1.336   1.255   5.085  0.2673  0.1863  0.8804
  217DG      H6 4974   1.490   1.081   4.348 -0.7834  1.5375 -3.7678
  217DG      H7 4975   1.438   0.928   4.348  1.5276  1.9413  0.6035
  217DG      H8 4976   1.339   1.063   4.262 -0.9751  2.2111  0.5729
  217DG      O9 4977   1.298   1.161   4.908  0.1049 -0.6582  0.0247
  217DG     O10 4978   1.323   1.051   4.465 -0.8065  0.1925 -0.3916
  217DG     C11 4979   1.185   1.075   4.939  0.4374 -0.2685 -0.1265
  217DG     C12 4980   1.224   0.957   4.491  0.3262 -0.3052  0.1580
  217DG     H13 4981   1.130   1.118   5.022 -1.9205 -0.4038 -1.5168
  217DG     H14 4982   1.219   0.983   4.986  2.6577  0.1390 -0.7879
  217DG     H15 4983   1.272   0.865   4.525 -1.1021 -0.3945  2.1175
  217DG     H16 4984   1.165   0.944   4.400 -0.9589  3.4917  0.2637
  217DG     C17 4985   1.106   1.059   4.816  0.5739  0.0013 -0.0184
  217DG     C18 4986   1.120   1.011   4.588 -0.0167  0.2548 -0.0583
  217DG     O19 4987   1.193   1.034   4.707  0.3973  0.0674  0.2998
  217DG     H20 4988   1.042   1.147   4.808 -0.3505 -0.6063  0.6027
  217DG     H21 4989   1.053   0.965   4.829  2.2384 -0.7184  2.2061
  217DG     H22 4990   1.069   1.097   4.544  1.7554 -0.9422 -5.0887
  217DG     H23 4991   1.050   0.929   4.607  0.9034 -0.2059  1.5176
  218DG      C1 4992   1.845   0.747   1.126  0.2239  0.0486 -0.0793
  218DG      C2 4993   1.885   0.744   1.845  0.3262 -0.2964  0.3370
  218DG      H3 4994   1.860   0.807   1.036  0.3818  0.4639  0.2217
  218DG      H4 4995   1.748   0.766   1.171 -0.1994  0.1150 -0.9969
  218DG      H5 4996   1.854   0.641   1.101  1.6740  0.1263  0.0063
  218DG      H6 4997   1.866   0.777   1.742  1.4539 -0.0532  0.1941
  218DG      H7 4998   1.803   0.689   1.891  0.8995 -1.3556  0.1140
  218DG      H8 4999   1.913   0.828   1.909  3.8858  1.3775 -2.9773
  218DG      O9 5000   1.946   0.781   1.218  0.3634 -0.3697  0.1414
  218DG     O10 5001   2.007   0.677   1.842 -0.6548  0.3556 -0.2917
  218DG     C11 5002   1.936   0.723   1.350  0.1946  0.7942  0.3888
  218DG     C12 5003   2.126   0.748   1.795  0.1452  0.0931  0.3810
  218DG     H13 5004   1.939   0.615   1.334 -1.0629  0.7876  0.0314
  218DG     H14 5005   1.847   0.752   1.406 -0.4112 -0.3280  0.0378
  218DG     H15 5006   2.201   0.669   1.787 -0.3321 -0.4232  0.8696
  218DG     H16 5007   2.172   0.816   1.866  1.4573  3.0680 -3.0124
  218DG     C17 5008   2.053   0.775   1.431  0.1574  0.4388  0.4021
  218DG     C18 5009   2.102   0.809   1.656  0.4462  0.4101 -0.1466
  218DG     O19 5010   2.042   0.722   1.559 -0.3610 -0.6536  0.1809
  218DG     H20 5011   2.055   0.884   1.432 -0.3680  0.4474  1.0255
  218DG     H21 5012   2.142   0.738   1.380  0.3388 -1.7130  2.1204
  218DG     H22 5013   2.043   0.900   1.662  2.8713  2.2996 -2.3090
  218DG     H23 5014   2.201   0.831   1.615 -0.3435  1.4922 -1.6086
  219DG      C1 5015   4.219   5.441   1.732  0.3253  0.6747  0.7082
  219DG      C2 5016   4.517   5.780   1.429  0.8344  0.0601 -0.2581
  219DG      H3 5017   4.231   5.480   1.631 -0.1729 -0.4738  0.1833
  219DG      H4 5018   4.172   5.509   1.802 -0.9729  0.2428  0.2752
  219DG      H5 5019   4.147   5.366   1.699  0.7946  0.7956 -0.6675
  219DG      H6 5020   4.598   5.853   1.425  1.4328 -0.2135  3.3806
  219DG      H7 5021   4.472   5.765   1.331  0.0381 -3.8692  0.5233
  219DG      H8 5022   4.443   5.819   1.500  0.3384  0.2307 -0.8579
  219DG      O9 5023   4.333   5.377   1.787 -0.3111  0.6372 -0.1543
  219DG     O10 5024   4.551   5.646   1.460 -0.1229 -0.7452  0.2694
  219DG     C11 5025   4.409   5.295   1.694  0.4662 -0.1467  0.2740
  219DG     C12 5026   4.653   5.644   1.563 -0.3087 -0.3747  0.3178
  219DG     H13 5027   4.342   5.227   1.643 -0.0366  1.9694 -2.0405
  219DG     H14 5028   4.473   5.227   1.752  2.1800  1.0755 -0.1067
  219DG     H15 5029   4.630   5.706   1.650  0.4564  1.2808 -0.6077
  219DG     H16 5030   4.740   5.701   1.531 -0.2133  0.3992  1.8535
  219DG     C17 5031   4.500   5.376   1.593  0.1309  0.3649 -0.0261
  219DG     C18 5032   4.696   5.504   1.600  1.0854 -0.7189 -0.3803
  219DG     O19 5033   4.589   5.442   1.672 -0.4102 -0.7312  0.3385
  219DG     H20 5034   4.449   5.439   1.520 -0.0389  0.6524  0.3379
  219DG     H21 5035   4.566   5.314   1.533 -0.6712 -1.5536  0.9793
  219DG     H22 5036   4.723   5.446   1.511 -2.3073  1.3613 -3.0027
  219DG     H23 5037   4.775   5.503   1.676 -1.4049 -2.2532  2.3863
  220DG      C1 5038   0.294   0.686   5.208  0.1087  0.2903 -0.4968
  220DG      C2 5039   0.110   0.696   6.008 -0.0965  0.0411  0.5121
  220DG      H3 5040   0.361   0.748   5.149 -1.6310  1.1780 -1.6125
  220DG      H4 5041   0.192   0.680   5.169  0.5926  0.2306 -1.8071
  220DG      H5 5042   0.331   0.583   5.209 -0.3519  0.1106  1.4758
  220DG      H6 5043   0.210   0.696   5.964  0.0284 -1.3802  0.7528
  220DG      H7 5044   0.110   0.745   6.105  0.4165  1.1203 -0.0116
  220DG      H8 5045   0.087   0.592   6.029  2.4803 -0.0025  4.0242
  220DG      O9 5046   0.291   0.714   5.345 -0.0383  0.1447 -0.0002
  220DG     O10 5047   0.017   0.755   5.916  0.2112  0.1116  0.0863
  220DG     C11 5048   0.259   0.851   5.366 -0.0133 -0.3418  0.1627
  220DG     C12 5049   0.047   0.724   5.780  0.3069 -0.0206  0.4028
  220DG     H13 5050   0.164   0.889   5.327  0.9313  0.7321 -1.1698
  220DG     H14 5051   0.335   0.912   5.317 -1.3491  0.9079 -0.4426
  220DG     H15 5052  -0.042   0.734   5.719 -0.3766  1.7175  1.6112
  220DG     H16 5053   0.081   0.621   5.772 -0.2567 -0.1075 -1.0376
  220DG     C17 5054   0.263   0.876   5.517  0.1752 -0.4279  0.5130
  220DG     C18 5055   0.146   0.824   5.724 -0.2361  0.0241  0.0380
  220DG     O19 5056   0.157   0.798   5.579  0.4661  0.0032  0.4742
  220DG     H20 5057   0.242   0.982   5.533  0.3726 -0.3032 -0.0379
  220DG     H21 5058   0.362   0.853   5.555  0.2888  1.1960  1.3140
  220DG     H22 5059   0.108   0.924   5.739  0.6095  0.6141 -1.4765
  220DG     H23 5060   0.246   0.825   5.767 -0.2981  1.5043  0.1973
  221DG      C1 5061   1.998   3.072   1.626  0.3125  0.3135 -0.5623
  221DG      C2 5062   1.379   2.633   1.346 -0.3102 -0.6528  0.1643
  221DG      H3 5063   1.916   3.136   1.657 -1.0551 -1.4591 -0.3785
  221DG      H4 5064   2.004   3.073   1.517  2.3888  1.3804 -0.4972
  221DG      H5 5065   2.090   3.112   1.668 -0.1984 -0.2721  1.2056
  221DG      H6 5066   1.347   2.569   1.264 -2.1355  0.7687 -0.2802
  221DG      H7 5067   1.325   2.596   1.434  0.1185  0.9023  1.1143
  221DG      H8 5068   1.337   2.729   1.316  0.3249  0.0542  1.4585
  221DG      O9 5069   1.974   2.936   1.668 -0.4493  0.2899 -0.8786
  221DG     O10 5070   1.515   2.627   1.374  0.7649 -0.3750 -0.1625
  221DG     C11 5071   1.847   2.886   1.632  0.2407 -0.0777  0.3135
  221DG     C12 5072   1.592   2.699   1.272 -0.7377 -0.3983 -0.0659
  221DG     H13 5073   1.766   2.953   1.659 -0.4563 -1.9417  3.2057
  221DG     H14 5074   1.816   2.796   1.684 -2.0205  0.3096 -0.2484
  221DG     H15 5075   1.540   2.792   1.249 -2.5683 -1.6582 -1.2588
  221DG     H16 5076   1.580   2.649   1.176 -1.8027  0.5477 -0.4518
  221DG     C17 5077   1.852   2.843   1.480 -0.8161  0.0445  0.4828
  221DG     C18 5078   1.733   2.711   1.318 -0.3847  0.1411  0.0758
  221DG     O19 5079   1.730   2.771   1.453  0.6146  0.5546  0.1749
  221DG     H20 5080   1.949   2.795   1.464  0.2433  2.7371 -2.1193
  221DG     H21 5081   1.854   2.933   1.418 -1.2628 -0.1882  0.1196
  221DG     H22 5082   1.786   2.616   1.320 -0.4084  0.1193 -0.2591
  221DG     H23 5083   1.782   2.778   1.248  0.3331  0.7666  1.1592
  222DG      C1 5084   0.876   3.154   0.138 -0.4606  0.2377  0.0188
  222DG      C2 5085   1.553   3.336   0.227 -0.8839 -0.3117 -0.0447
  222DG      H3 5086   0.918   3.065   0.092 -1.4491 -0.9734  1.3501
  222DG      H4 5087   0.838   3.215   0.056 -2.4428 -0.1913  0.5672
  222DG      H5 5088   0.788   3.121   0.194 -1.7004  1.6542 -1.0016
  222DG      H6 5089   1.638   3.334   0.295  0.2170 -1.0266 -1.3994
  222DG      H7 5090   1.582   3.276   0.141  0.5905  0.8062 -0.3553
  222DG      H8 5091   1.557   3.441   0.201  0.2439 -0.4069 -0.2857
  222DG      O9 5092   0.955   3.215   0.235  0.0863  0.2607 -0.0962
  222DG     O10 5093   1.430   3.303   0.280  0.2297 -0.1705 -0.4965
  222DG     C11 5094   0.995   3.115   0.339 -0.3743 -0.5435 -0.6261
  222DG     C12 5095   1.405   3.366   0.398 -0.1090  0.0153  0.3590
  222DG     H13 5096   1.043   3.029   0.290 -0.7687 -0.0200 -1.9964
  222DG     H14 5097   0.905   3.081   0.390 -1.5244  1.6704 -1.0712
  222DG     H15 5098   1.383   3.470   0.373 -0.3380 -0.3310 -0.9185
  222DG     H16 5099   1.488   3.360   0.469 -1.0177  0.3442  1.4883
  222DG     C17 5100   1.086   3.190   0.428  0.3334  0.5412 -0.2149
  222DG     C18 5101   1.283   3.302   0.461 -0.1917  0.4884 -0.2920
  222DG     O19 5102   1.194   3.249   0.358 -0.1649 -0.6583 -0.3400
  222DG     H20 5103   1.127   3.130   0.509  0.4839  0.6404 -0.2183
  222DG     H21 5104   1.027   3.265   0.481 -0.2012 -1.4124  2.1568
  222DG     H22 5105   1.325   3.211   0.506  2.8572  0.9778 -1.8447
  222DG     H23 5106   1.238   3.365   0.537  0.8360  1.5428 -0.5280
  223DG      C1 5107   2.385   4.153   0.929 -0.4553 -0.4503 -0.5084
  223DG      C2 5108   1.711   4.219   0.657  0.6018  0.7830  0.7448
  223DG      H3 5109   2.486   4.116   0.912  0.7770  2.5540 -0.3734
  223DG      H4 5110   2.320   4.077   0.973  1.2558 -0.5720  1.9754
  223DG      H5 5111   2.410   4.232   0.999 -0.1620 -1.5881  0.7060
  223DG      H6 5112   1.663   4.316   0.654  0.7119  0.8426 -2.1896
  223DG      H7 5113   1.694   4.172   0.559  1.2352  0.0128  0.9899
  223DG      H8 5114   1.650   4.152   0.718  0.0158 -1.6077 -2.2260
  223DG      O9 5115   2.323   4.203   0.810 -0.5307  0.0283  0.0096
  223DG     O10 5116   1.847   4.220   0.687  0.1178 -0.1939  0.0711
  223DG     C11 5117   2.340   4.122   0.697 -0.0595  1.0421  0.0431
  223DG     C12 5118   1.935   4.310   0.614  0.0700 -0.2621 -0.7321
  223DG     H13 5119   2.307   4.020   0.715  0.2297  0.9103 -0.1694
  223DG     H14 5120   2.447   4.116   0.680 -0.3771 -1.7640 -1.3783
  223DG     H15 5121   1.904   4.412   0.638  1.8008  0.6069 -1.9143
  223DG     H16 5122   1.923   4.298   0.506  0.6579 -1.1311 -0.7123
  223DG     C17 5123   2.269   4.166   0.572  0.0288 -0.2366  0.1280
  223DG     C18 5124   2.073   4.271   0.668  0.5939  0.0255  0.6412
  223DG     O19 5125   2.129   4.169   0.583  0.1858 -0.2051 -0.2896
  223DG     H20 5126   2.287   4.101   0.487 -2.4147  0.1527 -0.7727
  223DG     H21 5127   2.303   4.262   0.532 -1.4182  0.4077  0.3924
  223DG     H22 5128   2.139   4.357   0.657 -0.0274  0.2069 -2.7849
  223DG     H23 5129   2.078   4.246   0.774 -0.6170 -2.1799  0.2384
  224DG      C1 5130   1.305   2.820   4.035  0.3151  0.3304  0.3683
  224DG      C2 5131   1.203   2.284   3.513  0.0613  0.6084 -0.8253
  224DG      H3 5132   1.221   2.807   4.102 -1.3682  1.2573 -1.4564
  224DG      H4 5133   1.297   2.923   4.001 -1.3297  0.6941  1.7506
  224DG      H5 5134   1.392   2.828   4.101 -1.1283 -0.0751  2.4072
  224DG      H6 5135   1.253   2.229   3.433 -1.9190 -0.1805 -1.6100
  224DG      H7 5136   1.181   2.204   3.583 -1.5185  1.3460 -0.4236
  224DG      H8 5137   1.106   2.323   3.480  0.6137  2.0475 -0.8145
  224DG      O9 5138   1.319   2.726   3.931 -0.8552 -0.2698 -0.1652
  224DG     O10 5139   1.294   2.376   3.569 -0.2082  0.0543 -0.5700
  224DG     C11 5140   1.209   2.710   3.845  0.1412 -0.2062  0.2416
  224DG     C12 5141   1.307   2.484   3.478 -0.1523  0.6416  0.4789
  224DG     H13 5142   1.169   2.805   3.810  0.6678 -0.1659 -0.2596
  224DG     H14 5143   1.130   2.668   3.908 -2.1502  1.1734 -1.5325
  224DG     H15 5144   1.210   2.517   3.441  0.3513  1.0211 -0.5511
  224DG     H16 5145   1.360   2.461   3.385  0.5308  0.5881  0.8762
  224DG     C17 5146   1.250   2.610   3.734  0.0096 -0.1985  0.5989
  224DG     C18 5147   1.392   2.600   3.540 -0.3281  0.3418  0.2918
  224DG     O19 5148   1.308   2.679   3.622  0.6998  0.4383 -0.3122
  224DG     H20 5149   1.159   2.556   3.706 -1.0466  1.6796  0.2819
  224DG     H21 5150   1.313   2.528   3.770  2.5315  1.4973  0.2828
  224DG     H22 5151   1.475   2.553   3.593  0.4624  0.8924 -0.4346
  224DG     H23 5152   1.436   2.651   3.455 -1.6403 -0.3404 -0.8520
  225DG      C1 5153   5.331   2.956   0.060 -0.1635 -0.4841 -0.8316
  225DG      C2 5154   5.599   2.632  -0.521  0.4008  0.0398 -0.3614
  225DG      H3 5155   5.263   3.018   0.119 -0.7285  0.0087 -1.9487
  225DG      H4 5156   5.430   2.946   0.104 -1.6121 -3.3542  2.1103
  225DG      H5 5157   5.294   2.855   0.073 -1.2970  0.2407  2.4438
  225DG      H6 5158   5.566   2.647  -0.624  0.6697  1.4336 -0.2654
  225DG      H7 5159   5.699   2.591  -0.532 -0.2776 -1.3964 -1.5029
  225DG      H8 5160   5.527   2.564  -0.475  1.5303 -0.1772  1.1757
  225DG      O9 5161   5.325   2.974  -0.074 -0.3949 -0.1014 -0.0632
  225DG     O10 5162   5.603   2.750  -0.447 -0.2924  0.6014  0.0008
  225DG     C11 5163   5.389   3.095  -0.116  0.1806  0.0060  0.2886
  225DG     C12 5164   5.483   2.824  -0.455  0.8304  0.0594  0.5697
  225DG     H13 5165   5.496   3.083  -0.101 -0.0781 -2.3673  0.6840
  225DG     H14 5166   5.357   3.173  -0.047 -1.3374 -2.1972  2.2341
  225DG     H15 5167   5.411   2.769  -0.395 -0.4877 -0.2731 -1.2363
  225DG     H16 5168   5.450   2.849  -0.556 -2.1402  2.6091  2.0064
  225DG     C17 5169   5.354   3.118  -0.257 -0.2696 -0.3295  0.8652
  225DG     C18 5170   5.494   2.959  -0.392  0.1163 -0.2140  0.6347
  225DG     O19 5171   5.368   3.006  -0.357 -0.2580 -0.3093  0.1788
  225DG     H20 5172   5.416   3.202  -0.287 -1.3757 -0.1008 -0.9376
  225DG     H21 5173   5.250   3.148  -0.271  0.0218 -0.2756 -1.6423
  225DG     H22 5174   5.569   2.960  -0.313  0.1021  1.9108  0.6983
  225DG     H23 5175   5.538   3.028  -0.465 -1.1252 -0.7061 -0.6393
  226DG      C1 5176   4.450   2.129   1.605 -0.4282  0.5517 -0.0082
  226DG      C2 5177   4.963   2.386   1.285 -0.1007  0.2749  0.0064
  226DG      H3 5178   4.398   2.085   1.689  0.9520  2.2809  1.8462
  226DG      H4 5179   4.382   2.111   1.522 -1.6145  1.6007  0.7031
  226DG      H5 5180   4.463   2.237   1.613 -1.8827  0.7217  0.1933
  226DG      H6 5181   5.066   2.418   1.274  0.6922 -2.3800 -1.1615
  226DG      H7 5182   4.923   2.376   1.184  1.4389  0.1853 -0.6197
  226DG      H8 5183   4.902   2.469   1.322  1.0994  1.0657  0.2444
  226DG      O9 5184   4.577   2.068   1.591 -0.2517  0.3807 -0.0805
  226DG     O10 5185   4.947   2.263   1.359 -0.2712  0.2433  0.5065
  226DG     C11 5186   4.655   2.066   1.707  0.2530  0.1895 -0.1709
  226DG     C12 5187   5.029   2.248   1.475  0.0862  0.0509 -0.2056
  226DG     H13 5188   4.600   1.997   1.770 -1.2758  1.6035  0.1037
  226DG     H14 5189   4.644   2.167   1.746  1.2440  0.0524  0.4946
  226DG     H15 5190   5.018   2.332   1.543  0.2781 -1.1526  1.3582
  226DG     H16 5191   5.136   2.246   1.453  0.0271 -3.8895 -0.9621
  226DG     C17 5192   4.806   2.045   1.682 -0.1489  0.1777  0.1852
  226DG     C18 5193   4.991   2.128   1.556 -0.0479 -0.0515  0.2620
  226DG     O19 5194   4.856   2.146   1.594 -0.2243  0.3852 -0.0640
  226DG     H20 5195   4.832   1.949   1.636  0.2805  0.3752  0.0086
  226DG     H21 5196   4.868   2.048   1.772 -1.8696 -0.6357  1.4533
  226DG     H22 5197   5.004   2.040   1.493  1.0126 -1.4850  2.3350
  226DG     H23 5198   5.064   2.115   1.636 -1.8349 -2.9279  1.5761
  227DG      C1 5199   0.397   2.849   2.897 -0.9656  0.0197  0.5004
  227DG      C2 5200  -0.021   3.271   3.375  0.0463  0.3342  0.3111
  227DG      H3 5201   0.451   2.786   2.968 -1.8197 -2.2369 -0.7664
  227DG      H4 5202   0.465   2.934   2.891  0.1717 -0.7919  1.3463
  227DG      H5 5203   0.388   2.802   2.799  2.2998 -0.9583  0.5574
  227DG      H6 5204  -0.023   3.363   3.317  0.6026 -0.9350 -1.8177
  227DG      H7 5205  -0.081   3.287   3.465  0.9084 -0.1791  1.0013
  227DG      H8 5206   0.081   3.251   3.411 -0.0424  1.5959  1.3806
  227DG      O9 5207   0.272   2.897   2.941 -0.5657  0.0641  0.1521
  227DG     O10 5208  -0.077   3.166   3.305  0.1353  0.2948  0.5474
  227DG     C11 5209   0.183   2.795   2.953  0.1501 -0.2068 -0.3293
  227DG     C12 5210   0.006   3.100   3.206 -0.5568 -0.3029  0.6811
  227DG     H13 5211   0.228   2.721   3.018 -0.7506  0.4418  1.0780
  227DG     H14 5212   0.163   2.758   2.852 -0.8942 -0.0844 -0.1784
  227DG     H15 5213   0.110   3.107   3.237 -0.6658 -0.2544  1.0422
  227DG     H16 5214   0.004   3.161   3.115 -0.3991 -0.5204  0.5314
  227DG     C17 5215   0.056   2.848   3.015  0.4765 -0.0781 -0.2621
  227DG     C18 5216  -0.039   2.960   3.197  1.0266 -0.1581 -0.1925
  227DG     O19 5217   0.064   2.876   3.149  0.1375 -0.4998  0.0249
  227DG     H20 5218  -0.025   2.779   2.991  0.0884  0.4158 -0.3673
  227DG     H21 5219   0.035   2.942   2.965  1.5745  0.2500 -0.1440
  227DG     H22 5220  -0.077   2.931   3.295 -2.3959 -0.9724 -1.5931
  227DG     H23 5221  -0.131   2.955   3.139 -0.3890 -1.8130  2.0186
  228DG      C1 5222   0.216   5.028   2.793  0.1909  0.2125  0.2619
  228DG      C2 5223   0.306   4.241   2.252 -1.3054 -0.4618  1.0618
  228DG      H3 5224   0.120   5.009   2.842  0.3285 -0.7275  0.1863
  228DG      H4 5225   0.196   5.081   2.700 -0.1304 -0.5214 -0.0944
  228DG      H5 5226   0.278   5.086   2.862  0.2117  0.0517  0.3817
  228DG      H6 5227   0.365   4.150   2.239 -0.3517  0.0658  1.5913
  228DG      H7 5228   0.200   4.234   2.275 -1.5385  2.8901  1.4076
  228DG      H8 5229   0.306   4.286   2.153 -2.6525 -2.1412  0.2432
  228DG      O9 5230   0.280   4.905   2.754  0.1373  0.4837  0.2815
  228DG     O10 5231   0.361   4.323   2.355  0.4714 -0.1440  0.0378
  228DG     C11 5232   0.219   4.834   2.648  0.5092  0.1624 -0.0001
  228DG     C12 5233   0.276   4.442   2.380 -0.2266  0.0514 -0.0662
  228DG     H13 5234   0.230   4.898   2.560 -2.5986  1.4061  0.3791
  228DG     H14 5235   0.110   4.831   2.656  0.3852 -0.7596 -1.5092
  228DG     H15 5236   0.173   4.414   2.403  0.3057 -0.0548  2.4279
  228DG     H16 5237   0.282   4.507   2.293 -2.9044  1.0870  0.4505
  228DG     C17 5238   0.283   4.695   2.645 -0.3060  0.3507 -0.2517
  228DG     C18 5239   0.329   4.507   2.504 -0.4044 -0.2887 -0.4018
  228DG     O19 5240   0.258   4.632   2.520  0.2395  0.4415  0.2910
  228DG     H20 5241   0.259   4.636   2.734 -0.4954  0.8726  0.0429
  228DG     H21 5242   0.389   4.719   2.641 -0.1021 -0.4383  0.1861
  228DG     H22 5243   0.318   4.445   2.593  0.7638 -0.1256 -0.1289
  228DG     H23 5244   0.434   4.529   2.483 -0.8093  0.5344 -1.7014
  229DG      C1 5245   3.214   3.691   1.915 -0.8773  0.0157 -0.0136
  229DG      C2 5246   3.621   3.103   1.940  0.1713  0.0135  0.5135
  229DG      H3 5247   3.212   3.742   2.011 -0.1369 -0.3958  0.2261
  229DG      H4 5248   3.128   3.733   1.862  0.6304 -0.2161 -2.8332
  229DG      H5 5249   3.310   3.716   1.870 -1.4757  0.6640 -0.9842
  229DG      H6 5250   3.645   3.009   1.989  2.0120 -0.7750 -1.7165
  229DG      H7 5251   3.546   3.080   1.865  0.6839 -0.3779  0.1096
  229DG      H8 5252   3.707   3.139   1.883  0.4082  2.0889  2.0804
  229DG      O9 5253   3.200   3.557   1.950  0.0089  0.4794  0.3888
  229DG     O10 5254   3.564   3.193   2.031  0.1253 -0.1316 -0.1165
  229DG     C11 5255   3.209   3.474   1.833 -0.1810  0.1844  0.5120
  229DG     C12 5256   3.454   3.156   2.109 -0.2537  0.1444 -0.5180
  229DG     H13 5257   3.297   3.501   1.776  0.4708  0.1045  1.4571
  229DG     H14 5258   3.119   3.491   1.774 -2.6156 -0.9990  3.5704
  229DG     H15 5259   3.451   3.222   2.196 -0.1294 -1.3251  0.6563
  229DG     H16 5260   3.473   3.053   2.140  0.0414 -0.3793 -2.3103
  229DG     C17 5261   3.212   3.325   1.881 -0.2068  0.1104  0.4495
  229DG     C18 5262   3.323   3.175   2.027  0.2428  0.3825 -0.2078
  229DG     O19 5263   3.320   3.300   1.969 -0.5581 -0.0045 -0.4105
  229DG     H20 5264   3.207   3.253   1.800 -0.7066  0.2334  0.3646
  229DG     H21 5265   3.120   3.301   1.934  0.4700 -3.9776  0.0686
  229DG     H22 5266   3.315   3.101   1.948  1.9761  2.2510 -2.2439
  229DG     H23 5267   3.236   3.171   2.093  1.6259 -0.4707  1.6696
  230DG      C1 5268   2.286   4.838   0.085  0.3822  0.3553  0.5145
  230DG      C2 5269   1.839   5.022  -0.455  0.8674  0.5553 -0.7165
  230DG      H3 5270   2.320   4.739   0.056  1.9360  0.4294  1.9542
  230DG      H4 5271   2.305   4.855   0.191 -0.2076  0.6522  0.5778
  230DG      H5 5272   2.344   4.908   0.026 -1.0213  0.4811 -0.7986
  230DG      H6 5273   1.868   4.937  -0.517 -0.7261 -1.1103  0.7194
  230DG      H7 5274   1.734   5.041  -0.477  0.2661 -2.2156 -0.5975
  230DG      H8 5275   1.894   5.113  -0.479  1.8718  1.0150  2.7783
  230DG      O9 5276   2.146   4.851   0.051  0.3013 -0.2102  0.0037
  230DG     O10 5277   1.860   5.001  -0.319  0.0871  0.3842 -0.2102
  230DG     C11 5278   2.056   4.767   0.120  0.3072  0.4556  0.2599
  230DG     C12 5279   1.779   4.898  -0.267  0.4916  0.6572 -0.3243
  230DG     H13 5280   2.071   4.769   0.227 -1.5708 -1.9073  0.6529
  230DG     H14 5281   2.070   4.665   0.086 -0.9483 -0.4543  2.2890
  230DG     H15 5282   1.803   4.798  -0.305  2.4415  0.2572  1.7553
  230DG     H16 5283   1.677   4.922  -0.293  0.1274 -0.6311 -0.1906
  230DG     C17 5284   1.917   4.812   0.077  0.4378 -0.5850 -0.5777
  230DG     C18 5285   1.782   4.879  -0.110  0.6833  0.2902  0.5348
  230DG     O19 5286   1.910   4.832  -0.065  0.0213  0.3892  0.1388
  230DG     H20 5287   1.891   4.903   0.132 -0.4042 -1.7107  0.9625
  230DG     H21 5288   1.834   4.750   0.111 -0.6425  1.7642  1.3877
  230DG     H22 5289   1.763   4.967  -0.049 -0.2750 -0.7065  1.7187
  230DG     H23 5290   1.705   4.805  -0.090 -0.1243  1.2575  1.1265
  231DG      C1 5291   2.948   0.386   2.573  0.0849  0.4631  1.0505
  231DG      C2 5292   2.798  -0.495   2.434  0.8211 -0.7437  0.0129
  231DG      H3 5293   3.005   0.432   2.653 -2.5990  1.1973  2.6806
  231DG      H4 5294   2.842   0.409   2.590  0.2084  1.0074  1.0992
  231DG      H5 5295   2.966   0.425   2.473 -0.4392 -0.3824  0.6081
  231DG      H6 5296   2.796  -0.601   2.457  1.0939 -0.5717  0.8810
  231DG      H7 5297   2.702  -0.458   2.400  0.8407  0.0592  0.8005
  231DG      H8 5298   2.870  -0.486   2.352  0.4044  2.2451 -0.1314
  231DG      O9 5299   2.972   0.249   2.563  0.1167  0.4391  0.1219
  231DG     O10 5300   2.836  -0.401   2.544  0.7695  0.1682 -0.4129
  231DG     C11 5301   2.927   0.191   2.687  0.2463  0.3807 -0.0142
  231DG     C12 5302   2.830  -0.262   2.510  0.0306  0.1078 -0.4285
  231DG     H13 5303   2.825   0.222   2.709  1.1549  2.1425  2.0879
  231DG     H14 5304   2.979   0.241   2.769 -0.9299  2.0908 -0.2591
  231DG     H15 5305   2.728  -0.234   2.484  0.0979 -0.7233 -1.6326
  231DG     H16 5306   2.882  -0.235   2.418 -1.5234  2.4148 -0.7097
  231DG     C17 5307   2.960   0.040   2.703 -0.2542  0.1478  0.0120
  231DG     C18 5308   2.883  -0.180   2.630 -0.6453 -0.1312  0.3760
  231DG     O19 5309   2.884  -0.037   2.612 -0.3033  0.3611  0.2724
  231DG     H20 5310   2.947   0.001   2.804  1.4085  0.3680  0.3380
  231DG     H21 5311   3.067   0.032   2.687 -0.0788 -0.1296  1.2667
  231DG     H22 5312   2.826  -0.205   2.719 -0.3387 -0.7150  0.4149
  231DG     H23 5313   2.987  -0.206   2.652 -0.9368  0.4994  2.7752
  232DG      C1 5314   3.825   5.165   3.687  0.2165 -0.2729  0.2078
  232DG      C2 5315   4.347   4.839   3.987 -0.4049 -0.2575 -0.0776
  232DG      H3 5316   3.782   5.069   3.717 -0.2259  0.5844  2.5314
  232DG      H4 5317   3.863   5.161   3.585  1.0126 -0.0583  0.4907
  232DG      H5 5318   3.751   5.245   3.679 -0.9688 -1.4577 -1.7580
  232DG      H6 5319   4.442   4.822   4.039  1.0297  1.2794 -2.0499
  232DG      H7 5320   4.261   4.824   4.053  0.3896 -0.7592  0.8706
  232DG      H8 5321   4.331   4.764   3.910 -2.1524  0.1736 -0.1806
  232DG      O9 5322   3.920   5.195   3.790  0.4258 -0.2613 -0.3494
  232DG     O10 5323   4.331   4.969   3.936 -0.4130  0.0610  0.1345
  232DG     C11 5324   3.997   5.308   3.760 -0.4975 -0.2707  0.0502
  232DG     C12 5325   4.320   5.066   4.036  0.4119 -0.3915 -0.3405
  232DG     H13 5326   3.938   5.400   3.763 -1.3713 -0.8094 -0.3536
  232DG     H14 5327   4.057   5.301   3.669 -0.0326 -0.3862  0.3648
  232DG     H15 5328   4.407   5.067   4.101  0.1436 -4.5721  0.3194
  232DG     H16 5329   4.239   5.045   4.105 -0.3997  0.1406 -1.1029
  232DG     C17 5330   4.101   5.315   3.874 -0.0714  0.0635  0.2914
  232DG     C18 5331   4.293   5.205   3.970 -0.3658  0.7434 -0.0829
  232DG     O19 5332   4.173   5.188   3.891 -0.1437  0.0445 -0.2050
  232DG     H20 5333   4.057   5.344   3.969 -1.4267 -1.1807  0.0829
  232DG     H21 5334   4.182   5.385   3.852  2.4961 -2.0020  2.4182
  232DG     H22 5335   4.293   5.293   4.034  0.5739  0.7678 -0.0948
  232DG     H23 5336   4.379   5.218   3.904 -0.6391 -1.1144 -0.8638
  233DG      C1 5337   0.928   3.463   0.628 -0.0590  0.7659  0.4258
  233DG      C2 5338   0.451   3.805   0.474  0.8000  0.7101  0.0058
  233DG      H3 5339   0.931   3.541   0.705 -1.6233  3.2851 -1.8614
  233DG      H4 5340   1.014   3.470   0.561  0.9378 -0.7249  1.4873
  233DG      H5 5341   0.932   3.370   0.683 -0.9181 -0.3482 -1.3029
  233DG      H6 5342   0.480   3.861   0.385 -0.3351 -0.1348 -0.9249
  233DG      H7 5343   0.348   3.829   0.502  0.8648  1.5556 -0.4506
  233DG      H8 5344   0.515   3.833   0.558  2.8855  0.0104 -1.2823
  233DG      O9 5345   0.799   3.471   0.567 -0.1677 -0.1890  0.1153
  233DG     O10 5346   0.448   3.662   0.442 -0.2928  0.0718 -0.0592
  233DG     C11 5347   0.763   3.378   0.465 -0.7765  0.5947 -0.1836
  233DG     C12 5348   0.422   3.576   0.549  0.2551  0.1774 -0.6220
  233DG     H13 5349   0.774   3.271   0.486  1.6778  0.7027 -0.6570
  233DG     H14 5350   0.834   3.396   0.385 -0.2883  1.2402  0.3863
  233DG     H15 5351   0.348   3.618   0.617  1.2183  2.5018 -0.9305
  233DG     H16 5352   0.509   3.578   0.615 -0.6015  1.9983  0.5307
  233DG     C17 5353   0.618   3.402   0.419  0.4843 -0.2044 -0.6708
  233DG     C18 5354   0.409   3.427   0.516  0.4385  0.3301  0.0239
  233DG     O19 5355   0.533   3.361   0.523 -0.1570  0.4964  0.3968
  233DG     H20 5356   0.604   3.350   0.324  0.9618  0.7845 -1.3031
  233DG     H21 5357   0.615   3.508   0.395  0.3227  0.1780  0.9008
  233DG     H22 5358   0.333   3.375   0.575  0.9864 -1.9005 -1.1023
  233DG     H23 5359   0.363   3.424   0.417  0.6225  0.9380 -0.0805
  234DG      C1 5360   4.358   0.686   4.393  0.1706 -0.0189  0.0625
  234DG      C2 5361   4.162   0.901   3.772 -0.6621 -0.2240  1.0081
  234DG      H3 5362   4.253   0.659   4.397  0.3370 -0.6197  0.4061
  234DG      H4 5363   4.362   0.782   4.445  1.2767  0.8656 -1.5493
  234DG      H5 5364   4.425   0.615   4.441  2.2332  2.2161  0.7040
  234DG      H6 5365   4.067   0.926   3.819 -2.0499  3.4696 -3.0506
  234DG      H7 5366   4.230   0.968   3.827  0.8483 -0.8741 -0.0016
  234DG      H8 5367   4.171   0.946   3.673  1.2771 -0.1529  1.1674
  234DG      O9 5368   4.399   0.689   4.258 -0.1522  0.3882 -0.0878
  234DG     O10 5369   4.216   0.771   3.758 -0.4984  0.2630 -0.1767
  234DG     C11 5370   4.381   0.563   4.193  0.6005 -0.3456 -0.1732
  234DG     C12 5371   4.157   0.682   3.854  0.1177 -0.6396  0.0717
  234DG     H13 5372   4.290   0.511   4.225  0.5943  0.5148  1.3089
  234DG     H14 5373   4.458   0.497   4.235  0.2167 -0.9600 -0.4122
  234DG     H15 5374   4.171   0.578   3.825  0.7842 -0.8469  1.0716
  234DG     H16 5375   4.048   0.680   3.849  0.1471 -1.9205 -0.4242
  234DG     C17 5376   4.410   0.581   4.046  0.1470  0.4120 -0.1712
  234DG     C18 5377   4.215   0.710   3.992 -0.0910  0.1407 -0.6548
  234DG     O19 5378   4.358   0.698   3.988  0.5776  0.3169 -0.2758
  234DG     H20 5379   4.373   0.501   3.982  0.9233  0.0259 -0.1546
  234DG     H21 5380   4.518   0.588   4.032 -0.0139  2.2734 -0.8050
  234DG     H22 5381   4.187   0.813   4.016  1.1192  1.2302 -3.5039
  234DG     H23 5382   4.166   0.640   4.060 -1.2934 -1.1336 -2.7246
  235DG      C1 5383   2.182   0.614   0.868 -0.3172 -0.3384 -0.2114
  235DG      C2 5384   2.516   1.021   1.574 -0.2359  0.4075 -0.9376
  235DG      H3 5385   2.208   0.510   0.848  0.4836 -0.4704  1.3707
  235DG      H4 5386   2.197   0.683   0.785  0.3658  0.4956  0.5813
  235DG      H5 5387   2.077   0.631   0.891  0.5237  0.8362  3.3047
  235DG      H6 5388   2.436   0.987   1.640  0.2974 -0.3555 -0.6714
  235DG      H7 5389   2.589   0.944   1.549 -0.8190  0.2692 -2.3452
  235DG      H8 5390   2.560   1.095   1.641 -1.3496  1.5468 -1.4126
  235DG      O9 5391   2.254   0.652   0.984 -0.0016 -0.2842 -0.7344
  235DG     O10 5392   2.482   1.098   1.460 -0.3712 -0.6296  0.1893
  235DG     C11 5393   2.252   0.787   1.011 -0.2369 -0.4546  0.0566
  235DG     C12 5394   2.407   1.023   1.367 -0.2603  0.5765  0.4021
  235DG     H13 5395   2.151   0.810   1.046 -0.3985 -3.6357  2.1288
  235DG     H14 5396   2.265   0.857   0.928  1.0411  1.1479  1.5240
  235DG     H15 5397   2.309   1.069   1.355 -1.3824 -1.8050 -0.2490
  235DG     H16 5398   2.394   0.917   1.393 -0.0462  0.2639 -0.7112
  235DG     C17 5399   2.357   0.827   1.112 -0.9898  0.0306 -0.0901
  235DG     C18 5400   2.470   1.018   1.221  0.2996 -0.1623 -0.2837
  235DG     O19 5401   2.366   0.970   1.127  0.4148  0.5662  0.2704
  235DG     H20 5402   2.448   0.782   1.074 -1.5198  0.2005 -1.6243
  235DG     H21 5403   2.336   0.785   1.211 -0.9305  0.6089  0.1773
  235DG     H22 5404   2.507   1.118   1.197 -0.1575 -0.5490 -2.8604
  235DG     H23 5405   2.564   0.964   1.207  0.6600  0.7409 -1.5155
  236DG      C1 5406   0.489   2.315   0.672  0.4089 -0.2607 -0.2765
  236DG      C2 5407   0.471   2.424   0.146  0.0703 -0.5710  0.6053
  236DG      H3 5408   0.499   2.409   0.725  1.6322 -0.2101 -0.5601
  236DG      H4 5409   0.545   2.233   0.718 -2.3643 -2.4787 -0.5896
  236DG      H5 5410   0.388   2.278   0.690  0.8130 -0.2013  2.6941
  236DG      H6 5411   0.427   2.338   0.097  0.2521  0.2431 -1.0655
  236DG      H7 5412   0.546   2.476   0.087 -2.8310  1.5738 -1.5019
  236DG      H8 5413   0.512   2.377   0.235 -2.2269 -1.0061  1.5013
  236DG      O9 5414   0.522   2.342   0.540  0.7119  0.1107  0.3581
  236DG     O10 5415   0.375   2.523   0.191 -0.1880  0.1188  0.4852
  236DG     C11 5416   0.642   2.417   0.531 -0.1142 -0.7457 -1.0451
  236DG     C12 5417   0.433   2.648   0.210  0.2346  0.6097  0.3668
  236DG     H13 5418   0.700   2.406   0.438  0.2692 -1.2086 -0.7588
  236DG     H14 5419   0.708   2.402   0.616 -0.0330 -0.5813 -1.0799
  236DG     H15 5420   0.366   2.721   0.255 -3.9665 -1.7776 -1.3456
  236DG     H16 5421   0.454   2.699   0.116  0.6139  0.0138  0.1234
  236DG     C17 5422   0.600   2.566   0.535 -0.3021 -0.1047  0.8678
  236DG     C18 5423   0.544   2.650   0.317 -0.0813 -0.0899  0.2936
  236DG     O19 5424   0.498   2.587   0.437 -0.7216 -0.5335  0.0995
  236DG     H20 5425   0.692   2.625   0.526 -0.4308  0.1053  0.9210
  236DG     H21 5426   0.548   2.598   0.625 -2.6152  1.0014 -0.7556
  236DG     H22 5427   0.634   2.599   0.282  0.7549  1.6318 -0.1782
  236DG     H23 5428   0.575   2.752   0.340  1.6126 -0.9097  1.9401
  237DG      C1 5429   0.742   3.900   3.267  0.5233 -0.1505 -0.0767
  237DG      C2 5430   1.329   3.780   3.627 -0.6528  0.9312 -0.9115
  237DG      H3 5431   0.765   4.006   3.277 -1.0794  0.6530 -3.4251
  237DG      H4 5432   0.634   3.907   3.259  0.5941  1.4885  0.1372
  237DG      H5 5433   0.779   3.854   3.175 -0.1226 -0.1535 -0.3405
  237DG      H6 5434   1.356   3.694   3.688 -0.2825  2.4431  1.1450
  237DG      H7 5435   1.410   3.792   3.554 -0.5009  1.6830 -0.6234
  237DG      H8 5436   1.324   3.863   3.697  1.9904 -0.2699  0.9138
  237DG      O9 5437   0.782   3.823   3.377  0.0279  0.3060  0.1040
  237DG     O10 5438   1.212   3.743   3.561 -1.1536  0.2163  0.1582
  237DG     C11 5439   0.699   3.832   3.492 -0.2154 -0.0112  0.2406
  237DG     C12 5440   1.108   3.727   3.655 -0.3442  0.5479 -0.7586
  237DG     H13 5441   0.601   3.805   3.452  1.3399 -2.0221 -2.4675
  237DG     H14 5442   0.715   3.932   3.533  1.4499 -0.6738  1.3419
  237DG     H15 5443   1.102   3.818   3.715 -0.9532  0.0537 -0.0564
  237DG     H16 5444   1.123   3.645   3.725 -1.6860  0.6359 -0.3431
  237DG     C17 5445   0.729   3.730   3.599  0.2281 -0.1801 -0.6197
  237DG     C18 5446   0.971   3.709   3.579 -0.8582  0.4410 -0.8079
  237DG     O19 5447   0.855   3.751   3.658 -0.0456 -0.0226  0.0896
  237DG     H20 5448   0.723   3.628   3.560 -1.1998 -0.6903  0.8159
  237DG     H21 5449   0.647   3.747   3.669 -1.4396 -1.4988 -2.1275
  237DG     H22 5450   0.978   3.783   3.499  1.0027  2.0037  0.6898
  237DG     H23 5451   0.958   3.613   3.529  0.0804 -1.1618  1.7830
  238DG      C1 5452   0.799   4.141   3.020 -0.3552  0.2174 -0.5140
  238DG      C2 5453   1.274   4.835   3.262  0.1098 -0.2384  0.1434
  238DG      H3 5454   0.698   4.162   2.985 -1.8003  0.7945  3.4939
  238DG      H4 5455   0.803   4.039   3.058 -0.1722  0.7762  1.0438
  238DG      H5 5456   0.878   4.149   2.946 -0.4350  1.8551 -0.4623
  238DG      H6 5457   1.367   4.781   3.245  0.0273 -0.8616  1.5519
  238DG      H7 5458   1.246   4.900   3.179  1.3887 -0.0996 -0.2087
  238DG      H8 5459   1.276   4.894   3.353 -1.3484  0.4033 -0.2210
  238DG      O9 5460   0.821   4.229   3.130 -0.0478 -0.2531 -0.3104
  238DG     O10 5461   1.177   4.731   3.264  0.4308 -0.6822  0.3916
  238DG     C11 5462   0.864   4.365   3.084 -0.7215  0.5037 -0.3265
  238DG     C12 5463   1.037   4.772   3.277 -0.4065 -0.1767  0.2391
  238DG     H13 5464   0.800   4.397   3.002  0.0515  1.7075 -0.4780
  238DG     H14 5465   0.970   4.368   3.060  0.3139  0.2492  3.4566
  238DG     H15 5466   1.010   4.826   3.186  1.1578 -1.3690 -0.9833
  238DG     H16 5467   1.034   4.839   3.364  0.8605  0.1171  0.0849
  238DG     C17 5468   0.853   4.456   3.206  0.8015 -0.4628 -0.1595
  238DG     C18 5469   0.940   4.653   3.300  0.2481 -0.3161 -0.8166
  238DG     O19 5470   0.927   4.578   3.183  0.3775  0.2381 -0.0088
  238DG     H20 5471   0.887   4.403   3.295  0.4633 -1.6825 -0.7262
  238DG     H21 5472   0.751   4.491   3.221  0.7075  0.2919 -2.2206
  238DG     H22 5473   0.986   4.588   3.375 -0.8407 -0.1625  0.0095
  238DG     H23 5474   0.843   4.683   3.340  1.0304 -0.9444  1.7583
  239DG      C1 5475   3.026   3.774   0.366 -0.7526 -0.0951  0.0436
  239DG      C2 5476   3.505   4.361   0.568  0.0035  0.0704 -0.5425
  239DG      H3 5477   3.073   3.677   0.352 -1.6929 -0.4181 -1.0340
  239DG      H4 5478   2.959   3.793   0.282  0.5447 -1.1633 -1.2665
  239DG      H5 5479   2.957   3.766   0.451  1.3804 -1.0031  1.7667
  239DG      H6 5480   3.410   4.409   0.590  1.3870  3.0101 -0.5195
  239DG      H7 5481   3.550   4.331   0.663 -1.4368  1.7143  0.7329
  239DG      H8 5482   3.563   4.441   0.522 -1.2949  0.9499 -0.7022
  239DG      O9 5483   3.116   3.889   0.368  0.1642  0.1830 -0.4525
  239DG     O10 5484   3.498   4.246   0.500  0.7916  0.2873  0.0114
  239DG     C11 5485   3.044   4.009   0.372 -0.1422 -0.1832 -0.1765
  239DG     C12 5486   3.423   4.141   0.558 -0.4523 -0.3801  0.1725
  239DG     H13 5487   3.016   4.019   0.477  1.0811 -1.6015  0.3189
  239DG     H14 5488   2.951   4.016   0.315 -1.0034  0.4813  1.2329
  239DG     H15 5489   3.437   4.138   0.666 -2.2326 -1.8403  0.3980
  239DG     H16 5490   3.461   4.043   0.529 -2.0220 -1.1296  0.5296
  239DG     C17 5491   3.130   4.128   0.323 -0.3041  0.2882  0.2520
  239DG     C18 5492   3.284   4.145   0.511 -0.3714 -0.2583 -0.4055
  239DG     O19 5493   3.269   4.119   0.371  0.0816 -0.2631  0.1105
  239DG     H20 5494   3.090   4.228   0.341 -2.1901 -0.2920 -0.3657
  239DG     H21 5495   3.140   4.116   0.215 -1.4274 -1.0089  0.2621
  239DG     H22 5496   3.226   4.072   0.567 -0.3646  1.4092  1.9397
  239DG     H23 5497   3.239   4.240   0.540 -0.2487  0.4272 -2.3153
  240DG      C1 5498   4.754   2.809   2.177 -0.7870  0.0237 -0.0246
  240DG      C2 5499   4.586   3.276   2.596 -0.4438  0.0273  0.5281
  240DG      H3 5500   4.809   2.861   2.256 -0.9463 -1.2025  0.9191
  240DG      H4 5501   4.795   2.848   2.084  0.1884 -0.9431 -0.0153
  240DG      H5 5502   4.775   2.703   2.185  1.7084  0.3528 -1.2387
  240DG      H6 5503   4.629   3.270   2.696  0.2843  1.7944  0.3542
  240DG      H7 5504   4.662   3.289   2.519 -0.2819 -0.0591  0.6722
  240DG      H8 5505   4.523   3.364   2.586 -0.1689  0.1967  0.2655
  240DG      O9 5506   4.622   2.850   2.160 -0.7857 -0.2632 -0.1312
  240DG     O10 5507   4.497   3.166   2.567 -0.4058  0.1821  0.0873
  240DG     C11 5508   4.538   2.780   2.246  0.1508 -0.1371  0.1739
  240DG     C12 5509   4.465   3.155   2.437  0.2930 -0.2251  0.2808
  240DG     H13 5510   4.584   2.771   2.344 -0.4079 -1.2063  0.3562
  240DG     H14 5511   4.521   2.677   2.215 -2.1354 -0.2319  1.5614
  240DG     H15 5512   4.553   3.168   2.374  0.5056 -0.6590  0.4840
  240DG     H16 5513   4.381   3.217   2.405 -0.7630 -1.9259 -0.4042
  240DG     C17 5514   4.399   2.849   2.245 -0.4875  0.0150  0.1806
  240DG     C18 5515   4.422   3.006   2.413 -0.1253 -0.7221 -0.6293
  240DG     O19 5516   4.423   2.985   2.280  0.0512  0.5388  0.2834
  240DG     H20 5517   4.334   2.801   2.318  1.8139 -1.0184  1.6625
  240DG     H21 5518   4.350   2.841   2.147  0.9111 -0.5622 -0.4986
  240DG     H22 5519   4.493   2.938   2.460 -0.4850  0.0946  1.2058
  240DG     H23 5520   4.330   2.981   2.465  0.7291 -0.7642  0.9360
  241DG      C1 5521   1.790   2.625   5.375 -0.0557  0.0429 -0.0223
  241DG      C2 5522   1.609   1.912   5.343 -0.8731 -0.4130  0.0724
  241DG      H3 5523   1.806   2.585   5.474 -0.0902  0.8149  0.3049
  241DG      H4 5524   1.725   2.712   5.386  0.6842  0.3074  2.8412
  241DG      H5 5525   1.884   2.659   5.331 -0.9652 -0.0611 -2.2115
  241DG      H6 5526   1.575   1.844   5.422  1.4326 -1.3376  0.3385
  241DG      H7 5527   1.571   2.010   5.370 -0.5526 -0.5453  1.0621
  241DG      H8 5528   1.554   1.884   5.253 -0.2498  0.4975 -0.6044
  241DG      O9 5529   1.735   2.532   5.287 -0.1499 -0.5276  0.3423
  241DG     O10 5530   1.753   1.921   5.321  0.1478  0.2095 -0.1836
  241DG     C11 5531   1.800   2.407   5.292 -0.0623  0.1705  0.1457
  241DG     C12 5532   1.796   1.951   5.184  0.0180  0.4977 -0.0200
  241DG     H13 5533   1.773   2.353   5.383  0.6327 -0.5646 -0.0749
  241DG     H14 5534   1.908   2.411   5.303 -0.0267 -0.3459 -0.0122
  241DG     H15 5535   1.779   1.869   5.114  1.4112 -1.0010  1.3197
  241DG     H16 5536   1.905   1.939   5.183 -0.3071 -3.9281  0.5747
  241DG     C17 5537   1.748   2.307   5.186 -0.5020 -0.1567 -1.0018
  241DG     C18 5538   1.756   2.082   5.132  0.3015 -0.0606  0.4053
  241DG     O19 5539   1.803   2.186   5.223  0.2080 -0.0463  0.4815
  241DG     H20 5540   1.791   2.332   5.089  0.1168 -1.0158 -0.9638
  241DG     H21 5541   1.640   2.321   5.183 -0.7889 -0.5996  2.8446
  241DG     H22 5542   1.810   2.086   5.037 -1.7399  1.3897 -0.8087
  241DG     H23 5543   1.647   2.087   5.118  0.1136 -0.7191  1.5748
  242DG      C1 5544   4.758   3.675   1.000 -0.7011  0.4771 -1.3858
  242DG      C2 5545   5.426   3.504   1.132  0.1264  1.1975 -0.2102
  242DG      H3 5546   4.826   3.638   1.076  1.7294  1.5595 -2.9136
  242DG      H4 5547   4.689   3.591   0.994  1.0164 -1.2481  1.3902
  242DG      H5 5548   4.710   3.770   1.023 -1.4584 -0.0828 -0.5849
  242DG      H6 5549   5.511   3.563   1.098  1.4182 -0.3197  0.2813
  242DG      H7 5550   5.399   3.554   1.225 -2.2527  1.6407 -1.0591
  242DG      H8 5551   5.451   3.400   1.153 -1.9555  0.5464 -0.6540
  242DG      O9 5552   4.841   3.689   0.885 -0.3736 -0.4403 -0.3573
  242DG     O10 5553   5.327   3.514   1.027  0.4676  0.7413  0.0918
  242DG     C11 5554   4.917   3.807   0.891 -0.6738 -0.3311 -0.2817
  242DG     C12 5555   5.291   3.644   0.995  0.3103 -0.3847  0.4446
  242DG     H13 5556   4.948   3.820   0.995 -1.8027  1.2828 -0.1061
  242DG     H14 5557   4.856   3.896   0.880 -1.0367 -0.6854 -1.2506
  242DG     H15 5558   5.371   3.696   0.942 -0.8609 -1.4107 -2.5198
  242DG     H16 5559   5.273   3.697   1.089  1.3548  0.2104  0.3238
  242DG     C17 5560   5.035   3.806   0.795 -0.1697 -0.1493  0.3182
  242DG     C18 5561   5.172   3.650   0.904 -0.0909 -0.1373  0.0789
  242DG     O19 5562   5.161   3.785   0.856 -0.7389 -0.3444 -0.0295
  242DG     H20 5563   5.028   3.903   0.747 -0.6436  0.3988  1.4588
  242DG     H21 5564   5.018   3.736   0.714  1.5098 -2.0131  1.4686
  242DG     H22 5565   5.188   3.587   0.816  0.0040  1.4103 -1.0641
  242DG     H23 5566   5.079   3.618   0.951 -0.8058  1.4865 -0.1661
  243DG      C1 5567   0.819   3.083   0.718 -0.1951 -0.5491  0.0188
  243DG      C2 5568   0.179   3.178   0.907 -0.3083 -0.4759  0.7258
  243DG      H3 5569   0.846   3.174   0.772  1.4287 -1.1328  0.2244
  243DG      H4 5570   0.893   3.066   0.640 -0.6492  2.4338 -1.1827
  243DG      H5 5571   0.823   2.994   0.781  0.1773 -1.7958 -1.6949
  243DG      H6 5572   0.152   3.083   0.951  0.8332 -1.4321 -0.5401
  243DG      H7 5573   0.237   3.242   0.974 -1.6432 -1.6726  3.1453
  243DG      H8 5574   0.095   3.242   0.881 -0.3325 -0.4012  0.9900
  243DG      O9 5575   0.698   3.084   0.661 -0.7089 -0.2543 -0.4126
  243DG     O10 5576   0.270   3.150   0.801 -0.5836  0.1451 -0.2842
  243DG     C11 5577   0.668   2.972   0.578  0.6525  0.4876  0.5776
  243DG     C12 5578   0.216   3.079   0.689  0.7143 -0.0001 -0.5456
  243DG     H13 5579   0.652   2.879   0.633 -2.4252  0.6064  0.0760
  243DG     H14 5580   0.744   2.972   0.500  1.5027  5.3212  1.1273
  243DG     H15 5581   0.121   3.124   0.661  0.0027 -1.1202 -0.0176
  243DG     H16 5582   0.199   2.979   0.729  1.2497  0.3862  0.6837
  243DG     C17 5583   0.535   2.996   0.505  1.3811 -0.5692 -0.2077
  243DG     C18 5584   0.310   3.067   0.568  0.9029  0.3757  0.4541
  243DG     O19 5585   0.440   3.017   0.608 -0.1899 -0.5143 -0.0865
  243DG     H20 5586   0.503   2.916   0.439  0.6347 -0.8171  0.4419
  243DG     H21 5587   0.540   3.083   0.439 -0.9702  0.4609  0.8597
  243DG     H22 5588   0.274   2.998   0.493 -1.0853  0.3834  1.3440
  243DG     H23 5589   0.330   3.164   0.521 -0.1103  1.1692  1.5946
  244DG      C1 5590   4.045   1.098   3.457  0.3879  0.6113  0.3451
  244DG      C2 5591   3.936   1.739   3.004 -0.1122  0.0447  0.2026
  244DG      H3 5592   3.974   1.045   3.520  0.4427 -0.5713 -0.5478
  244DG      H4 5593   4.131   1.132   3.515  1.2571 -1.7323  0.5506
  244DG      H5 5594   4.073   1.033   3.375 -0.0399 -1.0191  1.4434
  244DG      H6 5595   4.016   1.791   3.057 -0.1797  0.6282 -0.2571
  244DG      H7 5596   3.972   1.702   2.908 -2.0435  0.5971 -0.7886
  244DG      H8 5597   3.866   1.820   2.984 -1.5409 -1.2837 -0.3662
  244DG      O9 5598   3.989   1.221   3.412  0.2062 -0.3504 -0.4693
  244DG     O10 5599   3.889   1.628   3.081 -0.4063 -0.4168  0.1794
  244DG     C11 5600   3.880   1.211   3.325  0.6900 -0.6272  0.4264
  244DG     C12 5601   3.828   1.680   3.195 -0.7826  0.3627 -1.0114
  244DG     H13 5602   3.822   1.122   3.349  0.5231 -0.8724 -0.8198
  244DG     H14 5603   3.915   1.201   3.222  2.8220  0.1389  1.0360
  244DG     H15 5604   3.749   1.752   3.173 -0.0705  1.9593  1.3189
  244DG     H16 5605   3.902   1.722   3.263 -1.2039 -1.6079  0.7754
  244DG     C17 5606   3.784   1.336   3.337 -0.0780  0.3668  0.3131
  244DG     C18 5607   3.759   1.562   3.275  0.5148  0.5527  0.3314
  244DG     O19 5608   3.851   1.452   3.290 -0.3975 -0.6841  0.0892
  244DG     H20 5609   3.751   1.350   3.440  1.3022  2.4550  0.5443
  244DG     H21 5610   3.698   1.312   3.275  0.0767  1.7293 -0.4788
  244DG     H22 5611   3.722   1.597   3.372 -2.4871  0.2602 -0.6059
  244DG     H23 5612   3.668   1.530   3.226  1.1875 -0.0043 -0.5744
  245DG      C1 5613   1.440   5.340   1.353 -0.0357  0.8081 -0.3921
  245DG      C2 5614   1.531   6.101   0.982 -0.0219 -0.5986  0.0371
  245DG      H3 5615   1.459   5.256   1.285  0.0323  0.8995 -0.4864
  245DG      H4 5616   1.346   5.386   1.324 -0.3065  0.0938 -0.6688
  245DG      H5 5617   1.421   5.312   1.456 -0.9734  2.4577 -0.0972
  245DG      H6 5618   1.424   6.110   1.001  0.0164  0.5010 -0.2323
  245DG      H7 5619   1.574   6.201   0.980 -0.1031 -0.5720 -0.5719
  245DG      H8 5620   1.533   6.056   0.882  0.4444 -1.0324  0.2359
  245DG      O9 5621   1.550   5.429   1.358 -0.8612 -0.2587 -0.1706
  245DG     O10 5622   1.596   6.014   1.070 -0.6169 -0.1041 -0.1216
  245DG     C11 5623   1.502   5.540   1.434 -0.5069  0.2357  0.3961
  245DG     C12 5624   1.539   5.885   1.100  0.3088 -0.8975  0.7320
  245DG     H13 5625   1.523   5.528   1.540 -0.4315 -0.7762  0.2790
  245DG     H14 5626   1.395   5.563   1.430 -0.1497  1.9005 -0.5750
  245DG     H15 5627   1.557   5.818   1.017 -0.7263 -1.1717  0.7123
  245DG     H16 5628   1.438   5.893   1.140  0.2642 -0.7340  0.5853
  245DG     C17 5629   1.598   5.653   1.387  0.2037 -0.8669  0.1033
  245DG     C18 5630   1.616   5.830   1.221  0.5639  0.3504 -0.4439
  245DG     O19 5631   1.543   5.712   1.268 -0.0216  0.3122  0.3251
  245DG     H20 5632   1.700   5.623   1.364  0.0344 -0.9544 -0.5552
  245DG     H21 5633   1.598   5.732   1.463  0.5165  0.4363 -1.2131
  245DG     H22 5634   1.716   5.803   1.186 -0.1171  0.6474 -2.8043
  245DG     H23 5635   1.620   5.911   1.294 -1.7872 -1.0333  1.3488
  246DG      C1 5636   0.067   0.098   5.450  0.4748  0.5068  0.2305
  246DG      C2 5637   0.654   0.216   5.677  0.3107  0.7224 -0.1575
  246DG      H3 5638  -0.019   0.053   5.401 -0.2405  3.6064 -1.6414
  246DG      H4 5639   0.099   0.163   5.368  1.3429 -1.3477 -0.9818
  246DG      H5 5640   0.032   0.153   5.537 -1.2543  0.1529 -0.2084
  246DG      H6 5641   0.762   0.204   5.687  0.1355 -0.8687  0.1556
  246DG      H7 5642   0.641   0.281   5.591 -2.6880  0.1389 -0.2435
  246DG      H8 5643   0.608   0.269   5.761 -1.4125 -0.3696 -0.3724
  246DG      O9 5644   0.165   0.003   5.489 -0.1806  0.3508  0.0203
  246DG     O10 5645   0.588   0.094   5.658  0.5612 -0.0870 -0.7012
  246DG     C11 5646   0.217  -0.068   5.380  0.0502 -0.1296 -0.4364
  246DG     C12 5647   0.648   0.017   5.554  0.2647 -0.4532 -0.0138
  246DG     H13 5648   0.238  -0.003   5.295  0.5104 -0.5015 -0.6096
  246DG     H14 5649   0.148  -0.146   5.348  0.7258 -0.6992 -0.5346
  246DG     H15 5650   0.750  -0.016   5.576  0.3212 -0.0094  0.4231
  246DG     H16 5651   0.658   0.086   5.471 -1.0853  0.8664  0.8781
  246DG     C17 5652   0.343  -0.139   5.428  0.4132 -0.0909  0.6777
  246DG     C18 5653   0.556  -0.096   5.510 -0.6725 -0.6318 -0.2416
  246DG     O19 5654   0.425  -0.046   5.484 -0.7686 -0.1229  0.2809
  246DG     H20 5655   0.395  -0.184   5.344  0.8015 -0.4838  1.1193
  246DG     H21 5656   0.313  -0.223   5.490  0.5465 -1.4549 -1.0396
  246DG     H22 5657   0.592  -0.153   5.424  2.3670 -1.6008  1.5569
  246DG     H23 5658   0.553  -0.169   5.590 -4.0560 -4.6265 -3.4917
  247DG      C1 5659   2.503   4.825   2.316 -0.2137  0.4287  0.0776
  247DG      C2 5660   2.319   4.303   2.878 -0.0102 -0.0762 -0.2481
  247DG      H3 5661   2.475   4.916   2.371 -0.3660  0.3667  0.1015
  247DG      H4 5662   2.429   4.790   2.244 -0.5073  0.2020  0.4860
  247DG      H5 5663   2.594   4.843   2.259  0.6258 -0.9665  0.9309
  247DG      H6 5664   2.383   4.364   2.941  0.4270  0.5114 -1.2298
  247DG      H7 5665   2.213   4.307   2.904 -0.6789  0.9803 -2.7884
  247DG      H8 5666   2.357   4.205   2.906  1.7547  1.1845  2.0414
  247DG      O9 5667   2.520   4.724   2.416  0.1406 -0.3940  0.5511
  247DG     O10 5668   2.333   4.318   2.740 -0.1990 -0.6780  0.6110
  247DG     C11 5669   2.528   4.598   2.351  0.1670 -0.7163 -0.3943
  247DG     C12 5670   2.284   4.445   2.686  0.5979 -0.6521 -0.2468
  247DG     H13 5671   2.614   4.610   2.285 -0.1394 -0.0228 -0.6787
  247DG     H14 5672   2.443   4.560   2.294 -0.2215  1.3169 -1.2660
  247DG     H15 5673   2.218   4.503   2.750  1.3127 -0.9513  0.7931
  247DG     H16 5674   2.219   4.408   2.607 -0.1914 -1.9052  0.9334
  247DG     C17 5675   2.581   4.513   2.463  0.3045 -0.0844  0.5969
  247DG     C18 5676   2.406   4.532   2.634  1.0612  0.9426 -0.1104
  247DG     O19 5677   2.475   4.452   2.547  0.1403 -0.0326 -0.3907
  247DG     H20 5678   2.647   4.572   2.527  1.6738  0.7291 -1.4883
  247DG     H21 5679   2.630   4.431   2.412  0.0874  0.5367 -0.6469
  247DG     H22 5680   2.364   4.625   2.594 -3.5594 -1.4124 -1.4662
  247DG     H23 5681   2.481   4.548   2.712  0.9064  0.2926  0.1766
  248DG      C1 5682   1.796   4.419   3.980  0.1451  0.3535  0.3930
  248DG      C2 5683   1.445   3.787   4.043  0.0911  1.2959 -0.2262
  248DG      H3 5684   1.752   4.519   3.969 -0.1366  0.4304  1.9576
  248DG      H4 5685   1.811   4.386   3.877  2.0144  0.5592  0.5534
  248DG      H5 5686   1.897   4.433   4.021  0.5861 -0.2181 -0.4703
  248DG      H6 5687   1.377   3.738   4.112  0.1968  2.8127  1.0202
  248DG      H7 5688   1.440   3.734   3.947  1.4559 -0.9823  0.8795
  248DG      H8 5689   1.544   3.766   4.085 -0.3966  1.2531  0.9354
  248DG      O9 5690   1.720   4.318   4.047  0.3747  0.3894  0.0632
  248DG     O10 5691   1.406   3.918   4.034  0.5916  0.4139  0.0744
  248DG     C11 5692   1.802   4.214   4.077  0.2334  0.7405  0.1075
  248DG     C12 5693   1.396   3.981   4.160 -0.1515  1.0615  0.4532
  248DG     H13 5694   1.852   4.240   4.170  0.4611  3.6331 -0.7280
  248DG     H14 5695   1.882   4.184   4.010  0.6378  0.1733  0.8392
  248DG     H15 5696   1.334   3.917   4.223  0.2784  1.2190  1.0511
  248DG     H16 5697   1.339   4.073   4.144  0.5537  1.1959 -1.4990
  248DG     C17 5698   1.696   4.090   4.089  0.1502  0.2158  0.1617
  248DG     C18 5699   1.527   4.018   4.234 -0.5791  0.5380 -0.0948
  248DG     O19 5700   1.590   4.134   4.178 -0.1996  0.1750 -0.4528
  248DG     H20 5701   1.752   4.009   4.135  1.6651  2.5003  2.7045
  248DG     H21 5702   1.660   4.057   3.992 -1.0827  5.4784 -1.4950
  248DG     H22 5703   1.507   4.052   4.335  0.2763 -0.4522  0.4311
  248DG     H23 5704   1.590   3.929   4.246 -0.4232  0.4077 -1.6407
  249DG      C1 5705   4.305   1.471   3.981  0.6387  0.0041 -0.4839
  249DG      C2 5706   5.127   1.479   3.890 -0.0524  0.3479 -0.4377
  249DG      H3 5707   4.300   1.432   4.082 -2.2797 -0.6872 -0.7894
  249DG      H4 5708   4.220   1.424   3.931  0.8352 -0.6383 -0.2260
  249DG      H5 5709   4.282   1.577   3.986 -0.3358 -0.2436  1.1116
  249DG      H6 5710   5.168   1.526   3.980 -0.9976 -2.7374  1.7600
  249DG      H7 5711   5.130   1.372   3.912  1.4698  0.4404 -0.0588
  249DG      H8 5712   5.196   1.496   3.807  2.2679 -1.3665  1.0091
  249DG      O9 5713   4.423   1.463   3.903 -0.2963 -0.3924  0.1686
  249DG     O10 5714   4.999   1.530   3.854 -0.0337  0.3593  0.4394
  249DG     C11 5715   4.499   1.347   3.901  0.0129 -0.0719 -0.4353
  249DG     C12 5716   4.911   1.541   3.969  0.0048  0.3820  0.6790
  249DG     H13 5717   4.445   1.277   3.837  2.5190 -2.5013 -0.0991
  249DG     H14 5718   4.515   1.302   3.999 -1.8106 -0.1957 -0.1756
  249DG     H15 5719   4.908   1.643   4.009  1.1853  0.9795 -0.6758
  249DG     H16 5720   4.945   1.466   4.040  0.6621 -1.2495 -1.2737
  249DG     C17 5721   4.631   1.361   3.813  0.4325 -0.0267 -0.7001
  249DG     C18 5722   4.768   1.514   3.928 -0.3221  0.8018 -0.5906
  249DG     O19 5723   4.746   1.381   3.888 -0.7264 -0.1690 -0.1183
  249DG     H20 5724   4.616   1.421   3.724  0.1081  0.4109 -0.3516
  249DG     H21 5725   4.658   1.265   3.768  1.0519 -0.4246  0.4639
  249DG     H22 5726   4.695   1.551   4.001 -0.8928 -2.7747  0.8617
  249DG     H23 5727   4.744   1.576   3.842 -2.0589  1.4425  0.3104
  250DG      C1 5728   0.641   2.015   4.737 -0.1629  0.0636  0.0769
  250DG      C2 5729   0.289   1.435   4.713 -0.7907 -0.5274 -0.4611
  250DG      H3 5730   0.733   2.046   4.787 -1.9499  1.7601  2.5427
  250DG      H4 5731   0.586   2.108   4.721 -0.8247 -0.6202 -1.8046
  250DG      H5 5732   0.672   1.987   4.636 -0.5608 -0.9821  0.2324
  250DG      H6 5733   0.207   1.495   4.673 -2.8489 -1.6671  1.7578
  250DG      H7 5734   0.362   1.423   4.633 -1.3178 -2.4365 -0.7086
  250DG      H8 5735   0.258   1.334   4.740 -0.6969 -0.3148  0.4552
  250DG      O9 5736   0.559   1.922   4.803 -0.4159 -0.1140  0.2560
  250DG     O10 5737   0.363   1.506   4.813 -0.1576 -0.5003 -0.4105
  250DG     C11 5738   0.505   1.976   4.919  1.4386 -0.3312 -0.4504
  250DG     C12 5739   0.289   1.544   4.925 -0.1416 -0.7269 -0.3784
  250DG     H13 5740   0.413   2.029   4.897  2.4550  0.5847 -2.7560
  250DG     H14 5741   0.565   2.051   4.969 -1.1157  2.9008 -1.8959
  250DG     H15 5742   0.260   1.448   4.969  2.0134 -1.0520  0.4702
  250DG     H16 5743   0.197   1.595   4.899 -0.7709 -1.7066 -0.1153
  250DG     C17 5744   0.475   1.854   5.013  0.1907  0.3042  0.2686
  250DG     C18 5745   0.378   1.634   5.018 -0.5217 -0.0241 -0.5561
  250DG     O19 5746   0.415   1.752   4.940 -0.2729  0.7399 -0.4593
  250DG     H20 5747   0.411   1.888   5.094  0.9601 -0.3161  1.1519
  250DG     H21 5748   0.566   1.816   5.059  0.1814 -1.1784 -0.8498
  250DG     H22 5749   0.314   1.665   5.101  0.7327 -1.5388  1.0530
  250DG     H23 5750   0.458   1.577   5.064 -0.1775  0.4228 -0.5882
  251DG      C1 5751   4.277   4.713   2.538 -0.4169  0.3905  1.0059
  251DG      C2 5752   4.282   4.113   2.741 -0.3234 -0.2774  0.0386
  251DG      H3 5753   4.296   4.642   2.458  0.4430  0.8506  0.7886
  251DG      H4 5754   4.317   4.806   2.497  2.3012 -1.0911  0.0046
  251DG      H5 5755   4.173   4.731   2.564 -0.8557 -0.8301  0.1509
  251DG      H6 5756   4.251   4.046   2.661  0.1999  1.3250 -1.5569
  251DG      H7 5757   4.346   4.054   2.807  1.4855  3.3362  1.8306
  251DG      H8 5758   4.197   4.133   2.806  0.3492  0.6636  0.6540
  251DG      O9 5759   4.339   4.668   2.665  0.6232  0.3407 -0.3122
  251DG     O10 5760   4.351   4.227   2.706 -0.4239 -0.2240  0.0941
  251DG     C11 5761   4.476   4.671   2.667 -0.6530 -0.3765 -0.3813
  251DG     C12 5762   4.468   4.202   2.624  0.5299 -0.4688 -0.0224
  251DG     H13 5763   4.513   4.691   2.767 -3.8135  0.3807  0.7535
  251DG     H14 5764   4.514   4.764   2.624 -0.4794 -0.1874  0.1717
  251DG     H15 5765   4.428   4.126   2.558  0.3952 -1.2056  0.8843
  251DG     H16 5766   4.539   4.156   2.692  0.0636  1.2663  1.7453
  251DG     C17 5767   4.544   4.555   2.604  1.0489 -0.5875  0.0413
  251DG     C18 5768   4.525   4.326   2.565  0.0731 -0.5329 -0.1280
  251DG     O19 5769   4.503   4.429   2.659  0.1339 -0.1885  0.5489
  251DG     H20 5770   4.653   4.565   2.604  0.9449  1.7229 -2.1176
  251DG     H21 5771   4.504   4.569   2.503 -0.9717  1.8641  1.0789
  251DG     H22 5772   4.628   4.313   2.531 -0.7047 -1.9823 -2.1357
  251DG     H23 5773   4.455   4.338   2.482  0.5134 -0.4853 -0.4925
  252DG      C1 5774   3.927   2.654   5.463  0.2033  0.0325  0.0501
  252DG      C2 5775   4.508   3.008   5.064 -0.9136  0.1083 -0.7470
  252DG      H3 5776   3.894   2.757   5.460  0.7209  0.1661 -1.4724
  252DG      H4 5777   3.943   2.635   5.570  2.3454  3.5538  0.5091
  252DG      H5 5778   3.844   2.588   5.436 -1.0826  1.3027  0.7607
  252DG      H6 5779   4.533   3.110   5.091  2.0396  0.0261 -2.7006
  252DG      H7 5780   4.539   2.940   5.144 -0.2965  0.4186 -0.7188
  252DG      H8 5781   4.578   2.981   4.985  2.9335  0.1544  2.3075
  252DG      O9 5782   4.039   2.637   5.379  0.2749 -0.4454  0.2193
  252DG     O10 5783   4.370   2.996   5.032  0.2246  0.4919 -0.0569
  252DG     C11 5784   4.152   2.714   5.422  0.3148  0.2852  0.9964
  252DG     C12 5785   4.338   2.864   4.990  0.3084 -0.4293  0.7241
  252DG     H13 5786   4.178   2.699   5.527 -0.0419  1.6322  1.3090
  252DG     H14 5787   4.122   2.819   5.419 -1.9217 -0.2802 -2.7395
  252DG     H15 5788   4.401   2.846   4.902  0.0940  0.1740  0.4473
  252DG     H16 5789   4.240   2.877   4.945 -0.9764 -2.2346  2.7770
  252DG     C17 5790   4.264   2.704   5.316  0.5559 -0.1487 -0.2042
  252DG     C18 5791   4.329   2.758   5.096 -0.4556 -0.0928 -0.4494
  252DG     O19 5792   4.254   2.800   5.213 -0.7687  0.2486  0.1056
  252DG     H20 5793   4.266   2.598   5.293 -1.0607 -0.9578  2.9310
  252DG     H21 5794   4.357   2.734   5.364  0.8085  0.7041 -1.1846
  252DG     H22 5795   4.279   2.672   5.052  0.5100  0.0217 -1.8418
  252DG     H23 5796   4.427   2.729   5.134 -0.1015  0.9408 -0.5356
  253DG      C1 5797   0.625   4.122   1.590 -0.0481 -1.0763  0.9159
  253DG      C2 5798   0.185   3.526   1.381  0.9051  0.0468  0.0375
  253DG      H3 5799   0.729   4.090   1.599 -0.3246 -2.7780 -1.1667
  253DG      H4 5800   0.569   4.085   1.675 -0.4518  0.4487  1.3436
  253DG      H5 5801   0.615   4.231   1.597 -1.3313 -1.1699  0.7997
  253DG      H6 5802   0.122   3.516   1.469 -1.7518  1.1596 -1.5984
  253DG      H7 5803   0.131   3.474   1.302  0.6053  1.1939 -0.5385
  253DG      H8 5804   0.280   3.473   1.379  0.3235 -1.0558 -2.2572
  253DG      O9 5805   0.564   4.066   1.474 -0.1318 -0.3541 -0.8000
  253DG     O10 5806   0.222   3.661   1.359 -0.0918 -0.0530  0.2496
  253DG     C11 5807   0.426   4.093   1.466 -0.2342 -0.0553  0.5251
  253DG     C12 5808   0.294   3.686   1.244 -0.6674  0.4562 -0.0491
  253DG     H13 5809   0.400   4.199   1.469  1.1382  0.3213 -0.0732
  253DG     H14 5810   0.368   4.046   1.545 -2.0891 -4.0318 -2.7561
  253DG     H15 5811   0.246   3.649   1.153  1.5431 -2.8182 -0.0472
  253DG     H16 5812   0.391   3.640   1.264 -0.9824 -0.3889 -0.4129
  253DG     C17 5813   0.373   4.034   1.330  0.1759  0.0786 -1.0628
  253DG     C18 5814   0.317   3.832   1.228 -0.3005  0.0184  0.0837
  253DG     O19 5815   0.367   3.892   1.348  0.2167  0.1699 -0.8167
  253DG     H20 5816   0.447   4.059   1.253  1.2016 -1.4117 -0.6130
  253DG     H21 5817   0.278   4.077   1.300 -0.7383 -1.9065 -1.1451
  253DG     H22 5818   0.382   3.842   1.141 -0.5328  0.7114 -0.0201
  253DG     H23 5819   0.218   3.866   1.198 -0.4295 -0.8757 -0.5360
  254DG      C1 5820   2.292   0.208   1.979 -0.4104 -0.5835 -0.0181
  254DG      C2 5821   2.657   0.706   1.401  0.1216  0.4464 -0.0921
  254DG      H3 5822   2.199   0.184   2.030 -0.6697 -1.1376 -0.7361
  254DG      H4 5823   2.342   0.286   2.037 -0.4492  0.6593 -1.6002
  254DG      H5 5824   2.353   0.118   1.990 -1.0861 -1.0370  0.0629
  254DG      H6 5825   2.693   0.772   1.480  0.9362  1.8277 -1.5534
  254DG      H7 5826   2.722   0.620   1.405 -0.0417  0.1741 -2.0016
  254DG      H8 5827   2.663   0.751   1.302  0.2005  0.7379  0.0434
  254DG      O9 5828   2.287   0.241   1.839  0.0672 -0.5033 -0.5309
  254DG     O10 5829   2.517   0.674   1.414  0.0201  0.3164  0.1453
  254DG     C11 5830   2.202   0.352   1.804  0.1634 -0.1661 -0.3955
  254DG     C12 5831   2.483   0.602   1.535 -0.0986 -0.0356 -0.1661
  254DG     H13 5832   2.207   0.440   1.869 -3.6362 -0.3003  0.3356
  254DG     H14 5833   2.097   0.324   1.811 -0.3188  1.3000 -1.2407
  254DG     H15 5834   2.461   0.673   1.614  1.3161 -0.7221  0.8832
  254DG     H16 5835   2.566   0.541   1.571 -0.5705 -0.0768  0.8841
  254DG     C17 5836   2.211   0.392   1.657 -0.0758  1.0027 -0.4247
  254DG     C18 5837   2.363   0.505   1.514  0.8098 -0.5583 -0.5830
  254DG     O19 5838   2.347   0.442   1.640  0.2475  0.0141  0.1702
  254DG     H20 5839   2.133   0.465   1.633 -0.9001  0.1306 -0.4923
  254DG     H21 5840   2.186   0.311   1.588  1.0603 -0.1158  0.4176
  254DG     H22 5841   2.279   0.572   1.496  1.7605  0.8158 -0.0243
  254DG     H23 5842   2.370   0.432   1.433  0.4346 -0.4947 -0.6759
  255DG      C1 5843   0.673   1.387   5.265  0.7567  0.3170  0.3275
  255DG      C2 5844   0.475   1.083   5.791 -0.1182 -0.0443  0.6596
  255DG      H3 5845   0.589   1.402   5.334  0.2014 -2.5872  0.4242
  255DG      H4 5846   0.659   1.432   5.167 -1.2939  0.4525  0.6296
  255DG      H5 5847   0.769   1.425   5.298  0.8493 -0.9578  1.6713
  255DG      H6 5848   0.557   1.112   5.857  0.8035 -0.5545 -0.2301
  255DG      H7 5849   0.387   1.147   5.797 -0.6381 -0.5755 -0.8150
  255DG      H8 5850   0.447   0.984   5.828  2.2472 -1.1072 -0.2199
  255DG      O9 5851   0.713   1.250   5.272  0.1039  0.3342  0.5472
  255DG     O10 5852   0.522   1.078   5.651 -0.9798 -0.0206 -0.2129
  255DG     C11 5853   0.628   1.155   5.219 -0.3331 -0.3647 -0.0012
  255DG     C12 5854   0.634   0.996   5.638 -0.9124 -0.1422  0.0070
  255DG     H13 5855   0.635   1.165   5.110 -2.2119  1.4042 -0.0106
  255DG     H14 5856   0.525   1.171   5.251 -0.1154 -0.9086  1.0179
  255DG     H15 5857   0.612   0.889   5.642  2.3491 -0.9499 -0.7690
  255DG     H16 5858   0.698   1.015   5.725 -2.0029  1.9434  0.4344
  255DG     C17 5859   0.671   1.013   5.272  0.1075  0.1932  0.4041
  255DG     C18 5860   0.704   1.030   5.498  0.0885  0.3940 -0.4402
  255DG     O19 5861   0.615   0.991   5.402 -0.4393  0.5611 -0.2134
  255DG     H20 5862   0.779   0.996   5.264 -0.0057  0.2938 -4.8946
  255DG     H21 5863   0.641   0.937   5.200  1.4715  1.1077 -1.1975
  255DG     H22 5864   0.724   1.137   5.488  0.1476  0.4291  0.0401
  255DG     H23 5865   0.800   0.980   5.482 -0.4018 -0.6555 -0.2104
  256DG      C1 5866   2.896   3.895   3.324  0.1901  0.0847 -0.6639
  256DG      C2 5867   2.812   3.742   2.627  0.1002 -0.0002  0.4777
  256DG      H3 5868   2.866   3.838   3.412  1.6754  0.7474  0.3096
  256DG      H4 5869   2.806   3.922   3.268 -0.5003 -0.0601  0.3450
  256DG      H5 5870   2.927   3.994   3.360 -1.8452  0.2774  0.7401
  256DG      H6 5871   2.796   3.835   2.573 -1.4816  0.5565  1.8339
  256DG      H7 5872   2.823   3.657   2.559 -0.5037 -0.6165  1.1355
  256DG      H8 5873   2.728   3.740   2.696 -0.7880  3.0697 -0.3730
  256DG      O9 5874   2.997   3.830   3.247  0.0440 -0.4701  0.6650
  256DG     O10 5875   2.934   3.753   2.693 -0.4553 -0.1958 -0.3100
  256DG     C11 5876   3.047   3.917   3.143  1.1448  0.3116 -0.6841
  256DG     C12 5877   2.990   3.636   2.750 -0.1098  0.0602  0.3924
  256DG     H13 5878   3.122   3.984   3.186 -0.0651  1.4156 -0.1925
  256DG     H14 5879   2.967   3.976   3.098 -0.7462 -1.5014  0.1635
  256DG     H15 5880   3.044   3.582   2.673 -0.9289  1.3262 -1.1574
  256DG     H16 5881   2.910   3.572   2.786 -1.0821  0.0162 -1.6510
  256DG     C17 5882   3.119   3.828   3.036  0.3716  0.2690 -0.5330
  256DG     C18 5883   3.086   3.660   2.863  0.0373 -0.3046  0.4600
  256DG     O19 5884   3.024   3.750   2.961  0.2796 -0.5738  0.1098
  256DG     H20 5885   3.198   3.775   3.089  0.8228  2.1074  0.7363
  256DG     H21 5886   3.164   3.893   2.961 -1.3714  1.9309 -0.2331
  256DG     H22 5887   3.128   3.573   2.913 -0.1997 -0.9178 -0.3872
  256DG     H23 5888   3.166   3.715   2.813  0.7150 -1.2189  0.5160
  257DG      C1 5889   1.068   0.835   3.658  0.2125  0.0264 -0.0594
  257DG      C2 5890   1.477   0.380   3.217  0.0294 -0.4512  0.3498
  257DG      H3 5891   0.988   0.908   3.654  0.7027  0.5128 -2.1064
  257DG      H4 5892   1.167   0.881   3.667  0.2577 -0.1299  0.2554
  257DG      H5 5893   1.057   0.768   3.744  2.3486 -1.0283 -0.5096
  257DG      H6 5894   1.566   0.420   3.168  0.4296 -1.3857  0.2943
  257DG      H7 5895   1.490   0.307   3.296 -1.2499 -0.3869  0.6397
  257DG      H8 5896   1.434   0.326   3.132  0.9172 -1.1970  0.3668
  257DG      O9 5897   1.066   0.745   3.547  0.4323 -0.1938 -0.4705
  257DG     O10 5898   1.400   0.480   3.272  0.0068 -0.5003 -0.4622
  257DG     C11 5899   1.101   0.820   3.430 -0.4514  0.2240  0.3312
  257DG     C12 5900   1.277   0.434   3.329 -0.6447 -0.2330  0.8187
  257DG     H13 5901   1.209   0.831   3.428  0.0218 -3.2825 -0.9889
  257DG     H14 5902   1.038   0.909   3.425 -4.7120 -2.5374 -0.9874
  257DG     H15 5903   1.295   0.365   3.412  1.3477 -0.6344  0.0884
  257DG     H16 5904   1.225   0.385   3.247  0.0054  0.7574 -0.1958
  257DG     C17 5905   1.056   0.741   3.306  0.0935  0.7600 -0.5538
  257DG     C18 5906   1.180   0.544   3.374  0.5447  0.3366 -1.1127
  257DG     O19 5907   1.154   0.640   3.271  0.0734  0.0360  0.2235
  257DG     H20 5908   1.053   0.806   3.219  1.9840 -1.1626 -2.1759
  257DG     H21 5909   0.956   0.698   3.318 -0.5950  1.1330 -4.0291
  257DG     H22 5910   1.087   0.499   3.408  0.7974 -0.2986 -1.2496
  257DG     H23 5911   1.231   0.592   3.458 -1.3416  2.7494 -1.2170
  258DG      C1 5912   4.370   0.472   3.559 -0.2044  0.3877 -0.1464
  258DG      C2 5913   4.725   0.976   3.187 -0.0810  0.2694  0.5615
  258DG      H3 5914   4.406   0.376   3.523 -1.1405 -0.4768  1.1014
  258DG      H4 5915   4.284   0.499   3.497 -0.8147 -0.2944  0.3767
  258DG      H5 5916   4.325   0.459   3.658 -0.6047 -2.9877 -0.6503
  258DG      H6 5917   4.774   0.908   3.117 -2.0339 -1.7704  1.0894
  258DG      H7 5918   4.629   1.002   3.143 -0.8657 -2.9597  0.1028
  258DG      H8 5919   4.785   1.067   3.195 -0.2725  0.8094 -2.7177
  258DG      O9 5920   4.483   0.558   3.568  0.1904 -0.6302 -0.3452
  258DG     O10 5921   4.705   0.925   3.314 -0.0023  0.4223  0.0441
  258DG     C11 5922   4.469   0.676   3.646 -0.7031  0.5157  0.0482
  258DG     C12 5923   4.813   0.856   3.369  0.2114  0.1562  0.4490
  258DG     H13 5924   4.450   0.640   3.748  2.7408 -2.4359 -0.1583
  258DG     H14 5925   4.395   0.740   3.598 -1.5441 -0.0908  0.4990
  258DG     H15 5926   4.904   0.915   3.368  1.0304 -1.0750  0.2832
  258DG     H16 5927   4.827   0.763   3.314 -3.3278 -0.4818  0.3804
  258DG     C17 5928   4.600   0.751   3.647 -0.2445 -0.2006  0.5110
  258DG     C18 5929   4.779   0.839   3.521 -0.1125  0.9565 -0.6947
  258DG     O19 5930   4.652   0.767   3.516  0.0222 -0.3741 -0.1762
  258DG     H20 5931   4.680   0.700   3.701  2.0706  3.5391  1.0386
  258DG     H21 5932   4.591   0.852   3.688 -3.2412 -0.1269 -0.1084
  258DG     H22 5933   4.856   0.780   3.569 -1.7822 -0.1199  0.7550
  258DG     H23 5934   4.783   0.940   3.563  0.1269  0.1678  1.2564
  259DG      C1 5935   5.064   0.620   0.341 -0.3699 -0.1106 -0.1549
  259DG      C2 5936   5.072   1.567   0.411  0.0722  0.1522  0.4585
  259DG      H3 5937   5.024   0.529   0.296 -1.3255 -1.2504  2.8170
  259DG      H4 5938   5.029   0.637   0.443 -2.6220  0.1672 -0.9082
  259DG      H5 5939   5.172   0.608   0.335  0.0249  2.2167  1.0901
  259DG      H6 5940   5.025   1.661   0.384 -3.1052 -1.3488  0.3599
  259DG      H7 5941   5.036   1.542   0.511 -0.6942  2.4198  0.8164
  259DG      H8 5942   5.181   1.567   0.405  0.0493 -1.1482 -0.3729
  259DG      O9 5943   5.024   0.737   0.269  0.4763  0.0198  0.0146
  259DG     O10 5944   5.023   1.456   0.322  0.3758 -0.3366 -0.4118
  259DG     C11 5945   5.060   0.864   0.322 -0.5416 -0.1722 -1.3376
  259DG     C12 5946   5.044   1.326   0.381  0.0465  0.1119 -0.0223
  259DG     H13 5947   5.168   0.877   0.317 -0.0746 -2.6511  0.5380
  259DG     H14 5948   5.041   0.871   0.429 -1.2354  0.1898 -1.4746
  259DG     H15 5949   5.010   1.327   0.484  2.4529 -0.5339  0.8536
  259DG     H16 5950   5.151   1.308   0.391 -0.2818 -1.8636  0.3361
  259DG     C17 5951   4.986   0.982   0.260  0.1175  0.8114 -0.1153
  259DG     C18 5952   4.972   1.220   0.298  0.3272  0.0920 -0.0049
  259DG     O19 5953   5.022   1.095   0.339  0.3249 -0.2766 -0.5739
  259DG     H20 5954   4.879   0.969   0.270  0.2358  1.0909  2.2229
  259DG     H21 5955   5.018   0.988   0.156 -0.5424 -3.2659 -0.7134
  259DG     H22 5956   4.864   1.213   0.310  0.5568 -2.1163  1.4538
  259DG     H23 5957   4.985   1.238   0.191 -2.1864  0.9255 -0.2335
  260DG      C1 5958   2.520   2.478   4.996  0.1746 -0.4809  0.0634
  260DG      C2 5959   2.809   2.826   4.406 -0.1201 -0.3169 -0.0981
  260DG      H3 5960   2.504   2.502   5.101 -1.6471 -0.3803 -0.2088
  260DG      H4 5961   2.461   2.389   4.976  0.7304 -1.3181  1.9439
  260DG      H5 5962   2.476   2.556   4.934  2.0016  0.8227  0.3116
  260DG      H6 5963   2.700   2.820   4.407 -0.1050 -0.5272  0.4557
  260DG      H7 5964   2.836   2.926   4.373 -3.2681  0.1396 -1.6553
  260DG      H8 5965   2.840   2.762   4.323  1.7964 -0.3283  0.5828
  260DG      O9 5966   2.657   2.462   4.976 -0.0836  0.3650  0.1559
  260DG     O10 5967   2.863   2.782   4.534  0.0749  0.2233 -0.3991
  260DG     C11 5968   2.732   2.572   5.018  0.3539 -0.2486 -0.6773
  260DG     C12 5969   2.830   2.649   4.556  0.6983 -0.4191 -0.5349
  260DG     H13 5970   2.762   2.534   5.116 -2.4028 -1.1451 -0.1157
  260DG     H14 5971   2.679   2.667   5.020  2.6769  1.1318  1.3824
  260DG     H15 5972   2.873   2.588   4.477  0.1076  0.9908 -1.9809
  260DG     H16 5973   2.722   2.637   4.553  0.6977 -0.3481 -0.7790
  260DG     C17 5974   2.846   2.576   4.912 -0.1710  0.6485 -0.0956
  260DG     C18 5975   2.884   2.604   4.694  0.3290 -0.2181  0.0493
  260DG     O19 5976   2.798   2.632   4.796 -0.7301  0.0918  0.3590
  260DG     H20 5977   2.884   2.474   4.905 -2.3256 -0.1934 -0.0883
  260DG     H21 5978   2.928   2.643   4.941  0.6103  0.4476 -1.7502
  260DG     H22 5979   2.899   2.496   4.685  0.5448 -0.2106  0.3066
  260DG     H23 5980   2.982   2.646   4.714  0.2505 -0.2146  0.4458
  261DG      C1 5981   1.699   1.292   4.159  1.0948 -0.5227 -0.3502
  261DG      C2 5982   1.455   0.853   3.532  0.5577 -0.3097  0.1022
  261DG      H3 5983   1.628   1.374   4.146  0.4557 -1.0776 -0.3732
  261DG      H4 5984   1.796   1.315   4.203  0.7926 -0.4768  0.3014
  261DG      H5 5985   1.645   1.234   4.233 -0.6697  0.5513 -0.7259
  261DG      H6 5986   1.507   0.792   3.458  0.3771 -1.6094  1.0043
  261DG      H7 5987   1.397   0.783   3.592 -0.4205 -0.3587 -0.8861
  261DG      H8 5988   1.384   0.908   3.471  0.9114  0.3166  0.2410
  261DG      O9 5989   1.712   1.213   4.042  0.1885  0.6999 -0.3509
  261DG     O10 5990   1.533   0.937   3.615 -0.0673 -0.0989  0.0687
  261DG     C11 5991   1.781   1.266   3.930 -0.1360 -0.5169  0.7658
  261DG     C12 5992   1.622   0.870   3.709  0.8147  0.5979 -0.6878
  261DG     H13 5993   1.868   1.321   3.965  0.5534 -1.0934  0.0060
  261DG     H14 5994   1.710   1.335   3.884  1.4513  0.6182 -0.1072
  261DG     H15 5995   1.647   0.773   3.664  1.6068  0.5245 -0.1040
  261DG     H16 5996   1.567   0.857   3.801  0.8371  0.0730 -0.7435
  261DG     C17 5997   1.822   1.152   3.834 -0.5341  0.1386  0.0724
  261DG     C18 5998   1.754   0.946   3.733  0.0812 -0.1652  0.1040
  261DG     O19 5999   1.721   1.054   3.806  0.5916 -0.1854  0.0349
  261DG     H20 6000   1.899   1.095   3.887 -0.8104  1.0433  1.5126
  261DG     H21 6001   1.860   1.202   3.745 -1.3533  1.8813  0.6542
  261DG     H22 6002   1.822   0.887   3.795 -0.9890 -1.1205  0.3848
  261DG     H23 6003   1.811   0.974   3.644 -1.0183  2.7278  0.2052
  262DG      C1 6004   2.533   4.428   1.585 -0.2057 -0.5136  0.1294
  262DG      C2 6005   2.242   5.041   1.845 -0.3201  0.7619  0.0924
  262DG      H3 6006   2.460   4.461   1.512 -0.6365  3.2174  2.0221
  262DG      H4 6007   2.503   4.341   1.643  2.3755 -0.8199  1.1616
  262DG      H5 6008   2.625   4.398   1.534  0.4728  3.6378 -1.5129
  262DG      H6 6009   2.207   5.075   1.942 -0.7858  3.4682 -0.9396
  262DG      H7 6010   2.218   5.112   1.766 -0.3453  0.1174 -0.4959
  262DG      H8 6011   2.200   4.946   1.812 -0.2159  0.8041 -0.1650
  262DG      O9 6012   2.561   4.546   1.663 -0.0925 -0.2141 -0.5236
  262DG     O10 6013   2.387   5.036   1.841  0.5744  0.1626  0.1368
  262DG     C11 6014   2.618   4.658   1.590 -0.0423 -0.0354 -0.2857
  262DG     C12 6015   2.445   4.952   1.934 -0.5081  0.5789 -0.2064
  262DG     H13 6016   2.553   4.708   1.518 -1.1322 -1.3689 -0.2605
  262DG     H14 6017   2.704   4.618   1.536 -0.8468 -0.8884 -0.9617
  262DG     H15 6018   2.379   4.867   1.951 -0.3006  0.9404  2.8133
  262DG     H16 6019   2.463   5.005   2.027  0.7551  0.3786 -0.3122
  262DG     C17 6020   2.669   4.760   1.703  0.3031 -0.8113  0.9468
  262DG     C18 6021   2.573   4.901   1.871 -0.3077 -0.3519  0.1453
  262DG     O19 6022   2.549   4.822   1.750 -0.5563 -0.0035  0.2841
  262DG     H20 6023   2.719   4.840   1.647  0.2163 -0.9087  0.7287
  262DG     H21 6024   2.739   4.718   1.775  2.1830  1.4509  0.5792
  262DG     H22 6025   2.649   4.977   1.854 -0.3640 -0.2786  0.2155
  262DG     H23 6026   2.627   4.842   1.945 -0.0490  0.6414  0.7757
  263DG      C1 6027   0.996   2.363   3.040  0.1431  0.1324 -0.0934
  263DG      C2 6028   1.163   1.678   3.065 -0.8507  0.3126  0.1897
  263DG      H3 6029   1.088   2.410   3.076  1.2230 -2.3122  0.5232
  263DG      H4 6030   0.918   2.432   3.072 -0.3380 -0.8054  0.7988
  263DG      H5 6031   0.998   2.371   2.931  1.5145 -0.0009 -0.0997
  263DG      H6 6032   1.161   1.570   3.079 -0.0987  0.0995 -1.1938
  263DG      H7 6033   1.136   1.692   2.960 -0.5259 -0.5637 -0.0241
  263DG      H8 6034   1.265   1.713   3.078 -0.4932 -0.1053 -1.3172
  263DG      O9 6035   0.976   2.229   3.077  0.3546  0.2059 -0.3690
  263DG     O10 6036   1.072   1.752   3.143  0.7653  0.3621  0.1801
  263DG     C11 6037   0.843   2.201   3.106  0.0002  0.0465 -0.4081
  263DG     C12 6038   0.936   1.729   3.134  0.4134 -0.0652 -0.7453
  263DG     H13 6039   0.794   2.185   3.010  2.7849 -0.6574 -1.8008
  263DG     H14 6040   0.798   2.287   3.156 -2.6268 -0.7631 -1.2092
  263DG     H15 6041   0.914   1.627   3.166 -1.5041 -0.5307 -3.1960
  263DG     H16 6042   0.899   1.730   3.031 -1.3220  0.4891 -0.1604
  263DG     C17 6043   0.850   2.076   3.201 -0.1190 -0.9422 -0.0327
  263DG     C18 6044   0.874   1.846   3.207 -0.1033 -0.3278  0.7344
  263DG     O19 6045   0.887   1.964   3.130 -0.1363 -0.5070 -0.4456
  263DG     H20 6046   0.751   2.061   3.244 -0.9476  1.7506 -0.7542
  263DG     H21 6047   0.913   2.098   3.287  1.6462  1.0754 -1.7036
  263DG     H22 6048   0.769   1.815   3.213  0.2844 -1.7414  0.6268
  263DG     H23 6049   0.922   1.860   3.304 -0.5468  1.2671  0.7519
  264DG      C1 6050   2.785   0.949   4.297  0.0422 -0.0852 -0.6613
  264DG      C2 6051   2.695   0.840   3.591  0.8096 -0.7931  0.3155
  264DG      H3 6052   2.839   0.855   4.284 -0.1646 -0.1808 -0.8362
  264DG      H4 6053   2.725   0.945   4.388  2.3524  0.0762  0.9406
  264DG      H5 6054   2.860   1.025   4.315  0.9790 -1.0307 -0.4992
  264DG      H6 6055   2.607   0.798   3.542  0.8408  1.4479 -1.8717
  264DG      H7 6056   2.769   0.862   3.514  2.1209  0.1226  1.7760
  264DG      H8 6057   2.735   0.772   3.666  1.4385 -0.5465  0.2112
  264DG      O9 6058   2.703   0.984   4.185  0.5609  0.0999 -0.0302
  264DG     O10 6059   2.650   0.950   3.675 -0.2693 -0.0298  0.3561
  264DG     C11 6060   2.607   0.884   4.152 -0.2382  0.4295  0.4364
  264DG     C12 6061   2.530   0.925   3.743  0.0148 -0.8622 -0.4081
  264DG     H13 6062   2.564   0.843   4.243 -1.5693  1.8407  0.4962
  264DG     H14 6063   2.658   0.805   4.097  0.1657  0.0245  1.3789
  264DG     H15 6064   2.544   0.840   3.810 -3.3541 -0.1305  1.4442
  264DG     H16 6065   2.456   0.901   3.667 -0.0438  0.6730 -0.8713
  264DG     C17 6066   2.499   0.953   4.063  0.3196 -0.0533  0.5007
  264DG     C18 6067   2.480   1.049   3.835 -0.0868  0.7423  0.6055
  264DG     O19 6068   2.557   1.025   3.954  0.4876  0.4948  0.9427
  264DG     H20 6069   2.437   1.015   4.128 -1.3295 -1.4047  0.2946
  264DG     H21 6070   2.432   0.875   4.026  1.0082  0.3656 -1.7824
  264DG     H22 6071   2.498   1.149   3.795  1.4528  0.0786 -0.4844
  264DG     H23 6072   2.374   1.041   3.859 -0.2077  3.0770  1.0752
  265DG      C1 6073   4.776   0.652   0.612  0.0642 -0.3085 -0.0104
  265DG      C2 6074   5.394   0.320   0.378  0.9119 -0.0270  0.0102
  265DG      H3 6075   4.785   0.702   0.516  2.0988 -1.0039 -0.2368
  265DG      H4 6076   4.823   0.722   0.682 -1.3819  1.1030 -0.3810
  265DG      H5 6077   4.670   0.635   0.632 -0.1790 -0.0648 -1.0353
  265DG      H6 6078   5.362   0.414   0.333 -2.3377  0.4165  2.8650
  265DG      H7 6079   5.461   0.337   0.463  2.7426  0.7319 -1.5190
  265DG      H8 6080   5.441   0.256   0.304  1.6403 -1.6457  1.7960
  265DG      O9 6081   4.839   0.524   0.603 -0.0228  0.0593 -0.4863
  265DG     O10 6082   5.267   0.278   0.427  0.3273 -0.0648 -0.4941
  265DG     C11 6083   4.768   0.448   0.506 -0.1369  0.1952  0.1138
  265DG     C12 6084   5.179   0.244   0.321  0.4212  0.3803 -0.1965
  265DG     H13 6085   4.756   0.501   0.412  1.9141  1.7527  0.6506
  265DG     H14 6086   4.669   0.432   0.550 -1.1480  0.2701 -2.0063
  265DG     H15 6087   5.227   0.162   0.267 -2.0333  0.0083 -1.9562
  265DG     H16 6088   5.170   0.327   0.252  1.3353 -0.8627 -1.8954
  265DG     C17 6089   4.839   0.310   0.483 -0.0056  0.3221  0.4409
  265DG     C18 6090   5.037   0.216   0.384  0.7853  0.1181 -0.1349
  265DG     O19 6091   4.971   0.330   0.441  0.7480 -0.0084 -0.4363
  265DG     H20 6092   4.781   0.245   0.418 -1.4199  0.4462  1.5275
  265DG     H21 6093   4.843   0.260   0.580 -2.9623 -2.6243 -0.7583
  265DG     H22 6094   4.971   0.183   0.303  2.0074  0.1956 -1.1851
  265DG     H23 6095   5.029   0.146   0.467  1.0695 -0.0857 -0.2794
  266DG      C1 6096   2.654   4.261   3.230 -0.2437  0.0237  0.4222
  266DG      C2 6097   3.047   4.955   3.283 -0.6024 -0.2671  0.3228
  266DG      H3 6098   2.693   4.245   3.330 -0.0184  2.7926  0.8516
  266DG      H4 6099   2.616   4.167   3.188  1.7765  0.5887 -3.0123
  266DG      H5 6100   2.576   4.336   3.239  0.4326  1.0094 -1.4891
  266DG      H6 6101   2.965   5.026   3.268 -1.3589 -0.9345  1.1557
  266DG      H7 6102   3.023   4.925   3.385 -4.0841 -0.1205 -0.3030
  266DG      H8 6103   3.140   5.010   3.269 -0.3341 -1.3025 -3.0259
  266DG      O9 6104   2.760   4.310   3.158 -0.1674 -0.7911 -0.5597
  266DG     O10 6105   3.024   4.848   3.193  0.9941 -0.2199 -0.1478
  266DG     C11 6106   2.815   4.426   3.212  0.1359 -0.0215  0.5366
  266DG     C12 6107   3.128   4.758   3.174 -0.0297  0.1679  0.2858
  266DG     H13 6108   2.852   4.417   3.314  0.6112  0.2313  0.3890
  266DG     H14 6109   2.735   4.500   3.208  0.4497  0.3307  0.7299
  266DG     H15 6110   3.180   4.738   3.268 -0.1816  0.4845  0.4364
  266DG     H16 6111   3.206   4.815   3.124 -1.0249  1.9845  0.7295
  266DG     C17 6112   2.922   4.465   3.114  0.9857  0.4416 -0.1140
  266DG     C18 6113   3.094   4.629   3.096 -0.1759  0.1841 -0.1794
  266DG     O19 6114   2.979   4.583   3.165  0.5221 -0.1046 -0.2513
  266DG     H20 6115   2.881   4.475   3.013  1.9873 -0.0465 -0.5839
  266DG     H21 6116   2.995   4.385   3.105 -1.3699 -1.5952 -2.9039
  266DG     H22 6117   3.071   4.656   2.993  1.0197  2.2052  0.0156
  266DG     H23 6118   3.180   4.562   3.101 -0.5350 -0.2081  1.1711
  267DG      C1 6119   1.485   4.143   3.777  0.5126 -0.1341 -0.5354
  267DG      C2 6120   1.245   4.245   4.424  0.4138  0.0410 -0.1710
  267DG      H3 6121   1.591   4.152   3.799  0.6094  1.1199 -1.4247
  267DG      H4 6122   1.471   4.170   3.673  0.8678  1.3820 -0.2039
  267DG      H5 6123   1.452   4.039   3.790  1.3007 -0.5472 -1.6849
  267DG      H6 6124   1.337   4.202   4.465  0.3429  0.7068  0.7091
  267DG      H7 6125   1.217   4.313   4.505  1.2531 -0.1452  0.2836
  267DG      H8 6126   1.171   4.167   4.409  0.0368  0.8210 -3.1781
  267DG      O9 6127   1.408   4.234   3.854 -0.4851 -0.0895  0.3706
  267DG     O10 6128   1.267   4.318   4.308 -0.0244  0.1510 -0.1104
  267DG     C11 6129   1.272   4.236   3.820  0.3702  0.2245 -0.6915
  267DG     C12 6130   1.152   4.365   4.247  0.0577 -0.0904  0.5155
  267DG     H13 6131   1.239   4.137   3.851 -0.2959  1.2384  2.1188
  267DG     H14 6132   1.272   4.256   3.713 -0.8787 -2.6256 -1.3227
  267DG     H15 6133   1.093   4.433   4.309  1.9020 -0.4607  2.7885
  267DG     H16 6134   1.075   4.290   4.227 -2.5570  2.1375  1.5166
  267DG     C17 6135   1.198   4.346   3.894 -0.7958 -0.2402 -0.6040
  267DG     C18 6136   1.195   4.427   4.115 -0.1395 -0.3544  0.4124
  267DG     O19 6137   1.231   4.323   4.028 -0.1054 -0.2581 -0.0327
  267DG     H20 6138   1.092   4.353   3.869 -0.6138 -0.7512 -1.5837
  267DG     H21 6139   1.256   4.435   3.871  2.1079 -1.4889  1.3093
  267DG     H22 6140   1.107   4.479   4.077  1.7744  0.9629 -2.5934
  267DG     H23 6141   1.270   4.506   4.124  0.9460 -1.2966 -0.1258
  268DG      C1 6142   5.000   1.590   4.807  0.4716  0.3957 -0.4810
  268DG      C2 6143   4.548   2.020   5.057 -0.7672  0.0757  0.3652
  268DG      H3 6144   5.020   1.483   4.796  1.0395  0.0528  2.8485
  268DG      H4 6145   5.098   1.630   4.835 -0.7927  2.4877  1.2239
  268DG      H5 6146   4.967   1.636   4.714  0.3280 -0.7322 -1.0105
  268DG      H6 6147   4.612   2.051   4.975 -1.5552  0.6627 -0.0433
  268DG      H7 6148   4.444   2.012   5.026 -0.7458  1.2615 -0.0701
  268DG      H8 6149   4.551   2.099   5.133 -0.5735 -0.0133  0.4501
  268DG      O9 6150   4.898   1.608   4.913 -0.3835 -0.2045  0.2437
  268DG     O10 6151   4.607   1.892   5.091 -0.1472 -0.3668 -0.3991
  268DG     C11 6152   4.941   1.563   5.038 -0.5020  0.2596 -0.1415
  268DG     C12 6153   4.650   1.885   5.229  1.1081  0.0531 -0.0276
  268DG     H13 6154   5.028   1.615   5.077 -1.5098 -0.3058  3.1808
  268DG     H14 6155   4.955   1.455   5.046  0.7122  0.5079  1.5934
  268DG     H15 6156   4.568   1.914   5.296  0.0555 -1.5047 -0.5835
  268DG     H16 6157   4.731   1.955   5.247  1.3662 -0.1174 -0.5055
  268DG     C17 6158   4.826   1.572   5.133 -0.6944 -0.2465 -0.0323
  268DG     C18 6159   4.703   1.743   5.253 -0.4593 -0.0730  0.3370
  268DG     O19 6160   4.795   1.703   5.148  0.1845 -0.2924  0.2328
  268DG     H20 6161   4.870   1.532   5.224  0.0941  0.0578 -0.2665
  268DG     H21 6162   4.746   1.505   5.103  1.7559 -2.3163 -2.4266
  268DG     H22 6163   4.742   1.744   5.355  0.6250 -1.4024 -0.0325
  268DG     H23 6164   4.615   1.678   5.256 -1.3265  1.0640  0.3254
  269DG      C1 6165   3.209   0.588   2.460  0.3779 -0.4955  0.4637
  269DG      C2 6166   2.618   1.148   2.509 -0.0259 -0.0835 -0.0790
  269DG      H3 6167   3.209   0.548   2.561 -1.6314 -0.2825  0.5955
  269DG      H4 6168   3.276   0.674   2.460 -0.0891 -0.1284  1.0732
  269DG      H5 6169   3.261   0.518   2.395  0.5306  0.5743 -0.6075
  269DG      H6 6170   2.615   1.178   2.613 -1.9975  0.7226 -0.3202
  269DG      H7 6171   2.695   1.207   2.461  0.3641 -0.7905 -0.3431
  269DG      H8 6172   2.519   1.173   2.470  0.3320  0.4293 -0.6745
  269DG      O9 6173   3.091   0.625   2.412  0.0077  0.3298  0.4534
  269DG     O10 6174   2.627   1.008   2.498  0.4450  0.4793  0.1118
  269DG     C11 6175   3.020   0.724   2.478 -0.1787 -1.1206 -0.8108
  269DG     C12 6176   2.616   0.969   2.362 -0.8079  0.0627  0.1131
  269DG     H13 6177   3.058   0.823   2.455  1.0422 -1.3819  0.0039
  269DG     H14 6178   3.019   0.703   2.584  1.4141  1.4566 -0.2031
  269DG     H15 6179   2.690   1.024   2.304 -1.5253 -0.4057 -1.2653
  269DG     H16 6180   2.524   0.980   2.305  0.2286 -3.4701 -2.5889
  269DG     C17 6181   2.878   0.716   2.420  0.1807  0.1737 -0.2226
  269DG     C18 6182   2.675   0.829   2.357  0.1515  0.1977  0.0488
  269DG     O19 6183   2.810   0.839   2.399 -0.4621  0.0988 -0.2792
  269DG     H20 6184   2.815   0.664   2.493 -1.1096  1.2494 -0.5317
  269DG     H21 6185   2.883   0.667   2.323 -3.1648  0.4317 -0.6376
  269DG     H22 6186   2.622   0.758   2.421 -0.4948  0.3984 -0.2599
  269DG     H23 6187   2.672   0.789   2.255 -0.9465 -1.4745  0.6940
  270DG      C1 6188   1.129   0.488   4.667 -0.7230  0.0412 -0.1938
  270DG      C2 6189   1.535   0.014   4.406 -0.2234 -0.1606  0.2607
  270DG      H3 6190   1.154   0.589   4.634  4.1928 -0.6785  0.4633
  270DG      H4 6191   1.102   0.494   4.773 -1.5581  1.1964 -0.4564
  270DG      H5 6192   1.046   0.442   4.614 -0.5371  0.7733 -1.1463
  270DG      H6 6193   1.564   0.089   4.332  0.5545 -1.0944 -0.4116
  270DG      H7 6194   1.601  -0.072   4.415 -2.2169 -1.7983  0.1184
  270DG      H8 6195   1.450  -0.047   4.374  1.0646 -1.9001 -0.0060
  270DG      O9 6196   1.251   0.400   4.665  0.3242  0.5067  0.2168
  270DG     O10 6197   1.508   0.067   4.536  0.4020  0.8888 -0.7017
  270DG     C11 6198   1.327   0.433   4.779 -0.3452  0.2267 -0.3268
  270DG     C12 6199   1.619   0.154   4.581 -0.0749 -0.0660 -0.1886
  270DG     H13 6200   1.286   0.387   4.869  3.0079 -1.6044  0.4092
  270DG     H14 6201   1.323   0.541   4.796 -0.1827  0.2654 -0.5283
  270DG     H15 6202   1.608   0.242   4.517 -2.9599  0.1835  0.4788
  270DG     H16 6203   1.720   0.123   4.556  0.3338  0.2259  1.0481
  270DG     C17 6204   1.475   0.390   4.751  0.5699 -0.7353 -0.0755
  270DG     C18 6205   1.604   0.188   4.727  0.3416  0.4286  0.0096
  270DG     O19 6206   1.483   0.249   4.766 -0.6471 -0.1330 -0.5099
  270DG     H20 6207   1.529   0.446   4.827 -0.3517 -0.1838  0.1871
  270DG     H21 6208   1.502   0.427   4.652  1.4670  1.2144  0.8338
  270DG     H22 6209   1.601   0.094   4.782  1.4666 -0.8258 -1.9650
  270DG     H23 6210   1.695   0.230   4.769  1.0156 -1.6706  0.8070
  271DG      C1 6211   1.156   3.862   0.714  0.2690 -0.0650  0.0712
  271DG      C2 6212   0.723   4.027   1.196  0.1591 -0.2126 -0.3794
  271DG      H3 6213   1.241   3.929   0.729  1.9021 -2.2317  1.2146
  271DG      H4 6214   1.166   3.819   0.615 -0.3389  0.1528 -0.0852
  271DG      H5 6215   1.181   3.777   0.778  1.6046  1.1429  1.2135
  271DG      H6 6216   0.656   4.094   1.248  1.7742  2.3548 -1.4077
  271DG      H7 6217   0.711   3.931   1.246  1.4718  0.5372  1.4702
  271DG      H8 6218   0.826   4.055   1.220  1.2926 -2.8547 -1.6350
  271DG      O9 6219   1.029   3.909   0.749  0.6816  0.4054  0.1206
  271DG     O10 6220   0.721   4.020   1.056  0.1560 -0.6506  0.4642
  271DG     C11 6221   0.929   3.821   0.696 -0.1980  0.3229 -0.2126
  271DG     C12 6222   0.607   3.948   0.994 -0.4415 -0.6018 -0.1302
  271DG     H13 6223   0.923   3.732   0.758  0.7942 -1.5211 -2.5591
  271DG     H14 6224   0.952   3.789   0.594 -0.8504 -2.6745  0.4881
  271DG     H15 6225   0.506   3.976   1.022 -0.7736 -0.5573 -1.3556
  271DG     H16 6226   0.616   3.847   1.033 -2.1939 -0.9295 -0.5111
  271DG     C17 6227   0.790   3.885   0.689  0.1598  0.4809 -0.3740
  271DG     C18 6228   0.625   3.945   0.845  0.1487 -0.3275 -0.5250
  271DG     O19 6229   0.752   3.893   0.820 -0.2018 -0.4875 -0.1080
  271DG     H20 6230   0.710   3.831   0.639 -0.0131  2.5441 -2.4855
  271DG     H21 6231   0.793   3.985   0.647 -1.6812  1.3991  1.5235
  271DG     H22 6232   0.540   3.893   0.800 -0.5828 -0.7605  1.2857
  271DG     H23 6233   0.619   4.047   0.807 -1.0995 -0.0568  0.3559
  272DG      C1 6234   3.435   0.974   2.061 -0.7793  0.0824  0.5550
  272DG      C2 6235   4.051   0.428   2.162 -0.7986  0.0006  0.4990
  272DG      H3 6236   3.407   0.942   1.961 -0.2714 -0.8127  0.6890
  272DG      H4 6237   3.510   1.053   2.057  0.2253 -0.8427  0.5293
  272DG      H5 6238   3.347   1.016   2.111 -0.1916 -0.5413  2.1849
  272DG      H6 6239   4.118   0.368   2.225 -0.8728  0.0722  0.6482
  272DG      H7 6240   3.998   0.361   2.094 -0.6193  0.9943 -0.6330
  272DG      H8 6241   4.127   0.485   2.109 -1.5933  1.0137  0.4262
  272DG      O9 6242   3.481   0.856   2.128 -0.0220  0.4456 -0.2567
  272DG     O10 6243   3.968   0.516   2.235 -0.5051  0.4424 -0.3257
  272DG     C11 6244   3.519   0.879   2.260 -0.2554  0.4083  0.2979
  272DG     C12 6245   3.866   0.569   2.152  0.0743 -0.0862 -0.7946
  272DG     H13 6246   3.433   0.915   2.317 -0.2215 -0.9676  1.2732
  272DG     H14 6247   3.600   0.950   2.273 -0.7968  1.0566  0.1839
  272DG     H15 6248   3.834   0.528   2.056 -1.0615  0.3717 -0.6300
  272DG     H16 6249   3.907   0.668   2.133 -0.2323  0.0621 -0.6911
  272DG     C17 6250   3.577   0.751   2.315  0.1604  0.4416  0.1756
  272DG     C18 6251   3.752   0.593   2.253 -0.4300 -0.3178 -0.1598
  272DG     O19 6252   3.675   0.702   2.220  0.5225 -0.0758 -0.2773
  272DG     H20 6253   3.506   0.670   2.328  0.0717  0.4276 -0.3581
  272DG     H21 6254   3.638   0.760   2.405  2.2796  0.4872 -1.1861
  272DG     H22 6255   3.693   0.505   2.280  0.7478 -0.1574  3.5617
  272DG     H23 6256   3.788   0.596   2.356 -1.0336  0.7178  0.0301
  273DG      C1 6257   0.627   4.555   0.306  0.6011 -0.4992 -0.5350
  273DG      C2 6258   1.026   4.508  -0.259  0.4828 -0.2090  0.5100
  273DG      H3 6259   0.719   4.545   0.362 -0.0447  0.1379  0.6800
  273DG      H4 6260   0.544   4.506   0.357 -0.0399  0.2159 -0.8568
  273DG      H5 6261   0.603   4.661   0.291 -1.7756 -0.6760  1.5321
  273DG      H6 6262   1.048   4.432  -0.334  0.0940 -1.2892  1.4623
  273DG      H7 6263   1.020   4.607  -0.305  0.1543 -0.0817  0.8151
  273DG      H8 6264   1.111   4.499  -0.193 -0.3660  1.3356  1.9047
  273DG      O9 6265   0.635   4.499   0.176 -0.7319  0.2058 -0.2811
  273DG     O10 6266   0.904   4.462  -0.196 -0.0677 -0.4722  0.1516
  273DG     C11 6267   0.521   4.496   0.102  0.7238  0.2251  0.2321
  273DG     C12 6268   0.796   4.449  -0.287  0.3477  0.0562  0.4506
  273DG     H13 6269   0.494   4.599   0.082 -0.7200 -0.0333  0.7384
  273DG     H14 6270   0.442   4.441   0.153  1.8333 -2.3650 -0.6437
  273DG     H15 6271   0.827   4.383  -0.368 -0.2978 -0.5297  0.6601
  273DG     H16 6272   0.773   4.542  -0.338  0.3971 -0.4818 -0.5674
  273DG     C17 6273   0.544   4.411  -0.023 -0.2005  0.0563 -0.5395
  273DG     C18 6274   0.678   4.393  -0.209 -0.5651  0.1986  0.0540
  273DG     O19 6275   0.648   4.470  -0.096  0.6764  0.0886 -0.3735
  273DG     H20 6276   0.454   4.399  -0.085  0.2675  0.6698 -1.3553
  273DG     H21 6277   0.571   4.313   0.016  0.2469  0.3181 -0.2015
  273DG     H22 6278   0.585   4.390  -0.266 -1.4499 -2.2624  1.4678
  273DG     H23 6279   0.693   4.291  -0.172  0.2830  0.2177 -0.2312
  274DG      C1 6280   3.302   1.584   3.258  0.4018 -0.1428  0.3909
  274DG      C2 6281   3.470   0.911   3.202 -0.4012 -0.4240 -0.1108
  274DG      H3 6282   3.248   1.575   3.163 -1.4878  4.0578  0.8069
  274DG      H4 6283   3.386   1.640   3.217 -0.6609  0.2525 -1.3629
  274DG      H5 6284   3.238   1.630   3.333  0.1046 -1.7260  1.1480
  274DG      H6 6285   3.439   0.946   3.103 -2.3032 -0.7284  0.3457
  274DG      H7 6286   3.578   0.922   3.206 -0.5474  1.0218  2.2159
  274DG      H8 6287   3.445   0.805   3.211  0.9388 -0.8389 -0.9827
  274DG      O9 6288   3.343   1.463   3.313  0.0164 -0.0614 -0.6792
  274DG     O10 6289   3.407   0.996   3.293 -0.6137 -0.7099 -0.6186
  274DG     C11 6290   3.403   1.475   3.443 -0.1412  0.0926  0.3572
  274DG     C12 6291   3.471   0.999   3.419 -0.3552  0.1582  0.5369
  274DG     H13 6292   3.349   1.547   3.505  0.7930  0.6923  0.4998
  274DG     H14 6293   3.499   1.524   3.426 -1.5958  2.5976 -1.4877
  274DG     H15 6294   3.579   1.002   3.401 -0.8604  0.5769 -3.1493
  274DG     H16 6295   3.446   0.903   3.465  0.0444 -0.0510  0.3308
  274DG     C17 6296   3.396   1.344   3.515 -0.4043  0.0673 -0.4283
  274DG     C18 6297   3.418   1.106   3.509 -0.7537 -0.0234 -0.2799
  274DG     O19 6298   3.416   1.227   3.434 -0.1514  0.2660 -0.2344
  274DG     H20 6299   3.293   1.327   3.549 -0.7813  0.1475 -1.4776
  274DG     H21 6300   3.463   1.343   3.601 -3.4669 -0.0459  2.1394
  274DG     H22 6301   3.318   1.083   3.547 -1.2779  1.1742 -0.8499
  274DG     H23 6302   3.489   1.114   3.591 -0.9807  2.2398 -0.2199
  275DG      C1 6303   5.104   2.290   5.221 -0.4564  0.1375  0.4758
  275DG      C2 6304   4.520   2.232   5.627 -0.4483 -0.0365 -0.1700
  275DG      H3 6305   5.157   2.196   5.226 -2.2466 -0.8784  1.3762
  275DG      H4 6306   5.180   2.356   5.178  1.4838  0.0205  3.4363
  275DG      H5 6307   5.015   2.284   5.159  0.4525 -0.5931 -0.8033
  275DG      H6 6308   4.564   2.145   5.676 -0.9983 -0.5495 -0.5790
  275DG      H7 6309   4.537   2.317   5.692  1.2754 -0.8039  0.4661
  275DG      H8 6310   4.419   2.192   5.614  0.3633 -1.8854 -1.3950
  275DG      O9 6311   5.063   2.336   5.348  0.2219 -0.3866  0.0085
  275DG     O10 6312   4.578   2.253   5.504  0.0798  0.3144  0.1496
  275DG     C11 6313   5.005   2.471   5.341  0.4864 -0.2515  0.3222
  275DG     C12 6314   4.534   2.368   5.435  0.1255 -0.1494 -0.0771
  275DG     H13 6315   5.071   2.536   5.282  0.2895 -1.0634 -0.8208
  275DG     H14 6316   5.002   2.505   5.445 -2.7539  2.8415 -0.5775
  275DG     H15 6317   4.528   2.450   5.506  0.2101  0.9870 -1.3520
  275DG     H16 6318   4.429   2.364   5.405 -0.4226  0.1427  1.6714
  275DG     C17 6319   4.859   2.484   5.298 -0.0346  0.2955  0.7725
  275DG     C18 6320   4.633   2.406   5.335  0.1410 -0.1794 -0.3523
  275DG     O19 6321   4.771   2.413   5.387  0.2451  0.1182 -0.0592
  275DG     H20 6322   4.847   2.451   5.195  0.3694  1.0183  0.4848
  275DG     H21 6323   4.844   2.591   5.284 -1.8471 -0.0296 -0.0899
  275DG     H22 6324   4.628   2.323   5.264  2.0727 -0.7208  0.0985
  275DG     H23 6325   4.608   2.498   5.282  1.5018  0.4670  0.0831
  276DG      C1 6326   0.659   2.361   4.843 -0.9684  0.4254  0.2475
  276DG      C2 6327   0.328   3.198   5.090  0.8856 -0.1182  0.5583
  276DG      H3 6328   0.708   2.309   4.761  0.5607 -0.9539  1.9634
  276DG      H4 6329   0.554   2.334   4.854 -0.6811 -0.9458 -0.2805
  276DG      H5 6330   0.712   2.328   4.932  0.5746  1.6371 -0.1691
  276DG      H6 6331   0.322   3.306   5.077  1.3337  0.0718  1.7907
  276DG      H7 6332   0.227   3.161   5.074  0.5181  1.3197 -0.6656
  276DG      H8 6333   0.355   3.175   5.193 -0.9467 -5.2088  0.1487
  276DG      O9 6334   0.675   2.498   4.828  0.0781 -0.1991  0.3244
  276DG     O10 6335   0.427   3.136   5.005 -0.1966  0.1884 -0.1953
  276DG     C11 6336   0.595   2.583   4.907  0.4576  0.8229  0.0844
  276DG     C12 6337   0.431   2.993   5.027  0.4731 -0.8470  0.0713
  276DG     H13 6338   0.603   2.576   5.015 -2.1963  0.4036  0.3209
  276DG     H14 6339   0.490   2.559   4.895  0.0273  3.0388 -1.1182
  276DG     H15 6340   0.333   2.947   5.018  0.4136 -0.4238 -1.8641
  276DG     H16 6341   0.471   2.990   5.129 -0.0594  3.4968  0.5952
  276DG     C17 6342   0.633   2.722   4.883  0.5289 -0.0389 -0.0441
  276DG     C18 6343   0.524   2.930   4.922 -0.6297  0.0609  0.5248
  276DG     O19 6344   0.555   2.798   4.968 -0.0548 -0.3863 -0.4811
  276DG     H20 6345   0.609   2.744   4.779 -0.1068 -1.2337 -0.1570
  276DG     H21 6346   0.737   2.743   4.910  1.2199 -2.1440 -0.8904
  276DG     H22 6347   0.478   2.932   4.823 -1.3069 -0.7675  0.7981
  276DG     H23 6348   0.622   2.977   4.922  0.1323 -1.4217 -0.1398
  277DG      C1 6349   3.704   2.720   4.217  0.3333  0.1439  0.2247
  277DG      C2 6350   3.808   1.887   4.164 -0.3752 -0.8652  0.1182
  277DG      H3 6351   3.786   2.748   4.150 -2.9387  1.9420 -3.4398
  277DG      H4 6352   3.752   2.689   4.310 -1.0627  0.7429  1.1755
  277DG      H5 6353   3.654   2.814   4.237 -0.6045 -0.4447  0.7080
  277DG      H6 6354   3.908   1.927   4.146  0.0552 -1.7631  0.4293
  277DG      H7 6355   3.794   1.870   4.271 -3.2819 -2.2035 -0.3812
  277DG      H8 6356   3.804   1.792   4.110 -0.9012 -1.8984  1.8900
  277DG      O9 6357   3.629   2.607   4.159 -0.0467  0.5834 -0.4631
  277DG     O10 6358   3.711   1.981   4.125 -0.4844  0.3105  0.4355
  277DG     C11 6359   3.532   2.541   4.242 -0.0381 -0.3521 -0.6950
  277DG     C12 6360   3.719   2.107   4.186  0.2762  0.0671  0.2153
  277DG     H13 6361   3.442   2.603   4.242  1.3510  1.8028 -1.4087
  277DG     H14 6362   3.570   2.510   4.339 -1.5185 -0.1039 -0.0078
  277DG     H15 6363   3.810   2.158   4.153  0.2484 -0.1101 -0.1360
  277DG     H16 6364   3.729   2.115   4.294  5.3630 -0.5864  0.0649
  277DG     C17 6365   3.497   2.399   4.180 -0.3467 -0.6310  0.6719
  277DG     C18 6366   3.598   2.189   4.145 -0.5636 -0.8002  0.0756
  277DG     O19 6367   3.605   2.318   4.207 -0.5091  0.2577 -0.2161
  277DG     H20 6368   3.477   2.415   4.074 -3.7030 -2.9054  0.7801
  277DG     H21 6369   3.411   2.345   4.220 -0.8081 -1.3234 -1.1352
  277DG     H22 6370   3.605   2.207   4.038  0.6135  0.3293  0.3113
  277DG     H23 6371   3.503   2.140   4.165 -1.9767  2.0273  0.7689
  278DG      C1 6372   2.031   3.079   2.614  0.3913  0.3728  0.0791
  278DG      C2 6373   2.188   3.028   2.010 -0.3395  0.3567  0.1942
  278DG      H3 6374   1.946   3.095   2.549  1.1846  3.1228 -0.4158
  278DG      H4 6375   2.030   3.174   2.668  2.3787 -0.0050  0.8711
  278DG      H5 6376   2.014   3.005   2.692 -1.2475 -0.1901 -0.7585
  278DG      H6 6377   2.147   3.128   1.993 -0.5696  0.2915  0.3533
  278DG      H7 6378   2.240   2.999   1.919  0.0180 -0.1436  0.5494
  278DG      H8 6379   2.114   2.952   2.036 -1.4003  1.3871  0.2660
  278DG      O9 6380   2.148   3.060   2.533 -0.2311 -0.4161 -0.4947
  278DG     O10 6381   2.278   3.026   2.122  0.1242 -0.4433 -0.0896
  278DG     C11 6382   2.243   3.162   2.562 -0.5124 -0.0100  0.2559
  278DG     C12 6383   2.376   3.129   2.119 -0.1668 -0.0112  0.0528
  278DG     H13 6384   2.259   3.167   2.670 -1.8519 -0.5710  0.5083
  278DG     H14 6385   2.207   3.260   2.533  1.2224  0.3791 -0.7065
  278DG     H15 6386   2.318   3.220   2.107  0.0126 -0.2406 -3.4475
  278DG     H16 6387   2.448   3.118   2.038  0.4516  0.8078  0.4811
  278DG     C17 6388   2.377   3.138   2.484  0.1333 -0.1751 -0.3678
  278DG     C18 6389   2.441   3.126   2.255 -0.0705 -0.4733  0.1913
  278DG     O19 6390   2.330   3.127   2.349 -0.0422 -0.5772 -0.4570
  278DG     H20 6391   2.426   3.050   2.526  1.1993  2.1042  3.6441
  278DG     H21 6392   2.445   3.221   2.502 -0.7490  0.1263  1.9267
  278DG     H22 6393   2.499   3.034   2.261  1.1508  0.1924 -0.9113
  278DG     H23 6394   2.505   3.212   2.274 -0.2332  0.0540 -1.4948
  279DG      C1 6395   4.261   3.667   1.057 -0.3372 -0.0235 -0.0538
  279DG      C2 6396   4.091   3.254   0.574  0.0090  0.1857 -0.5677
  279DG      H3 6397   4.191   3.607   1.115 -1.7146  0.3737 -1.2372
  279DG      H4 6398   4.250   3.765   1.102  2.4041  0.4400 -0.2350
  279DG      H5 6399   4.365   3.635   1.068 -0.2936 -0.5204 -1.6636
  279DG      H6 6400   4.023   3.227   0.654 -1.1841 -0.8438 -1.8700
  279DG      H7 6401   4.024   3.243   0.488 -0.0749  0.5464 -0.5534
  279DG      H8 6402   4.161   3.172   0.589 -0.6397  0.2664  4.5830
  279DG      O9 6403   4.234   3.658   0.913  0.1009 -0.6831 -0.3778
  279DG     O10 6404   4.140   3.380   0.608  0.2772 -0.0828 -0.3609
  279DG     C11 6405   4.300   3.753   0.836 -0.1096  0.4769  0.6358
  279DG     C12 6406   4.199   3.452   0.501  0.0420 -0.3068 -0.2251
  279DG     H13 6407   4.408   3.738   0.845 -0.1290  0.3507  0.6537
  279DG     H14 6408   4.279   3.854   0.874 -0.6792  0.4290  0.4523
  279DG     H15 6409   4.148   3.447   0.405 -0.2175 -2.9276 -0.0180
  279DG     H16 6410   4.300   3.424   0.471  0.2361  1.0386 -0.8921
  279DG     C17 6411   4.254   3.748   0.691  0.2980 -0.1041 -0.3969
  279DG     C18 6412   4.204   3.601   0.519  0.4207  0.4184 -0.3483
  279DG     O19 6413   4.244   3.618   0.648 -0.3970 -0.4180  0.1030
  279DG     H20 6414   4.323   3.806   0.629  0.6673  0.8130  0.8140
  279DG     H21 6415   4.158   3.798   0.679  0.3678  0.5826  1.5092
  279DG     H22 6416   4.256   3.655   0.440  0.2164 -1.1184 -1.5745
  279DG     H23 6417   4.101   3.636   0.518  0.3562  0.2535  0.0752
  280DG      C1 6418   2.249   4.359   1.295 -0.4951  0.0016  0.1218
  280DG      C2 6419   1.932   4.847   0.968 -0.0977 -0.2996  0.7339
  280DG      H3 6420   2.321   4.340   1.215 -0.4871  2.9899 -0.6822
  280DG      H4 6421   2.230   4.289   1.377 -1.1809 -0.6765 -0.6015
  280DG      H5 6422   2.289   4.451   1.338 -1.9303  0.1101  1.3025
  280DG      H6 6423   1.836   4.894   0.949 -0.6529 -1.1541  1.3143
  280DG      H7 6424   1.984   4.914   1.036  2.0047  0.5034 -1.5610
  280DG      H8 6425   1.992   4.841   0.877 -1.4906 -0.3415 -0.2114
  280DG      O9 6426   2.121   4.373   1.244  0.1728 -0.3092  0.7331
  280DG     O10 6427   1.898   4.717   1.015  0.0787  0.1998  0.5617
  280DG     C11 6428   2.077   4.260   1.163 -0.6521 -1.3367 -0.1139
  280DG     C12 6429   1.872   4.620   0.908 -0.6034  0.2234  0.2704
  280DG     H13 6430   2.068   4.162   1.209 -1.1977 -1.1539  0.1792
  280DG     H14 6431   2.153   4.250   1.086  0.0805 -2.7271  0.7650
  280DG     H15 6432   1.942   4.631   0.824 -0.3516  1.3526  0.6131
  280DG     H16 6433   1.779   4.647   0.857 -0.4610 -0.1796 -0.2134
  280DG     C17 6434   1.962   4.299   1.078 -0.2728  0.0455 -0.0096
  280DG     C18 6435   1.868   4.471   0.952  0.4236 -0.4722  0.3972
  280DG     O19 6436   1.976   4.437   1.035 -0.0317 -0.1479  0.0651
  280DG     H20 6437   1.877   4.282   1.144  0.0364  2.2334  1.0747
  280DG     H21 6438   1.963   4.215   1.008  1.6705  1.6692 -2.0979
  280DG     H22 6439   1.779   4.453   1.014 -0.9702  0.4104 -1.2636
  280DG     H23 6440   1.842   4.405   0.869  0.4175 -0.8808  0.7175
  281DG      C1 6441   2.112   1.570   1.963 -0.0013 -0.0889  0.0849
  281DG      C2 6442   1.956   1.777   2.433  0.6592  0.7757  0.0088
  281DG      H3 6443   2.124   1.522   1.866  0.9469  1.1546 -0.4445
  281DG      H4 6444   2.040   1.650   1.950  0.9079  0.4814 -1.6889
  281DG      H5 6445   2.069   1.492   2.026 -0.6234  0.6083  0.5379
  281DG      H6 6446   2.038   1.729   2.487 -0.0514  0.1997  0.5982
  281DG      H7 6447   1.911   1.863   2.483  0.3835  1.9936 -2.2055
  281DG      H8 6448   1.880   1.699   2.421  1.2387 -0.0697  1.5122
  281DG      O9 6449   2.239   1.603   2.021 -0.2752  0.2279  0.0604
  281DG     O10 6450   1.995   1.821   2.298 -0.0878  0.5160 -0.3484
  281DG     C11 6451   2.301   1.725   1.965  0.1845  0.4343 -0.0951
  281DG     C12 6452   2.069   1.943   2.304 -0.7078 -0.3211  0.4753
  281DG     H13 6453   2.298   1.717   1.856  6.2397  1.8662 -0.7754
  281DG     H14 6454   2.408   1.733   1.984  0.4491  0.0863 -1.3597
  281DG     H15 6455   2.149   1.923   2.376 -1.3474  0.6600  1.4762
  281DG     H16 6456   1.991   2.013   2.333 -1.2179 -0.5579 -0.3082
  281DG     C17 6457   2.216   1.853   1.993 -0.3656  0.3211  0.3214
  281DG     C18 6458   2.118   1.985   2.164  0.2461  0.8442  0.5030
  281DG     O19 6459   2.179   1.857   2.129 -0.1473 -1.0247 -0.2138
  281DG     H20 6460   2.123   1.859   1.937 -0.2710 -1.1043 -0.0060
  281DG     H21 6461   2.273   1.943   1.970 -0.2435  0.6601  1.8409
  281DG     H22 6462   2.037   2.012   2.095 -1.5853 -0.5795  1.9670
  281DG     H23 6463   2.201   2.055   2.160  1.3379 -0.4123 -2.9541
  282DG      C1 6464   4.109   4.418   2.466 -0.6068  0.2177 -0.2176
  282DG      C2 6465   4.434   4.403   2.973 -0.1184  0.3760  0.3680
  282DG      H3 6466   4.030   4.415   2.391  0.8316  1.2407 -1.8227
  282DG      H4 6467   4.127   4.313   2.486 -2.6357 -0.9734 -3.7651
  282DG      H5 6468   4.207   4.456   2.437  0.0239 -2.1504 -1.4685
  282DG      H6 6469   4.485   4.494   2.941 -0.8370  1.3338  1.8689
  282DG      H7 6470   4.476   4.394   3.073  1.0699 -2.4640 -0.2761
  282DG      H8 6471   4.457   4.316   2.910 -1.1692 -1.1406  1.9780
  282DG      O9 6472   4.060   4.480   2.581  0.2981  0.2235 -0.3800
  282DG     O10 6473   4.299   4.443   2.967 -0.3033 -0.2252 -0.1578
  282DG     C11 6474   3.948   4.428   2.651 -0.2816 -0.1380  0.0409
  282DG     C12 6475   4.211   4.373   3.047  0.4265 -0.2238  0.8795
  282DG     H13 6476   3.950   4.319   2.651 -1.1337 -0.1575  0.2032
  282DG     H14 6477   3.851   4.449   2.607 -0.1355 -0.5655 -0.5089
  282DG     H15 6478   4.235   4.387   3.153  0.5729 -0.4953  0.8824
  282DG     H16 6479   4.219   4.266   3.032 -2.3558 -0.6506  1.8905
  282DG     C17 6480   3.948   4.467   2.794  0.0189  0.5802 -0.3743
  282DG     C18 6481   4.071   4.411   2.995 -0.2674  0.4803 -0.1184
  282DG     O19 6482   4.070   4.438   2.857 -0.2790  0.3576 -0.3917
  282DG     H20 6483   3.868   4.420   2.851 -1.3613  2.8382 -0.2894
  282DG     H21 6484   3.928   4.575   2.794 -0.9232  0.4762  2.1214
  282DG     H22 6485   4.001   4.330   3.015 -0.4476  0.4036 -1.0050
  282DG     H23 6486   4.024   4.496   3.046 -1.0917  0.9372 -1.5771
  283DG      C1 6487   2.305   5.197   2.275  0.1542  0.6761 -0.0104
  283DG      C2 6488   2.496   5.774   2.413 -0.5549  0.3086 -0.1121
  283DG      H3 6489   2.227   5.209   2.199  1.2158  0.2763 -1.1944
  283DG      H4 6490   2.256   5.198   2.373  0.0696  3.4358  0.0198
  283DG      H5 6491   2.358   5.102   2.268 -0.9946  0.0047  0.2108
  283DG      H6 6492   2.426   5.821   2.344 -0.0599 -2.4796 -2.7448
  283DG      H7 6493   2.455   5.723   2.500 -0.8681  0.2396 -0.2993
  283DG      H8 6494   2.560   5.858   2.440 -0.7640  0.7519 -0.9684
  283DG      O9 6495   2.400   5.304   2.272 -0.3963  0.3836  0.6167
  283DG     O10 6496   2.575   5.682   2.334  0.7873 -0.0385 -0.2048
  283DG     C11 6497   2.468   5.321   2.147 -0.2098 -0.3293 -0.0730
  283DG     C12 6498   2.682   5.617   2.397  0.1429 -0.6546 -0.1104
  283DG     H13 6499   2.405   5.349   2.062  0.5252 -0.5304 -0.7004
  283DG     H14 6500   2.523   5.234   2.111 -1.6109 -0.1548 -2.9550
  283DG     H15 6501   2.648   5.555   2.479 -3.0413 -0.5289 -1.1733
  283DG     H16 6502   2.750   5.693   2.436 -0.9499  1.3323 -1.8205
  283DG     C17 6503   2.572   5.436   2.160 -0.2008  0.1080  0.2106
  283DG     C18 6504   2.752   5.532   2.295  0.1369  0.0440  0.0480
  283DG     O19 6505   2.668   5.418   2.259 -0.1815 -0.7422 -0.4521
  283DG     H20 6506   2.508   5.524   2.169 -1.9690 -1.2410  1.7548
  283DG     H21 6507   2.625   5.443   2.065 -0.0101 -0.1070  0.3026
  283DG     H22 6508   2.784   5.585   2.205 -0.3825 -1.8513 -1.3075
  283DG     H23 6509   2.845   5.495   2.340  0.2206 -1.4551 -1.2775
  284DG      C1 6510   0.640   3.382   4.951 -0.1728 -0.5212 -0.1562
  284DG      C2 6511   1.417   3.345   5.019  0.5806 -0.0496  0.0882
  284DG      H3 6512   0.573   3.454   4.998  0.4683 -0.9814  1.5579
  284DG      H4 6513   0.629   3.289   5.007 -2.1483  0.4736  1.2327
  284DG      H5 6514   0.597   3.381   4.851 -1.4151  0.1830  0.3433
  284DG      H6 6515   1.432   3.350   5.127  1.6510  1.8795 -0.0992
  284DG      H7 6516   1.404   3.241   4.991  0.0157  0.7542 -2.9899
  284DG      H8 6517   1.505   3.386   4.970 -0.7896  2.3842 -0.5529
  284DG      O9 6518   0.768   3.448   4.975 -0.1426 -0.0147  0.3609
  284DG     O10 6519   1.312   3.427   4.983  0.2824 -0.4544 -0.0321
  284DG     C11 6520   0.803   3.518   4.857  0.5022  0.0152  0.1153
  284DG     C12 6521   1.291   3.432   4.846  0.4654 -0.3162 -0.3855
  284DG     H13 6522   0.720   3.587   4.841 -0.2115 -1.2694 -2.3520
  284DG     H14 6523   0.814   3.452   4.770  1.8995  0.4729 -0.0828
  284DG     H15 6524   1.264   3.335   4.804  1.5185 -0.7264 -0.1524
  284DG     H16 6525   1.376   3.475   4.793 -0.1252  1.4504  0.0181
  284DG     C17 6526   0.942   3.586   4.874 -0.1422 -0.1796  0.0351
  284DG     C18 6527   1.175   3.533   4.832 -0.1275 -0.2566  0.3713
  284DG     O19 6528   1.051   3.483   4.882  0.3607 -0.7073  0.4195
  284DG     H20 6529   0.950   3.641   4.968 -0.9769  1.6211 -0.8882
  284DG     H21 6530   0.972   3.657   4.798 -0.1397  0.2933  0.4705
  284DG     H22 6531   1.211   3.622   4.885  2.9164 -1.2441  0.1563
  284DG     H23 6532   1.156   3.556   4.728 -1.9361  0.9077  0.9111
  285DG      C1 6533   2.040   0.012   4.720  0.5515  0.3086  0.4542
  285DG      C2 6534   1.608   0.411   5.082 -0.3548  0.4119 -0.2470
  285DG      H3 6535   2.055   0.099   4.784  1.1802  1.4685 -1.1997
  285DG      H4 6536   1.977   0.050   4.639  0.0960 -0.1770  0.5742
  285DG      H5 6537   2.135  -0.021   4.678  0.0395 -0.3871 -0.1849
  285DG      H6 6538   1.660   0.458   4.998  1.5634  0.4573  0.9074
  285DG      H7 6539   1.501   0.420   5.066 -0.3462  0.1575 -0.4552
  285DG      H8 6540   1.616   0.482   5.164 -1.6357  0.8829 -0.5093
  285DG      O9 6541   1.982  -0.108   4.775  0.2465 -0.2431  0.2918
  285DG     O10 6542   1.652   0.280   5.123  0.4330  0.4452  0.2304
  285DG     C11 6543   1.846  -0.110   4.822  0.2317 -0.1251  0.5810
  285DG     C12 6544   1.795   0.267   5.126 -0.1301  0.3642 -0.9634
  285DG     H13 6545   1.819  -0.216   4.817  1.0275 -0.2912 -0.4030
  285DG     H14 6546   1.775  -0.053   4.762  0.0867 -0.3064  0.5752
  285DG     H15 6547   1.842   0.303   5.217 -1.6905  1.7091 -0.6353
  285DG     H16 6548   1.833   0.324   5.041 -2.1846  1.9083 -0.9295
  285DG     C17 6549   1.833  -0.070   4.971  0.1526  0.2509 -0.1292
  285DG     C18 6550   1.835   0.125   5.111 -0.5202  0.1616 -0.5707
  285DG     O19 6551   1.811   0.069   4.979  0.1932 -0.4118 -0.0104
  285DG     H20 6552   1.925  -0.098   5.022  0.2391  1.0316  0.1565
  285DG     H21 6553   1.749  -0.109   5.028  0.9392 -1.7506 -0.2785
  285DG     H22 6554   1.942   0.106   5.118 -0.2494  1.3121 -1.2744
  285DG     H23 6555   1.782   0.068   5.188  1.6586 -0.5296  0.5064
  286DG      C1 6556   2.185   2.508   3.737 -0.9429  0.1985  0.4604
  286DG      C2 6557   2.932   2.111   3.766  0.2270 -0.3782  0.3307
  286DG      H3 6558   2.223   2.609   3.725 -4.1113  1.4127 -0.2484
  286DG      H4 6559   2.154   2.487   3.839 -0.2169 -0.7154  0.5117
  286DG      H5 6560   2.103   2.499   3.666  0.8164 -0.4669 -1.6162
  286DG      H6 6561   2.867   2.024   3.764 -0.1719 -0.0842  0.3836
  286DG      H7 6562   3.032   2.104   3.724  1.2543 -0.1028  2.5761
  286DG      H8 6563   2.939   2.161   3.863  1.0944  0.8579 -0.3430
  286DG      O9 6564   2.283   2.410   3.704  0.5812 -0.2755  0.3541
  286DG     O10 6565   2.868   2.206   3.675  0.5027  0.5606 -0.0522
  286DG     C11 6566   2.314   2.416   3.567 -0.1452 -0.1442 -0.0324
  286DG     C12 6567   2.742   2.254   3.714  0.4710 -0.6345 -0.3929
  286DG     H13 6568   2.355   2.511   3.532 -0.0936 -0.1280  0.0731
  286DG     H14 6569   2.219   2.411   3.514 -1.0192  1.9277  1.2310
  286DG     H15 6570   2.753   2.359   3.740  1.7132 -0.0892 -2.8100
  286DG     H16 6571   2.713   2.196   3.802  0.1837  1.3294  0.8676
  286DG     C17 6572   2.406   2.293   3.552 -0.3819 -0.4002 -0.1725
  286DG     C18 6573   2.635   2.236   3.606  0.6014  0.1146 -0.4036
  286DG     O19 6574   2.526   2.322   3.633  0.6927  0.5496  0.0886
  286DG     H20 6575   2.439   2.274   3.450  2.1690  0.4504  0.4075
  286DG     H21 6576   2.357   2.202   3.587  2.0637 -1.2788  1.2346
  286DG     H22 6577   2.672   2.262   3.507  0.2562 -1.7930 -1.0808
  286DG     H23 6578   2.603   2.132   3.612  0.2302  0.2873  1.1437
  287DG      C1 6579   2.670   2.736   2.552  0.3553  0.7028 -0.7881
  287DG      C2 6580   2.451   3.493   2.666  0.6338 -0.0899 -0.4468
  287DG      H3 6581   2.656   2.646   2.612  0.8489 -0.6299 -2.5841
  287DG      H4 6582   2.778   2.747   2.544  0.8120 -1.3532  1.4713
  287DG      H5 6583   2.636   2.700   2.454 -0.6927 -1.2023  0.2283
  287DG      H6 6584   2.421   3.596   2.648  0.1599 -0.0099  0.6674
  287DG      H7 6585   2.451   3.444   2.568  1.3533  0.1239 -0.5554
  287DG      H8 6586   2.371   3.445   2.723  1.2695 -0.3153  0.2551
  287DG      O9 6587   2.607   2.848   2.614  0.4970 -0.3994 -0.0778
  287DG     O10 6588   2.571   3.488   2.736  0.2052 -0.1889  0.1977
  287DG     C11 6589   2.667   2.888   2.736 -0.5713 -0.5559  0.0922
  287DG     C12 6590   2.655   3.374   2.723  0.3159  0.0407 -0.5105
  287DG     H13 6591   2.771   2.914   2.717 -1.0729  1.1236 -0.4775
  287DG     H14 6592   2.658   2.813   2.815 -1.3159  1.1759  1.7402
  287DG     H15 6593   2.747   3.388   2.780  0.9096  0.5363 -1.5624
  287DG     H16 6594   2.687   3.354   2.621 -0.2800 -0.6666 -0.5658
  287DG     C17 6595   2.605   3.013   2.794 -0.1554 -0.8242 -0.5276
  287DG     C18 6596   2.585   3.250   2.781  0.5674 -0.0564  0.4439
  287DG     O19 6597   2.645   3.137   2.731 -0.3724  0.7892  0.1040
  287DG     H20 6598   2.646   3.032   2.893  0.9582  0.5732 -1.2204
  287DG     H21 6599   2.497   3.000   2.807 -0.2598 -0.5247 -1.0470
  287DG     H22 6600   2.585   3.254   2.890  0.7558 -1.0212  0.4901
  287DG     H23 6601   2.481   3.238   2.751  0.1923 -1.9487  2.2665
  288DG      C1 6602   3.145   4.418   5.000  0.1462 -0.7566  0.2083
  288DG      C2 6603   3.721   4.767   5.143 -0.2419 -1.1333 -0.9239
  288DG      H3 6604   3.216   4.335   4.993 -0.4201 -1.3462  1.1285
  288DG      H4 6605   3.146   4.483   4.913  1.6898  0.4573  1.0839
  288DG      H5 6606   3.056   4.360   5.026 -1.3632  0.5200 -1.8913
  288DG      H6 6607   3.785   4.821   5.213 -2.0897 -1.2078  0.9220
  288DG      H7 6608   3.756   4.664   5.150  0.8605 -0.6535  2.1279
  288DG      H8 6609   3.750   4.798   5.043  2.9944  0.5139  0.3663
  288DG      O9 6610   3.199   4.493   5.111 -0.1856 -0.3029 -0.0985
  288DG     O10 6611   3.590   4.779   5.184  0.5665  0.5973  0.4267
  288DG     C11 6612   3.118   4.611   5.139 -0.6241 -0.4077  0.1133
  288DG     C12 6613   3.562   4.720   5.311 -0.7623  0.0505  0.6109
  288DG     H13 6614   3.019   4.581   5.174 -0.0971  1.1256  3.2484
  288DG     H14 6615   3.093   4.672   5.052  1.2754 -1.7071 -1.4274
  288DG     H15 6616   3.611   4.787   5.382 -2.1218  1.3620  0.3393
  288DG     H16 6617   3.613   4.623   5.306  1.7357  1.2683  0.8425
  288DG     C17 6618   3.200   4.684   5.252  0.0165 -0.1233  0.1093
  288DG     C18 6619   3.415   4.724   5.347  0.9062  0.0435  0.1808
  288DG     O19 6620   3.338   4.663   5.237 -0.5178  0.1877  0.2438
  288DG     H20 6621   3.157   4.653   5.348 -0.7134 -2.1312 -0.8007
  288DG     H21 6622   3.174   4.789   5.246 -0.3378 -0.1030  1.6033
  288DG     H22 6623   3.387   4.668   5.436  1.3677  0.3481  0.5184
  288DG     H23 6624   3.387   4.829   5.351 -2.4125 -0.6799 -0.8765
  289DG      C1 6625   1.854   3.524   0.171 -0.3032  0.3863  0.0296
  289DG      C2 6626   1.583   3.252  -0.157  0.4112  0.9282 -0.5310
  289DG      H3 6627   1.824   3.561   0.073  0.8032  0.2625 -0.3671
  289DG      H4 6628   1.949   3.571   0.197  0.1712 -1.0573  0.9786
  289DG      H5 6629   1.777   3.562   0.239 -0.2963  1.8627 -0.7465
  289DG      H6 6630   1.476   3.230  -0.159  0.7587 -2.7990  3.9885
  289DG      H7 6631   1.620   3.290  -0.061 -1.1896  1.5197 -0.1099
  289DG      H8 6632   1.607   3.327  -0.232  3.0477  2.3230  1.5048
  289DG      O9 6633   1.884   3.388   0.168 -0.5209  0.2930 -0.6328
  289DG     O10 6634   1.652   3.128  -0.192 -0.0733  0.3540  0.2987
  289DG     C11 6635   1.969   3.359   0.059 -0.7049  0.1010 -0.1208
  289DG     C12 6636   1.670   3.031  -0.089 -0.3201  0.2567  0.2849
  289DG     H13 6637   2.069   3.399   0.070 -0.8133  0.2976  0.1378
  289DG     H14 6638   1.926   3.399  -0.033  1.2790 -0.8398 -1.5165
  289DG     H15 6639   1.638   2.939  -0.139  1.6295  1.0555 -2.7779
  289DG     H16 6640   1.595   3.042  -0.011 -0.1665 -0.2473  0.5106
  289DG     C17 6641   1.965   3.203   0.039  0.0323  0.0490  0.3388
  289DG     C18 6642   1.816   3.036  -0.037  0.1125  0.2420  0.1208
  289DG     O19 6643   1.835   3.171   0.002 -0.2960  0.5139 -0.0382
  289DG     H20 6644   1.993   3.159   0.135  2.2709 -2.1164 -1.1923
  289DG     H21 6645   2.039   3.174  -0.036  1.3850  0.8255  1.3321
  289DG     H22 6646   1.833   2.967   0.046  2.5944  2.0620  1.2474
  289DG     H23 6647   1.879   3.016  -0.124 -1.0724  0.2470 -0.7565
  290DG      C1 6648   3.420   1.356   2.145  0.4815  0.1712 -0.1815
  290DG      C2 6649   3.518   1.785   2.947 -0.8785 -0.1303  0.0746
  290DG      H3 6650   3.442   1.440   2.080  0.9208 -2.0376 -3.1222
  290DG      H4 6651   3.321   1.316   2.123  0.9153 -0.6124 -0.7724
  290DG      H5 6652   3.488   1.271   2.139 -1.7497 -2.1038  2.9743
  290DG      H6 6653   3.475   1.817   3.042 -0.8825  2.4015 -0.7064
  290DG      H7 6654   3.586   1.701   2.964 -1.8656 -1.1520 -0.8413
  290DG      H8 6655   3.568   1.866   2.895  0.9702 -1.3901 -0.2170
  290DG      O9 6656   3.420   1.407   2.280  0.0207 -0.2576 -0.0821
  290DG     O10 6657   3.410   1.736   2.866  0.2915  0.0701  0.1738
  290DG     C11 6658   3.318   1.508   2.310  0.8841 -0.4490 -0.1021
  290DG     C12 6659   3.452   1.707   2.730 -0.1064  0.3147  0.1731
  290DG     H13 6660   3.224   1.485   2.259 -0.3261  3.0828  0.3176
  290DG     H14 6661   3.357   1.602   2.271  1.9306 -0.1102  1.6507
  290DG     H15 6662   3.536   1.639   2.738  0.1508  0.1592 -2.6471
  290DG     H16 6663   3.477   1.804   2.688 -1.0337  0.7082  0.4979
  290DG     C17 6664   3.282   1.525   2.455  0.5708 -0.2228  0.1448
  290DG     C18 6665   3.340   1.643   2.645  0.6458  0.2012  0.2032
  290DG     O19 6666   3.380   1.599   2.518 -0.3948  0.3162 -0.0263
  290DG     H20 6667   3.243   1.438   2.509  0.2789  0.2390  0.6916
  290DG     H21 6668   3.196   1.590   2.441  0.1377 -1.0263 -1.0724
  290DG     H22 6669   3.306   1.556   2.701 -2.1460  3.0642  3.3890
  290DG     H23 6670   3.256   1.712   2.635  0.8356  0.7961  2.3460
  291DG      C1 6671   2.059   0.389   1.133  0.6298 -1.2063  0.3030
  291DG      C2 6672   1.786  -0.036   1.874 -0.1093  0.2271  0.0426
  291DG      H3 6673   2.139   0.448   1.089 -1.0536  1.1289  0.2111
  291DG      H4 6674   1.971   0.450   1.151  1.2391 -0.4670  0.8634
  291DG      H5 6675   2.041   0.306   1.065  1.7370 -2.6771  1.7242
  291DG      H6 6676   1.833   0.061   1.891  0.0317  0.1134  0.3075
  291DG      H7 6677   1.678  -0.023   1.863 -0.3137 -0.8674  0.6005
  291DG      H8 6678   1.804  -0.098   1.962 -3.0844 -1.3736 -0.3722
  291DG      O9 6679   2.098   0.322   1.248 -0.6922 -0.3057 -0.1760
  291DG     O10 6680   1.848  -0.108   1.761 -0.0048  0.1250 -1.1415
  291DG     C11 6681   1.997   0.242   1.309 -0.0641  0.0385  0.1464
  291DG     C12 6682   1.841  -0.047   1.629  0.7623  0.7883 -0.1768
  291DG     H13 6683   1.924   0.194   1.244  0.4662 -0.5866 -0.0001
  291DG     H14 6684   1.933   0.293   1.381 -0.8332 -3.2039  1.9695
  291DG     H15 6685   1.777   0.041   1.621  0.5632  0.7445  0.7738
  291DG     H16 6686   1.812  -0.125   1.559  2.2581  0.1849 -0.1569
  291DG     C17 6687   2.056   0.137   1.391  0.3675  0.5720  0.7548
  291DG     C18 6688   1.976   0.004   1.573  0.5616  0.8497  0.2478
  291DG     O19 6689   1.948   0.081   1.461  0.3699 -0.2538 -0.2382
  291DG     H20 6690   2.131   0.172   1.461  1.2768 -0.8357  0.5163
  291DG     H21 6691   2.101   0.059   1.329  1.5783  2.5290 -0.9937
  291DG     H22 6692   2.033   0.065   1.642 -1.2966  2.1051  0.7324
  291DG     H23 6693   2.029  -0.086   1.542 -2.1946 -1.0112  0.5897
  292DG      C1 6694   4.587   5.052   3.196  0.4217  0.3095 -0.0955
  292DG      C2 6695   5.309   5.147   2.999 -0.4620  0.1399  0.3453
  292DG      H3 6696   4.581   5.143   3.135  0.2317  1.0150  0.9492
  292DG      H4 6697   4.532   5.080   3.286 -1.8686  3.3804 -2.2239
  292DG      H5 6698   4.524   4.974   3.154 -0.7177 -0.0265  2.1055
  292DG      H6 6699   5.325   5.179   2.895  0.7849  2.0663  1.0679
  292DG      H7 6700   5.284   5.238   3.052 -0.6526  1.3825 -1.7613
  292DG      H8 6701   5.402   5.106   3.040 -0.6100  0.7480  1.3001
  292DG      O9 6702   4.722   5.013   3.222  0.7492 -0.5854  0.3623
  292DG     O10 6703   5.209   5.060   3.032 -0.1655  0.4278 -0.7844
  292DG     C11 6704   4.781   4.980   3.101  0.5265 -0.3306 -0.1908
  292DG     C12 6705   5.213   4.933   2.970 -0.0070 -0.4620 -0.2778
  292DG     H13 6706   4.790   5.068   3.038 -1.7989 -0.1785 -0.4009
  292DG     H14 6707   4.726   4.902   3.046 -0.5775 -1.4414  2.3371
  292DG     H15 6708   5.311   4.888   2.986  0.0393 -0.9535 -1.7521
  292DG     H16 6709   5.213   4.935   2.861  2.1997 -2.4829 -0.3973
  292DG     C17 6710   4.922   4.944   3.123  0.9458 -0.1968 -0.8022
  292DG     C18 6711   5.112   4.837   3.032  0.4611 -0.3985 -0.6350
  292DG     O19 6712   4.978   4.887   3.007 -0.3709 -0.2344  0.3651
  292DG     H20 6713   4.918   4.866   3.198  1.8347  0.7589  0.2809
  292DG     H21 6714   4.974   5.030   3.164  0.3338  0.0063 -0.4456
  292DG     H22 6715   5.119   4.734   2.999  0.6553 -0.8885  0.8757
  292DG     H23 6716   5.140   4.832   3.137  0.1844  0.9452 -0.4749
  293DG      C1 6717   2.543   2.135   0.948 -0.4698  0.2359  0.6541
  293DG      C2 6718   1.866   1.729   1.120  0.2405 -0.1801 -0.7256
  293DG      H3 6719   2.518   2.233   0.989  0.2740  0.3456  0.8643
  293DG      H4 6720   2.596   2.138   0.853  1.8354  1.1796  1.8751
  293DG      H5 6721   2.615   2.078   1.008 -0.2475 -2.3061 -1.8418
  293DG      H6 6722   1.779   1.695   1.065 -0.1051  1.5603 -1.3240
  293DG      H7 6723   1.910   1.640   1.165  0.4203  0.1440 -0.2477
  293DG      H8 6724   1.833   1.782   1.210 -0.4421 -0.5663 -0.7394
  293DG      O9 6725   2.431   2.054   0.944  0.1506  0.3136  0.2818
  293DG     O10 6726   1.971   1.793   1.042 -0.0722  0.2571  0.3924
  293DG     C11 6727   2.319   2.114   0.865  0.0634  0.5829  0.3042
  293DG     C12 6728   2.067   1.854   1.127  0.9780  0.0086  0.0460
  293DG     H13 6729   2.362   2.151   0.771  1.5478  0.1951  0.8013
  293DG     H14 6730   2.278   2.196   0.924  2.4024  1.8449  0.2993
  293DG     H15 6731   2.096   1.783   1.204  1.7618  1.4878  1.1774
  293DG     H16 6732   2.010   1.935   1.172 -1.1461 -0.9166 -0.8761
  293DG     C17 6733   2.214   2.009   0.820  0.1762  0.7391 -0.0400
  293DG     C18 6734   2.174   1.912   1.031  0.0544 -0.1391 -0.0328
  293DG     O19 6735   2.116   1.974   0.920  0.1951 -0.1399  0.3422
  293DG     H20 6736   2.266   1.925   0.774 -1.9759  0.7821 -2.8498
  293DG     H21 6737   2.157   2.050   0.737 -2.3249 -0.6854  0.8659
  293DG     H22 6738   2.234   1.985   1.086  2.2236 -0.7312 -1.4632
  293DG     H23 6739   2.238   1.826   1.008 -1.1535 -0.9472 -0.4813
  294DG      C1 6740   4.824   3.796   1.934  0.6696  0.1908 -0.0379
  294DG      C2 6741   4.719   3.169   2.128  0.8963  0.3404  0.0091
  294DG      H3 6742   4.816   3.905   1.936  1.3011  0.2681 -0.9149
  294DG      H4 6743   4.803   3.762   1.832  0.1794 -2.0583  0.7449
  294DG      H5 6744   4.930   3.790   1.959  0.7440  0.1106 -0.3600
  294DG      H6 6745   4.826   3.159   2.107  0.5308 -1.5431 -1.1631
  294DG      H7 6746   4.695   3.137   2.229 -0.0897  2.5735  0.5300
  294DG      H8 6747   4.656   3.106   2.065 -2.1939  2.7984  0.4202
  294DG      O9 6748   4.752   3.742   2.036 -0.0736 -0.1583  0.4042
  294DG     O10 6749   4.674   3.303   2.106  0.5160 -0.6576  0.6817
  294DG     C11 6750   4.617   3.792   2.041 -0.4999  0.0404 -0.2284
  294DG     C12 6751   4.535   3.332   2.122  0.3946  0.3787 -0.0907
  294DG     H13 6752   4.572   3.794   1.942  1.6204 -0.5021 -1.2523
  294DG     H14 6753   4.609   3.890   2.087  2.3479 -0.4015  1.4065
  294DG     H15 6754   4.494   3.256   2.188  0.3403  0.1714 -0.3600
  294DG     H16 6755   4.472   3.314   2.034  0.9497 -1.1053 -0.2218
  294DG     C17 6756   4.541   3.696   2.134  0.5895  0.0676 -0.4117
  294DG     C18 6757   4.503   3.470   2.168 -0.0457 -0.3323  0.1398
  294DG     O19 6758   4.554   3.563   2.076  0.2405 -0.3139 -0.3118
  294DG     H20 6759   4.436   3.726   2.143  0.2544 -1.4730  1.4690
  294DG     H21 6760   4.572   3.708   2.237 -0.9866  0.7792  0.0222
  294DG     H22 6761   4.398   3.497   2.175  0.3791  1.6467 -0.3705
  294DG     H23 6762   4.554   3.480   2.264  1.5892  4.0256 -0.9349
  295DG      C1 6763   1.842   5.355   3.928 -0.5762  0.0038  0.1628
  295DG      C2 6764   2.572   5.609   3.576  0.3905 -0.0782 -0.5747
  295DG      H3 6765   1.790   5.361   4.024  0.5535  1.4325  0.7155
  295DG      H4 6766   1.877   5.253   3.916 -1.3270 -0.3618  0.9221
  295DG      H5 6767   1.772   5.365   3.845 -0.5751 -0.7230  0.0669
  295DG      H6 6768   2.643   5.690   3.559 -0.8342  0.7289 -2.0927
  295DG      H7 6769   2.631   5.529   3.623  2.1150  1.1673 -0.4996
  295DG      H8 6770   2.543   5.570   3.478  1.7495 -0.1939 -0.9567
  295DG      O9 6771   1.961   5.428   3.920 -0.5082 -0.8422 -0.0672
  295DG     O10 6772   2.474   5.663   3.652  0.0075 -0.2618  0.2074
  295DG     C11 6773   1.928   5.568   3.901  0.4701  0.2446  0.0232
  295DG     C12 6774   2.360   5.584   3.682  0.3944  0.0737 -0.3976
  295DG     H13 6775   1.865   5.609   3.980  1.7865 -0.0680  1.2867
  295DG     H14 6776   1.884   5.571   3.801  0.3589  1.7091  0.1022
  295DG     H15 6777   2.397   5.492   3.728  1.0533  0.6282  0.2053
  295DG     H16 6778   2.304   5.567   3.590  0.2546 -0.9086 -0.1411
  295DG     C17 6779   2.059   5.642   3.889  0.2806 -0.2338  0.8741
  295DG     C18 6780   2.268   5.657   3.778  0.4894  0.3898 -0.1225
  295DG     O19 6781   2.140   5.597   3.781  0.5068 -0.0543 -1.0968
  295DG     H20 6782   2.107   5.635   3.987 -1.1176 -3.6211  1.4377
  295DG     H21 6783   2.022   5.744   3.876  1.6946  0.2286  0.3201
  295DG     H22 6784   2.312   5.656   3.878 -1.6592 -1.3951  0.8834
  295DG     H23 6785   2.264   5.758   3.736  0.2471 -0.1102 -1.3286
  296DG      C1 6786   0.705   2.920   4.554 -0.0462 -0.2214 -0.4949
  296DG      C2 6787   1.152   2.406   4.222 -0.0945 -0.7887  0.1407
  296DG      H3 6788   0.601   2.927   4.588 -0.1573 -0.2175 -0.8323
  296DG      H4 6789   0.717   2.992   4.473  0.5203  1.6638  1.1621
  296DG      H5 6790   0.768   2.964   4.632  2.1060  0.0190 -2.2672
  296DG      H6 6791   1.087   2.416   4.135 -0.9269  1.7895  0.9408
  296DG      H7 6792   1.229   2.476   4.191 -0.6806 -0.8536 -1.5762
  296DG      H8 6793   1.186   2.303   4.216 -0.6236 -0.8771 -3.0000
  296DG      O9 6794   0.757   2.788   4.536 -0.0608  0.0683 -0.3142
  296DG     O10 6795   1.066   2.446   4.331 -0.5459 -0.2615  0.0204
  296DG     C11 6796   0.678   2.710   4.444 -0.2696  0.7606  0.2072
  296DG     C12 6797   0.957   2.366   4.348  0.3301  0.4313 -0.4830
  296DG     H13 6798   0.700   2.741   4.342  1.8579  1.9377  0.9706
  296DG     H14 6799   0.572   2.732   4.457  0.1331  1.4818  2.9249
  296DG     H15 6800   0.979   2.260   4.361 -0.1041  0.1470 -1.9304
  296DG     H16 6801   0.896   2.376   4.258 -1.2940  1.4335  0.6582
  296DG     C17 6802   0.705   2.564   4.456 -0.1169 -0.7312 -0.1501
  296DG     C18 6803   0.875   2.401   4.467 -0.0272  0.2899 -0.0885
  296DG     O19 6804   0.836   2.538   4.434  0.3089 -0.0886  0.0329
  296DG     H20 6805   0.641   2.505   4.391  1.4651 -1.6573 -0.9434
  296DG     H21 6806   0.676   2.538   4.558 -1.4839 -0.5598 -0.4792
  296DG     H22 6807   0.794   2.327   4.472 -0.2341  0.6179  3.7732
  296DG     H23 6808   0.926   2.396   4.563  1.7892  2.6973 -0.8390
  297DG      C1 6809   0.000   1.919   2.531 -0.1376  0.2081  0.0928
  297DG      C2 6810   0.333   1.794   1.801 -0.0142 -0.1658 -0.2857
  297DG      H3 6811   0.065   1.862   2.598  1.3530  0.2264 -1.2591
  297DG      H4 6812  -0.085   1.852   2.525 -0.9019  1.2908 -2.4319
  297DG      H5 6813  -0.037   2.012   2.575 -2.3228  0.2257 -1.5943
  297DG      H6 6814   0.361   1.899   1.808  1.3548 -0.3339 -2.3365
  297DG      H7 6815   0.423   1.732   1.811  0.6800  0.9298  0.5045
  297DG      H8 6816   0.294   1.778   1.701  0.7646 -3.8526 -0.1568
  297DG      O9 6817   0.060   1.929   2.400 -0.0548  0.3957 -0.1212
  297DG     O10 6818   0.233   1.752   1.903 -0.3765  0.2351  0.6086
  297DG     C11 6819   0.055   1.807   2.322 -0.0439 -0.4321  0.5980
  297DG     C12 6820   0.114   1.822   1.899  0.7850  0.6303 -0.5179
  297DG     H13 6821  -0.049   1.785   2.298  0.1155 -0.5006 -0.0386
  297DG     H14 6822   0.092   1.729   2.389 -2.3867 -0.0901  2.4367
  297DG     H15 6823   0.027   1.762   1.926  1.7396 -1.4158 -1.7536
  297DG     H16 6824   0.086   1.860   1.801 -0.0447 -1.1230 -0.9872
  297DG     C17 6825   0.130   1.814   2.192 -0.7212 -0.8564  0.3716
  297DG     C18 6826   0.123   1.949   1.994 -0.6908  0.3191 -0.0778
  297DG     O19 6827   0.066   1.918   2.123  0.8350 -0.1389  0.1908
  297DG     H20 6828   0.116   1.718   2.143 -0.6725 -0.4103 -0.5331
  297DG     H21 6829   0.233   1.840   2.220 -1.4673 -0.0500  2.5566
  297DG     H22 6830   0.226   1.982   2.007  1.4220 -4.6496 -1.8649
  297DG     H23 6831   0.070   2.031   1.944 -1.4731 -0.1483 -0.0199
  298DG      C1 6832   3.644   4.469   3.645  0.1579  0.1780 -0.1360
  298DG      C2 6833   2.987   4.278   3.565  0.3582 -0.1724 -0.2196
  298DG      H3 6834   3.583   4.455   3.735 -0.8044 -0.9955 -0.9322
  298DG      H4 6835   3.750   4.444   3.654  0.4047  0.7300 -1.3575
  298DG      H5 6836   3.596   4.412   3.566 -2.2345  2.2285 -0.2850
  298DG      H6 6837   3.015   4.173   3.578  0.7939  0.0484  0.7315
  298DG      H7 6838   2.937   4.315   3.655  0.9751 -1.8337  0.8620
  298DG      H8 6839   2.918   4.295   3.483 -0.2561  0.9993  0.5090
  298DG      O9 6840   3.630   4.603   3.603 -0.2999 -0.1206 -0.2183
  298DG     O10 6841   3.100   4.359   3.552 -0.3256  0.1612  0.3193
  298DG     C11 6842   3.500   4.659   3.592 -0.0890 -0.3758 -0.1158
  298DG     C12 6843   3.190   4.318   3.452 -0.5866 -0.0243  0.1398
  298DG     H13 6844   3.515   4.763   3.564 -1.2747  0.0818  0.8746
  298DG     H14 6845   3.447   4.654   3.687 -0.7402 -0.2160 -0.4635
  298DG     H15 6846   3.132   4.277   3.369 -0.8113  1.2729 -0.3582
  298DG     H16 6847   3.249   4.240   3.500 -1.5381 -2.3590 -2.2159
  298DG     C17 6848   3.422   4.615   3.467 -0.1131  0.5333 -0.2778
  298DG     C18 6849   3.286   4.442   3.404  0.1133 -0.1007 -0.4745
  298DG     O19 6850   3.362   4.494   3.511  0.1420  0.6818 -0.1048
  298DG     H20 6851   3.500   4.596   3.394 -0.4191  0.7933 -0.6727
  298DG     H21 6852   3.353   4.696   3.444  0.3119  1.3495  1.1423
  298DG     H22 6853   3.358   4.403   3.332  2.3994 -0.5970  1.9538
  298DG     H23 6854   3.214   4.517   3.370  0.8052  2.2839  2.8435
  299DG      C1 6855   4.543   0.036   0.341 -0.0336 -1.1154 -0.2433
  299DG      C2 6856   4.369  -0.591   0.456 -0.2670  0.2718  0.2617
  299DG      H3 6857   4.445   0.053   0.296 -0.7407  3.1711  2.4267
  299DG      H4 6858   4.615   0.104   0.296 -2.4235  1.7855  0.0303
  299DG      H5 6859   4.543   0.065   0.446 -0.7220 -1.1177 -0.2320
  299DG      H6 6860   4.275  -0.549   0.423 -0.6843  0.8516  2.0522
  299DG      H7 6861   4.413  -0.674   0.401  1.9458 -0.0825  2.3496
  299DG      H8 6862   4.343  -0.635   0.552  2.1992 -0.0432  0.8615
  299DG      O9 6863   4.587  -0.098   0.325  0.7402  0.0603  0.0784
  299DG     O10 6864   4.468  -0.486   0.472  0.4557  0.1622  0.0236
  299DG     C11 6865   4.718  -0.117   0.378  0.1245 -1.0297 -0.6208
  299DG     C12 6866   4.601  -0.530   0.508  1.0261 -0.2524  0.2062
  299DG     H13 6867   4.730  -0.077   0.479  1.7667  1.4912 -1.7170
  299DG     H14 6868   4.774  -0.052   0.311 -1.2357  1.0844  0.2145
  299DG     H15 6869   4.641  -0.599   0.434  2.2985  1.1119 -0.4299
  299DG     H16 6870   4.598  -0.575   0.608  1.7084 -0.0381  0.3257
  299DG     C17 6871   4.779  -0.252   0.353  0.5512  0.4377 -0.1637
  299DG     C18 6872   4.698  -0.410   0.509  0.5923 -0.1758  0.6303
  299DG     O19 6873   4.698  -0.365   0.379 -0.9162  0.1046  0.4596
  299DG     H20 6874   4.872  -0.257   0.410 -0.4423 -1.9221  1.3483
  299DG     H21 6875   4.800  -0.257   0.246 -0.9044  1.1752 -0.5077
  299DG     H22 6876   4.679  -0.328   0.579 -1.4982  0.6685 -0.8206
  299DG     H23 6877   4.792  -0.454   0.540 -0.0234  0.6713  4.1940
  300DG      C1 6878   3.427   4.639   1.479 -0.0076 -0.2021  0.1363
  300DG      C2 6879   3.464   4.551   2.242  0.4132 -0.3993 -0.6372
  300DG      H3 6880   3.524   4.671   1.440 -0.3373 -0.9900 -1.4307
  300DG      H4 6881   3.377   4.735   1.494  1.8889  0.9475 -0.5564
  300DG      H5 6882   3.375   4.580   1.404  1.0699 -2.8930  1.3738
  300DG      H6 6883   3.470   4.463   2.306  2.6378  0.1145 -0.0489
  300DG      H7 6884   3.564   4.569   2.203  0.2522  0.3467 -0.7148
  300DG      H8 6885   3.417   4.633   2.295 -2.1193 -1.0956 -1.6199
  300DG      O9 6886   3.429   4.567   1.602 -1.1065  0.4153  0.6267
  300DG     O10 6887   3.393   4.514   2.119  0.0479  0.3134 -0.0240
  300DG     C11 6888   3.302   4.581   1.662 -0.2928  0.7614  0.0693
  300DG     C12 6889   3.446   4.392   2.057  0.1143  0.1033 -0.2801
  300DG     H13 6890   3.226   4.581   1.583  1.4202 -1.3633 -1.7048
  300DG     H14 6891   3.306   4.676   1.716 -2.1518 -1.0419  3.6804
  300DG     H15 6892   3.465   4.300   2.112 -0.7080  0.4324  0.5788
  300DG     H16 6893   3.542   4.420   2.014 -0.7439 -1.1249 -3.2638
  300DG     C17 6894   3.269   4.471   1.758 -0.1259 -0.0489 -0.2408
  300DG     C18 6895   3.352   4.360   1.942 -0.4355 -0.2939  0.0550
  300DG     O19 6896   3.360   4.477   1.863 -0.2913 -0.3447  0.6000
  300DG     H20 6897   3.278   4.377   1.702 -0.8103  0.2490 -0.8640
  300DG     H21 6898   3.168   4.475   1.798 -0.4486 -0.8631 -0.9279
  300DG     H22 6899   3.406   4.281   1.891  2.4699  1.2782  0.4803
  300DG     H23 6900   3.252   4.329   1.973 -0.7662  0.5781 -0.1026
  301DG      C1 6901   1.692   4.926   3.806 -0.3009  0.2634 -0.8201
  301DG      C2 6902   2.329   5.194   3.766 -0.3935  0.1379 -0.3304
  301DG      H3 6903   1.657   4.991   3.726  0.0125 -0.3004 -1.4383
  301DG      H4 6904   1.622   4.925   3.889 -0.0153  2.8243 -0.4876
  301DG      H5 6905   1.700   4.826   3.763  0.8408 -0.3228  0.6610
  301DG      H6 6906   2.253   5.249   3.711  2.1930  1.8298 -2.4898
  301DG      H7 6907   2.401   5.260   3.814  1.3592 -2.0424  0.2491
  301DG      H8 6908   2.370   5.123   3.694  0.4066 -0.1020  0.3469
  301DG      O9 6909   1.825   4.957   3.845 -0.4416  0.1789 -0.2947
  301DG     O10 6910   2.285   5.114   3.872 -0.1533  0.2541 -0.2274
  301DG     C11 6911   1.886   4.867   3.932  0.4130  1.0686 -1.1689
  301DG     C12 6912   2.228   5.182   3.986  0.1793 -0.6529 -0.0545
  301DG     H13 6913   1.900   4.767   3.890 -1.4003 -0.3391  1.3373
  301DG     H14 6914   1.826   4.856   4.022  0.6521  2.1534 -0.8614
  301DG     H15 6915   2.151   5.259   3.970  0.0382 -0.8655 -0.4032
  301DG     H16 6916   2.310   5.240   4.028 -0.5631  1.7832 -1.7470
  301DG     C17 6917   2.032   4.909   3.968 -0.1660  0.3923  0.5193
  301DG     C18 6918   2.160   5.089   4.082  0.2486  0.1645  0.3111
  301DG     O19 6919   2.036   5.039   4.020  0.2779 -0.1219  0.2046
  301DG     H20 6920   2.087   4.922   3.874  0.9172  1.6353  1.3003
  301DG     H21 6921   2.067   4.835   4.040 -0.9834 -0.2756  0.2500
  301DG     H22 6922   2.238   5.016   4.105  2.5295  1.6142 -2.1666
  301DG     H23 6923   2.139   5.146   4.173  1.1911 -1.6256  1.7134
  302DG      C1 6924   0.541   1.059   1.989  0.4313  0.1708  0.0441
  302DG      C2 6925   0.854   1.042   1.281 -0.0466 -0.3685 -0.4966
  302DG      H3 6926   0.471   0.977   1.976 -0.6892  0.8486  1.5574
  302DG      H4 6927   0.495   1.119   2.068 -1.6647  0.8205 -1.5719
  302DG      H5 6928   0.633   1.018   2.030 -0.4251 -1.0143  0.8329
  302DG      H6 6929   0.824   0.943   1.315 -0.4001 -0.2246 -0.3916
  302DG      H7 6930   0.785   1.057   1.198 -1.2984  0.3985  0.6496
  302DG      H8 6931   0.958   1.037   1.247  0.2916 -1.1229  0.6084
  302DG      O9 6932   0.571   1.124   1.873  0.0489 -0.0997 -0.2755
  302DG     O10 6933   0.845   1.142   1.372  0.4909  0.0143 -0.5908
  302DG     C11 6934   0.675   1.223   1.891  0.0478 -0.2086 -0.0145
  302DG     C12 6935   0.712   1.164   1.412  0.1262  0.0726 -0.0693
  302DG     H13 6936   0.765   1.163   1.910 -1.4290 -2.1979  1.1086
  302DG     H14 6937   0.649   1.294   1.970 -0.8557  2.8434 -2.8440
  302DG     H15 6938   0.650   1.077   1.438 -0.4185 -0.2423 -2.2076
  302DG     H16 6939   0.663   1.212   1.327 -0.2890  1.5082  0.9395
  302DG     C17 6940   0.680   1.291   1.754 -0.2929  0.1101 -0.3561
  302DG     C18 6941   0.696   1.263   1.525 -0.5726 -0.6019  0.6874
  302DG     O19 6942   0.707   1.196   1.650 -0.2282 -0.5150  0.2532
  302DG     H20 6943   0.737   1.383   1.759 -0.7970  0.5999 -2.7428
  302DG     H21 6944   0.581   1.325   1.724 -2.2713 -3.9329  0.9016
  302DG     H22 6945   0.770   1.343   1.512 -1.0192 -0.2709  0.1713
  302DG     H23 6946   0.599   1.312   1.518 -2.0536 -3.4641 -0.8733
  303DG      C1 6947   3.074   3.849   4.248  0.3693  0.3487 -0.4832
  303DG      C2 6948   3.348   4.345   3.809  0.3639  0.1217 -0.0588
  303DG      H3 6949   3.125   3.780   4.181 -1.5024 -1.2253 -0.3918
  303DG      H4 6950   2.967   3.842   4.226  0.8658 -1.8712 -2.5706
  303DG      H5 6951   3.078   3.813   4.351 -2.2127  2.6484  0.5636
  303DG      H6 6952   3.440   4.363   3.865 -0.0540 -0.8848  0.9892
  303DG      H7 6953   3.373   4.276   3.727  0.3024  0.9209 -0.7610
  303DG      H8 6954   3.308   4.436   3.765 -1.0198 -0.6850 -0.5106
  303DG      O9 6955   3.128   3.980   4.244 -0.4835  0.0478  0.0893
  303DG     O10 6956   3.243   4.297   3.899 -0.1826  0.5562 -0.5841
  303DG     C11 6957   3.053   4.072   4.312  0.2186 -0.2106 -0.7900
  303DG     C12 6958   3.200   4.381   4.004 -0.3212  0.2652  0.4460
  303DG     H13 6959   3.079   4.054   4.417  0.7912  0.8744 -0.7282
  303DG     H14 6960   2.945   4.053   4.310 -0.2014  0.8327  2.9304
  303DG     H15 6961   3.187   4.482   3.965 -0.7412 -0.2566 -0.8163
  303DG     H16 6962   3.278   4.376   4.080  0.9693  2.0895 -0.6910
  303DG     C17 6963   3.081   4.214   4.258  0.3025 -0.1039  0.4503
  303DG     C18 6964   3.059   4.347   4.056  0.1003 -0.7618 -0.3942
  303DG     O19 6965   3.067   4.216   4.115 -0.2384 -0.0189 -0.8706
  303DG     H20 6966   3.186   4.228   4.287  0.8196  1.3319 -1.8819
  303DG     H21 6967   3.021   4.290   4.308 -0.4677 -1.0552  1.0048
  303DG     H22 6968   3.029   4.422   4.128  3.1098  1.0945 -0.8987
  303DG     H23 6969   2.984   4.356   3.978 -0.2304  1.6304  0.1273
  304DG      C1 6970   1.493   1.620   1.065  0.8413  0.2769 -0.6041
  304DG      C2 6971   0.836   1.559   1.183  0.4950  0.2959  0.6050
  304DG      H3 6972   1.465   1.715   1.021  2.2608  1.3891  0.8052
  304DG      H4 6973   1.474   1.547   0.986  0.0296  2.1801 -2.2336
  304DG      H5 6974   1.598   1.623   1.091  0.4608  0.7902  0.9790
  304DG      H6 6975   0.742   1.510   1.162  0.3902  0.2766  1.0928
  304DG      H7 6976   0.833   1.567   1.292 -1.4673  3.5580  0.4485
  304DG      H8 6977   0.834   1.661   1.144  0.3027  0.7194  1.6878
  304DG      O9 6978   1.421   1.590   1.186  0.3779 -0.0420 -0.8710
  304DG     O10 6979   0.951   1.500   1.132 -0.2378 -0.5897  0.2345
  304DG     C11 6980   1.451   1.457   1.232  0.3483 -0.2464 -0.0923
  304DG     C12 6981   0.979   1.378   1.199 -0.1062  0.4508  0.1328
  304DG     H13 6982   1.430   1.452   1.338 -1.4075  0.6794 -0.3645
  304DG     H14 6983   1.553   1.421   1.216  0.3578 -0.7318  0.9823
  304DG     H15 6984   0.897   1.309   1.179  0.3314 -0.6843  2.0950
  304DG     H16 6985   0.987   1.389   1.307  2.1247  0.7494 -0.0029
  304DG     C17 6986   1.344   1.363   1.172  0.2582 -0.0455 -1.0882
  304DG     C18 6987   1.117   1.329   1.163  0.3722  0.3320  0.2035
  304DG     O19 6988   1.214   1.423   1.193  0.1166 -0.1544 -0.2254
  304DG     H20 6989   1.352   1.264   1.216  1.2163  1.1665  1.6961
  304DG     H21 6990   1.364   1.354   1.065  0.1066  2.0618 -1.3374
  304DG     H22 6991   1.132   1.246   1.233 -0.7138 -0.7892 -0.8341
  304DG     H23 6992   1.119   1.287   1.062 -1.8295 -0.8117  0.5689
  305DG      C1 6993   1.050   5.437   1.014 -0.2047 -0.1000  0.2854
  305DG      C2 6994   0.591   5.439   1.524  0.1512  0.8005  0.7228
  305DG      H3 6995   1.029   5.539   0.984 -1.0818 -0.7147 -1.2981
  305DG      H4 6996   1.071   5.391   0.918 -1.6976 -0.2798  0.0144
  305DG      H5 6997   1.148   5.446   1.060 -0.5429 -0.5649  1.1264
  305DG      H6 6998   0.566   5.544   1.511 -0.6128  0.4331 -0.9693
  305DG      H7 6999   0.511   5.384   1.574 -1.2966  0.2842 -1.9555
  305DG      H8 7000   0.681   5.427   1.584 -0.4248 -0.6014  1.3513
  305DG      O9 7001   0.939   5.385   1.079 -0.4613  0.3637  0.2192
  305DG     O10 7002   0.617   5.375   1.399  0.0809  0.0849 -0.1689
  305DG     C11 7003   0.955   5.238   1.095 -0.6031 -0.6397  0.5254
  305DG     C12 7004   0.587   5.233   1.404 -0.2450  0.0330  0.0686
  305DG     H13 7005   1.026   5.236   1.178  1.3824  3.0832 -0.8226
  305DG     H14 7006   0.996   5.198   1.002 -3.1083 -2.7987  0.2738
  305DG     H15 7007   0.479   5.220   1.399 -0.1384 -0.9100  0.1241
  305DG     H16 7008   0.622   5.187   1.497 -0.9761  1.5148  1.1295
  305DG     C17 7009   0.823   5.175   1.119  0.3096  0.7279 -0.2156
  305DG     C18 7010   0.641   5.169   1.269 -0.2212 -0.4580  0.1749
  305DG     O19 7011   0.760   5.234   1.228  0.7585  0.4291 -0.4789
  305DG     H20 7012   0.839   5.070   1.143  0.1367  0.7549  0.0210
  305DG     H21 7013   0.764   5.178   1.028  0.1082  0.7748 -0.0831
  305DG     H22 7014   0.669   5.064   1.278 -0.1907 -0.4559  0.0957
  305DG     H23 7015   0.564   5.179   1.192 -0.4179  1.9633  0.5986
  306DG      C1 7016   1.708   0.607   2.495  0.0374  0.4989  0.5220
  306DG      C2 7017   1.553   0.753   3.096  0.0499 -1.0841 -0.4635
  306DG      H3 7018   1.605   0.640   2.504 -0.3655  0.1987 -2.2224
  306DG      H4 7019   1.750   0.665   2.413 -0.4660 -1.8552 -1.5093
  306DG      H5 7020   1.773   0.635   2.578  0.0876  1.1890  0.2594
  306DG      H6 7021   1.561   0.858   3.069 -0.6381 -1.5836 -2.8028
  306DG      H7 7022   1.455   0.732   3.141  0.0885 -0.4177 -0.0531
  306DG      H8 7023   1.627   0.745   3.176 -1.1949  0.5286  0.9435
  306DG      O9 7024   1.720   0.466   2.463 -0.1800 -0.0024 -0.3017
  306DG     O10 7025   1.587   0.670   2.977 -0.0509 -0.9876  0.7117
  306DG     C11 7026   1.712   0.377   2.575 -0.4009 -0.1355 -0.0085
  306DG     C12 7027   1.474   0.646   2.894  0.5646  0.1986 -0.6029
  306DG     H13 7028   1.802   0.386   2.636 -0.1108 -3.3776  0.1817
  306DG     H14 7029   1.735   0.278   2.537  2.0116 -0.4924  2.1203
  306DG     H15 7030   1.467   0.725   2.819 -0.5798  0.2980 -0.4136
  306DG     H16 7031   1.380   0.642   2.949  0.3077 -1.9406 -1.1083
  306DG     C17 7032   1.594   0.383   2.669 -0.2932  0.0734 -0.2000
  306DG     C18 7033   1.494   0.511   2.831 -0.1555 -0.2261 -0.5648
  306DG     O19 7034   1.595   0.508   2.726 -0.3815  0.3018 -0.7437
  306DG     H20 7035   1.615   0.306   2.744  2.9771  1.4704  0.4738
  306DG     H21 7036   1.496   0.355   2.630  0.2152 -4.6517  1.2693
  306DG     H22 7037   1.509   0.439   2.912 -1.3187 -0.6511 -0.7105
  306DG     H23 7038   1.398   0.471   2.797 -0.1330 -1.5858  0.8226
  307DG      C1 7039   3.717   1.896   4.872 -0.0127 -0.4362  0.3836
  307DG      C2 7040   4.182   1.221   4.841  0.0628  0.0284  0.1418
  307DG      H3 7041   3.691   1.848   4.966  1.0343 -1.2318  0.2799
  307DG      H4 7042   3.629   1.941   4.827  0.8497  0.7175 -0.2118
  307DG      H5 7043   3.777   1.985   4.892 -0.1062 -0.5318  1.0963
  307DG      H6 7044   4.188   1.193   4.946  0.5454  2.9846  0.9975
  307DG      H7 7045   4.180   1.127   4.785 -0.3537 -1.2909  2.2586
  307DG      H8 7046   4.273   1.278   4.824  0.3897 -0.0673  1.4326
  307DG      O9 7047   3.768   1.802   4.789 -0.4955 -0.2684  0.4784
  307DG     O10 7048   4.060   1.295   4.832  0.9368 -0.0124 -0.2291
  307DG     C11 7049   3.899   1.760   4.817  0.4791  0.2312  0.1814
  307DG     C12 7050   4.014   1.333   4.701 -0.1546 -0.1001  0.5241
  307DG     H13 7051   3.893   1.741   4.924 -0.7040  0.4435  0.1651
  307DG     H14 7052   3.966   1.842   4.792  1.5672 -0.6415  0.1313
  307DG     H15 7053   4.012   1.248   4.632  0.7981 -0.1897  0.5904
  307DG     H16 7054   4.077   1.396   4.639 -1.7225  1.6958  0.6786
  307DG     C17 7055   3.932   1.632   4.734  0.1774 -0.6005  0.2545
  307DG     C18 7056   3.876   1.396   4.710  0.3653  0.3262  0.0622
  307DG     O19 7057   3.870   1.515   4.795  0.1503  0.6901 -0.5149
  307DG     H20 7058   4.041   1.625   4.739  0.3289  1.4492  0.7112
  307DG     H21 7059   3.907   1.643   4.629  1.6162 -3.1713 -0.4551
  307DG     H22 7060   3.834   1.431   4.615  0.6346  0.6112  0.0444
  307DG     H23 7061   3.801   1.329   4.751 -0.3888  1.6607  0.9230
  308DG      C1 7062   2.966   1.383   3.415 -0.3405  0.0627 -0.4078
  308DG      C2 7063   3.356   1.353   2.936  0.1865  0.5932  0.4852
  308DG      H3 7064   2.900   1.374   3.502  3.2457  0.4771  2.5788
  308DG      H4 7065   2.909   1.413   3.327 -0.3717  1.5698  0.0958
  308DG      H5 7066   3.040   1.458   3.444  0.8153 -0.9183 -0.7531
  308DG      H6 7067   3.386   1.436   2.999 -0.9566  0.7753  0.8207
  308DG      H7 7068   3.432   1.304   2.876 -0.6367 -0.5660  0.3410
  308DG      H8 7069   3.286   1.397   2.865 -1.6189 -1.4639  0.8673
  308DG      O9 7070   3.038   1.266   3.385  0.1053 -0.5315  0.2108
  308DG     O10 7071   3.279   1.266   3.017  0.5139 -0.0200 -0.2229
  308DG     C11 7072   2.954   1.155   3.345 -0.2059 -0.1239  0.2953
  308DG     C12 7073   3.204   1.173   2.939 -0.0873  0.0325  0.0092
  308DG     H13 7074   2.861   1.186   3.298  0.1521 -0.3481 -0.5649
  308DG     H14 7075   2.921   1.097   3.431 -0.1558  1.4520  1.4232
  308DG     H15 7076   3.268   1.115   2.874  2.3615  2.4813  0.0262
  308DG     H16 7077   3.124   1.224   2.885 -0.2156 -0.1731  0.0051
  308DG     C17 7078   3.028   1.061   3.243  0.9420  0.4074 -0.7340
  308DG     C18 7079   3.148   1.069   3.038  0.0920  0.0212 -0.4345
  308DG     O19 7080   3.074   1.142   3.133 -0.0150 -0.0917 -0.2353
  308DG     H20 7081   2.956   0.985   3.214  2.2958 -1.1098 -0.2732
  308DG     H21 7082   3.113   1.011   3.291  1.3102 -0.2012 -1.9826
  308DG     H22 7083   3.086   0.993   2.989 -0.2628  0.6907 -1.0565
  308DG     H23 7084   3.221   1.009   3.091  0.4070  2.1387  1.6640
  309DG      C1 7085   0.949   0.931   1.938 -0.2927 -0.4102 -0.5950
  309DG      C2 7086   0.804   0.326   1.829 -0.9577 -0.1963  0.4913
  309DG      H3 7087   0.878   0.948   1.857  2.0569 -1.8393 -3.1384
  309DG      H4 7088   1.010   1.022   1.944 -1.0071 -0.0013  1.0751
  309DG      H5 7089   0.893   0.909   2.028 -2.6807  0.2776 -1.8285
  309DG      H6 7090   0.804   0.345   1.722  0.1242  1.1267  0.7028
  309DG      H7 7091   0.833   0.221   1.835  2.2040  0.3964 -1.7724
  309DG      H8 7092   0.705   0.339   1.872 -1.5594 -2.7646  0.0531
  309DG      O9 7093   1.030   0.826   1.885  0.0955 -0.4421  0.1663
  309DG     O10 7094   0.894   0.423   1.887  0.3440  0.7588  0.3195
  309DG     C11 7095   1.138   0.794   1.968  0.3335 -0.1561  0.4915
  309DG     C12 7096   0.893   0.413   2.025 -0.1971 -0.0762 -0.4214
  309DG     H13 7097   1.192   0.882   2.002 -0.0559  0.5420 -0.6331
  309DG     H14 7098   1.206   0.728   1.914  0.3061 -0.0860  0.3714
  309DG     H15 7099   0.913   0.313   2.065  1.4898  0.8575  1.2108
  309DG     H16 7100   0.795   0.443   2.063 -0.2105 -0.1259 -0.4161
  309DG     C17 7101   1.088   0.712   2.088 -0.6599 -0.2837  0.0409
  309DG     C18 7102   1.005   0.487   2.085 -0.1958 -0.5059 -0.5635
  309DG     O19 7103   1.003   0.619   2.030 -0.4002 -0.2251 -0.0772
  309DG     H20 7104   1.025   0.762   2.161 -0.2382  1.5840 -0.8055
  309DG     H21 7105   1.173   0.660   2.132 -0.1698 -1.6047 -2.2940
  309DG     H22 7106   0.986   0.505   2.191 -1.2274 -1.3808 -0.5864
  309DG     H23 7107   1.105   0.450   2.063 -0.3770 -1.6310  0.4088
  310DG      C1 7108   4.892   1.282   2.280  0.2660 -0.4689 -0.6367
  310DG      C2 7109   5.336   0.663   2.317 -0.3199 -0.7713 -0.6047
  310DG      H3 7110   4.792   1.267   2.321 -0.0842 -1.6773 -1.8382
  310DG      H4 7111   4.885   1.262   2.173 -1.6011  0.0446 -0.6432
  310DG      H5 7112   4.909   1.387   2.303  2.3435 -0.9610  0.2181
  310DG      H6 7113   5.239   0.623   2.288 -1.1047  1.3181 -1.0013
  310DG      H7 7114   5.408   0.653   2.236 -0.9023  0.8847 -1.3690
  310DG      H8 7115   5.360   0.609   2.409  1.3905 -0.8752 -1.0690
  310DG      O9 7116   4.999   1.215   2.348  0.2711  0.2680  0.6616
  310DG     O10 7117   5.336   0.809   2.337  1.0409 -0.0877 -0.4931
  310DG     C11 7118   5.018   1.237   2.486 -0.0421  0.3026  0.2235
  310DG     C12 7119   5.226   0.854   2.425  0.7612 -0.1418  0.0363
  310DG     H13 7120   4.927   1.214   2.541 -1.2806  3.0137 -0.4823
  310DG     H14 7121   5.031   1.345   2.489 -0.5173  0.4023 -0.7769
  310DG     H15 7122   5.242   0.802   2.520  0.3317 -0.7479 -0.2178
  310DG     H16 7123   5.129   0.831   2.382  0.2573  0.3667  0.8654
  310DG     C17 7124   5.146   1.178   2.550 -0.7185 -0.5112  0.1901
  310DG     C18 7125   5.234   1.006   2.434  0.2483 -0.1564 -0.3368
  310DG     O19 7126   5.142   1.040   2.536  0.2577  0.5786 -0.1470
  310DG     H20 7127   5.134   1.190   2.658  1.5581  0.3941  0.4142
  310DG     H21 7128   5.234   1.240   2.533 -0.7080 -0.6779 -0.3840
  310DG     H22 7129   5.331   1.040   2.469  0.7663 -2.4271  0.6530
  310DG     H23 7130   5.196   1.049   2.341 -1.7118  0.3048  0.6157
  311DG      C1 7131   1.599   5.234   0.735  0.3906  0.2240  0.5863
  311DG      C2 7132   2.233   5.167   0.974 -0.3264  0.0745 -0.2333
  311DG      H3 7133   1.693   5.230   0.681 -0.1069  0.8992 -0.3829
  311DG      H4 7134   1.548   5.324   0.699  0.0597  0.2333  1.0770
  311DG      H5 7135   1.544   5.146   0.703 -1.5099  0.3557  3.1575
  311DG      H6 7136   2.227   5.271   0.942 -1.9574  0.1089  0.1202
  311DG      H7 7137   2.323   5.146   1.032 -0.3370 -2.3231 -0.9761
  311DG      H8 7138   2.242   5.107   0.884 -0.7938 -0.6254  0.1802
  311DG      O9 7139   1.621   5.226   0.872 -0.3491  0.0592 -0.5272
  311DG     O10 7140   2.117   5.121   1.034 -0.1291  0.3969  0.3579
  311DG     C11 7141   1.712   5.335   0.911  0.1176 -0.3584 -0.5907
  311DG     C12 7142   2.065   5.222   1.124  0.4313  0.4054 -0.3506
  311DG     H13 7143   1.651   5.425   0.915  0.1062 -0.4039  1.1599
  311DG     H14 7144   1.802   5.346   0.851  2.8631 -0.8230  3.0798
  311DG     H15 7145   2.059   5.320   1.077 -0.3779 -0.0262 -1.1901
  311DG     H16 7146   2.122   5.248   1.213 -1.4782  1.7027  0.5554
  311DG     C17 7147   1.752   5.301   1.053 -0.1077  0.1150  0.0236
  311DG     C18 7148   1.930   5.175   1.166 -0.3591  0.0290 -0.0208
  311DG     O19 7149   1.836   5.191   1.053 -0.0505  0.1480  0.2028
  311DG     H20 7150   1.673   5.282   1.125  2.4131  1.3322  3.4032
  311DG     H21 7151   1.804   5.388   1.095 -2.6938  0.6346  2.4316
  311DG     H22 7152   1.934   5.070   1.195 -1.4736  0.4809  1.8880
  311DG     H23 7153   1.892   5.225   1.255  3.1623  2.1113  0.4815
  312DG      C1 7154   1.427   1.968   2.781  0.5646 -0.2659 -0.2007
  312DG      C2 7155   2.069   2.355   2.459  0.4706 -0.2009  0.0273
  312DG      H3 7156   1.369   2.053   2.745 -1.3280 -1.3981  0.0531
  312DG      H4 7157   1.405   1.946   2.885  1.1507  3.0469  0.7283
  312DG      H5 7158   1.397   1.880   2.723 -0.0990  0.4109 -0.9235
  312DG      H6 7159   2.065   2.334   2.352  2.9470 -3.6386  0.4515
  312DG      H7 7160   2.003   2.440   2.477 -1.0103 -1.4292  0.6449
  312DG      H8 7161   2.173   2.381   2.481  0.2228  1.6059 -0.7716
  312DG      O9 7162   1.561   1.962   2.756 -0.1777 -0.5323  0.1585
  312DG     O10 7163   2.025   2.243   2.522 -0.2661  0.7993 -0.3375
  312DG     C11 7164   1.637   2.083   2.776 -0.0150  0.1650  0.2192
  312DG     C12 7165   2.069   2.235   2.660  0.0236  0.5875 -0.2363
  312DG     H13 7166   1.609   2.125   2.873 -0.3439  0.4507  0.0043
  312DG     H14 7167   1.611   2.159   2.702 -0.2093  0.2691  0.3953
  312DG     H15 7168   2.035   2.327   2.707 -1.3266  1.2928 -2.4548
  312DG     H16 7169   2.178   2.227   2.664  0.2074  1.9322 -1.7463
  312DG     C17 7170   1.783   2.041   2.758 -0.0327  0.0105 -0.0214
  312DG     C18 7171   2.004   2.112   2.724  0.4363  0.3672  0.1793
  312DG     O19 7172   1.866   2.135   2.697 -0.1451 -0.6854 -0.3457
  312DG     H20 7173   1.784   1.941   2.713  0.0950 -0.1924  0.4257
  312DG     H21 7174   1.830   2.022   2.855  0.9928  0.7180 -0.3670
  312DG     H22 7175   2.042   2.027   2.667  0.7516 -0.1465  1.1310
  312DG     H23 7176   2.028   2.116   2.830 -1.5632 -0.7315  0.7234
  313DG      C1 7177   2.356   2.047   4.282  0.0725 -0.4396 -0.1660
  313DG      C2 7178   1.911   1.585   4.173  0.2388  0.4230  0.2645
  313DG      H3 7179   2.461   2.042   4.308  0.2217  2.3835  0.1097
  313DG      H4 7180   2.312   2.139   4.319 -0.7027 -1.2679  1.0598
  313DG      H5 7181   2.342   2.053   4.174  3.1111 -2.2834 -0.7738
  313DG      H6 7182   1.894   1.692   4.171  1.6127  0.6729 -1.9826
  313DG      H7 7183   2.011   1.574   4.131 -0.2925  0.1792 -0.9797
  313DG      H8 7184   1.840   1.547   4.099 -0.6035  1.1939  0.6588
  313DG      O9 7185   2.285   1.930   4.330  0.0940 -0.0932 -0.2118
  313DG     O10 7186   1.893   1.509   4.288 -0.2498 -0.1435 -0.3388
  313DG     C11 7187   2.335   1.807   4.270  0.4166  0.6194 -0.3983
  313DG     C12 7188   1.944   1.554   4.406  0.4042  0.1332 -0.3677
  313DG     H13 7189   2.444   1.809   4.269  0.4288  1.6076  0.5555
  313DG     H14 7190   2.294   1.781   4.173 -2.9496 -0.5189  1.1718
  313DG     H15 7191   1.906   1.492   4.486  2.9474  0.5413  1.2736
  313DG     H16 7192   1.901   1.651   4.433  0.0927  0.6045 -2.3648
  313DG     C17 7193   2.289   1.689   4.349 -0.7196  0.3399  0.5304
  313DG     C18 7194   2.097   1.569   4.413 -0.0251 -0.0330  0.3531
  313DG     O19 7195   2.150   1.666   4.329 -0.6327 -0.3642 -0.6681
  313DG     H20 7196   2.318   1.713   4.452 -1.7224 -0.7915  1.1029
  313DG     H21 7197   2.331   1.595   4.313  0.2023  0.1300  2.0339
  313DG     H22 7198   2.132   1.578   4.516  0.3470  1.3591  0.1157
  313DG     H23 7199   2.144   1.479   4.372 -0.7454  0.1128 -0.8490
  314DG      C1 7200   2.598   1.431   3.404  1.0158  0.1074  0.0652
  314DG      C2 7201   2.444   1.031   2.822 -0.4449  0.0345  0.2282
  314DG      H3 7202   2.662   1.486   3.335 -0.2929  0.4366 -0.9302
  314DG      H4 7203   2.673   1.410   3.480 -0.8848  3.5538  3.2336
  314DG      H5 7204   2.516   1.489   3.446 -0.2904 -2.1465  0.8550
  314DG      H6 7205   2.357   0.969   2.801 -2.0825  2.1262  0.4676
  314DG      H7 7206   2.406   1.133   2.813  0.6392  0.5775  1.4722
  314DG      H8 7207   2.514   1.010   2.741  0.6517  0.7761  0.9550
  314DG      O9 7208   2.556   1.307   3.335 -0.2335  0.5526  0.3665
  314DG     O10 7209   2.487   1.015   2.953 -0.0540 -0.8187  0.1286
  314DG     C11 7210   2.498   1.212   3.424  0.0060  0.6138  0.2602
  314DG     C12 7211   2.395   0.948   3.029  0.1025 -1.0436 -0.3150
  314DG     H13 7212   2.398   1.243   3.454  0.2198 -0.3340  2.0594
  314DG     H14 7213   2.544   1.202   3.522  1.4115  0.6247 -0.3734
  314DG     H15 7214   2.395   0.841   3.007 -0.3169 -0.8887 -1.1103
  314DG     H16 7215   2.297   0.995   3.027  1.8988  3.1861 -1.4399
  314DG     C17 7216   2.501   1.069   3.364 -0.3240  0.6917 -0.1673
  314DG     C18 7217   2.456   0.944   3.176  0.5638 -0.1201 -0.3039
  314DG     O19 7218   2.473   1.074   3.226 -0.2683  0.2487 -0.2660
  314DG     H20 7219   2.430   1.004   3.416 -0.1008  0.1880 -0.4822
  314DG     H21 7220   2.599   1.023   3.380 -0.3025  1.0348  0.7412
  314DG     H22 7221   2.395   0.882   3.242 -2.4495  2.1522 -0.7425
  314DG     H23 7222   2.556   0.901   3.172  1.7752  2.4156  0.5295
  315DG      C1 7223   1.138   1.490   0.130  0.1189  0.1096 -0.3377
  315DG      C2 7224   0.927   1.635  -0.455 -1.0076 -0.1596 -0.3794
  315DG      H3 7225   1.094   1.590   0.121  1.6225  0.8329  0.0593
  315DG      H4 7226   1.127   1.457   0.233 -0.0317  1.4260  0.0860
  315DG      H5 7227   1.071   1.425   0.074  1.2165 -1.9292  0.5999
  315DG      H6 7228   1.018   1.665  -0.508 -0.3423 -1.5867 -0.0925
  315DG      H7 7229   0.888   1.563  -0.526  0.2291  0.2553 -1.5261
  315DG      H8 7230   0.868   1.724  -0.434  0.7256  1.0290 -0.2553
  315DG      O9 7231   1.270   1.491   0.071 -0.2834 -0.1967 -0.1129
  315DG     O10 7232   0.980   1.569  -0.339 -0.1433  0.2814 -0.8675
  315DG     C11 7233   1.301   1.574  -0.047  0.5253 -0.1995 -0.0590
  315DG     C12 7234   1.027   1.442  -0.369  0.4244 -0.1256 -0.3844
  315DG     H13 7235   1.406   1.556  -0.071  0.6622  0.8224 -0.2799
  315DG     H14 7236   1.304   1.681  -0.030  1.0151 -0.2875  0.4449
  315DG     H15 7237   1.111   1.460  -0.437  2.2787 -2.3495  1.1577
  315DG     H16 7238   0.954   1.384  -0.425 -0.0720  1.3635 -1.3494
  315DG     C17 7239   1.203   1.554  -0.158 -0.2898  0.0096 -0.1861
  315DG     C18 7240   1.064   1.372  -0.238  0.4934  0.0313  0.1232
  315DG     O19 7241   1.195   1.417  -0.196  0.3718  0.3223 -0.6936
  315DG     H20 7242   1.241   1.608  -0.245  0.0099  0.4125  0.1919
  315DG     H21 7243   1.108   1.593  -0.121  0.3997  1.8467 -0.2790
  315DG     H22 7244   0.987   1.373  -0.161  0.3868 -3.8032  0.2785
  315DG     H23 7245   1.070   1.264  -0.252  1.5279  0.0949 -0.0031
  316DG      C1 7246   0.609   1.897   2.406 -0.6715 -0.3139  1.0183
  316DG      C2 7247   0.449   2.510   2.177 -0.0014  0.0658 -0.2535
  316DG      H3 7248   0.640   1.892   2.511 -3.2150 -2.5322  1.7629
  316DG      H4 7249   0.651   1.807   2.363 -1.2231  0.1530 -0.5338
  316DG      H5 7250   0.501   1.888   2.401 -1.0823  2.9057  1.4720
  316DG      H6 7251   0.491   2.603   2.215  0.9020  0.0443 -1.1616
  316DG      H7 7252   0.427   2.531   2.073 -1.1166  0.8184  0.1173
  316DG      H8 7253   0.359   2.490   2.234  0.8967  0.5992  1.4183
  316DG      O9 7254   0.641   2.011   2.329 -0.0746 -0.5712 -0.3383
  316DG     O10 7255   0.560   2.409   2.196  0.4398 -0.6820  0.6694
  316DG     C11 7256   0.785   2.015   2.322 -0.3848  0.6528 -0.1349
  316DG     C12 7257   0.691   2.464   2.166  0.3958 -0.2269  0.0391
  316DG     H13 7258   0.837   1.925   2.291  2.6339  2.0581  0.5229
  316DG     H14 7259   0.825   2.041   2.420  1.0325 -0.8073 -0.2936
  316DG     H15 7260   0.717   2.539   2.241  0.6259  1.0694 -1.2896
  316DG     H16 7261   0.678   2.524   2.076 -2.2455 -1.1868 -0.3165
  316DG     C17 7262   0.838   2.126   2.223 -0.5153 -0.1159  0.0024
  316DG     C18 7263   0.798   2.355   2.152 -0.5226  0.1283  0.1330
  316DG     O19 7264   0.773   2.251   2.250 -0.3355 -0.1652  0.2672
  316DG     H20 7265   0.814   2.089   2.124 -2.3525  2.5428 -0.6471
  316DG     H21 7266   0.946   2.137   2.232 -0.8395  1.8786  4.2112
  316DG     H22 7267   0.801   2.315   2.051  1.0100 -0.4250  0.3675
  316DG     H23 7268   0.896   2.401   2.172 -1.5802  1.2698  3.2823
  317DG      C1 7269   3.808   4.710   1.697 -0.1768  0.4172 -0.5405
  317DG      C2 7270   3.833   5.179   2.151 -0.0595 -0.4180  0.2272
  317DG      H3 7271   3.778   4.768   1.609 -1.2676  0.1463 -0.3632
  317DG      H4 7272   3.791   4.603   1.689  1.8779 -0.1777  1.9586
  317DG      H5 7273   3.915   4.728   1.702  0.1119 -1.5080  1.4288
  317DG      H6 7274   3.938   5.153   2.168  1.0680  2.2382 -1.8453
  317DG      H7 7275   3.849   5.251   2.071  1.2450  0.8122  1.5171
  317DG      H8 7276   3.797   5.225   2.243  1.3274 -0.3481  0.7623
  317DG      O9 7277   3.743   4.759   1.810 -0.8241  0.4749  0.6377
  317DG     O10 7278   3.750   5.063   2.135  0.3600 -0.2563 -0.7426
  317DG     C11 7279   3.608   4.736   1.801  0.1430  0.4556 -0.4972
  317DG     C12 7280   3.611   5.095   2.110 -0.0689 -0.0575  1.0184
  317DG     H13 7281   3.573   4.633   1.791 -3.5534  1.3887  1.1512
  317DG     H14 7282   3.570   4.798   1.720  0.1372  0.0393 -0.8147
  317DG     H15 7283   3.613   5.161   2.024  2.2283  0.2720  1.2625
  317DG     H16 7284   3.565   5.144   2.197 -1.2507  0.0802  0.3466
  317DG     C17 7285   3.552   4.772   1.940 -0.5296 -0.0507 -0.0244
  317DG     C18 7286   3.533   4.973   2.073  0.0340 -0.2101  0.2194
  317DG     O19 7287   3.590   4.909   1.956 -0.2934  0.9796 -0.0287
  317DG     H20 7288   3.587   4.694   2.007 -0.9738 -2.8334 -2.7627
  317DG     H21 7289   3.443   4.765   1.936 -0.4623 -1.3939  0.0353
  317DG     H22 7290   3.538   4.913   2.164 -0.8902 -0.6727 -0.0205
  317DG     H23 7291   3.427   4.999   2.077  0.2852  0.8605  0.1677
  318DG      C1 7292   4.732   1.055   4.050  0.0035  0.7281 -0.6552
  318DG      C2 7293   4.617   1.166   4.658  0.2947 -1.1161 -0.8622
  318DG      H3 7294   4.733   1.099   3.951 -0.5034 -0.9188 -1.4130
  318DG      H4 7295   4.761   0.950   4.050  1.1890  1.0385 -0.9396
  318DG      H5 7296   4.818   1.103   4.097  1.3257 -0.0044 -2.2427
  318DG      H6 7297   4.721   1.193   4.638  0.5856 -2.0157 -0.6160
  318DG      H7 7298   4.568   1.242   4.718 -0.2995 -1.0369 -1.4382
  318DG      H8 7299   4.616   1.067   4.703  0.2113 -0.7699 -0.0971
  318DG      O9 7300   4.612   1.080   4.123  0.8833 -0.1221 -0.2026
  318DG     O10 7301   4.552   1.162   4.532  0.3071  0.0525 -0.0414
  318DG     C11 7302   4.501   0.998   4.090  0.1988 -0.6180 -0.4267
  318DG     C12 7303   4.412   1.128   4.539 -0.7286  0.1156 -0.2373
  318DG     H13 7304   4.545   0.898   4.095 -1.4083 -1.3602 -0.4120
  318DG     H14 7305   4.461   1.007   3.990 -3.2696  0.2005  0.8808
  318DG     H15 7306   4.373   1.207   4.602 -3.7999 -1.0769 -0.4506
  318DG     H16 7307   4.398   1.033   4.590  0.2392 -0.2350 -0.5900
  318DG     C17 7308   4.381   1.032   4.189  0.4287 -0.0893 -0.8054
  318DG     C18 7309   4.347   1.132   4.404  0.3762 -0.3121 -0.9194
  318DG     O19 7310   4.435   1.061   4.310  0.0524 -1.1301  0.3842
  318DG     H20 7311   4.314   0.947   4.203  0.4751  0.1615  1.4312
  318DG     H21 7312   4.331   1.119   4.147  1.5955  1.8781  1.6196
  318DG     H22 7313   4.252   1.079   4.411  0.6068 -0.8501 -1.7152
  318DG     H23 7314   4.334   1.228   4.353  3.5147 -0.5318 -2.3689
  319DG      C1 7315   4.891   1.830   3.015  0.1516 -0.1320 -0.3208
  319DG      C2 7316   4.589   1.783   2.402  0.4240 -0.5481 -0.3518
  319DG      H3 7317   4.894   1.788   3.115  0.9551  1.3355  0.3086
  319DG      H4 7318   4.841   1.927   3.016  1.2618  0.4774 -1.3397
  319DG      H5 7319   4.997   1.842   2.993 -0.2855  0.0546 -2.6123
  319DG      H6 7320   4.504   1.841   2.435 -0.4644 -1.5598 -0.7923
  319DG      H7 7321   4.679   1.838   2.375 -0.1326 -0.9550 -3.3644
  319DG      H8 7322   4.578   1.725   2.310 -0.3678 -0.7307 -0.1455
  319DG      O9 7323   4.829   1.756   2.912 -0.0219 -0.1829 -0.4311
  319DG     O10 7324   4.608   1.696   2.511  0.3300  0.3594  0.3342
  319DG     C11 7325   4.875   1.616   2.910 -0.2987 -0.3485 -1.2095
  319DG     C12 7326   4.700   1.595   2.479 -0.3218  0.3936 -0.2300
  319DG     H13 7327   4.890   1.581   3.012  0.2557  2.6397 -0.1627
  319DG     H14 7328   4.975   1.613   2.866  0.7848  1.6173  0.9234
  319DG     H15 7329   4.792   1.636   2.437  1.7605 -0.7993  2.7981
  319DG     H16 7330   4.652   1.525   2.411  0.4835 -1.2003  0.7779
  319DG     C17 7331   4.797   1.525   2.820 -0.3420  0.3226  0.2798
  319DG     C18 7332   4.731   1.512   2.602  0.2125  0.0725  0.7736
  319DG     O19 7333   4.798   1.592   2.693 -0.4685  0.1014 -0.2172
  319DG     H20 7334   4.694   1.505   2.846 -0.3227 -2.0144 -1.1120
  319DG     H21 7335   4.845   1.427   2.817  0.0586  0.5393 -1.9525
  319DG     H22 7336   4.638   1.476   2.645  1.5423 -1.5986  2.4013
  319DG     H23 7337   4.793   1.423   2.591  0.5247  0.1438  1.8169
  320DG      C1 7338   4.760   2.780   0.783  0.3784 -0.0399 -0.7116
  320DG      C2 7339   5.123   3.196   1.158 -0.1234 -0.3955 -0.2053
  320DG      H3 7340   4.769   2.719   0.693 -0.8401  1.8275 -2.1958
  320DG      H4 7341   4.729   2.877   0.742 -1.1995  0.1520  0.8427
  320DG      H5 7342   4.688   2.741   0.855  1.1166  0.7834  0.5171
  320DG      H6 7343   5.202   3.235   1.222  1.5262  1.3206 -3.1201
  320DG      H7 7344   5.111   3.276   1.086  1.5918  2.2431  2.2394
  320DG      H8 7345   5.038   3.177   1.224 -0.2372 -1.5034 -0.6412
  320DG      O9 7346   4.880   2.787   0.851 -0.5516 -0.0381 -0.1997
  320DG     O10 7347   5.135   3.074   1.089 -0.0097 -0.1599 -0.1614
  320DG     C11 7348   4.925   2.667   0.911  0.2275 -0.1649 -0.3658
  320DG     C12 7349   5.160   2.972   1.184 -0.7899 -0.1584  0.4899
  320DG     H13 7350   4.924   2.585   0.839  1.7510 -1.8408  1.4200
  320DG     H14 7351   4.877   2.643   1.005 -0.8685 -0.7745 -1.0565
  320DG     H15 7352   5.080   2.974   1.259  1.7261 -0.2689  3.3723
  320DG     H16 7353   5.243   3.009   1.244 -1.2329 -1.2161  1.8316
  320DG     C17 7354   5.070   2.683   0.959 -0.3876 -0.0249  0.3062
  320DG     C18 7355   5.171   2.829   1.124  0.3365 -0.6495 -0.0363
  320DG     O19 7356   5.057   2.792   1.048  0.2120 -0.1421 -0.0243
  320DG     H20 7357   5.142   2.708   0.881  0.2069  2.6324  1.5681
  320DG     H21 7358   5.104   2.594   1.011 -0.4699 -0.5347 -0.4922
  320DG     H22 7359   5.257   2.810   1.059  0.5913  0.5545 -0.0648
  320DG     H23 7360   5.170   2.754   1.203 -1.3814 -1.4544 -0.7760
  321DG      C1 7361   3.542   1.641   4.573 -0.3986  0.0331  0.6962
  321DG      C2 7362   3.394   0.818   4.725 -0.8201 -0.0459  0.8451
  321DG      H3 7363   3.646   1.615   4.591 -1.4996 -3.7883  2.7366
  321DG      H4 7364   3.522   1.739   4.616  0.9392  0.3235  0.7022
  321DG      H5 7365   3.527   1.645   4.465 -0.4220  1.0981  0.7253
  321DG      H6 7366   3.377   0.723   4.776  0.5907  0.3183  2.0892
  321DG      H7 7367   3.327   0.829   4.640 -1.2083  1.4647  1.3110
  321DG      H8 7368   3.494   0.793   4.688 -0.8883  1.0015 -0.0688
  321DG      O9 7369   3.467   1.535   4.632 -0.3403  0.7359  0.0728
  321DG     O10 7370   3.388   0.931   4.812  0.4211  0.6416  0.1638
  321DG     C11 7371   3.509   1.512   4.771  0.6380 -0.8206  0.0414
  321DG     C12 7372   3.442   1.041   4.742  0.4633 -0.3542 -0.5072
  321DG     H13 7373   3.483   1.582   4.850  0.3970 -1.5622  0.6326
  321DG     H14 7374   3.617   1.498   4.765  0.5061 -1.3516 -1.8036
  321DG     H15 7375   3.385   1.046   4.649 -0.7561 -1.1558  0.1769
  321DG     H16 7376   3.547   1.032   4.713  0.4976  0.1085 -0.5388
  321DG     C17 7377   3.436   1.395   4.821  1.1939 -0.0293  0.1533
  321DG     C18 7378   3.421   1.168   4.831 -0.5359 -0.1213 -0.2633
  321DG     O19 7379   3.467   1.274   4.753  0.2166 -0.6280  0.2995
  321DG     H20 7380   3.330   1.419   4.813  1.4374  0.5753 -1.6061
  321DG     H21 7381   3.448   1.385   4.929  0.8587 -0.3472  0.1642
  321DG     H22 7382   3.315   1.186   4.854 -1.2707 -2.6295 -1.3458
  321DG     H23 7383   3.487   1.163   4.918  1.0504 -0.2671 -1.4372
  322DG      C1 7384   2.391   0.204   4.926  0.1090  0.2090 -0.5746
  322DG      C2 7385   1.979   0.707   4.584  0.6364  0.4476  0.4818
  322DG      H3 7386   2.376   0.145   5.017 -1.9786  0.8281 -0.4490
  322DG      H4 7387   2.493   0.241   4.934  0.2441 -0.2553 -0.0134
  322DG      H5 7388   2.381   0.136   4.842  1.5751 -1.7255  0.7332
  322DG      H6 7389   1.881   0.750   4.562  0.1557  0.8458  3.1099
  322DG      H7 7390   2.016   0.750   4.677  0.8492  1.1633  0.0759
  322DG      H8 7391   2.049   0.747   4.510  1.7115  1.1258  1.8163
  322DG      O9 7392   2.300   0.312   4.913  0.6775 -0.5372  0.2598
  322DG     O10 7393   1.994   0.564   4.587 -0.2201  0.4005  0.4034
  322DG     C11 7394   2.196   0.318   5.012 -0.6240  0.3591  0.6056
  322DG     C12 7395   1.905   0.502   4.680  0.5554  0.0918  0.2169
  322DG     H13 7396   2.243   0.327   5.110 -1.8360  1.3431  1.1197
  322DG     H14 7397   2.133   0.231   5.000  0.7896 -0.3268 -3.4631
  322DG     H15 7398   1.904   0.395   4.661  0.0931 -0.1220  1.4018
  322DG     H16 7399   1.806   0.543   4.664 -0.0026 -1.6956 -1.1607
  322DG     C17 7400   2.101   0.434   4.987  0.3684  0.2199 -0.6518
  322DG     C18 7401   1.950   0.519   4.825 -0.6697  0.4802 -0.4849
  322DG     O19 7402   2.064   0.430   4.852 -0.3416  0.0802  0.1120
  322DG     H20 7403   2.147   0.532   5.000 -0.8907  0.6305  1.2786
  322DG     H21 7404   2.022   0.425   5.062  1.4749 -0.1237  0.5009
  322DG     H22 7405   1.973   0.622   4.850  1.1539  0.3158 -1.2988
  322DG     H23 7406   1.866   0.488   4.887 -1.9672 -2.9695 -3.5634
  323DG      C1 7407   4.508   4.661   1.963 -0.4532 -0.1790  0.9759
  323DG      C2 7408   3.826   4.469   1.945 -0.1826 -0.2443  0.1449
  323DG      H3 7409   4.600   4.701   1.920 -1.4882 -0.7902 -2.0547
  323DG      H4 7410   4.530   4.567   2.014  0.8423 -0.5363 -0.1693
  323DG      H5 7411   4.461   4.740   2.021 -1.0200  1.5169 -1.6051
  323DG      H6 7412   3.753   4.411   1.889 -1.6526 -0.2022  1.9295
  323DG      H7 7413   3.850   4.423   2.041  0.6633  2.8442  1.5320
  323DG      H8 7414   3.785   4.568   1.968  0.1791 -0.0268 -0.1356
  323DG      O9 7415   4.411   4.636   1.863  0.8010 -0.3022 -0.7450
  323DG     O10 7416   3.946   4.488   1.867  0.0435  0.1717  0.0194
  323DG     C11 7417   4.446   4.532   1.763  0.3169 -0.0263 -0.4038
  323DG     C12 7418   3.989   4.373   1.791  0.2741  0.3674  0.5564
  323DG     H13 7419   4.476   4.441   1.815  0.0790 -0.2331 -0.6243
  323DG     H14 7420   4.532   4.568   1.707 -0.1079  0.2976 -0.8651
  323DG     H15 7421   3.903   4.339   1.734  0.2286  0.4715  0.5617
  323DG     H16 7422   4.021   4.288   1.851 -1.9565 -0.9931 -0.0930
  323DG     C17 7423   4.322   4.515   1.677  0.5454  0.0600 -0.4684
  323DG     C18 7424   4.103   4.419   1.690 -0.1159  0.2177  0.3035
  323DG     O19 7425   4.219   4.459   1.762 -0.0300 -0.6910 -0.6567
  323DG     H20 7426   4.329   4.449   1.590 -1.8637 -0.2034 -0.5457
  323DG     H21 7427   4.284   4.611   1.643  1.1052  0.7218  0.7301
  323DG     H22 7428   4.132   4.335   1.627  0.3004  0.0172  0.7572
  323DG     H23 7429   4.068   4.501   1.628  1.6616 -0.6973 -2.0578
  324DG      C1 7430   4.809   2.669   4.189 -0.0229 -0.6768  0.3503
  324DG      C2 7431   4.384   2.357   3.555  0.3662  0.3244 -0.6332
  324DG      H3 7432   4.913   2.649   4.215  0.1114 -1.5913 -0.8287
  324DG      H4 7433   4.744   2.698   4.271  0.8412  0.4393  0.6782
  324DG      H5 7434   4.796   2.751   4.119 -2.5624  0.3129  1.8312
  324DG      H6 7435   4.358   2.254   3.530 -0.9613 -0.4297  3.2458
  324DG      H7 7436   4.310   2.418   3.607  1.4408  0.4663  0.7957
  324DG      H8 7437   4.414   2.403   3.461 -1.2408  0.3552 -1.1615
  324DG      O9 7438   4.760   2.549   4.128 -0.1708 -0.1455 -0.8335
  324DG     O10 7439   4.493   2.354   3.649 -0.1760 -0.4689 -0.4095
  324DG     C11 7440   4.829   2.507   4.014  0.1305 -0.0503 -0.3921
  324DG     C12 7441   4.450   2.305   3.775 -0.5687  0.6664 -0.2300
  324DG     H13 7442   4.928   2.488   4.055 -0.1944 -0.6708  0.1112
  324DG     H14 7443   4.849   2.582   3.937  1.2500  0.1439  0.0756
  324DG     H15 7444   4.392   2.213   3.766 -1.9129  1.5675 -1.0249
  324DG     H16 7445   4.383   2.376   3.823 -1.5177  0.3993 -1.1226
  324DG     C17 7446   4.767   2.380   3.966 -0.5502 -0.5127  0.4744
  324DG     C18 7447   4.565   2.284   3.873 -0.7632 -0.1789 -0.4961
  324DG     O19 7448   4.646   2.401   3.892 -0.0669 -0.2542  0.4186
  324DG     H20 7449   4.738   2.300   4.034 -2.0963 -0.8693 -0.5668
  324DG     H21 7450   4.834   2.339   3.891 -1.3605  0.4220 -0.8052
  324DG     H22 7451   4.522   2.240   3.963  0.2121  2.0291  1.1455
  324DG     H23 7452   4.632   2.206   3.836 -0.1294  0.0104  0.2149
  325DG      C1 7453   4.597   4.411   1.343  0.2569  0.1925 -1.1416
  325DG      C2 7454   3.828   4.315   1.367 -0.0981 -0.2167  0.5200
  325DG      H3 7455   4.669   4.370   1.414 -0.3615 -2.0484 -1.7126
  325DG      H4 7456   4.575   4.515   1.363  0.3380  0.3633 -1.9294
  325DG      H5 7457   4.653   4.407   1.250  0.7658  0.6826 -0.8615
  325DG      H6 7458   3.818   4.318   1.259  2.1555  0.9804  0.2880
  325DG      H7 7459   3.766   4.231   1.399  0.5264 -0.8030  0.2052
  325DG      H8 7460   3.782   4.406   1.406  2.6567  1.3065  0.4803
  325DG      O9 7461   4.477   4.343   1.348 -0.2229  0.8059  0.0333
  325DG     O10 7462   3.961   4.295   1.415 -0.6621  0.2808  0.4334
  325DG     C11 7463   4.377   4.386   1.255  0.5876 -0.4574 -0.5382
  325DG     C12 7464   4.008   4.172   1.355  1.0348 -0.1167  0.2119
  325DG     H13 7465   4.413   4.413   1.155  0.9629  0.7042 -0.1116
  325DG     H14 7466   4.336   4.474   1.305 -0.6090  1.4841 -4.4751
  325DG     H15 7467   4.004   4.182   1.246  3.0356 -2.1980 -0.1379
  325DG     H16 7468   3.939   4.090   1.374  1.6384 -1.0535 -1.4067
  325DG     C17 7469   4.261   4.286   1.254 -0.1842 -0.0083 -0.5107
  325DG     C18 7470   4.149   4.141   1.397 -0.5986 -0.3243  0.1310
  325DG     O19 7471   4.225   4.259   1.382 -0.4087  1.0268  0.2678
  325DG     H20 7472   4.303   4.193   1.214  0.0111 -0.8474  1.5128
  325DG     H21 7473   4.175   4.324   1.199 -0.8700  2.0854  1.8338
  325DG     H22 7474   4.155   4.114   1.503  1.5104  1.2342  0.4792
  325DG     H23 7475   4.186   4.055   1.343  0.8428 -0.3608  1.1150
  326DG      C1 7476   1.465   5.004   1.071 -0.0284 -0.6945  0.2805
  326DG      C2 7477   0.748   4.977   0.794 -0.1292  0.1438 -0.2089
  326DG      H3 7478   1.534   4.988   0.989 -2.7790 -1.3784 -2.0569
  326DG      H4 7479   1.520   5.011   1.165 -0.5634  1.4183  0.4883
  326DG      H5 7480   1.436   5.109   1.061 -1.6860 -1.1747 -0.2700
  326DG      H6 7481   0.731   5.084   0.805  2.6771  0.9335 -2.3552
  326DG      H7 7482   0.795   4.959   0.697  1.4616 -3.5365  1.0589
  326DG      H8 7483   0.653   4.924   0.789 -0.1828  0.1661  0.5108
  326DG      O9 7484   1.356   4.920   1.082  0.5451  0.6077 -0.1891
  326DG     O10 7485   0.835   4.943   0.901 -0.5995  0.2704 -0.2997
  326DG     C11 7486   1.246   4.957   1.172  0.0411 -0.3630  0.1483
  326DG     C12 7487   0.878   4.809   0.903  0.9682 -0.1647  0.4364
  326DG     H13 7488   1.201   5.053   1.147  1.6232 -0.0463 -1.7108
  326DG     H14 7489   1.287   4.968   1.272  1.2529  2.5880 -0.5578
  326DG     H15 7490   0.936   4.797   0.811  0.9377  1.2780  0.2060
  326DG     H16 7491   0.794   4.742   0.885  1.5134 -0.9617  0.7968
  326DG     C17 7492   1.137   4.854   1.166 -0.3748 -0.0109  0.1625
  326DG     C18 7493   0.958   4.776   1.026 -0.4201 -0.1145 -0.0690
  326DG     O19 7494   1.057   4.879   1.052 -0.3921 -0.0205 -0.0205
  326DG     H20 7495   1.077   4.863   1.257 -1.1969 -1.3579 -0.2279
  326DG     H21 7496   1.190   4.759   1.165 -0.8117 -0.2592  0.3540
  326DG     H22 7497   0.896   4.766   1.115 -0.1615 -1.4466 -0.0079
  326DG     H23 7498   0.998   4.675   1.020  0.1898  0.1789 -1.1096
  327DG      C1 7499   3.934   4.698   0.766 -0.8279 -0.1802  0.0512
  327DG      C2 7500   3.642   5.216   0.459 -0.4968  0.8308 -0.6239
  327DG      H3 7501   4.004   4.615   0.772 -0.7816 -0.0194  2.6293
  327DG      H4 7502   3.851   4.644   0.811 -0.1879 -1.8534 -0.6886
  327DG      H5 7503   3.960   4.786   0.824  0.1573  1.2029 -2.3419
  327DG      H6 7504   3.577   5.228   0.546 -2.4193  1.7021 -2.1213
  327DG      H7 7505   3.730   5.276   0.482  0.5558 -1.0079  0.3890
  327DG      H8 7506   3.587   5.269   0.382  0.1468  0.5365 -1.3017
  327DG      O9 7507   3.900   4.736   0.638  0.2835 -0.0223  0.0805
  327DG     O10 7508   3.686   5.085   0.436 -0.1580  0.3895  0.3984
  327DG     C11 7509   4.012   4.744   0.549 -0.0277 -0.1555 -0.1966
  327DG     C12 7510   3.752   5.074   0.310  0.5008 -0.1534 -0.7029
  327DG     H13 7511   4.077   4.656   0.546  0.0901 -0.0419 -2.0107
  327DG     H14 7512   4.073   4.832   0.568 -0.3279 -0.1246  0.6765
  327DG     H15 7513   3.836   5.144   0.315  1.7333 -1.6728  1.7270
  327DG     H16 7514   3.684   5.084   0.225 -4.1164 -0.9265  2.5688
  327DG     C17 7515   3.953   4.774   0.404  0.2317  0.2732 -0.1234
  327DG     C18 7516   3.822   4.937   0.294 -0.4920  0.0735 -0.2548
  327DG     O19 7517   3.877   4.895   0.412 -0.1399  0.7389 -0.4185
  327DG     H20 7518   3.900   4.686   0.369  0.1904 -0.5849  1.9388
  327DG     H21 7519   4.038   4.775   0.337  0.0475 -0.7959 -0.3867
  327DG     H22 7520   3.766   4.851   0.257  1.7273 -1.6264  0.1351
  327DG     H23 7521   3.901   4.946   0.218  0.0168  0.2400  0.2868
  328DG      C1 7522   2.321   3.039   0.155 -1.6198 -0.0712 -0.9022
  328DG      C2 7523   1.936   2.654   0.620 -0.4502  0.3329  0.1367
  328DG      H3 7524   2.320   3.079   0.053  1.9688 -1.1435 -1.4780
  328DG      H4 7525   2.419   3.060   0.197 -2.1407  2.1948 -0.6671
  328DG      H5 7526   2.238   3.089   0.205 -2.3247 -0.3600 -1.7630
  328DG      H6 7527   1.932   2.545   0.618  0.1328  0.2084  2.6421
  328DG      H7 7528   1.886   2.697   0.706 -1.5494  0.3710 -0.4991
  328DG      H8 7529   1.873   2.695   0.541 -0.9288 -1.4018 -0.4249
  328DG      O9 7530   2.302   2.902   0.140  0.4363 -0.0025  0.2872
  328DG     O10 7531   2.070   2.704   0.606 -0.3037  0.3451  0.2472
  328DG     C11 7532   2.174   2.868   0.098 -0.2590  0.4266  0.0723
  328DG     C12 7533   2.123   2.648   0.480  0.3560 -0.1902 -0.5485
  328DG     H13 7534   2.155   2.889  -0.007 -1.7531 -0.7954  0.0523
  328DG     H14 7535   2.092   2.920   0.148 -1.8072 -1.8082  0.0036
  328DG     H15 7536   2.098   2.542   0.468  1.4581 -0.6034  0.6261
  328DG     H16 7537   2.232   2.648   0.479  0.3718  0.9482 -1.7647
  328DG     C17 7538   2.140   2.720   0.125 -0.0441 -0.4035 -0.1459
  328DG     C18 7539   2.088   2.725   0.354  0.5487 -0.1953  0.0505
  328DG     O19 7540   2.178   2.677   0.254  0.7538 -0.4296  0.0831
  328DG     H20 7541   2.199   2.659   0.056 -0.5118 -0.8252 -0.1739
  328DG     H21 7542   2.039   2.704   0.088  0.3454 -0.0102 -1.4579
  328DG     H22 7543   1.991   2.699   0.314  1.0519 -0.4498 -1.0345
  328DG     H23 7544   2.085   2.832   0.373 -1.5113 -0.6994  3.3717
  329DG      C1 7545   2.425   3.160   4.481  0.5279 -0.2525 -0.8418
  329DG      C2 7546   2.027   2.672   4.556  0.1964  0.2702  0.4465
  329DG      H3 7547   2.487   3.239   4.525  1.9736 -2.0752  0.5574
  329DG      H4 7548   2.395   3.192   4.381  2.0447 -1.1876 -1.6330
  329DG      H5 7549   2.496   3.078   4.480 -1.2639 -2.0404  2.4857
  329DG      H6 7550   2.121   2.627   4.589  0.8712  0.8838 -0.5921
  329DG      H7 7551   1.945   2.606   4.584 -0.3289  1.0027  0.6793
  329DG      H8 7552   2.044   2.655   4.450  1.9416 -1.4931  0.9391
  329DG      O9 7553   2.315   3.131   4.569  0.9135 -0.2246 -0.2959
  329DG     O10 7554   2.011   2.809   4.595 -0.5582  0.1458 -0.4674
  329DG     C11 7555   2.225   3.244   4.562  0.3223  0.4297  0.1318
  329DG     C12 7556   1.920   2.880   4.524 -0.1853  0.6285 -0.0079
  329DG     H13 7557   2.200   3.273   4.460 -1.7652  2.0289  1.0146
  329DG     H14 7558   2.248   3.339   4.612 -1.6286  1.8711 -1.5181
  329DG     H15 7559   1.823   2.837   4.549 -0.3036  0.4166 -0.8194
  329DG     H16 7560   1.938   2.867   4.417 -1.4551 -1.1942 -0.0391
  329DG     C17 7561   2.083   3.208   4.613 -0.8918  0.3066  0.2119
  329DG     C18 7562   1.924   3.020   4.574  0.0966 -0.7759  0.0434
  329DG     O19 7563   2.050   3.078   4.554 -0.5191  0.3362 -0.3463
  329DG     H20 7564   2.016   3.288   4.582 -2.1579 -0.9629 -0.4609
  329DG     H21 7565   2.077   3.202   4.722 -2.4619 -1.6435  0.0720
  329DG     H22 7566   1.853   3.080   4.517 -1.1233 -1.0034  1.2713
  329DG     H23 7567   1.907   3.036   4.680 -2.5353  1.3827 -0.5702
  330DG      C1 7568   0.823   3.811   4.396 -0.0304  0.5716  0.8012
  330DG      C2 7569   0.522   4.101   3.871 -0.8627  0.3301 -0.4600
  330DG      H3 7570   0.741   3.867   4.440 -0.8898 -0.3848  0.4582
  330DG      H4 7571   0.891   3.786   4.478 -1.2976 -2.0371  1.1823
  330DG      H5 7572   0.788   3.718   4.352 -0.0198  0.3489  1.2552
  330DG      H6 7573   0.463   4.183   3.911  0.7608  0.2632  2.3256
  330DG      H7 7574   0.526   4.108   3.762 -1.6690 -0.5848 -0.5534
  330DG      H8 7575   0.487   4.001   3.898  0.6232  0.2957  1.5867
  330DG      O9 7576   0.869   3.899   4.298 -0.1677  0.3875  0.3159
  330DG     O10 7577   0.650   4.104   3.939 -0.3187 -0.7793 -0.2517
  330DG     C11 7578   0.992   3.861   4.232 -0.4343  0.3516  0.1457
  330DG     C12 7579   0.742   4.028   3.869  0.2191 -0.0049 -0.2988
  330DG     H13 7580   0.982   3.761   4.191 -2.7741  1.0916 -1.2776
  330DG     H14 7581   1.078   3.869   4.299  0.4776 -1.2361 -0.7791
  330DG     H15 7582   0.751   4.068   3.768  1.5551 -0.5526 -0.4101
  330DG     H16 7583   0.710   3.925   3.859  0.8777 -0.1512 -0.9779
  330DG     C17 7584   1.009   3.953   4.111 -0.2387  0.8899  0.0828
  330DG     C18 7585   0.884   4.036   3.933 -0.3452 -0.6071  0.1924
  330DG     O19 7586   0.885   3.962   4.051  0.7994 -0.2104  0.2317
  330DG     H20 7587   1.083   3.911   4.044  1.6192  1.5742  1.6139
  330DG     H21 7588   1.041   4.052   4.145 -0.6813  1.3045 -0.6761
  330DG     H22 7589   0.964   3.993   3.872 -0.6833 -2.7951  1.1654
  330DG     H23 7590   0.908   4.141   3.951  2.1581 -1.0094 -0.3771
  331DG      C1 7591   3.280   3.331   0.365 -0.2104  0.0002  0.3245
  331DG      C2 7592   3.180   3.605  -0.305  0.2712  0.0188 -0.5021
  331DG      H3 7593   3.266   3.266   0.451  2.1022  0.2926  0.9932
  331DG      H4 7594   3.346   3.411   0.399  0.9585 -0.4154 -0.8501
  331DG      H5 7595   3.348   3.278   0.297  1.9727  2.4297  0.4769
  331DG      H6 7596   3.271   3.555  -0.340  1.2502  1.2694  0.1771
  331DG      H7 7597   3.114   3.631  -0.388  1.3052  1.6864 -0.8497
  331DG      H8 7598   3.216   3.694  -0.253  0.7960  0.3539 -1.4176
  331DG      O9 7599   3.167   3.379   0.298  0.8308  0.3559 -0.0653
  331DG     O10 7600   3.110   3.510  -0.216 -0.7209  0.3218  0.2339
  331DG     C11 7601   3.089   3.275   0.230  0.1941 -0.6144  0.0645
  331DG     C12 7602   3.021   3.572  -0.130 -0.2607 -0.5715 -0.2464
  331DG     H13 7603   3.043   3.213   0.307  0.1724 -0.3812  0.2399
  331DG     H14 7604   3.155   3.221   0.161  2.3283  0.3492  1.2554
  331DG     H15 7605   2.951   3.634  -0.186 -0.4811  0.5328  1.1918
  331DG     H16 7606   3.076   3.645  -0.070 -1.9695  0.9326 -0.3981
  331DG     C17 7607   2.977   3.341   0.143  0.2411  0.2084 -0.3893
  331DG     C18 7608   2.950   3.475  -0.040 -0.1928  0.2144  0.1618
  331DG     O19 7609   3.043   3.410   0.047 -0.0443 -0.0990  0.3218
  331DG     H20 7610   2.922   3.415   0.200 -2.1897 -1.3545 -0.5629
  331DG     H21 7611   2.916   3.262   0.099  1.6663 -1.8189  1.0467
  331DG     H22 7612   2.872   3.521   0.021  0.8040 -0.5152  2.0877
  331DG     H23 7613   2.891   3.403  -0.097 -1.0113 -0.1948  1.4711
  332DG      C1 7614   2.841   4.839   0.497  0.1613  0.0818  0.4554
  332DG      C2 7615   2.038   4.644   0.501 -0.5827  0.0221 -0.0621
  332DG      H3 7616   2.888   4.804   0.590 -0.4443 -0.8452  0.4237
  332DG      H4 7617   2.840   4.947   0.483  1.8461  0.1658  0.7537
  332DG      H5 7618   2.909   4.788   0.429  0.8854 -1.3500  2.1540
  332DG      H6 7619   1.960   4.715   0.473 -2.4133 -1.4938  0.9150
  332DG      H7 7620   2.003   4.547   0.466 -0.7874  0.2819 -0.5783
  332DG      H8 7621   2.039   4.642   0.610  2.1496 -2.1070 -0.0169
  332DG      O9 7622   2.716   4.774   0.464 -0.0503  0.1838 -0.0975
  332DG     O10 7623   2.168   4.668   0.447  0.3693  0.2015 -0.4663
  332DG     C11 7624   2.657   4.808   0.331 -0.2195 -0.1554  0.1004
  332DG     C12 7625   2.262   4.563   0.475 -0.4462 -0.0922  0.0432
  332DG     H13 7626   2.738   4.836   0.264  0.7455  2.3125  2.1329
  332DG     H14 7627   2.603   4.902   0.334  1.7097  0.9785  1.5658
  332DG     H15 7628   2.207   4.468   0.473 -1.2470  0.3623  0.1328
  332DG     H16 7629   2.302   4.565   0.577 -0.0311  1.5131 -0.1342
  332DG     C17 7630   2.564   4.697   0.287  0.0852 -0.7795 -0.3355
  332DG     C18 7631   2.383   4.559   0.381 -0.1420  0.0735  0.5627
  332DG     O19 7632   2.469   4.677   0.389 -0.1372 -0.0883  0.0663
  332DG     H20 7633   2.628   4.608   0.280  2.6491  0.9030  0.2477
  332DG     H21 7634   2.528   4.708   0.185  0.9298  0.1574 -0.5485
  332DG     H22 7635   2.440   4.469   0.404  0.7197  0.3408 -0.4768
  332DG     H23 7636   2.349   4.546   0.279 -1.7343  0.0888  1.0583
  333DG      C1 7637   4.179   3.912   3.406  0.5151 -0.0030 -0.2641
  333DG      C2 7638   3.931   4.035   2.673 -0.6385  0.7221 -0.3302
  333DG      H3 7639   4.274   3.952   3.373 -0.9809  1.9077 -2.5304
  333DG      H4 7640   4.179   3.813   3.361  3.6527  0.3090 -1.2222
  333DG      H5 7641   4.178   3.884   3.512 -1.2959 -1.2206 -0.5528
  333DG      H6 7642   3.951   3.927   2.673  1.2531  1.0144 -2.0233
  333DG      H7 7643   3.841   4.067   2.621 -0.7289  1.1451  0.0828
  333DG      H8 7644   4.009   4.068   2.605 -0.4888  0.1450 -0.4485
  333DG      O9 7645   4.073   3.992   3.368 -0.3396  0.4268  0.1145
  333DG     O10 7646   3.926   4.098   2.795  0.6342 -0.2781  0.1834
  333DG     C11 7647   4.077   4.022   3.230 -0.1478 -0.8589 -0.0592
  333DG     C12 7648   3.806   4.060   2.864 -0.4089 -0.1203  0.5186
  333DG     H13 7649   4.071   3.933   3.168 -2.5344  0.9508 -2.6516
  333DG     H14 7650   4.175   4.063   3.207 -0.8123  0.9644  0.1904
  333DG     H15 7651   3.799   3.952   2.881  0.5426  0.2299  3.6914
  333DG     H16 7652   3.725   4.110   2.811 -0.9248 -1.9520 -0.5490
  333DG     C17 7653   3.970   4.122   3.198  0.5570  0.4757  1.2653
  333DG     C18 7654   3.811   4.131   3.005 -0.2833  0.8772  0.2395
  333DG     O19 7655   3.948   4.110   3.058 -0.1805  0.3971  0.1371
  333DG     H20 7656   4.001   4.224   3.221  2.7169 -0.2941  2.0438
  333DG     H21 7657   3.874   4.108   3.245  0.0544  0.0242  0.1483
  333DG     H22 7658   3.791   4.238   3.001  2.3483  1.4304 -0.1660
  333DG     H23 7659   3.746   4.082   3.077 -0.1519  2.0572  1.1947
  334DG      C1 7660   1.689   2.032   1.288  0.2760 -0.2891 -0.6360
  334DG      C2 7661   2.146   2.533   1.262  0.0015 -0.2611 -0.3714
  334DG      H3 7662   1.619   2.076   1.358  3.3792  0.2507  2.3709
  334DG      H4 7663   1.759   1.972   1.345 -1.0600 -1.0696  0.2453
  334DG      H5 7664   1.636   1.964   1.221  0.8519 -0.2819 -1.1043
  334DG      H6 7665   2.191   2.483   1.348  0.2670 -1.3064 -1.1097
  334DG      H7 7666   2.234   2.553   1.202  0.6804  1.4936  1.1130
  334DG      H8 7667   2.099   2.629   1.283 -2.5503 -0.9460 -2.4397
  334DG      O9 7668   1.754   2.133   1.211  1.0742 -0.4598 -0.2450
  334DG     O10 7669   2.053   2.451   1.184  0.0875  0.2048 -0.1831
  334DG     C11 7670   1.649   2.199   1.143 -0.6215  0.1809  0.1427
  334DG     C12 7671   1.994   2.519   1.078  0.7896  0.3053  0.0955
  334DG     H13 7672   1.588   2.252   1.216 -0.1111 -0.1021  0.7813
  334DG     H14 7673   1.596   2.126   1.081 -0.4713 -0.2450  0.5091
  334DG     H15 7674   2.075   2.537   1.007  2.1082 -0.8516  1.2357
  334DG     H16 7675   1.956   2.613   1.119  0.2066  0.2655 -0.3382
  334DG     C17 7676   1.706   2.296   1.043 -0.2867 -0.1539 -0.2531
  334DG     C18 7677   1.892   2.426   1.014 -0.3812  0.4010  0.0622
  334DG     O19 7678   1.792   2.387   1.105 -0.2481 -0.0142  0.0604
  334DG     H20 7679   1.618   2.343   0.999  0.8291  2.0849 -0.2158
  334DG     H21 7680   1.756   2.237   0.966 -1.7453 -1.2138 -0.4353
  334DG     H22 7681   1.865   2.476   0.921  1.5314  1.3877 -0.0033
  334DG     H23 7682   1.945   2.340   0.976  0.4259  0.8910  0.0546
  335DG      C1 7683   0.516   1.534   3.208 -0.4367  0.2577 -0.4246
  335DG      C2 7684   0.230   2.037   3.151  1.0237 -1.0410 -0.3365
  335DG      H3 7685   0.617   1.544   3.248 -0.3015  2.2520 -1.1466
  335DG      H4 7686   0.509   1.434   3.165  2.4985 -0.9829  1.6147
  335DG      H5 7687   0.459   1.523   3.299 -1.0605  2.8202 -0.4221
  335DG      H6 7688   0.326   2.089   3.160  0.1252  0.6117  0.0442
  335DG      H7 7689   0.154   2.105   3.111 -0.2163 -2.4122 -0.3650
  335DG      H8 7690   0.206   2.002   3.251  0.6309  2.1788  0.8243
  335DG      O9 7691   0.469   1.644   3.137 -0.2207 -0.2230 -0.1528
  335DG     O10 7692   0.240   1.927   3.072  0.2286  0.3815 -0.1753
  335DG     C11 7693   0.544   1.663   3.021  0.5005 -0.2026 -0.0949
  335DG     C12 7694   0.242   1.953   2.930 -0.4073 -0.3646  1.0557
  335DG     H13 7695   0.543   1.581   2.950 -2.4175 -0.9110  0.6442
  335DG     H14 7696   0.645   1.686   3.056  0.6672  1.8996 -1.7247
  335DG     H15 7697   0.321   2.027   2.917 -1.6693  0.7655 -0.4650
  335DG     H16 7698   0.151   2.003   2.898 -0.8049 -0.3168  2.1984
  335DG     C17 7699   0.486   1.782   2.941 -0.3868 -0.1319  0.1456
  335DG     C18 7700   0.265   1.832   2.847 -0.3444  0.3515  0.6251
  335DG     O19 7701   0.350   1.746   2.920  0.0913  0.0722  0.1943
  335DG     H20 7702   0.539   1.780   2.846  2.2536 -2.1289  1.5651
  335DG     H21 7703   0.499   1.879   2.990 -0.0258 -0.4724  0.7233
  335DG     H22 7704   0.168   1.785   2.833  0.8685 -2.0416 -0.2801
  335DG     H23 7705   0.314   1.851   2.751  2.6645  3.0059  2.4973
  336DG      C1 7706   4.909   3.607   2.288 -0.3246 -0.7284  0.3915
  336DG      C2 7707   4.909   4.063   2.807  0.6667 -0.4476 -0.0144
  336DG      H3 7708   4.806   3.590   2.255 -0.4485 -0.3444  0.5648
  336DG      H4 7709   4.975   3.522   2.277  1.2153  0.6030 -1.2957
  336DG      H5 7710   4.960   3.687   2.235 -2.0526  0.3484  0.2531
  336DG      H6 7711   4.820   4.120   2.832  1.0475  0.2489 -0.2378
  336DG      H7 7712   4.964   4.047   2.900  1.0223  1.6624  0.1706
  336DG      H8 7713   4.961   4.134   2.743 -2.6333  1.5755 -0.7055
  336DG      O9 7714   4.903   3.640   2.423 -0.4398 -0.0270 -0.4281
  336DG     O10 7715   4.875   3.938   2.746 -0.0494 -0.1722 -0.3198
  336DG     C11 7716   4.809   3.563   2.497 -0.1705  0.6083  0.4214
  336DG     C12 7717   4.811   3.851   2.839 -0.0303  0.0188  0.2328
  336DG     H13 7718   4.783   3.471   2.446  2.8801  0.1812 -0.6127
  336DG     H14 7719   4.728   3.635   2.488 -1.4978 -0.7846  0.7542
  336DG     H15 7720   4.726   3.897   2.889 -0.4714 -0.7841  0.2408
  336DG     H16 7721   4.867   3.817   2.926 -0.2986  0.7888  0.7184
  336DG     C17 7722   4.867   3.538   2.642 -1.0113  0.4390 -0.2089
  336DG     C18 7723   4.768   3.726   2.755 -0.5949  0.5191  0.6706
  336DG     O19 7724   4.888   3.664   2.711 -0.2852  0.2526  0.0140
  336DG     H20 7725   4.956   3.475   2.647 -1.9366 -0.9810 -0.8307
  336DG     H21 7726   4.791   3.480   2.695 -0.6733 -0.2021 -0.4139
  336DG     H22 7727   4.708   3.654   2.810 -1.6923  0.6020 -0.3695
  336DG     H23 7728   4.725   3.756   2.659  0.0884 -1.9011 -0.4803
  337DG      C1 7729   0.933   0.736   0.208 -0.1479  0.3359  1.0289
  337DG      C2 7730   0.892   0.392   0.388  0.0090 -0.1556  0.3618
  337DG      H3 7731   0.934   0.643   0.151  2.0010  0.4127  0.8897
  337DG      H4 7732   0.960   0.812   0.135 -2.6479  0.5556  0.2249
  337DG      H5 7733   0.831   0.759   0.239  0.0293  1.3277  0.9120
  337DG      H6 7734   0.877   0.422   0.284 -0.6311  2.2452  1.0889
  337DG      H7 7735   0.896   0.283   0.395  0.3572 -0.1093  0.9946
  337DG      H8 7736   0.799   0.427   0.433  0.6021 -1.7238  3.0035
  337DG      O9 7737   1.028   0.736   0.314  0.5375  0.4555  0.1265
  337DG     O10 7738   1.004   0.450   0.445 -0.0693  0.3893 -0.0932
  337DG     C11 7739   1.159   0.730   0.263 -0.3939  0.4435 -0.3722
  337DG     C12 7740   1.128   0.411   0.385  0.9327 -0.6830 -0.4041
  337DG     H13 7741   1.192   0.818   0.206  0.4726  1.9978  2.3304
  337DG     H14 7742   1.170   0.643   0.198  0.0482  0.3468 -0.1722
  337DG     H15 7743   1.131   0.427   0.277 -0.0139 -2.5901 -0.7484
  337DG     H16 7744   1.150   0.308   0.413  0.1476 -1.2610 -1.8051
  337DG     C17 7745   1.258   0.713   0.379 -0.8317  0.4656 -0.6597
  337DG     C18 7746   1.241   0.489   0.452  0.2463  0.1118 -0.1391
  337DG     O19 7747   1.210   0.619   0.482  0.3380 -0.1510  1.0114
  337DG     H20 7748   1.274   0.812   0.422  0.3034 -0.4628  1.2149
  337DG     H21 7749   1.356   0.687   0.339  1.0146  2.6245  2.0778
  337DG     H22 7750   1.278   0.445   0.544 -0.0248  2.3562  1.0938
  337DG     H23 7751   1.331   0.490   0.390 -0.5488  1.4449 -1.3325
  338DG      C1 7752   5.418   2.951   3.638  0.7312  0.3019 -0.3507
  338DG      C2 7753   5.959   2.746   3.964  0.6312  0.1317  0.9500
  338DG      H3 7754   5.472   3.006   3.562  0.6358  2.8131  1.3043
  338DG      H4 7755   5.397   3.025   3.714 -1.4101  1.5156 -2.0029
  338DG      H5 7756   5.321   2.916   3.601  0.6170  1.0087 -0.7275
  338DG      H6 7757   5.933   2.852   3.970  0.7965  0.5284 -3.1012
  338DG      H7 7758   5.956   2.701   4.064  0.3067 -1.7481  0.1378
  338DG      H8 7759   6.062   2.728   3.934  1.1054 -0.0243  2.5696
  338DG      O9 7760   5.491   2.842   3.680  0.1911  0.1973  0.1042
  338DG     O10 7761   5.865   2.688   3.877  0.4083  0.6389 -0.4519
  338DG     C11 7762   5.491   2.731   3.592  0.5112  0.2950 -0.1935
  338DG     C12 7763   5.884   2.715   3.738 -0.4450  0.4267 -0.0440
  338DG     H13 7764   5.550   2.759   3.504  1.6510 -2.0936 -0.2728
  338DG     H14 7765   5.392   2.704   3.557  0.6552 -1.2178  0.4589
  338DG     H15 7766   5.989   2.706   3.710 -0.2820  0.3663  0.5603
  338DG     H16 7767   5.860   2.818   3.712  1.3445  1.0635  0.6645
  338DG     C17 7768   5.550   2.604   3.655 -0.6057 -0.2488 -0.4507
  338DG     C18 7769   5.789   2.641   3.652 -0.1354  0.6864  0.5872
  338DG     O19 7770   5.667   2.649   3.726  0.3545 -0.1875  0.3397
  338DG     H20 7771   5.562   2.525   3.582  2.5454 -0.0500 -0.2796
  338DG     H21 7772   5.487   2.558   3.731 -0.5578  0.5870  0.1141
  338DG     H22 7773   5.782   2.691   3.555 -0.3445  0.8745  0.6957
  338DG     H23 7774   5.825   2.539   3.642  1.3561  1.2876 -0.4830
  339DG      C1 7775   2.834   3.568   1.983  0.3235  0.1537  0.5285
  339DG      C2 7776   2.870   4.277   1.790 -0.3793 -0.3591 -0.3936
  339DG      H3 7777   2.783   3.488   2.037 -1.1122  1.0018  0.4708
  339DG      H4 7778   2.909   3.599   2.055  1.6621 -0.4626 -0.5645
  339DG      H5 7779   2.883   3.521   1.897  0.0785 -0.5857  0.7830
  339DG      H6 7780   2.821   4.201   1.851 -0.4912 -0.0982 -0.1563
  339DG      H7 7781   2.921   4.340   1.864  0.1123  0.1075 -1.1107
  339DG      H8 7782   2.795   4.342   1.743 -0.0361 -0.6339 -1.3391
  339DG      O9 7783   2.752   3.677   1.945  0.0535  0.1444  0.3228
  339DG     O10 7784   2.952   4.209   1.705 -0.0325  0.1833  0.1354
  339DG     C11 7785   2.830   3.777   1.882  0.2719 -0.2659  0.5719
  339DG     C12 7786   2.881   4.153   1.592 -0.3640 -0.1668 -0.9409
  339DG     H13 7787   2.894   3.734   1.806  0.7150  2.7525 -0.9285
  339DG     H14 7788   2.896   3.827   1.952  1.2587 -1.0216  0.1929
  339DG     H15 7789   2.962   4.116   1.530  0.3947  0.7541 -0.5330
  339DG     H16 7790   2.822   4.223   1.532 -0.2892  1.3051  0.6057
  339DG     C17 7791   2.741   3.872   1.803 -0.1185  0.4431  0.0768
  339DG     C18 7792   2.791   4.033   1.634 -0.4909 -0.7069 -0.2010
  339DG     O19 7793   2.815   3.987   1.766  0.3380 -1.0423 -0.7141
  339DG     H20 7794   2.661   3.904   1.869 -1.4077 -2.3164  0.0062
  339DG     H21 7795   2.684   3.821   1.725 -1.2000  0.7467  0.6492
  339DG     H22 7796   2.686   4.061   1.629 -0.6632 -1.5320 -2.1046
  339DG     H23 7797   2.815   3.953   1.564 -0.9538 -0.5863 -0.5025
  340DG      C1 7798   4.877   2.159   2.081 -0.2694 -0.7904  0.3196
  340DG      C2 7799   5.360   2.648   2.226 -0.1879 -0.1382 -0.0487
  340DG      H3 7800   4.769   2.141   2.080 -0.6007  0.9499  0.8829
  340DG      H4 7801   4.905   2.119   2.178 -1.2886 -1.5642  0.3092
  340DG      H5 7802   4.923   2.096   2.005 -0.3169  0.3905 -0.7447
  340DG      H6 7803   5.411   2.567   2.173  2.2336 -0.2954  2.2728
  340DG      H7 7804   5.420   2.737   2.207 -1.5676  0.5335 -1.4116
  340DG      H8 7805   5.366   2.627   2.333 -0.0063 -0.7339 -0.1726
  340DG      O9 7806   4.908   2.298   2.073 -1.0099  0.1123  0.0824
  340DG     O10 7807   5.224   2.634   2.188 -0.2707  0.4004  0.2153
  340DG     C11 7808   4.892   2.346   1.940 -0.0206 -0.5216 -0.4447
  340DG     C12 7809   5.202   2.685   2.060  0.0734  0.6587  0.3547
  340DG     H13 7810   4.786   2.332   1.917  0.2590  1.3981 -3.5327
  340DG     H14 7811   4.955   2.291   1.869 -0.0988  0.5071 -1.3354
  340DG     H15 7812   5.269   2.657   1.979 -2.4605  0.8634 -1.9607
  340DG     H16 7813   5.213   2.794   2.058 -1.9865  0.9523 -2.2969
  340DG     C17 7814   4.916   2.498   1.952  0.1297 -0.7805 -0.5016
  340DG     C18 7815   5.058   2.667   2.029 -0.3752 -0.8552 -0.4138
  340DG     O19 7816   5.044   2.527   2.002 -0.1296 -0.4525  0.1555
  340DG     H20 7817   4.850   2.546   2.024  0.9203 -0.6358  0.1354
  340DG     H21 7818   4.895   2.549   1.857 -0.7128 -0.3538 -0.1037
  340DG     H22 7819   4.997   2.706   2.110 -0.0746 -1.4710  0.1243
  340DG     H23 7820   5.037   2.723   1.938 -0.2579 -0.5994 -0.2842
  341DG      C1 7821   1.278   0.375   5.334  0.2714  0.3476 -0.6554
  341DG      C2 7822   1.348  -0.158   5.831  0.6887  0.3196  0.1970
  341DG      H3 7823   1.344   0.457   5.307  0.3372  0.2654 -0.7462
  341DG      H4 7824   1.218   0.409   5.418  0.6909 -1.1513  0.2846
  341DG      H5 7825   1.217   0.350   5.246 -0.2822  0.6369 -0.3619
  341DG      H6 7826   1.267  -0.229   5.815 -0.0653  0.8895  1.2929
  341DG      H7 7827   1.443  -0.210   5.837  1.6485  2.1048  1.7653
  341DG      H8 7828   1.326  -0.114   5.929 -0.5705 -0.2118  0.1615
  341DG      O9 7829   1.347   0.263   5.357 -0.0588  0.1672 -0.2057
  341DG     O10 7830   1.347  -0.071   5.722 -0.2449  0.1770 -0.4766
  341DG     C11 7831   1.471   0.267   5.430  0.8443 -0.8102  0.9040
  341DG     C12 7832   1.367  -0.131   5.600  0.3829  0.2069 -0.6216
  341DG     H13 7833   1.456   0.294   5.534  1.4529 -2.6579  1.5121
  341DG     H14 7834   1.538   0.337   5.381  1.4817 -1.7350  0.4296
  341DG     H15 7835   1.286  -0.202   5.583  0.0842  0.0496  1.2316
  341DG     H16 7836   1.459  -0.188   5.601 -0.3638 -1.0933 -2.2872
  341DG     C17 7837   1.542   0.135   5.420  0.3889 -0.4454  0.3520
  341DG     C18 7838   1.384  -0.023   5.493 -0.6732 -0.1928  0.0093
  341DG     O19 7839   1.500   0.047   5.513  0.3496  0.0631 -0.1721
  341DG     H20 7840   1.644   0.163   5.447  1.8978 -3.1979 -1.9476
  341DG     H21 7841   1.544   0.106   5.315  0.8567  1.9909 -0.3916
  341DG     H22 7842   1.397  -0.086   5.405 -0.9095 -0.4044  0.1224
  341DG     H23 7843   1.303   0.051   5.493 -2.1969 -1.7771 -1.6734
  342DG      C1 7844   1.328   5.013   0.137 -1.0995 -0.3058 -0.0679
  342DG      C2 7845   2.023   5.159   0.200 -0.1665  0.2714  0.4830
  342DG      H3 7846   1.266   4.951   0.203 -2.1441  0.2144 -0.5401
  342DG      H4 7847   1.268   5.059   0.059 -3.5083 -1.4901  0.9833
  342DG      H5 7848   1.360   5.093   0.205 -0.5821  1.0779 -1.8732
  342DG      H6 7849   2.107   5.115   0.147 -0.2408  0.8342 -0.1158
  342DG      H7 7850   2.056   5.235   0.271  1.8465 -0.9101  0.8900
  342DG      H8 7851   1.972   5.092   0.269 -2.3361  1.0295 -0.2987
  342DG      O9 7852   1.443   4.949   0.080 -0.3483 -0.4234 -0.1813
  342DG     O10 7853   1.911   5.184   0.114 -1.0814  0.1012 -0.6429
  342DG     C11 7854   1.520   4.870   0.173 -0.2898  0.0722 -0.1284
  342DG     C12 7855   1.804   5.248   0.182 -1.0171 -0.5465  0.5109
  342DG     H13 7856   1.596   4.811   0.123 -0.5221 -0.6048  0.2977
  342DG     H14 7857   1.450   4.806   0.227 -0.0552  1.0631  1.4015
  342DG     H15 7858   1.734   5.306   0.122  2.1681  2.0251 -1.0459
  342DG     H16 7859   1.852   5.325   0.243 -1.2248 -1.9877  2.5893
  342DG     C17 7860   1.594   4.960   0.272  0.0779  0.4322  0.0549
  342DG     C18 7861   1.717   5.159   0.274  0.4142  0.3999 -0.0862
  342DG     O19 7862   1.641   5.066   0.193 -0.0226 -0.2208  0.1889
  342DG     H20 7863   1.676   4.905   0.318  0.0948 -0.0872 -0.5857
  342DG     H21 7864   1.529   4.987   0.356 -0.8596 -2.4438  0.3607
  342DG     H22 7865   1.771   5.096   0.344 -0.1783 -0.0525 -0.0318
  342DG     H23 7866   1.646   5.214   0.335 -0.5289 -0.8299 -0.0467
  343DG      C1 7867   0.572   4.326   3.542  0.2762  0.2030 -0.0357
  343DG      C2 7868  -0.229   4.333   3.623 -0.1444  0.2006  0.1850
  343DG      H3 7869   0.568   4.432   3.566  1.8256  0.2314  0.1956
  343DG      H4 7870   0.631   4.312   3.451  1.1248 -2.8318  0.8712
  343DG      H5 7871   0.639   4.265   3.603  0.9574 -1.7009 -2.5049
  343DG      H6 7872  -0.194   4.344   3.726  0.0782 -0.4825  0.1853
  343DG      H7 7873  -0.269   4.431   3.594 -2.5344 -1.5237 -2.9564
  343DG      H8 7874  -0.305   4.256   3.612  1.1039 -1.0178 -0.0824
  343DG      O9 7875   0.447   4.264   3.515 -0.7003  0.1666  0.2515
  343DG     O10 7876  -0.130   4.306   3.526  0.2170  0.6141  0.1736
  343DG     C11 7877   0.359   4.354   3.444  0.0990  0.3500 -0.9093
  343DG     C12 7878  -0.083   4.176   3.540  0.2464 -0.2015  0.0267
  343DG     H13 7879   0.410   4.412   3.367  0.0133  0.6137 -0.7662
  343DG     H14 7880   0.321   4.437   3.503 -0.8751 -0.0547 -0.9501
  343DG     H15 7881  -0.159   4.104   3.510  1.2803 -1.5439  0.4959
  343DG     H16 7882  -0.045   4.144   3.637  0.8244  1.2576  0.3064
  343DG     C17 7883   0.238   4.278   3.389 -0.1714  0.0459 -0.2061
  343DG     C18 7884   0.031   4.171   3.438 -0.1800  0.2662  0.3964
  343DG     O19 7885   0.134   4.265   3.484 -0.0354  0.1938 -0.3607
  343DG     H20 7886   0.273   4.178   3.363  3.0803  0.3980  2.1664
  343DG     H21 7887   0.195   4.327   3.302 -0.6623  2.1633  1.1337
  343DG     H22 7888   0.068   4.070   3.427 -0.3378 -0.0949  2.6937
  343DG     H23 7889  -0.008   4.203   3.341  0.8221  1.1144  0.2582
  344DG      C1 7890   2.454   2.729   5.282 -0.1988  0.2118 -0.0957
  344DG      C2 7891   2.222   2.383   4.673 -0.2640 -0.3963 -0.4837
  344DG      H3 7892   2.500   2.658   5.351 -2.2582 -0.7988  0.3078
  344DG      H4 7893   2.410   2.812   5.338  0.8722  1.6696 -1.3257
  344DG      H5 7894   2.530   2.771   5.217 -1.6942  1.4384 -1.1192
  344DG      H6 7895   2.302   2.317   4.707 -0.9125 -0.1289  1.7116
  344DG      H7 7896   2.152   2.309   4.636  0.1057 -1.4993  0.9307
  344DG      H8 7897   2.254   2.451   4.595  0.5881 -0.6718 -0.3803
  344DG      O9 7898   2.348   2.666   5.216 -0.2170  0.0088  0.4428
  344DG     O10 7899   2.165   2.459   4.782  0.3535  0.3222 -0.3598
  344DG     C11 7900   2.263   2.754   5.145  0.2756 -0.4246  0.4524
  344DG     C12 7901   2.090   2.390   4.884 -0.4530  0.5009  0.1465
  344DG     H13 7902   2.315   2.793   5.058 -0.1405 -0.1947  0.3038
  344DG     H14 7903   2.250   2.842   5.208  1.4182  1.3386 -1.6212
  344DG     H15 7904   2.157   2.313   4.925 -0.6706  0.1953 -0.0672
  344DG     H16 7905   2.002   2.346   4.838 -0.0046  1.5668 -1.8548
  344DG     C17 7906   2.132   2.679   5.112  0.4878 -0.5870 -0.5888
  344DG     C18 7907   2.052   2.496   4.990 -0.9042  0.1110  0.0856
  344DG     O19 7908   2.169   2.570   5.025  0.1280 -0.3855 -0.0025
  344DG     H20 7909   2.061   2.742   5.057  0.9182  1.3585  0.9563
  344DG     H21 7910   2.092   2.645   5.207 -1.4010 -0.9839 -1.4836
  344DG     H22 7911   1.978   2.567   4.954 -0.3804  0.1900 -0.8667
  344DG     H23 7912   2.005   2.444   5.074 -0.0004  1.1303  1.2528
  345DG      C1 7913   4.457   5.460   4.949 -0.1181 -0.4584  0.4289
  345DG      C2 7914   4.677   6.027   4.690  0.1344 -0.4884 -0.3491
  345DG      H3 7915   4.473   5.381   5.023  0.3926 -1.2794 -0.5200
  345DG      H4 7916   4.440   5.417   4.850  0.6165  2.2094 -0.9301
  345DG      H5 7917   4.359   5.499   4.976 -0.2211 -2.7587  4.0819
  345DG      H6 7918   4.631   6.121   4.722 -2.1548 -2.2863  2.0202
  345DG      H7 7919   4.775   6.054   4.649  0.1047  0.4087  0.1408
  345DG      H8 7920   4.606   5.995   4.613 -1.8206  1.2588  0.6163
  345DG      O9 7921   4.565   5.556   4.964  0.0197 -0.5112 -0.3629
  345DG     O10 7922   4.688   5.937   4.794 -0.5346 -0.6881 -0.2020
  345DG     C11 7923   4.596   5.587   5.097  0.3836  0.1750  0.0773
  345DG     C12 7924   4.749   6.003   4.904 -0.9497  0.2897 -1.0345
  345DG     H13 7925   4.624   5.500   5.157 -0.2516  0.4835  0.8414
  345DG     H14 7926   4.510   5.632   5.147  1.8577 -0.7819  3.7897
  345DG     H15 7927   4.688   6.078   4.954 -3.1187 -1.8032 -0.3594
  345DG     H16 7928   4.842   6.048   4.870  0.3880 -1.2191  0.4312
  345DG     C17 7929   4.711   5.688   5.096  0.2234  0.1972 -0.0402
  345DG     C18 7930   4.784   5.893   5.003 -0.4502  0.1241 -0.3494
  345DG     O19 7931   4.677   5.797   5.013  0.2183  0.8203  0.2907
  345DG     H20 7932   4.800   5.633   5.064  0.4339  1.0327 -0.9471
  345DG     H21 7933   4.728   5.722   5.197 -2.5484  2.1356 -0.1160
  345DG     H22 7934   4.879   5.848   4.975 -0.0222  1.4645 -1.1291
  345DG     H23 7935   4.792   5.924   5.107 -2.7573 -2.9230  0.8984
  346DG      C1 7936   0.992   0.977   0.569  1.1313  0.5273  0.0704
  346DG      C2 7937   0.866   0.324   0.796 -0.5513 -0.0539  0.3804
  346DG      H3 7938   1.027   1.079   0.577 -1.1060  1.3338  0.4286
  346DG      H4 7939   0.902   0.970   0.631  1.4843 -0.4548  0.4983
  346DG      H5 7940   0.948   0.955   0.472 -1.4514 -0.6658  1.4012
  346DG      H6 7941   0.801   0.303   0.712  0.2380 -0.6517 -0.0999
  346DG      H7 7942   0.913   0.226   0.813 -0.0582  0.3666  1.5451
  346DG      H8 7943   0.793   0.353   0.871  0.0838  0.5724  0.7695
  346DG      O9 7944   1.095   0.884   0.611  0.4193  0.0268 -0.1710
  346DG     O10 7945   0.953   0.433   0.769 -0.2639  0.0746 -0.1416
  346DG     C11 7946   1.131   0.897   0.747 -0.0549 -0.5495  0.7288
  346DG     C12 7947   1.030   0.450   0.886  0.2815 -0.4736  0.3033
  346DG     H13 7948   1.051   0.930   0.814  0.3925 -0.0200  1.0102
  346DG     H14 7949   1.200   0.981   0.754 -0.5121 -0.2769  2.7987
  346DG     H15 7950   1.083   0.363   0.925  0.7490 -0.4462 -0.2616
  346DG     H16 7951   0.976   0.488   0.973  1.5285  1.5603  0.2748
  346DG     C17 7952   1.204   0.765   0.789 -0.1832 -0.4005  0.1003
  346DG     C18 7953   1.148   0.540   0.847  0.4870 -0.0433  0.5609
  346DG     O19 7954   1.109   0.659   0.797 -0.0057 -0.7329  0.8516
  346DG     H20 7955   1.250   0.792   0.884  0.4896  3.1485 -1.0627
  346DG     H21 7956   1.281   0.732   0.720 -0.6253 -1.5738  0.1503
  346DG     H22 7957   1.217   0.555   0.930 -0.7864 -0.6877  1.7586
  346DG     H23 7958   1.213   0.489   0.776  0.6804  0.7520  0.1524
  347DG      C1 7959   2.820   1.042   4.912 -0.7268  0.3156  0.6515
  347DG      C2 7960   2.155   0.874   5.095 -0.4141  0.0750 -0.1051
  347DG      H3 7961   2.867   1.031   5.010  0.0156  1.4251  0.4391
  347DG      H4 7962   2.877   1.127   4.873 -0.5082 -0.3213 -0.4475
  347DG      H5 7963   2.841   0.958   4.847 -0.3192  1.3937 -0.6509
  347DG      H6 7964   2.126   0.876   5.200  0.9286 -0.1353  0.2884
  347DG      H7 7965   2.071   0.909   5.037 -0.4220 -1.4196 -1.0626
  347DG      H8 7966   2.195   0.779   5.057 -0.2073  0.4999 -0.9634
  347DG      O9 7967   2.680   1.074   4.918 -0.6640  0.3563  0.2681
  347DG     O10 7968   2.257   0.966   5.065  0.1443  0.1285  0.7429
  347DG     C11 7969   2.664   1.204   4.974  0.1270 -0.1394  0.2853
  347DG     C12 7970   2.220   1.099   5.094  0.2074 -0.3149 -0.0073
  347DG     H13 7971   2.735   1.277   4.936  0.3010  0.4572  1.6720
  347DG     H14 7972   2.679   1.190   5.081  2.0097 -1.0171 -0.0534
  347DG     H15 7973   2.175   1.119   5.192  0.2757 -1.2030  0.2191
  347DG     H16 7974   2.145   1.133   5.023  0.6270 -1.2379 -0.9222
  347DG     C17 7975   2.523   1.255   4.933 -0.4990  0.2226  0.1084
  347DG     C18 7976   2.349   1.183   5.084  0.6007 -0.8873  0.2135
  347DG     O19 7977   2.424   1.152   4.967  0.1897  0.0423 -0.4349
  347DG     H20 7978   2.530   1.261   4.824 -1.2075  1.5660  0.1171
  347DG     H21 7979   2.498   1.352   4.977  1.7422  0.9605 -0.1288
  347DG     H22 7980   2.312   1.284   5.101 -1.5880 -1.7892  1.2157
  347DG     H23 7981   2.412   1.171   5.172  1.0910  3.2500  0.6011
  348DG      C1 7982   0.002   0.902   3.103  0.0818  0.1824 -0.2718
  348DG      C2 7983   0.199   0.464   2.654 -0.6602 -0.2020  0.3614
  348DG      H3 7984  -0.088   0.841   3.097 -0.5428  1.0067  0.4183
  348DG      H4 7985  -0.023   0.998   3.148  0.1477  0.1269 -0.1152
  348DG      H5 7986   0.068   0.855   3.176  0.6226  2.2824  0.6655
  348DG      H6 7987   0.211   0.414   2.750  1.3907  0.7961  0.6644
  348DG      H7 7988   0.104   0.430   2.611  0.4448  0.1526 -2.5526
  348DG      H8 7989   0.268   0.423   2.581  0.8702  1.4284  0.8332
  348DG      O9 7990   0.061   0.911   2.977  0.0411  0.1724  0.3343
  348DG     O10 7991   0.192   0.602   2.667 -0.1445 -0.0146  0.3574
  348DG     C11 7992  -0.006   0.991   2.884 -0.3046  0.7185  0.8407
  348DG     C12 7993   0.127   0.670   2.563 -0.2048 -0.4304 -0.2361
  348DG     H13 7994   0.001   1.096   2.911  2.1786  1.2851 -1.4857
  348DG     H14 7995  -0.106   0.953   2.863  1.4985 -3.0163 -2.4571
  348DG     H15 7996   0.027   0.626   2.567  0.4767 -2.1181 -0.6197
  348DG     H16 7997   0.174   0.652   2.466  1.0655 -3.4046  0.8064
  348DG     C17 7998   0.067   0.980   2.749 -0.6222  0.7214 -0.2377
  348DG     C18 7999   0.127   0.821   2.582 -0.5584  0.0787  0.4868
  348DG     O19 8000   0.070   0.842   2.707  0.2751  0.0470  0.4866
  348DG     H20 8001   0.171   1.013   2.761  0.4526 -1.6298 -2.1026
  348DG     H21 8002   0.020   1.037   2.669 -0.6299  0.7116 -0.2399
  348DG     H22 8003   0.229   0.856   2.568 -1.1119  1.8405  0.6522
  348DG     H23 8004   0.067   0.869   2.504  0.2703  1.2610  0.5498
  349DG      C1 8005   4.578   3.999   0.837  0.6011  0.2269  0.0928
  349DG      C2 8006   4.588   3.429   1.252 -0.4007  0.0665  0.4375
  349DG      H3 8007   4.570   3.938   0.747 -0.8606 -1.3728  1.2531
  349DG      H4 8008   4.678   4.044   0.836  0.3079  0.9019  0.4412
  349DG      H5 8009   4.494   4.067   0.823  0.1735 -0.1216  0.9330
  349DG      H6 8010   4.692   3.413   1.280  0.0832  1.1325 -0.6575
  349DG      H7 8011   4.529   3.377   1.328  2.1835 -2.5568  0.8365
  349DG      H8 8012   4.576   3.403   1.147  2.3028  0.8316 -0.1292
  349DG      O9 8013   4.531   3.934   0.952  0.6544  0.3762  0.2016
  349DG     O10 8014   4.570   3.573   1.244 -0.4054  0.3180  0.0619
  349DG     C11 8015   4.558   4.017   1.069  0.6166 -0.0056  0.2717
  349DG     C12 8016   4.561   3.649   1.364 -0.2362  0.3225 -0.1688
  349DG     H13 8017   4.499   4.106   1.046 -1.6674 -1.5883 -0.3463
  349DG     H14 8018   4.664   4.041   1.071  0.5745  0.8992 -2.7545
  349DG     H15 8019   4.651   3.650   1.426  1.5404 -0.2451 -2.6037
  349DG     H16 8020   4.479   3.596   1.413 -2.3256  2.0083 -1.6801
  349DG     C17 8021   4.499   3.967   1.202  0.6814 -0.4452  0.4696
  349DG     C18 8022   4.497   3.788   1.330  0.1613  0.1707  0.0522
  349DG     O19 8023   4.545   3.842   1.214 -0.0938 -0.5223 -0.5403
  349DG     H20 8024   4.391   3.960   1.186  0.5905  0.6144  0.5129
  349DG     H21 8025   4.522   4.040   1.280  1.8126  1.2016 -1.3243
  349DG     H22 8026   4.389   3.778   1.324  0.0664  1.7162 -1.6296
  349DG     H23 8027   4.520   3.847   1.418  1.7885  1.1604 -0.9778
  350DG      C1 8028   5.179   3.504   4.921 -0.0322 -0.4011 -0.1258
  350DG      C2 8029   5.537   3.384   5.504  0.5295 -0.2997 -0.0576
  350DG      H3 8030   5.097   3.576   4.923  0.9633  0.8161  2.4865
  350DG      H4 8031   5.160   3.429   4.844 -1.2246 -1.3638  1.0550
  350DG      H5 8032   5.264   3.561   4.884 -0.8824  0.8986 -0.1200
  350DG      H6 8033   5.558   3.313   5.424 -1.1199 -0.2633 -0.5515
  350DG      H7 8034   5.591   3.477   5.490 -0.3658  0.2007 -0.2315
  350DG      H8 8035   5.565   3.335   5.598 -0.5089  2.7750  2.0070
  350DG      O9 8036   5.188   3.448   5.055 -0.6334  0.1810  0.1912
  350DG     O10 8037   5.403   3.411   5.490  0.1431  0.0528  0.3967
  350DG     C11 8038   5.180   3.541   5.161 -0.6256  0.3926  0.3672
  350DG     C12 8039   5.356   3.512   5.570  0.1619  0.8471 -0.1663
  350DG     H13 8040   5.097   3.610   5.147  0.7233  2.0328  0.2449
  350DG     H14 8041   5.272   3.598   5.154 -0.3402 -0.1378 -0.4727
  350DG     H15 8042   5.411   3.604   5.548  2.2962  0.3336  2.4322
  350DG     H16 8043   5.354   3.483   5.675  1.8861 -0.6268 -0.4834
  350DG     C17 8044   5.177   3.473   5.302 -0.1559 -0.4140 -0.1743
  350DG     C18 8045   5.213   3.547   5.524  0.0243 -0.2466 -0.1163
  350DG     O19 8046   5.219   3.575   5.388 -0.7960 -0.1300  0.0619
  350DG     H20 8047   5.256   3.398   5.311  2.0087  1.9597  2.4519
  350DG     H21 8048   5.083   3.424   5.327  0.0777 -1.0364 -0.4928
  350DG     H22 8049   5.142   3.470   5.553 -1.8437  1.4269 -0.1126
  350DG     H23 8050   5.168   3.636   5.568 -1.4979 -1.1859  0.2839
  351DG      C1 8051   0.172   2.499   4.126 -0.1379  0.6195  0.0726
  351DG      C2 8052   0.225   3.089   3.753 -0.4771 -0.1193 -0.2254
  351DG      H3 8053   0.162   2.447   4.030 -0.7460  1.4469 -0.3223
  351DG      H4 8054   0.105   2.448   4.195  3.6522 -3.2109  1.3653
  351DG      H5 8055   0.273   2.490   4.164  0.1425 -0.6464 -0.8982
  351DG      H6 8056   0.193   3.042   3.659  1.5022 -0.8360 -0.6028
  351DG      H7 8057   0.200   3.195   3.756 -0.7766 -0.2031  1.9233
  351DG      H8 8058   0.333   3.075   3.763 -0.1715  1.5360 -0.9286
  351DG      O9 8059   0.137   2.633   4.113  0.2221  0.4317  0.4007
  351DG     O10 8060   0.157   3.031   3.864 -0.0298  0.1267  0.1676
  351DG     C11 8061   0.184   2.708   4.225 -0.4929  0.2018  0.5033
  351DG     C12 8062   0.187   3.104   3.988  0.0676  0.8896  0.2988
  351DG     H13 8063   0.291   2.725   4.229 -0.2804 -0.8797 -0.1657
  351DG     H14 8064   0.158   2.654   4.316 -0.5865 -0.7879 -0.0881
  351DG     H15 8065   0.150   3.205   3.969  1.1949  0.8911 -2.3091
  351DG     H16 8066   0.296   3.110   3.995  0.2273 -0.2415 -0.8676
  351DG     C17 8067   0.113   2.839   4.221  0.1844  0.3712 -0.6639
  351DG     C18 8068   0.111   3.040   4.105 -0.5702  0.0968  0.5768
  351DG     O19 8069   0.159   2.908   4.111 -0.1045 -0.1248  0.1385
  351DG     H20 8070   0.141   2.894   4.311 -0.6073 -1.6426  0.8856
  351DG     H21 8071   0.005   2.825   4.222  0.2354 -0.6516  2.8542
  351DG     H22 8072   0.116   3.092   4.200 -1.2533  1.9022 -0.3220
  351DG     H23 8073   0.005   3.049   4.082 -0.5703  0.8250  0.8677
  352DG      C1 8074   1.990   1.963   4.136  0.6367  0.4556  0.2428
  352DG      C2 8075   1.276   1.861   4.263  0.7135  0.7794 -0.0100
  352DG      H3 8076   1.975   1.888   4.059  0.6443  0.2032  0.4851
  352DG      H4 8077   2.031   1.917   4.226  1.8368  0.4147 -0.3149
  352DG      H5 8078   2.071   2.026   4.099  0.1121  0.5027 -0.8520
  352DG      H6 8079   1.280   1.855   4.371 -1.4378  0.9688  0.1326
  352DG      H7 8080   1.181   1.908   4.236  1.1898  0.9995 -1.4251
  352DG      H8 8081   1.277   1.761   4.220 -0.8180  0.6848  0.1102
  352DG      O9 8082   1.881   2.043   4.158 -0.1924 -0.5726 -0.7925
  352DG     O10 8083   1.377   1.944   4.213 -0.6326  0.4550  0.4098
  352DG     C11 8084   1.820   2.097   4.043 -0.3659 -0.3131 -0.6145
  352DG     C12 8085   1.388   2.068   4.281  0.1858  0.3571 -0.1180
  352DG     H13 8086   1.800   2.016   3.972 -2.3991  0.1792 -0.6869
  352DG     H14 8087   1.894   2.157   3.991  0.2401  0.0074  0.5894
  352DG     H15 8088   1.426   2.032   4.377 -0.6109 -1.8087 -0.5486
  352DG     H16 8089   1.290   2.112   4.294 -0.5657 -1.1030 -0.6412
  352DG     C17 8090   1.687   2.176   4.072  0.3319 -0.1728  0.5386
  352DG     C18 8091   1.501   2.159   4.222 -0.1443  0.0605  0.1587
  352DG     O19 8092   1.583   2.090   4.125  0.0979 -0.4113  0.0006
  352DG     H20 8093   1.655   2.221   3.979  0.5461 -0.8364  0.1371
  352DG     H21 8094   1.708   2.258   4.141 -1.0149  2.6682 -2.2386
  352DG     H22 8095   1.452   2.248   4.183  0.5566 -0.4870 -2.1490
  352DG     H23 8096   1.573   2.202   4.292  0.2204 -1.7897  0.9797
  353DG      C1 8097   5.066   4.134   3.374 -0.0499 -0.5008 -0.0168
  353DG      C2 8098   4.499   4.180   3.724 -0.3779 -0.8212  0.3953
  353DG      H3 8099   5.069   4.239   3.403 -1.8761 -0.5257  0.3452
  353DG      H4 8100   5.152   4.123   3.307  1.7682 -0.6037  2.1958
  353DG      H5 8101   5.090   4.066   3.456  0.3424 -1.1330 -0.6424
  353DG      H6 8102   4.403   4.138   3.752 -1.0847  1.5053  1.6948
  353DG      H7 8103   4.573   4.153   3.799  0.8174 -0.3170 -0.5631
  353DG      H8 8104   4.493   4.289   3.732  0.3483 -0.8119  0.8637
  353DG      O9 8105   4.948   4.107   3.314  0.4858 -0.3271  0.1137
  353DG     O10 8106   4.548   4.149   3.590  0.1933 -0.5245 -0.1640
  353DG     C11 8107   4.931   3.974   3.267  0.7025  0.1313  0.1768
  353DG     C12 8108   4.570   4.008   3.576  0.5999 -0.2450 -0.2127
  353DG     H13 8109   4.982   3.894   3.319 -1.2498 -1.6191 -0.4689
  353DG     H14 8110   4.965   3.972   3.164  0.7252 -0.9637  0.2031
  353DG     H15 8111   4.464   3.981   3.585  0.0895  1.7549  0.2214
  353DG     H16 8112   4.631   3.950   3.644 -2.2873 -2.4488  0.7020
  353DG     C17 8113   4.781   3.956   3.277 -0.0249 -0.2178  0.1775
  353DG     C18 8114   4.601   3.972   3.433 -0.0180 -0.1596  0.0171
  353DG     O19 8115   4.743   3.992   3.410  0.5371  0.4897 -0.3361
  353DG     H20 8116   4.736   3.860   3.254 -0.4573  0.1729 -0.6456
  353DG     H21 8117   4.740   4.020   3.198 -2.3320 -0.3699  1.1630
  353DG     H22 8118   4.580   3.868   3.411 -1.6422 -0.0699  0.9774
  353DG     H23 8119   4.542   4.038   3.369  0.5395 -0.3002 -0.6499
  354DG      C1 8120   0.677   1.866   4.209 -0.5893 -1.2385 -0.2543
  354DG      C2 8121   1.283   2.246   3.932 -0.1399 -0.1450 -0.6931
  354DG      H3 8122   0.704   1.761   4.216  0.8737 -1.5112 -5.4725
  354DG      H4 8123   0.582   1.846   4.159  0.6812  2.3874 -4.8590
  354DG      H5 8124   0.674   1.901   4.312  0.3483 -1.2212 -0.2219
  354DG      H6 8125   1.298   2.200   3.835 -0.3813  0.9906 -1.2902
  354DG      H7 8126   1.297   2.354   3.927 -0.8997  0.2015  2.3833
  354DG      H8 8127   1.355   2.193   3.995 -1.1833 -0.6725  0.0857
  354DG      O9 8128   0.766   1.934   4.126  0.0686  0.2902 -0.2484
  354DG     O10 8129   1.149   2.209   3.966 -0.2303 -0.0036 -0.5577
  354DG     C11 8130   0.849   2.010   4.201  0.3950  0.5500 -0.0035
  354DG     C12 8131   1.046   2.251   3.869 -0.6628  0.4872 -0.4493
  354DG     H13 8132   0.909   1.953   4.272  2.6511  2.2407 -0.4475
  354DG     H14 8133   0.806   2.093   4.257 -0.4526  0.3356 -0.3196
  354DG     H15 8134   1.088   2.247   3.768 -1.7287  0.8882 -0.9186
  354DG     H16 8135   1.023   2.356   3.886  1.4038  0.9848 -0.4151
  354DG     C17 8136   0.947   2.077   4.105 -0.0862  0.9266 -0.5544
  354DG     C18 8137   0.913   2.169   3.882 -0.9363  0.3074 -0.1703
  354DG     O19 8138   0.862   2.150   4.011  0.0112  0.1249 -0.0847
  354DG     H20 8139   1.003   2.001   4.050 -0.9385  0.6599 -1.0708
  354DG     H21 8140   1.018   2.132   4.166 -0.0293 -0.1303  0.3700
  354DG     H22 8141   0.837   2.205   3.813 -1.0078  1.2992  0.4088
  354DG     H23 8142   0.926   2.068   3.843 -1.7005  1.0471 -2.5096
  355DG      C1 8143   4.466   0.592   2.272  0.1136 -0.4315 -0.6043
  355DG      C2 8144   4.361   0.262   2.767  0.3336 -0.2989 -0.1978
  355DG      H3 8145   4.501   0.637   2.179  2.2054 -1.1529 -0.2281
  355DG      H4 8146   4.450   0.660   2.356 -1.0197 -0.0293 -1.1217
  355DG      H5 8147   4.368   0.551   2.250 -0.3517  0.0818  0.4391
  355DG      H6 8148   4.283   0.191   2.796  0.1511  0.2512  0.6776
  355DG      H7 8149   4.459   0.241   2.810  0.3182  0.2334  0.0956
  355DG      H8 8150   4.337   0.363   2.801  2.8116  0.3230 -0.1685
  355DG      O9 8151   4.567   0.497   2.314  0.0689 -0.2693  0.2811
  355DG     O10 8152   4.361   0.271   2.624 -0.1220  0.0691  0.1048
  355DG     C11 8153   4.587   0.380   2.224 -0.2546  0.1230 -0.2137
  355DG     C12 8154   4.374   0.138   2.575  0.1192 -0.0658 -0.3233
  355DG     H13 8155   4.675   0.329   2.264  0.1804  1.6216  0.8439
  355DG     H14 8156   4.614   0.406   2.122  1.1413 -0.9572 -0.1487
  355DG     H15 8157   4.292   0.068   2.595 -0.5795  1.0282  0.7723
  355DG     H16 8158   4.462   0.085   2.611  0.3357 -1.6090 -2.8635
  355DG     C17 8159   4.478   0.274   2.250 -0.6158 -0.1696  0.5778
  355DG     C18 8160   4.383   0.148   2.427 -0.1285 -0.5555 -0.5579
  355DG     O19 8161   4.465   0.260   2.385 -0.6755  0.2634 -0.8414
  355DG     H20 8162   4.534   0.185   2.223  1.4568  1.2772 -0.1009
  355DG     H21 8163   4.387   0.296   2.194  0.7222  1.7540 -0.9757
  355DG     H22 8164   4.429   0.054   2.397  0.7686 -0.7221  1.2061
  355DG     H23 8165   4.287   0.149   2.377 -0.1646  2.8257 -0.6214
  356DG      C1 8166   1.678   3.719   1.130  0.6077  0.2747 -0.0610
  356DG      C2 8167   1.958   3.567   0.571 -0.0955  0.1256 -0.3059
  356DG      H3 8168   1.699   3.613   1.144  1.5089  0.3363 -0.8769
  356DG      H4 8169   1.572   3.745   1.121  0.4663  0.4687  1.7706
  356DG      H5 8170   1.717   3.761   1.223  0.3017 -0.4987  0.4234
  356DG      H6 8171   1.889   3.487   0.597 -1.6040  1.9349  1.6198
  356DG      H7 8172   1.960   3.581   0.463 -0.4480 -0.6879 -0.4246
  356DG      H8 8173   2.055   3.540   0.614 -0.3533  0.2426  0.3649
  356DG      O9 8174   1.743   3.767   1.015  0.2479 -0.2997 -0.0029
  356DG     O10 8175   1.914   3.674   0.650  0.4127  0.0478  0.2497
  356DG     C11 8176   1.703   3.903   0.981  0.0367  0.0333 -0.7900
  356DG     C12 8177   1.997   3.788   0.637 -0.1135 -0.5219  0.7046
  356DG     H13 8178   1.696   3.967   1.069  0.4123  0.0356 -0.7624
  356DG     H14 8179   1.603   3.912   0.937 -0.7877 -3.2475  0.1159
  356DG     H15 8180   2.011   3.821   0.534 -1.3911 -0.3834  0.5587
  356DG     H16 8181   2.097   3.772   0.679  1.1755 -0.9492 -2.2420
  356DG     C17 8182   1.809   3.965   0.889 -0.6142 -0.1778  0.5721
  356DG     C18 8183   1.936   3.910   0.701 -0.0327  0.1328 -0.4427
  356DG     O19 8184   1.842   3.866   0.790  0.0362 -0.3165  0.0123
  356DG     H20 8185   1.901   3.986   0.943  0.6031  2.1606 -2.1740
  356DG     H21 8186   1.764   4.058   0.856 -1.3281 -0.5484  0.4705
  356DG     H22 8187   2.020   3.956   0.753  1.1542 -1.4769 -0.8768
  356DG     H23 8188   1.893   3.980   0.628  0.7131  0.1101 -0.9122
  357DG      C1 8189   3.273   3.483   2.298 -0.4289 -0.0681  0.0862
  357DG      C2 8190   2.822   3.011   2.395  0.2651  0.1791  1.0330
  357DG      H3 8191   3.219   3.390   2.278  0.0889 -0.5307  0.8001
  357DG      H4 8192   3.351   3.463   2.371 -2.0038 -1.0518  1.5955
  357DG      H5 8193   3.317   3.527   2.209 -0.5289 -0.9516 -0.4166
  357DG      H6 8194   2.801   3.081   2.476  0.2044 -0.3905  1.5134
  357DG      H7 8195   2.728   2.957   2.393 -0.3084  1.1002  1.8632
  357DG      H8 8196   2.913   2.955   2.418 -0.0338 -0.9042 -0.2818
  357DG      O9 8197   3.183   3.573   2.357  0.3176  0.4388  0.0275
  357DG     O10 8198   2.830   3.076   2.266  0.2821  0.2944  0.5892
  357DG     C11 8199   3.072   3.609   2.275 -0.4492  0.2243 -0.4733
  357DG     C12 8200   2.929   3.175   2.249  0.5198  0.0160  0.1381
  357DG     H13 8201   3.103   3.593   2.172  0.9236 -1.7511  0.1631
  357DG     H14 8202   3.060   3.717   2.285  0.8420  0.3132  0.3904
  357DG     H15 8203   2.961   3.170   2.145 -3.2322  0.1697 -1.1782
  357DG     H16 8204   3.011   3.168   2.321 -0.4476 -0.8737  1.1965
  357DG     C17 8205   2.946   3.525   2.312  0.8292  0.0792 -0.8898
  357DG     C18 8206   2.858   3.312   2.276  0.1230  0.7379  0.0732
  357DG     O19 8207   2.959   3.406   2.236 -0.1290  0.1483  0.2053
  357DG     H20 8208   2.863   3.586   2.277 -0.5156 -1.5594 -0.7068
  357DG     H21 8209   2.936   3.507   2.419  0.4963 -2.0909 -1.2240
  357DG     H22 8210   2.769   3.338   2.219 -0.7434 -0.0660  0.9980
  357DG     H23 8211   2.828   3.305   2.381 -0.4010 -1.4924 -0.1620
  358DG      C1 8212   4.277   1.499   2.294 -0.5171  0.0711 -0.7337
  358DG      C2 8213   3.934   0.910   2.484 -0.2245 -0.2269  0.8634
  358DG      H3 8214   4.195   1.560   2.333 -1.1049  0.3446 -2.3195
  358DG      H4 8215   4.271   1.473   2.189  0.1998 -1.5757 -0.3965
  358DG      H5 8216   4.366   1.561   2.308 -2.9244  3.7430 -0.4049
  358DG      H6 8217   3.961   0.810   2.517  1.1077 -0.0974  0.2709
  358DG      H7 8218   3.837   0.933   2.527 -1.3705 -2.8869 -0.1027
  358DG      H8 8219   3.917   0.898   2.377  0.5222  0.0211  0.7063
  358DG      O9 8220   4.289   1.377   2.372 -0.7190  0.2674  0.3636
  358DG     O10 8221   4.037   1.007   2.508  0.4836 -0.0891 -0.7480
  358DG     C11 8222   4.298   1.407   2.506 -0.6595 -1.0258  0.0463
  358DG     C12 8223   4.072   1.017   2.637  0.1580  0.0789  0.2734
  358DG     H13 8224   4.215   1.460   2.553  1.1022  2.8741 -0.9167
  358DG     H14 8225   4.387   1.468   2.522 -0.0110 -1.5440 -1.4248
  358DG     H15 8226   4.088   0.916   2.674 -1.3156 -0.6518 -0.9955
  358DG     H16 8227   3.996   1.059   2.702  0.7547 -1.2296  1.9064
  358DG     C17 8228   4.323   1.276   2.580  0.3800  0.0344 -0.1096
  358DG     C18 8229   4.213   1.080   2.646 -0.0527  0.1130  0.2037
  358DG     O19 8230   4.197   1.207   2.576 -0.6296  0.3557  0.0278
  358DG     H20 8231   4.341   1.281   2.688 -0.1222  0.7304 -0.0500
  358DG     H21 8232   4.402   1.231   2.520 -0.8763 -2.8426  0.2168
  358DG     H22 8233   4.245   1.095   2.749  1.4305  1.2239 -0.3882
  358DG     H23 8234   4.287   1.021   2.593 -0.8743 -0.7530  0.0011
  359DG      C1 8235   1.405   2.493   5.149 -0.1774 -0.6524  0.2976
  359DG      C2 8236   1.263   2.283   4.569  0.1197  0.6423 -0.2768
  359DG      H3 8237   1.407   2.384   5.144  0.2370 -0.5797 -1.9489
  359DG      H4 8238   1.410   2.544   5.246  0.7423  1.6379 -0.8905
  359DG      H5 8239   1.497   2.526   5.101 -0.3442 -1.6836 -0.7678
  359DG      H6 8240   1.337   2.203   4.577 -0.8961 -0.2184  1.1166
  359DG      H7 8241   1.183   2.252   4.501 -2.2487  0.8394  2.2411
  359DG      H8 8242   1.304   2.370   4.518 -1.5514  1.7200  0.1138
  359DG      O9 8243   1.315   2.563   5.063  0.0654  0.3433 -0.5117
  359DG     O10 8244   1.209   2.320   4.694 -0.1737  0.3315 -0.6788
  359DG     C11 8245   1.180   2.565   5.104  0.8739  0.3357  0.7718
  359DG     C12 8246   1.150   2.210   4.766  0.3907  0.2969  0.5474
  359DG     H13 8247   1.133   2.645   5.047 -1.4960  0.2067  2.3904
  359DG     H14 8248   1.167   2.585   5.210  2.7929 -0.6716  1.2524
  359DG     H15 8249   1.221   2.134   4.798  0.5466  0.7882  1.3909
  359DG     H16 8250   1.071   2.156   4.712 -0.5784 -0.5447  2.6941
  359DG     C17 8251   1.114   2.430   5.069 -0.1537  0.5017 -0.4467
  359DG     C18 8252   1.086   2.264   4.892 -0.5102 -0.0367 -0.8985
  359DG     O19 8253   1.164   2.372   4.951  0.2132 -0.3112  0.2294
  359DG     H20 8254   1.005   2.434   5.069 -0.1588  1.1204 -2.1483
  359DG     H21 8255   1.142   2.353   5.141 -1.3947 -0.2425 -0.7212
  359DG     H22 8256   0.981   2.290   4.884 -0.3725  0.7411 -0.3806
  359DG     H23 8257   1.085   2.183   4.965 -4.3372  0.1957 -0.4912
  360DG      C1 8258   0.156   2.928   4.708 -0.3466 -0.1846  0.0919
  360DG      C2 8259   0.070   2.281   4.964 -1.2430 -0.4654 -0.1819
  360DG      H3 8260   0.222   3.010   4.680  2.0985 -2.2239 -0.4628
  360DG      H4 8261   0.173   2.921   4.815 -0.2425  1.7933  0.2454
  360DG      H5 8262   0.052   2.961   4.701 -0.7079 -1.0520  1.0807
  360DG      H6 8263   0.083   2.175   4.946  0.9576 -0.7756  2.5450
  360DG      H7 8264   0.146   2.305   5.039 -1.6021 -2.0604  0.7174
  360DG      H8 8265  -0.026   2.294   5.013 -1.8436 -0.0429 -1.4056
  360DG      O9 8266   0.177   2.813   4.637  0.1765  0.0334 -0.1343
  360DG     O10 8267   0.106   2.350   4.850 -0.2674 -0.9104  0.2040
  360DG     C11 8268   0.307   2.763   4.650  0.0272  0.9643  0.2293
  360DG     C12 8269   0.243   2.332   4.824 -0.2628  0.9510  0.4088
  360DG     H13 8270   0.331   2.745   4.755 -0.7832  1.8814  0.5926
  360DG     H14 8271   0.384   2.833   4.617  2.1491 -0.7876  1.1868
  360DG     H15 8272   0.277   2.228   4.824 -0.4962  0.8623 -1.1288
  360DG     H16 8273   0.300   2.384   4.901  0.5415  0.4692  0.1503
  360DG     C17 8274   0.328   2.623   4.600 -0.0368  0.2297  0.2215
  360DG     C18 8275   0.287   2.400   4.695  0.2851 -0.5760  0.2246
  360DG     O19 8276   0.265   2.534   4.703 -0.0239 -0.8569  0.0244
  360DG     H20 8277   0.435   2.603   4.590 -0.2918 -0.5654 -1.1115
  360DG     H21 8278   0.283   2.610   4.502  1.3960 -0.1139 -0.4127
  360DG     H22 8279   0.390   2.373   4.673 -0.3600 -0.8779 -2.7863
  360DG     H23 8280   0.233   2.355   4.612  0.7039 -0.4399 -0.1217
  361DG      C1 8281   5.451   3.244   4.770  0.0471  0.4454 -0.6283
  361DG      C2 8282   5.992   2.986   4.228 -0.6594 -0.4795  0.5828
  361DG      H3 8283   5.433   3.270   4.666 -1.2684 -0.6466 -0.7084
  361DG      H4 8284   5.399   3.323   4.825 -1.4408  1.4562 -3.3047
  361DG      H5 8285   5.390   3.157   4.798 -0.4307  0.0043 -2.8979
  361DG      H6 8286   5.924   3.038   4.160  0.8564  1.5701  0.5453
  361DG      H7 8287   6.081   2.964   4.169  0.3094 -0.4142  1.9925
  361DG      H8 8288   5.934   2.899   4.260  0.7485 -0.8153  2.3538
  361DG      O9 8289   5.587   3.222   4.797  0.7177 -0.3212  0.2129
  361DG     O10 8290   6.008   3.064   4.344  0.1650 -0.3912 -0.0174
  361DG     C11 8291   5.663   3.334   4.760  0.2531  0.2730  0.3051
  361DG     C12 8292   5.887   3.086   4.407  0.1582  0.1097  0.2605
  361DG     H13 8293   5.690   3.394   4.848 -0.2814 -1.7773  1.9520
  361DG     H14 8294   5.612   3.403   4.693 -0.7069 -0.9049 -0.2235
  361DG     H15 8295   5.848   2.992   4.445  2.6553 -0.5013  1.5474
  361DG     H16 8296   5.813   3.123   4.335  1.9315  1.7689 -0.8099
  361DG     C17 8297   5.804   3.289   4.702 -0.3282  0.0166  0.8348
  361DG     C18 8298   5.914   3.187   4.525  0.1306  0.0095  0.5178
  361DG     O19 8299   5.790   3.226   4.579  0.0726  0.2684  0.5736
  361DG     H20 8300   5.855   3.224   4.773 -1.3429 -1.3029  0.3967
  361DG     H21 8301   5.872   3.372   4.685 -1.5564  0.6453 -1.4770
  361DG     H22 8302   5.971   3.134   4.601  1.0928 -0.0413 -0.2194
  361DG     H23 8303   5.966   3.278   4.493  1.3042 -1.2643 -1.4473
  362DG      C1 8304   1.948   3.361   3.346  0.1023  1.2149  0.4123
  362DG      C2 8305   1.846   3.691   4.130 -0.1585  0.4070 -0.1488
  362DG      H3 8306   2.046   3.340   3.388  0.8314  2.2139 -0.7430
  362DG      H4 8307   1.968   3.441   3.275  1.2186  0.0403 -0.6400
  362DG      H5 8308   1.925   3.272   3.288  1.4132  1.3246 -0.2981
  362DG      H6 8309   1.821   3.787   4.083  2.2623  1.0120 -0.3355
  362DG      H7 8310   1.801   3.685   4.228  1.2370 -2.4391  0.4143
  362DG      H8 8311   1.955   3.681   4.135 -0.2639 -1.4237 -0.8538
  362DG      O9 8312   1.852   3.405   3.440  0.9152  0.5579 -0.0038
  362DG     O10 8313   1.810   3.583   4.049 -0.3514  0.3856 -0.0490
  362DG     C11 8314   1.815   3.308   3.538  0.3802  0.3473  0.7440
  362DG     C12 8315   1.857   3.588   3.919 -0.4885 -0.2751  0.1570
  362DG     H13 8316   1.902   3.247   3.563 -0.7779 -1.5439  0.2992
  362DG     H14 8317   1.765   3.233   3.478 -0.1211 -0.9114  2.6580
  362DG     H15 8318   1.957   3.547   3.900 -0.3871  0.0503 -0.0350
  362DG     H16 8319   1.851   3.688   3.876 -2.4706 -1.0152 -1.4487
  362DG     C17 8320   1.738   3.367   3.652 -0.2296 -0.3511 -0.3495
  362DG     C18 8321   1.757   3.500   3.844  0.0255  0.6805  0.4758
  362DG     O19 8322   1.829   3.452   3.725  0.3461  0.4209 -0.1700
  362DG     H20 8323   1.708   3.280   3.710  2.2143 -1.3154 -0.4161
  362DG     H21 8324   1.649   3.419   3.615  0.3910  1.2606  0.3466
  362DG     H22 8325   1.738   3.411   3.903 -0.9161 -0.5210 -1.5357
  362DG     H23 8326   1.662   3.540   3.809  0.0583  0.7706  0.4897
  363DG      C1 8327   2.774   4.738   4.521 -0.2403 -0.4404 -0.5787
  363DG      C2 8328   2.914   5.294   4.165 -0.3011  0.2538  1.0740
  363DG      H3 8329   2.818   4.656   4.577  0.0258 -0.0508 -0.2070
  363DG      H4 8330   2.685   4.703   4.469 -1.8169  1.4301  0.6826
  363DG      H5 8331   2.741   4.810   4.597  1.8008 -0.3188  0.2452
  363DG      H6 8332   2.932   5.368   4.243  3.0269  2.5054 -1.5035
  363DG      H7 8333   2.947   5.335   4.069  1.4734 -1.1986  1.0012
  363DG      H8 8334   2.806   5.279   4.164 -0.6765  2.2450 -1.5243
  363DG      O9 8335   2.874   4.801   4.440  0.3479 -0.0441 -0.0867
  363DG     O10 8336   2.971   5.166   4.189 -0.5225 -0.4274 -0.3701
  363DG     C11 8337   2.994   4.821   4.508 -0.5411  0.0107  0.0311
  363DG     C12 8338   3.114   5.167   4.192 -0.4128 -0.1177  0.2813
  363DG     H13 8339   3.041   4.726   4.533 -0.0216 -0.0624 -1.1574
  363DG     H14 8340   2.977   4.877   4.600  0.7352 -0.1663  0.3854
  363DG     H15 8341   3.158   5.240   4.260 -0.8228 -1.4938  2.1375
  363DG     H16 8342   3.160   5.179   4.094 -3.5554  1.9026 -1.1258
  363DG     C17 8343   3.099   4.874   4.417 -0.2928  0.5702  0.4124
  363DG     C18 8344   3.145   5.031   4.256 -1.1048  0.7554  0.1109
  363DG     O19 8345   3.051   4.990   4.358  0.4590  0.0536 -0.1838
  363DG     H20 8346   3.107   4.807   4.332 -0.6948  2.6551 -1.3407
  363DG     H21 8347   3.190   4.885   4.476  0.0091  0.6573 -0.0688
  363DG     H22 8348   3.131   4.959   4.175  0.8615 -1.8146  1.9037
  363DG     H23 8349   3.250   5.013   4.279 -0.8630  0.8202 -0.8740
  364DG      C1 8350   0.063   3.498   0.734 -0.2387  0.1348  0.1563
  364DG      C2 8351  -0.132   2.822   0.459 -0.0635  0.0403  0.9980
  364DG      H3 8352   0.105   3.595   0.705 -1.2870  0.4679 -0.3080
  364DG      H4 8353   0.129   3.464   0.813  0.6966  2.4636  0.4815
  364DG      H5 8354  -0.038   3.511   0.774  0.0697 -0.6926  1.2419
  364DG      H6 8355  -0.133   2.831   0.568 -1.2321 -1.5238  1.1618
  364DG      H7 8356  -0.222   2.770   0.427  1.2559 -1.5601 -0.2991
  364DG      H8 8357  -0.049   2.752   0.445 -1.2191 -1.0760 -0.5931
  364DG      O9 8358   0.077   3.403   0.624  0.6159  0.5042 -0.2304
  364DG     O10 8359  -0.111   2.949   0.386  0.0920  0.0624 -0.0942
  364DG     C11 8360   0.003   3.437   0.505 -0.3969 -0.3071 -0.2509
  364DG     C12 8361   0.029   2.982   0.373  0.2856 -0.0259 -0.3229
  364DG     H13 8362   0.026   3.541   0.483  2.1190 -0.4558  1.3097
  364DG     H14 8363  -0.104   3.428   0.524 -1.0937  0.1713 -3.5018
  364DG     H15 8364   0.095   2.911   0.324 -0.0373 -1.1526  0.8158
  364DG     H16 8365   0.072   2.969   0.472  1.1922  0.7139 -0.6124
  364DG     C17 8366   0.040   3.344   0.397  0.6578 -0.1159 -0.9139
  364DG     C18 8367   0.059   3.128   0.334  0.7229  0.0326  0.8459
  364DG     O19 8368   0.014   3.211   0.439 -0.3518  0.2338  0.6803
  364DG     H20 8369   0.147   3.359   0.380  0.7769  1.0352  0.6478
  364DG     H21 8370  -0.025   3.367   0.313 -0.1696  3.2831  0.4858
  364DG     H22 8371   0.167   3.131   0.319  0.5255 -0.8712 -0.9335
  364DG     H23 8372   0.015   3.144   0.236  1.6027  0.8931  0.5744
  365DG      C1 8373   4.595   4.001   5.063  0.3767 -0.0301 -0.8722
  365DG      C2 8374   5.269   3.915   5.323 -0.3486 -0.1111  0.2747
  365DG      H3 8375   4.569   4.089   5.121 -0.1730 -0.5426 -0.3236
  365DG      H4 8376   4.553   3.913   5.112 -2.4903  1.2068 -0.8959
  365DG      H5 8377   4.538   4.008   4.970 -1.4843 -1.7082  0.0382
  365DG      H6 8378   5.226   3.852   5.400 -1.0237  0.7366  0.6041
  365DG      H7 8379   5.342   3.849   5.276  1.4316  1.5893  0.4877
  365DG      H8 8380   5.320   4.000   5.368  0.2183  0.8518 -2.0182
  365DG      O9 8381   4.735   3.993   5.054  0.1638 -0.8278  0.2241
  365DG     O10 8382   5.165   3.961   5.242  0.5204 -0.2828  0.3715
  365DG     C11 8383   4.779   4.097   4.968  0.0263 -0.1159  0.0878
  365DG     C12 8384   5.215   4.060   5.148 -0.8812  0.2210  0.6812
  365DG     H13 8385   4.764   4.197   5.010 -0.3590  0.7522 -1.9746
  365DG     H14 8386   4.721   4.126   4.880 -0.2528  1.4341  0.7342
  365DG     H15 8387   5.316   4.030   5.120 -1.2905  0.3163 -1.0140
  365DG     H16 8388   5.237   4.162   5.180  2.1754 -0.0684 -0.1649
  365DG     C17 8389   4.926   4.088   4.933  0.3704 -0.5419  0.1878
  365DG     C18 8390   5.136   4.058   5.019 -0.1020  0.2620  0.1061
  365DG     O19 8391   5.008   4.070   5.043  0.3311 -0.5529  0.1757
  365DG     H20 8392   4.959   4.178   4.880  1.3379 -1.1417 -0.2557
  365DG     H21 8393   4.946   4.005   4.866 -0.0347  0.8634 -1.7715
  365DG     H22 8394   5.166   4.145   4.959  1.4124  0.2620  0.8079
  365DG     H23 8395   5.158   3.969   4.960 -1.1675 -0.2368  0.4439
  366DG      C1 8396   0.684   5.226   5.135  0.2794  0.5340  0.4872
  366DG      C2 8397   1.019   5.608   5.654  0.1387 -0.1913 -0.4436
  366DG      H3 8398   0.660   5.228   5.028 -1.5390  1.1926  0.8719
  366DG      H4 8399   0.616   5.167   5.197  0.0115  0.3118 -0.0097
  366DG      H5 8400   0.775   5.165   5.131 -1.6057 -2.4621  0.1656
  366DG      H6 8401   0.966   5.560   5.737 -0.5080 -1.1750 -1.4111
  366DG      H7 8402   1.101   5.538   5.640  0.3599  0.0813 -0.5116
  366DG      H8 8403   1.058   5.704   5.688  0.1501 -0.1670 -0.5250
  366DG      O9 8404   0.710   5.347   5.193 -0.0112 -0.5813 -0.4811
  366DG     O10 8405   0.939   5.620   5.541  0.3471 -0.0563 -0.4729
  366DG     C11 8406   0.758   5.443   5.104  0.2473 -0.3473  0.0845
  366DG     C12 8407   0.990   5.699   5.432  0.2273  0.3131 -0.4910
  366DG     H13 8408   0.674   5.454   5.036 -1.4113  2.4470  2.3736
  366DG     H14 8409   0.851   5.417   5.053  0.7726 -0.0460  0.8771
  366DG     H15 8410   1.075   5.638   5.400 -1.0178 -0.6120 -2.2318
  366DG     H16 8411   1.026   5.789   5.482 -1.1990  0.4005  0.4540
  366DG     C17 8412   0.757   5.576   5.176  0.6228 -0.5564 -0.5649
  366DG     C18 8413   0.889   5.715   5.311 -0.6413 -0.1423 -0.1985
  366DG     O19 8414   0.872   5.581   5.255 -0.9489 -0.4795  0.5681
  366DG     H20 8415   0.670   5.582   5.241  0.1154  0.1369 -1.2852
  366DG     H21 8416   0.752   5.664   5.112  0.6173 -0.0247  0.1542
  366DG     H22 8417   0.795   5.754   5.348  0.6614 -0.0906  3.4462
  366DG     H23 8418   0.936   5.785   5.241  0.1632 -1.2410 -0.7955
  367DG      C1 8419   3.192   2.726   5.308 -0.1114  0.3019 -0.5069
  367DG      C2 8420   2.728   3.070   5.743 -0.1444  0.1147 -0.9986
  367DG      H3 8421   3.290   2.726   5.356 -0.0836 -2.4530 -0.4115
  367DG      H4 8422   3.182   2.820   5.254 -4.6388  1.1055  1.2586
  367DG      H5 8423   3.203   2.652   5.228  0.9597 -0.1420  0.0378
  367DG      H6 8424   2.667   3.027   5.823  1.7797  0.4104  0.7100
  367DG      H7 8425   2.829   3.094   5.776 -0.5181 -0.9071  1.0849
  367DG      H8 8426   2.693   3.169   5.712  1.4587  0.5334 -1.5460
  367DG      O9 8427   3.078   2.706   5.399 -0.1018 -0.3970 -0.0010
  367DG     O10 8428   2.728   2.972   5.643 -0.7608  0.1906 -0.0460
  367DG     C11 8429   2.961   2.661   5.325  0.0117 -0.2939 -0.4563
  367DG     C12 8430   2.793   3.005   5.522 -0.8385 -0.4544  0.6236
  367DG     H13 8431   2.983   2.558   5.296 -1.2436 -0.6388 -0.2318
  367DG     H14 8432   2.951   2.724   5.237 -0.8149  0.4803  0.1733
  367DG     H15 8433   2.895   3.034   5.547  0.4665 -1.1879 -3.1729
  367DG     H16 8434   2.747   3.100   5.495 -0.2281 -0.3922 -0.2397
  367DG     C17 8435   2.832   2.666   5.411  0.1042 -0.2625  0.2111
  367DG     C18 8436   2.787   2.891   5.418  0.2688 -0.4014 -0.4965
  367DG     O19 8437   2.817   2.778   5.493  0.0209  0.0513 -0.4084
  367DG     H20 8438   2.845   2.594   5.492 -0.0082  0.6201  1.0211
  367DG     H21 8439   2.746   2.632   5.352  0.6115  0.2581 -0.8447
  367DG     H22 8440   2.689   2.864   5.378 -0.6162 -1.2165  1.9856
  367DG     H23 8441   2.854   2.921   5.338  2.7647 -0.3694  1.4738
  368DG      C1 8442   4.297   5.288   1.212  0.1096  0.5902  0.1003
  368DG      C2 8443   3.698   5.630   1.494 -0.1914  0.1316  0.1162
  368DG      H3 8444   4.348   5.235   1.131  0.7861 -2.1714  2.1606
  368DG      H4 8445   4.373   5.304   1.290 -0.6882 -3.1837  1.8667
  368DG      H5 8446   4.269   5.386   1.175 -0.4794  0.6650  0.7201
  368DG      H6 8447   3.639   5.703   1.437  0.8603  0.5894 -0.4071
  368DG      H7 8448   3.624   5.575   1.552 -2.6679 -0.7329 -3.4848
  368DG      H8 8449   3.780   5.680   1.544 -0.1003 -0.4365  0.5398
  368DG      O9 8450   4.192   5.209   1.267  0.1030  0.1107  0.0156
  368DG     O10 8451   3.739   5.547   1.385 -0.0524 -0.0390 -0.2170
  368DG     C11 8452   4.090   5.193   1.175  0.4781  0.3726  0.5924
  368DG     C12 8453   3.807   5.436   1.437 -0.6195  0.1037  0.2109
  368DG     H13 8454   4.112   5.109   1.108  1.1572 -0.7410  2.1517
  368DG     H14 8455   4.054   5.282   1.123 -2.6742 -1.0421  0.0602
  368DG     H15 8456   3.766   5.383   1.523  0.2523  0.3004  0.7699
  368DG     H16 8457   3.904   5.471   1.474 -0.7929 -0.5301  1.2925
  368DG     C17 8458   3.972   5.135   1.260 -0.4844 -0.0111  0.2481
  368DG     C18 8459   3.833   5.340   1.315  0.9070  0.4211 -0.5403
  368DG     O19 8460   3.916   5.225   1.359  0.1356  0.2268  0.2630
  368DG     H20 8461   4.007   5.048   1.316  2.2951  0.8397  0.0091
  368DG     H21 8462   3.894   5.098   1.194  0.3747  0.4801 -1.0741
  368DG     H22 8463   3.733   5.309   1.285  0.5155  0.7200  0.4063
  368DG     H23 8464   3.867   5.402   1.232 -1.5859  2.4410 -0.1996
  369DG      C1 8465   2.491   4.357   4.498  0.7416 -0.9085 -0.6625
  369DG      C2 8466   3.238   4.075   4.717 -0.1786 -0.6917 -0.0397
  369DG      H3 8467   2.488   4.260   4.451  0.6799 -0.8543 -0.7704
  369DG      H4 8468   2.497   4.438   4.425 -1.1818  1.3215  1.4577
  369DG      H5 8469   2.398   4.373   4.553  0.4982 -1.2455 -0.9787
  369DG      H6 8470   3.209   4.067   4.821 -0.1275 -3.5401 -0.1666
  369DG      H7 8471   3.227   3.972   4.683  0.6059  0.0744 -2.9578
  369DG      H8 8472   3.339   4.114   4.704 -1.3963  2.7217 -0.2108
  369DG      O9 8473   2.605   4.361   4.581  0.5623 -0.1461 -0.3132
  369DG     O10 8474   3.151   4.158   4.642  0.2920  0.2107 -0.5434
  369DG     C11 8475   2.730   4.352   4.512  0.3153 -0.2582 -0.3415
  369DG     C12 8476   3.132   4.276   4.706 -0.2138 -0.5145 -0.5335
  369DG     H13 8477   2.730   4.442   4.451 -1.8887  0.3661  0.4938
  369DG     H14 8478   2.744   4.263   4.450  0.3069 -1.3920  1.2040
  369DG     H15 8479   3.224   4.312   4.752  0.9524 -0.1757 -2.9907
  369DG     H16 8480   3.057   4.252   4.781 -0.9395 -1.0950 -1.4173
  369DG     C17 8481   2.846   4.361   4.619  0.5223  0.4178  0.1223
  369DG     C18 8482   3.084   4.389   4.619  0.1131 -0.2967 -0.3740
  369DG     O19 8483   2.967   4.360   4.544  1.1330  0.8009 -1.2516
  369DG     H20 8484   2.837   4.267   4.673  2.2756 -0.5332 -1.1769
  369DG     H21 8485   2.842   4.450   4.683  1.1728  0.9996 -0.6329
  369DG     H22 8486   3.078   4.476   4.684  0.2273 -1.4192  1.2197
  369DG     H23 8487   3.162   4.417   4.549 -0.6629  1.3138 -0.6299
  370DG      C1 8488   0.670   4.780   1.611 -0.1962 -1.1570 -0.0284
  370DG      C2 8489   1.259   4.773   1.546  0.5196  0.2483  0.6761
  370DG      H3 8490   0.583   4.788   1.546 -0.9131  1.4326  1.0976
  370DG      H4 8491   0.673   4.876   1.663 -0.6717 -0.8501 -0.5581
  370DG      H5 8492   0.642   4.709   1.690 -0.0391 -2.0045 -0.7268
  370DG      H6 8493   1.201   4.729   1.627  0.9165  1.4602  1.6709
  370DG      H7 8494   1.191   4.780   1.461  1.0343 -2.4044 -0.0244
  370DG      H8 8495   1.330   4.699   1.510  0.4132 -0.1238  1.2187
  370DG      O9 8496   0.789   4.742   1.541  0.6452  0.4201  0.1244
  370DG     O10 8497   1.297   4.908   1.575 -0.4334  0.0513  0.3396
  370DG     C11 8498   0.818   4.814   1.417  0.1198 -0.4551 -0.5768
  370DG     C12 8499   1.205   4.982   1.649 -0.9491  0.6994  0.8310
  370DG     H13 8500   0.731   4.849   1.360 -1.0433  1.6031  2.2306
  370DG     H14 8501   0.867   4.742   1.352 -1.6574 -1.8319 -0.4691
  370DG     H15 8502   1.256   5.075   1.674 -1.6000  1.3870 -0.3068
  370DG     H16 8503   1.175   4.926   1.737 -0.3569 -1.4158 -0.2613
  370DG     C17 8504   0.894   4.944   1.445 -0.4021 -0.5713 -0.3920
  370DG     C18 8505   1.077   5.025   1.570  0.1922  0.4340  0.4994
  370DG     O19 8506   0.999   4.910   1.536 -0.1584  0.6335 -0.0040
  370DG     H20 8507   0.829   5.012   1.501 -1.6613 -1.1215 -1.1379
  370DG     H21 8508   0.921   5.002   1.357 -0.5449  0.1676  0.0432
  370DG     H22 8509   1.020   5.097   1.627 -0.1691 -0.3090  1.0884
  370DG     H23 8510   1.110   5.068   1.475 -2.0940 -1.7745 -1.4415
  371DG      C1 8511   1.346   1.768   5.033 -0.5408  0.2415 -0.4438
  371DG      C2 8512   1.440   2.090   5.692  0.0524 -0.6182  0.6258
  371DG      H3 8513   1.388   1.672   5.063 -0.2219  0.4548 -0.2013
  371DG      H4 8514   1.425   1.837   5.003 -1.4808  2.5987  2.0559
  371DG      H5 8515   1.273   1.754   4.953  0.5892 -0.1807 -1.4218
  371DG      H6 8516   1.441   2.007   5.763 -1.8218 -0.2784  1.1096
  371DG      H7 8517   1.535   2.104   5.642  0.0575 -0.7905  0.5859
  371DG      H8 8518   1.419   2.180   5.750  5.0779  0.0653  1.8698
  371DG      O9 8519   1.284   1.824   5.145  0.0406  0.5768  0.4659
  371DG     O10 8520   1.341   2.071   5.595 -0.4977 -0.6925 -0.0671
  371DG     C11 8521   1.216   1.944   5.112 -0.3552  0.4534  0.3843
  371DG     C12 8522   1.317   2.195   5.514  0.2535 -0.2931 -0.4293
  371DG     H13 8523   1.133   1.928   5.043 -0.4713 -1.4148  0.8976
  371DG     H14 8524   1.289   2.010   5.065  0.1732 -1.7484 -2.1028
  371DG     H15 8525   1.408   2.229   5.466  1.0128 -1.6010  0.0223
  371DG     H16 8526   1.286   2.279   5.576  0.6682 -0.5047  0.0735
  371DG     C17 8527   1.172   2.021   5.236  1.3161  1.0542  0.2981
  371DG     C18 8528   1.211   2.164   5.411  0.4685  0.6194  0.2524
  371DG     O19 8529   1.274   2.079   5.311 -0.3551 -1.0537 -0.0249
  371DG     H20 8530   1.112   1.943   5.284  2.3820 -0.6542 -1.0460
  371DG     H21 8531   1.111   2.101   5.192 -1.8682 -0.9801  0.6830
  371DG     H22 8532   1.128   2.113   5.459 -0.4495  1.6627 -0.2052
  371DG     H23 8533   1.158   2.252   5.376 -1.4177  0.7904  3.2315
  372DG      C1 8534   1.238   2.079   3.159 -0.4551 -0.6296  0.8479
  372DG      C2 8535   1.725   2.440   3.701 -0.1167  0.1616 -0.3001
  372DG      H3 8536   1.147   2.066   3.217  0.0590 -2.9306  1.2092
  372DG      H4 8537   1.283   1.982   3.141  1.6481  0.4790 -0.2441
  372DG      H5 8538   1.196   2.109   3.063  0.0532  0.6768  1.0038
  372DG      H6 8539   1.657   2.373   3.755 -0.8634  0.2313 -1.1334
  372DG      H7 8540   1.819   2.446   3.756 -0.8818  0.6384  1.0187
  372DG      H8 8541   1.688   2.542   3.689  1.0993  0.7673  0.8492
  372DG      O9 8542   1.331   2.185   3.195 -0.4238  0.3781  0.3826
  372DG     O10 8543   1.759   2.393   3.571 -0.2535  0.6431 -0.3575
  372DG     C11 8544   1.439   2.192   3.101  0.6111 -0.3636 -0.2534
  372DG     C12 8545   1.658   2.320   3.498  0.0499 -0.4683  0.2389
  372DG     H13 8546   1.414   2.234   3.004  2.0161  0.7303 -0.1801
  372DG     H14 8547   1.495   2.098   3.099  0.4700 -0.4627  0.2708
  372DG     H15 8548   1.561   2.363   3.521  0.4703  0.1241  0.9694
  372DG     H16 8549   1.671   2.223   3.545  1.3690 -0.2832  0.3078
  372DG     C17 8550   1.546   2.287   3.157  0.3288 -0.7012  0.4299
  372DG     C18 8551   1.675   2.323   3.344 -0.5838  0.0978 -0.5874
  372DG     O19 8552   1.566   2.252   3.289 -0.8027  0.5070 -0.3214
  372DG     H20 8553   1.512   2.390   3.145  1.5468 -0.5046 -1.8297
  372DG     H21 8554   1.638   2.272   3.101  0.0864  1.9378 -0.8299
  372DG     H22 8555   1.677   2.423   3.300  1.7583  1.3927  2.0737
  372DG     H23 8556   1.767   2.275   3.312  0.2705  1.6067 -0.5046
  373DG      C1 8557   4.108   3.741   0.095 -0.0823  0.1364 -0.4041
  373DG      C2 8558   3.848   3.937   0.828 -0.3569 -0.2629  0.6822
  373DG      H3 8559   4.115   3.633   0.085  0.0567  0.1180 -0.1073
  373DG      H4 8560   4.171   3.785   0.018 -0.7182  1.0182 -0.4408
  373DG      H5 8561   4.009   3.769   0.057 -0.2769 -0.4275 -0.3196
  373DG      H6 8562   3.816   3.834   0.813 -2.3095  0.2142  1.3086
  373DG      H7 8563   3.897   3.953   0.925 -0.8358  2.1673  0.5939
  373DG      H8 8564   3.766   4.008   0.820 -1.5628 -1.7824 -1.2527
  373DG      O9 8565   4.132   3.789   0.229 -0.0835 -0.3671 -0.3985
  373DG     O10 8566   3.943   3.963   0.726  0.2158 -0.0648 -0.0434
  373DG     C11 8567   4.134   3.934   0.234  0.0122 -0.1763 -0.0560
  373DG     C12 8568   3.878   3.973   0.599 -0.3275  0.0265  0.2222
  373DG     H13 8569   4.033   3.970   0.216 -0.1929 -1.8899 -2.9767
  373DG     H14 8570   4.203   3.970   0.157  0.4026  1.0027  0.8184
  373DG     H15 8571   3.790   4.036   0.608  0.5924  1.2809  0.6121
  373DG     H16 8572   3.840   3.874   0.574 -0.5123 -0.2463  1.4769
  373DG     C17 8573   4.181   3.967   0.378 -0.3032 -0.1131 -0.2426
  373DG     C18 8574   3.979   4.016   0.489  0.1793 -0.1032  0.0695
  373DG     O19 8575   4.094   3.931   0.481 -0.1813 -0.4046 -0.7467
  373DG     H20 8576   4.212   4.072   0.380  1.4498 -0.5984 -0.2202
  373DG     H21 8577   4.277   3.920   0.399 -0.2161  0.1294 -0.0900
  373DG     H22 8578   3.922   4.009   0.396  1.3118  0.4750 -0.6843
  373DG     H23 8579   4.013   4.118   0.507  1.6902 -0.8244  1.5287
  374DG      C1 8580   3.244   4.079   2.248  0.5613 -0.1959 -0.0793
  374DG      C2 8581   3.532   4.215   1.641 -0.2418 -0.3969 -0.4015
  374DG      H3 8582   3.219   3.993   2.310  2.1668 -1.0501 -0.5738
  374DG      H4 8583   3.188   4.164   2.289 -0.5850 -1.2191  0.5386
  374DG      H5 8584   3.346   4.097   2.281  0.4645  2.8335 -1.1063
  374DG      H6 8585   3.481   4.306   1.672  3.1231  1.9164 -1.0738
  374DG      H7 8586   3.630   4.214   1.688  0.2973 -0.2811 -1.4868
  374DG      H8 8587   3.558   4.214   1.535  1.3929  1.2469 -0.0636
  374DG      O9 8588   3.244   4.070   2.105  0.5082 -0.1039  0.9343
  374DG     O10 8589   3.452   4.110   1.685 -0.3473 -0.1878  0.4527
  374DG     C11 8590   3.124   4.042   2.034  0.2211 -0.6634 -0.1942
  374DG     C12 8591   3.324   4.089   1.618 -0.0647 -0.1683 -0.5416
  374DG     H13 8592   3.047   4.109   2.070 -1.3678 -2.2058 -0.6098
  374DG     H14 8593   3.088   3.942   2.061  0.2891 -0.6806 -0.1654
  374DG     H15 8594   3.327   4.071   1.510 -0.0999 -0.8264 -0.4326
  374DG     H16 8595   3.269   4.180   1.641  0.6036 -0.2934  1.7902
  374DG     C17 8596   3.140   4.046   1.881  0.0825 -0.3296 -0.0664
  374DG     C18 8597   3.249   3.973   1.686  0.6937  0.4604  0.6925
  374DG     O19 8598   3.249   3.977   1.825 -0.7417  0.0903 -0.3366
  374DG     H20 8599   3.143   4.148   1.844 -2.3054  0.1893  0.9277
  374DG     H21 8600   3.042   4.005   1.854  0.0220 -0.4272  0.2950
  374DG     H22 8601   3.148   3.966   1.646  1.4348  1.1979 -1.4257
  374DG     H23 8602   3.306   3.891   1.641 -0.6302  0.8396 -1.8102
  375DG      C1 8603   0.145   2.757   5.480 -0.5280  0.4772 -0.4546
  375DG      C2 8604   0.009   2.110   5.534 -0.0761  0.0769 -0.0079
  375DG      H3 8605   0.198   2.852   5.470  1.4358 -0.6645 -1.8168
  375DG      H4 8606   0.101   2.760   5.579 -1.0780  2.9447 -0.6995
  375DG      H5 8607   0.059   2.754   5.412 -0.4807 -2.3064 -0.5194
  375DG      H6 8608  -0.001   2.128   5.641 -0.3054  2.4179 -0.3815
  375DG      H7 8609  -0.086   2.131   5.485  1.2638  1.4551 -2.2168
  375DG      H8 8610   0.046   2.009   5.517  0.8720  0.2482  0.9467
  375DG      O9 8611   0.231   2.643   5.468 -0.3687  0.2789 -0.3990
  375DG     O10 8612   0.109   2.197   5.484 -0.3710  0.1966 -0.5809
  375DG     C11 8613   0.292   2.632   5.337 -0.1030 -0.7639 -0.0104
  375DG     C12 8614   0.116   2.206   5.338 -0.3480 -0.0547  0.1083
  375DG     H13 8615   0.381   2.695   5.336 -0.9140  0.4078  0.5092
  375DG     H14 8616   0.218   2.664   5.265 -0.5413  1.8888  1.5062
  375DG     H15 8617   0.024   2.249   5.299  0.4287  2.3508  0.7659
  375DG     H16 8618   0.131   2.105   5.300  0.0297 -0.3798  1.0841
  375DG     C17 8619   0.330   2.497   5.305  0.7581  0.6865 -0.0083
  375DG     C18 8620   0.240   2.283   5.296 -0.0568  0.4732  0.1666
  375DG     O19 8621   0.213   2.419   5.317  0.2342  0.2002  0.6347
  375DG     H20 8622   0.403   2.460   5.376 -0.9178 -0.7855  1.0139
  375DG     H21 8623   0.369   2.484   5.204 -1.8748 -0.3260 -1.0036
  375DG     H22 8624   0.329   2.242   5.344  0.7435  0.9736 -0.8504
  375DG     H23 8625   0.278   2.267   5.195 -0.4076  0.3206  0.0591
  376DG      C1 8626   2.526   1.818   2.299  0.1719 -0.4774  0.1722
  376DG      C2 8627   1.941   1.422   2.360  0.3966 -0.1650  0.0617
  376DG      H3 8628   2.459   1.902   2.313  1.0727  0.2117  0.4535
  376DG      H4 8629   2.619   1.848   2.251  0.4821 -0.1826  0.9358
  376DG      H5 8630   2.554   1.793   2.401 -1.8801 -1.0835  0.6429
  376DG      H6 8631   1.915   1.316   2.350  0.7266 -0.1022 -1.7467
  376DG      H7 8632   1.935   1.469   2.458 -0.4010  0.4699 -0.2829
  376DG      H8 8633   1.873   1.483   2.302 -0.7607 -1.0045  0.4936
  376DG      O9 8634   2.462   1.695   2.247  0.3385  0.0028 -0.2817
  376DG     O10 8635   2.066   1.433   2.289 -0.5273  0.2912  0.4007
  376DG     C11 8636   2.543   1.583   2.227 -0.0287 -0.0606 -0.3216
  376DG     C12 8637   2.145   1.319   2.318 -0.1347 -0.3815 -0.4128
  376DG     H13 8638   2.586   1.560   2.324 -1.8903 -0.8479  0.3621
  376DG     H14 8639   2.616   1.602   2.148  0.7801 -2.2726 -0.1688
  376DG     H15 8640   2.105   1.224   2.283 -1.6974 -0.7229  2.0427
  376DG     H16 8641   2.159   1.313   2.426 -0.3273  0.4032 -0.3382
  376DG     C17 8642   2.465   1.455   2.192 -0.3997 -0.2917  0.5774
  376DG     C18 8643   2.283   1.323   2.248 -0.3474 -0.8737  0.4111
  376DG     O19 8644   2.347   1.444   2.277  0.0829 -0.3195  0.3882
  376DG     H20 8645   2.532   1.376   2.228  1.1088  0.5004 -0.3927
  376DG     H21 8646   2.458   1.443   2.084 -0.6909 -0.0628  0.5690
  376DG     H22 8647   2.329   1.236   2.294 -0.5604 -0.9973  0.3915
  376DG     H23 8648   2.268   1.316   2.140 -1.4113  1.9530  0.2827
  377DG      C1 8649   3.888   4.628   4.818 -0.1180 -0.3098  0.3825
  377DG      C2 8650   4.461   4.304   4.923 -0.0766 -0.1744  0.6891
  377DG      H3 8651   3.945   4.711   4.860 -0.2126  1.0358 -2.0109
  377DG      H4 8652   3.813   4.599   4.892  0.0734  1.2429  1.2269
  377DG      H5 8653   3.829   4.674   4.739 -0.6181  0.3303  1.1048
  377DG      H6 8654   4.569   4.311   4.911 -0.1786  0.0776 -0.0979
  377DG      H7 8655   4.440   4.314   5.030 -0.0177 -0.9961  0.7855
  377DG      H8 8656   4.433   4.207   4.882 -1.5253 -0.5436  2.3925
  377DG      O9 8657   3.969   4.531   4.769 -0.2415  0.3419  0.5092
  377DG     O10 8658   4.406   4.405   4.844  0.5320 -0.3677 -0.3118
  377DG     C11 8659   4.030   4.577   4.646 -0.9784 -0.3581 -0.5159
  377DG     C12 8660   4.437   4.539   4.877  0.0945 -0.2487 -0.1031
  377DG     H13 8661   3.965   4.642   4.587 -1.2163 -2.1056 -2.2906
  377DG     H14 8662   4.057   4.485   4.595  0.1955 -0.7942  0.8423
  377DG     H15 8663   4.545   4.555   4.871  0.4852 -2.0109  1.3081
  377DG     H16 8664   4.411   4.562   4.981  0.4088 -2.4340  0.5016
  377DG     C17 8665   4.151   4.666   4.670  0.0369 -0.2675  0.2450
  377DG     C18 8666   4.359   4.630   4.776 -0.3090  0.2193 -0.3967
  377DG     O19 8667   4.230   4.585   4.760 -0.1325  0.6273  0.2485
  377DG     H20 8668   4.135   4.761   4.722 -0.8794  0.0148 -0.5146
  377DG     H21 8669   4.201   4.684   4.576 -0.3023  1.1008  0.3006
  377DG     H22 8670   4.366   4.727   4.826 -1.5829  0.2272 -0.2165
  377DG     H23 8671   4.414   4.641   4.682 -0.4278  0.1348 -0.4757
  378DG      C1 8672   0.519   5.197   3.864 -0.3536 -0.2522 -0.2959
  378DG      C2 8673   1.168   4.978   3.933 -0.3160  0.1823  0.2256
  378DG      H3 8674   0.574   5.104   3.855  2.0444  1.1703 -1.0722
  378DG      H4 8675   0.446   5.213   3.784 -0.8046  1.7894  0.4619
  378DG      H5 8676   0.454   5.200   3.952  0.0584  0.3171 -0.0062
  378DG      H6 8677   1.257   4.970   3.871 -0.4711 -0.2273  0.0520
  378DG      H7 8678   1.196   5.029   4.026  0.1687  1.1215 -0.4167
  378DG      H8 8679   1.127   4.880   3.955 -1.0124  0.7713  1.6977
  378DG      O9 8680   0.605   5.309   3.870 -0.4393 -0.1816 -0.0281
  378DG     O10 8681   1.059   5.046   3.868 -0.2431 -0.1136  0.1026
  378DG     C11 8682   0.666   5.365   3.759  0.0645 -0.0649 -0.3892
  378DG     C12 8683   1.103   5.179   3.841 -0.1107 -0.6847 -0.2448
  378DG     H13 8684   0.688   5.470   3.776 -0.4673  0.2648 -1.6291
  378DG     H14 8685   0.594   5.373   3.678  0.5922 -0.9652 -0.9641
  378DG     H15 8686   1.207   5.188   3.808  1.4311 -1.0366  3.9227
  378DG     H16 8687   1.102   5.239   3.932 -1.5016 -1.3882  0.2313
  378DG     C17 8688   0.783   5.291   3.699 -0.0607 -0.1005  0.1884
  378DG     C18 8689   1.013   5.246   3.734 -0.0328  0.6218 -0.1423
  378DG     O19 8690   0.881   5.244   3.792 -0.1725  0.4379 -0.3023
  378DG     H20 8691   0.833   5.356   3.627 -0.4832 -0.9750 -0.9280
  378DG     H21 8692   0.753   5.206   3.638  0.4009  0.8943 -1.5036
  378DG     H22 8693   1.044   5.349   3.716  0.7327  0.2539 -1.0317
  378DG     H23 8694   1.014   5.191   3.640  0.2512 -1.0593  0.7943
  379DG      C1 8695   0.033   3.470   5.167  0.5891 -0.2005  0.3491
  379DG      C2 8696   0.145   4.147   4.610  0.0967  0.2695  0.0983
  379DG      H3 8697   0.116   3.419   5.216  1.8829  2.3220  0.9805
  379DG      H4 8698  -0.050   3.411   5.129 -0.4475  1.3959  0.0093
  379DG      H5 8699  -0.011   3.535   5.243  1.0506 -0.5039  0.8838
  379DG      H6 8700   0.249   4.176   4.589  0.3055 -0.6971 -0.2366
  379DG      H7 8701   0.095   4.133   4.514  0.0775  0.5073  0.0713
  379DG      H8 8702   0.112   4.248   4.636  2.4865  1.6355 -1.6508
  379DG      O9 8703   0.083   3.546   5.053 -0.4038  0.0187 -0.1703
  379DG     O10 8704   0.129   4.036   4.700 -0.1766 -0.3480 -0.3970
  379DG     C11 8705   0.035   3.676   5.040 -0.7210  0.4267 -0.9277
  379DG     C12 8706  -0.009   4.027   4.732  0.3531 -0.1404 -0.1036
  379DG     H13 8707   0.024   3.735   5.131 -1.7888  0.9278 -1.3560
  379DG     H14 8708  -0.058   3.668   4.984 -0.3627  0.2350 -1.5107
  379DG     H15 8709  -0.071   4.031   4.643  1.5856  2.0668 -0.9522
  379DG     H16 8710  -0.050   4.109   4.791 -1.2987 -0.4708 -0.7607
  379DG     C17 8711   0.123   3.754   4.950 -0.1663  0.0564 -0.4205
  379DG     C18 8712  -0.027   3.892   4.814 -0.2388 -0.2036  0.1886
  379DG     O19 8713   0.081   3.882   4.907  0.5300  0.2990 -0.6382
  379DG     H20 8714   0.139   3.693   4.860  2.3080  0.7128 -0.4899
  379DG     H21 8715   0.218   3.767   5.002 -0.6375  2.9649 -0.1499
  379DG     H22 8716  -0.124   3.886   4.862  0.1577 -0.3998  0.9831
  379DG     H23 8717  -0.026   3.815   4.737  1.6170  1.1271 -1.2224
  380DG      C1 8718   0.076   0.335   3.629 -0.4148 -0.0425  0.2621
  380DG      C2 8719  -0.435   0.105   4.296 -0.6531  0.0140  0.0485
  380DG      H3 8720   0.177   0.327   3.669 -0.2373  2.5843  0.4596
  380DG      H4 8721   0.079   0.422   3.563 -1.8977 -0.4501 -0.4006
  380DG      H5 8722   0.071   0.244   3.569 -1.1800  0.8489 -1.0907
  380DG      H6 8723  -0.535   0.114   4.337 -0.2837 -0.1054  1.0178
  380DG      H7 8724  -0.424   0.030   4.218  1.4714  0.5909 -0.2780
  380DG      H8 8725  -0.371   0.087   4.383 -0.7336 -1.7463 -0.2262
  380DG      O9 8726  -0.020   0.344   3.732  0.0503 -0.2402  0.2696
  380DG     O10 8727  -0.399   0.232   4.234 -0.5223  0.2159 -0.2299
  380DG     C11 8728  -0.006   0.454   3.822  0.2812  0.5482  0.1503
  380DG     C12 8729  -0.276   0.219   4.157 -0.1249  0.6420  0.3841
  380DG     H13 8730  -0.003   0.541   3.757  1.4774 -0.8500 -1.7712
  380DG     H14 8731   0.083   0.454   3.885 -1.8946  1.9930  3.5138
  380DG     H15 8732  -0.298   0.148   4.077  1.3033 -0.0842  0.6008
  380DG     H16 8733  -0.189   0.180   4.211 -0.5500 -0.3647  0.3642
  380DG     C17 8734  -0.126   0.464   3.912  1.3232  0.3060 -0.3692
  380DG     C18 8735  -0.248   0.362   4.097 -0.1141  0.5184 -0.0228
  380DG     O19 8736  -0.139   0.352   4.006  0.1431  0.1781  0.3491
  380DG     H20 8737  -0.219   0.482   3.858  1.8987  0.4722 -1.3103
  380DG     H21 8738  -0.117   0.552   3.976 -0.8821 -1.0785  2.0678
  380DG     H22 8739  -0.339   0.377   4.038 -0.5598 -1.1684  0.1687
  380DG     H23 8740  -0.242   0.443   4.170 -0.7292  0.6666 -0.1298
  381DG      C1 8741   0.824   0.757   2.447 -0.2328  0.1587  0.1005
  381DG      C2 8742   0.175   0.708   2.074  0.0708 -0.4838 -0.0705
  381DG      H3 8743   0.809   0.696   2.536  1.9411 -0.5751  0.0096
  381DG      H4 8744   0.911   0.816   2.475 -0.2381  0.1197  0.1986
  381DG      H5 8745   0.855   0.692   2.365  2.1641  2.3552 -0.8619
  381DG      H6 8746   0.161   0.608   2.114  0.2843 -1.5396 -2.4822
  381DG      H7 8747   0.097   0.775   2.111  0.2577  0.3306 -1.1078
  381DG      H8 8748   0.161   0.695   1.967  1.4396 -2.3479 -0.0780
  381DG      O9 8749   0.718   0.839   2.404  1.0178 -0.3061 -0.5665
  381DG     O10 8750   0.299   0.778   2.095  0.0812  0.7683 -0.1501
  381DG     C11 8751   0.660   0.903   2.516  0.8791 -0.2556  0.2203
  381DG     C12 8752   0.312   0.797   2.241  0.7840  0.1697  0.1014
  381DG     H13 8753   0.741   0.951   2.571  1.5029 -2.3843  1.2478
  381DG     H14 8754   0.618   0.833   2.587  1.3179  2.7732  3.7838
  381DG     H15 8755   0.341   0.706   2.293 -1.2228 -1.4973 -1.5098
  381DG     H16 8756   0.221   0.835   2.288  1.3247  0.6444  0.7872
  381DG     C17 8757   0.546   0.995   2.468 -0.0614 -0.7134 -0.2499
  381DG     C18 8758   0.425   0.899   2.278  0.0265 -0.2103 -0.1514
  381DG     O19 8759   0.432   0.917   2.421  0.4291 -0.8058  0.4102
  381DG     H20 8760   0.582   1.068   2.395 -2.8155  1.2348  0.2150
  381DG     H21 8761   0.520   1.059   2.552 -1.9256 -0.2918 -1.1094
  381DG     H22 8762   0.519   0.862   2.239  0.3955 -0.4303  0.9132
  381DG     H23 8763   0.407   0.996   2.232 -0.8664 -0.7623 -1.0341
  382DG      C1 8764   3.475   2.822   0.681  0.0094 -0.6830 -0.3559
  382DG      C2 8765   3.161   2.337   0.946 -0.7153  0.2546 -0.2108
  382DG      H3 8766   3.584   2.823   0.688  0.1243 -2.6188 -1.1612
  382DG      H4 8767   3.436   2.875   0.768 -0.8119 -2.6806  0.5482
  382DG      H5 8768   3.455   2.888   0.596  0.3601  2.0327  1.5520
  382DG      H6 8769   3.069   2.288   0.915  0.3676 -0.8788 -1.7734
  382DG      H7 8770   3.212   2.259   1.002 -1.3522 -0.3976 -0.5160
  382DG      H8 8771   3.143   2.422   1.011 -1.4543 -1.3233  1.7511
  382DG      O9 8772   3.428   2.685   0.665  0.1898 -0.0566 -0.5798
  382DG     O10 8773   3.249   2.365   0.833 -0.4579 -0.2447 -0.6921
  382DG     C11 8774   3.504   2.600   0.573  0.2386 -0.4923  0.6737
  382DG     C12 8775   3.280   2.255   0.748 -0.3212 -0.1883 -0.3568
  382DG     H13 8776   3.578   2.546   0.633 -0.0415  0.9438  2.4329
  382DG     H14 8777   3.567   2.655   0.503  0.0973 -0.5596  0.4968
  382DG     H15 8778   3.193   2.232   0.686 -1.9768  0.9705  1.4586
  382DG     H16 8779   3.309   2.167   0.805  1.9824  0.5944 -0.2161
  382DG     C17 8780   3.425   2.497   0.493  0.4406  0.0485  0.3288
  382DG     C18 8781   3.379   2.312   0.650  0.1254 -0.7746 -0.3089
  382DG     O19 8782   3.331   2.432   0.585 -0.3201 -0.1355  0.0180
  382DG     H20 8783   3.491   2.422   0.449 -3.2823 -3.9003  0.7761
  382DG     H21 8784   3.367   2.550   0.418 -3.0460 -3.0975  0.5486
  382DG     H22 8785   3.466   2.331   0.714 -1.7723 -1.9296  2.8614
  382DG     H23 8786   3.409   2.235   0.579  2.3024  0.7748 -1.1547
  383DG      C1 8787   2.948   2.010   0.953  0.3381 -0.1235  0.3568
  383DG      C2 8788   3.104   1.600   1.632 -0.9396  0.5550  0.3247
  383DG      H3 8789   2.901   2.100   0.912  1.1307  0.4910  0.7860
  383DG      H4 8790   2.875   1.930   0.966  1.0156 -0.9595 -0.7980
  383DG      H5 8791   3.024   1.983   0.879  0.7291  0.2871  0.6037
  383DG      H6 8792   3.043   1.557   1.552 -0.1618  0.7402 -0.3864
  383DG      H7 8793   3.195   1.543   1.612 -1.9781 -1.1899  0.2886
  383DG      H8 8794   3.062   1.580   1.730 -0.0400 -2.3334  0.2093
  383DG      O9 8795   2.999   2.050   1.076 -0.3000  0.1914 -0.1883
  383DG     O10 8796   3.126   1.732   1.583 -0.0584 -0.5246 -0.2244
  383DG     C11 8797   3.075   1.954   1.153  0.1250 -0.3300  0.1972
  383DG     C12 8798   3.024   1.819   1.606 -0.4080  0.0287  0.7946
  383DG     H13 8799   3.171   1.941   1.104 -0.1660  0.7798 -0.7223
  383DG     H14 8800   3.018   1.861   1.150  2.0620 -1.5794  0.3018
  383DG     H15 8801   3.007   1.850   1.710 -0.9437  0.3840  0.6074
  383DG     H16 8802   2.933   1.763   1.585 -0.1862 -0.0038 -0.1054
  383DG     C17 8803   3.095   2.003   1.295 -0.3903 -0.1852 -0.4529
  383DG     C18 8804   3.051   1.937   1.514  0.5020  0.0011 -0.4817
  383DG     O19 8805   3.065   1.893   1.381  0.2827  0.4775  0.1671
  383DG     H20 8806   3.030   2.088   1.316 -1.5370 -0.8545 -1.1519
  383DG     H21 8807   3.196   2.040   1.314 -0.9772  0.7745  0.9823
  383DG     H22 8808   2.968   2.007   1.520 -0.2816 -0.9544  0.0998
  383DG     H23 8809   3.141   1.993   1.538  0.2712  0.1039  0.1474
  384DG      C1 8810   5.091   4.182   4.390  0.1441  0.8284  1.1466
  384DG      C2 8811   5.794   4.429   4.324 -0.0057 -0.2428  0.2006
  384DG      H3 8812   5.037   4.214   4.301 -2.4789  0.4605  2.5045
  384DG      H4 8813   5.026   4.165   4.476  1.2836 -0.0146  1.8709
  384DG      H5 8814   5.140   4.086   4.372 -1.1619 -0.0360  2.0145
  384DG      H6 8815   5.858   4.341   4.327  0.8411  0.3700  0.6251
  384DG      H7 8816   5.751   4.434   4.224 -0.7845  0.6044  0.5578
  384DG      H8 8817   5.852   4.521   4.332 -0.8250  0.4366 -1.2507
  384DG      O9 8818   5.182   4.289   4.433  0.5647 -0.2337  0.6377
  384DG     O10 8819   5.691   4.425   4.418 -0.1794  0.1893  0.5526
  384DG     C11 8820   5.252   4.252   4.553  0.3187  0.0299 -0.3216
  384DG     C12 8821   5.619   4.545   4.426  0.0549  0.8101 -0.0964
  384DG     H13 8822   5.313   4.163   4.537  0.2626 -0.0929  0.1180
  384DG     H14 8823   5.188   4.236   4.640 -1.1899  0.9987 -1.2004
  384DG     H15 8824   5.580   4.577   4.330  0.4734  2.8635  0.3618
  384DG     H16 8825   5.687   4.623   4.464  0.6377  0.1291  0.2876
  384DG     C17 8826   5.342   4.368   4.599 -0.6920  0.2552 -0.0278
  384DG     C18 8827   5.502   4.527   4.527 -0.6414 -0.3112 -0.0863
  384DG     O19 8828   5.440   4.395   4.500  0.4793 -0.3695 -0.3902
  384DG     H20 8829   5.405   4.343   4.684 -0.8935 -1.3586 -0.3196
  384DG     H21 8830   5.279   4.454   4.619  1.3638  1.4018  2.0614
  384DG     H22 8831   5.556   4.525   4.622 -1.7915 -1.2956  0.5767
  384DG     H23 8832   5.437   4.615   4.524 -0.1831  0.0116 -0.7246
  385DG      C1 8833   2.337   5.282   4.809 -0.0395  0.0407 -0.3238
  385DG      C2 8834   2.338   5.642   5.376 -0.3519 -0.3162 -0.6975
  385DG      H3 8835   2.342   5.179   4.773  1.3712  0.2914 -0.9152
  385DG      H4 8836   2.369   5.348   4.728  0.0609  2.2507  1.4243
  385DG      H5 8837   2.233   5.298   4.838 -0.1230 -1.2598  0.1600
  385DG      H6 8838   2.245   5.596   5.410  0.0019 -1.5975 -1.4239
  385DG      H7 8839   2.395   5.696   5.452 -1.2253  0.8950 -0.8540
  385DG      H8 8840   2.311   5.718   5.302  1.4342  0.1126 -0.9596
  385DG      O9 8841   2.422   5.313   4.911  0.0394  0.5038 -0.0266
  385DG     O10 8842   2.417   5.535   5.318 -0.2894  0.1159 -0.0297
  385DG     C11 8843   2.561   5.295   4.884  0.4003  0.7672 -0.1775
  385DG     C12 8844   2.541   5.581   5.273  0.1895  0.5967 -0.0347
  385DG     H13 8845   2.594   5.375   4.818  0.4472 -0.2806 -1.4607
  385DG     H14 8846   2.585   5.198   4.841  2.1469  0.8672  0.5085
  385DG     H15 8847   2.600   5.626   5.354 -0.0145  0.5316  0.1509
  385DG     H16 8848   2.518   5.655   5.196  0.4784 -0.3361 -1.0332
  385DG     C17 8849   2.634   5.327   5.015  0.5715  0.3126  0.1120
  385DG     C18 8850   2.629   5.474   5.201 -0.7870  0.5915 -1.2403
  385DG     O19 8851   2.588   5.440   5.077  0.0633 -0.4291  0.3591
  385DG     H20 8852   2.740   5.331   4.989  0.8193  1.5632  1.1929
  385DG     H21 8853   2.632   5.241   5.083  2.3422  0.1710  0.0346
  385DG     H22 8854   2.733   5.507   5.210 -0.4031 -0.1987 -2.5431
  385DG     H23 8855   2.628   5.385   5.265 -2.2091 -0.8999 -3.2146
  386DG      C1 8856   3.332   3.715   4.521  1.0222 -0.4786 -0.2555
  386DG      C2 8857   3.466   3.550   3.707 -0.6141 -0.2018  0.0765
  386DG      H3 8858   3.405   3.792   4.543  0.4429 -0.0051  0.0452
  386DG      H4 8859   3.335   3.648   4.607 -0.8192 -0.8304 -0.4160
  386DG      H5 8860   3.238   3.770   4.526  0.4247 -1.5670  1.7203
  386DG      H6 8861   3.369   3.499   3.713 -1.4610  1.3753  0.5245
  386DG      H7 8862   3.438   3.639   3.651 -1.2946 -1.0254 -0.9207
  386DG      H8 8863   3.544   3.497   3.654 -1.1101  1.2024 -2.2161
  386DG      O9 8864   3.351   3.651   4.394 -0.6527 -0.0488  0.3773
  386DG     O10 8865   3.512   3.604   3.828  0.4681  0.3408 -0.3217
  386DG     C11 8866   3.280   3.531   4.365 -0.4158  0.0532 -0.3333
  386DG     C12 8867   3.413   3.657   3.916  0.2631  0.0823 -0.3867
  386DG     H13 8868   3.172   3.540   4.360 -0.3891  1.5347  0.7578
  386DG     H14 8869   3.307   3.460   4.443 -2.7496 -0.5054  0.0361
  386DG     H15 8870   3.336   3.712   3.862  0.3779  1.5309  0.8411
  386DG     H16 8871   3.452   3.741   3.974  1.9177  0.9057 -2.5287
  386DG     C17 8872   3.332   3.494   4.232  0.2910  0.1136 -0.3448
  386DG     C18 8873   3.350   3.545   4.000 -0.2228  0.3639  0.2158
  386DG     O19 8874   3.324   3.597   4.131 -0.3959 -0.2635  0.1134
  386DG     H20 8875   3.279   3.402   4.207  1.3808  0.0584 -2.6322
  386DG     H21 8876   3.440   3.476   4.232  0.7595  2.4914  0.8844
  386DG     H22 8877   3.253   3.503   3.970 -0.7388  1.0053  0.9633
  386DG     H23 8878   3.428   3.469   4.008  0.4190  0.8043 -1.5134
  387DG      C1 8879   2.765   1.910   4.019 -0.6356 -0.4645 -0.3988
  387DG      C2 8880   2.984   1.558   4.743 -0.4347  0.3836 -0.1402
  387DG      H3 8881   2.695   1.918   3.936 -1.5732  1.8123  0.5362
  387DG      H4 8882   2.803   1.807   4.022 -2.3925 -1.1677 -1.1187
  387DG      H5 8883   2.855   1.969   4.002 -0.7018 -0.1621  0.2691
  387DG      H6 8884   3.083   1.585   4.780 -1.4149  2.6343  1.0049
  387DG      H7 8885   2.933   1.566   4.839 -1.2091  0.1608 -0.5273
  387DG      H8 8886   2.978   1.455   4.708  3.0854 -0.2350  0.7113
  387DG      O9 8887   2.716   1.935   4.149 -0.1537 -0.1033  0.0358
  387DG     O10 8888   2.918   1.647   4.651 -0.2499  0.5353  0.2533
  387DG     C11 8889   2.802   1.889   4.253  0.0352  0.0161 -0.6292
  387DG     C12 8890   2.903   1.782   4.713 -0.4743  0.2294  0.4472
  387DG     H13 8891   2.899   1.938   4.246 -0.4695  0.8713 -2.3535
  387DG     H14 8892   2.812   1.781   4.245 -2.4246 -0.4912  1.7517
  387DG     H15 8893   3.003   1.826   4.720  0.0319 -0.9861  1.1484
  387DG     H16 8894   2.856   1.781   4.811 -2.0640  0.0826 -0.2841
  387DG     C17 8895   2.739   1.916   4.392 -0.7027 -0.0924 -0.7352
  387DG     C18 8896   2.811   1.863   4.618 -0.4419  0.4122  0.5185
  387DG     O19 8897   2.823   1.830   4.480  0.0732 -0.1557 -0.1715
  387DG     H20 8898   2.641   1.869   4.402 -0.4710 -0.7434 -1.4480
  387DG     H21 8899   2.734   2.022   4.415 -0.1252  0.0687 -1.3233
  387DG     H22 8900   2.709   1.844   4.651  0.0825 -1.9002  0.9519
  387DG     H23 8901   2.836   1.969   4.632  1.6789 -0.1411  1.3172
  388DG      C1 8902   2.162   4.358   2.345 -0.3617  0.2286  0.3211
  388DG      C2 8903   2.830   3.929   2.239  0.9267  0.7085  0.1051
  388DG      H3 8904   2.102   4.366   2.254  1.2022 -3.7267 -1.2652
  388DG      H4 8905   2.222   4.446   2.368 -0.1188  0.5572 -1.4535
  388DG      H5 8906   2.096   4.356   2.433  0.3532  1.2160  0.9021
  388DG      H6 8907   2.809   3.912   2.133 -3.1304 -1.3206  1.0318
  388DG      H7 8908   2.900   4.011   2.256  0.5537  0.7255  1.7163
  388DG      H8 8909   2.871   3.841   2.288 -1.7475 -0.5212  0.3091
  388DG      O9 8910   2.232   4.236   2.342 -0.2712 -0.2168 -0.2359
  388DG     O10 8911   2.711   3.960   2.311  0.5336 -0.3757 -0.7496
  388DG     C11 8912   2.333   4.231   2.248 -0.2441  0.8512 -0.1516
  388DG     C12 8913   2.601   3.872   2.293 -0.2985  0.5771  0.1786
  388DG     H13 8914   2.416   4.301   2.261  1.2817 -0.9478  0.0831
  388DG     H14 8915   2.284   4.250   2.152 -2.2227 -1.4202  0.3002
  388DG     H15 8916   2.630   3.770   2.318 -0.6448  0.6743  1.0089
  388DG     H16 8917   2.582   3.859   2.186  2.1538 -3.8115  0.0525
  388DG     C17 8918   2.390   4.091   2.239 -0.0072 -0.0147 -0.2217
  388DG     C18 8919   2.480   3.917   2.380  0.5908  0.2128  0.3142
  388DG     O19 8920   2.452   4.059   2.362  0.5066 -0.2109 -0.0623
  388DG     H20 8921   2.462   4.084   2.158  0.8233  1.4908  0.3552
  388DG     H21 8922   2.305   4.027   2.216  0.0374 -0.0137 -0.3878
  388DG     H22 8923   2.393   3.850   2.375  1.7680 -1.4193  0.7794
  388DG     H23 8924   2.514   3.896   2.482  1.2626 -0.6685 -0.0737
  389DG      C1 8925   2.010   5.282   5.304  0.1480  0.0845  0.1185
  389DG      C2 8926   2.084   4.614   5.249  0.2575 -0.1466 -0.3950
  389DG      H3 8927   1.995   5.382   5.262 -2.7922  0.7331  2.3664
  389DG      H4 8928   2.061   5.304   5.398  0.5583  0.3603 -0.1678
  389DG      H5 8929   1.908   5.262   5.338 -0.1259  1.4496  0.1544
  389DG      H6 8930   2.051   4.555   5.164 -0.8624  1.0019 -0.7847
  389DG      H7 8931   2.170   4.567   5.298 -0.2746  0.3482  1.0575
  389DG      H8 8932   1.997   4.618   5.315  0.1448  1.3519 -0.5876
  389DG      O9 8933   2.071   5.189   5.223 -0.8885 -0.1069 -0.0032
  389DG     O10 8934   2.110   4.742   5.194  0.1932 -0.2223 -0.4122
  389DG     C11 8935   2.212   5.210   5.194  0.8452 -0.0546  0.1321
  389DG     C12 8936   2.243   4.749   5.141  0.1300  0.3973  0.2524
  389DG     H13 8937   2.259   5.188   5.290 -2.0310 -1.6933  1.2931
  389DG     H14 8938   2.241   5.307   5.154  0.0705 -0.8288 -2.4653
  389DG     H15 8939   2.260   4.659   5.081 -0.2534  0.7661 -0.4269
  389DG     H16 8940   2.315   4.753   5.223 -0.6453 -0.8203  1.0284
  389DG     C17 8941   2.262   5.104   5.091 -0.6296 -0.2845  0.1477
  389DG     C18 8942   2.263   4.876   5.057 -0.0535  0.2762  0.0990
  389DG     O19 8943   2.217   4.979   5.139 -0.2929 -0.0351 -0.4469
  389DG     H20 8944   2.370   5.109   5.074 -0.1997  1.7656  2.7511
  389DG     H21 8945   2.218   5.120   4.992  0.5657 -2.0756 -0.7112
  389DG     H22 8946   2.366   4.883   5.022 -0.5521  0.0162 -1.4952
  389DG     H23 8947   2.200   4.883   4.968 -0.2049  1.5834  0.2957
  390DG      C1 8948   4.760   2.905   4.736  0.0799 -0.2507 -0.1604
  390DG      C2 8949   4.594   3.556   4.567 -0.8102  0.1419 -0.1678
  390DG      H3 8950   4.809   2.828   4.677 -1.1546 -0.2870 -1.1627
  390DG      H4 8951   4.657   2.884   4.709 -0.6905  0.6494  1.8946
  390DG      H5 8952   4.767   2.874   4.841  2.1490 -0.5973 -0.3623
  390DG      H6 8953   4.567   3.595   4.469  3.2846 -1.4017 -2.1626
  390DG      H7 8954   4.510   3.536   4.633  0.9782  1.6266  2.7677
  390DG      H8 8955   4.660   3.634   4.605  0.4175  0.0144 -1.8933
  390DG      O9 8956   4.801   3.036   4.702  0.3024  0.1982 -0.8450
  390DG     O10 8957   4.668   3.434   4.537 -0.0939  0.7036  0.4248
  390DG     C11 8958   4.937   3.060   4.727 -0.1415  0.0575  0.7995
  390DG     C12 8959   4.803   3.450   4.484 -0.6656  0.6336 -0.3623
  390DG     H13 8960   4.996   3.003   4.655  0.2591  0.2875  0.9435
  390DG     H14 8961   4.965   3.026   4.827  0.3908 -1.2071  0.2368
  390DG     H15 8962   4.820   3.555   4.460 -0.9992  0.6346 -0.6003
  390DG     H16 8963   4.824   3.380   4.404 -2.0616 -0.9119  0.5431
  390DG     C17 8964   4.962   3.213   4.701 -0.3891  0.3716  0.1149
  390DG     C18 8965   4.899   3.403   4.589 -0.4597  0.6105  1.0448
  390DG     O19 8966   4.868   3.268   4.616 -0.1796  0.2094  0.2882
  390DG     H20 8967   5.060   3.221   4.653 -0.4656 -0.4640 -0.1968
  390DG     H21 8968   4.974   3.267   4.795  1.1617 -0.4444  0.4288
  390DG     H22 8969   5.002   3.416   4.556 -1.3155  0.0996 -2.1811
  390DG     H23 8970   4.882   3.461   4.680 -2.7304  1.0393  0.4010
  391DG      C1 8971   1.256   3.209   2.676 -0.4452  0.3618 -0.3334
  391DG      C2 8972   1.150   3.847   3.215 -0.4140  0.8465  0.3826
  391DG      H3 8973   1.267   3.112   2.627 -0.2992 -0.3288  1.0063
  391DG      H4 8974   1.297   3.294   2.622  1.4578 -0.1692  0.1938
  391DG      H5 8975   1.147   3.213   2.686 -0.2960  0.9835  1.3757
  391DG      H6 8976   1.213   3.922   3.168 -2.0607  1.1584 -1.4921
  391DG      H7 8977   1.057   3.897   3.241 -1.5807 -0.7328 -0.5344
  391DG      H8 8978   1.197   3.811   3.306  1.3804  1.9369 -0.0609
  391DG      O9 8979   1.318   3.190   2.807  0.1683  0.2284  0.1272
  391DG     O10 8980   1.134   3.737   3.123 -0.2132  0.5101 -0.7427
  391DG     C11 8981   1.316   3.310   2.881  0.6500 -0.5048 -0.2489
  391DG     C12 8982   1.058   3.635   3.188  0.6270  0.1052  0.7620
  391DG     H13 8983   1.371   3.385   2.824  1.5509 -1.3865 -0.5691
  391DG     H14 8984   1.380   3.292   2.967  3.1880 -0.1647 -1.9660
  391DG     H15 8985   0.962   3.665   3.228  0.3654 -0.1907  0.3632
  391DG     H16 8986   1.123   3.602   3.269  1.2433 -2.4335 -0.6674
  391DG     C17 8987   1.177   3.346   2.936 -0.0626  0.4942  0.4673
  391DG     C18 8988   1.051   3.510   3.087 -0.3136 -0.6008 -0.0308
  391DG     O19 8989   1.172   3.470   3.017 -0.1466  0.3543  0.7584
  391DG     H20 8990   1.145   3.268   3.005  1.8947 -1.5065 -0.7574
  391DG     H21 8991   1.107   3.346   2.853  2.0289 -0.4484 -1.4067
  391DG     H22 8992   1.021   3.429   3.154  0.5063  0.2099  1.3671
  391DG     H23 8993   0.983   3.543   3.009  0.3714  3.3116  0.7865
  392DG      C1 8994   2.988   0.117   4.398  0.0728  0.0211 -1.1799
  392DG      C2 8995   3.680   0.083   4.543 -0.1496 -0.4232  0.3128
  392DG      H3 8996   2.986   0.084   4.502 -1.1618  1.7113 -0.6215
  392DG      H4 8997   2.909   0.082   4.331 -1.4086  1.0052 -0.0132
  392DG      H5 8998   2.970   0.224   4.407 -3.2312 -0.5310  0.5148
  392DG      H6 8999   3.772   0.033   4.512  0.9229  0.5137  1.8631
  392DG      H7 9000   3.694   0.184   4.580 -0.9365 -0.6725  1.3630
  392DG      H8 9001   3.662   0.029   4.636  1.9014 -0.5744  0.6555
  392DG      O9 9002   3.119   0.093   4.350 -0.3796 -0.2935 -0.7412
  392DG     O10 9003   3.571   0.073   4.456  0.3192 -0.9079  0.2380
  392DG     C11 9004   3.132   0.147   4.218 -0.3547 -0.0932 -0.4526
  392DG     C12 9005   3.597   0.156   4.340  0.5300  1.1606  0.0958
  392DG     H13 9006   3.114   0.254   4.216 -2.6445 -0.4333 -2.0623
  392DG     H14 9007   3.056   0.115   4.147 -1.5048 -0.4904  0.9047
  392DG     H15 9008   3.698   0.159   4.300  0.3173  1.3134 -0.4423
  392DG     H16 9009   3.569   0.258   4.367 -0.8634  0.6799  0.5701
  392DG     C17 9010   3.270   0.114   4.162  0.2814 -0.1976 -0.1933
  392DG     C18 9011   3.502   0.115   4.227 -0.3436  0.4042  0.0089
  392DG     O19 9012   3.366   0.119   4.275  0.4424  0.1945 -0.7393
  392DG     H20 9013   3.289   0.182   4.079  1.4357 -0.6742 -0.3333
  392DG     H21 9014   3.258   0.008   4.142  0.3794 -0.4979  1.2184
  392DG     H22 9015   3.524   0.190   4.151 -0.1932 -0.7242 -1.1061
  392DG     H23 9016   3.530   0.013   4.198  0.5438  0.6335  0.0264
  393DG      C1 9017   4.623   4.897   0.082 -0.2693  0.4218 -0.2644
  393DG      C2 9018   4.311   5.345   0.471 -0.3220  0.0112 -0.1059
  393DG      H3 9019   4.607   4.791   0.063 -1.9892  0.5999 -0.0354
  393DG      H4 9020   4.708   4.912   0.148  1.7694 -2.3064 -2.0406
  393DG      H5 9021   4.681   4.942   0.003  3.4097  1.5791  2.7840
  393DG      H6 9022   4.247   5.356   0.559 -0.7312  0.9544 -0.5103
  393DG      H7 9023   4.413   5.324   0.505 -0.7705  0.1739  1.4336
  393DG      H8 9024   4.316   5.441   0.419  0.5271  0.7292  1.2117
  393DG      O9 9025   4.504   4.960   0.121  0.0776 -0.0295 -0.1152
  393DG     O10 9026   4.279   5.247   0.388  0.1762 -0.0531  0.4128
  393DG     C11 9027   4.398   4.945   0.025  0.0537  0.3639 -0.2872
  393DG     C12 9028   4.166   5.267   0.298 -0.8674  0.4136 -0.7747
  393DG     H13 9029   4.394   4.846  -0.019 -0.1006  0.5179 -0.6281
  393DG     H14 9030   4.412   5.014  -0.058 -0.4133 -0.1428 -0.7934
  393DG     H15 9031   4.188   5.352   0.233  1.1997  0.6379  0.1367
  393DG     H16 9032   4.080   5.299   0.356 -1.5945  0.6942 -1.9545
  393DG     C17 9033   4.260   4.977   0.090 -0.5118  0.4842  0.2535
  393DG     C18 9034   4.148   5.142   0.215  0.0860  0.0746 -0.3446
  393DG     O19 9035   4.271   5.092   0.168  0.6993 -0.0110 -0.0395
  393DG     H20 9036   4.222   4.895   0.151 -0.4570  0.6421  0.4999
  393DG     H21 9037   4.187   4.989   0.011 -0.2537 -0.9034 -0.2215
  393DG     H22 9038   4.101   5.067   0.279 -3.2778  3.1205  1.1455
  393DG     H23 9039   4.075   5.165   0.137 -1.8641 -0.6212  1.1919
  394DG      C1 9040   5.354   0.565   0.761  0.0926 -0.4535  0.3587
  394DG      C2 9041   4.577   0.445   0.881  0.2450  0.0146  0.4858
  394DG      H3 9042   5.445   0.534   0.812  0.5664  1.8583  1.0564
  394DG      H4 9043   5.342   0.674   0.760 -2.3596 -0.6515  1.1329
  394DG      H5 9044   5.362   0.531   0.658  0.3770 -2.1963  0.9322
  394DG      H6 9045   4.584   0.374   0.798  1.4052 -0.1698  0.7239
  394DG      H7 9046   4.518   0.400   0.960  1.2758  0.8462  1.7634
  394DG      H8 9047   4.516   0.529   0.849 -0.3229 -1.1334 -1.6755
  394DG      O9 9048   5.238   0.503   0.820  0.6769  0.0608  0.2425
  394DG     O10 9049   4.706   0.464   0.933 -0.0132  0.1577  0.0512
  394DG     C11 9050   5.121   0.480   0.746  0.5056 -0.3324  0.0621
  394DG     C12 9051   4.760   0.351   0.995  0.1640 -0.1453 -0.2508
  394DG     H13 9052   5.149   0.439   0.649  1.5708  0.6692 -0.0859
  394DG     H14 9053   5.084   0.577   0.712  0.1158 -1.6082 -3.6969
  394DG     H15 9054   4.762   0.264   0.929  1.9654 -0.8344  0.6737
  394DG     H16 9055   4.700   0.328   1.083 -0.0838 -1.4176 -0.7259
  394DG     C17 9056   5.017   0.390   0.817  0.4722 -0.4977  0.2311
  394DG     C18 9057   4.902   0.376   1.028 -0.0193 -0.1148  0.4632
  394DG     O19 9058   4.969   0.456   0.931 -0.0157 -0.0687 -0.0018
  394DG     H20 9059   5.073   0.296   0.820  3.3435  1.0390 -1.0182
  394DG     H21 9060   4.934   0.375   0.747  0.4406 -1.1113  0.3920
  394DG     H22 9061   4.897   0.435   1.120 -0.7043 -1.3891  1.2661
  394DG     H23 9062   4.945   0.277   1.044 -1.2057 -0.6986  0.1220
  395DG      C1 9063   1.813   1.504   3.430  0.3995 -0.2124  0.2134
  395DG      C2 9064   2.041   1.758   2.894 -0.1863 -0.4537  0.3019
  395DG      H3 9065   1.746   1.562   3.494  1.0018  0.5675  0.1483
  395DG      H4 9066   1.903   1.557   3.398  0.0883 -1.5100 -3.2210
  395DG      H5 9067   1.857   1.419   3.482 -0.3240 -1.5766 -1.3264
  395DG      H6 9068   2.052   1.867   2.887 -3.0155 -0.1960 -1.8827
  395DG      H7 9069   2.058   1.733   2.999  0.2779  0.4129  0.4432
  395DG      H8 9070   2.122   1.721   2.831 -1.4006  0.0491 -1.6655
  395DG      O9 9071   1.762   1.454   3.308  0.8027 -0.0499 -0.5714
  395DG     O10 9072   1.928   1.708   2.837  0.2672  0.2948 -0.1379
  395DG     C11 9073   1.741   1.556   3.214  0.1098  0.0311  0.5470
  395DG     C12 9074   1.909   1.570   2.834  0.4211 -0.1210  0.1239
  395DG     H13 9075   1.833   1.611   3.195 -0.0435  0.4282  0.9518
  395DG     H14 9076   1.660   1.624   3.241  2.1675  2.1798  1.6869
  395DG     H15 9077   1.960   1.524   2.919  0.8088 -1.3999 -0.7649
  395DG     H16 9078   1.947   1.539   2.737  0.4525  0.5283 -0.0740
  395DG     C17 9079   1.708   1.491   3.077  0.5565 -0.2339 -1.1921
  395DG     C18 9080   1.752   1.557   2.842  0.3502 -0.9138 -0.0253
  395DG     O19 9081   1.705   1.590   2.973  0.1601 -0.5368  0.4223
  395DG     H20 9082   1.619   1.430   3.092  0.2089  0.8699  1.8042
  395DG     H21 9083   1.788   1.423   3.045  0.7904 -0.1394 -0.8135
  395DG     H22 9084   1.704   1.625   2.773  1.7366 -1.0477 -1.1813
  395DG     H23 9085   1.716   1.459   2.810 -2.1169  0.9282 -3.4499
  396DG      C1 9086   0.830   1.543   3.558  0.6692 -0.4673  0.1385
  396DG      C2 9087   1.377   1.114   3.170 -0.8726  0.9628 -0.4275
  396DG      H3 9088   0.843   1.650   3.545  0.7996 -0.6106 -0.9957
  396DG      H4 9089   0.887   1.503   3.642  0.1266  0.0012  0.7376
  396DG      H5 9090   0.724   1.547   3.586  0.6654  1.6591 -0.0478
  396DG      H6 9091   1.452   1.188   3.198 -0.1165 -0.4969  1.6492
  396DG      H7 9092   1.404   1.023   3.222 -2.0631  1.4869  1.2006
  396DG      H8 9093   1.400   1.089   3.067 -0.5983 -0.1352 -0.1070
  396DG      O9 9094   0.862   1.489   3.435  0.4035 -0.5132  0.5696
  396DG     O10 9095   1.243   1.137   3.194 -0.3571  0.0780  0.1332
  396DG     C11 9096   0.830   1.353   3.425  0.1309  0.0199  0.3326
  396DG     C12 9097   1.186   1.233   3.105 -0.0786 -0.0217 -0.0587
  396DG     H13 9098   0.722   1.337   3.421  0.2175 -0.9260  1.4290
  396DG     H14 9099   0.870   1.286   3.501  0.8877 -0.7319 -0.7020
  396DG     H15 9100   1.202   1.203   3.002  1.0880  1.2846 -0.2947
  396DG     H16 9101   1.238   1.329   3.103 -0.8215  0.3804 -2.1044
  396DG     C17 9102   0.862   1.301   3.283 -0.1940 -0.4305  0.0626
  396DG     C18 9103   1.032   1.244   3.131 -0.8329  0.3545  0.7075
  396DG     O19 9104   1.005   1.292   3.265 -0.4065  0.0758  0.2544
  396DG     H20 9105   0.826   1.370   3.207  1.4167 -0.1494 -0.4823
  396DG     H21 9106   0.808   1.208   3.272 -1.5145  0.0823  1.6820
  396DG     H22 9107   0.988   1.312   3.058 -0.6982 -0.0802  0.2144
  396DG     H23 9108   0.975   1.152   3.117  0.7082 -0.6460  0.8221
  397DG      C1 9109   3.820   4.454   3.257 -0.1526 -0.6811 -0.4885
  397DG      C2 9110   3.744   4.919   2.551 -0.5372  0.1843 -0.2938
  397DG      H3 9111   3.754   4.398   3.324 -2.3507  3.2158  0.9054
  397DG      H4 9112   3.820   4.551   3.306  0.9748 -0.1514 -1.4958
  397DG      H5 9113   3.924   4.423   3.265  0.1710  0.5167  0.2848
  397DG      H6 9114   3.712   4.928   2.447  2.5425  0.0824 -1.3678
  397DG      H7 9115   3.716   5.012   2.601  0.2121  0.6778 -0.7830
  397DG      H8 9116   3.853   4.915   2.548 -0.4253  1.3684  1.0329
  397DG      O9 9117   3.777   4.468   3.123  0.1047  0.0025  0.3522
  397DG     O10 9118   3.685   4.796   2.594  0.0261  0.2064 -0.2249
  397DG     C11 9119   3.656   4.547   3.122  0.3342  0.0920  0.4559
  397DG     C12 9120   3.706   4.776   2.731  0.1008  1.1510 -0.0743
  397DG     H13 9121   3.686   4.646   3.155 -0.3801  0.7868 -0.9312
  397DG     H14 9122   3.587   4.513   3.200  1.5801 -1.0987  1.0775
  397DG     H15 9123   3.676   4.865   2.786 -1.3879  0.9187 -0.4714
  397DG     H16 9124   3.809   4.752   2.757  0.3173  3.1183  1.1006
  397DG     C17 9125   3.588   4.542   2.981 -0.0469 -0.1314  0.0394
  397DG     C18 9126   3.611   4.664   2.774 -0.0040 -0.2314  0.0252
  397DG     O19 9127   3.669   4.628   2.899  0.5295 -0.3316 -0.1109
  397DG     H20 9128   3.484   4.573   2.994  0.0089 -1.0873  3.8239
  397DG     H21 9129   3.598   4.439   2.948  2.5852  1.0675 -3.5699
  397DG     H22 9130   3.512   4.704   2.794 -0.8033 -1.5753 -1.0144
  397DG     H23 9131   3.625   4.577   2.710  2.8579  0.8995 -1.0463
  398DG      C1 9132   3.734   3.868   5.376 -0.3574 -0.4687  0.4652
  398DG      C2 9133   3.366   3.428   5.513 -0.1023  0.4727  0.2239
  398DG      H3 9134   3.712   3.902   5.274  0.5428 -0.6822  0.1912
  398DG      H4 9135   3.828   3.907   5.414 -1.0237 -0.2679  1.9720
  398DG      H5 9136   3.655   3.909   5.439 -0.3600 -1.1271  0.9015
  398DG      H6 9137   3.277   3.465   5.463  1.0050  0.5924 -1.7957
  398DG      H7 9138   3.361   3.327   5.554 -1.1540  1.4602  2.7222
  398DG      H8 9139   3.385   3.494   5.598  2.1620 -0.4674  0.5425
  398DG      O9 9140   3.738   3.728   5.375  0.3741 -0.1977 -0.0351
  398DG     O10 9141   3.484   3.448   5.434  0.0877 -0.2112  0.2902
  398DG     C11 9142   3.833   3.679   5.280 -0.4102  0.3323 -0.5644
  398DG     C12 9143   3.499   3.389   5.307  0.4592  0.1615 -0.2543
  398DG     H13 9144   3.934   3.718   5.289 -0.5436  0.6843 -0.5695
  398DG     H14 9145   3.794   3.694   5.179 -0.4744 -1.1482 -0.7751
  398DG     H15 9146   3.405   3.411   5.257 -0.5090  0.6384  1.6754
  398DG     H16 9147   3.489   3.280   5.310 -2.1431  0.3613  0.6638
  398DG     C17 9148   3.845   3.530   5.292  0.6553  0.3286  0.3582
  398DG     C18 9149   3.620   3.450   5.242 -0.0504  0.4456  0.0679
  398DG     O19 9150   3.725   3.460   5.342 -0.0388 -0.5042  0.0166
  398DG     H20 9151   3.922   3.508   5.365  1.2706 -0.0512 -0.3923
  398DG     H21 9152   3.873   3.491   5.194  0.0585  1.8708 -0.4564
  398DG     H22 9153   3.633   3.396   5.148 -1.1833  2.3144 -1.2428
  398DG     H23 9154   3.600   3.552   5.210 -2.7900  0.1278  0.4965
  399DG      C1 9155   1.923   3.174   4.083 -0.1577 -0.3533  0.5847
  399DG      C2 9156   2.266   2.974   3.865  0.2071  0.1478  0.0606
  399DG      H3 9157   2.011   3.149   4.025 -1.5884  0.1712 -1.9613
  399DG      H4 9158   1.886   3.264   4.034 -0.2131  0.1764  1.5711
  399DG      H5 9159   1.845   3.098   4.073 -0.8244  0.5366 -1.3950
  399DG      H6 9160   2.271   2.874   3.908 -0.8850 -0.5827 -1.4162
  399DG      H7 9161   2.191   2.980   3.786 -0.5035 -3.8299  0.2192
  399DG      H8 9162   2.362   2.979   3.814  0.3270 -0.6921  0.1954
  399DG      O9 9163   1.949   3.210   4.221 -0.4176  0.0236  0.0297
  399DG     O10 9164   2.264   3.066   3.971  0.1866  0.2750 -0.1859
  399DG     C11 9165   1.989   3.343   4.236 -0.0742 -0.4351 -0.0170
  399DG     C12 9166   2.283   3.201   3.937  0.0302 -0.2992 -0.6528
  399DG     H13 9167   1.992   3.362   4.343  0.5684 -0.0904 -0.0943
  399DG     H14 9168   1.912   3.417   4.210  0.0181 -0.2633  0.1917
  399DG     H15 9169   2.189   3.242   3.902 -0.4784  2.4232  3.2815
  399DG     H16 9170   2.363   3.225   3.867  1.0367 -0.5160  0.3822
  399DG     C17 9171   2.127   3.374   4.160  0.6276 -0.0281 -0.3380
  399DG     C18 9172   2.309   3.285   4.063  0.4180 -0.5642 -0.2511
  399DG     O19 9173   2.216   3.269   4.166  0.4833 -0.0282 -0.3261
  399DG     H20 9174   2.177   3.462   4.201  0.1089 -0.2814  0.8884
  399DG     H21 9175   2.101   3.399   4.057 -0.2471  0.5803  0.0093
  399DG     H22 9176   2.399   3.240   4.105  0.3674  0.8953  1.5309
  399DG     H23 9177   2.330   3.389   4.036  0.0677 -0.3006  0.4536
  400DG      C1 9178   0.482   3.346   4.139  0.2307 -0.0174  0.0694
  400DG      C2 9179   0.388   3.539   3.665 -0.5134  0.5033  0.1134
  400DG      H3 9180   0.504   3.439   4.086  2.0397 -0.2700  0.3282
  400DG      H4 9181   0.517   3.263   4.078  0.7459  0.1573  0.1191
  400DG      H5 9182   0.533   3.344   4.235 -2.9499 -1.3282  1.8783
  400DG      H6 9183   0.490   3.503   3.671 -0.4368  0.2703 -1.8540
  400DG      H7 9184   0.332   3.449   3.636  0.2678 -0.1300  0.5419
  400DG      H8 9185   0.397   3.624   3.597  1.4587 -0.7127 -1.2605
  400DG      O9 9186   0.342   3.338   4.149 -0.1709 -0.7947  0.1888
  400DG     O10 9187   0.351   3.579   3.796  0.2732 -0.1330 -0.0647
  400DG     C11 9188   0.278   3.428   4.238 -0.0717 -0.4017  0.1654
  400DG     C12 9189   0.212   3.601   3.810  0.7897  0.1089 -0.0616
  400DG     H13 9190   0.345   3.481   4.305 -1.0537  0.8981  0.1741
  400DG     H14 9191   0.203   3.369   4.292 -3.2532  0.6253 -2.7308
  400DG     H15 9192   0.151   3.516   3.778 -1.4459  1.1437  1.2420
  400DG     H16 9193   0.171   3.679   3.746 -1.7328  0.7110  2.1175
  400DG     C17 9194   0.196   3.534   4.159  0.0627  0.1193 -0.5416
  400DG     C18 9195   0.176   3.636   3.954  0.0399 -0.4427 -0.2748
  400DG     O19 9196   0.249   3.538   4.030 -0.3106 -0.0908 -0.4865
  400DG     H20 9197   0.204   3.631   4.210 -2.0624 -0.1762  0.4885
  400DG     H21 9198   0.093   3.500   4.170  0.2783 -0.0436  1.5060
  400DG     H22 9199   0.200   3.735   3.991 -1.7246 -0.1431  0.1374
  400DG     H23 9200   0.069   3.621   3.961  0.2240 -1.2478  1.4742
  401DG      C1 9201   1.372   1.088   3.910  0.2259  0.5860 -0.1062
  401DG      C2 9202   0.858   1.620   3.970  0.1002  0.0992  0.0562
  401DG      H3 9203   1.364   1.160   3.829  0.7195  0.4262 -0.3022
  401DG      H4 9204   1.398   0.992   3.865  0.1708  0.6439 -0.2591
  401DG      H5 9205   1.455   1.118   3.975  0.3410  0.6253 -0.2722
  401DG      H6 9206   0.817   1.671   3.883 -0.0891  0.9952  0.6553
  401DG      H7 9207   0.827   1.670   4.062  2.1207 -1.2509  1.5512
  401DG      H8 9208   0.966   1.632   3.957  0.3998 -0.4912  1.8154
  401DG      O9 9209   1.271   1.092   4.007  1.0423  0.5466 -0.2187
  401DG     O10 9210   0.835   1.481   3.980  0.7027  0.0106  0.8020
  401DG     C11 9211   1.148   1.033   3.957  0.1744  0.4335  0.3035
  401DG     C12 9212   0.886   1.416   4.095 -0.5397  0.0723 -0.1239
  401DG     H13 9213   1.147   0.925   3.949 -0.5907  0.4499  0.0608
  401DG     H14 9214   1.138   1.076   3.857  3.3393 -0.0589 -0.3185
  401DG     H15 9215   0.821   1.452   4.175 -1.9313  0.0632 -1.1997
  401DG     H16 9216   0.986   1.453   4.115  0.0858 -1.5720 -0.0045
  401DG     C17 9217   1.027   1.075   4.036  0.1147  0.9595  0.1479
  401DG     C18 9218   0.891   1.256   4.089  0.8793 -0.3349 -0.2240
  401DG     O19 9219   1.018   1.217   4.048 -0.0251  0.0975  0.6559
  401DG     H20 9220   1.035   1.040   4.139  2.0247 -0.7832 -0.5178
  401DG     H21 9221   0.936   1.033   3.993  1.4389 -0.7718 -1.1475
  401DG     H22 9222   0.856   1.226   4.188  0.2022 -1.6008 -0.8196
  401DG     H23 9223   0.807   1.216   4.032 -0.0805  1.4572 -0.1500
  402DG      C1 9224   3.058   5.330   1.190  0.4511 -0.0493  0.3994
  402DG      C2 9225   2.643   4.865   1.174  0.4009  0.5235  0.4367
  402DG      H3 9226   3.159   5.366   1.209  0.3466  0.1392  0.5996
  402DG      H4 9227   3.002   5.384   1.114 -1.2079 -0.1732  1.4680
  402DG      H5 9228   3.078   5.232   1.147 -1.4651  0.5981 -2.1774
  402DG      H6 9229   2.635   4.761   1.206  4.0086  0.5898  2.0045
  402DG      H7 9230   2.565   4.886   1.101  1.2773  1.5593 -0.2386
  402DG      H8 9231   2.739   4.874   1.123  1.1210 -1.5432  1.3116
  402DG      O9 9232   2.987   5.315   1.308  0.4074  0.1392 -0.2046
  402DG     O10 9233   2.648   4.937   1.294 -0.4666  0.1628 -0.2085
  402DG     C11 9234   3.053   5.232   1.404  0.5501 -0.6484 -0.5667
  402DG     C12 9235   2.653   5.078   1.282 -0.6378  0.3604  0.0963
  402DG     H13 9236   3.126   5.289   1.461  1.5061 -0.2994 -2.0756
  402DG     H14 9237   3.104   5.154   1.347  0.8944  1.0905 -2.7796
  402DG     H15 9238   2.551   5.110   1.261 -0.2991  1.0303 -0.5923
  402DG     H16 9239   2.711   5.112   1.196  0.0904  1.3903  0.9808
  402DG     C17 9240   2.942   5.168   1.487  0.3718  0.0333 -0.0908
  402DG     C18 9241   2.723   5.146   1.396 -0.5418  0.2964 -0.4770
  402DG     O19 9242   2.853   5.096   1.411 -0.3709 -0.0680  0.4698
  402DG     H20 9243   2.886   5.238   1.550  0.0538  0.4377 -0.8118
  402DG     H21 9244   2.995   5.103   1.556  4.5520  1.9760 -1.1770
  402DG     H22 9245   2.733   5.249   1.364 -0.1832 -0.3765 -2.6525
  402DG     H23 9246   2.671   5.136   1.492 -0.4121  1.4238 -0.2773
  403DG      C1 9247   3.885   4.725   2.304  0.1130 -0.0985 -0.2667
  403DG      C2 9248   3.871   5.077   1.727 -0.1969 -0.9490  0.5425
  403DG      H3 9249   3.783   4.762   2.290  0.4065  0.9655  0.2687
  403DG      H4 9250   3.925   4.784   2.387  2.2655 -1.9691  0.1212
  403DG      H5 9251   3.884   4.621   2.334  0.1765 -0.0050  0.0644
  403DG      H6 9252   3.765   5.057   1.746 -0.7425  0.2009 -1.0756
  403DG      H7 9253   3.896   5.171   1.776 -1.4021  0.3655 -1.2311
  403DG      H8 9254   3.875   5.094   1.620  2.2670  2.8231  1.0453
  403DG      O9 9255   3.942   4.754   2.178  0.5876  0.3038  0.1511
  403DG     O10 9256   3.942   4.975   1.791 -0.3850 -0.4590 -0.7977
  403DG     C11 9257   4.078   4.730   2.175  0.0926 -0.3929 -0.0299
  403DG     C12 9258   4.082   4.999   1.789 -0.0009  0.0359  0.4114
  403DG     H13 9259   4.108   4.634   2.218  0.7587 -0.4025 -0.4930
  403DG     H14 9260   4.129   4.797   2.245 -0.7978 -1.1471  1.3788
  403DG     H15 9261   4.124   5.083   1.845  1.1868  0.5403 -1.1540
  403DG     H16 9262   4.098   5.030   1.686  0.2939 -2.2777 -0.2874
  403DG     C17 9263   4.129   4.736   2.031  0.2607  0.2724  0.3271
  403DG     C18 9264   4.145   4.870   1.830 -0.1649 -0.3460  0.1748
  403DG     O19 9265   4.103   4.866   1.967  0.3556  0.2292 -0.2261
  403DG     H20 9266   4.081   4.659   1.971 -0.6013 -0.4740  1.9282
  403DG     H21 9267   4.237   4.721   2.023  0.4590  2.0540 -0.9897
  403DG     H22 9268   4.108   4.788   1.768 -2.1014 -0.1597  0.9906
  403DG     H23 9269   4.252   4.886   1.817 -0.0374 -1.7224 -0.7009
  404DG      C1 9270   4.725   2.486   0.319  0.4592 -0.6319 -0.3442
  404DG      C2 9271   5.025   1.894   0.590 -0.1705 -0.3194 -0.2633
  404DG      H3 9272   4.771   2.576   0.360  0.7274 -1.3114  0.9098
  404DG      H4 9273   4.629   2.470   0.367 -0.2877 -0.3924 -1.7159
  404DG      H5 9274   4.707   2.499   0.212  3.5601 -4.9510 -1.6550
  404DG      H6 9275   5.034   1.787   0.568 -1.3133 -1.2407  3.1465
  404DG      H7 9276   5.116   1.921   0.644  0.5651 -1.7760 -0.7120
  404DG      H8 9277   4.940   1.904   0.657 -0.4636  0.0167 -0.6830
  404DG      O9 9278   4.816   2.378   0.325 -0.6077  0.3329  0.0334
  404DG     O10 9279   5.012   1.980   0.472 -0.1225  0.6442 -0.3285
  404DG     C11 9280   4.942   2.407   0.258  0.1898  0.2667 -0.1804
  404DG     C12 9281   5.133   2.002   0.406  0.2870 -0.1947 -0.7493
  404DG     H13 9282   5.008   2.461   0.326  0.9266  1.7424 -1.9638
  404DG     H14 9283   4.936   2.468   0.168 -1.0275  0.4624  0.0191
  404DG     H15 9284   5.191   1.910   0.389 -0.1004 -0.6817  0.4770
  404DG     H16 9285   5.188   2.062   0.478  1.1499 -1.4797 -0.2817
  404DG     C17 9286   5.016   2.294   0.199 -0.7122 -0.2035  0.2600
  404DG     C18 9287   5.115   2.089   0.279  0.5235 -0.5595  0.0591
  404DG     O19 9288   5.032   2.202   0.307 -0.4568 -0.6894 -0.4204
  404DG     H20 9289   5.102   2.333   0.145 -1.3525  0.8011 -0.0599
  404DG     H21 9290   4.954   2.248   0.123  0.3168 -2.3242  0.6383
  404DG     H22 9291   5.212   2.115   0.239 -0.5595  1.9972 -1.1505
  404DG     H23 9292   5.065   2.026   0.205 -0.9637 -0.4888  0.9601
  405DG      C1 9293   4.778   3.265   0.091 -0.4497 -0.3972  0.3428
  405DG      C2 9294   5.004   2.808  -0.028 -0.5018 -0.0735 -0.4489
  405DG      H3 9295   4.806   3.347   0.157  2.0015 -0.5295 -0.4400
  405DG      H4 9296   4.824   3.174   0.130 -0.7456 -0.7216 -0.0467
  405DG      H5 9297   4.670   3.261   0.102 -0.6844  0.7527 -1.2407
  405DG      H6 9298   5.097   2.752  -0.030 -0.6957 -0.4212 -2.3557
  405DG      H7 9299   5.022   2.892   0.039  2.7282 -0.3844 -0.7943
  405DG      H8 9300   4.931   2.760   0.036  1.0081  1.0305  2.2453
  405DG      O9 9301   4.816   3.281  -0.043  0.1410  0.3232  0.1377
  405DG     O10 9302   4.939   2.841  -0.151  0.3514 -0.8825 -0.8274
  405DG     C11 9303   4.776   3.167  -0.122  0.3682  0.1386  0.2888
  405DG     C12 9304   5.024   2.918  -0.236  0.1868 -0.4176  0.0355
  405DG     H13 9305   4.668   3.154  -0.121  0.5381 -2.1240  2.8459
  405DG     H14 9306   4.807   3.077  -0.068 -0.2010 -0.5365 -0.4803
  405DG     H15 9307   5.110   2.856  -0.261  0.1568 -1.3269  2.0085
  405DG     H16 9308   5.059   3.012  -0.192 -0.1960  0.1146 -0.7844
  405DG     C17 9309   4.837   3.167  -0.268 -0.1132 -0.3767  0.0728
  405DG     C18 9310   4.942   2.970  -0.359  0.0214  0.3167 -0.0475
  405DG     O19 9311   4.822   3.038  -0.321 -0.1817 -0.4320  0.2424
  405DG     H20 9312   4.940   3.204  -0.268  0.9733 -3.0819  2.1644
  405DG     H21 9313   4.776   3.240  -0.322 -1.5000 -0.2896  1.6962
  405DG     H22 9314   5.002   3.019  -0.435  0.9291 -1.9053 -0.8431
  405DG     H23 9315   4.909   2.874  -0.401 -1.4655  0.8589 -0.1807
  406DG      C1 9316   0.948   2.735   0.348 -0.5082  0.8209 -0.0384
  406DG      C2 9317   1.464   2.473   0.636 -0.0731  0.1862  0.0955
  406DG      H3 9318   0.865   2.699   0.410 -0.7373  1.1826 -0.1338
  406DG      H4 9319   0.911   2.773   0.253  1.0020  0.9916 -0.5877
  406DG      H5 9320   0.983   2.815   0.413  0.2509  0.3000  0.2168
  406DG      H6 9321   1.448   2.467   0.743 -1.4241  2.9918  0.1542
  406DG      H7 9322   1.543   2.405   0.603 -1.3235 -1.8446  1.1400
  406DG      H8 9323   1.505   2.573   0.617 -0.0238  0.1235 -0.1333
  406DG      O9 9324   1.050   2.634   0.325  0.3589 -0.0857 -0.0810
  406DG     O10 9325   1.331   2.455   0.572  0.5505  0.4237  0.1888
  406DG     C11 9326   0.991   2.501   0.308  0.7691 -0.6425  0.5556
  406DG     C12 9327   1.301   2.320   0.549 -0.2801  0.0213 -0.8061
  406DG     H13 9328   0.902   2.504   0.244  1.3486 -2.5646 -0.4209
  406DG     H14 9329   0.943   2.464   0.398 -1.5536 -0.1847 -0.3981
  406DG     H15 9330   1.291   2.265   0.642 -0.2051  0.4012 -0.5695
  406DG     H16 9331   1.371   2.269   0.483  0.0931 -2.3906  1.3011
  406DG     C17 9332   1.078   2.385   0.261 -0.2261  0.0783 -0.0408
  406DG     C18 9333   1.173   2.316   0.467 -0.1096  0.0744 -0.6449
  406DG     O19 9334   1.202   2.379   0.343  0.1860  0.1574  0.3531
  406DG     H20 9335   1.106   2.398   0.156  0.9808  1.2287  0.3891
  406DG     H21 9336   1.031   2.287   0.257 -1.3382  0.6399 -2.0354
  406DG     H22 9337   1.166   2.210   0.441 -1.6407 -0.1189  0.3807
  406DG     H23 9338   1.089   2.349   0.528  0.6749 -1.0425  1.1213
  407DG      C1 9339   4.014   3.174   3.737  0.4780 -0.5648  0.1835
  407DG      C2 9340   3.465   2.738   3.583  0.4008  0.7269  0.0550
  407DG      H3 9341   4.061   3.096   3.796  0.9946 -0.3358  0.0768
  407DG      H4 9342   3.949   3.234   3.801 -0.3518  0.2504 -1.3377
  407DG      H5 9343   4.095   3.224   3.683 -0.0998  1.4129  1.0335
  407DG      H6 9344   3.448   2.667   3.502  1.1766  2.3183 -1.5630
  407DG      H7 9345   3.491   2.686   3.675 -1.7163  1.8446  1.3684
  407DG      H8 9346   3.369   2.780   3.614 -0.7441 -3.1022  2.3649
  407DG      O9 9347   3.931   3.119   3.631  0.1188 -0.3851 -0.4252
  407DG     O10 9348   3.554   2.835   3.536 -0.6442  0.0820 -0.0249
  407DG     C11 9349   3.853   3.219   3.571  0.5459 -0.4591  0.8925
  407DG     C12 9350   3.490   2.930   3.459 -0.1671  0.4725 -0.4953
  407DG     H13 9351   3.909   3.301   3.526  0.1794 -1.0356 -0.6678
  407DG     H14 9352   3.790   3.264   3.648  0.1208 -0.7021  0.6852
  407DG     H15 9353   3.437   3.004   3.519  2.5293  2.7853 -0.7358
  407DG     H16 9354   3.412   2.882   3.399 -2.5809  1.9072  1.2858
  407DG     C17 9355   3.761   3.174   3.458  0.5779  0.3451  0.3465
  407DG     C18 9356   3.589   3.020   3.386  0.4028 -0.3837 -0.4442
  407DG     O19 9357   3.681   3.056   3.490  0.0156  0.0603 -0.1471
  407DG     H20 9358   3.819   3.165   3.367  1.0818  0.7265  0.6235
  407DG     H21 9359   3.693   3.255   3.432 -1.4383 -1.1494  0.6806
  407DG     H22 9360   3.636   2.945   3.322  2.4586 -0.5129  1.1091
  407DG     H23 9361   3.546   3.105   3.333 -1.5277 -0.3487  1.0880
  408DG      C1 9362   1.158   1.375   3.685  0.0604 -0.3178  0.2585
  408DG      C2 9363   1.793   1.632   3.783  0.9048 -0.7909  0.2462
  408DG      H3 9364   1.183   1.389   3.580  0.2199  0.0573  0.3415
  408DG      H4 9365   1.056   1.404   3.710  0.1796 -0.0490  0.4370
  408DG      H5 9366   1.165   1.270   3.713 -0.8732  0.1579  2.4698
  408DG      H6 9367   1.770   1.728   3.736  0.7010 -0.5398  0.8423
  408DG      H7 9368   1.870   1.663   3.854  1.6419 -0.3278 -0.7408
  408DG      H8 9369   1.833   1.562   3.711 -0.7445 -0.4271 -1.0814
  408DG      O9 9370   1.257   1.448   3.760  0.4764 -0.0865  0.2212
  408DG     O10 9371   1.664   1.585   3.853 -0.0475 -0.1978  1.1383
  408DG     C11 9372   1.229   1.448   3.899 -0.2553 -0.5111 -0.2465
  408DG     C12 9373   1.623   1.682   3.948 -0.1892 -0.5116 -0.8940
  408DG     H13 9374   1.199   1.345   3.921  1.6983 -1.2857 -0.9663
  408DG     H14 9375   1.160   1.531   3.916  0.8196  1.1892 -3.3793
  408DG     H15 9376   1.585   1.768   3.894  1.2911 -0.8137 -2.5196
  408DG     H16 9377   1.694   1.716   4.024  0.1613 -2.9703  0.0054
  408DG     C17 9378   1.358   1.472   3.973 -1.0599 -0.1404  0.4016
  408DG     C18 9379   1.507   1.640   4.031 -0.1921 -0.1593 -0.0389
  408DG     O19 9380   1.414   1.597   3.936 -0.0669  0.0258  0.1334
  408DG     H20 9381   1.433   1.395   3.959 -0.0206  0.9899 -0.5597
  408DG     H21 9382   1.330   1.469   4.078 -0.1765  1.3534  0.7137
  408DG     H22 9383   1.531   1.566   4.107  0.9962 -2.1862 -2.2310
  408DG     H23 9384   1.461   1.724   4.082  1.2396 -0.3713  1.6940
  409DG      C1 9385   2.949   3.585   4.637 -0.4240 -0.3027 -0.0260
  409DG      C2 9386   2.517   3.791   5.123  0.1156 -0.3908 -0.6328
  409DG      H3 9387   2.932   3.487   4.682 -0.4397  0.6463  2.1580
  409DG      H4 9388   3.052   3.596   4.602 -1.3375  0.9368 -2.5935
  409DG      H5 9389   2.885   3.608   4.552 -0.8543  3.6563  1.1674
  409DG      H6 9390   2.518   3.817   5.229 -1.2631 -0.4586 -0.5849
  409DG      H7 9391   2.437   3.850   5.078  1.8506  2.4152 -0.2639
  409DG      H8 9392   2.496   3.685   5.106 -1.4207 -0.3004  0.5021
  409DG      O9 9393   2.933   3.685   4.742  0.3347  0.6069  0.3487
  409DG     O10 9394   2.639   3.809   5.054  0.4707  0.2111 -0.3786
  409DG     C11 9395   2.941   3.811   4.691  0.0925 -0.4023  1.0699
  409DG     C12 9396   2.681   3.945   5.065  0.4786  0.3408  0.0638
  409DG     H13 9397   2.856   3.823   4.624  2.7456 -2.0281 -2.9988
  409DG     H14 9398   3.029   3.832   4.631 -0.7912  1.8179  0.4450
  409DG     H15 9399   2.694   3.975   5.169 -1.3138 -0.1641  0.4622
  409DG     H16 9400   2.612   4.010   5.012 -0.8726 -3.6559 -3.5397
  409DG     C17 9401   2.944   3.906   4.815 -0.1279  1.0679  0.2635
  409DG     C18 9402   2.823   3.972   5.005  0.6840 -0.2435  0.1452
  409DG     O19 9403   2.811   3.912   4.877  0.4087 -0.5539  0.0484
  409DG     H20 9404   2.974   4.007   4.785  1.1851  0.4091 -0.7545
  409DG     H21 9405   3.020   3.873   4.885 -0.0145  2.0867  0.6331
  409DG     H22 9406   2.860   4.075   4.995 -0.1879 -0.0553 -1.4567
  409DG     H23 9407   2.893   3.928   5.076 -1.1189 -1.3450  1.2897
  410DG      C1 9408   5.055   1.136   5.080  0.6954  0.2708  0.0610
  410DG      C2 9409   5.355   1.070   5.701 -0.0178  0.3916  0.5991
  410DG      H3 9410   4.965   1.136   5.141  0.6476  0.5615 -0.0067
  410DG      H4 9411   5.088   1.034   5.099 -0.4252  0.2547  2.1891
  410DG      H5 9412   5.012   1.147   4.980  1.2458  0.1730 -0.1925
  410DG      H6 9413   5.408   1.159   5.736 -0.1878  1.0397 -0.7456
  410DG      H7 9414   5.248   1.084   5.717 -0.1196 -1.6541  2.1476
  410DG      H8 9415   5.378   0.985   5.765 -0.4127 -1.0765 -1.1452
  410DG      O9 9416   5.143   1.239   5.110  0.0063 -0.6076 -0.1698
  410DG     O10 9417   5.407   1.062   5.560  0.1355  0.5027  0.1420
  410DG     C11 9418   5.187   1.269   5.241 -0.1900  0.8684  0.4094
  410DG     C12 9419   5.382   0.955   5.480  0.5797  0.5710 -0.4723
  410DG     H13 9420   5.112   1.247   5.317 -1.2512 -0.6415 -1.0190
  410DG     H14 9421   5.206   1.377   5.242 -1.1727  1.0916 -1.2303
  410DG     H15 9422   5.283   0.913   5.498  1.2484 -0.8568  0.0317
  410DG     H16 9423   5.446   0.873   5.513  0.5642  1.3149  1.5076
  410DG     C17 9424   5.316   1.195   5.266  0.3017 -0.7987 -0.0388
  410DG     C18 9425   5.395   0.985   5.331 -0.2432 -0.2449  0.0554
  410DG     O19 9426   5.287   1.054   5.273 -0.0640 -0.1715  0.5670
  410DG     H20 9427   5.356   1.232   5.360  0.5290 -2.1087  0.3905
  410DG     H21 9428   5.393   1.204   5.190  0.7560  1.0317  0.5950
  410DG     H22 9429   5.488   1.032   5.297 -2.2623  2.5991 -1.9542
  410DG     H23 9430   5.408   0.887   5.284  2.5657 -1.4570  2.9619
  411DG      C1 9431   4.863   3.722   4.992 -1.1619  0.4630  0.4125
  411DG      C2 9432   5.025   3.991   5.547  0.2368  0.8011 -0.0166
  411DG      H3 9433   4.873   3.629   4.936  0.2149 -1.6746  3.8440
  411DG      H4 9434   4.943   3.795   4.980  0.4292 -1.5583 -2.4701
  411DG      H5 9435   4.770   3.760   4.950 -2.1347 -2.6060 -0.5190
  411DG      H6 9436   4.938   4.048   5.580 -0.1544  0.6789 -0.8168
  411DG      H7 9437   5.096   3.966   5.625  1.1754 -2.2539 -1.6939
  411DG      H8 9438   5.079   4.053   5.475 -0.7038 -1.5896 -3.0092
  411DG      O9 9439   4.855   3.693   5.126 -0.0405 -0.2122 -0.6940
  411DG     O10 9440   4.982   3.875   5.482 -0.3546  1.3028  0.0593
  411DG     C11 9441   4.743   3.618   5.180  0.5301 -0.6270  0.8081
  411DG     C12 9442   4.910   3.796   5.575 -0.3306 -0.6773 -0.2907
  411DG     H13 9443   4.724   3.524   5.128  0.0126  0.0503 -0.2612
  411DG     H14 9444   4.651   3.674   5.159  0.5137 -0.4731  1.2784
  411DG     H15 9445   4.809   3.837   5.586  0.1532  0.9265 -1.4536
  411DG     H16 9446   4.950   3.783   5.676 -0.2985  0.1615 -0.1863
  411DG     C17 9447   4.772   3.577   5.317  0.0918  0.0122  0.0035
  411DG     C18 9448   4.870   3.660   5.509 -0.5734  0.0712 -0.1674
  411DG     O19 9449   4.810   3.699   5.389  0.2177  0.1622  0.1524
  411DG     H20 9450   4.856   3.508   5.322  2.3407  2.6216  0.9412
  411DG     H21 9451   4.681   3.547   5.369 -0.3234 -0.2307 -0.8383
  411DG     H22 9452   4.959   3.606   5.478 -0.2807  1.5394 -2.1124
  411DG     H23 9453   4.809   3.594   5.570  1.3788 -1.1735  0.5160
  412DG      C1 9454   0.884   4.911   3.590  0.7448 -0.0363 -0.0578
  412DG      C2 9455   0.096   4.608   3.737 -0.4702 -0.1429 -0.5735
  412DG      H3 9456   0.836   4.993   3.643 -2.1694 -1.1270 -0.8012
  412DG      H4 9457   0.863   4.910   3.483  0.5836 -0.8787 -0.0303
  412DG      H5 9458   0.991   4.928   3.601  0.5248  0.4174  1.4671
  412DG      H6 9459   0.050   4.519   3.781 -1.4500  1.1053  1.1108
  412DG      H7 9460   0.054   4.698   3.782 -0.7331 -1.1771  1.3829
  412DG      H8 9461   0.059   4.609   3.635 -0.2055 -0.1316 -0.6678
  412DG      O9 9462   0.844   4.794   3.645 -0.0601  0.0482  0.0735
  412DG     O10 9463   0.236   4.593   3.740 -0.1863  0.2679  0.2108
  412DG     C11 9464   0.704   4.792   3.650 -0.5170  0.5448  0.2686
  412DG     C12 9465   0.302   4.637   3.857  0.0929  0.3695 -0.2468
  412DG     H13 9466   0.668   4.782   3.548  1.0123  0.2674 -0.2766
  412DG     H14 9467   0.670   4.887   3.693 -1.0500  0.9423 -0.9971
  412DG     H15 9468   0.274   4.589   3.951  1.7840  1.0457  0.6421
  412DG     H16 9469   0.293   4.745   3.869  0.4321  0.3544  0.1948
  412DG     C17 9470   0.647   4.677   3.740  0.0923 -0.3827  0.0028
  412DG     C18 9471   0.450   4.596   3.843  0.3042 -0.5873 -0.5937
  412DG     O19 9472   0.508   4.687   3.750  0.4884 -0.5850 -0.4471
  412DG     H20 9473   0.702   4.684   3.834  0.7387  0.0804 -0.4014
  412DG     H21 9474   0.670   4.578   3.699 -1.9541 -0.8956 -0.0309
  412DG     H22 9475   0.498   4.606   3.940 -1.1139 -1.6794  0.2716
  412DG     H23 9476   0.457   4.491   3.812  1.0652 -0.0452 -2.3732
  413DG      C1 9477   4.133   4.327   3.486  0.3043 -0.1667 -0.6320
  413DG      C2 9478   4.621   4.720   3.663  0.2962 -0.0064  0.3245
  413DG      H3 9479   4.040   4.382   3.503  0.1992 -0.6494  0.4130
  413DG      H4 9480   4.159   4.290   3.585 -3.4995 -0.7992  0.3157
  413DG      H5 9481   4.114   4.241   3.421 -0.0267 -0.3571 -0.2918
  413DG      H6 9482   4.640   4.827   3.667 -0.0401  0.0319  1.6078
  413DG      H7 9483   4.515   4.699   3.682 -0.0167  0.4070 -0.8864
  413DG      H8 9484   4.688   4.675   3.736  0.5143 -0.2999 -0.0548
  413DG      O9 9485   4.237   4.407   3.439 -0.3593 -0.1275 -0.1323
  413DG     O10 9486   4.649   4.657   3.544 -0.3439 -0.6728 -0.5101
  413DG     C11 9487   4.354   4.332   3.406  0.5697  1.2217 -0.1164
  413DG     C12 9488   4.592   4.712   3.434 -0.2477 -0.6903  1.1195
  413DG     H13 9489   4.344   4.290   3.306  2.8089 -0.4862  0.2974
  413DG     H14 9490   4.372   4.256   3.482  1.0958  0.0253 -1.3893
  413DG     H15 9491   4.655   4.794   3.400 -0.6970 -0.6524  0.3691
  413DG     H16 9492   4.496   4.758   3.459 -0.1154 -1.2261  2.7743
  413DG     C17 9493   4.479   4.417   3.411  0.2046  0.1954 -0.0166
  413DG     C18 9494   4.580   4.612   3.317 -0.0294  0.0595 -0.2045
  413DG     O19 9495   4.458   4.528   3.327 -0.4645 -1.4879  0.9631
  413DG     H20 9496   4.562   4.357   3.373  0.7747  1.4267 -0.7915
  413DG     H21 9497   4.500   4.462   3.508 -1.0721  3.5929 -1.1319
  413DG     H22 9498   4.574   4.668   3.224 -0.3008  1.2241  0.4829
  413DG     H23 9499   4.664   4.543   3.310  1.7475  1.6945  2.9538
  414DG      C1 9500   3.570   0.625   2.835 -0.0968 -0.0227 -0.2823
  414DG      C2 9501   4.257   0.393   3.182 -0.6052  0.1050  0.4585
  414DG      H3 9502   3.568   0.527   2.882 -2.1971 -0.4589 -1.1836
  414DG      H4 9503   3.500   0.616   2.752 -0.3763 -0.8189  0.0354
  414DG      H5 9504   3.530   0.702   2.902  0.9757  0.2965  0.0142
  414DG      H6 9505   4.190   0.396   3.268  0.0660  1.2891  0.9680
  414DG      H7 9506   4.321   0.308   3.201 -2.1336 -1.3976 -0.7423
  414DG      H8 9507   4.318   0.483   3.182  1.1378 -1.0336  0.0603
  414DG      O9 9508   3.704   0.661   2.789  0.3801  0.4005 -0.4944
  414DG     O10 9509   4.193   0.355   3.064 -0.1345 -0.1088  0.3410
  414DG     C11 9510   3.757   0.558   2.702 -0.3958 -0.0743  0.2798
  414DG     C12 9511   4.099   0.443   3.015 -0.2042 -0.3585  0.0053
  414DG     H13 9512   3.831   0.608   2.640 -1.2860  1.7580  0.6025
  414DG     H14 9513   3.689   0.504   2.635  0.1169 -1.1296  0.6007
  414DG     H15 9514   4.154   0.528   2.974 -1.6337  0.2008 -0.8387
  414DG     H16 9515   4.034   0.477   3.096  1.2100 -0.9746  1.4391
  414DG     C17 9516   3.829   0.443   2.773 -0.9453  0.3480 -0.0750
  414DG     C18 9517   4.018   0.384   2.900  0.1496 -0.5819  0.0681
  414DG     O19 9518   3.930   0.498   2.858  1.0633  0.2400 -0.6750
  414DG     H20 9519   3.874   0.382   2.695  2.3705  4.3346 -1.6296
  414DG     H21 9520   3.770   0.369   2.828  0.4048  0.2448  1.3304
  414DG     H22 9521   4.081   0.366   2.813  0.9444 -0.5163  0.6082
  414DG     H23 9522   3.962   0.296   2.930  0.6223 -1.4104 -1.4059
  415DG      C1 9523   4.085   1.316   1.875 -0.0014 -0.9105 -0.2264
  415DG      C2 9524   4.134   1.954   1.407 -0.2176  0.2845 -0.3680
  415DG      H3 9525   4.140   1.239   1.929  0.4855 -0.0032  0.6027
  415DG      H4 9526   3.989   1.271   1.847 -0.4311 -2.2029  2.9483
  415DG      H5 9527   4.064   1.389   1.952  3.0652 -2.2290  2.0642
  415DG      H6 9528   4.138   1.983   1.302  1.2567 -1.0852 -0.7341
  415DG      H7 9529   4.044   1.898   1.435  0.1879 -0.5435 -0.7033
  415DG      H8 9530   4.148   2.046   1.464 -1.4712  0.7524 -0.7667
  415DG      O9 9531   4.155   1.387   1.772 -0.0922  0.6259 -0.2775
  415DG     O10 9532   4.241   1.863   1.435  0.0080  0.4538  0.1501
  415DG     C11 9533   4.295   1.406   1.808 -0.0071 -0.0393 -0.0224
  415DG     C12 9534   4.224   1.813   1.570 -0.0600  0.6161  0.3254
  415DG     H13 9535   4.349   1.311   1.819 -0.0937 -0.2270 -1.1589
  415DG     H14 9536   4.305   1.445   1.909 -0.8496 -1.5839  0.6981
  415DG     H15 9537   4.131   1.757   1.559 -1.8763  3.3400  0.8083
  415DG     H16 9538   4.200   1.875   1.657  0.2525 -2.7880  3.0929
  415DG     C17 9539   4.353   1.499   1.697  0.2837 -0.1184 -0.0215
  415DG     C18 9540   4.345   1.723   1.619  0.4754 -0.5111 -0.0246
  415DG     O19 9541   4.301   1.628   1.717 -0.1312 -0.0473  0.2064
  415DG     H20 9542   4.340   1.456   1.597  1.0014  0.3790 -0.3353
  415DG     H21 9543   4.460   1.495   1.716  0.4846  0.8150 -0.8619
  415DG     H22 9544   4.399   1.678   1.536  0.3952 -0.2480 -0.2209
  415DG     H23 9545   4.415   1.783   1.677 -0.3358 -0.3066  0.7824
  416DG      C1 9546   2.201   2.919   4.264 -0.0721 -0.3223  0.7082
  416DG      C2 9547   2.358   3.046   4.875  0.3452 -0.2075  0.8516
  416DG      H3 9548   2.123   2.973   4.318 -0.8681  0.3903 -1.0807
  416DG      H4 9549   2.162   2.849   4.190  2.0515  0.4045 -1.1984
  416DG      H5 9550   2.273   2.990   4.224  0.5552 -2.1996 -1.7770
  416DG      H6 9551   2.354   3.016   4.980 -0.1537 -0.5400  0.7427
  416DG      H7 9552   2.453   3.093   4.850  0.0885 -1.1212 -2.2705
  416DG      H8 9553   2.278   3.115   4.848  0.6638 -0.3455 -0.4839
  416DG      O9 9554   2.260   2.837   4.365  0.0606  0.0172 -0.2253
  416DG     O10 9555   2.336   2.933   4.796  0.3527  0.2050  0.4416
  416DG     C11 9556   2.388   2.769   4.332  0.0863  0.4527 -0.3104
  416DG     C12 9557   2.443   2.842   4.787 -0.1341  0.1355  0.2776
  416DG     H13 9558   2.462   2.844   4.306  0.1286  0.2245 -0.8474
  416DG     H14 9559   2.370   2.698   4.251 -0.6556 -0.6560  0.7810
  416DG     H15 9560   2.447   2.801   4.888 -1.3419 -1.9617 -0.4851
  416DG     H16 9561   2.541   2.885   4.765  0.4685 -0.7147  1.1838
  416DG     C17 9562   2.428   2.683   4.458 -0.4538 -0.3444 -0.5199
  416DG     C18 9563   2.427   2.721   4.692 -1.0734  0.3552  0.3035
  416DG     O19 9564   2.421   2.780   4.561  0.3317  0.2820  0.4641
  416DG     H20 9565   2.523   2.631   4.451 -1.2504 -2.2836  1.8031
  416DG     H21 9566   2.356   2.601   4.459  0.1837 -0.9297 -1.3779
  416DG     H22 9567   2.516   2.661   4.708 -1.4114  0.1649  1.6188
  416DG     H23 9568   2.339   2.663   4.721 -0.1733 -0.7522  0.9118
  417DG      C1 9569   2.932   2.286   0.619  0.5446 -0.5239  0.1993
  417DG      C2 9570   3.339   2.762   1.019  0.3679 -0.1767  0.0618
  417DG      H3 9571   3.005   2.287   0.538  0.5956 -0.1270  0.2463
  417DG      H4 9572   2.832   2.286   0.576  0.5193  1.4434  0.1325
  417DG      H5 9573   2.954   2.192   0.669  3.0414 -0.3460 -0.4372
  417DG      H6 9574   3.421   2.768   0.947 -0.9537  0.1341 -1.4640
  417DG      H7 9575   3.340   2.846   1.089 -0.0655  1.5246 -1.8829
  417DG      H8 9576   3.354   2.668   1.072 -0.0184 -0.8789 -1.0254
  417DG      O9 9577   2.944   2.389   0.711  0.5725 -0.4398 -0.2478
  417DG     O10 9578   3.216   2.743   0.944 -0.3228  0.5118  0.2224
  417DG     C11 9579   2.880   2.509   0.670  0.2418  0.1212  1.0651
  417DG     C12 9580   3.112   2.723   1.030  0.2695  0.4014 -0.6419
  417DG     H13 9581   2.778   2.497   0.633  0.7729 -2.1135  0.1147
  417DG     H14 9582   2.945   2.558   0.597  0.7375  0.0798  1.4682
  417DG     H15 9583   3.114   2.798   1.109 -0.5910 -1.4204  1.2316
  417DG     H16 9584   3.128   2.632   1.088  0.3483 -0.4319 -1.9240
  417DG     C17 9585   2.862   2.594   0.789  0.2099 -0.6603 -0.1063
  417DG     C18 9586   2.979   2.725   0.956  0.2227  0.1823  0.0622
  417DG     O19 9587   2.985   2.617   0.861  0.4299  0.1602 -0.2882
  417DG     H20 9588   2.797   2.547   0.862  0.6991 -3.8260 -1.5665
  417DG     H21 9589   2.838   2.698   0.763 -1.5943 -0.5752  1.6968
  417DG     H22 9590   2.898   2.704   1.026 -0.1710 -1.4377 -0.8311
  417DG     H23 9591   2.977   2.822   0.907  0.3138  1.0114  1.6584
  418DG      C1 9592   2.030   4.664   3.672  0.2764  0.1580  0.6827
  418DG      C2 9593   2.101   3.981   4.167  0.1858  0.5151 -0.3781
  418DG      H3 9594   2.092   4.753   3.657 -0.8484  0.9130  0.4319
  418DG      H4 9595   1.932   4.711   3.671  0.5008  0.6960 -2.0725
  418DG      H5 9596   2.028   4.592   3.591  2.7886  0.8671 -0.0973
  418DG      H6 9597   1.999   3.978   4.204  0.5139  3.0870  0.9822
  418DG      H7 9598   2.126   3.888   4.115  0.7241 -1.0615  2.4195
  418DG      H8 9599   2.166   3.975   4.255  0.1681 -2.3627 -0.4460
  418DG      O9 9600   2.055   4.612   3.800  0.0706  0.1613 -0.1744
  418DG     O10 9601   2.117   4.096   4.090  0.2470 -0.5445  0.0867
  418DG     C11 9602   2.173   4.530   3.802  0.6049 -0.1665 -0.0455
  418DG     C12 9603   2.252   4.145   4.090  0.4385  0.1915  0.0204
  418DG     H13 9604   2.255   4.571   3.743  1.6599 -1.3043  0.5851
  418DG     H14 9605   2.148   4.442   3.744  0.8501  0.0645 -0.5119
  418DG     H15 9606   2.299   4.096   4.005  1.6339 -0.7242  1.1720
  418DG     H16 9607   2.310   4.116   4.178 -2.3341 -0.7762  1.6675
  418DG     C17 9608   2.211   4.484   3.936 -0.1526  0.8635  0.5128
  418DG     C18 9609   2.253   4.297   4.070 -1.1605  0.6288  0.0841
  418DG     O19 9610   2.213   4.340   3.943  0.0327 -0.4320 -0.1882
  418DG     H20 9611   2.165   4.541   4.017 -0.6219 -1.6040  2.0859
  418DG     H21 9612   2.311   4.522   3.960 -0.3474 -0.6372  4.3402
  418DG     H22 9613   2.185   4.347   4.139 -1.5661 -3.8660  3.4473
  418DG     H23 9614   2.352   4.334   4.096 -0.6447 -1.7931  1.9656
  419DG      C1 9615   5.416   5.309   2.480  0.1989  0.1586 -0.2280
  419DG      C2 9616   5.615   4.737   2.064  0.5149 -0.4685 -0.0008
  419DG      H3 9617   5.492   5.326   2.555 -0.5681 -1.0663  0.8669
  419DG      H4 9618   5.317   5.333   2.520 -0.0784 -2.3087  0.7426
  419DG      H5 9619   5.435   5.355   2.383 -2.5965  1.3403 -0.3272
  419DG      H6 9620   5.720   4.739   2.094  1.1825 -2.5311 -1.9211
  419DG      H7 9621   5.597   4.635   2.030  1.6084 -0.3667 -0.9343
  419DG      H8 9622   5.615   4.807   1.981  1.4616 -1.0940 -0.5485
  419DG      O9 9623   5.414   5.171   2.447 -0.0402  0.2821 -0.2443
  419DG     O10 9624   5.529   4.775   2.171  0.2370 -0.4372  0.0517
  419DG     C11 9625   5.390   5.092   2.558 -0.4331  0.4599 -0.4378
  419DG     C12 9626   5.575   4.737   2.301 -0.0175  1.2706  0.0860
  419DG     H13 9627   5.298   5.121   2.608 -1.6797 -1.1073 -1.7010
  419DG     H14 9628   5.470   5.099   2.632  0.7014  1.3475 -1.6932
  419DG     H15 9629   5.671   4.782   2.327  0.7647 -0.6971  0.8198
  419DG     H16 9630   5.585   4.629   2.305 -2.2765  1.0398  1.1602
  419DG     C17 9631   5.374   4.949   2.519 -0.2297 -0.0787 -0.5792
  419DG     C18 9632   5.458   4.770   2.401 -0.2890 -0.1221 -0.5049
  419DG     O19 9633   5.468   4.908   2.417 -0.3517 -0.4546  0.5466
  419DG     H20 9634   5.276   4.948   2.470  0.4072  0.8100 -1.9238
  419DG     H21 9635   5.373   4.883   2.605 -1.3817  0.0315 -0.4878
  419DG     H22 9636   5.361   4.750   2.355  0.1299  0.0650 -1.4931
  419DG     H23 9637   5.475   4.717   2.495 -2.6277 -0.8001 -0.4111
  420DG      C1 9638   2.520   3.549   1.574 -0.3041 -0.0119  0.1918
  420DG      C2 9639   2.322   3.852   1.946  0.3308  0.2316  0.1050
  420DG      H3 9640   2.479   3.488   1.655  1.8120 -0.7019  0.8135
  420DG      H4 9641   2.626   3.565   1.593 -0.6736  1.8994  0.8582
  420DG      H5 9642   2.500   3.486   1.487  0.3712 -1.6381  1.1623
  420DG      H6 9643   2.356   3.798   1.858 -0.6350 -1.5895  0.7905
  420DG      H7 9644   2.398   3.852   2.025 -2.0367  1.5314  2.5727
  420DG      H8 9645   2.235   3.799   1.984 -1.7053  2.2397 -1.5300
  420DG      O9 9646   2.440   3.664   1.576 -0.2705  0.1892  0.3075
  420DG     O10 9647   2.280   3.988   1.927  0.1920 -0.0456 -0.2305
  420DG     C11 9648   2.475   3.767   1.479 -0.6463 -0.4001  0.0686
  420DG     C12 9649   2.349   4.074   1.840 -0.6165 -0.3796 -0.2344
  420DG     H13 9650   2.468   3.740   1.373 -1.9129  0.8209 -0.1769
  420DG     H14 9651   2.583   3.782   1.488 -0.8343  0.6006  0.7363
  420DG     H15 9652   2.455   4.072   1.863 -0.3771 -1.8562 -1.3214
  420DG     H16 9653   2.313   4.175   1.858 -0.9903 -0.4796 -0.4124
  420DG     C17 9654   2.387   3.891   1.509  0.3892  0.2689  0.6265
  420DG     C18 9655   2.339   4.048   1.688  0.2420  0.1246  0.0904
  420DG     O19 9656   2.401   3.927   1.645  0.5477  0.2641 -0.0356
  420DG     H20 9657   2.281   3.867   1.495  0.2298 -0.4369  2.7093
  420DG     H21 9658   2.410   3.974   1.441 -1.9933 -0.1132 -0.7755
  420DG     H22 9659   2.238   4.056   1.649  0.7491 -0.7766 -1.5053
  420DG     H23 9660   2.394   4.128   1.638  0.2624  2.1001  2.9791
  421DG      C1 9661   2.374   5.430   0.768  0.3300 -0.3009  0.2593
  421DG      C2 9662   2.931   5.838   0.678  0.2256  0.0740  0.8170
  421DG      H3 9663   2.306   5.353   0.731  3.1123 -2.7325 -0.1016
  421DG      H4 9664   2.326   5.480   0.852 -1.8311 -0.5171 -0.7721
  421DG      H5 9665   2.467   5.386   0.802  0.0376 -1.7555 -0.7588
  421DG      H6 9666   2.850   5.859   0.749  0.3967 -0.8277  1.2919
  421DG      H7 9667   3.015   5.798   0.735  0.4077 -0.4992  0.1605
  421DG      H8 9668   2.954   5.927   0.619 -0.4487 -0.6380 -0.5789
  421DG      O9 9669   2.407   5.518   0.657 -0.8322 -0.4203 -0.4230
  421DG     O10 9670   2.887   5.736   0.588 -0.5311 -0.3030  0.4015
  421DG     C11 9671   2.480   5.449   0.558 -0.1962  0.1567 -0.1137
  421DG     C12 9672   2.807   5.795   0.484  0.4847  0.4435 -0.4373
  421DG     H13 9673   2.409   5.381   0.512  0.9732 -0.3527 -1.2522
  421DG     H14 9674   2.543   5.377   0.611 -1.5462 -0.4390  0.7152
  421DG     H15 9675   2.869   5.844   0.409 -1.7304  0.0651 -2.6517
  421DG     H16 9676   2.738   5.865   0.531 -1.0909 -1.3565  0.0762
  421DG     C17 9677   2.552   5.525   0.449 -0.1674 -0.1864  0.0127
  421DG     C18 9678   2.721   5.685   0.410 -0.7434 -0.0752 -0.4800
  421DG     O19 9679   2.640   5.616   0.506  0.0151 -0.3169  0.0362
  421DG     H20 9680   2.489   5.569   0.372  0.9149 -1.0206 -1.4179
  421DG     H21 9681   2.609   5.446   0.400  1.9243 -0.1508  2.1888
  421DG     H22 9682   2.653   5.729   0.338 -0.7362  1.5762  0.4689
  421DG     H23 9683   2.790   5.618   0.358  0.1556 -0.2209  0.8405
  422DG      C1 9684   0.718   2.104   0.372 -0.1234  0.1642  0.4917
  422DG      C2 9685   0.797   1.446   0.365 -0.6018 -1.0577 -0.4427
  422DG      H3 9686   0.653   2.191   0.366 -0.3665 -0.0371  0.1070
  422DG      H4 9687   0.796   2.104   0.295  0.6648  0.3034  1.2684
  422DG      H5 9688   0.769   2.109   0.468  0.9975  0.6965 -0.1127
  422DG      H6 9689   0.776   1.345   0.398  0.4793 -1.5108 -1.0764
  422DG      H7 9690   0.787   1.458   0.257 -0.8095  1.7045 -0.1842
  422DG      H8 9691   0.903   1.465   0.386 -0.0030  0.1846 -3.8576
  422DG      O9 9692   0.640   1.985   0.357  0.7122  0.5200 -0.2703
  422DG     O10 9693   0.700   1.527   0.429  0.1122  0.3917 -0.3157
  422DG     C11 9694   0.531   1.986   0.450 -0.2598  0.4372  0.3379
  422DG     C12 9695   0.564   1.509   0.381  0.3196 -0.5633  0.4865
  422DG     H13 9696   0.464   2.072   0.448 -0.8788  0.0058  1.2634
  422DG     H14 9697   0.583   1.990   0.546  1.1833  1.5930 -0.4629
  422DG     H15 9698   0.521   1.409   0.389 -3.0763  0.8001  1.2051
  422DG     H16 9699   0.559   1.531   0.275  1.8191  0.2992  0.5699
  422DG     C17 9700   0.453   1.853   0.439 -0.3493  0.5070  0.3437
  422DG     C18 9701   0.474   1.619   0.445  0.5153  0.4859  0.0612
  422DG     O19 9702   0.544   1.738   0.428  0.3288 -0.1116 -0.3858
  422DG     H20 9703   0.405   1.866   0.341 -0.4169 -0.4195  0.2411
  422DG     H21 9704   0.379   1.852   0.519  0.7868 -1.2432  1.4161
  422DG     H22 9705   0.379   1.639   0.396  0.8781  1.1669 -0.3757
  422DG     H23 9706   0.448   1.595   0.549 -0.1231 -0.8572 -0.3784
  423DG      C1 9707   4.848   3.101   1.466 -0.5081  0.5062 -0.1149
  423DG      C2 9708   4.172   2.734   1.884 -0.0551  0.2766 -0.4593
  423DG      H3 9709   4.817   3.198   1.427  1.6874  1.1483 -0.3981
  423DG      H4 9710   4.833   3.018   1.398  2.1181 -1.0142  0.9913
  423DG      H5 9711   4.953   3.129   1.469 -0.0419 -1.1370 -0.2578
  423DG      H6 9712   4.143   2.651   1.820  0.7748  0.0496 -0.5579
  423DG      H7 9713   4.127   2.713   1.981  2.5587 -0.0759  0.7867
  423DG      H8 9714   4.140   2.828   1.840  0.9015  0.4928 -0.7218
  423DG      O9 9715   4.786   3.082   1.584 -0.2383  0.1863 -0.2898
  423DG     O10 9716   4.315   2.743   1.910  0.0935 -0.4345 -0.7074
  423DG     C11 9717   4.831   2.959   1.638  0.5947 -0.9555  0.1414
  423DG     C12 9718   4.401   2.785   1.803  0.8140 -0.3899 -0.0574
  423DG     H13 9719   4.937   2.965   1.665  0.4745 -3.5598  1.4677
  423DG     H14 9720   4.821   2.883   1.561 -0.0179 -0.3835 -0.3556
  423DG     H15 9721   4.352   2.840   1.724 -0.5910 -1.1383  0.2725
  423DG     H16 9722   4.421   2.693   1.748 -0.2232 -0.7928  0.2262
  423DG     C17 9723   4.746   2.921   1.763  0.7669 -0.0294 -0.0952
  423DG     C18 9724   4.532   2.847   1.852  0.1171 -0.3245 -0.2496
  423DG     O19 9725   4.607   2.886   1.731  0.5192 -0.2124  0.1961
  423DG     H20 9726   4.748   2.994   1.844 -2.9112  1.7207 -1.3583
  423DG     H21 9727   4.797   2.835   1.806  0.3490 -0.2680 -0.0721
  423DG     H22 9728   4.517   2.932   1.917 -0.1520 -0.7789  0.2926
  423DG     H23 9729   4.589   2.767   1.901 -0.5622 -0.0288  1.0571
  424DG      C1 9730   2.234   0.868   0.041 -0.2825 -0.1550 -0.3975
  424DG      C2 9731   1.782   0.647   0.731  0.2804  0.2694  0.1130
  424DG      H3 9732   2.284   0.778   0.076 -1.7143 -1.3898 -1.3857
  424DG      H4 9733   2.295   0.957   0.057  2.7994 -1.9158 -1.6769
  424DG      H5 9734   2.243   0.858  -0.067  1.0505 -0.4542 -0.2681
  424DG      H6 9735   1.801   0.541   0.743  0.0708  0.2751  0.5052
  424DG      H7 9736   1.844   0.704   0.801 -1.8413 -0.0306  2.3804
  424DG      H8 9737   1.682   0.657   0.772  0.1010 -0.4632 -0.1469
  424DG      O9 9738   2.093   0.883   0.074  0.3110 -0.1301  0.4871
  424DG     O10 9739   1.786   0.679   0.595 -0.2983  0.2373 -0.2802
  424DG     C11 9740   2.064   0.890   0.206 -0.2748  0.3416 -0.2203
  424DG     C12 9741   1.765   0.815   0.576  0.8093 -0.3014 -0.1276
  424DG     H13 9742   2.093   0.987   0.246 -0.3554  0.3278 -0.1285
  424DG     H14 9743   2.122   0.809   0.250  0.1857  0.7503 -0.0699
  424DG     H15 9744   1.836   0.881   0.625  0.6211 -0.4722  0.3738
  424DG     H16 9745   1.672   0.847   0.623  0.9965 -2.2091  1.6237
  424DG     C17 9746   1.924   0.863   0.234  0.5182 -0.2918 -0.8763
  424DG     C18 9747   1.776   0.838   0.427  0.3987 -0.1998  1.1999
  424DG     O19 9748   1.908   0.831   0.371 -0.1391  0.1261  0.4061
  424DG     H20 9749   1.900   0.768   0.186  1.0811 -1.9443  1.9085
  424DG     H21 9750   1.855   0.942   0.205 -2.5188 -2.5038 -0.2218
  424DG     H22 9751   1.716   0.761   0.377 -0.0559  0.6611  0.3962
  424DG     H23 9752   1.739   0.934   0.393 -0.0256 -0.4302  1.0024
  425DG      C1 9753   0.756   4.051   0.374 -0.5604  0.0986 -0.0731
  425DG      C2 9754   0.919   4.788   0.386 -0.3797 -0.3513  0.0014
  425DG      H3 9755   0.689   4.035   0.459 -0.3491 -0.6062 -0.0340
  425DG      H4 9756   0.792   3.950   0.352  0.6168  0.6239 -0.6588
  425DG      H5 9757   0.703   4.095   0.290 -0.7045  0.9279  0.4390
  425DG      H6 9758   0.840   4.863   0.392 -0.5185 -0.5775  1.4016
  425DG      H7 9759   1.010   4.846   0.370  0.6789 -1.6019  1.1974
  425DG      H8 9760   0.909   4.708   0.313 -1.2463  0.8090 -1.1958
  425DG      O9 9761   0.865   4.131   0.410  0.6014  0.1033  0.1145
  425DG     O10 9762   0.913   4.719   0.506  0.3295  0.1641  0.3384
  425DG     C11 9763   0.820   4.253   0.456  0.1230 -0.2072  0.4466
  425DG     C12 9764   1.024   4.634   0.528 -0.1444  0.6353  0.6629
  425DG     H13 9765   0.757   4.242   0.544 -0.1162 -1.3353  0.1527
  425DG     H14 9766   0.759   4.309   0.384 -0.5219  1.5295  2.2433
  425DG     H15 9767   1.103   4.703   0.557 -0.2494  0.6993  0.7980
  425DG     H16 9768   1.040   4.584   0.433  0.0499 -0.5684  1.3090
  425DG     C17 9769   0.942   4.336   0.496  0.6270  0.6893  0.5909
  425DG     C18 9770   0.981   4.523   0.624  0.0808 -0.5392  0.1399
  425DG     O19 9771   0.879   4.443   0.561 -0.1453  0.2622  0.0629
  425DG     H20 9772   0.999   4.369   0.409 -0.7848 -0.6172 -0.8979
  425DG     H21 9773   1.009   4.277   0.558 -0.9559 -0.9490  0.8269
  425DG     H22 9774   1.063   4.465   0.667 -0.4897 -0.7022  1.0242
  425DG     H23 9775   0.939   4.569   0.713 -0.7028  0.3333 -0.6511
  426DG      C1 9776   4.257   1.401   0.989 -0.1726  0.0464 -0.9476
  426DG      C2 9777   4.832   1.067   0.607  0.2636  0.6742  0.6976
  426DG      H3 9778   4.268   1.428   1.094 -0.6787  0.3766 -0.9744
  426DG      H4 9779   4.165   1.346   0.973 -2.1193  3.3616 -2.1758
  426DG      H5 9780   4.257   1.499   0.939  0.5844  0.6497  0.1881
  426DG      H6 9781   4.894   1.138   0.552  2.8956 -2.2978 -0.5095
  426DG      H7 9782   4.894   0.977   0.605  0.7597  1.0135 -0.8538
  426DG      H8 9783   4.756   1.041   0.534  3.8002 -2.1417 -2.3956
  426DG      O9 9784   4.380   1.346   0.958 -0.2666  0.0708  0.5702
  426DG     O10 9785   4.768   1.099   0.728 -0.1455 -0.5858 -0.8200
  426DG     C11 9786   4.487   1.433   1.012  0.1524  0.3403 -0.3691
  426DG     C12 9787   4.852   1.177   0.818 -0.2936  0.4320  0.7538
  426DG     H13 9788   4.462   1.469   1.111  1.3502  0.1209  0.0304
  426DG     H14 9789   4.502   1.518   0.945  0.0568  0.6802  0.0373
  426DG     H15 9790   4.890   1.263   0.762 -1.2581  0.8287  0.6872
  426DG     H16 9791   4.940   1.119   0.845  0.9591  1.7174 -0.4204
  426DG     C17 9792   4.601   1.340   1.029  0.4448  0.1589  0.2096
  426DG     C18 9793   4.779   1.221   0.940 -1.4241 -0.2454 -0.0724
  426DG     O19 9794   4.665   1.299   0.905  0.3879  0.2683 -0.3789
  426DG     H20 9795   4.570   1.249   1.081  0.5905  0.2828  0.5195
  426DG     H21 9796   4.676   1.390   1.090  1.1490 -0.4516 -0.1375
  426DG     H22 9797   4.747   1.127   0.983  0.2591 -0.3723  1.0209
  426DG     H23 9798   4.847   1.274   1.007 -1.9212  0.4142 -0.0798
  427DG      C1 9799   5.271   0.814   4.420 -0.1776 -0.6871  0.1741
  427DG      C2 9800   5.581   0.050   4.588  0.0978 -0.6291 -0.0228
  427DG      H3 9801   5.294   0.907   4.368 -0.8064 -0.3344  0.5007
  427DG      H4 9802   5.319   0.817   4.518 -1.2081 -0.9904  0.7060
  427DG      H5 9803   5.162   0.814   4.432 -0.2793  1.9786 -0.1287
  427DG      H6 9804   5.637  -0.044   4.589 -2.5102 -2.2797  0.3036
  427DG      H7 9805   5.606   0.105   4.678 -0.9623  0.2850 -0.2756
  427DG      H8 9806   5.478   0.020   4.611  0.8713 -2.7833  0.9445
  427DG      O9 9807   5.318   0.701   4.354 -0.2350  0.1454  0.0141
  427DG     O10 9808   5.578   0.119   4.465 -0.1982  0.5258  0.1568
  427DG     C11 9809   5.456   0.702   4.364  0.6667  0.2824  0.1752
  427DG     C12 9810   5.500   0.240   4.469  0.0574  0.1079  0.3856
  427DG     H13 9811   5.486   0.697   4.469 -0.4893  1.2114  0.5643
  427DG     H14 9812   5.494   0.797   4.328 -0.4528  0.5938 -0.2041
  427DG     H15 9813   5.514   0.285   4.567  1.4627  2.3743 -0.7693
  427DG     H16 9814   5.392   0.230   4.451  0.1167 -0.5098  0.3507
  427DG     C17 9815   5.519   0.572   4.300  0.1344  0.0036  0.2071
  427DG     C18 9816   5.545   0.337   4.355 -0.2744  0.4204 -0.4970
  427DG     O19 9817   5.497   0.468   4.396  0.1730 -0.7925 -0.3746
  427DG     H20 9818   5.626   0.575   4.282 -0.1274 -3.4268 -3.3135
  427DG     H21 9819   5.470   0.552   4.205  1.8430  2.3528 -1.2901
  427DG     H22 9820   5.654   0.331   4.345 -0.0140  2.6495  0.4172
  427DG     H23 9821   5.511   0.315   4.254  0.2846  1.7299 -0.9992
  428DG      C1 9822   3.531   2.349   1.654 -0.9114 -0.7519  0.1299
  428DG      C2 9823   3.639   1.820   2.230 -0.1542  0.7628  1.1735
  428DG      H3 9824   3.520   2.429   1.727 -0.0592 -0.2046 -0.3225
  428DG      H4 9825   3.460   2.352   1.571  0.3032 -0.0943 -0.9196
  428DG      H5 9826   3.629   2.336   1.609 -0.7443  0.3883  0.1389
  428DG      H6 9827   3.715   1.742   2.231 -2.7612 -1.9676  0.2403
  428DG      H7 9828   3.665   1.876   2.320  4.0169 -0.7110  1.0983
  428DG      H8 9829   3.549   1.767   2.260  0.5241 -0.4113  1.2101
  428DG      O9 9830   3.516   2.236   1.733  0.0703  0.2432 -0.3044
  428DG     O10 9831   3.626   1.900   2.114  0.5116  0.3556  0.3130
  428DG     C11 9832   3.382   2.214   1.773 -0.5605  0.3544  0.2184
  428DG     C12 9833   3.629   1.841   1.986  0.3744  0.0589  0.4432
  428DG     H13 9834   3.318   2.243   1.689  0.0883  0.1032 -0.3712
  428DG     H14 9835   3.356   2.282   1.854 -2.7227 -2.0294  1.6963
  428DG     H15 9836   3.642   1.732   1.987 -0.3144 -0.0293  0.1612
  428DG     H16 9837   3.716   1.865   1.924  0.9320 -0.8126  0.8487
  428DG     C17 9838   3.375   2.062   1.808  0.0164  0.3435 -0.2751
  428DG     C18 9839   3.501   1.871   1.911  0.3527 -0.5004 -0.4871
  428DG     O19 9840   3.486   2.016   1.893  0.6170  0.0600 -0.1671
  428DG     H20 9841   3.386   2.002   1.718 -1.3689 -2.5016  1.3121
  428DG     H21 9842   3.274   2.039   1.843  0.3514  0.0571  0.5349
  428DG     H22 9843   3.488   1.814   1.819  0.8314  1.5472 -1.8861
  428DG     H23 9844   3.426   1.844   1.985 -0.3776  0.4551 -0.8523
  429DG      C1 9845   2.900   1.084   3.833 -0.2361 -0.9388  0.6299
  429DG      C2 9846   3.552   1.456   4.197  0.7609 -0.5157  0.4268
  429DG      H3 9847   2.863   1.177   3.876  1.5749  0.9418 -1.6463
  429DG      H4 9848   2.904   0.993   3.893  1.3958 -1.8676 -0.8114
  429DG      H5 9849   2.848   1.058   3.741 -0.2240  1.3889 -0.1105
  429DG      H6 9850   3.576   1.390   4.280 -1.4456 -2.1838 -0.1815
  429DG      H7 9851   3.642   1.477   4.138  0.4576  1.1088  0.4849
  429DG      H8 9852   3.542   1.557   4.236  0.8227  0.6723 -2.3606
  429DG      O9 9853   3.035   1.088   3.800  0.6485 -0.6068 -0.9157
  429DG     O10 9854   3.454   1.398   4.114  0.4450 -0.0864  0.4292
  429DG     C11 9855   3.110   1.161   3.905 -0.0045 -0.3561  0.4598
  429DG     C12 9856   3.435   1.466   3.990 -0.9275 -0.1859  0.3773
  429DG     H13 9857   3.114   1.102   3.996 -1.0714 -0.0270  0.7373
  429DG     H14 9858   3.070   1.262   3.920 -0.2589 -0.6346  1.7448
  429DG     H15 9859   3.530   1.458   3.936 -0.8021  0.7847  0.4486
  429DG     H16 9860   3.405   1.570   4.002  2.1273  0.8801 -0.1207
  429DG     C17 9861   3.247   1.178   3.842  0.3751  0.3859 -0.0718
  429DG     C18 9862   3.333   1.385   3.911  0.8274  0.1562  0.6410
  429DG     O19 9863   3.332   1.243   3.934  0.1909  0.1749 -0.1764
  429DG     H20 9864   3.244   1.222   3.742 -1.3409  1.1901  0.3050
  429DG     H21 9865   3.300   1.084   3.827 -0.2940  0.0377 -0.2886
  429DG     H22 9866   3.236   1.431   3.934  1.4180  1.3346  0.8460
  429DG     H23 9867   3.352   1.407   3.806 -1.1688  2.4648  0.6491
  430DG      C1 9868   1.143   0.292   1.222  0.7820 -0.0524 -0.3542
  430DG      C2 9869   0.628  -0.034   0.958 -0.0412 -0.3373 -0.8271
  430DG      H3 9870   1.152   0.258   1.325  0.8312 -0.0873 -0.3694
  430DG      H4 9871   1.172   0.397   1.226 -0.4054  0.2697  0.1447
  430DG      H5 9872   1.205   0.225   1.161  0.4065 -1.2176  0.5054
  430DG      H6 9873   0.556   0.013   0.891 -0.9848 -1.0704 -0.3631
  430DG      H7 9874   0.712   0.034   0.960 -1.7929  1.9333  0.0973
  430DG      H8 9875   0.663  -0.129   0.917 -1.0613 -1.1703  0.1613
  430DG      O9 9876   1.006   0.279   1.182 -0.4959  0.3430 -0.0918
  430DG     O10 9877   0.580  -0.049   1.093  0.0925 -0.3305 -0.5913
  430DG     C11 9878   0.920   0.338   1.278 -0.5146 -0.1226 -0.1410
  430DG     C12 9879   0.520   0.073   1.152 -0.6096  0.8378 -0.3635
  430DG     H13 9880   0.944   0.443   1.291  1.3010 -0.4496 -0.6656
  430DG     H14 9881   0.936   0.299   1.379 -1.8525 -0.6730 -0.1083
  430DG     H15 9882   0.488   0.054   1.254 -1.2901 -2.1565 -1.0302
  430DG     H16 9883   0.433   0.092   1.089 -0.0320  0.2019 -1.3842
  430DG     C17 9884   0.775   0.340   1.236  0.6957 -0.1720  0.0043
  430DG     C18 9885   0.592   0.204   1.144 -0.2542 -0.5929 -0.3381
  430DG     O19 9886   0.723   0.210   1.211 -0.3495 -0.3543  0.3766
  430DG     H20 9887   0.754   0.410   1.155  1.3635  3.1218  2.4084
  430DG     H21 9888   0.723   0.381   1.323  1.3547 -0.3683  0.5024
  430DG     H22 9889   0.594   0.227   1.038 -0.9716 -2.1150 -0.7041
  430DG     H23 9890   0.529   0.266   1.207  1.7449  1.0748  0.1404
  431DG      C1 9891   4.538   1.777   3.456 -0.6569  0.1197 -0.0211
  431DG      C2 9892   4.712   1.965   4.140 -0.4039  0.5794  0.7219
  431DG      H3 9893   4.488   1.873   3.444  1.0377  0.8981 -1.2058
  431DG      H4 9894   4.477   1.731   3.534 -1.4064  3.7204  1.7267
  431DG      H5 9895   4.531   1.714   3.368 -0.1208 -2.0800  1.4174
  431DG      H6 9896   4.663   1.897   4.210 -1.4114  1.2234  0.6569
  431DG      H7 9897   4.783   2.027   4.193 -2.2537  2.7489  0.7968
  431DG      H8 9898   4.633   2.031   4.105 -0.1844  0.6866  0.4224
  431DG      O9 9899   4.669   1.806   3.505 -0.4646  0.0986 -0.6905
  431DG     O10 9900   4.779   1.896   4.036  0.4303  0.8835 -0.9212
  431DG     C11 9901   4.737   1.699   3.573 -0.6111  0.6589  1.0299
  431DG     C12 9902   4.839   1.987   3.945 -0.0720  0.5214  0.3101
  431DG     H13 9903   4.781   1.625   3.505 -3.5165 -1.1745  0.9386
  431DG     H14 9904   4.684   1.649   3.654  0.3494 -1.4982  0.4142
  431DG     H15 9905   4.925   2.019   4.004  1.0616 -0.0428 -0.9883
  431DG     H16 9906   4.779   2.072   3.912 -0.8715  0.4361  1.4826
  431DG     C17 9907   4.857   1.776   3.645  0.0911  0.1428 -0.2925
  431DG     C18 9908   4.905   1.916   3.823 -0.1253  0.1636  0.2861
  431DG     O19 9909   4.802   1.865   3.735 -0.2137  0.3843 -0.2825
  431DG     H20 9910   4.916   1.840   3.580 -0.7206 -0.5911 -1.8109
  431DG     H21 9911   4.920   1.707   3.701 -1.7520 -2.0946 -0.8356
  431DG     H22 9912   4.959   1.992   3.766 -0.7283 -0.1493 -0.7283
  431DG     H23 9913   4.966   1.839   3.869  0.6423  0.8086  0.3754
  432DG      C1 9914   0.312   5.116   0.754  0.6216  0.2894 -0.8871
  432DG      C2 9915  -0.074   5.723   0.730 -0.8708  0.1896 -0.1218
  432DG      H3 9916   0.298   5.017   0.797 -1.3316  1.5912  1.7669
  432DG      H4 9917   0.421   5.115   0.747  0.8266 -3.4788  0.4473
  432DG      H5 9918   0.265   5.113   0.656 -1.7899 -2.5522  0.1984
  432DG      H6 9919  -0.142   5.684   0.654 -1.0794 -0.6885  0.5074
  432DG      H7 9920  -0.124   5.775   0.811  0.3857 -1.9145  2.1088
  432DG      H8 9921  -0.003   5.792   0.682  0.4903 -1.4861 -0.6061
  432DG      O9 9922   0.240   5.204   0.838 -0.2475  0.3621  0.1050
  432DG     O10 9923   0.012   5.628   0.783  0.2971 -0.1689 -0.1668
  432DG     C11 9924   0.310   5.241   0.957 -0.2821  0.0757 -0.7156
  432DG     C12 9925   0.106   5.679   0.884 -0.0827 -0.6595 -0.1780
  432DG     H13 9926   0.409   5.280   0.938  0.3124 -1.4635 -0.9535
  432DG     H14 9927   0.316   5.159   1.029  2.7625 -1.6234 -2.6884
  432DG     H15 9928   0.065   5.768   0.931  0.5824 -0.8277  0.7512
  432DG     H16 9929   0.205   5.703   0.846  1.0342 -1.0304  2.3264
  432DG     C17 9930   0.223   5.353   1.019 -0.6345  0.1417  0.0852
  432DG     C18 9931   0.126   5.574   0.994 -0.4937 -0.0165  0.3496
  432DG     O19 9932   0.207   5.468   0.935 -0.2879 -0.4618  0.1576
  432DG     H20 9933   0.288   5.388   1.099  0.0995  0.4513 -0.6272
  432DG     H21 9934   0.134   5.323   1.074 -0.6928  1.8083  0.9825
  432DG     H22 9935   0.187   5.604   1.079  0.3864  0.7100 -0.5110
  432DG     H23 9936   0.028   5.539   1.028 -0.3495 -0.9871 -0.1839
  433DG      C1 9937   1.841   3.320   5.053  0.0246 -1.0304  0.2608
  433DG      C2 9938   1.528   3.691   5.513 -0.1364  0.1018 -0.1302
  433DG      H3 9939   1.928   3.361   5.103  1.8548 -0.9977 -2.7232
  433DG      H4 9940   1.846   3.211   5.056  2.6318 -0.9603  2.7620
  433DG      H5 9941   1.744   3.347   5.096 -1.4809 -1.3119 -2.7025
  433DG      H6 9942   1.429   3.647   5.530 -0.3310  0.5699 -0.0228
  433DG      H7 9943   1.605   3.630   5.559  0.6988  1.4300  0.2882
  433DG      H8 9944   1.542   3.789   5.559  0.7491  0.2294 -0.6528
  433DG      O9 9945   1.836   3.369   4.919  0.0521  0.4086  0.1704
  433DG     O10 9946   1.529   3.709   5.375 -0.1974 -0.2387 -0.7442
  433DG     C11 9947   1.844   3.511   4.911  0.2878  0.3535 -0.5919
  433DG     C12 9948   1.653   3.671   5.319 -0.0825 -0.3755  0.3535
  433DG     H13 9949   1.860   3.525   4.804  0.5172 -2.1164 -0.9409
  433DG     H14 9950   1.935   3.545   4.960  0.2492 -1.2330  0.6645
  433DG     H15 9951   1.667   3.570   5.359  0.4834  0.3653  2.1425
  433DG     H16 9952   1.735   3.734   5.352 -0.5014  0.2138  0.2781
  433DG     C17 9953   1.722   3.603   4.963 -0.5257  0.5831 -0.8677
  433DG     C18 9954   1.640   3.680   5.167  0.2975  0.9627  0.3449
  433DG     O19 9955   1.727   3.587   5.107 -0.1762  0.4079  0.1241
  433DG     H20 9956   1.628   3.557   4.932 -0.7554 -0.8223  1.5873
  433DG     H21 9957   1.740   3.704   4.928  2.8456 -0.6539 -3.1448
  433DG     H22 9958   1.536   3.658   5.145  0.6121 -0.1614 -0.0849
  433DG     H23 9959   1.646   3.783   5.131  0.4452  0.0036 -2.6858
  434DG      C1 9960   0.757   5.322   0.454 -0.2264  0.0687  0.2692
  434DG      C2 9961   1.405   5.522   0.950 -0.4077 -0.4831  0.3867
  434DG      H3 9962   0.718   5.323   0.353  2.7838  1.1607 -1.0243
  434DG      H4 9963   0.684   5.314   0.535  0.8578  3.5463  1.8151
  434DG      H5 9964   0.832   5.243   0.463 -0.8594 -0.5263  0.3038
  434DG      H6 9965   1.348   5.565   1.032  1.5681 -0.9904  2.1229
  434DG      H7 9966   1.432   5.422   0.984  1.3788 -0.2381 -0.1552
  434DG      H8 9967   1.496   5.583   0.955 -0.0206 -0.8828 -1.3198
  434DG      O9 9968   0.834   5.444   0.476  0.0620  0.8892 -0.0693
  434DG     O10 9969   1.340   5.533   0.825  0.0724  0.1375 -0.1703
  434DG     C11 9970   0.931   5.436   0.576  0.0213 -0.2650 -0.5170
  434DG     C12 9971   1.288   5.656   0.791  0.3175 -0.0267 -0.1435
  434DG     H13 9972   0.989   5.345   0.557  1.4634  0.7693 -1.2634
  434DG     H14 9973   0.874   5.432   0.668 -2.9428 -1.8285 -2.2564
  434DG     H15 9974   1.361   5.736   0.779 -0.7601  1.1815  0.9316
  434DG     H16 9975   1.222   5.692   0.871  1.4267  2.3686 -0.2234
  434DG     C17 9976   1.024   5.550   0.553 -0.5167 -0.6550 -0.3358
  434DG     C18 9977   1.210   5.643   0.662 -0.2611 -1.3732  0.0496
  434DG     O19 9978   1.108   5.548   0.663  0.2339 -0.1263 -0.9481
  434DG     H20 9979   0.982   5.651   0.550  0.6669 -0.1295 -0.0064
  434DG     H21 9980   1.078   5.536   0.459  1.1878  0.9927  0.3258
  434DG     H22 9981   1.162   5.739   0.642  1.6309 -0.7661 -2.0680
  434DG     H23 9982   1.276   5.608   0.582 -0.1770 -1.8385  0.3174
  435DG      C1 9983   3.488   3.936   0.912 -0.0999 -0.1702 -0.0651
  435DG      C2 9984   2.900   3.759   0.735  0.5181  0.3228 -0.5443
  435DG      H3 9985   3.515   3.860   0.840  0.9144  1.8411 -1.9403
  435DG      H4 9986   3.469   3.894   1.011 -0.1991 -0.1810 -0.0882
  435DG      H5 9987   3.577   3.998   0.928 -1.0848  0.4898  4.1352
  435DG      H6 9988   2.856   3.778   0.636  0.5388 -1.6127 -0.9718
  435DG      H7 9989   2.958   3.667   0.722  0.8837  0.7031 -1.7002
  435DG      H8 9990   2.830   3.744   0.817  0.9232  1.6780  0.0672
  435DG      O9 9991   3.376   4.005   0.859 -0.4013 -0.1054 -0.9665
  435DG     O10 9992   2.981   3.866   0.775 -0.1000 -0.1379  0.0378
  435DG     C11 9993   3.338   4.122   0.931  0.2590 -0.4205 -0.4550
  435DG     C12 9994   2.902   3.978   0.815 -0.6553 -0.0853  0.2041
  435DG     H13 9995   3.415   4.199   0.930 -0.2195  0.0679 -0.2205
  435DG     H14 9996   3.308   4.091   1.031  0.1274 -2.4889 -1.0856
  435DG     H15 9997   2.866   3.966   0.917  0.0984 -0.5012  0.4257
  435DG     H16 9998   2.812   3.986   0.753 -1.1440  2.4806  1.1313
  435DG     C17 9999   3.201   4.172   0.874  0.5178  0.0571 -0.6286
  435DG     C1810000   2.988   4.107   0.818  0.4232  0.3464 -0.5429
  435DG     O1910001   3.107   4.070   0.879  0.0483  0.5732 -0.0853
  435DG     H2010002   3.219   4.210   0.773 -1.1254  4.4834  0.4709
  435DG     H2110003   3.161   4.258   0.928  2.1832  0.4660  0.0250
  435DG     H2210004   3.011   4.155   0.723  0.0439 -0.4392 -1.0451
  435DG     H2310005   2.937   4.183   0.877  1.0401 -0.1336  0.6459
  436DG      C110006   3.935   0.424   3.585  0.3422 -0.2558 -0.5068
  436DG      C210007   4.030  -0.290   3.324 -0.0092 -0.5183  0.2161
  436DG      H310008   3.870   0.472   3.513  1.5045  1.4465 -0.4902
  436DG      H410009   4.011   0.502   3.597 -0.7243  0.6664  0.5126
  436DG      H510010   3.894   0.418   3.686 -0.4503  0.1172 -0.7989
  436DG      H610011   3.976  -0.375   3.367  1.0790 -1.0906  0.4891
  436DG      H710012   3.959  -0.231   3.266  0.8843 -1.4185 -1.9010
  436DG      H810013   4.088  -0.333   3.242 -1.4998 -1.5638 -0.3416
  436DG      O910014   3.998   0.302   3.550  0.6173  0.1610  0.0837
  436DG     O1010015   4.101  -0.215   3.417  0.5535  0.2848  1.4176
  436DG     C1110016   4.056   0.238   3.665 -0.0156 -0.3729 -0.6868
  436DG     C1210017   4.180  -0.116   3.351  0.1865  0.3030 -0.5009
  436DG     H1310018   3.973   0.197   3.723  2.0076 -1.9758  1.2518
  436DG     H1410019   4.098   0.306   3.739 -0.1159  0.4718 -1.3909
  436DG     H1510020   4.121  -0.062   3.276 -0.1963  0.6491  0.0425
  436DG     H1610021   4.263  -0.165   3.299 -0.7577 -3.0711  0.8964
  436DG     C1710022   4.160   0.130   3.629  0.3561  0.3475 -1.0154
  436DG     C1810023   4.227  -0.012   3.456 -0.6987 -0.5226  0.3070
  436DG     O1910024   4.120   0.042   3.523 -0.6657 -0.0667 -0.5560
  436DG     H2010025   4.196   0.086   3.721  0.5598  1.2524 -0.6494
  436DG     H2110026   4.247   0.190   3.602  0.6564  0.2348 -0.2940
  436DG     H2210027   4.303  -0.055   3.522  0.7878 -1.3726 -1.8612
  436DG     H2310028   4.282   0.063   3.400  2.2023 -2.2162  0.6636
  437DG      C110029   0.403   0.271   5.324  0.5961  0.2783 -0.5160
  437DG      C210030   0.516   0.153   5.971  0.2959 -0.9210  0.9443
  437DG      H310031   0.331   0.263   5.242  0.2663  1.5448 -0.3713
  437DG      H410032   0.466   0.182   5.324 -2.2652 -1.8973  0.5381
  437DG      H510033   0.470   0.354   5.298  3.4917 -1.8510 -0.4078
  437DG      H610034   0.607   0.211   5.957 -0.9884  0.9320 -0.2774
  437DG      H710035   0.503   0.139   6.079  2.0843  0.5675  1.3958
  437DG      H810036   0.530   0.058   5.920  2.2154 -0.3043  0.2472
  437DG      O910037   0.348   0.287   5.453  0.0810 -0.0944  0.4918
  437DG     O1010038   0.404   0.211   5.912 -0.2314  0.4926 -0.2298
  437DG     C1110039   0.300   0.422   5.476 -0.0623 -0.4155  0.0279
  437DG     C1210040   0.370   0.339   5.939  0.0687 -0.9302 -1.3829
  437DG     H1310041   0.232   0.448   5.395  1.1856 -0.7007 -1.1515
  437DG     H1410042   0.389   0.485   5.477 -1.4973  1.7321  2.3384
  437DG     H1510043   0.450   0.412   5.951  1.9912 -3.1837  0.5932
  437DG     H1610044   0.324   0.320   6.036  0.5963 -0.0648 -0.9462
  437DG     C1710045   0.241   0.431   5.615 -0.6797 -0.1278 -0.6538
  437DG     C1810046   0.264   0.379   5.845  0.4294 -0.0218 -0.2468
  437DG     O1910047   0.325   0.384   5.717 -0.4003  0.6507 -0.4861
  437DG     H2010048   0.141   0.386   5.617 -1.0496  0.7012  1.0600
  437DG     H2110049   0.238   0.536   5.641  0.3621 -0.2069 -0.1562
  437DG     H2210050   0.184   0.305   5.846  1.4789 -1.2433  2.4512
  437DG     H2310051   0.226   0.477   5.871 -0.5934 -0.4174 -0.2009
  438DG      C110052   1.635   1.299   1.528 -0.6389  0.1136 -0.2899
  438DG      C210053   1.132   0.772   1.185 -0.0891 -0.0900  0.8193
  438DG      H310054   1.730   1.316   1.479 -1.2454 -0.2735 -1.6409
  438DG      H410055   1.654   1.265   1.630 -1.3504  2.1466  0.5843
  438DG      H510056   1.588   1.397   1.532 -1.6398 -0.3243 -0.8275
  438DG      H610057   1.099   0.868   1.223  1.2146  1.5023 -1.7488
  438DG      H710058   1.173   0.792   1.085  0.4676  0.4748  1.1518
  438DG      H810059   1.048   0.707   1.161  0.1798 -0.4403  0.8034
  438DG      O910060   1.559   1.204   1.454  0.5523 -0.1749  0.1453
  438DG     O1010061   1.227   0.703   1.254 -0.3858  0.2918  0.1639
  438DG     C1110062   1.638   1.093   1.415 -0.2104  0.2412  0.4156
  438DG     C1210063   1.345   0.779   1.303 -0.0937  0.4380 -0.2771
  438DG     H1310064   1.689   1.053   1.502 -1.6104  1.2323  1.7526
  438DG     H1410065   1.699   1.130   1.333 -1.8002  1.1825 -0.3941
  438DG     H1510066   1.413   0.803   1.222  0.9939  1.0203  0.7968
  438DG     H1610067   1.401   0.703   1.357 -0.0765  0.5159 -0.1853
  438DG     C1710068   1.539   0.996   1.353 -0.0517  0.3243  1.3636
  438DG     C1810069   1.324   0.889   1.398 -0.9195  0.6286  0.2815
  438DG     O1910070   1.446   0.948   1.445 -0.3359  0.0842  0.1869
  438DG     H2010071   1.591   0.912   1.307 -3.2172 -0.3029 -1.5257
  438DG     H2110072   1.498   1.049   1.266  0.9300 -0.9735  0.0531
  438DG     H2210073   1.253   0.961   1.358  0.2535  1.4688 -0.3406
  438DG     H2310074   1.268   0.845   1.480  1.6277 -2.1500  0.7279
  439DG      C110075   0.404   4.915   1.159 -0.0997 -0.7256 -0.3340
  439DG      C210076   0.086   5.529   1.446  0.1751 -0.2882 -0.0547
  439DG      H310077   0.435   4.985   1.082 -2.2538 -1.4466 -1.9776
  439DG      H410078   0.382   4.816   1.117  0.0126 -0.3931 -1.1947
  439DG      H510079   0.488   4.895   1.225 -0.8117  0.1362  0.8826
  439DG      H610080   0.046   5.572   1.538 -2.4904  0.5924 -1.5012
  439DG      H710081   0.194   5.527   1.435  0.2625 -0.2952  0.7619
  439DG      H810082   0.027   5.566   1.362  1.5821 -1.1847 -1.4873
  439DG      O910083   0.305   4.976   1.237 -0.3097  0.1340 -0.7225
  439DG     O1010084   0.061   5.390   1.442 -0.1662  0.2501 -0.1072
  439DG     C1110085   0.254   4.896   1.338  0.3613 -0.6193  0.0933
  439DG     C1210086   0.110   5.313   1.548 -0.3842 -0.0720 -0.4182
  439DG     H1310087   0.333   4.875   1.409  0.9489  0.0798 -0.3432
  439DG     H1410088   0.219   4.803   1.292 -0.5419 -1.1596  1.8071
  439DG     H1510089   0.068   5.354   1.640 -1.1914  1.1736 -1.3156
  439DG     H1610090   0.216   5.329   1.569 -0.7994 -1.5746  4.0179
  439DG     C1710091   0.139   4.965   1.421  0.1914  0.2295  0.7016
  439DG     C1810092   0.085   5.162   1.529  0.0776  0.3445  0.9189
  439DG     O1910093   0.181   5.094   1.451 -0.3975 -0.7888  0.7050
  439DG     H2010094   0.129   4.909   1.514 -0.1526 -0.5777  0.1970
  439DG     H2110095   0.051   4.966   1.356  1.4778  0.2491 -1.1244
  439DG     H2210096   0.083   5.117   1.628  1.0857  0.0917  0.8369
  439DG     H2310097  -0.013   5.159   1.480 -0.3908 -0.0072  1.8528
  440DG      C110098   3.437   0.465   3.459  0.5212  0.4457  0.1247
  440DG      C210099   3.721  -0.077   3.280  0.0650  0.8255 -0.3810
  440DG      H310100   3.536   0.480   3.417 -0.0924  0.3305 -1.4500
  440DG      H410101   3.409   0.563   3.498  0.9810  0.6923 -0.1623
  440DG      H510102   3.378   0.438   3.371  1.3317  2.0842 -0.9798
  440DG      H610103   3.751  -0.179   3.306 -0.7225 -0.3587 -3.6091
  440DG      H710104   3.639  -0.078   3.208 -1.2675 -0.5190  1.0638
  440DG      H810105   3.801  -0.046   3.213  0.8763 -0.8352 -0.2398
  440DG      O910106   3.443   0.359   3.563  0.0289 -0.0070  0.3281
  440DG     O1010107   3.673  -0.009   3.396 -0.0875  0.4577  0.1784
  440DG     C1110108   3.544   0.395   3.657 -0.5002  0.0057  0.3892
  440DG     C1210109   3.765  -0.010   3.503 -0.6009  0.0941  0.4606
  440DG     H1310110   3.510   0.461   3.736  0.5147 -0.3233  1.1270
  440DG     H1410111   3.626   0.450   3.611 -0.3677 -0.1479  0.4400
  440DG     H1510112   3.858   0.041   3.478 -1.2622 -0.0866 -2.8816
  440DG     H1610113   3.778  -0.117   3.516 -1.6984 -0.0828  0.2493
  440DG     C1710114   3.599   0.258   3.705 -0.1751 -0.3555  0.2399
  440DG     C1810115   3.706   0.062   3.630 -0.3529  0.1310  0.4936
  440DG     O1910116   3.640   0.180   3.592 -0.2291 -0.3785  0.2258
  440DG     H2010117   3.517   0.202   3.750 -0.8501 -0.1689 -0.7267
  440DG     H2110118   3.685   0.273   3.771 -1.0467 -2.0759  1.8580
  440DG     H2210119   3.631  -0.013   3.655 -0.2632 -1.7823 -3.9487
  440DG     H2310120   3.775   0.076   3.713 -0.6320 -0.9033  0.9115
  441DG      C110121   1.384   1.013   2.189 -0.5236 -0.1907 -0.0330
  441DG      C210122   1.301   0.608   2.514 -0.0739  0.1187 -0.2499
  441DG      H310123   1.468   1.079   2.170  0.5156 -1.3602  0.3476
  441DG      H410124   1.361   1.003   2.295  0.1873 -1.9135 -0.0093
  441DG      H510125   1.298   1.056   2.137 -0.4891 -1.2203 -0.9923
  441DG      H610126   1.231   0.685   2.547  2.3460  1.9139  0.9534
  441DG      H710127   1.308   0.546   2.604  0.5670  1.1188  0.4031
  441DG      H810128   1.401   0.647   2.499  0.4852 -1.2009 -0.0906
  441DG      O910129   1.407   0.884   2.134  0.0816  0.7983 -0.1838
  441DG     O1010130   1.254   0.523   2.414 -0.4452  0.4728  0.2627
  441DG     C1110131   1.536   0.828   2.177 -0.1908 -0.1744 -0.3405
  441DG     C1210132   1.347   0.422   2.360 -0.0589 -0.1273 -0.3379
  441DG     H1310133   1.543   0.840   2.285 -2.5101  0.0771 -0.1693
  441DG     H1410134   1.625   0.868   2.128  1.4530 -2.4665  0.5706
  441DG     H1510135   1.300   0.331   2.323  1.1869 -0.6658 -0.6632
  441DG     H1610136   1.420   0.372   2.423  0.4844 -1.5391 -2.0090
  441DG     C1710137   1.540   0.671   2.161 -0.2661  0.5638  0.2792
  441DG     C1810138   1.421   0.478   2.238  0.7425  0.3572 -0.0796
  441DG     O1910139   1.458   0.608   2.260  0.4047 -0.2873  0.1722
  441DG     H2010140   1.641   0.632   2.165 -0.8521 -1.2033 -0.6760
  441DG     H2110141   1.498   0.645   2.063 -0.4294 -0.3496  0.5793
  441DG     H2210142   1.503   0.411   2.212 -2.1248 -2.7964 -1.6725
  441DG     H2310143   1.348   0.482   2.157 -1.4411 -0.7316  1.7320
  442DG      C110144   2.632   0.922   1.973  0.6292  0.0708 -0.8104
  442DG      C210145   2.998   1.257   2.315 -0.0357 -0.3668 -0.3201
  442DG      H310146   2.542   0.874   2.010 -0.0822  1.4752 -0.6271
  442DG      H410147   2.617   1.029   1.955  0.2671  0.2977  0.6736
  442DG      H510148   2.705   0.911   2.052 -1.6327 -2.0833  1.1326
  442DG      H610149   3.026   1.361   2.300 -0.2046 -0.1697  0.6602
  442DG      H710150   2.903   1.255   2.369 -0.5046 -0.5000 -1.1213
  442DG      H810151   3.064   1.216   2.391  0.5762  2.3595  0.7316
  442DG      O910152   2.680   0.863   1.850 -0.1282 -0.0118 -0.1171
  442DG     O1010153   3.005   1.187   2.191  0.1164  0.5715  0.0280
  442DG     C1110154   2.793   0.930   1.795 -0.0743 -0.0123  0.5855
  442DG     C1210155   3.004   1.038   2.215  0.7136 -0.1552  0.6168
  442DG     H1310156   2.765   1.035   1.792 -1.3482 -0.3586 -0.6572
  442DG     H1410157   2.810   0.903   1.691  2.8058  1.6311  0.5137
  442DG     H1510158   2.915   1.012   2.272 -0.8592 -0.5290 -1.8394
  442DG     H1610159   3.087   1.006   2.277 -1.8723 -0.4681  4.2184
  442DG     C1710160   2.915   0.897   1.872 -0.2870  0.5445  0.8182
  442DG     C1810161   3.023   0.958   2.075 -0.0823 -0.0707  0.2922
  442DG     O1910162   2.921   0.988   1.986 -0.0498 -0.0225  0.3501
  442DG     H2010163   3.006   0.914   1.813 -0.9429  2.0377  0.1871
  442DG     H2110164   2.921   0.793   1.901  0.2265  0.4567  0.4181
  442DG     H2210165   3.117   0.964   2.021 -1.2873 -1.3867 -2.1151
  442DG     H2310166   3.003   0.854   2.101 -0.6442 -0.1608 -0.4435
  443DG      C110167   4.440   0.237   0.094 -0.7117 -0.0909 -0.2144
  443DG      C210168   4.412   0.617   0.431  0.0930 -0.1365 -0.1706
  443DG      H310169   4.523   0.177   0.058 -2.7101 -2.6822 -0.8375
  443DG      H410170   4.475   0.277   0.189  1.1067 -1.4985 -0.2472
  443DG      H510171   4.423   0.317   0.023 -2.1188 -0.8437 -0.7684
  443DG      H610172   4.478   0.650   0.511  1.4040  0.4131 -1.4387
  443DG      H710173   4.479   0.562   0.363  0.9399  2.5682 -1.6701
  443DG      H810174   4.367   0.692   0.367 -2.7744 -0.5104  1.2784
  443DG      O910175   4.322   0.159   0.095 -0.0735 -0.0954  0.2615
  443DG     O1010176   4.309   0.535   0.484  0.1886 -0.7805  0.0756
  443DG     C1110177   4.202   0.219   0.149  0.8992  0.1051 -0.3460
  443DG     C1210178   4.350   0.414   0.549 -0.0911 -0.3866  0.4204
  443DG     H1310179   4.122   0.167   0.095  0.5074 -2.1074  2.1262
  443DG     H1410180   4.210   0.321   0.112 -0.8714  0.5346  0.3134
  443DG     H1510181   4.355   0.425   0.657  1.5738 -1.3050  0.4750
  443DG     H1610182   4.449   0.379   0.520 -0.6547 -0.6450 -1.3184
  443DG     C1710183   4.173   0.212   0.305 -0.4874  0.8997 -0.0014
  443DG     C1810184   4.253   0.303   0.508  0.2649 -1.0515  0.6302
  443DG     O1910185   4.277   0.281   0.371 -0.3917  0.3562  0.1053
  443DG     H2010186   4.165   0.109   0.338  1.8718  0.4471 -0.6493
  443DG     H2110187   4.082   0.260   0.340 -0.1103  0.0622  2.2708
  443DG     H2210188   4.285   0.207   0.549  2.3616 -3.4490 -5.5218
  443DG     H2310189   4.148   0.322   0.530  0.1186  0.6641 -1.2663
  444DG      C110190   2.664   5.486   3.947 -0.0720  0.2142 -0.1288
  444DG      C210191   1.951   5.422   4.337 -0.3056 -0.0031 -0.0880
  444DG      H310192   2.625   5.451   3.852 -2.4311  1.7526  0.1944
  444DG      H410193   2.708   5.395   3.987 -0.5021  0.5288  1.1033
  444DG      H510194   2.740   5.563   3.931  0.2544 -0.4016 -1.7412
  444DG      H610195   1.847   5.447   4.360 -0.3561 -1.6066  1.5791
  444DG      H710196   1.940   5.372   4.241  0.0046 -0.3674  0.0655
  444DG      H810197   1.976   5.344   4.408  0.4029 -0.3162 -0.6789
  444DG      O910198   2.553   5.531   4.018 -0.7228 -0.4310  0.1712
  444DG     O1010199   2.048   5.522   4.341  0.1198 -0.4414 -0.4851
  444DG     C1110200   2.600   5.586   4.146 -0.3706  0.2164  0.2781
  444DG     C1210201   2.167   5.466   4.289  0.0973  0.3301 -0.0610
  444DG     H1310202   2.682   5.655   4.126  0.7107 -0.4265  2.1814
  444DG     H1410203   2.650   5.504   4.197  0.5407  1.2787  1.1552
  444DG     H1510204   2.157   5.416   4.192  2.8775  0.4739 -0.5176
  444DG     H1610205   2.199   5.395   4.366  2.4972  1.7917  0.3870
  444DG     C1710206   2.489   5.634   4.234 -0.2775 -0.6937 -0.0859
  444DG     C1810207   2.264   5.581   4.272 -0.6793  0.1027  0.0713
  444DG     O1910208   2.389   5.534   4.238 -0.3898  0.0843 -0.2277
  444DG     H2010209   2.447   5.729   4.203  2.8251  1.6414  2.2294
  444DG     H2110210   2.521   5.655   4.336 -1.2901 -1.1277  0.3308
  444DG     H2210211   2.226   5.647   4.194 -2.2288  0.7086  1.2802
  444DG     H2310212   2.257   5.625   4.372 -2.1647 -0.1577  0.1033
  445DG      C110213   4.567   0.673   1.603  0.4859 -0.6348  0.0728
  445DG      C210214   4.255   1.097   1.231  0.2504  0.0815  0.1162
  445DG      H310215   4.586   0.620   1.696  0.1483 -0.8631  0.0144
  445DG      H410216   4.658   0.694   1.548  0.2517 -0.7579 -0.3687
  445DG      H510217   4.500   0.616   1.538  0.1592 -0.9607  0.6872
  445DG      H610218   4.210   1.193   1.204 -0.4256 -0.2849 -0.0779
  445DG      H710219   4.348   1.085   1.176 -0.4015 -1.1087 -0.7451
  445DG      H810220   4.178   1.023   1.210  1.2822 -0.3274 -2.4877
  445DG      O910221   4.501   0.797   1.614 -0.0115  0.3084  0.8618
  445DG     O1010222   4.292   1.100   1.371  0.6576  0.1611  0.5554
  445DG     C1110223   4.384   0.780   1.688 -0.4031  0.3054  0.0058
  445DG     C1210224   4.184   1.142   1.457  0.1323 -0.0884 -0.4491
  445DG     H1310225   4.397   0.731   1.785 -2.3903  1.1237  0.7296
  445DG     H1410226   4.319   0.703   1.644 -0.6213  1.4776 -1.8170
  445DG     H1510227   4.086   1.111   1.421 -1.0251  1.4769  1.1798
  445DG     H1610228   4.177   1.250   1.471 -3.5264 -0.1540 -0.6666
  445DG     C1710229   4.321   0.917   1.716  0.7803 -0.0163 -0.8682
  445DG     C1810230   4.210   1.081   1.596  0.1792  0.0573 -0.4456
  445DG     O1910231   4.272   0.957   1.592 -0.4358  0.0593  0.0656
  445DG     H2010232   4.389   0.991   1.759 -2.0409  2.1671  0.1353
  445DG     H2110233   4.232   0.910   1.778 -1.0562 -0.9565 -3.4105
  445DG     H2210234   4.288   1.148   1.632 -1.2166  1.7155 -0.3877
  445DG     H2310235   4.123   1.081   1.661  0.6736 -1.8670  0.2844
  446DG      C110236   3.912   4.340   0.906 -0.0536 -0.0083 -0.1677
  446DG      C210237   4.349   4.582   0.237  0.0893  0.4358 -0.1962
  446DG      H310238   3.930   4.302   1.007 -1.2101  2.0040  0.8568
  446DG      H410239   3.852   4.263   0.858  0.4017 -0.8396  0.5622
  446DG      H510240   3.861   4.435   0.921 -1.6202 -0.5199 -1.9296
  446DG      H610241   4.256   4.621   0.196 -0.5033 -0.2262  0.5035
  446DG      H710242   4.424   4.655   0.207 -0.5479  0.4441 -1.8366
  446DG      H810243   4.375   4.488   0.189 -1.0892 -0.4858  0.8993
  446DG      O910244   4.033   4.367   0.838  0.0779  0.1186 -0.4353
  446DG     O1010245   4.363   4.566   0.382 -0.2082  0.8529 -0.4379
  446DG     C1110246   4.136   4.263   0.839 -0.3879 -0.7782 -0.5753
  446DG     C1210247   4.282   4.472   0.445 -0.5052 -0.4179  1.2112
  446DG     H1310248   4.097   4.164   0.813 -2.0450 -0.2513 -0.1833
  446DG     H1410249   4.166   4.248   0.942  2.5358 -0.6753 -1.3156
  446DG     H1510250   4.281   4.385   0.379 -0.8273 -0.7448  1.6452
  446DG     H1610251   4.176   4.497   0.447 -0.4211 -0.0664  1.3038
  446DG     C1710252   4.269   4.303   0.763  0.7407 -0.9239 -0.3854
  446DG     C1810253   4.346   4.427   0.578 -0.2550  0.2140  0.3040
  446DG     O1910254   4.240   4.359   0.636 -0.0343  0.0390  0.9471
  446DG     H2010255   4.337   4.217   0.763  1.6389 -0.2306  0.1895
  446DG     H2110256   4.319   4.383   0.817 -0.3319 -0.5600  0.1027
  446DG     H2210257   4.436   4.369   0.558 -0.5164 -0.0615 -0.0737
  446DG     H2310258   4.367   4.517   0.637  0.9494  0.3379 -0.2788
  447DG      C110259   3.735   0.292   3.257  0.0320 -0.0972  0.1904
  447DG      C210260   3.255  -0.016   3.533 -0.2889  0.0472  0.2847
  447DG      H310261   3.808   0.301   3.176 -1.7629 -0.1828 -1.4948
  447DG      H410262   3.778   0.239   3.342 -2.4180 -0.3718  1.3224
  447DG      H510263   3.717   0.392   3.297  0.2103 -0.4820  1.2857
  447DG      H610264   3.156  -0.061   3.547 -0.7883  1.0383  0.0723
  447DG      H710265   3.331  -0.084   3.571 -0.9918 -1.0886 -0.2808
  447DG      H810266   3.247   0.074   3.594  0.2477 -0.8088  1.6458
  447DG      O910267   3.614   0.219   3.231 -0.4770  0.5835 -0.5976
  447DG     O1010268   3.281   0.022   3.396  0.0379 -0.3359 -0.5677
  447DG     C1110269   3.551   0.284   3.126  0.3858  0.2586  0.8551
  447DG     C1210270   3.173   0.066   3.334  0.3870  0.1526 -0.1323
  447DG     H1310271   3.609   0.295   3.035  1.3443 -0.1482  1.4038
  447DG     H1410272   3.533   0.385   3.162  0.7502  1.1037 -1.2033
  447DG     H1510273   3.110   0.139   3.385  0.7945  1.0236 -0.8439
  447DG     H1610274   3.107  -0.019   3.316  1.3976 -0.9002  1.0163
  447DG     C1710275   3.427   0.201   3.092 -0.2054  0.2811  0.0615
  447DG     C1810276   3.227   0.127   3.198 -0.5442  0.6034 -0.4588
  447DG     O1910277   3.359   0.182   3.210  0.5788  0.7606 -0.4393
  447DG     H2010278   3.449   0.110   3.035  0.2440  1.8754 -2.4527
  447DG     H2110279   3.374   0.269   3.025 -0.9655 -0.8063 -0.4741
  447DG     H2210280   3.233   0.045   3.127  0.4893  0.6374 -0.4355
  447DG     H2310281   3.155   0.200   3.162 -0.7652  0.2372 -0.7742
  448DG      C110282   0.933   4.242   0.911 -0.2167 -0.4936  0.8784
  448DG      C210283   0.920   3.611   1.054  0.3095  1.1354 -0.1435
  448DG      H310284   0.989   4.335   0.905  0.3738 -0.9343 -2.3106
  448DG      H410285   0.835   4.261   0.955 -0.6278  1.7340 -0.8267
  448DG      H510286   0.918   4.212   0.807  2.1763 -0.9692  0.6137
  448DG      H610287   0.915   3.617   0.945  2.7924  0.6320 -0.3475
  448DG      H710288   0.969   3.518   1.083 -1.5721  0.1217 -0.0010
  448DG      H810289   0.820   3.604   1.097  0.8559 -1.7802  0.9095
  448DG      O910290   1.009   4.155   0.992  0.5199 -0.0786  0.5205
  448DG     O1010291   1.001   3.711   1.116 -0.4926  0.4167 -1.2130
  448DG     C1110292   1.136   4.145   0.945  0.3921  0.3106 -0.3720
  448DG     C1210293   1.140   3.700   1.090 -0.3212 -0.1849 -0.3269
  448DG     H1310294   1.183   4.243   0.944  1.0417  0.0223 -2.3609
  448DG     H1410295   1.137   4.116   0.840  1.4684 -0.6563 -0.1106
  448DG     H1510296   1.157   3.662   0.989 -2.4847  0.1867 -0.8681
  448DG     H1610297   1.176   3.622   1.158 -1.5987  0.0730  0.6771
  448DG     C1710298   1.211   4.056   1.042 -0.1095  0.0482  0.3848
  448DG     C1810299   1.211   3.829   1.115 -0.2009  0.0185 -0.1192
  448DG     O1910300   1.138   3.934   1.054 -0.0706 -0.1889  0.3364
  448DG     H2010301   1.216   4.109   1.137  1.5492  2.8601 -1.1370
  448DG     H2110302   1.316   4.050   1.012 -0.1869  2.1217 -0.4543
  448DG     H2210303   1.217   3.859   1.220  1.5162 -0.8837  0.0644
  448DG     H2310304   1.312   3.829   1.076  0.2670 -0.4399  1.0449
  449DG      C110305   3.494   2.006   1.059 -0.4968 -0.6609 -0.6209
  449DG      C210306   3.906   2.067   1.072 -0.5693 -0.2477 -0.4128
  449DG      H310307   3.522   1.978   0.957  0.9221 -1.3862 -0.0559
  449DG      H410308   3.418   1.933   1.085  0.4556 -1.4887 -0.1134
  449DG      H510309   3.583   1.993   1.120 -1.2426  0.3264  0.7262
  449DG      H610310   3.980   2.135   1.031  0.0249 -1.9456 -2.3262
  449DG      H710311   3.911   1.974   1.016 -1.0479  0.6396 -1.9825
  449DG      H810312   3.809   2.106   1.039 -0.1783  1.9053  0.7996
  449DG      O910313   3.435   2.134   1.082  0.0246 -0.3122  0.0111
  449DG     O1010314   3.903   2.053   1.218  0.0667 -0.1946  0.4781
  449DG     C1110315   3.424   2.181   1.220 -0.4940 -0.3640 -0.7427
  449DG     C1210316   3.906   2.167   1.309  0.1939  0.1707  0.0399
  449DG     H1310317   3.404   2.101   1.291 -0.5721  1.1466  1.0089
  449DG     H1410318   3.342   2.253   1.222 -2.0533 -2.0851  0.6468
  449DG     H1510319   3.998   2.224   1.314  0.0077  0.4077  0.7970
  449DG     H1610320   3.897   2.117   1.405 -2.4088  2.6108  1.2165
  449DG     C1710321   3.554   2.255   1.254  0.0676  0.5284  0.4419
  449DG     C1810322   3.778   2.258   1.294 -0.7162  0.4397 -0.2818
  449DG     O1910323   3.659   2.169   1.275  0.2616 -0.4868 -0.8721
  449DG     H2010324   3.548   2.337   1.325 -0.0198  1.6819 -0.8429
  449DG     H2110325   3.577   2.298   1.156  0.3661 -1.6152 -0.4659
  449DG     H2210326   3.765   2.321   1.382 -0.2839 -0.0055  0.1058
  449DG     H2310327   3.810   2.321   1.211  0.6341 -0.7661 -0.7371
  450DG      C110328   2.154   1.357   3.226 -0.0931 -0.6704 -0.1094
  450DG      C210329   2.752   1.171   2.999  0.1991 -0.0365  0.2868
  450DG      H310330   2.172   1.277   3.297  0.4436 -0.4100  0.0516
  450DG      H410331   2.104   1.318   3.138  0.7168  0.4831 -1.1170
  450DG      H510332   2.099   1.438   3.275  0.3874 -1.1736  1.3030
  450DG      H610333   2.859   1.186   3.002  0.0828  0.7886  0.6939
  450DG      H710334   2.724   1.090   3.066 -0.4643  0.4053  0.5526
  450DG      H810335   2.725   1.153   2.894  0.7681 -0.3916  0.1993
  450DG      O910336   2.280   1.405   3.174  0.8102  0.0607  0.3092
  450DG     O1010337   2.681   1.289   3.038  0.5045 -0.3207 -0.0457
  450DG     C1110338   2.280   1.530   3.104  0.2035 -0.8060  0.2819
  450DG     C1210339   2.711   1.405   2.969 -0.8686  0.7652  0.3629
  450DG     H1310340   2.229   1.591   3.179 -0.9181 -1.2647 -0.0828
  450DG     H1410341   2.225   1.528   3.010  0.0498  1.0752  0.2971
  450DG     H1510342   2.681   1.388   2.866 -1.3105  0.5482  0.5222
  450DG     H1610343   2.817   1.429   2.973 -0.4094 -1.2335  2.2673
  450DG     C1710344   2.419   1.586   3.092  0.4076  0.3815  0.1290
  450DG     C1810345   2.635   1.536   3.007 -0.0171  0.1711  0.4714
  450DG     O1910346   2.499   1.495   3.016  0.9738 -0.3338  0.1619
  450DG     H2010347   2.457   1.616   3.190  0.2425  0.0773  0.2889
  450DG     H2110348   2.411   1.684   3.044 -1.2321  1.6177  2.7125
  450DG     H2210349   2.675   1.588   3.094 -1.7067  1.1313  0.7214
  450DG     H2310350   2.641   1.610   2.927  1.2500  1.4286  1.6900
  451DG      C110351   4.272   2.070   4.309 -0.0184  0.7926  0.0247
  451DG      C210352   5.080   2.236   4.347  1.0825  0.2632 -0.1634
  451DG      H310353   4.226   2.053   4.406  0.9035  2.0550  0.7264
  451DG      H410354   4.328   1.980   4.281 -2.9301 -1.2338  0.3234
  451DG      H510355   4.182   2.084   4.250 -0.2439  0.1524  0.2069
  451DG      H610356   5.144   2.153   4.377 -1.7702 -1.9509  0.2002
  451DG      H710357   5.058   2.234   4.241  2.3201  1.8284 -0.4900
  451DG      H810358   5.141   2.326   4.363  0.4474  0.9633 -1.4908
  451DG      O910359   4.356   2.182   4.298 -0.1807  0.4665  0.2711
  451DG     O1010360   4.968   2.238   4.440 -0.3625  0.2714  0.6539
  451DG     C1110361   4.469   2.162   4.373  0.0567  0.3780 -1.1768
  451DG     C1210362   4.865   2.331   4.405 -0.0924  0.3666  0.0713
  451DG     H1310363   4.532   2.094   4.315 -1.2097 -0.8481 -1.1621
  451DG     H1410364   4.443   2.106   4.463  0.0436  0.5990 -1.0440
  451DG     H1510365   4.814   2.302   4.313 -0.7117 -0.1065  0.5577
  451DG     H1610366   4.911   2.430   4.400  0.8656  0.1681  3.0232
  451DG     C1710367   4.543   2.288   4.418  0.6538 -0.2986 -0.4794
  451DG     C1810368   4.749   2.354   4.506 -0.4781 -0.0924  0.1760
  451DG     O1910369   4.657   2.250   4.494  0.2665  0.2181 -0.2872
  451DG     H2010370   4.490   2.351   4.490  3.0240 -1.1629  2.2220
  451DG     H2110371   4.560   2.353   4.332  0.2553  0.1981 -0.1875
  451DG     H2210372   4.782   2.379   4.606  0.6943  4.8897 -1.1529
  451DG     H2310373   4.689   2.441   4.479 -0.8855 -0.4096  0.0492
  452DG      C110374   2.492   0.473   1.086 -0.7436 -0.2872  0.2551
  452DG      C210375   2.090   0.562   0.487  0.7636 -0.3587  0.6125
  452DG      H310376   2.530   0.400   1.158  5.1474  1.3829 -0.6746
  452DG      H410377   2.414   0.530   1.136  0.2839  3.3358 -1.9090
  452DG      H510378   2.572   0.546   1.075  0.5469 -0.9786  3.6508
  452DG      H610379   2.030   0.536   0.400 -0.3282 -0.2329  1.3110
  452DG      H710380   2.018   0.571   0.568 -0.3483 -1.8608 -0.1454
  452DG      H810381   2.145   0.655   0.473 -1.4383  0.7631 -1.3969
  452DG      O910382   2.438   0.425   0.967  0.1348 -0.6582 -0.0185
  452DG     O1010383   2.182   0.467   0.520 -0.8566  0.0174 -0.0311
  452DG     C1110384   2.535   0.383   0.870 -0.0110 -0.3446  0.2860
  452DG     C1210385   2.307   0.464   0.447  0.1355 -0.4606 -1.1521
  452DG     H1310386   2.602   0.311   0.917  0.2498  1.1226  2.2898
  452DG     H1410387   2.599   0.467   0.842  2.1557 -1.8990  0.2210
  452DG     H1510388   2.339   0.566   0.429 -0.3072 -0.0438  0.2835
  452DG     H1610389   2.281   0.421   0.350  0.7638  0.8168 -1.9189
  452DG     C1710390   2.465   0.321   0.742  0.1303 -0.4872  0.2409
  452DG     C1810391   2.404   0.367   0.525  0.4536  0.5288  0.1135
  452DG     O1910392   2.415   0.421   0.659  0.0100 -0.2627  0.7270
  452DG     H2010393   2.377   0.259   0.754 -0.6058  0.3035 -0.8591
  452DG     H2110394   2.539   0.263   0.687  0.9104 -0.4667  1.2363
  452DG     H2210395   2.347   0.276   0.512  1.7803 -0.0876 -1.7609
  452DG     H2310396   2.500   0.359   0.474 -0.1803  1.1191 -1.2258
  453DG      C110397   1.950   1.622   5.087 -0.1461 -0.1402 -0.3281
  453DG      C210398   1.618   1.731   4.397 -0.1565  0.7250  0.0981
  453DG      H310399   2.048   1.666   5.107 -0.2328  0.5690 -1.3642
  453DG      H410400   1.962   1.514   5.081  1.4539 -0.0356  0.3846
  453DG      H510401   1.881   1.646   5.168  0.6968  0.2670  0.2888
  453DG      H610402   1.612   1.634   4.348 -0.2233  1.4269 -1.3346
  453DG      H710403   1.566   1.797   4.329  1.1796 -0.0667 -1.7596
  453DG      H810404   1.719   1.772   4.403 -0.6277  2.2017 -1.4872
  453DG      O910405   1.908   1.654   4.959  0.5491  0.0175 -0.6223
  453DG     O1010406   1.566   1.716   4.527 -0.1605 -0.5077 -0.6767
  453DG     C1110407   1.777   1.618   4.926  0.3380 -0.4950 -0.8784
  453DG     C1210408   1.568   1.841   4.603 -0.9107  0.6324  0.5547
  453DG     H1310409   1.715   1.616   5.016  0.5416 -1.4064 -0.7550
  453DG     H1410410   1.785   1.518   4.884  2.4631  0.2740 -2.5174
  453DG     H1510411   1.501   1.919   4.567 -0.0098  0.4091 -1.7878
  453DG     H1610412   1.660   1.899   4.604 -0.1165 -0.5931  0.3461
  453DG     C1710413   1.724   1.718   4.821  0.1301 -0.2192  0.0307
  453DG     C1810414   1.517   1.799   4.735  0.1014  0.4974  0.1479
  453DG     O1910415   1.582   1.693   4.789 -1.0903 -0.2267 -0.0260
  453DG     H2010416   1.780   1.715   4.727 -1.3026  0.6791 -0.8909
  453DG     H2110417   1.734   1.821   4.854 -0.9220 -0.2879  0.5995
  453DG     H2210418   1.515   1.880   4.808 -0.2779  1.5980 -1.0468
  453DG     H2310419   1.414   1.763   4.730  0.2087 -0.2109  2.2880
  454DG      C110420   1.195   2.991   1.307 -0.6457 -0.0100 -0.6360
  454DG      C210421   1.297   3.313   2.055  0.4850  0.8036 -0.6529
  454DG      H310422   1.143   2.900   1.337 -0.1835  0.2564  1.1474
  454DG      H410423   1.264   2.957   1.230  2.5629  0.0808  1.9567
  454DG      H510424   1.131   3.063   1.257 -0.2506  0.7162 -0.1096
  454DG      H610425   1.254   3.413   2.054  0.6075  0.8624 -0.2901
  454DG      H710426   1.213   3.244   2.063  0.2265  1.2306  0.4839
  454DG      H810427   1.371   3.301   2.134  0.5299  0.2304 -0.7751
  454DG      O910428   1.256   3.045   1.425 -0.3159 -0.3290 -0.5108
  454DG     O1010429   1.361   3.267   1.935  0.1374  0.5442  0.4477
  454DG     C1110430   1.340   2.958   1.488 -0.2441 -0.0056 -0.1274
  454DG     C1210431   1.290   3.288   1.813  0.3002 -0.1671 -0.3672
  454DG     H1310432   1.411   2.916   1.417  1.1875  0.4155  1.0065
  454DG     H1410433   1.298   2.866   1.528  0.3827 -0.3606 -0.2785
  454DG     H1510434   1.289   3.396   1.797 -1.3375  0.4253  3.0237
  454DG     H1610435   1.188   3.251   1.818 -0.5625  2.1537  0.9766
  454DG     C1710436   1.429   3.038   1.580 -0.3920 -0.2218 -0.8612
  454DG     C1810437   1.368   3.232   1.688  0.0053 -0.8076 -0.8066
  454DG     O1910438   1.346   3.096   1.682 -0.2229 -0.0696 -0.6297
  454DG     H2010439   1.484   3.111   1.522  0.7938  0.0688  0.5797
  454DG     H2110440   1.513   2.976   1.612 -0.3697 -1.6964 -3.4796
  454DG     H2210441   1.326   3.278   1.598  0.5855 -1.0342 -1.1922
  454DG     H2310442   1.473   3.260   1.688 -0.6499  2.2805  2.0236
  455DG      C110443   4.909   5.267   3.367  0.0636 -0.4194  0.7340
  455DG      C210444   5.177   5.253   4.101  0.4723 -0.3161  0.7681
  455DG      H310445   4.942   5.344   3.298 -0.5725 -0.0458  0.8288
  455DG      H410446   4.821   5.304   3.420 -0.4149 -1.2871  0.5854
  455DG      H510447   4.867   5.187   3.305 -0.1949  1.0802 -1.1292
  455DG      H610448   5.150   5.193   4.188 -0.0127 -2.1370 -0.6031
  455DG      H710449   5.276   5.292   4.129  0.7963 -2.2617  2.5953
  455DG      H810450   5.104   5.333   4.096  0.5874 -0.2711 -0.4145
  455DG      O910451   4.999   5.207   3.458 -0.1875  0.3251  0.3082
  455DG     O1010452   5.192   5.180   3.977  0.4356  0.3621 -0.0920
  455DG     C1110453   5.032   5.292   3.567 -0.1706  0.0844 -0.5410
  455DG     C1210454   5.101   5.071   3.955 -0.0176 -0.1603  0.0545
  455DG     H1310455   4.942   5.321   3.621  0.5592  0.6738  0.3989
  455DG     H1410456   5.080   5.384   3.531 -0.4575  0.5513  0.2553
  455DG     H1510457   5.000   5.113   3.957  0.6096  1.5657 -1.7099
  455DG     H1610458   5.114   4.996   4.033  1.4095 -1.1269 -1.0668
  455DG     C1710459   5.125   5.210   3.659  0.2735  0.4682  0.4776
  455DG     C1810460   5.120   5.016   3.814 -0.0755  0.6524  0.3771
  455DG     O1910461   5.056   5.104   3.727 -0.5146 -0.5244  0.3839
  455DG     H2010462   5.180   5.277   3.724  2.6199 -1.3263  0.4501
  455DG     H2110463   5.208   5.159   3.611 -0.9074  0.7793 -2.0671
  455DG     H2210464   5.223   4.991   3.787 -0.0664 -1.0419  1.7558
  455DG     H2310465   5.069   4.920   3.809 -0.6678  1.0308 -1.5267
  456DG      C110466   4.858   5.321   2.416  0.1029  0.0030 -0.0749
  456DG      C210467   5.150   5.748   1.824  0.2877  0.3091  0.0895
  456DG      H310468   4.798   5.302   2.327 -0.1371 -0.3417  0.1566
  456DG      H410469   4.785   5.345   2.493  0.4951 -0.1486  0.3457
  456DG      H510470   4.913   5.230   2.439  0.4265  0.4148  0.8262
  456DG      H610471   5.221   5.827   1.797  0.2609  0.9326  1.7166
  456DG      H710472   5.198   5.651   1.813 -0.8940 -0.4346  1.1642
  456DG      H810473   5.072   5.744   1.748 -0.3802 -1.4484  0.8201
  456DG      O910474   4.958   5.431   2.410 -0.1868  0.5298  0.6174
  456DG     O1010475   5.087   5.770   1.949 -0.2513 -0.3664  0.0559
  456DG     C1110476   5.040   5.420   2.297  0.0293  0.3627  0.0535
  456DG     C1210477   5.172   5.774   2.060  0.3087  0.5328 -0.5466
  456DG     H1310478   4.972   5.390   2.217 -0.7407 -1.6106  1.3703
  456DG     H1410479   5.121   5.348   2.303 -0.0645  0.2639  0.1371
  456DG     H1510480   5.236   5.862   2.059 -2.1248  2.4041 -0.7138
  456DG     H1610481   5.239   5.691   2.036 -1.7797 -1.4945  0.2114
  456DG     C1710482   5.103   5.555   2.264  0.5425 -0.0887  0.4451
  456DG     C1810483   5.092   5.768   2.191 -0.3511  0.1639  0.1714
  456DG     O1910484   5.015   5.656   2.212 -0.2140  0.4418 -0.0305
  456DG     H2010485   5.180   5.531   2.191  1.1544  1.1629  0.6449
  456DG     H2110486   5.151   5.590   2.356  0.3079 -2.1306  1.4072
  456DG     H2210487   5.152   5.799   2.277  0.9150  0.5299 -0.8093
  456DG     H2310488   5.013   5.843   2.189 -0.9109 -0.3617  1.4325
  457DG      C110489   1.625   2.911   3.076  1.2698 -0.2606  0.4379
  457DG      C210490   1.495   3.836   2.969 -0.1599 -0.2302 -0.1636
  457DG      H310491   1.687   2.833   3.119 -1.2195 -1.7028  1.6503
  457DG      H410492   1.599   2.881   2.975  1.5919  0.5093  0.1164
  457DG      H510493   1.528   2.921   3.126 -0.1737  2.7682 -2.5698
  457DG      H610494   1.415   3.832   3.042 -0.3344 -1.5450 -0.3876
  457DG      H710495   1.529   3.939   2.960  1.0591 -0.7030 -1.5472
  457DG      H810496   1.450   3.813   2.871  1.9190  0.5553 -1.3592
  457DG      O910497   1.698   3.031   3.061  0.1382 -0.3797 -0.4613
  457DG     O1010498   1.582   3.736   3.007 -0.5583 -0.2017 -0.3298
  457DG     C1110499   1.640   3.132   2.982 -0.2846  0.1514  0.1688
  457DG     C1210500   1.563   3.613   2.944  0.8456  0.0263 -0.5341
  457DG     H1310501   1.539   3.151   3.020 -0.0567  1.1863  0.2849
  457DG     H1410502   1.636   3.110   2.875  1.7240  4.4376 -0.9929
  457DG     H1510503   1.553   3.615   2.835 -0.1398  2.9487 -0.4833
  457DG     H1610504   1.465   3.576   2.974  0.4673  1.8359  0.5746
  457DG     C1710505   1.717   3.271   2.999 -0.2568 -0.2408 -0.4938
  457DG     C1810506   1.673   3.511   2.994  1.0073 -0.9957 -0.2462
  457DG     O1910507   1.625   3.377   2.970  0.1766 -0.0899  0.3537
  457DG     H2010508   1.801   3.284   2.931 -0.9642  1.5485 -1.0938
  457DG     H2110509   1.750   3.287   3.102 -1.5824  0.5230 -0.1627
  457DG     H2210510   1.773   3.537   2.958 -0.2864  0.5827 -2.9612
  457DG     H2310511   1.677   3.530   3.101  1.3476 -0.6845 -0.3114
  458DG      C110512   4.003   5.175   0.589  0.2057  0.4481  0.0880
  458DG      C210513   3.492   4.735   0.634  0.1260  0.4969  0.1263
  458DG      H310514   4.000   5.125   0.493 -1.2279  0.7469 -0.0453
  458DG      H410515   4.099   5.141   0.627  0.3909  0.8636  0.0051
  458DG      H510516   4.010   5.284   0.578  1.6971  0.1984 -2.1413
  458DG      H610517   3.540   4.701   0.542  0.1613 -2.3800  1.1254
  458DG      H710518   3.503   4.662   0.714  0.6893  0.5525  0.1105
  458DG      H810519   3.388   4.761   0.619  0.8570  4.1955  0.3895
  458DG      O910520   3.893   5.125   0.659 -0.4036 -0.3412 -0.0140
  458DG     O1010521   3.563   4.850   0.679  0.1496  0.1531 -0.0449
  458DG     C1110522   3.881   5.186   0.787  0.4037 -0.2080  0.1900
  458DG     C1210523   3.506   4.897   0.800  0.0070  0.1990  0.2266
  458DG     H1310524   3.850   5.290   0.784  1.8218  0.2079 -1.4462
  458DG     H1410525   3.980   5.181   0.832  1.0689  0.7272 -1.1124
  458DG     H1510526   3.441   4.831   0.858 -0.8233  1.8885  1.3025
  458DG     H1610527   3.438   4.980   0.778  3.0571  3.0284  0.6207
  458DG     C1710528   3.795   5.102   0.880 -0.2820  0.3820 -0.4398
  458DG     C1810529   3.620   4.951   0.892 -0.3129 -0.0681  0.0733
  458DG     O1910530   3.685   5.048   0.812  0.0590  0.2070  0.2270
  458DG     H2010531   3.773   5.161   0.968 -2.8883 -0.1956 -0.6270
  458DG     H2110532   3.858   5.022   0.920 -0.5199 -0.7302 -2.1664
  458DG     H2210533   3.570   5.006   0.972 -2.1484  0.3963 -1.3134
  458DG     H2310534   3.684   4.870   0.927  0.8461  0.5712 -0.5089
  459DG      C110535   4.567   1.311   2.046 -0.1562  0.1129 -0.5518
  459DG      C210536   5.002   1.225   1.497 -0.4320 -0.0299  0.6673
  459DG      H310537   4.529   1.388   1.978 -1.6634  0.9066  1.0922
  459DG      H410538   4.641   1.359   2.110  0.8201 -1.9290 -0.1043
  459DG      H510539   4.476   1.286   2.101 -1.2287 -0.4247 -2.4916
  459DG      H610540   4.986   1.191   1.395  1.4737  1.4220 -0.1867
  459DG      H710541   4.907   1.251   1.544  0.1625 -0.8816  2.4330
  459DG      H810542   5.063   1.315   1.486 -1.8252  0.8526 -0.0910
  459DG      O910543   4.612   1.189   1.985 -0.1817  0.0448 -0.0939
  459DG     O1010544   5.094   1.136   1.551  0.0393  0.8845 -0.1843
  459DG     C1110545   4.713   1.207   1.882 -0.0924  0.3760 -0.0924
  459DG     C1210546   5.046   1.007   1.574  0.0448  0.0191  0.6868
  459DG     H1310547   4.788   1.276   1.921  1.7014 -0.9608 -0.9986
  459DG     H1410548   4.668   1.253   1.794  1.5634 -0.4964 -1.4523
  459DG     H1510549   5.130   0.938   1.574 -0.5242 -0.8811  3.9812
  459DG     H1610550   4.978   0.967   1.498 -0.8156  1.1858  0.8158
  459DG     C1710551   4.782   1.074   1.851 -0.0254 -0.5096 -0.9056
  459DG     C1810552   4.966   0.989   1.709 -1.0466 -0.8292 -0.2563
  459DG     O1910553   4.872   1.098   1.743  0.2209  0.3823 -0.2886
  459DG     H2010554   4.705   1.000   1.827 -1.6513  0.9947 -0.5074
  459DG     H2110555   4.843   1.053   1.939 -0.3521 -2.6031 -1.1337
  459DG     H2210556   4.912   0.895   1.707 -0.8492 -0.9490  0.0614
  459DG     H2310557   5.042   0.989   1.786  1.3087  1.7371 -2.3410
  460DG      C110558   1.935   3.105   2.261  0.3768 -0.7882  0.4405
  460DG      C210559   2.510   2.763   2.138  0.9514  0.0957 -0.1128
  460DG      H310560   1.935   3.123   2.153  0.5663 -1.2123  0.3675
  460DG      H410561   1.993   3.187   2.303 -1.8380  0.3898  1.3327
  460DG      H510562   1.834   3.130   2.295 -0.0860 -1.4267 -0.4257
  460DG      H610563   2.566   2.839   2.192 -0.2108  0.9455 -0.0416
  460DG      H710564   2.550   2.662   2.149 -2.3119 -1.4717 -1.2977
  460DG      H810565   2.495   2.780   2.031 -0.2512  2.5409  0.3778
  460DG      O910566   1.968   2.973   2.296  0.4953  0.3249  0.4779
  460DG     O1010567   2.388   2.754   2.211  0.5213  0.0005  0.4834
  460DG     C1110568   1.901   2.874   2.238 -0.5968  0.2268  0.2774
  460DG     C1210569   2.316   2.641   2.166 -0.2196 -0.7048  0.1585
  460DG     H1310570   1.914   2.874   2.130 -0.9212 -1.9456  0.2040
  460DG     H1410571   1.793   2.861   2.253 -0.7274 -2.2403 -2.0178
  460DG     H1510572   2.376   2.556   2.199  0.0866 -1.1505 -1.4458
  460DG     H1610573   2.311   2.635   2.057  1.8735 -4.2232  0.1136
  460DG     C1710574   1.972   2.742   2.273  0.1800  0.2010 -0.6003
  460DG     C1810575   2.179   2.618   2.224  0.1921  0.0305 -0.1222
  460DG     O1910576   2.102   2.738   2.213  0.0312  0.1492 -0.1362
  460DG     H2010577   1.914   2.659   2.232  5.0100 -3.2335 -1.3290
  460DG     H2110578   1.970   2.731   2.382 -0.8823  1.8996 -0.4226
  460DG     H2210579   2.136   2.532   2.174  1.8252 -1.8955  1.5846
  460DG     H2310580   2.182   2.597   2.331 -0.2770  0.5760  0.0074
  461DG      C110581   3.598   1.179   1.392 -0.0413  0.8925 -0.2171
  461DG      C210582   3.602   1.883   1.473 -0.7243 -0.5396  0.5125
  461DG      H310583   3.707   1.186   1.381  0.3661  0.1729  2.6616
  461DG      H410584   3.549   1.104   1.331 -0.2203  0.6893  0.1787
  461DG      H510585   3.579   1.157   1.497  1.5966 -0.3829 -0.1399
  461DG      H610586   3.577   1.977   1.425 -0.4712  0.0849  1.5710
  461DG      H710587   3.594   1.873   1.581 -1.9694  0.9548  0.5969
  461DG      H810588   3.708   1.878   1.448 -1.0837  0.4802 -1.4435
  461DG      O910589   3.530   1.302   1.343 -0.2035 -0.3212  0.1132
  461DG     O1010590   3.543   1.772   1.403  0.2944 -0.0581  0.0268
  461DG     C1110591   3.394   1.310   1.364 -0.0518 -0.2197  0.2374
  461DG     C1210592   3.399   1.755   1.438 -0.3396 -0.9499  0.0687
  461DG     H1310593   3.375   1.312   1.471  2.1117  1.1342  0.6614
  461DG     H1410594   3.335   1.222   1.336 -0.9070  0.8995 -1.6809
  461DG     H1510595   3.347   1.851   1.444 -0.4458 -0.7358 -2.9271
  461DG     H1610596   3.390   1.702   1.533 -0.7850 -1.6360 -0.3504
  461DG     C1710597   3.322   1.432   1.315 -0.2695 -0.4923  0.0604
  461DG     C1810598   3.337   1.670   1.331  0.1805  0.5554  0.0673
  461DG     O1910599   3.405   1.544   1.348  0.3154 -0.3046  0.5779
  461DG     H2010600   3.228   1.440   1.371 -1.0991 -1.1489 -1.2001
  461DG     H2110601   3.300   1.413   1.210 -1.8949  3.0349 -0.3945
  461DG     H2210602   3.233   1.653   1.359  0.0707 -0.0254 -0.6883
  461DG     H2310603   3.343   1.710   1.230  2.5965  0.1858 -0.0069
  462DG      C110604   1.750   0.816   4.046  0.3377  1.2098 -0.1205
  462DG      C210605   2.157   0.892   3.555  0.4991  0.3783 -0.1728
  462DG      H310606   1.735   0.772   4.144 -2.0800 -1.1852 -1.4300
  462DG      H410607   1.652   0.837   4.002  1.4646  2.3183 -2.2559
  462DG      H510608   1.804   0.910   4.055 -0.1453  1.4184  0.6189
  462DG      H610609   2.089   0.925   3.477 -1.2022 -0.8742  0.6962
  462DG      H710610   2.182   0.985   3.605 -2.5889  1.4871 -0.5234
  462DG      H810611   2.249   0.858   3.507  1.1743  1.1020  0.5678
  462DG      O910612   1.836   0.727   3.964 -0.1874 -0.1344 -0.0125
  462DG     O1010613   2.115   0.796   3.651  0.6300  0.6055  0.1949
  462DG     C1110614   1.765   0.612   3.922 -0.3101  0.4630 -0.1971
  462DG     C1210615   2.100   0.668   3.593 -0.6223 -0.3244 -0.0794
  462DG     H1310616   1.679   0.640   3.861 -0.5701  1.8125  0.7419
  462DG     H1410617   1.719   0.570   4.012  1.2083  0.1094  0.4468
  462DG     H1510618   2.194   0.632   3.549  1.1546  1.7152  1.8072
  462DG     H1610619   2.028   0.682   3.512 -0.6050  0.0843 -0.0259
  462DG     C1710620   1.855   0.523   3.840  0.1621  0.2141 -0.0731
  462DG     C1810621   2.033   0.562   3.678  0.3669 -0.3130 -0.9047
  462DG     O1910622   1.918   0.619   3.752 -0.4930  0.1710  0.2639
  462DG     H2010623   1.799   0.443   3.791  0.1815 -0.4694  0.9728
  462DG     H2110624   1.935   0.477   3.898  0.9125  0.1323 -1.1568
  462DG     H2210625   1.992   0.479   3.620 -1.3332  0.9399 -1.5939
  462DG     H2310626   2.111   0.538   3.751 -0.3676 -0.2696 -0.0808
  463DG      C110627   4.151   0.734   1.342  0.1459 -0.7869  0.4125
  463DG      C210628   4.626   1.106   1.456  0.3778  0.1519  0.0736
  463DG      H310629   4.093   0.820   1.309  0.8883 -0.6942 -0.6774
  463DG      H410630   4.169   0.727   1.450  3.2243 -0.6602  0.0035
  463DG      H510631   4.088   0.649   1.315 -1.2630 -0.1225  1.4514
  463DG      H610632   4.560   1.189   1.482  2.0683  0.7779  2.7816
  463DG      H710633   4.632   1.037   1.540 -1.1814  1.1883  1.0722
  463DG      H810634   4.721   1.157   1.446 -0.8335  2.4346 -0.4171
  463DG      O910635   4.280   0.725   1.291  0.0684  0.2585  0.4714
  463DG     O1010636   4.585   1.036   1.341  0.0361  0.2146 -0.2955
  463DG     C1110637   4.280   0.732   1.152  0.4939  0.1728 -0.0979
  463DG     C1210638   4.671   0.936   1.298  0.2147 -0.0061 -0.3485
  463DG     H1310639   4.225   0.818   1.113  0.1303 -0.7264 -1.6173
  463DG     H1410640   4.232   0.641   1.116  0.2278 -0.4590  1.7328
  463DG     H1510641   4.701   0.860   1.370 -1.5425 -0.1546  0.2923
  463DG     H1610642   4.771   0.978   1.289  0.7473 -0.9189  0.8909
  463DG     C1710643   4.421   0.745   1.099  0.0642  0.0142  0.1769
  463DG     C1810644   4.610   0.877   1.169 -1.0483  0.1891 -0.3908
  463DG     O1910645   4.485   0.824   1.198  0.1882 -0.0787 -0.9359
  463DG     H2010646   4.435   0.793   1.002 -2.0010  1.0411  0.3380
  463DG     H2110647   4.484   0.656   1.093  1.5274  1.1047 -2.3767
  463DG     H2210648   4.605   0.945   1.084 -0.2178  1.1325  0.2852
  463DG     H2310649   4.683   0.804   1.134 -0.6379  0.7403 -0.6951
  464DG      C110650   3.662   1.465   5.211  0.6347  1.0127 -0.0916
  464DG      C210651   3.617   1.922   5.660 -0.1588  0.8815  0.1484
  464DG      H310652   3.721   1.416   5.288 -0.4841 -0.7286 -0.2983
  464DG      H410653   3.729   1.516   5.141 -0.1033  0.0695 -1.5473
  464DG      H510654   3.611   1.389   5.152  2.2209  0.7183 -1.1575
  464DG      H610655   3.551   1.945   5.743 -3.1890  1.3540 -2.2452
  464DG      H710656   3.700   1.856   5.687 -1.0394 -2.3146 -3.8422
  464DG      H810657   3.664   2.012   5.621 -2.8969  1.7289 -1.4062
  464DG      O910658   3.572   1.557   5.263 -0.0071  0.6767  0.3687
  464DG     O1010659   3.543   1.863   5.555 -0.4692  0.3487 -0.0616
  464DG     C1110660   3.475   1.603   5.167 -0.1724  0.3585 -0.5108
  464DG     C1210661   3.449   1.945   5.500  0.6570 -0.2744  0.0095
  464DG     H1310662   3.428   1.515   5.124  0.4189 -0.1840 -0.0633
  464DG     H1410663   3.516   1.663   5.086 -0.3860 -0.2482 -1.0695
  464DG     H1510664   3.493   2.020   5.434 -0.4799  0.3791 -0.0264
  464DG     H1610665   3.391   1.990   5.580  2.1656 -0.2676  1.1244
  464DG     C1710666   3.367   1.676   5.247 -0.4445 -0.9423 -1.0098
  464DG     C1810667   3.361   1.847   5.422  0.1666  0.3421  0.0952
  464DG     O1910668   3.437   1.770   5.333  0.2641  0.0391  0.1804
  464DG     H2010669   3.316   1.600   5.307 -0.7527  0.2258  0.2763
  464DG     H2110670   3.287   1.717   5.185 -1.1864 -3.0173 -1.4992
  464DG     H2210671   3.321   1.784   5.501 -0.2586  0.9344  0.3623
  464DG     H2310672   3.274   1.895   5.375 -1.8048 -1.5341  1.6253
  465DG      C110673   0.525   2.460   2.927 -0.0859  0.1680 -0.0704
  465DG      C210674   0.800   2.598   3.679 -0.0814  0.8026 -0.0191
  465DG      H310675   0.590   2.391   2.874 -0.8859  0.9192 -2.0995
  465DG      H410676   0.543   2.565   2.900 -0.6480 -0.1547 -1.8035
  465DG      H510677   0.426   2.442   2.887  0.5424  1.8193 -2.5819
  465DG      H610678   0.804   2.534   3.767 -1.7910 -0.8088 -1.0433
  465DG      H710679   0.894   2.599   3.624  0.8661  0.0250  1.5196
  465DG      H810680   0.786   2.699   3.717  0.6945  1.1831 -0.7053
  465DG      O910681   0.532   2.427   3.068  0.2288 -0.4921 -0.1601
  465DG     O1010682   0.692   2.554   3.602 -1.0607 -0.4344  0.2121
  465DG     C1110683   0.436   2.501   3.139 -0.2943  0.6583 -0.3105
  465DG     C1210684   0.700   2.430   3.533  0.0354  0.0585  0.6091
  465DG     H1310685   0.336   2.483   3.100  0.2108  0.5778 -1.6461
  465DG     H1410686   0.441   2.610   3.129 -0.7111  0.7193  0.0912
  465DG     H1510687   0.726   2.347   3.599  1.2561 -0.3179 -0.2893
  465DG     H1610688   0.777   2.414   3.457 -1.0272  0.3619 -0.5760
  465DG     C1710689   0.426   2.455   3.287  0.7249  0.4534  0.2914
  465DG     C1810690   0.564   2.398   3.468 -0.1707  0.0803  0.3976
  465DG     O1910691   0.551   2.475   3.350  0.2224  0.1685 -0.6973
  465DG     H2010692   0.401   2.349   3.292 -2.5030  1.0213 -1.1618
  465DG     H2110693   0.345   2.502   3.343  0.3960 -0.7474  0.8694
  465DG     H2210694   0.555   2.291   3.450 -3.3747  0.4699 -1.0668
  465DG     H2310695   0.479   2.415   3.534 -2.0291 -0.8490 -1.6273
  466DG      C110696   2.501   4.731   3.741  0.8597 -0.0185 -0.7694
  466DG      C210697   3.249   4.896   3.684 -0.5753 -0.4730  0.4401
  466DG      H310698   2.513   4.819   3.803  1.9502 -1.2709  0.8765
  466DG      H410699   2.480   4.646   3.806 -0.8902  0.4522 -0.6518
  466DG      H510700   2.412   4.751   3.680  1.8625  1.6206 -1.7653
  466DG      H610701   3.287   4.992   3.649 -0.5583 -0.2011  1.1754
  466DG      H710702   3.197   4.927   3.775  0.0066  1.0007  0.2937
  466DG      H810703   3.335   4.833   3.708 -1.0928 -1.6363 -0.6704
  466DG      O910704   2.603   4.711   3.650 -0.2477 -0.5932 -0.4569
  466DG     O1010705   3.162   4.830   3.593  0.1095 -0.4239  0.6713
  466DG     C1110706   2.632   4.811   3.562  0.2358 -1.0289  0.0303
  466DG     C1210707   3.102   4.709   3.631  0.8384 -0.3638  0.6316
  466DG     H1310708   2.658   4.906   3.609 -1.1170  0.0549 -1.3069
  466DG     H1410709   2.553   4.827   3.489  1.2136 -0.4339 -0.9273
  466DG     H1510710   3.063   4.723   3.732  2.4664  2.1940  0.9878
  466DG     H1610711   3.167   4.622   3.623  0.5066 -0.4840 -0.9735
  466DG     C1710712   2.763   4.771   3.478  0.6647 -0.4630  0.2883
  466DG     C1810713   2.982   4.683   3.536  0.1108  0.0624  0.0829
  466DG     O1910714   2.880   4.774   3.557  0.5217  0.2904  0.5048
  466DG     H2010715   2.773   4.837   3.392  0.2668 -1.2907 -0.4138
  466DG     H2110716   2.748   4.673   3.432 -0.2683  0.2533 -0.9961
  466DG     H2210717   3.022   4.684   3.434 -0.5049 -0.2529 -0.1710
  466DG     H2310718   2.936   4.585   3.548  1.9094 -0.9768 -0.9817
  467DG      C110719   5.147   1.830   1.745 -0.3713 -0.1887  0.0896
  467DG      C210720   5.758   1.982   1.327  0.2553 -0.1457 -0.2010
  467DG      H310721   5.104   1.739   1.702  1.5851 -1.0345 -0.1730
  467DG      H410722   5.063   1.883   1.791 -0.2274  1.7485 -1.7330
  467DG      H510723   5.209   1.792   1.826 -3.4603  0.2902  2.9495
  467DG      H610724   5.819   1.934   1.403  0.5193  0.9823  0.3220
  467DG      H710725   5.739   1.922   1.238 -0.9033  0.4700 -0.3892
  467DG      H810726   5.799   2.075   1.288  1.6247 -0.6409  0.0171
  467DG      O910727   5.216   1.907   1.643  0.5668  0.4844  0.2923
  467DG     O1010728   5.635   2.026   1.382 -0.5035 -0.0070 -0.2974
  467DG     C1110729   5.326   1.835   1.592 -0.2796  0.0386 -0.2983
  467DG     C1210730   5.648   2.103   1.505 -0.3518 -0.1778  0.1256
  467DG     H1310731   5.297   1.752   1.527  0.2845 -0.0882 -0.3966
  467DG     H1410732   5.376   1.793   1.679 -0.0421  1.5091  0.2943
  467DG     H1510733   5.719   2.186   1.499  2.1287 -2.2212 -0.7427
  467DG     H1610734   5.691   2.037   1.580 -2.0620  0.6226  1.8733
  467DG     C1710735   5.405   1.944   1.519 -0.3136 -0.6620  0.4268
  467DG     C1810736   5.515   2.144   1.566  0.7784  0.7239 -0.4367
  467DG     O1910737   5.449   2.032   1.619  0.5205 -0.0020 -0.1199
  467DG     H2010738   5.357   1.993   1.435  1.5231  0.6022  0.0606
  467DG     H2110739   5.488   1.886   1.480 -1.3317 -2.1401  0.3608
  467DG     H2210740   5.526   2.213   1.650 -0.5741  0.2186  0.1940
  467DG     H2310741   5.445   2.196   1.501  0.1110  0.7810  0.3075
  468DG      C110742   4.602   3.377   4.906  0.7018 -0.0527 -0.2779
  468DG      C210743   4.638   3.033   4.279 -0.3101 -0.4964 -0.9557
  468DG      H310744   4.710   3.372   4.898  1.0171  1.0062  2.3347
  468DG      H410745   4.579   3.355   5.010  0.1998  0.9180 -0.1751
  468DG      H510746   4.565   3.479   4.896  0.6195 -0.0762 -0.2140
  468DG      H610747   4.738   2.999   4.305 -1.0262 -2.0611 -0.0942
  468DG      H710748   4.608   2.961   4.204 -0.9038  0.4105 -1.6057
  468DG      H810749   4.648   3.127   4.225  0.5580  0.8020  1.3062
  468DG      O910750   4.545   3.302   4.801  0.7015 -0.0304 -0.3730
  468DG     O1010751   4.558   3.061   4.397  0.5368 -0.1884  0.0562
  468DG     C1110752   4.404   3.287   4.831  0.0248 -0.0132 -0.1002
  468DG     C1210753   4.424   3.114   4.367 -0.3285  0.2452 -0.2523
  468DG     H1310754   4.355   3.384   4.822 -1.1695 -0.4994  0.8493
  468DG     H1410755   4.376   3.259   4.932  0.1737  1.6273  0.4297
  468DG     H1510756   4.387   3.037   4.300 -0.2669  0.1659 -0.1951
  468DG     H1610757   4.430   3.212   4.320  0.0348  1.6642  2.5101
  468DG     C1710758   4.346   3.197   4.725 -0.2678  0.6295 -0.5189
  468DG     C1810759   4.339   3.116   4.495  0.2645  0.6748 -0.4122
  468DG     O1910760   4.382   3.223   4.587 -0.5429 -0.4178  0.1732
  468DG     H2010761   4.238   3.202   4.738 -0.2606 -0.7411  0.3517
  468DG     H2110762   4.369   3.096   4.759 -0.2821  0.2699 -1.5537
  468DG     H2210763   4.231   3.121   4.480 -0.3444 -1.0946  2.5684
  468DG     H2310764   4.350   3.018   4.543 -0.8334  1.4340  1.5137
  469DG      C110765   1.691   3.445   2.631 -0.3220  0.4006 -0.3974
  469DG      C210766   1.113   3.582   2.686  1.1397 -0.8228 -0.2471
  469DG      H310767   1.625   3.532   2.626  0.3173  0.9287  0.2626
  469DG      H410768   1.783   3.490   2.667 -2.0770  2.5984  1.6680
  469DG      H510769   1.654   3.399   2.722  0.4277  0.6236  0.0271
  469DG      H610770   1.191   3.589   2.761 -0.0848  0.3859  0.9884
  469DG      H710771   1.052   3.670   2.664  0.0285 -1.4774  0.1200
  469DG      H810772   1.032   3.514   2.715  0.3104 -0.0486 -0.6943
  469DG      O910773   1.703   3.367   2.510  0.5731  0.2339 -0.0058
  469DG     O1010774   1.150   3.547   2.554 -0.3970 -0.2318 -0.0736
  469DG     C1110775   1.584   3.290   2.475 -0.0469 -0.3605  0.6477
  469DG     C1210776   1.238   3.642   2.495 -0.0558  0.5990  0.2446
  469DG     H1310777   1.547   3.245   2.568  0.6857 -0.7501  0.7561
  469DG     H1410778   1.640   3.218   2.415 -1.5558  0.0692 -1.3781
  469DG     H1510779   1.312   3.685   2.563 -0.2167  0.5870  0.4282
  469DG     H1610780   1.201   3.714   2.423  0.8576  0.4032 -0.4357
  469DG     C1710781   1.480   3.377   2.391  0.5145 -0.6358 -0.0249
  469DG     C1810782   1.327   3.561   2.397 -0.2019  0.2295  0.1226
  469DG     O1910783   1.413   3.477   2.472 -0.3484 -0.6147 -0.1128
  469DG     H2010784   1.400   3.314   2.351  1.0442 -2.7034  1.9934
  469DG     H2110785   1.526   3.430   2.308 -0.0419 -0.7747 -0.4299
  469DG     H2210786   1.266   3.510   2.322 -0.0724 -0.2800  0.3612
  469DG     H2310787   1.385   3.620   2.325  1.7082  1.2395  2.3581
  470DG      C110788   1.638   5.124   2.850  0.7356 -0.2479 -0.0820
  470DG      C210789   1.552   5.571   2.298 -0.7824 -0.2085 -0.6632
  470DG      H310790   1.546   5.110   2.792  0.7202 -2.6028  0.4230
  470DG      H410791   1.615   5.197   2.927  0.1438  0.5227 -0.9613
  470DG      H510792   1.649   5.020   2.880 -1.8554 -0.6921 -0.3599
  470DG      H610793   1.533   5.677   2.315 -0.4606 -0.1873 -0.4198
  470DG      H710794   1.608   5.548   2.208  0.3337 -5.0733  0.9478
  470DG      H810795   1.452   5.531   2.281 -1.0270  0.8281 -1.8285
  470DG      O910796   1.752   5.166   2.771  0.6097  0.1001  0.2647
  470DG     O1010797   1.631   5.509   2.399  0.8861 -0.3856 -0.1059
  470DG     C1110798   1.777   5.075   2.667 -0.1561  0.2231  0.2533
  470DG     C1210799   1.705   5.394   2.354 -0.3522  0.3199  0.1058
  470DG     H1310800   1.689   5.033   2.618 -0.9145  3.0588 -1.0243
  470DG     H1410801   1.819   4.986   2.714 -2.9444 -0.8607  0.8636
  470DG     H1510802   1.780   5.409   2.276  0.7359 -3.0023  0.3687
  470DG     H1610803   1.636   5.317   2.320 -0.8323  0.6332  0.3543
  470DG     C1710804   1.866   5.141   2.561 -0.1074  0.4629 -0.4233
  470DG     C1810805   1.773   5.332   2.483 -0.3504 -0.2974  0.2699
  470DG     O1910806   1.798   5.199   2.453 -0.1975  0.4228  0.7264
  470DG     H2010807   1.913   5.058   2.509  0.5428  1.2101 -1.0444
  470DG     H2110808   1.944   5.205   2.603 -0.4129  0.9093 -0.5272
  470DG     H2210809   1.858   5.397   2.508 -1.1399  1.1715 -0.6860
  470DG     H2310810   1.708   5.340   2.570 -0.3921  1.8059  0.1118
  471DG      C110811   0.321   2.128   2.324 -0.1375 -0.3908  0.3355
  471DG      C210812   0.908   2.456   2.467 -0.0424  0.1195 -0.6247
  471DG      H310813   0.375   2.094   2.235  1.6064 -1.5559  1.7599
  471DG      H410814   0.232   2.175   2.282  1.2046  3.3446  1.3029
  471DG      H510815   0.299   2.036   2.379  1.2277 -2.5594 -2.4317
  471DG      H610816   0.930   2.541   2.402 -0.7348  1.1995  0.5034
  471DG      H710817   0.956   2.474   2.563 -3.3497  0.2111  1.1539
  471DG      H810818   0.955   2.369   2.422  2.6119  0.1896  1.7292
  471DG      O910819   0.389   2.218   2.412  0.2691  0.3743  0.4045
  471DG     O1010820   0.766   2.435   2.499 -0.5396 -0.3431 -0.0808
  471DG     C1110821   0.314   2.266   2.522 -0.4090  0.5243  0.0460
  471DG     C1210822   0.707   2.546   2.568 -0.1207 -0.0448 -0.5121
  471DG     H1310823   0.311   2.199   2.608  0.3048  0.0034 -0.3186
  471DG     H1410824   0.210   2.273   2.490 -0.8378 -1.3162  0.8723
  471DG     H1510825   0.732   2.635   2.510 -1.8900  0.2129 -0.9386
  471DG     H1610826   0.734   2.554   2.673  1.8514  0.6026 -1.0173
  471DG     C1710827   0.356   2.405   2.573 -0.1528  0.3860  0.2727
  471DG     C1810828   0.554   2.543   2.549 -0.6540 -0.3984 -0.2644
  471DG     O1910829   0.495   2.416   2.582 -0.3896  0.4533 -0.1580
  471DG     H2010830   0.314   2.425   2.671  1.2559  1.0112  0.7776
  471DG     H2110831   0.309   2.483   2.512  0.3342 -0.7940 -1.6892
  471DG     H2210832   0.512   2.625   2.608 -0.0367 -0.2069 -0.0756
  471DG     H2310833   0.526   2.570   2.447 -1.9092  0.3533  0.2521
  472DG      C110834   3.854   3.565   3.671  0.1599 -0.0706  0.1818
  472DG      C210835   3.948   3.278   2.890  0.9424 -0.4519  0.3051
  472DG      H310836   3.754   3.573   3.714  1.1983  0.2427  2.7314
  472DG      H410837   3.926   3.635   3.714 -1.3457  0.7521  1.5139
  472DG      H510838   3.903   3.470   3.693 -1.3115 -0.9267 -0.1346
  472DG      H610839   4.021   3.359   2.900  0.0354  0.5748 -0.9305
  472DG      H710840   3.985   3.181   2.921 -0.0602 -0.5247  1.3102
  472DG      H810841   3.921   3.247   2.789 -2.9125 -1.8889  1.5990
  472DG      O910842   3.856   3.556   3.530 -0.1111  0.9303 -0.1878
  472DG     O1010843   3.826   3.309   2.964 -0.9651 -0.3101  0.1158
  472DG     C1110844   3.974   3.596   3.475 -0.6795 -0.0991  0.0622
  472DG     C1210845   3.855   3.320   3.101  0.6100 -0.1493 -0.2917
  472DG     H1310846   4.056   3.526   3.494 -0.8187 -0.1617  0.4526
  472DG     H1410847   4.016   3.693   3.502  0.5701 -0.3967 -0.7517
  472DG     H1510848   3.948   3.269   3.126 -0.2324 -1.6821 -0.1407
  472DG     H1610849   3.764   3.287   3.151  0.5996 -0.9484 -0.8212
  472DG     C1710850   3.959   3.602   3.317 -0.2116  0.3002  0.0401
  472DG     C1810851   3.868   3.471   3.134 -0.3314 -0.6682  0.0546
  472DG     O1910852   3.900   3.481   3.272 -0.1862 -0.1689 -0.0485
  472DG     H2010853   4.050   3.619   3.260 -1.5169  2.0902 -1.6108
  472DG     H2110854   3.893   3.687   3.298  0.7612  1.6371  2.2448
  472DG     H2210855   3.958   3.501   3.080 -1.3178 -0.3411 -1.4687
  472DG     H2310856   3.776   3.526   3.116 -1.1742 -0.3621  4.1409
  473DG      C110857   3.770   4.941   3.973 -0.1782 -0.2390 -0.6354
  473DG      C210858   4.308   5.004   3.486 -0.4547  0.7260 -0.1270
  473DG      H310859   3.795   5.045   3.993  0.3551 -0.9649  3.5280
  473DG      H410860   3.770   4.886   4.067 -2.9463  0.5330 -0.0930
  473DG      H510861   3.668   4.932   3.936 -0.8939  0.2952  1.0848
  473DG      H610862   4.230   5.039   3.419 -1.7488 -0.0217  0.9256
  473DG      H710863   4.338   5.096   3.535 -0.3549  0.4460  0.3521
  473DG      H810864   4.387   4.956   3.428 -1.2052 -0.9266  0.1344
  473DG      O910865   3.870   4.880   3.893 -0.3073 -0.2697  0.9550
  473DG     O1010866   4.251   4.912   3.580 -0.4465 -0.4774  0.1635
  473DG     C1110867   3.825   4.768   3.817  0.3350  0.3808  0.0482
  473DG     C1210868   4.188   4.795   3.523  0.0263 -0.3744 -0.1330
  473DG     H1310869   3.775   4.798   3.725 -1.3721 -0.6681  0.5891
  473DG     H1410870   3.758   4.704   3.874  1.3742 -0.0971  0.7698
  473DG     H1510871   4.266   4.744   3.467 -2.0235 -0.2203 -3.4396
  473DG     H1610872   4.110   4.835   3.457 -0.3443  1.9967  1.6141
  473DG     C1710873   3.947   4.683   3.786  0.3581  0.6126  0.2720
  473DG     C1810874   4.119   4.694   3.613 -0.0003 -0.2484  0.3500
  473DG     O1910875   4.031   4.766   3.700  0.0795 -0.3503 -0.4624
  473DG     H2010876   3.921   4.592   3.733  2.4646 -1.3887  2.4227
  473DG     H2110877   4.006   4.658   3.874  3.7525 -1.4846 -2.3211
  473DG     H2210878   4.061   4.619   3.560 -2.3047 -0.0951  2.4855
  473DG     H2310879   4.192   4.650   3.681 -0.9666  0.7682  2.1220
  474DG      C110880   2.283   2.183   1.267  0.5687  0.4323 -0.5379
  474DG      C210881   1.631   2.352   1.527 -0.6276 -0.2442  0.2078
  474DG      H310882   2.294   2.275   1.324  1.8676 -0.1673  0.2360
  474DG      H410883   2.281   2.201   1.159 -0.1716 -1.5603 -0.9042
  474DG      H510884   2.368   2.115   1.279  1.6311  1.1964 -2.9600
  474DG      H610885   1.602   2.377   1.425  0.8840  3.6534  0.5395
  474DG      H710886   1.587   2.265   1.577 -0.8134 -0.4483 -0.3064
  474DG      H810887   1.625   2.441   1.590 -0.0956 -0.5736  0.7359
  474DG      O910888   2.162   2.117   1.310  0.2302 -0.1051  0.2300
  474DG     O1010889   1.776   2.330   1.528 -0.1963  0.0106 -0.0912
  474DG     C1110890   2.171   2.039   1.433  0.0751  0.0086  0.0726
  474DG     C1210891   1.836   2.319   1.659  0.5248  0.3252 -0.2553
  474DG     H1310892   2.266   1.990   1.453  0.9659  0.9914 -1.5642
  474DG     H1410893   2.095   1.962   1.452 -0.4306  0.7628  1.2575
  474DG     H1510894   1.785   2.233   1.704  1.2030  0.2042  0.3025
  474DG     H1610895   1.812   2.403   1.724 -1.4722 -1.8453  2.0516
  474DG     C1710896   2.148   2.142   1.550  0.0891  0.3833 -0.2528
  474DG     C1810897   1.983   2.292   1.647  0.1420 -0.1466 -0.4227
  474DG     O1910898   2.021   2.204   1.535 -0.1808  0.4275 -0.7748
  474DG     H2010899   2.230   2.213   1.549  1.0096 -0.6156  0.7882
  474DG     H2110900   2.145   2.078   1.639  0.2208 -0.3484 -0.7606
  474DG     H2210901   2.040   2.383   1.629 -0.6757  0.2808 -0.8888
  474DG     H2310902   2.021   2.259   1.744 -1.3836 -1.8218 -0.3395
  475DG      C110903   3.133   0.502   0.246 -0.4614  0.2765  0.3033
  475DG      C210904   3.119   0.881  -0.430  0.7701 -0.1963  0.2875
  475DG      H310905   3.032   0.465   0.262  0.1841 -0.9349  1.8044
  475DG      H410906   3.164   0.532   0.346  0.1795 -0.1183  0.2330
  475DG      H510907   3.193   0.413   0.225 -3.4336 -1.8175  0.0343
  475DG      H610908   3.162   0.962  -0.372  0.6897  0.1235 -0.0905
  475DG      H710909   3.202   0.826  -0.474  0.3751 -0.7958  0.2917
  475DG      H810910   3.055   0.921  -0.509  1.1157 -0.5609 -0.1786
  475DG      O910911   3.142   0.607   0.151  0.1032  0.4429 -0.0383
  475DG     O1010912   3.044   0.795  -0.340 -0.2242 -0.2072  0.0332
  475DG     C1110913   3.107   0.562   0.025 -0.2311  0.4304  0.0134
  475DG     C1210914   2.963   0.870  -0.251 -0.0849 -0.1879 -1.2093
  475DG     H1310915   3.004   0.526   0.020  0.4560 -2.1435  2.1531
  475DG     H1410916   3.171   0.479  -0.006  0.2765 -0.8330  3.9762
  475DG     H1510917   2.871   0.898  -0.302 -0.7683 -0.4478 -0.1562
  475DG     H1610918   3.004   0.968  -0.226 -0.5953 -0.2574  0.0131
  475DG     C1710919   3.130   0.672  -0.078  0.3822  0.4235 -0.2050
  475DG     C1810920   2.936   0.801  -0.123 -0.7032  0.6729 -0.0580
  475DG     O1910921   3.054   0.783  -0.043  0.0682 -0.2250  0.0495
  475DG     H2010922   3.111   0.633  -0.178 -1.0778  1.3667 -0.3301
  475DG     H2110923   3.237   0.692  -0.084  1.1885 -2.4905  1.9843
  475DG     H2210924   2.859   0.852  -0.065 -1.9032 -1.3869  0.2697
  475DG     H2310925   2.905   0.698  -0.145 -0.4009  0.5751 -0.0270
  476DG      C110926   3.964   3.050   0.204  0.4753 -0.7621 -0.0416
  476DG      C210927   3.644   2.449   0.109 -0.4540 -0.5567  0.5195
  476DG      H310928   4.045   2.978   0.209  1.2368  0.1084  0.4265
  476DG      H410929   3.977   3.119   0.287  0.9803  1.0195 -1.5215
  476DG      H510930   3.970   3.106   0.110  0.1234  0.1777  0.4819
  476DG      H610931   3.715   2.385   0.161  0.2917  0.7681  1.1779
  476DG      H710932   3.551   2.392   0.110 -2.5320  2.5475 -0.7060
  476DG      H810933   3.673   2.452   0.004  0.3788 -1.0147  0.7338
  476DG      O910934   3.836   2.988   0.196  0.2351 -0.0346 -0.0354
  476DG     O1010935   3.638   2.577   0.170 -0.1537 -0.3303 -0.0078
  476DG     C1110936   3.728   3.077   0.188  0.0455  0.2610  0.0121
  476DG     C1210937   3.527   2.648   0.113  0.6600 -0.9382 -0.4262
  476DG     H1310938   3.722   3.121   0.088 -1.5148  1.7107  0.6910
  476DG     H1410939   3.741   3.160   0.258  1.7712 -0.3778  0.4957
  476DG     H1510940   3.432   2.593   0.115  1.2736 -2.0087  0.6512
  476DG     H1610941   3.550   2.681   0.012  0.2634 -0.2610 -0.3031
  476DG     C1710942   3.597   3.005   0.215 -1.3415  0.4084  0.2973
  476DG     C1810943   3.495   2.777   0.198 -0.4697  0.4367 -0.1158
  476DG     O1910944   3.610   2.859   0.188 -0.4422 -0.1625 -0.2381
  476DG     H2010945   3.520   3.050   0.152 -1.9694 -1.6382 -0.4659
  476DG     H2110946   3.577   3.015   0.322 -1.1872 -3.6856  0.8629
  476DG     H2210947   3.401   2.826   0.173 -0.7831  0.8042  1.6369
  476DG     H2310948   3.465   2.748   0.298 -3.2138  1.1540 -0.6666
  477DG      C110949   2.698   1.435   3.772 -0.2841  0.0393 -0.3129
  477DG      C210950   2.164   1.657   3.487 -0.2499  0.3181 -1.0977
  477DG      H310951   2.798   1.407   3.738  0.5322  3.2256 -0.8751
  477DG      H410952   2.635   1.347   3.762  1.1638 -1.4637  2.6119
  477DG      H510953   2.707   1.467   3.876 -1.2947  0.9586 -0.4910
  477DG      H610954   2.102   1.735   3.443 -0.4990  0.4069 -0.6035
  477DG      H710955   2.116   1.564   3.457  0.6574 -0.2660 -0.7772
  477DG      H810956   2.164   1.663   3.596 -0.9152 -0.7392 -1.0228
  477DG      O910957   2.643   1.540   3.691 -0.3519  0.1646 -0.2372
  477DG     O1010958   2.299   1.668   3.436  0.2528  0.2627  0.5167
  477DG     C1110959   2.718   1.661   3.703  0.1172  0.1620 -0.1498
  477DG     C1210960   2.354   1.794   3.475 -0.8290 -0.5748  0.1561
  477DG     H1310961   2.817   1.638   3.662  0.1408  0.2433 -0.1376
  477DG     H1410962   2.727   1.700   3.804 -0.8377  1.8484 -0.6703
  477DG     H1510963   2.342   1.789   3.584  0.2219 -1.2371  0.2633
  477DG     H1610964   2.301   1.880   3.437  0.1896 -0.6876 -1.6160
  477DG     C1710965   2.652   1.768   3.619  0.2785  0.1016 -0.0020
  477DG     C1810966   2.503   1.805   3.434  0.6538 -0.3253 -0.0583
  477DG     O1910967   2.602   1.722   3.498  0.0736 -0.5537  0.0262
  477DG     H2010968   2.718   1.854   3.607 -1.7037  1.6382 -0.4942
  477DG     H2110969   2.566   1.814   3.670  0.4380  0.2495  0.1348
  477DG     H2210970   2.517   1.792   3.326  2.3925  0.7965 -0.0210
  477DG     H2310971   2.543   1.905   3.451  0.2316 -0.2423  0.4506
  478DG      C110972   3.925   3.408   0.141  0.8545  0.6102  0.4559
  478DG      C210973   3.359   3.801   0.008  0.4340  0.4085 -0.2344
  478DG      H310974   4.030   3.414   0.172  0.4154 -2.4080  3.1575
  478DG      H410975   3.937   3.388   0.035 -0.8412  0.7186  0.2279
  478DG      H510976   3.883   3.330   0.204  1.4389  1.2355  1.6705
  478DG      H610977   3.297   3.712   0.014 -1.2646  1.5185 -0.8208
  478DG      H710978   3.308   3.897   0.002 -2.1105 -0.8740 -0.4272
  478DG      H810979   3.408   3.781  -0.087  1.1272 -2.5407  0.6231
  478DG      O910980   3.857   3.531   0.163  0.3400 -0.0589 -0.0172
  478DG     O1010981   3.477   3.792   0.081  0.2136 -0.0104  0.0157
  478DG     C1110982   3.855   3.560   0.300  0.1381  0.9459  0.8332
  478DG     C1210983   3.470   3.837   0.216 -0.3336  0.3499  0.4470
  478DG     H1310984   3.959   3.562   0.333 -0.1024 -1.7307  2.0321
  478DG     H1410985   3.797   3.485   0.354 -0.3736  0.8931  0.2252
  478DG     H1510986   3.410   3.768   0.276  0.8493  1.2572  2.8292
  478DG     H1610987   3.436   3.940   0.225  0.9709  0.7456  1.0812
  478DG     C1710988   3.792   3.698   0.323  0.1460 -0.6266  0.0446
  478DG     C1810989   3.612   3.839   0.271  0.3968 -0.2734  0.3027
  478DG     O1910990   3.673   3.716   0.248  0.2202 -0.0522 -0.0080
  478DG     H2010991   3.861   3.778   0.296 -1.5107  1.9922  2.8653
  478DG     H2110992   3.770   3.714   0.428 -3.4578 -0.0116 -0.6635
  478DG     H2210993   3.669   3.926   0.239 -0.7892 -0.5290 -2.8628
  478DG     H2310994   3.612   3.861   0.377 -0.2935  1.2124  0.0371
  479DG      C110995   0.351   1.076   1.491  0.6218  0.0162  0.3300
  479DG      C210996  -0.027   0.489   1.870 -0.2695 -0.0125 -0.2572
  479DG      H310997   0.312   1.158   1.431 -0.8549  0.3525  1.6565
  479DG      H410998   0.429   1.027   1.434 -0.0958 -1.2527  0.4119
  479DG      H510999   0.395   1.121   1.581 -2.1133  0.5065  1.5451
  479DG      H611000  -0.130   0.462   1.891 -0.4939  2.2996  2.1892
  479DG      H711001   0.028   0.407   1.823  0.6659  1.0510 -1.0986
  479DG      H811002   0.017   0.508   1.968 -0.5801 -0.9110  0.0666
  479DG      O911003   0.241   0.982   1.512 -0.7399  0.0042 -0.6176
  479DG     O1011004  -0.027   0.612   1.797 -0.0280  0.2456 -0.2621
  479DG     C1111005   0.278   0.857   1.575  0.2376  0.3840 -0.1728
  479DG     C1211006  -0.101   0.595   1.673 -0.2159  0.0065  0.5189
  479DG     H1311007   0.309   0.880   1.677  1.2640 -0.4808 -0.2767
  479DG     H1411008   0.366   0.811   1.531  0.2051  0.0865  0.0699
  479DG     H1511009  -0.208   0.575   1.681 -0.3868  0.1066 -1.0732
  479DG     H1611010  -0.053   0.509   1.625 -2.3336 -0.1149 -1.5634
  479DG     C1711011   0.163   0.755   1.582  0.5074 -0.0620  0.4272
  479DG     C1811012  -0.077   0.723   1.584  1.2951  0.5856  0.3333
  479DG     O1911013   0.034   0.808   1.612 -0.0635  0.1603  0.1945
  479DG     H2011014   0.184   0.669   1.645  0.5353 -0.1398  0.3114
  479DG     H2111015   0.165   0.718   1.480  1.7229  3.1991 -0.8803
  479DG     H2211016  -0.073   0.695   1.478  1.0489  1.0121  0.2084
  479DG     H2311017  -0.169   0.782   1.589  1.5442  0.8747  2.2331
  480DG      C111018   2.073   3.883   5.057 -0.1345 -0.5285 -0.3184
  480DG      C211019   2.475   3.936   5.680  0.6562 -0.7533  0.2370
  480DG      H311020   2.007   3.826   4.992 -3.2798  1.3171  1.0008
  480DG      H411021   2.178   3.887   5.028 -1.1201  0.9964 -4.3368
  480DG      H511022   2.054   3.987   5.032  1.0247  0.0431  1.0149
  480DG      H611023   2.452   3.982   5.776 -1.4502  1.5739 -1.2794
  480DG      H711024   2.580   3.908   5.687  0.9388 -0.4850 -2.2355
  480DG      H811025   2.452   4.025   5.622 -1.0572 -0.3287  1.4991
  480DG      O911026   2.047   3.878   5.198  0.1412  0.0214  0.4050
  480DG     O1011027   2.393   3.828   5.645 -0.3315  0.1278 -0.1333
  480DG     C1111028   2.072   3.753   5.249  0.5053  0.8277  0.4112
  480DG     C1211029   2.429   3.776   5.520 -0.3671 -0.1433  0.5361
  480DG     H1311030   2.156   3.697   5.208 -0.8470 -0.2639 -0.9567
  480DG     H1411031   1.987   3.698   5.208  1.9514 -1.1730 -0.0425
  480DG     H1511032   2.511   3.705   5.531 -1.3992 -2.0579 -2.6066
  480DG     H1611033   2.456   3.864   5.462  1.1748 -1.2868 -0.5696
  480DG     C1711034   2.067   3.752   5.400 -0.3623  0.2231 -0.3619
  480DG     C1811035   2.305   3.713   5.457  0.7147  0.9909  0.6602
  480DG     O1911036   2.190   3.804   5.441 -0.3366  0.0204 -0.0946
  480DG     H2011037   2.069   3.648   5.433 -0.3665  0.6013  0.8934
  480DG     H2111038   1.981   3.800   5.446 -1.1025 -0.0459 -1.4266
  480DG     H2211039   2.331   3.679   5.357  0.1124  1.3587  0.3777
  480DG     H2311040   2.273   3.623   5.510 -1.2520  0.5764 -1.1388
  481DG      C111041   5.431   2.300   2.361  0.6223  0.1453  0.5541
  481DG      C211042   4.654   2.341   2.323 -0.5753  0.2386 -0.0620
  481DG      H311043   5.463   2.209   2.412  2.1197 -0.6874 -1.7135
  481DG      H411044   5.502   2.375   2.397  0.2975  1.1171 -0.7649
  481DG      H511045   5.441   2.283   2.254  1.3533  0.1318  0.6168
  481DG      H611046   4.657   2.386   2.224  0.3957  2.3051  0.8518
  481DG      H711047   4.663   2.236   2.295 -1.8917 -0.1767  0.9727
  481DG      H811048   4.555   2.359   2.366 -0.5748 -1.9595  1.0072
  481DG      O911049   5.300   2.346   2.383 -0.0423  0.0223 -0.4229
  481DG     O1011050   4.772   2.352   2.403 -0.7465 -0.5100 -0.1514
  481DG     C1111051   5.267   2.349   2.523  0.5358 -0.6910  0.5021
  481DG     C1211052   4.813   2.486   2.387  0.1014 -0.4031 -0.2572
  481DG     H1311053   5.354   2.386   2.578  1.5199 -1.2840 -0.6217
  481DG     H1411054   5.229   2.255   2.563 -1.4023 -0.4582 -0.6417
  481DG     H1511055   4.731   2.554   2.411 -0.3331 -1.3462  1.0538
  481DG     H1611056   4.842   2.507   2.284 -2.3365 -1.3431 -1.2153
  481DG     C1711057   5.158   2.455   2.545  0.2485  0.4811  0.0760
  481DG     C1811058   4.926   2.516   2.480  0.0673 -0.1336  0.2805
  481DG     O1911059   5.035   2.425   2.470  0.1306  0.8010  0.4544
  481DG     H2011060   5.189   2.553   2.511  0.9700 -0.5478 -2.4422
  481DG     H2111061   5.129   2.466   2.650  1.2685  2.4466  0.1982
  481DG     H2211062   4.955   2.615   2.445  0.6516 -0.0238  1.0282
  481DG     H2311063   4.881   2.530   2.578 -4.3148  2.9265 -1.8432
  482DG      C111064   0.265   1.806   4.624 -0.0680  0.3917  0.4634
  482DG      C211065   0.651   1.303   4.854 -0.4583  0.0043 -0.0654
  482DG      H311066   0.183   1.739   4.598 -0.5169  1.1843 -0.1866
  482DG      H411067   0.250   1.890   4.556  1.0494  0.7848  0.6761
  482DG      H511068   0.261   1.838   4.728 -0.6800 -0.1342  0.6118
  482DG      H611069   0.566   1.244   4.820 -1.2603  0.7001  0.6947
  482DG      H711070   0.743   1.244   4.860 -0.2202  0.5154  3.4808
  482DG      H811071   0.642   1.322   4.961 -2.9369 -0.9915 -0.0469
  482DG      O911072   0.385   1.734   4.598 -0.0024  0.2949 -0.2656
  482DG     O1011073   0.671   1.415   4.768  0.0089 -0.0498 -0.4682
  482DG     C1111074   0.422   1.720   4.461 -0.2929 -0.1347 -0.6954
  482DG     C1211075   0.719   1.377   4.637  0.6326  0.1837 -0.3796
  482DG     H1311076   0.435   1.813   4.406  1.5159  1.3022  1.9307
  482DG     H1411077   0.337   1.662   4.425 -0.8583 -0.0407  0.4258
  482DG     H1511078   0.654   1.297   4.600 -0.2328  0.3633  0.7004
  482DG     H1611079   0.822   1.342   4.638  0.4463 -0.3957 -0.6324
  482DG     C1711080   0.559   1.654   4.447  0.2417  0.1142 -0.4306
  482DG     C1811081   0.709   1.497   4.551 -0.2031 -0.5050  0.1407
  482DG     O1911082   0.582   1.549   4.548 -0.2617 -0.4784 -0.4204
  482DG     H2011083   0.629   1.737   4.462  0.2883 -0.0813  0.4381
  482DG     H2111084   0.569   1.626   4.342 -0.1662  0.4739 -0.5713
  482DG     H2211085   0.776   1.568   4.599  0.0032 -1.3241  1.0952
  482DG     H2311086   0.737   1.482   4.446  1.1259  0.0337  0.3951
  483DG      C111087   1.741   3.945   4.835 -0.1174 -0.6887  0.0392
  483DG      C211088   1.875   4.625   4.801 -0.2124 -0.3242 -0.3048
  483DG      H311089   1.837   3.901   4.861  0.2947  0.5502  0.7029
  483DG      H411090   1.756   4.009   4.748  0.7415 -1.0219 -0.0651
  483DG      H511091   1.678   3.863   4.801  0.0208 -0.2571 -1.2936
  483DG      H611092   1.865   4.613   4.908 -0.7953 -2.9112 -0.6005
  483DG      H711093   1.981   4.603   4.787 -0.5865 -1.9602 -0.7180
  483DG      H811094   1.851   4.725   4.762  0.9155  0.7180  1.5403
  483DG      O911095   1.673   4.009   4.945 -0.0642 -0.1732 -0.2419
  483DG     O1011096   1.810   4.518   4.740 -0.1280  0.1961 -0.0046
  483DG     C1111097   1.540   4.042   4.924  0.1793  0.2230 -0.3971
  483DG     C1211098   1.686   4.488   4.801  0.2687 -0.6417  0.7037
  483DG     H1311099   1.475   4.060   5.010 -0.8753 -1.5183 -0.7845
  483DG     H1411100   1.492   3.959   4.873 -2.2931  0.5491  1.1822
  483DG     H1511101   1.627   4.577   4.781  3.9660  2.4343  2.1864
  483DG     H1611102   1.694   4.488   4.910  1.4610  1.4403  0.6797
  483DG     C1711103   1.533   4.167   4.826  0.3189  0.0945  0.4629
  483DG     C1811104   1.616   4.375   4.741 -0.0394  0.1209  0.7360
  483DG     O1911105   1.645   4.260   4.820 -0.6139 -0.2024  0.4051
  483DG     H2011106   1.440   4.221   4.846 -1.8152 -2.6411 -1.2630
  483DG     H2111107   1.531   4.129   4.723  1.4588  0.7493  0.1833
  483DG     H2211108   1.509   4.392   4.751 -0.2850 -1.6889  1.5662
  483DG     H2311109   1.630   4.375   4.633  0.6379  1.7276  0.7869
  484DG      C111110   4.287   0.291   4.872 -0.1106 -0.0875 -0.1346
  484DG      C211111   4.864   0.172   4.673 -0.2147  0.4480  0.3666
  484DG      H311112   4.297   0.217   4.950  2.6064  0.7320  0.3978
  484DG      H411113   4.185   0.329   4.869 -0.3253 -0.6416  0.0467
  484DG      H511114   4.364   0.366   4.891 -1.0211  1.0816 -0.9255
  484DG      H611115   4.913   0.256   4.625  1.7702 -0.8503 -0.0147
  484DG      H711116   4.872   0.179   4.781 -0.7870 -1.4541  0.5736
  484DG      H811117   4.935   0.093   4.648 -1.8857 -1.5087  1.4548
  484DG      O911118   4.327   0.203   4.765  0.2972 -0.4167 -0.1254
  484DG     O1011119   4.726   0.156   4.635 -0.4974 -0.5104  0.5567
  484DG     C1111120   4.273   0.257   4.646 -0.1404  0.2915 -0.5982
  484DG     C1211121   4.711   0.147   4.491  0.6357  0.1771 -0.0306
  484DG     H1311122   4.278   0.364   4.628 -1.2136  0.4384 -0.1500
  484DG     H1411123   4.168   0.227   4.654  0.6678 -3.0951 -1.0544
  484DG     H1511124   4.763   0.063   4.445  0.9874  0.6538 -0.5141
  484DG     H1611125   4.756   0.234   4.444  0.7132 -0.0055 -0.2974
  484DG     C1711126   4.347   0.190   4.534  0.5727 -0.2340  0.5180
  484DG     C1811127   4.559   0.132   4.457 -0.0453  0.0332 -0.3733
  484DG     O1911128   4.486   0.218   4.539  0.1249 -0.4839  0.1166
  484DG     H2011129   4.296   0.237   4.450 -0.5625  0.1923  1.4256
  484DG     H2111130   4.332   0.082   4.546  0.0446 -0.0651  1.4395
  484DG     H2211131   4.541   0.142   4.350 -0.4923 -0.5074 -0.3504
  484DG     H2311132   4.535   0.031   4.488  1.6614 -0.0179  0.9507
  485DG      C111133   4.930   0.507   3.488 -0.9659  0.1144  0.2598
  485DG      C211134   5.802   0.621   3.393 -0.5561  0.3736  0.4132
  485DG      H311135   4.848   0.436   3.476 -2.0462  1.5073 -1.0999
  485DG      H411136   4.909   0.598   3.430 -0.8296  0.5612  0.8990
  485DG      H511137   4.948   0.536   3.591 -0.5535 -0.2980  0.3066
  485DG      H611138   5.807   0.573   3.490  1.2942 -3.2527 -1.2992
  485DG      H711139   5.849   0.551   3.325 -1.1734 -0.5753  0.9382
  485DG      H811140   5.842   0.722   3.380  2.0905 -0.2715  2.6722
  485DG      O911141   5.047   0.447   3.435 -0.6830 -0.0031  0.0244
  485DG     O1011142   5.663   0.605   3.368  0.1588 -0.4347  0.1753
  485DG     C1111143   5.169   0.487   3.487  0.2480  0.7335 -0.0348
  485DG     C1211144   5.586   0.672   3.468 -0.1638  0.2032  0.0458
  485DG     H1311145   5.185   0.437   3.582 -0.3463 -2.8557 -1.6788
  485DG     H1411146   5.167   0.589   3.528 -1.7080  0.1269  1.5762
  485DG     H1511147   5.603   0.779   3.462  1.6787 -0.0630 -0.1198
  485DG     H1611148   5.604   0.647   3.573  3.4263 -0.5121 -0.6132
  485DG     C1711149   5.275   0.477   3.383 -0.8170 -0.1302  0.2186
  485DG     C1811150   5.436   0.651   3.430 -0.1571  0.2951 -0.6219
  485DG     O1911151   5.416   0.508   3.413  0.8179 -0.5526  0.6955
  485DG     H2011152   5.258   0.535   3.292  0.3673  1.1811  0.8028
  485DG     H2111153   5.284   0.371   3.359 -1.8497 -0.5837  1.6988
  485DG     H2211154   5.382   0.695   3.514  4.9331  1.2235  2.6178
  485DG     H2311155   5.421   0.701   3.335  0.4970  0.6282 -0.5568
  486DG      C111156   0.761   3.001   1.425 -0.2277  0.3170 -0.0841
  486DG      C211157   0.908   2.585   1.815  0.2657  0.3933  0.2807
  486DG      H311158   0.688   3.082   1.421 -0.7981 -0.1458  0.5646
  486DG      H411159   0.793   2.984   1.323 -2.0369 -2.8242 -0.2570
  486DG      H511160   0.842   3.054   1.475 -0.6826  1.2834 -0.3517
  486DG      H611161   0.937   2.504   1.883 -2.3541 -0.5911  0.3336
  486DG      H711162   0.940   2.572   1.712  0.9902  2.7705  0.1600
  486DG      H811163   0.953   2.679   1.848 -0.6320  1.0803 -0.4183
  486DG      O911164   0.718   2.888   1.499  0.3543 -0.3291 -0.2966
  486DG     O1011165   0.774   2.620   1.832 -0.6079 -0.2499 -0.5455
  486DG     C1111166   0.601   2.828   1.446  0.3251  0.4888 -0.2130
  486DG     C1211167   0.683   2.519   1.790 -0.4787 -0.4800  0.0159
  486DG     H1311168   0.587   2.845   1.339 -1.6888  0.5930  0.0298
  486DG     H1411169   0.510   2.869   1.490 -0.1822 -0.0051 -0.7739
  486DG     H1511170   0.582   2.530   1.831 -1.0639 -2.1482 -0.8675
  486DG     H1611171   0.720   2.424   1.829 -0.8251 -0.4951  0.3236
  486DG     C1711172   0.610   2.676   1.473 -0.2584  0.3817 -0.6037
  486DG     C1811173   0.671   2.525   1.643 -0.2062  0.1486 -0.5945
  486DG     O1911174   0.628   2.652   1.611 -0.3087 -0.6067  0.2067
  486DG     H2011175   0.691   2.630   1.415  2.1121  0.7368  2.1950
  486DG     H2111176   0.519   2.621   1.450 -0.2715 -0.7452  1.8247
  486DG     H2211177   0.762   2.498   1.590  0.8870  1.0976  0.7378
  486DG     H2311178   0.594   2.457   1.603  0.2548  0.5968 -2.3260
  487DG      C111179   1.587   4.686   2.887 -0.0518  0.7275  0.3482
  487DG      C211180   1.537   3.928   3.270  0.2252 -0.0458  0.1355
  487DG      H311181   1.596   4.636   2.791 -2.4946  0.4401  0.2055
  487DG      H411182   1.677   4.738   2.921  0.0871  1.0374 -0.4917
  487DG      H511183   1.511   4.764   2.888 -0.4568  0.3369  0.1511
  487DG      H611184   1.454   3.858   3.259  0.6467 -0.3085 -1.7536
  487DG      H711185   1.614   3.903   3.196 -0.4876 -1.9517 -0.0240
  487DG      H811186   1.573   3.892   3.366  1.0875  0.2403 -0.0702
  487DG      O911187   1.553   4.593   2.980 -0.3592 -0.0996 -0.5666
  487DG     O1011188   1.503   4.062   3.288  0.4511 -0.0450 -0.0135
  487DG     C1111189   1.411   4.573   2.990 -0.2681 -0.5924  0.1008
  487DG     C1211190   1.465   4.130   3.167 -0.5330 -0.9813 -0.0878
  487DG     H1311191   1.382   4.517   2.901  0.2971  1.0956 -1.2111
  487DG     H1411192   1.344   4.659   2.996  1.1251  0.6648 -1.4803
  487DG     H1511193   1.379   4.085   3.117 -2.0784  0.4415  1.1438
  487DG     H1611194   1.549   4.133   3.098 -0.3356 -0.9552  0.1530
  487DG     C1711195   1.382   4.491   3.111  0.7985 -0.7930  0.3610
  487DG     C1811196   1.420   4.272   3.207 -0.4376 -0.8092  0.1777
  487DG     O1911197   1.420   4.358   3.090 -0.5123 -0.0605  0.1548
  487DG     H2011198   1.273   4.493   3.112  0.7760  1.2781 -0.5005
  487DG     H2111199   1.419   4.540   3.201  0.8615 -0.3251  0.0834
  487DG     H2211200   1.328   4.280   3.265  0.6309 -0.6360  1.8841
  487DG     H2311201   1.501   4.315   3.266  0.2327 -2.4887  0.5361
  488DG      C111202   2.168   2.678   1.701  0.7663  0.0463 -0.7464
  488DG      C211203   2.027   2.962   0.943  0.0106 -0.7186  0.0077
  488DG      H311204   2.173   2.765   1.767 -0.1577 -0.9460  0.6825
  488DG      H411205   2.246   2.606   1.727  1.1345  0.0605 -1.7693
  488DG      H511206   2.073   2.628   1.717  1.4897 -0.7647  1.3589
  488DG      H611207   2.025   3.014   0.847 -4.5939  0.1616  0.3681
  488DG      H711208   2.055   2.859   0.923  2.2862  0.0077 -0.8927
  488DG      H811209   1.926   2.977   0.982 -1.5925  0.3951 -4.0549
  488DG      O911210   2.191   2.721   1.566 -0.7183 -0.4637 -0.0285
  488DG     O1011211   2.126   3.016   1.032 -0.0588  0.2978 -0.2718
  488DG     C1111212   2.317   2.787   1.550  0.6191 -0.5293 -0.6325
  488DG     C1211213   2.116   2.982   1.171  0.0253 -0.5207  0.3233
  488DG     H1311214   2.391   2.724   1.601  0.2017 -2.3104 -2.1019
  488DG     H1411215   2.326   2.880   1.605 -0.4908 -0.4916 -0.5056
  488DG     H1511216   2.040   2.905   1.186  1.7690 -2.4912 -0.6270
  488DG     H1611217   2.092   3.076   1.222  1.1679  0.9992 -1.8147
  488DG     C1711218   2.346   2.808   1.404  0.1916  0.0653  0.0705
  488DG     C1811219   2.258   2.931   1.213  0.9016 -0.0701 -0.0564
  488DG     O1911220   2.241   2.890   1.348  0.2795 -0.8268  0.2875
  488DG     H2011221   2.350   2.730   1.328 -0.8806  1.1887 -1.2022
  488DG     H2111222   2.444   2.853   1.393 -0.6725  1.8297 -0.8705
  488DG     H2211223   2.282   2.851   1.143  0.3578 -0.2868 -0.0014
  488DG     H2311224   2.329   3.014   1.216  0.2791  0.4577  2.8436
  489DG      C111225   5.322   4.553   2.775  0.3599 -0.0977 -0.5429
  489DG      C211226   5.072   4.670   2.111  0.0041  0.2950  0.1985
  489DG      H311227   5.226   4.569   2.824  0.5116  0.0813 -0.3010
  489DG      H411228   5.358   4.654   2.758  0.4832  0.0007  0.2547
  489DG      H511229   5.371   4.478   2.837 -0.0632  0.2686  0.2414
  489DG      H611230   5.052   4.653   2.006 -1.6819  2.2220  0.1496
  489DG      H711231   4.981   4.711   2.154  0.7947  1.2590  1.0362
  489DG      H811232   5.151   4.744   2.129  0.8250 -0.8846  1.7701
  489DG      O911233   5.297   4.474   2.655  0.0015  0.0733 -0.1855
  489DG     O1011234   5.100   4.543   2.178 -0.3584  0.7230 -0.3364
  489DG     C1111235   5.414   4.431   2.584  0.3601 -0.1515 -0.2334
  489DG     C1211236   5.228   4.485   2.147  0.4107 -0.1923 -0.1290
  489DG     H1311237   5.471   4.363   2.647  1.3542  1.6743  0.9391
  489DG     H1411238   5.482   4.515   2.571  0.0027  0.2623  0.4811
  489DG     H1511239   5.304   4.563   2.146  0.1812  0.0379 -1.1644
  489DG     H1611240   5.234   4.442   2.047 -3.2733  0.1219 -0.6128
  489DG     C1711241   5.373   4.354   2.456  0.2384  0.2906  0.4974
  489DG     C1811242   5.262   4.380   2.255  0.4465  0.6860  0.4659
  489DG     O1911243   5.306   4.440   2.366  0.2712 -0.4890  0.4123
  489DG     H2011244   5.303   4.274   2.480  0.1105  0.4348  0.6087
  489DG     H2111245   5.461   4.309   2.410 -0.1114  0.7716 -0.6773
  489DG     H2211246   5.172   4.321   2.275  0.2748  1.0726  0.8384
  489DG     H2311247   5.333   4.307   2.216 -1.8181 -1.3777 -0.1293
  490DG      C111248   1.068   0.984   2.671 -1.0002 -0.2129  0.4597
  490DG      C211249   1.238   0.177   2.779  0.4981 -0.5046  0.6765
  490DG      H311250   1.129   1.008   2.583 -0.9746  0.9077  0.7811
  490DG      H411251   1.076   1.060   2.748 -1.0695  1.4314 -1.0817
  490DG      H511252   0.966   0.981   2.632 -1.4269 -0.2840  1.5590
  490DG      H611253   1.311   0.139   2.850  2.0062  1.5957  0.3368
  490DG      H711254   1.147   0.117   2.785 -1.7212  2.5814  0.3619
  490DG      H811255   1.287   0.163   2.682  1.8318 -0.5021  1.3407
  490DG      O911256   1.103   0.858   2.727 -0.1566  0.3642 -0.7914
  490DG     O1011257   1.200   0.312   2.812 -0.0034  0.3319  0.1244
  490DG     C1111258   1.028   0.820   2.838  0.1458 -0.2183 -0.3687
  490DG     C1211259   1.111   0.379   2.724  0.3599 -0.3924  0.5764
  490DG     H1311260   0.926   0.790   2.812  0.2257 -1.2596  0.4864
  490DG     H1411261   1.026   0.906   2.905  1.0131 -0.4254 -0.0649
  490DG     H1511262   1.028   0.313   2.698 -0.7173  1.4159 -0.7654
  490DG     H1611263   1.170   0.387   2.633 -1.2089 -1.5120 -0.5874
  490DG     C1711264   1.110   0.707   2.903  0.1532  0.3966  0.1228
  490DG     C1811265   1.047   0.505   2.777 -0.3697 -0.7734 -0.2326
  490DG     O1911266   1.149   0.604   2.808 -0.4513  0.4825  0.5461
  490DG     H2011267   1.060   0.659   2.987  0.0064  1.1975  0.5079
  490DG     H2111268   1.201   0.746   2.949  1.2650 -0.9064 -0.8473
  490DG     H2211269   0.973   0.533   2.702  0.1895 -0.0051 -0.5134
  490DG     H2311270   0.989   0.467   2.861 -1.5497  0.3219 -0.5386
  491DG      C111271   4.957   4.483   1.349  0.4824 -0.0622  0.5662
  491DG      C211272   5.625   4.304   1.312 -0.0358  0.1079  0.8659
  491DG      H311273   4.969   4.589   1.326 -2.8219  0.4967  0.8302
  491DG      H411274   4.860   4.490   1.398  1.5731  1.1510  2.6929
  491DG      H511275   4.950   4.425   1.257  0.8072  0.2357  0.3532
  491DG      H611276   5.600   4.243   1.225  0.9218  0.3496  0.3987
  491DG      H711277   5.639   4.406   1.275  0.8331 -0.6665 -1.0896
  491DG      H811278   5.724   4.280   1.351 -0.5282  1.0646  2.8415
  491DG      O911279   5.060   4.432   1.428  0.0567  0.2355  0.4034
  491DG     O1011280   5.526   4.311   1.417  0.2430 -0.5340 -0.3233
  491DG     C1111281   5.073   4.499   1.556  0.2423  0.6187 -0.0626
  491DG     C1211282   5.545   4.396   1.534  0.5234  0.4736  0.4672
  491DG     H1311283   4.984   4.470   1.611  0.4882 -0.0613 -0.0187
  491DG     H1411284   5.062   4.607   1.542  0.4543  0.5997 -0.3798
  491DG     H1511285   5.575   4.496   1.504  2.1848 -0.2020 -0.2705
  491DG     H1611286   5.630   4.349   1.583  0.5460  0.2501  0.2167
  491DG     C1711287   5.191   4.445   1.638 -0.0955 -0.1910  0.3594
  491DG     C1811288   5.422   4.393   1.631  0.0484  0.5034 -1.1257
  491DG     O1911289   5.313   4.446   1.556 -0.7024  0.3511  0.3750
  491DG     H2011290   5.172   4.347   1.681  2.4006 -0.3389  1.2890
  491DG     H2111291   5.195   4.499   1.732 -2.0076  3.0029 -1.2238
  491DG     H2211292   5.404   4.292   1.668 -1.6013  1.0325 -0.4014
  491DG     H2311293   5.440   4.453   1.720 -3.7056  0.8647 -0.4413
  492DG      C111294   1.778   4.400   2.212 -0.2872 -0.3060  0.2886
  492DG      C211295   1.252   4.376   1.795  0.6863 -0.1280  0.5246
  492DG      H311296   1.807   4.409   2.316 -0.2168  0.3009  0.2217
  492DG      H411297   1.796   4.500   2.173  2.6325 -1.3898 -1.4148
  492DG      H511298   1.853   4.333   2.171  0.0750 -1.4444  2.6599
  492DG      H611299   1.324   4.341   1.722  1.0283  3.0682 -0.8397
  492DG      H711300   1.157   4.330   1.769  1.0142 -0.5422  0.0476
  492DG      H811301   1.232   4.482   1.780  0.6522 -0.3716 -1.3254
  492DG      O911302   1.640   4.369   2.203 -0.7254 -0.2153  0.3037
  492DG     O1011303   1.290   4.343   1.924 -0.0777 -0.2086  0.6371
  492DG     C1111304   1.612   4.243   2.268 -0.1937 -0.1821  0.5331
  492DG     C1211305   1.267   4.203   1.958 -0.2021  0.1198  0.1920
  492DG     H1311306   1.656   4.244   2.367 -0.4418 -1.4394  0.6673
  492DG     H1411307   1.669   4.167   2.215 -0.3326 -0.0477  0.1851
  492DG     H1511308   1.332   4.144   1.894 -1.8582 -0.7804 -0.7428
  492DG     H1611309   1.165   4.171   1.937  0.4284 -0.8615 -1.5634
  492DG     C1711310   1.465   4.209   2.257 -0.0794 -0.3882 -0.2643
  492DG     C1811311   1.291   4.185   2.102 -0.1360  0.3971 -0.1086
  492DG     O1911312   1.427   4.227   2.126  0.0444  1.0192  0.4554
  492DG     H2011313   1.410   4.268   2.330  3.1740  1.9416  0.5284
  492DG     H2111314   1.453   4.105   2.286 -0.0164 -0.5317 -0.7485
  492DG     H2211315   1.217   4.241   2.159 -0.6667  0.3319 -0.7356
  492DG     H2311316   1.274   4.080   2.126  1.6668 -0.0915 -0.7463
  493DG      C111317   5.325   1.791   3.641 -0.5363 -0.0671 -0.8695
  493DG      C211318   5.387   1.880   2.960  0.1317  0.5828  0.0842
  493DG      H311319   5.423   1.803   3.687 -1.8013 -0.4639  2.1548
  493DG      H411320   5.253   1.766   3.718 -0.8055 -1.8249 -1.6408
  493DG      H511321   5.301   1.881   3.584 -1.2311  1.9015  2.3094
  493DG      H611322   5.343   1.963   2.904  0.0536  0.3525 -0.1925
  493DG      H711323   5.464   1.923   3.025  2.0475 -0.2227 -1.5464
  493DG      H811324   5.415   1.799   2.893 -1.0611  0.9352 -0.8808
  493DG      O911325   5.318   1.688   3.550 -0.1502  0.4315  0.0513
  493DG     O1011326   5.288   1.829   3.052 -0.5962 -0.1791 -0.1213
  493DG     C1111327   5.189   1.638   3.521 -0.0254 -0.6132 -0.1131
  493DG     C1211328   5.344   1.748   3.152  0.1530 -0.2428  0.6062
  493DG     H1311329   5.121   1.715   3.484  2.6423  1.3914 -1.1883
  493DG     H1411330   5.135   1.590   3.603 -1.0899  4.5473  2.6455
  493DG     H1511331   5.402   1.805   3.225  1.7629 -1.1290  0.0635
  493DG     H1611332   5.412   1.684   3.095  0.6338  1.4020 -0.7743
  493DG     C1711333   5.199   1.526   3.414  0.0322  0.8502 -0.0662
  493DG     C1811334   5.234   1.661   3.208  0.0474  0.7256  0.3637
  493DG     O1911335   5.278   1.566   3.306 -0.3730  0.0606 -0.5677
  493DG     H2011336   5.101   1.495   3.377  0.7694  0.3318 -1.6602
  493DG     H2111337   5.246   1.436   3.455  0.2326  0.3656 -1.3131
  493DG     H2211338   5.173   1.741   3.251  1.3707  2.2503 -0.5039
  493DG     H2311339   5.178   1.604   3.135  2.1258 -0.4660 -0.3713
  494DG      C111340   3.811   2.523   3.327  0.1510 -0.3752 -0.6892
  494DG      C211341   3.797   2.031   3.166  0.0698 -0.1176  0.1698
  494DG      H311342   3.797   2.563   3.427 -2.9042 -1.0737 -0.7547
  494DG      H411343   3.919   2.508   3.318  1.4911  4.8757  2.5247
  494DG      H511344   3.761   2.427   3.319  1.2906 -1.0056 -0.5544
  494DG      H611345   3.896   2.004   3.128 -0.3945 -1.1174 -0.3522
  494DG      H711346   3.809   2.016   3.273  0.4507  2.0644  0.4840
  494DG      H811347   3.721   1.963   3.128 -0.1291 -0.0046  0.3664
  494DG      O911348   3.759   2.611   3.231 -0.1124  0.6059  0.2061
  494DG     O1011349   3.769   2.166   3.158 -0.2359  0.6398 -0.2424
  494DG     C1111350   3.615   2.609   3.222 -0.2814 -0.4850  0.1368
  494DG     C1211351   3.742   2.208   3.024 -1.1815  0.2049 -0.9452
  494DG     H1311352   3.582   2.708   3.193  0.4414 -0.3203 -0.1585
  494DG     H1411353   3.566   2.604   3.319  1.5348  1.5817  1.2502
  494DG     H1511354   3.671   2.134   2.987 -1.8328 -0.6813  1.8818
  494DG     H1611355   3.830   2.180   2.965 -0.0952  0.3515  0.5438
  494DG     C1711356   3.548   2.514   3.123 -0.1794 -0.3435  0.5185
  494DG     C1811357   3.702   2.356   3.014 -0.3863  0.4436  0.2471
  494DG     O1911358   3.602   2.388   3.112 -0.9282  0.3167 -0.1510
  494DG     H2011359   3.557   2.560   3.024 -0.3845 -0.4554  0.4482
  494DG     H2111360   3.444   2.507   3.153 -0.6653  0.7771 -0.8023
  494DG     H2211361   3.788   2.417   3.043  0.6812 -0.6913 -0.4755
  494DG     H2311362   3.670   2.379   2.913 -0.0277  1.7755  0.4160
  495DG      C111363   3.620   1.362   0.710  0.4545  0.1178  0.3893
  495DG      C211364   4.229   1.422   0.272  0.6792  0.1102  0.2241
  495DG      H311365   3.583   1.285   0.777  1.2592 -0.7917 -0.1711
  495DG      H411366   3.591   1.340   0.607  0.8324 -2.7144  0.7940
  495DG      H511367   3.565   1.450   0.741  2.0666  1.0722  0.6577
  495DG      H611368   4.224   1.519   0.321  1.2443  0.3683 -0.2096
  495DG      H711369   4.323   1.367   0.282 -0.6672 -2.5349 -0.6633
  495DG      H811370   4.225   1.452   0.167  0.9941  1.5285  0.5969
  495DG      O911371   3.765   1.375   0.721 -0.3783  0.0467  0.2499
  495DG     O1011372   4.120   1.343   0.314  0.2073 -0.1314 -0.4277
  495DG     C1111373   3.821   1.493   0.668 -0.9267  0.0891  0.2397
  495DG     C1211374   4.160   1.262   0.431 -0.0040  0.0193  0.4623
  495DG     H1311375   3.789   1.581   0.723  0.4665 -0.4103  1.9689
  495DG     H1411376   3.787   1.513   0.567 -1.6676  1.5024  0.7415
  495DG     H1511377   4.257   1.215   0.418 -0.6628 -1.3971  0.4516
  495DG     H1611378   4.091   1.178   0.444  0.3646 -0.6039 -1.2844
  495DG     C1711379   3.977   1.473   0.679 -0.7644 -0.0618  0.2157
  495DG     C1811380   4.141   1.353   0.553  0.3661  0.1314  0.8598
  495DG     O1911381   4.008   1.363   0.593 -0.0008  0.2004  0.0641
  495DG     H2011382   4.002   1.464   0.785  1.4099  0.7151 -0.1804
  495DG     H2111383   4.016   1.567   0.642 -2.2940  1.2794  1.8368
  495DG     H2211384   4.199   1.317   0.639  0.0308  1.5922  1.7374
  495DG     H2311385   4.184   1.452   0.537  2.0219 -0.6779  0.0215
  496DG      C111386   2.135   0.079   2.800 -0.5144 -0.7054  0.4198
  496DG      C211387   2.148  -0.536   2.782 -0.2685 -0.1514  0.0161
  496DG      H311388   2.056   0.050   2.868 -0.4923  0.7552  1.0860
  496DG      H411389   2.088   0.138   2.721 -0.8994 -1.5109  0.0265
  496DG      H511390   2.215   0.133   2.851  2.2173 -1.8624 -2.2790
  496DG      H611391   2.191  -0.636   2.789  1.3253  0.4763 -0.4186
  496DG      H711392   2.083  -0.528   2.869  0.6898 -1.3005  0.8682
  496DG      H811393   2.101  -0.540   2.684  1.4340  2.9722 -1.0697
  496DG      O911394   2.193  -0.037   2.740 -0.0577 -0.0966  0.3050
  496DG     O1011395   2.249  -0.433   2.783 -0.1056 -0.0046 -0.5177
  496DG     C1111396   2.306  -0.007   2.656 -0.4390  0.5347  0.2967
  496DG     C1211397   2.330  -0.440   2.672 -0.0377 -0.0310 -0.4599
  496DG     H1311398   2.378   0.056   2.709 -1.3681  1.5441  0.3828
  496DG     H1411399   2.268   0.047   2.570  1.1910 -1.2096 -1.6344
  496DG     H1511400   2.269  -0.423   2.583  3.0661 -0.4003 -2.8135
  496DG     H1611401   2.365  -0.543   2.663 -1.8736 -0.7919  0.4227
  496DG     C1711402   2.355  -0.144   2.615 -0.2289  0.5732 -0.6443
  496DG     C1811403   2.452  -0.346   2.685 -0.0469 -0.1613 -0.1376
  496DG     O1911404   2.422  -0.211   2.724  0.8322 -0.3488  0.1349
  496DG     H2011405   2.425  -0.134   2.533 -0.3891 -0.6224 -0.9507
  496DG     H2111406   2.268  -0.200   2.580 -0.9063  2.3191 -1.8587
  496DG     H2211407   2.525  -0.390   2.753  0.2904 -0.0982 -0.4589
  496DG     H2311408   2.497  -0.337   2.586  2.3259  3.0122  1.0507
  497DG      C111409   4.954   5.463   0.667  0.2692 -0.0344 -0.3593
  497DG      C211410   4.987   4.898   0.450  0.3674 -0.0156 -0.0046
  497DG      H311411   4.852   5.424   0.663  0.3177 -0.0482 -1.5734
  497DG      H411412   4.946   5.572   0.669 -3.2064 -0.1798 -0.8757
  497DG      H511413   4.983   5.426   0.766  0.1785  0.8990  0.0313
  497DG      H611414   4.946   4.867   0.546  2.1857  1.2545  1.2348
  497DG      H711415   4.908   4.885   0.376 -0.0931 -1.0513  0.6448
  497DG      H811416   5.059   4.818   0.433 -1.2926 -1.9732  1.7009
  497DG      O911417   5.041   5.409   0.569 -0.2479 -0.2913  0.6062
  497DG     O1011418   5.060   5.019   0.449 -0.2799  0.0743 -0.2455
  497DG     C1111419   5.176   5.427   0.609 -0.4552  0.0074  0.1721
  497DG     C1211420   5.118   5.056   0.325 -0.3924 -0.0594 -0.1332
  497DG     H1311421   5.190   5.358   0.692  2.9448 -2.7958 -2.3733
  497DG     H1411422   5.210   5.527   0.635  0.1730  0.1139 -1.0067
  497DG     H1511423   5.043   5.056   0.246 -0.2131 -0.4413 -0.3058
  497DG     H1611424   5.198   4.987   0.302  0.5041  1.0824 -0.5514
  497DG     C1711425   5.270   5.378   0.492 -0.3128 -0.6591  0.1907
  497DG     C1811426   5.159   5.205   0.339 -0.2820 -0.3681 -0.8157
  497DG     O1911427   5.232   5.240   0.457  0.6874  0.3266 -0.1439
  497DG     H2011428   5.369   5.374   0.537 -0.6931  2.2358  1.4946
  497DG     H2111429   5.270   5.449   0.409  0.0203 -0.4203  0.3928
  497DG     H2211430   5.223   5.238   0.257  1.8152  0.5588  1.0699
  497DG     H2311431   5.067   5.263   0.335 -0.2347 -0.3351 -1.5492
  498DG      C111432   3.420   1.651   0.347 -0.2068 -0.4853  1.1167
  498DG      C211433   3.811   1.784  -0.163  0.4366 -0.1741  0.2931
  498DG      H311434   3.343   1.579   0.319  0.5338 -1.2843  1.1050
  498DG      H411435   3.379   1.748   0.318  0.5463 -0.3913  0.3547
  498DG      H511436   3.426   1.651   0.456  1.0358 -2.5577  1.0825
  498DG      H611437   3.800   1.767  -0.270 -0.3994  1.7228  0.0218
  498DG      H711438   3.732   1.853  -0.131 -0.3196 -0.4906 -0.8285
  498DG      H811439   3.905   1.840  -0.166 -0.3903  1.2812  0.2463
  498DG      O911440   3.543   1.615   0.279  0.0421 -0.5783  0.8760
  498DG     O1011441   3.803   1.659  -0.101 -0.1876  0.2108  0.3733
  498DG     C1111442   3.598   1.489   0.298  0.2910  0.1006  0.0679
  498DG     C1211443   3.893   1.640   0.008  0.5314 -0.0044  0.0434
  498DG     H1311444   3.535   1.404   0.271  0.2605  0.5539 -1.3279
  498DG     H1411445   3.619   1.483   0.405 -1.8743 -2.3684  0.4587
  498DG     H1511446   3.881   1.716   0.085  1.1863 -0.7144  0.8604
  498DG     H1611447   3.993   1.654  -0.034  0.8442  0.3958  0.9081
  498DG     C1711448   3.742   1.483   0.249 -0.1856 -0.3667 -0.2175
  498DG     C1811449   3.883   1.492   0.064  0.4593  0.9657  0.1003
  498DG     O1911450   3.744   1.474   0.112 -0.3454 -0.4797  0.0738
  498DG     H2011451   3.787   1.386   0.273  2.9835  0.7835 -0.9058
  498DG     H2111452   3.808   1.558   0.293  2.5770 -1.3053 -2.4180
  498DG     H2211453   3.890   1.415  -0.012 -2.1985  0.9813 -0.2479
  498DG     H2311454   3.966   1.472   0.132  1.9013  1.8359 -1.3303
  499DG      C111455   3.254   0.527   0.728  0.1469 -0.4502 -0.3296
  499DG      C211456   3.424   1.065   0.478  0.7529 -0.2783 -0.9175
  499DG      H311457   3.332   0.590   0.772 -0.5220  0.9666 -1.0778
  499DG      H411458   3.297   0.431   0.702  0.1045 -0.1770 -1.4668
  499DG      H511459   3.177   0.521   0.805 -0.5357 -0.5269 -1.0067
  499DG      H611460   3.319   1.055   0.504  0.0476  2.8709 -2.1215
  499DG      H711461   3.474   0.995   0.545  1.7011  1.0715 -0.1559
  499DG      H811462   3.448   1.168   0.501 -1.3059 -0.0345  0.4208
  499DG      O911463   3.203   0.586   0.608  0.5610  0.0481  0.1831
  499DG     O1011464   3.461   1.046   0.345  0.3664  0.3501 -0.6598
  499DG     C1111465   3.144   0.715   0.631  0.5829  0.5982  0.0661
  499DG     C1211466   3.427   0.907   0.300  0.0032 -0.3426 -0.3624
  499DG     H1311467   3.207   0.770   0.700  1.4695 -0.4668  0.1375
  499DG     H1411468   3.048   0.700   0.680  1.5162  0.9086  2.1213
  499DG     H1511469   3.504   0.834   0.322 -0.2156 -0.2388  0.7699
  499DG     H1611470   3.439   0.919   0.192 -0.9247 -0.6234 -0.5075
  499DG     C1711471   3.134   0.786   0.499 -0.1585 -0.7821 -0.1879
  499DG     C1811472   3.279   0.859   0.331  0.3939  0.0917 -0.7717
  499DG     O1911473   3.268   0.796   0.457  0.1602 -0.1104  0.1827
  499DG     H2011474   3.100   0.888   0.518  1.7013 -0.4569  1.7789
  499DG     H2111475   3.074   0.741   0.420 -1.8255  0.1266  0.5050
  499DG     H2211476   3.226   0.953   0.319  2.7641  1.3547 -2.0700
  499DG     H2311477   3.241   0.793   0.253 -0.7139 -0.9419  0.5949
  500DG      C111478   5.187   2.047   2.329 -0.4845 -0.0640  0.0388
  500DG      C211479   5.636   2.388   2.010 -0.0607  0.7339  0.4390
  500DG      H311480   5.156   1.943   2.334 -0.8035  0.0106 -0.4034
  500DG      H411481   5.138   2.098   2.412 -2.7888  0.8180 -1.7806
  500DG      H511482   5.288   2.052   2.370 -0.7615 -1.3985  0.9696
  500DG      H611483   5.699   2.464   1.964  0.2004  0.3709  0.1866
  500DG      H711484   5.581   2.421   2.097 -2.3713 -1.0693 -0.2420
  500DG      H811485   5.701   2.307   2.043 -1.9112 -0.7382  0.6444
  500DG      O911486   5.165   2.124   2.205  0.3946  0.1538  0.3159
  500DG     O1011487   5.544   2.322   1.926 -0.6030  0.2199 -0.2917
  500DG     C1111488   5.211   2.051   2.089  0.2933 -1.1913  0.3669
  500DG     C1211489   5.439   2.406   1.881 -0.2328  0.8391 -0.1111
  500DG     H1311490   5.139   1.970   2.073  1.4385 -1.6523 -3.2178
  500DG     H1411491   5.312   2.013   2.100  1.0592  0.9069  1.0405
  500DG     H1511492   5.462   2.460   1.790 -2.7939 -0.5221 -1.6898
  500DG     H1611493   5.411   2.479   1.957 -0.9049 -0.8223  1.3103
  500DG     C1711494   5.209   2.134   1.960 -0.1778  0.0683 -0.0868
  500DG     C1811495   5.315   2.315   1.855  0.0573  0.3219 -0.6983
  500DG     O1911496   5.279   2.250   1.972 -0.5783  0.2460 -0.0755
  500DG     H2011497   5.112   2.143   1.911 -0.9490 -1.1143  1.1344
  500DG     H2111498   5.268   2.074   1.890  0.3259  0.9887 -0.4778
  500DG     H2211499   5.227   2.373   1.826 -0.0298  0.6522  0.1926
  500DG     H2311500   5.329   2.243   1.775 -0.4736 -1.0583  0.4064
  501DG      C111501   2.859   3.507   5.045 -0.3342 -0.7586 -0.2676
  501DG      C211502   2.367   3.884   4.791  0.0608 -0.4747  0.3068
  501DG      H311503   2.930   3.429   5.019 -0.1653 -0.5263 -0.5175
  501DG      H411504   2.819   3.504   5.146  0.8846 -1.4538  0.2026
  501DG      H511505   2.909   3.603   5.039 -1.4526 -0.1740 -0.6593
  501DG      H611506   2.427   3.971   4.817 -0.2675  0.1163 -0.8257
  501DG      H711507   2.350   3.886   4.683  1.9294 -2.9190 -0.1312
  501DG      H811508   2.266   3.900   4.829  0.1754  2.0494 -0.3125
  501DG      O911509   2.760   3.505   4.956  0.4497 -0.2929  0.1476
  501DG     O1011510   2.436   3.765   4.817 -0.0924  0.6087 -0.0920
  501DG     C1111511   2.685   3.391   4.968  0.6773  0.0063  0.4790
  501DG     C1211512   2.353   3.649   4.809 -0.8519 -0.2985  0.3763
  501DG     H1311513   2.622   3.394   5.057  0.7342 -3.3114  0.7364
  501DG     H1411514   2.735   3.294   4.968 -2.3358 -1.7563 -2.2365
  501DG     H1511515   2.344   3.628   4.703  2.1382 -1.7225  0.3006
  501DG     H1611516   2.264   3.661   4.871  0.9836  1.6515  2.8651
  501DG     C1711517   2.605   3.376   4.838 -0.0620 -0.3613 -0.4403
  501DG     C1811518   2.428   3.529   4.868  0.0878 -0.5155 -0.5387
  501DG     O1911519   2.545   3.497   4.801 -0.3748 -0.2068  0.3468
  501DG     H2011520   2.528   3.300   4.849  0.5136 -1.1976 -1.8924
  501DG     H2111521   2.666   3.329   4.761  0.8138  1.0183 -0.6237
  501DG     H2211522   2.458   3.549   4.970  2.3653 -0.8399 -1.0840
  501DG     H2311523   2.362   3.443   4.855 -1.7191  1.0162 -2.0868
  502DG      C111524   3.216   2.729   3.282 -0.1077  0.5809  0.2750
  502DG      C211525   3.585   2.357   3.600  0.5432  0.3139  0.1498
  502DG      H311526   3.139   2.692   3.215  0.8366 -1.5887  0.3003
  502DG      H411527   3.306   2.737   3.221  2.5699 -2.2996  3.3649
  502DG      H511528   3.190   2.823   3.330 -0.8945 -0.2343  1.5237
  502DG      H611529   3.513   2.352   3.518  1.0129  0.1769 -0.2589
  502DG      H711530   3.682   2.401   3.577 -0.1401  1.4638 -0.6253
  502DG      H811531   3.603   2.251   3.620 -1.3132 -0.9405 -3.8766
  502DG      O911532   3.229   2.615   3.365 -0.3785  0.6503  1.0578
  502DG     O1011533   3.531   2.427   3.712 -0.1999  0.2259  0.3481
  502DG     C1111534   3.110   2.595   3.442 -0.1469  0.5742 -0.2377
  502DG     C1211535   3.409   2.382   3.772 -0.0298  0.6245 -0.0967
  502DG     H1311536   3.018   2.593   3.384 -0.2954 -0.3654  0.0075
  502DG     H1411537   3.088   2.676   3.512 -1.9333  0.7751 -0.9761
  502DG     H1511538   3.372   2.460   3.838  0.0490  0.4560  0.1467
  502DG     H1611539   3.424   2.303   3.845 -0.5199  1.5076  0.9933
  502DG     C1711540   3.127   2.463   3.530  0.0055 -0.4915  0.6185
  502DG     C1811541   3.283   2.355   3.684 -0.1391 -0.1033  0.2450
  502DG     O1911542   3.257   2.464   3.595 -0.2290 -0.5215  0.4263
  502DG     H2011543   3.107   2.377   3.466  0.2398  1.0625 -1.6974
  502DG     H2111544   3.043   2.459   3.600  0.3458  1.5332  1.2120
  502DG     H2211545   3.300   2.274   3.613 -1.4168 -0.4615  0.3241
  502DG     H2311546   3.199   2.322   3.745 -1.2368 -0.9474 -1.6496
  503THF     O111547   0.147   4.917   4.084 -0.5069  0.1712 -0.9778
  503THF     C211548   0.025   4.840   4.099  0.0338  0.2306  0.3947
  503THF     C311549   0.112   5.057   4.101 -0.2870  0.2367  0.5315
  503THF     H411550   0.017   4.820   4.205  2.0931 -2.3161  0.1413
  503THF     H511551   0.033   4.749   4.039 -0.9711  0.2344  0.2368
  503THF     H611552   0.139   5.091   4.201  0.4899  0.1749  0.3481
  503THF     H711553   0.170   5.111   4.026 -0.5398  1.1489  0.9805
  503THF     C811554  -0.041   5.064   4.087  0.6522 -0.1902  0.4132
  503THF     C911555  -0.088   4.926   4.040  0.3088 -0.7048 -0.4923
  503THF    H1011556  -0.068   5.144   4.018  1.7630  1.3934  1.7204
  503THF    H1111557  -0.080   5.093   4.185  0.9579 -0.6439  0.6697
  503THF    H1211558  -0.185   4.893   4.075 -0.2492  1.2468 -0.0623
  503THF    H1311559  -0.095   4.933   3.931  1.1109 -3.4990 -0.8001
  504THF     O111560   3.509   0.867   4.149  0.6442 -0.0373  0.8704
  504THF     C211561   3.439   0.996   4.129 -0.8452  0.3661  0.1577
  504THF     C311562   3.470   0.824   4.278 -0.5317 -0.8885  0.2605
  504THF     H411563   3.339   0.966   4.097 -0.5941 -1.4162  0.9637
  504THF     H511564   3.498   1.054   4.058  0.3155 -0.9449  0.0143
  504THF     H611565   3.378   0.766   4.281  0.8541 -3.4122 -1.6916
  504THF     H711566   3.533   0.749   4.327 -0.2604 -2.3924 -2.1922
  504THF     C811567   3.460   0.954   4.356 -0.2699  0.1943 -0.2508
  504THF     C911568   3.444   1.065   4.264  0.1825 -0.2324  0.1673
  504THF    H1011569   3.545   0.972   4.422  0.9372 -0.5260 -1.5712
  504THF    H1111570   3.369   0.942   4.416 -0.4003  4.2543  0.7158
  504THF    H1211571   3.351   1.120   4.274 -1.3058 -2.7004  0.9806
  504THF    H1311572   3.521   1.141   4.275 -0.2295 -0.1483  3.6291
  505THF     O111573   5.331   4.057   1.391 -0.4249 -0.0835 -0.3691
  505THF     C211574   5.329   4.016   1.528 -0.3290  0.0009 -0.9326
  505THF     C311575   5.411   3.958   1.321  0.1383  0.2909  0.1659
  505THF     H411576   5.251   3.940   1.523  0.3458 -0.7260 -0.6255
  505THF     H511577   5.303   4.101   1.591  2.9567 -0.0423  0.6879
  505THF     H611578   5.356   3.874   1.279  4.1335 -2.7703  0.4651
  505THF     H711579   5.473   3.999   1.242  0.0446  1.7911  0.8273
  505THF     C811580   5.494   3.885   1.434  0.0696  0.0340  0.2129
  505THF     C911581   5.470   3.965   1.555  0.4279 -0.0987 -0.0435
  505THF    H1011582   5.597   3.870   1.402 -0.4049  0.0511 -1.4500
  505THF    H1111583   5.451   3.786   1.449  0.2344  0.1194  1.3103
  505THF    H1211584   5.467   3.899   1.641  1.0293 -1.4797 -1.0387
  505THF    H1311585   5.548   4.040   1.564  1.8849 -1.2897 -1.9485
  506THF     O111586   1.878   2.442   3.039  0.1058 -0.3102 -0.7737
  506THF     C211587   2.014   2.397   3.031 -0.0645 -0.3251 -0.4176
  506THF     C311588   1.881   2.564   3.116 -0.3519  0.3169 -0.4461
  506THF     H411589   2.079   2.449   2.961 -1.8927 -0.5012 -2.3162
  506THF     H511590   2.014   2.291   3.004  1.1510 -0.5827  0.4969
  506THF     H611591   1.909   2.634   3.038  0.3443  0.0838 -0.4066
  506THF     H711592   1.790   2.594   3.169  1.8511 -0.2856  4.1413
  506THF     C811593   1.986   2.528   3.225  0.2771 -0.2710 -0.5521
  506THF     C911594   2.063   2.403   3.178  0.0915 -0.2994  0.1968
  506THF    H1011595   1.936   2.505   3.320 -0.6333  0.3836 -0.8586
  506THF    H1111596   2.047   2.617   3.243  0.3782 -0.4563  0.0545
  506THF    H1211597   2.169   2.421   3.191 -0.4208  2.1082  1.7341
  506THF    H1311598   2.028   2.313   3.229  0.2178 -0.2496  0.3706
  507THF     O111599   0.320   1.450   5.475 -0.0765  0.0074  0.1823
  507THF     C211600   0.273   1.500   5.353 -0.0760 -0.2104 -0.0156
  507THF     C311601   0.256   1.331   5.512  0.3064  0.0787  0.2255
  507THF     H411602   0.360   1.546   5.307  1.1179  0.7379  2.9603
  507THF     H511603   0.194   1.575   5.359 -0.4945  0.0168 -4.8057
  507THF     H611604   0.310   1.285   5.594  0.4954  2.5238  1.5637
  507THF     H711605   0.156   1.356   5.548 -2.0726 -4.0954 -2.5550
  507THF     C811606   0.248   1.263   5.378  0.6269  0.7225  0.5298
  507THF     C911607   0.224   1.382   5.282  0.0513  0.7635  0.5601
  507THF    H1011608   0.180   1.180   5.357  0.0743  1.6657 -1.6449
  507THF    H1111609   0.346   1.218   5.362 -0.0666 -0.7203  0.0588
  507THF    H1211610   0.292   1.381   5.197 -0.4483  4.9119 -0.1032
  507THF    H1311611   0.120   1.385   5.250 -0.2548 -0.0332  1.4299
  508THF     O111612   3.901   2.222   4.757 -0.2597 -0.1444  0.7010
  508THF     C211613   4.046   2.211   4.779 -0.7215 -0.3332 -0.1417
  508THF     C311614   3.883   2.202   4.614 -0.1096 -0.0013  0.2633
  508THF     H411615   4.058   2.161   4.875 -0.1291  1.9182  1.0194
  508THF     H511616   4.108   2.300   4.775 -0.3920 -0.5412  0.1697
  508THF     H611617   3.828   2.111   4.589  0.0036 -0.2232  0.8133
  508THF     H711618   3.831   2.282   4.562 -1.2717 -1.6490 -1.2682
  508THF     C811619   4.021   2.186   4.557  1.2107  0.0750 -0.0820
  508THF     C911620   4.091   2.124   4.667 -0.4611 -0.2374 -0.6391
  508THF    H1011621   4.071   2.281   4.537  0.5410  0.5541  0.4707
  508THF    H1111622   4.016   2.141   4.458  0.6730  0.4630 -0.2317
  508THF    H1211623   4.059   2.020   4.679  2.5318 -1.0572  1.4920
  508THF    H1311624   4.199   2.119   4.655 -0.3670 -0.3168  0.1960
  509THF     O111625   3.005   4.754   1.959  0.1756  0.0464  0.0965
  509THF     C211626   3.073   4.653   2.043  0.3423  0.2223  0.1587
  509THF     C311627   2.958   4.859   2.037 -0.1691 -0.1078 -0.0062
  509THF     H411628   3.171   4.692   2.073  0.7217 -0.5716 -0.0333
  509THF     H511629   3.076   4.560   1.987 -0.6450  0.6528 -0.6314
  509THF     H611630   3.041   4.913   2.083 -0.6125 -0.8975  1.8051
  509THF     H711631   2.908   4.933   1.974  1.1247 -0.2934 -1.3208
  509THF     C811632   2.881   4.783   2.136 -0.2427 -0.2404  0.0268
  509THF     C911633   2.974   4.653   2.161  0.5303 -0.1449  0.4549
  509THF    H1011634   2.778   4.756   2.111  0.1955 -3.9697  1.6409
  509THF    H1111635   2.880   4.845   2.225  2.3480  1.9135 -1.2718
  509THF    H1211636   3.034   4.670   2.250 -1.0818  0.0092  1.5541
  509THF    H1311637   2.919   4.559   2.160  0.3190 -0.0402  1.4920
  510THF     O111638   1.008   4.198   3.634 -0.3815 -0.0881  0.2414
  510THF     C211639   1.014   4.328   3.579 -0.3386 -0.4099  0.0140
  510THF     C311640   1.023   4.101   3.528 -0.4518 -0.0989  0.1580
  510THF     H411641   1.042   4.402   3.654 -2.0402  1.0562 -0.7256
  510THF     H511642   0.913   4.360   3.554 -0.5747 -1.6473 -0.6882
  510THF     H611643   1.104   4.042   3.571 -0.4674  0.7686  1.4399
  510THF     H711644   0.936   4.035   3.519 -1.2716  0.9821 -0.0153
  510THF     C811645   1.063   4.178   3.404 -0.3237 -0.7756 -0.7248
  510THF     C911646   1.113   4.310   3.463 -0.0162  0.1692 -0.2177
  510THF    H1011647   0.972   4.190   3.346  0.2352  0.6542 -1.3462
  510THF    H1111648   1.140   4.139   3.338  0.0602 -1.9254  0.3492
  510THF    H1211649   1.216   4.308   3.496  0.4002 -1.2747 -1.4759
  510THF    H1311650   1.097   4.400   3.403 -1.6065  1.3755  1.9059
  511THF     O111651   1.972   1.359   1.081 -0.1993  0.4608 -0.1844
  511THF     C211652   1.966   1.371   1.229 -0.2286 -1.0532 -0.7668
  511THF     C311653   1.910   1.230   1.063  0.3960  0.2499  0.3781
  511THF     H411654   1.861   1.385   1.255 -0.2745  0.0132 -1.4977
  511THF     H511655   2.029   1.449   1.274  0.1373 -3.0497  2.5469
  511THF     H611656   1.803   1.235   1.082  0.4180  1.6212  0.2061
  511THF     H711657   1.924   1.192   0.961  1.7438 -1.2508  1.0779
  511THF     C811658   1.982   1.138   1.164 -0.0716  0.6475  0.7064
  511THF     C911659   2.013   1.234   1.281  0.0834 -0.7478  0.5587
  511THF    H1011660   2.068   1.084   1.125 -0.4201  2.3054 -2.7521
  511THF    H1111661   1.924   1.053   1.200 -2.5378  1.9520  0.0609
  511THF    H1211662   1.960   1.210   1.374  2.5405  1.7157  2.7826
  511THF    H1311663   2.121   1.230   1.289  0.6477  2.5360 -2.7486
  512THF     O111664   0.327   1.354   2.330  0.0906 -0.4228  0.0514
  512THF     C211665   0.324   1.382   2.475 -0.3803 -0.5288  0.6433
  512THF     C311666   0.460   1.342   2.279  0.5791 -0.4984 -0.6736
  512THF     H411667   0.353   1.301   2.541  1.1682  1.4954  2.6338
  512THF     H511668   0.221   1.412   2.495 -0.8815 -0.6375 -1.5171
  512THF     H611669   0.496   1.240   2.266  1.5079 -0.3225  0.3644
  512THF     H711670   0.460   1.388   2.180 -0.7749 -1.1722 -1.0061
  512THF     C811671   0.536   1.429   2.379 -0.1880 -0.9362  0.0757
  512THF     C911672   0.435   1.490   2.475  0.1730  0.8603  0.3253
  512THF    H1011673   0.596   1.504   2.328 -2.3124  0.0070 -1.1946
  512THF    H1111674   0.607   1.363   2.429  0.0461 -1.0221 -0.3658
  512THF    H1211675   0.462   1.530   2.573 -1.7595  1.1333  0.7845
  512THF    H1311676   0.389   1.581   2.435 -4.1765 -0.7864  1.0192
  513THF     O111677   2.218   3.296   1.333  0.2247 -0.2517  0.5160
  513THF     C211678   2.317   3.317   1.231 -0.0205 -0.4216 -0.2736
  513THF     C311679   2.284   3.320   1.453  0.1532  0.6650 -0.1877
  513THF     H411680   2.323   3.422   1.202  2.0857 -0.4458 -0.0708
  513THF     H511681   2.297   3.266   1.136 -1.6263  1.1150 -0.8293
  513THF     H611682   2.301   3.426   1.472  1.7430  0.5121 -0.5946
  513THF     H711683   2.222   3.282   1.534  1.9247  1.4999  1.6672
  513THF     C811684   2.407   3.231   1.429 -0.3068  0.1046  0.2835
  513THF     C911685   2.449   3.269   1.287  0.0229  0.0475 -0.9218
  513THF    H1011686   2.376   3.126   1.427 -0.6443  0.2018  0.2716
  513THF    H1111687   2.496   3.236   1.491  2.2176 -0.1172 -3.0086
  513THF    H1211688   2.530   3.342   1.283 -0.0398  0.0874 -1.5772
  513THF    H1311689   2.477   3.174   1.240  1.8404 -0.4258  0.9539
  514THF     O111690   4.899   0.664   5.168  0.2634 -0.4927  0.4751
  514THF     C211691   4.810   0.770   5.203 -0.2565 -0.1999 -0.0315
  514THF     C311692   5.026   0.698   5.215  0.4297  0.2531 -0.2675
  514THF     H411693   4.722   0.735   5.258 -0.0680 -3.1513 -1.3855
  514THF     H511694   4.773   0.802   5.105  0.2057 -1.9086 -0.8041
  514THF     H611695   5.070   0.610   5.260  0.3010  0.9255  1.2454
  514THF     H711696   5.091   0.750   5.145 -1.3418  0.7563 -1.6353
  514THF     C811697   5.001   0.790   5.344 -0.6591  0.7800  0.1809
  514THF     C911698   4.880   0.867   5.290 -0.6995  0.3927  0.1383
  514THF    H1011699   5.084   0.856   5.368 -0.0705  0.8308 -1.8122
  514THF    H1111700   4.971   0.729   5.429 -0.5754  0.3314 -0.1101
  514THF    H1211701   4.824   0.912   5.372 -0.5345  2.5207 -0.8304
  514THF    H1311702   4.908   0.958   5.237  1.2516  0.6303  1.4474
  515THF     O111703   2.558   0.435   2.713 -0.1377  0.2637 -0.1175
  515THF     C211704   2.657   0.495   2.790  0.1143  0.1937  0.3487
  515THF     C311705   2.423   0.478   2.748 -0.4573  0.1845 -0.2427
  515THF     H411706   2.693   0.586   2.741 -3.4438  1.7412  0.3262
  515THF     H511707   2.747   0.438   2.814  1.1790  0.6607 -2.2156
  515THF     H611708   2.377   0.534   2.666 -0.9342 -1.7437 -1.3438
  515THF     H711709   2.359   0.393   2.768 -0.3099  0.2127  0.3685
  515THF     C811710   2.437   0.564   2.873 -0.1001 -0.1743  0.5218
  515THF     C911711   2.580   0.535   2.915 -1.1291 -0.6050 -0.3022
  515THF    H1011712   2.364   0.520   2.941 -0.6281 -2.1946 -1.2665
  515THF    H1111713   2.427   0.672   2.862  0.7865 -0.1998 -0.7629
  515THF    H1211714   2.630   0.615   2.971  0.0186 -0.9664 -0.7926
  515THF    H1311715   2.578   0.449   2.981 -0.4903 -0.8233 -0.5642
  516THF     O111716   4.473   3.980   4.131  0.4269  0.4566 -0.2856
  516THF     C211717   4.549   4.094   4.134 -0.2255  0.2033  0.8819
  516THF     C311718   4.535   3.889   4.221 -0.4603 -0.0827  0.2927
  516THF     H411719   4.520   4.168   4.209 -2.1369  2.2276 -1.6469
  516THF     H511720   4.534   4.157   4.046 -0.8970  1.6597  1.9972
  516THF     H611721   4.507   3.920   4.322 -0.9820 -0.5243  0.2866
  516THF     H711722   4.510   3.784   4.212  0.6045 -0.4516  1.3972
  516THF     C811723   4.686   3.917   4.197 -0.5167 -0.6273 -0.2418
  516THF     C911724   4.701   4.052   4.133  0.0045 -0.2317  0.6577
  516THF    H1011725   4.728   3.829   4.147  2.3130  0.9181 -0.8439
  516THF    H1111726   4.736   3.907   4.294  0.5561 -1.2727 -0.8341
  516THF    H1211727   4.768   4.106   4.200  2.5334 -2.3469 -0.0029
  516THF    H1311728   4.748   4.047   4.034 -3.5045  2.3011 -1.3579
  517THF     O111729   5.482   0.424   5.441 -0.4010 -0.3704  0.5251
  517THF     C211730   5.473   0.570   5.422 -0.4602  0.5984  0.4562
  517THF     C311731   5.349   0.386   5.477 -0.1620  0.9328  0.1423
  517THF     H411732   5.554   0.613   5.363  0.6472 -1.7343  0.1700
  517THF     H511733   5.478   0.607   5.524 -0.1138 -0.1879  0.7360
  517THF     H611734   5.318   0.302   5.415  0.0086  0.0427  1.2406
  517THF     H711735   5.353   0.341   5.576 -0.7351 -0.2253 -0.3430
  517THF     C811736   5.259   0.505   5.473 -0.0685  0.3174  0.4216
  517THF     C911737   5.333   0.591   5.374  0.0210  0.1886  0.2471
  517THF    H1011738   5.255   0.545   5.574 -2.1099 -1.4698  1.1318
  517THF    H1111739   5.156   0.477   5.454  1.1574 -5.0989 -0.0533
  517THF    H1211740   5.317   0.544   5.277  2.3114  3.5970 -2.0005
  517THF    H1311741   5.315   0.698   5.378  0.9923  0.3232  1.7472
  518THF     O111742   0.181   4.096   5.403 -0.2485  0.0516 -0.1308
  518THF     C211743   0.206   4.212   5.333 -0.5174 -0.2500  0.0658
  518THF     C311744   0.166   3.982   5.321  0.2558 -0.7525 -0.0629
  518THF     H411745   0.245   4.297   5.388  3.6774 -0.9488 -1.5296
  518THF     H511746   0.121   4.248   5.275 -0.5285 -0.1054  0.1715
  518THF     H611747   0.188   3.888   5.370 -0.1994  0.7396  3.3301
  518THF     H711748   0.069   3.982   5.271  0.4418  2.1226 -0.6117
  518THF     C811749   0.262   4.017   5.210 -0.3695  0.0941 -0.0153
  518THF     C911750   0.312   4.157   5.236  0.1988  0.2978 -0.1159
  518THF    H1011751   0.203   4.011   5.118  2.1706  0.3613 -1.7751
  518THF    H1111752   0.346   3.948   5.201 -0.3808  0.2859 -1.9691
  518THF    H1211753   0.403   4.161   5.296  0.2192  0.8713 -0.1801
  518THF    H1311754   0.330   4.221   5.150 -1.5484  0.9350 -0.0396
  519THF     O111755   1.823   0.006   0.583 -0.3803  0.1883 -0.1044
  519THF     C211756   1.872   0.118   0.655 -0.1604  0.9957  0.4134
  519THF     C311757   1.940  -0.047   0.515 -0.1139 -0.1297  0.6704
  519THF     H411758   1.798   0.146   0.730  0.5022 -0.7269  1.7618
  519THF     H511759   1.883   0.201   0.585 -0.4735  0.7362  0.0541
  519THF     H611760   1.933  -0.148   0.476  3.9861 -1.2212  2.2358
  519THF     H711761   1.968   0.004   0.423  1.1513 -0.9776  0.5702
  519THF     C811762   2.064  -0.026   0.603 -0.0761  0.5128 -0.0364
  519THF     C911763   2.002   0.063   0.705  0.3243  0.1957  0.1200
  519THF    H1011764   2.147   0.021   0.550  0.8739  1.0164  1.8430
  519THF    H1111765   2.089  -0.118   0.654 -1.1467 -0.5506 -1.3596
  519THF    H1211766   1.995   0.007   0.798  0.9666  0.7021  0.4884
  519THF    H1311767   2.066   0.147   0.736 -1.7924  2.2580 -0.8047
  520THF     O111768   2.711   1.695   0.555 -0.5362  0.1703  0.0046
  520THF     C211769   2.583   1.750   0.586  0.0008  0.3360 -0.5136
  520THF     C311770   2.804   1.810   0.554 -0.2512 -0.2620 -0.8422
  520THF     H411771   2.512   1.677   0.625 -0.3751  1.7103  1.5471
  520THF     H511772   2.534   1.800   0.503 -0.8797 -0.4596 -0.4992
  520THF     H611773   2.896   1.792   0.609  0.8727  1.1175 -2.1800
  520THF     H711774   2.828   1.833   0.451  0.0140 -0.6678 -0.8716
  520THF     C811775   2.728   1.923   0.616 -0.7391  0.1981  0.0124
  520THF     C911776   2.621   1.852   0.685 -0.0821  0.0978 -0.0445
  520THF    H1011777   2.691   1.988   0.537 -0.5189  1.5172  0.9603
  520THF    H1111778   2.785   1.998   0.671 -0.5134  1.2164 -1.5482
  520THF    H1211779   2.655   1.796   0.772 -1.3780  2.2783  1.9797
  520THF    H1311780   2.536   1.911   0.719  0.2305 -0.9812  2.9339
  521THF     O111781   2.111   1.522   3.882 -0.6020 -0.1268 -0.1247
  521THF     C211782   2.174   1.433   3.790 -0.2392  0.0322  0.0266
  521THF     C311783   2.158   1.654   3.868  0.3711 -0.9743  0.5606
  521THF     H411784   2.122   1.414   3.697 -1.1718 -4.0939  1.1970
  521THF     H511785   2.181   1.336   3.839  0.6530  0.6260  1.1286
  521THF     H611786   2.108   1.702   3.784  1.0648  1.7678  1.5780
  521THF     H711787   2.137   1.717   3.955 -0.2548 -0.9959  0.4251
  521THF     C811788   2.307   1.622   3.842 -0.3967  0.0656  0.1732
  521THF     C911789   2.304   1.494   3.758 -0.6192  0.2225  0.0904
  521THF    H1011790   2.350   1.600   3.940 -1.8976 -1.5270  0.5136
  521THF    H1111791   2.362   1.700   3.789 -1.5197  0.1710 -0.8924
  521THF    H1211792   2.313   1.510   3.650  0.6952  0.0263  0.1526
  521THF    H1311793   2.383   1.423   3.780 -0.4207 -0.2815 -2.0181
  522THF     O111794   4.085   0.341   1.214  0.1677  0.3636  0.0691
  522THF     C211795   4.060   0.227   1.298 -0.0826  0.2088  0.6598
  522THF     C311796   4.210   0.314   1.143 -0.7576 -0.4118  1.2497
  522THF     H411797   3.954   0.206   1.314  0.2511 -2.2621  0.0179
  522THF     H511798   4.109   0.243   1.394 -0.2655  1.9641  0.4854
  522THF     H611799   4.230   0.371   1.053  0.8177  1.7213  2.8359
  522THF     H711800   4.292   0.351   1.206  0.9447 -0.9319 -0.5531
  522THF     C811801   4.224   0.166   1.116  0.3379 -0.1482 -0.9461
  522THF     C911802   4.112   0.109   1.202 -0.2704 -0.3967  0.6117
  522THF    H1011803   4.324   0.133   1.144 -0.8165 -1.3109  2.3730
  522THF    H1111804   4.224   0.145   1.009  1.1674  1.1772 -1.2206
  522THF    H1211805   4.030   0.092   1.133 -0.2704  0.5696  0.3516
  522THF    H1311806   4.124   0.008   1.239 -1.5342 -0.8132 -0.0450
  523THF     O111807   5.007   5.145   2.111  0.7383 -0.1969  0.1715
  523THF     C211808   5.082   5.170   2.001  0.2516 -0.6545  0.0991
  523THF     C311809   5.069   5.049   2.194  0.2479  0.2057  0.1775
  523THF     H411810   5.080   5.273   1.965 -0.5280 -0.3930  0.8776
  523THF     H511811   5.042   5.109   1.919  0.4166  3.2518 -3.2157
  523THF     H611812   5.042   5.036   2.299  0.6319 -0.7792  0.1641
  523THF     H711813   5.055   4.950   2.151  0.9504 -0.3653  1.2252
  523THF     C811814   5.214   5.084   2.171  0.5129 -0.3066 -0.2760
  523THF     C911815   5.225   5.122   2.035 -0.1238 -1.1178  0.4020
  523THF    H1011816   5.281   5.003   2.200  1.8797 -0.4377 -3.3568
  523THF    H1111817   5.249   5.167   2.232 -0.0372 -1.4605  1.6846
  523THF    H1211818   5.297   5.203   2.024 -2.1008  0.9375  1.7609
  523THF    H1311819   5.242   5.037   1.968 -1.6527 -0.6856 -0.5752
  524THF     O111820   4.731   3.517   0.471  0.0812 -0.6026  0.4976
  524THF     C211821   4.782   3.629   0.540  0.1270 -0.4365 -1.0314
  524THF     C311822   4.616   3.571   0.406 -0.2458  0.1374  0.0573
  524THF     H411823   4.849   3.695   0.485  2.0600 -0.8030  0.7392
  524THF     H511824   4.848   3.587   0.616  0.5189 -1.0473 -1.7077
  524THF     H611825   4.656   3.634   0.327 -0.1415 -2.1536 -1.8273
  524THF     H711826   4.562   3.494   0.350  2.0149  0.1877 -2.3771
  524THF     C811827   4.548   3.647   0.519 -0.4598 -0.3010 -0.8826
  524THF     C911828   4.661   3.705   0.599 -0.0691  0.1681 -0.7258
  524THF    H1011829   4.490   3.574   0.575 -0.0982  1.4490  1.9504
  524THF    H1111830   4.476   3.719   0.481 -0.9591 -0.8804 -1.0503
  524THF    H1211831   4.657   3.809   0.564  1.8651 -0.3269 -2.6263
  524THF    H1311832   4.648   3.689   0.705 -1.0676 -1.1264 -1.0315
  525THF     O111833   3.889   2.761   3.707 -0.1639 -0.2126  0.2614
  525THF     C211834   4.016   2.757   3.781  0.9415  0.0143 -0.7429
  525THF     C311835   3.824   2.637   3.736 -0.3087  0.0059 -0.1781
  525THF     H411836   4.064   2.855   3.785  0.5191  0.1915  1.4390
  525THF     H511837   4.083   2.678   3.748  0.8277  0.1869 -1.3940
  525THF     H611838   3.717   2.639   3.717 -0.2184 -1.1760 -0.9385
  525THF     H711839   3.868   2.561   3.670 -1.7374 -0.7470 -0.3008
  525THF     C811840   3.860   2.605   3.882  0.0695 -0.2780  0.3228
  525THF     C911841   3.970   2.706   3.917  0.1750 -0.7596 -0.1042
  525THF    H1011842   3.900   2.504   3.894  2.1636  0.4596  0.0852
  525THF    H1111843   3.772   2.628   3.941 -0.8784 -0.0659 -1.1070
  525THF    H1211844   3.929   2.800   3.955 -0.8442  0.2811 -3.3858
  525THF    H1311845   4.038   2.662   3.989  1.2448  0.8732 -0.0477
  526THF     O111846   0.106   1.015   0.971  0.2539 -0.1376  0.7608
  526THF     C211847   0.106   1.157   0.957 -0.1334 -0.2221  0.2905
  526THF     C311848   0.243   0.971   0.981  0.0615 -0.9021 -0.0686
  526THF     H411849   0.014   1.197   0.999 -1.2282  0.2026 -2.3354
  526THF     H511850   0.116   1.183   0.851  0.5509 -1.3816  0.0491
  526THF     H611851   0.276   0.871   1.009  2.0113 -0.7999 -1.7972
  526THF     H711852   0.291   0.999   0.887 -0.9018  0.8844 -0.0625
  526THF     C811853   0.292   1.078   1.070 -0.1855  0.2076 -0.5772
  526THF     C911854   0.222   1.207   1.031  0.2576 -0.3656  0.4260
  526THF    H1011855   0.399   1.083   1.047 -0.3628  1.9808 -1.1641
  526THF    H1111856   0.271   1.061   1.175 -1.5812 -0.3434 -0.9160
  526THF    H1211857   0.194   1.263   1.120 -2.9452 -0.1033 -0.6136
  526THF    H1311858   0.277   1.275   0.965 -1.4890 -0.6364 -1.4017
  527THF     O111859   1.460   2.071   1.896 -0.5688  0.0838 -0.6997
  527THF     C211860   1.541   2.065   1.784 -1.0420  0.3443 -0.7204
  527THF     C311861   1.544   2.114   2.006  0.4463 -0.6007 -0.0385
  527THF     H411862   1.560   2.164   1.743  0.7852 -0.1767 -1.1950
  527THF     H511863   1.488   2.007   1.708  1.5894 -0.0457 -2.3806
  527THF     H611864   1.559   2.222   1.998 -2.5331 -0.0469  0.8514
  527THF     H711865   1.514   2.097   2.110 -1.0651  1.4822 -0.0719
  527THF     C811866   1.675   2.037   1.982 -0.4618 -0.2846  0.8072
  527THF     C911867   1.660   1.989   1.837  0.0182  0.2073 -0.1467
  527THF    H1011868   1.686   1.962   2.061  1.1982  1.0989  1.9637
  527THF    H1111869   1.763   2.099   1.997  0.8435 -1.3696 -1.7195
  527THF    H1211870   1.750   2.018   1.783 -0.4963  2.8902  0.2759
  527THF    H1311871   1.657   1.880   1.833 -2.4878  0.1976  0.4351
  528THF     O111872   1.639   1.334   2.120 -0.0233  0.2648 -0.0292
  528THF     C211873   1.649   1.392   1.992 -0.1378 -0.1160 -0.4978
  528THF     C311874   1.702   1.209   2.107 -0.8061  0.3157  0.1628
  528THF     H411875   1.647   1.497   2.019 -0.5521 -0.2080 -0.1528
  528THF     H511876   1.563   1.369   1.929  0.2572  1.4644 -1.6594
  528THF     H611877   1.737   1.174   2.204 -0.5944  2.4282  0.9145
  528THF     H711878   1.634   1.143   2.054 -0.4416  0.5846 -0.6648
  528THF     C811879   1.831   1.249   2.027  0.0616 -0.0004 -0.6129
  528THF     C911880   1.776   1.341   1.921  0.6501 -0.6693 -0.2849
  528THF    H1011881   1.870   1.161   1.977 -0.2604  0.0616 -0.9772
  528THF    H1111882   1.893   1.302   2.099 -0.5083 -0.4976  0.2612
  528THF    H1211883   1.844   1.421   1.891  1.1168 -1.2085 -0.6899
  528THF    H1311884   1.744   1.287   1.832 -1.3060  2.6060 -1.7243
  529THF     O111885   0.238   5.495   0.329  0.0561 -0.2960 -0.0896
  529THF     C211886   0.114   5.518   0.397 -0.3030 -0.1479  0.1356
  529THF     C311887   0.287   5.369   0.374  0.6387 -0.4220  0.3823
  529THF     H411888   0.038   5.463   0.340  0.4336 -0.3089 -0.7181
  529THF     H511889   0.069   5.617   0.389 -1.0889 -0.5104 -0.0809
  529THF     H611890   0.243   5.287   0.317  0.2512 -1.6782  2.3961
  529THF     H711891   0.394   5.382   0.360  0.2973  1.1943 -1.0986
  529THF     C811892   0.241   5.351   0.514 -0.9284 -0.1030 -0.6521
  529THF     C911893   0.153   5.479   0.533 -0.2167  0.0581  0.1622
  529THF    H1011894   0.319   5.363   0.589 -1.4732  0.8927 -0.2237
  529THF    H1111895   0.187   5.256   0.516  1.4344 -1.5107 -0.9198
  529THF    H1211896   0.072   5.463   0.604 -0.9020 -0.1159 -0.6560
  529THF    H1311897   0.219   5.556   0.574 -1.7804  0.7102  1.5471
  530THF     O111898   3.674   3.812   4.788 -0.0748 -0.3510  0.5793
  530THF     C211899   3.609   3.938   4.795 -0.6952  0.2882 -0.5997
  530THF     C311900   3.750   3.784   4.899  0.2209 -0.2549 -0.0060
  530THF     H411901   3.507   3.914   4.826 -0.8347  3.2814  1.7112
  530THF     H511902   3.606   3.969   4.691 -0.5998 -0.3778 -0.8063
  530THF     H611903   3.682   3.752   4.978 -0.8997 -2.1214 -1.6370
  530THF     H711904   3.828   3.709   4.893 -1.3767 -2.1086  1.1663
  530THF     C811905   3.816   3.924   4.922  0.3077  0.3413 -0.4109
  530THF     C911906   3.700   4.019   4.885  0.8861 -0.3005 -0.3016
  530THF    H1011907   3.897   3.947   4.852 -0.2169  2.5240 -0.3754
  530THF    H1111908   3.845   3.940   5.025 -0.4033 -2.6913  0.3667
  530THF    H1211909   3.638   4.057   4.966 -2.1748  0.0841 -2.6563
  530THF    H1311910   3.723   4.119   4.848 -3.1959  1.0339  0.3273
  531THF     O111911   1.891   4.904   1.813 -0.0379  0.1317  0.2476
  531THF     C211912   1.913   4.840   1.943  1.2326  0.4006  0.0465
  531THF     C311913   1.865   5.039   1.828 -0.2647 -0.1413  0.1928
  531THF     H411914   2.015   4.859   1.978  0.7374 -1.9781  3.2981
  531THF     H511915   1.903   4.732   1.944  1.3923  0.3815  0.9000
  531THF     H611916   1.963   5.078   1.857  0.6501 -1.0475 -1.4958
  531THF     H711917   1.836   5.099   1.742  1.5993 -1.3991 -1.4153
  531THF     C811918   1.782   5.043   1.952 -0.2042 -0.7215 -0.3113
  531THF     C911919   1.809   4.914   2.030  0.3171 -0.2767 -0.1468
  531THF    H1011920   1.674   5.053   1.937 -0.3982  0.9150  1.7687
  531THF    H1111921   1.815   5.130   2.008 -0.8501 -1.8717  2.0029
  531THF    H1211922   1.845   4.941   2.130 -2.3659  3.0677  0.1218
  531THF    H1311923   1.713   4.863   2.039 -0.0682  0.0312 -2.1100
  532THF     O111924   0.018   1.480   3.778  0.2951  0.4179  0.2933
  532THF     C211925   0.143   1.453   3.837  0.3983 -0.4893  0.0421
  532THF     C311926  -0.045   1.358   3.749 -0.0657  0.4142  0.2653
  532THF     H411927   0.120   1.424   3.939  0.2809  0.8408  0.4157
  532THF     H511928   0.204   1.543   3.840 -0.6559  0.2246  1.6181
  532THF     H611929  -0.097   1.323   3.838 -2.1825  3.2800  0.2934
  532THF     H711930  -0.129   1.373   3.682  0.3049  2.1189  0.1337
  532THF     C811931   0.071   1.265   3.703  0.0813  0.2041 -0.4720
  532THF     C911932   0.194   1.342   3.747  0.6576  0.3112  0.5958
  532THF    H1011933   0.063   1.232   3.600 -0.0550 -0.7405 -0.1757
  532THF    H1111934   0.066   1.174   3.763 -0.6378 -1.9994 -3.6407
  532THF    H1211935   0.267   1.284   3.804 -1.7996 -1.9641  1.6626
  532THF    H1311936   0.252   1.381   3.664 -1.2102  0.8119 -0.5266
  533THF     O111937   1.657   2.868   1.014  0.0678 -0.1818 -0.0358
  533THF     C211938   1.658   2.765   0.915 -0.5433 -0.0384  0.4660
  533THF     C311939   1.538   2.948   0.998 -0.0040  0.2341  1.3256
  533THF     H411940   1.709   2.677   0.954  0.3080  0.8421  1.4036
  533THF     H511941   1.710   2.799   0.825  2.2766 -0.2691  1.8925
  533THF     H611942   1.518   3.009   1.086 -0.5218 -0.2050  1.5182
  533THF     H711943   1.560   3.022   0.921  0.3143 -0.4323  0.7715
  533THF     C811944   1.437   2.839   0.967  0.7937  0.2504  0.6632
  533THF     C911945   1.513   2.722   0.894  0.2731 -0.4949 -0.0496
  533THF    H1011946   1.350   2.882   0.916  1.0657  1.6267  1.3067
  533THF    H1111947   1.401   2.808   1.065  1.7018  3.0370  1.9731
  533THF    H1211948   1.475   2.635   0.948  1.6955 -1.0550  0.0903
  533THF    H1311949   1.497   2.716   0.786 -1.5459  1.9530 -0.0145
  534THF     O111950   0.777   1.348   0.716  0.2228  0.5832 -0.4191
  534THF     C211951   0.699   1.230   0.703  0.0926  0.7094 -0.3276
  534THF     C311952   0.830   1.359   0.851  0.7535 -0.5709  0.3189
  534THF     H411953   0.737   1.179   0.614 -1.8980  0.8508 -1.3141
  534THF     H511954   0.597   1.243   0.667  0.2411  1.8558 -0.3877
  534THF     H611955   0.926   1.411   0.858 -0.4149  1.7754  0.0210
  534THF     H711956   0.761   1.415   0.915  1.2970  1.3171 -0.6730
  534THF     C811957   0.840   1.212   0.885  0.2509 -0.2858  0.1688
  534THF     C911958   0.709   1.155   0.834  0.4828  0.2318 -0.3375
  534THF    H1011959   0.861   1.205   0.992  1.2021 -1.1132 -0.0530
  534THF    H1111960   0.914   1.155   0.828 -1.7698 -3.4306  0.4153
  534THF    H1211961   0.721   1.052   0.802  1.1296  0.3481 -0.4822
  534THF    H1311962   0.620   1.177   0.893 -0.6877 -1.2160 -1.4695
  535THF     O111963   1.478   1.017   2.491 -0.1302 -0.0574  0.0629
  535THF     C211964   1.465   0.939   2.609 -0.0128  0.6856 -0.8426
  535THF     C311965   1.618   1.065   2.492 -0.3023  0.0893 -0.3527
  535THF     H411966   1.454   0.840   2.567 -1.9053  0.8702 -0.8456
  535THF     H511967   1.371   0.957   2.661  0.2508 -0.3911  0.0443
  535THF     H611968   1.670   1.049   2.398  0.2677  0.0190 -0.0336
  535THF     H711969   1.626   1.169   2.524  2.7853  0.6689 -2.5768
  535THF     C811970   1.690   0.990   2.594  0.0309 -0.0863  0.0060
  535THF     C911971   1.588   0.963   2.698  0.4585  0.1554 -0.0237
  535THF    H1011972   1.777   1.039   2.638 -0.6086 -1.2295  2.7678
  535THF    H1111973   1.711   0.896   2.542 -0.8056  0.6149 -1.6994
  535THF    H1211974   1.612   0.875   2.758  0.5787 -0.5476 -1.0709
  535THF    H1311975   1.561   1.048   2.761 -0.5636  0.3405 -0.6852
  536THF     O111976   2.182   2.763   2.544 -0.3825 -0.3962 -0.1160
  536THF     C211977   2.319   2.748   2.579 -0.2700  0.3357  0.2670
  536THF     C311978   2.112   2.726   2.663  0.0867 -0.0462 -0.5535
  536THF     H411979   2.354   2.830   2.642  0.5770  1.7479 -1.9604
  536THF     H511980   2.389   2.755   2.496  0.3071 -1.0950  0.5892
  536THF     H611981   2.116   2.804   2.739 -1.6463  0.7241 -1.1865
  536THF     H711982   2.006   2.704   2.651 -0.8070  2.1955  2.1728
  536THF     C811983   2.191   2.612   2.717 -0.5978  0.8146 -0.7033
  536THF     C911984   2.323   2.619   2.648 -0.2818  0.4777 -0.2960
  536THF    H1011985   2.143   2.526   2.672  1.4830  0.0217 -1.5731
  536THF    H1111986   2.189   2.598   2.825  1.2120 -0.4013 -0.7778
  536THF    H1211987   2.396   2.626   2.729  0.7591  1.1115 -1.2583
  536THF    H1311988   2.339   2.527   2.591 -1.5996  0.5362 -0.7808
  537THF     O111989   1.064   3.595   0.062 -0.3509  0.3071  0.1186
  537THF     C211990   1.069   3.545   0.198 -0.1102 -0.0187 -0.0652
  537THF     C311991   1.105   3.732   0.063  0.1556 -0.0872 -0.2056
  537THF     H411992   1.158   3.484   0.209 -1.5233 -2.4943 -1.3524
  537THF     H511993   0.976   3.492   0.221 -0.8262  1.1235 -0.2469
  537THF     H611994   1.214   3.740   0.064  0.1877  0.1327  2.3550
  537THF     H711995   1.057   3.778  -0.023 -2.9719 -0.4767  1.1868
  537THF     C811996   1.049   3.790   0.189  0.2615  0.3842 -0.1474
  537THF     C911997   1.059   3.665   0.285 -0.8010 -0.1563  0.4447
  537THF    H1011998   0.941   3.803   0.187  0.2406  0.4091  0.7595
  537THF    H1111999   1.093   3.884   0.223  0.8425  0.4645 -1.0783
  537THF    H1212000   1.142   3.686   0.352  1.1253 -2.2950 -1.1202
  537THF    H1312001   0.973   3.661   0.352 -0.9990  4.3357  0.7651
  538THF     O112002   5.027   0.582   2.018  0.5777 -0.1976  0.1024
  538THF     C212003   4.944   0.629   2.133  0.7477  0.4585  0.3691
  538THF     C312004   4.933   0.572   1.917 -0.0598  0.0077 -0.1997
  538THF     H412005   5.001   0.674   2.214 -0.2804  1.5706  0.4990
  538THF     H512006   4.885   0.544   2.165  0.8109 -0.1726 -1.1015
  538THF     H612007   4.972   0.579   1.816  0.1163  0.8734 -0.0811
  538THF     H712008   4.868   0.484   1.915 -0.4898  0.3034  0.3866
  538THF     C812009   4.830   0.687   1.933  0.2233 -0.3465 -0.0056
  538THF     C912010   4.836   0.727   2.078 -0.2036 -0.0396  0.6400
  538THF    H1012011   4.725   0.669   1.911  0.1598  1.1404 -1.0865
  538THF    H1112012   4.862   0.764   1.862 -1.4852  0.5428  0.1436
  538THF    H1212013   4.868   0.829   2.099  0.5079 -0.1647  0.2060
  538THF    H1312014   4.750   0.700   2.140  0.6220 -2.4043  0.8764
  539THF     O112015   0.252   3.951   2.422 -0.7079  0.4768  0.2373
  539THF     C212016   0.135   3.980   2.496 -0.2078  0.1074  0.2318
  539THF     C312017   0.367   3.965   2.505  0.6269 -0.1702  0.5071
  539THF     H412018   0.068   3.900   2.463  0.2697  0.8563 -2.8735
  539THF     H512019   0.104   4.076   2.454  3.0999  0.7596 -1.0333
  539THF     H612020   0.397   3.865   2.536 -0.2959 -0.8134 -0.5934
  539THF     H712021   0.453   4.011   2.456 -0.6041  1.0671 -0.5779
  539THF     C812022   0.317   4.045   2.623 -0.2427 -0.0206 -0.1098
  539THF     C912023   0.180   3.991   2.641  0.5783 -0.2201  0.2028
  539THF    H1012024   0.303   4.152   2.608  0.2769  0.4198  2.1933
  539THF    H1112025   0.388   4.034   2.705 -1.0683 -0.0469  0.6289
  539THF    H1212026   0.169   3.892   2.685  2.3963 -0.1672  0.8720
  539THF    H1312027   0.113   4.048   2.705 -1.1483 -3.6510  1.6991
  540THF     O112028   0.266   2.421   1.539  0.2246 -0.2054  0.0374
  540THF     C212029   0.294   2.451   1.679  0.3175 -0.2085 -0.2380
  540THF     C312030   0.152   2.500   1.497  0.6239 -0.1507 -0.2036
  540THF     H412031   0.393   2.428   1.719 -0.5134  1.0681  2.7671
  540THF     H512032   0.232   2.393   1.747 -0.2460 -1.5975 -1.8430
  540THF     H612033   0.140   2.525   1.392  0.3388  2.4884  0.3821
  540THF     H712034   0.069   2.433   1.521  0.9128 -0.3288  0.3392
  540THF     C812035   0.142   2.613   1.589  0.0657 -0.3047 -0.1325
  540THF     C912036   0.263   2.601   1.680  0.1654  0.0443 -0.1917
  540THF    H1012037   0.055   2.607   1.655  0.8330 -1.9947  0.7920
  540THF    H1112038   0.141   2.710   1.539  0.7347  0.9930  2.2299
  540THF    H1212039   0.346   2.659   1.640  0.2785 -0.7995 -1.2462
  540THF    H1312040   0.248   2.638   1.781  0.3820 -1.1516  0.3006
  541THF     O112041   4.753   2.488   3.199  0.2410 -0.7018 -0.1900
  541THF     C212042   4.728   2.629   3.210 -0.0408  0.6937  0.5205
  541THF     C312043   4.630   2.424   3.202  0.3904 -0.9907  0.3386
  541THF     H412044   4.804   2.682   3.152  3.3791 -3.6040  0.5409
  541THF     H512045   4.743   2.661   3.313  1.3698  1.1072  0.2126
  541THF     H612046   4.642   2.320   3.171 -0.3319 -1.0145  0.1262
  541THF     H712047   4.586   2.420   3.302 -0.3999 -0.5995  0.0162
  541THF     C812048   4.542   2.510   3.126  0.4861  0.0697  0.0978
  541THF     C912049   4.581   2.647   3.165 -0.2029 -0.6599 -0.0690
  541THF    H1012050   4.437   2.490   3.145 -0.0931  3.6190  1.2977
  541THF    H1112051   4.551   2.486   3.020 -0.4372 -1.1343  0.2697
  541THF    H1212052   4.569   2.721   3.086 -1.8445  0.6968  1.3632
  541THF    H1312053   4.515   2.665   3.250  0.7861 -2.0021  1.0310
  542THF     O112054   2.113   0.588   2.917  0.8153 -0.6457  0.5323
  542THF     C212055   2.078   0.709   2.845 -0.0854 -0.4929  0.0019
  542THF     C312056   2.003   0.560   3.003 -0.1523  0.5655 -0.1609
  542THF     H412057   2.147   0.730   2.763  0.6930  0.6359  0.9075
  542THF     H512058   2.079   0.800   2.905  0.3584  0.0865 -0.8517
  542THF     H612059   1.986   0.456   3.032 -1.3942  0.2990 -1.6807
  542THF     H712060   2.009   0.625   3.090 -2.5300  1.6463 -0.6944
  542THF     C812061   1.883   0.614   2.928 -0.1289 -0.2423 -0.6102
  542THF     C912062   1.932   0.692   2.810  0.2565  0.1615 -0.0581
  542THF    H1012063   1.827   0.679   2.995 -0.0908 -2.6504  1.9336
  542THF    H1112064   1.823   0.529   2.896  0.2362 -0.4669 -0.6998
  542THF    H1212065   1.928   0.628   2.721  1.8527  0.2447 -0.2219
  542THF    H1312066   1.887   0.788   2.786  1.5915  0.8667  0.1443
  543THF     O112067   0.002   1.558   0.369 -0.3809  0.2996  0.1498
  543THF     C212068   0.068   1.663   0.299  0.1943  0.1951  0.0128
  543THF     C312069  -0.063   1.475   0.279  0.6356 -0.4249  0.4458
  543THF     H412070   0.172   1.644   0.324  0.1828 -1.6446 -1.1149
  543THF     H512071   0.029   1.748   0.354 -0.8412  1.1692 -2.1211
  543THF     H612072   0.009   1.394   0.262 -2.8016 -3.1499 -2.9658
  543THF     H712073  -0.148   1.427   0.328  2.8535 -2.2232  2.8353
  543THF     C812074  -0.085   1.553   0.146 -0.0014  0.2322  0.2145
  543THF     C912075   0.037   1.645   0.152 -0.1135 -0.6732 -0.1316
  543THF    H1012076  -0.171   1.619   0.145 -0.6903 -0.6375 -1.0074
  543THF    H1112077  -0.085   1.486   0.060 -1.7297 -1.8847  1.7606
  543THF    H1212078   0.107   1.593   0.085 -1.8002 -0.5207 -2.1154
  543THF    H1312079   0.015   1.738   0.100 -0.4230 -0.7945 -0.2186
  544THF     O112080   2.851   5.230   2.055  0.3988  0.3579  0.3460
  544THF     C212081   2.881   5.272   1.921 -0.3357  0.2281  0.6961
  544THF     C312082   2.965   5.247   2.139 -0.0293 -0.4493  0.2512
  544THF     H412083   2.889   5.380   1.911  0.1165  0.2116  0.8639
  544THF     H512084   2.804   5.246   1.848 -0.9205  0.8513  1.0810
  544THF     H612085   2.989   5.340   2.192 -1.4554  0.4796 -0.6831
  544THF     H712086   2.959   5.177   2.222  0.6880 -2.2898 -1.1879
  544THF     C812087   3.078   5.228   2.041  0.3999 -0.4591 -0.3498
  544THF     C912088   3.017   5.220   1.904  0.1852  0.4988 -0.5783
  544THF    H1012089   3.137   5.138   2.059 -0.1868 -0.9538 -0.8746
  544THF    H1112090   3.149   5.309   2.057 -1.8619  1.2959  1.6016
  544THF    H1212091   3.082   5.274   1.835 -1.0449 -0.5251 -2.6291
  544THF    H1312092   3.012   5.115   1.877 -3.0099 -0.1244  1.8409
  545THF     O112093   1.356   1.499   0.632  0.6917  0.7115 -0.2012
  545THF     C212094   1.289   1.428   0.535  0.3508 -0.1253 -0.0128
  545THF     C312095   1.338   1.439   0.758 -0.1807  0.0991  0.4916
  545THF     H412096   1.370   1.360   0.507  1.9714  1.4684  0.6552
  545THF     H512097   1.261   1.486   0.447  0.8217 -2.1424 -1.5836
  545THF     H612098   1.440   1.417   0.789  0.0964  0.4871 -0.1324
  545THF     H712099   1.311   1.506   0.840 -0.6952 -0.6508  0.9605
  545THF     C812100   1.231   1.327   0.736  0.5200  0.0733  0.8504
  545THF     C912101   1.168   1.368   0.607  0.4619  0.1757  0.3371
  545THF    H1012102   1.160   1.321   0.818  1.3393 -1.6447  1.4834
  545THF    H1112103   1.277   1.229   0.725  1.3499  0.4809  0.5415
  545THF    H1212104   1.144   1.279   0.549  1.5199  0.2277 -0.2208
  545THF    H1312105   1.087   1.439   0.620  0.4551  0.1021  0.7135
  546THF     O112106   5.446   5.039   5.102 -0.4706 -0.4239  0.5306
  546THF     C212107   5.356   4.969   5.020 -0.1638 -0.0280  0.1514
  546THF     C312108   5.370   5.155   5.155 -0.0794 -0.3687  0.0690
  546THF     H412109   5.393   4.874   4.982 -0.4034  0.6901 -2.0152
  546THF     H512110   5.339   5.038   4.938  1.3595  0.2527  0.0570
  546THF     H612111   5.427   5.196   5.238 -0.7910  0.1448  0.3159
  546THF     H712112   5.353   5.221   5.070  0.3508 -0.4249 -0.0631
  546THF     C812113   5.244   5.074   5.203  0.3263 -0.3057  0.5008
  546THF     C912114   5.237   4.959   5.111 -0.3824  0.1956 -0.2655
  546THF    H1012115   5.167   5.151   5.196  1.2562  0.8067  2.0523
  546THF    H1112116   5.246   5.036   5.305 -1.4531 -1.4213  0.1703
  546THF    H1212117   5.231   4.864   5.164  1.5936 -0.3969 -0.9901
  546THF    H1312118   5.149   4.966   5.046 -0.2227 -0.3185 -0.5503
  547THF     O112119   3.265   3.175   3.315  0.1385  0.2520 -0.0222
  547THF     C212120   3.200   3.188   3.193  0.3186 -0.2565  0.4935
  547THF     C312121   3.305   3.305   3.352  0.5348 -0.4424  0.4302
  547THF     H412122   3.107   3.242   3.213 -0.8733  0.3472 -4.9561
  547THF     H512123   3.169   3.096   3.142  1.8130  0.3198 -1.6086
  547THF     H612124   3.225   3.369   3.390  0.2613 -0.4958 -0.0543
  547THF     H712125   3.389   3.296   3.421  0.7635  1.0581  0.3890
  547THF     C812126   3.355   3.356   3.219 -0.1413 -0.2308 -0.4138
  547THF     C912127   3.309   3.263   3.114 -0.5645 -0.5882 -0.0327
  547THF    H1012128   3.464   3.354   3.223 -0.1821 -0.3927  1.5217
  547THF    H1112129   3.332   3.461   3.200 -0.8015 -0.3745 -0.4181
  547THF    H1212130   3.278   3.313   3.022 -2.5885  0.5371  1.1816
  547THF    H1312131   3.385   3.187   3.098  1.2211  0.7909  1.5332
  548THF     O112132   1.971   5.251   3.459  0.6500  0.4599  0.2463
  548THF     C212133   1.844   5.287   3.411  0.2563  0.5661 -0.1372
  548THF     C312134   2.004   5.345   3.557 -0.0447 -0.4568 -0.0924
  548THF     H412135   1.760   5.249   3.470  0.4900  2.7591  1.7633
  548THF     H512136   1.833   5.256   3.307  0.2178  0.8333 -0.2113
  548THF     H612137   1.986   5.304   3.656  0.1564  0.2498  0.2457
  548THF     H712138   2.108   5.372   3.537 -0.3221 -1.9719 -5.0222
  548THF     C812139   1.907   5.472   3.553 -0.7444  0.4613 -0.1110
  548THF     C912140   1.840   5.443   3.428  0.3128 -0.2069  0.0395
  548THF    H1012141   1.971   5.560   3.557  3.0520 -2.0421  0.0849
  548THF    H1112142   1.833   5.471   3.632  0.7030 -1.3783  1.3296
  548THF    H1212143   1.738   5.483   3.426 -0.2326 -1.4684  0.8753
  548THF    H1312144   1.905   5.483   3.350  0.5056  0.8290  0.7164
  549THF     O112145   1.316   4.400   5.153  0.2308 -0.5263  0.3343
  549THF     C212146   1.339   4.530   5.099 -0.4894 -0.4252  0.8478
  549THF     C312147   1.421   4.370   5.246  0.0792  0.3795  0.7673
  549THF     H412148   1.245   4.583   5.087 -0.2726 -0.2929 -0.3412
  549THF     H512149   1.377   4.510   4.999 -1.9447 -0.0879  0.2093
  549THF     H612150   1.373   4.371   5.344 -0.6361 -1.8323  0.5173
  549THF     H712151   1.443   4.263   5.239 -0.9971  0.1146  1.3114
  549THF     C812152   1.531   4.474   5.227 -0.7190 -0.0129  0.6075
  549THF     C912153   1.440   4.592   5.188 -0.1019 -0.9112 -0.0578
  549THF    H1012154   1.588   4.443   5.139 -0.8013  1.9104 -0.1597
  549THF    H1112155   1.590   4.492   5.317 -0.3608 -0.4900  0.4739
  549THF    H1212156   1.396   4.640   5.276 -1.6829 -1.0129 -0.7505
  549THF    H1312157   1.496   4.669   5.135 -0.2956 -0.8015 -0.1053
  550THF     O112158   2.945   0.924   1.441 -0.0049 -0.5809  0.0108
  550THF     C212159   3.081   0.900   1.476 -0.5485 -0.4776 -0.3695
  550THF     C312160   2.932   1.067   1.454  0.3498  0.8584  0.0255
  550THF     H412161   3.124   0.807   1.439  2.3499  1.0728 -1.2703
  550THF     H512162   3.093   0.905   1.584  1.2913  0.4540 -0.5712
  550THF     H612163   2.836   1.096   1.412 -0.6915  0.4110  1.9627
  550THF     H712164   2.912   1.094   1.558 -1.7440  0.0562 -0.1325
  550THF     C812165   3.058   1.117   1.385  0.5372 -0.1717  0.0982
  550THF     C912166   3.163   1.016   1.407  0.1772  0.2032  0.1133
  550THF    H1012167   3.083   1.215   1.425 -0.0315  0.3939 -0.8765
  550THF    H1112168   3.044   1.131   1.277  0.4602 -0.6560  0.0443
  550THF    H1212169   3.200   0.979   1.312 -2.1817 -0.3155 -0.6778
  550THF    H1312170   3.242   1.054   1.471  1.6939  0.8286 -2.0245
  551THF     O112171   1.205   1.178   1.808 -0.8378  0.6793 -0.4037
  551THF     C212172   1.122   1.284   1.786  0.2847 -0.1934 -0.4175
  551THF     C312173   1.265   1.143   1.680 -0.2785 -0.2595 -0.4010
  551THF     H412174   1.166   1.383   1.775 -0.0803 -0.0351 -0.4740
  551THF     H512175   1.048   1.284   1.867 -0.1406  1.9392 -0.7545
  551THF     H612176   1.360   1.191   1.658 -0.0552 -0.8312 -0.7108
  551THF     H712177   1.277   1.035   1.694  0.8467 -0.0997 -0.1161
  551THF     C812178   1.162   1.185   1.575 -0.6446 -0.3029  0.2744
  551THF     C912179   1.049   1.238   1.656  0.0493 -0.0362 -0.3199
  551THF    H1012180   1.132   1.103   1.510  1.2328 -1.9153  1.3448
  551THF    H1112181   1.207   1.265   1.516  1.3387 -1.7985 -0.3251
  551THF    H1212182   1.006   1.321   1.600 -1.0043 -0.3605 -0.0314
  551THF    H1312183   0.970   1.163   1.665 -0.1604  0.2329  0.1730
  552THF     O112184   2.306   1.710   2.514 -0.2210  0.1260  0.5346
  552THF     C212185   2.401   1.608   2.564 -0.3390  0.0818  0.7841
  552THF     C312186   2.312   1.828   2.596 -0.4131  0.0322  0.5258
  552THF     H412187   2.501   1.640   2.533 -0.2176 -1.0394 -0.0369
  552THF     H512188   2.379   1.507   2.531 -0.6371 -0.2198  1.8783
  552THF     H612189   2.369   1.912   2.557 -0.1067 -0.0822  0.7275
  552THF     H712190   2.210   1.863   2.612 -1.2453 -1.4468 -1.0943
  552THF     C812191   2.389   1.776   2.717  0.5643  0.4569  0.0320
  552THF     C912192   2.402   1.626   2.713 -0.6749  0.4499  0.5876
  552THF    H1012193   2.335   1.803   2.808  0.0887 -2.0428  0.5755
  552THF    H1112194   2.488   1.818   2.734  1.4819 -1.8394  0.7769
  552THF    H1212195   2.492   1.589   2.763  0.5590  1.4536 -0.8220
  552THF    H1312196   2.312   1.576   2.749 -1.4712  2.2047  1.1581
  553THF     O112197   2.919   3.223   4.686 -0.3322  0.1561  0.2010
  553THF     C212198   3.056   3.226   4.720  0.3867  0.5819 -0.8288
  553THF     C312199   2.896   3.093   4.621  0.0502  0.4183 -0.3036
  553THF     H412200   3.059   3.163   4.809  0.4320 -0.4677 -1.5489
  553THF     H512201   3.089   3.325   4.751 -1.4674  0.2724  2.5285
  553THF     H612202   2.828   3.044   4.691  1.4773 -0.3192  0.6059
  553THF     H712203   2.845   3.113   4.527 -0.4517  4.1992  0.6157
  553THF     C812204   3.039   3.023   4.603  0.0754 -0.5477 -0.7504
  553THF     C912205   3.131   3.150   4.613 -0.1370  0.9051 -0.3732
  553THF    H1012206   3.059   2.960   4.516 -0.5070 -2.7351  0.6261
  553THF    H1112207   3.046   2.958   4.691 -0.0485  0.0805 -0.2699
  553THF    H1212208   3.230   3.126   4.650  0.1165  1.8615 -0.4254
  553THF    H1312209   3.135   3.200   4.516  1.3250  0.6025 -0.4842
  554THF     O112210   4.256   2.952   1.179  0.2896 -0.0056  0.3526
  554THF     C212211   4.222   2.819   1.145 -0.0351  0.4861  0.0584
  554THF     C312212   4.339   2.943   1.294  0.1442 -0.2261  0.2135
  554THF     H412213   4.172   2.807   1.049  1.8463  0.3186 -0.9459
  554THF     H512214   4.160   2.772   1.222 -0.8871  0.5638 -0.5756
  554THF     H612215   4.386   3.041   1.310 -0.4180 -0.0562  0.8876
  554THF     H712216   4.280   2.915   1.381 -1.6311 -2.1539 -1.5051
  554THF     C812217   4.435   2.839   1.261 -0.8752  0.4060  0.6752
  554THF     C912218   4.368   2.764   1.144  0.5278 -0.0525  0.5810
  554THF    H1012219   4.441   2.785   1.355 -2.0387 -0.8039  0.0881
  554THF    H1112220   4.531   2.881   1.232  0.1594 -2.5736 -0.5983
  554THF    H1212221   4.405   2.784   1.044 -2.1427 -0.5953 -0.5891
  554THF    H1312222   4.380   2.660   1.174  0.5106 -0.4135 -0.6023
  555THF     O112223   2.769   1.854   5.183  0.0175 -0.1326  0.5197
  555THF     C212224   2.888   1.836   5.105 -0.6581  0.6159  0.7179
  555THF     C312225   2.789   1.832   5.322  0.2689 -0.5217 -0.1875
  555THF     H412226   2.898   1.927   5.047 -1.4990 -0.3075 -0.9427
  555THF     H512227   2.868   1.762   5.028 -2.4371 -0.8590  2.4835
  555THF     H612228   2.726   1.894   5.386  0.1586 -0.0212 -0.7683
  555THF     H712229   2.769   1.726   5.338 -0.5651 -0.1476  1.4668
  555THF     C812230   2.943   1.867   5.342 -0.1851  0.7290  0.1814
  555THF     C912231   3.000   1.805   5.214  0.2832 -0.8032  0.5842
  555THF    H1012232   2.981   1.839   5.440  0.2511  1.9144  0.3734
  555THF    H1112233   2.960   1.975   5.339 -0.7459  0.7947 -0.9105
  555THF    H1212234   3.096   1.851   5.194  0.7684 -0.9614  2.3434
  555THF    H1312235   3.004   1.696   5.223  1.3428 -0.8370 -0.2114
  556THF     O112236   3.846   4.718   1.082 -0.1823 -0.1047  0.1443
  556THF     C212237   3.751   4.669   1.180  0.4561 -0.1491 -0.4131
  556THF     C312238   3.977   4.734   1.136 -0.7142  0.1682 -1.3986
  556THF     H412239   3.745   4.560   1.173  0.6085 -0.3091  1.3883
  556THF     H512240   3.654   4.719   1.170 -0.0974 -0.4804  2.3228
  556THF     H612241   4.035   4.660   1.081 -3.2960 -1.0608 -2.6684
  556THF     H712242   4.013   4.835   1.118 -1.8220  0.7460 -0.5360
  556THF     C812243   3.967   4.712   1.285  0.8537  0.7389  0.0898
  556THF     C912244   3.818   4.720   1.308  0.5889 -0.0315 -0.0464
  556THF    H1012245   4.037   4.776   1.338  1.5866  0.4578 -0.5275
  556THF    H1112246   3.997   4.611   1.310 -0.8814  0.3466  0.7126
  556THF    H1212247   3.789   4.665   1.397 -1.2991 -1.9020 -1.6954
  556THF    H1312248   3.787   4.824   1.319  0.9767  0.1428 -0.5365
  557THF     O112249   3.153   0.238   3.891  0.2739  0.0280  0.3778
  557THF     C212250   3.049   0.156   3.836 -0.1137 -0.1676  0.3086
  557THF     C312251   3.118   0.374   3.888  0.2037  0.0507 -0.3863
  557THF     H412252   2.978   0.135   3.916  0.3429 -2.6644  0.1596
  557THF     H512253   3.080   0.064   3.786  1.0065  0.5704 -0.4088
  557THF     H612254   3.068   0.390   3.984  0.0097 -1.5283 -0.2002
  557THF     H712255   3.212   0.429   3.880 -0.0746  0.6578  0.3855
  557THF     C812256   3.029   0.391   3.767  0.9693  0.1687  0.1278
  557THF     C912257   2.982   0.248   3.729 -0.1412 -0.3000 -0.0288
  557THF    H1012258   3.081   0.449   3.691  0.8707  1.7611  1.2348
  557THF    H1112259   2.940   0.447   3.798  1.1199 -0.6094  2.0599
  557THF    H1212260   2.873   0.242   3.719  0.0445 -3.4234 -1.5280
  557THF    H1312261   3.024   0.230   3.630 -0.9088  1.8107 -0.8084
  558THF     O112262   4.125   2.084   3.221 -0.2542 -0.0156  0.4838
  558THF     C212263   4.101   2.220   3.269  0.2696 -0.3236 -0.1340
  558THF     C312264   4.147   1.988   3.322  0.2220  0.1591  0.0437
  558THF     H412265   4.022   2.272   3.215  0.0349 -2.0291 -1.5376
  558THF     H512266   4.190   2.281   3.258 -0.0482  0.2906  0.6113
  558THF     H612267   4.085   1.899   3.307  0.1992  0.4651 -1.8872
  558THF     H712268   4.249   1.950   3.322 -0.4055 -1.6258 -0.1470
  558THF     C812269   4.120   2.064   3.452  0.4728  1.0437  0.2167
  558THF     C912270   4.059   2.201   3.415  0.2740  0.0182 -0.0756
  558THF    H1012271   4.216   2.082   3.500  1.0579  0.5145 -0.7228
  558THF    H1112272   4.060   2.010   3.526  0.5218  0.7460  0.0399
  558THF    H1212273   3.951   2.186   3.414  0.3912 -0.9468 -1.3908
  558THF    H1312274   4.087   2.279   3.485 -0.3410  1.5348 -1.4588
  559THF     O112275   4.178   4.876   0.870 -0.2936 -0.2665  0.3727
  559THF     C212276   4.257   4.761   0.892 -0.9892 -0.6468 -0.2297
  559THF     C312277   4.268   4.981   0.880  0.2893  0.6551 -0.1290
  559THF     H412278   4.303   4.733   0.797  2.1336 -1.4739  1.3898
  559THF     H512279   4.211   4.674   0.938 -0.2826 -1.3884 -0.8979
  559THF     H612280   4.333   5.002   0.795 -1.5026 -1.2903 -2.1018
  559THF     H712281   4.208   5.071   0.891 -1.1878 -0.1204 -1.5159
  559THF     C812282   4.358   4.945   0.993  0.5892 -0.4026 -0.2770
  559THF     C912283   4.376   4.801   0.977 -0.2066  0.3593 -0.2392
  559THF    H1012284   4.308   4.960   1.089 -2.0627  3.6085 -2.0126
  559THF    H1112285   4.446   5.008   1.007  0.6480 -0.1462 -1.6652
  559THF    H1212286   4.466   4.779   0.918 -0.5508  2.4423 -1.6754
  559THF    H1312287   4.379   4.752   1.074 -1.8461 -0.0445 -0.3762
  560THF     O112288   3.498   3.019   5.283 -0.2010  0.0790  0.0957
  560THF     C212289   3.587   3.073   5.178  0.0756 -0.3152  0.2974
  560THF     C312290   3.586   2.928   5.350 -0.3838 -0.9723 -0.1989
  560THF     H412291   3.668   3.139   5.208 -0.5272  0.9313 -0.7457
  560THF     H512292   3.519   3.118   5.106  1.0147  1.4138  0.4476
  560THF     H612293   3.662   2.984   5.405  0.4604 -0.5760 -1.7209
  560THF     H712294   3.538   2.857   5.418  0.3202  0.3055  1.7278
  560THF     C812295   3.662   2.864   5.242  0.1772  0.5488 -0.3410
  560THF     C912296   3.649   2.949   5.123 -0.2396 -0.2532  0.2819
  560THF    H1012297   3.605   2.772   5.230 -0.2447  1.0068 -2.2225
  560THF    H1112298   3.758   2.823   5.274  0.2834 -0.2413 -1.5961
  560THF    H1212299   3.746   2.964   5.075 -1.4326 -2.0115 -2.9715
  560THF    H1312300   3.578   2.902   5.056  0.5091 -1.0865  0.0456
  561THF     O112301   5.317   1.359   1.396 -0.6108  0.4657 -0.1121
  561THF     C212302   5.415   1.401   1.494 -0.4009 -0.0837 -0.8938
  561THF     C312303   5.354   1.231   1.339  0.6491 -0.2197 -0.0613
  561THF     H412304   5.374   1.393   1.595  0.2188  1.8278 -0.4431
  561THF     H512305   5.448   1.505   1.489 -0.9686  0.3271  1.8647
  561THF     H612306   5.270   1.162   1.338  2.0373 -2.0669  1.6427
  561THF     H712307   5.401   1.243   1.241 -0.1032 -0.5078 -0.4639
  561THF     C812308   5.459   1.175   1.438 -0.2305 -0.2434 -0.2925
  561THF     C912309   5.528   1.299   1.485 -0.2885  0.0934  0.2419
  561THF    H1012310   5.533   1.107   1.397  0.5839  0.5391 -0.1722
  561THF    H1112311   5.419   1.116   1.520 -0.2239 -0.6482 -0.5813
  561THF    H1212312   5.565   1.287   1.587 -0.5092 -1.2368  0.1833
  561THF    H1312313   5.599   1.330   1.409  0.7617 -1.9203  0.3126
  562THF     O112314   0.476   1.851   0.806  0.3472 -0.1790 -0.9413
  562THF     C212315   0.471   1.922   0.925  0.1313 -0.1685  0.7894
  562THF     C312316   0.461   1.712   0.837 -0.4435  0.2344  0.1169
  562THF     H412317   0.366   1.948   0.923 -0.1252 -1.2017  0.1109
  562THF     H512318   0.526   2.016   0.919 -3.0385  1.8259  1.0566
  562THF     H612319   0.355   1.686   0.840 -0.7186  1.3366  2.1399
  562THF     H712320   0.513   1.667   0.753 -1.6141  0.0759 -0.5382
  562THF     C812321   0.531   1.689   0.971  0.0373  0.0698 -0.0778
  562THF     C912322   0.501   1.822   1.036 -0.0224  0.2698 -0.0498
  562THF    H1012323   0.636   1.665   0.959 -0.2357 -0.6428 -1.1389
  562THF    H1112324   0.493   1.605   1.030 -0.3893  0.3349  0.0341
  562THF    H1212325   0.416   1.805   1.101  0.0284 -1.9342 -0.4857
  562THF    H1312326   0.578   1.845   1.110 -0.5332  2.2362 -0.0672
  563THF     O112327   0.088   0.304   4.837 -0.2391 -0.1236  0.1726
  563THF     C212328   0.092   0.430   4.771 -0.3434 -0.1687  0.0159
  563THF     C312329   0.211   0.267   4.891 -0.4200 -0.1671  0.3585
  563THF     H412330  -0.005   0.480   4.764 -1.5462 -2.5857 -1.9870
  563THF     H512331   0.132   0.409   4.672 -1.5002  1.4541 -0.8475
  563THF     H612332   0.193   0.221   4.988 -0.7586 -0.1671  0.2942
  563THF     H712333   0.264   0.194   4.829 -0.7904  1.6096 -2.2060
  563THF     C812334   0.296   0.390   4.894 -0.0833 -0.0662  0.0624
  563THF     C912335   0.197   0.502   4.858 -0.1650 -0.2451 -0.5422
  563THF    H1012336   0.357   0.383   4.803 -1.9776 -1.7454 -1.1652
  563THF    H1112337   0.358   0.407   4.982 -1.3097  0.1397  0.9024
  563THF    H1212338   0.141   0.535   4.946 -0.4099  2.5627 -1.6599
  563THF    H1312339   0.239   0.589   4.808 -1.8359  0.5587 -0.6333
  564THF     O112340   3.892   3.012   1.549  0.1424  0.7060  0.4432
  564THF     C212341   3.802   3.105   1.513  0.1806 -0.8266 -0.2197
  564THF     C312342   3.992   3.001   1.445  0.3685 -0.4279  0.2121
  564THF     H412343   3.741   3.125   1.601 -0.8239 -0.5508 -0.9567
  564THF     H512344   3.738   3.069   1.431 -0.6882  1.7116 -0.7430
  564THF     H612345   4.084   2.956   1.481  1.1160  1.3009  0.5411
  564THF     H712346   3.953   2.924   1.378  0.0572 -1.5720  1.6499
  564THF     C812347   3.993   3.147   1.381 -0.4615 -0.0777  0.1502
  564THF     C912348   3.890   3.220   1.466  0.4805 -0.1932 -0.6123
  564THF    H1012349   3.972   3.142   1.274  2.7628 -0.3218 -0.5578
  564THF    H1112350   4.094   3.187   1.382 -0.2221 -0.6692  1.0870
  564THF    H1212351   3.936   3.259   1.557  0.2965  3.9495 -2.0685
  564THF    H1312352   3.841   3.302   1.414  0.4216  0.2527  0.1377
  565THF     O112353   0.915   4.440   4.907 -0.1340 -0.8121  0.3258
  565THF     C212354   0.882   4.357   4.797 -0.7212 -0.7317  0.2829
  565THF     C312355   1.043   4.505   4.885  0.5087  0.9909  0.3210
  565THF     H412356   0.777   4.328   4.797 -1.1497  0.7014 -1.5856
  565THF     H512357   0.940   4.267   4.818 -1.4722 -0.6385  3.2261
  565THF     H612358   1.063   4.581   4.961 -2.1424 -2.1001  4.5427
  565THF     H712359   1.125   4.434   4.900  1.0721  1.9884  2.2642
  565THF     C812360   1.018   4.550   4.742  0.4565 -0.3791  0.0715
  565THF     C912361   0.948   4.430   4.678  0.4992  0.7375 -0.0333
  565THF    H1012362   1.111   4.573   4.690  1.3825 -3.2436  0.2906
  565THF    H1112363   0.963   4.644   4.741  2.1717  0.6674  0.4795
  565THF    H1212364   0.871   4.452   4.605 -0.6745 -0.7146  0.7059
  565THF    H1312365   1.013   4.365   4.619  2.2498  2.4081 -0.0404
  566THF     O112366   1.855   5.121   4.448 -0.3693  0.1169 -0.0791
  566THF     C212367   1.741   5.085   4.513 -0.0536 -0.2210 -0.0802
  566THF     C312368   1.966   5.073   4.523  0.6170  1.1164 -0.1064
  566THF     H412369   1.695   5.006   4.453  1.5732 -1.1275 -0.1726
  566THF     H512370   1.664   5.161   4.521 -1.3460 -1.6167  1.5754
  566THF     H612371   2.045   5.021   4.470 -0.3308  0.6535 -1.0882
  566THF     H712372   2.012   5.156   4.577  0.8446 -0.6450  2.6143
  566THF     C812373   1.905   4.984   4.632 -0.5690  0.1503 -0.1166
  566THF     C912374   1.769   5.040   4.657  0.1940 -0.7207 -0.0068
  566THF    H1012375   1.974   4.972   4.715  1.2048 -0.7812 -1.6271
  566THF    H1112376   1.906   4.884   4.588 -0.7619 -0.0294  0.2919
  566THF    H1212377   1.691   4.966   4.678 -1.9384  1.5765  0.6431
  566THF    H1312378   1.754   5.123   4.725 -1.3165  0.6046 -1.8174
  567THF     O112379   3.256   3.086   4.331  0.2495  0.2780 -0.0124
  567THF     C212380   3.157   3.035   4.242 -0.7777 -0.1752  0.6485
  567THF     C312381   3.370   3.008   4.332  0.8268  0.6008 -0.5852
  567THF     H412382   3.157   3.095   4.151 -0.6765  1.0041  1.4002
  567THF     H512383   3.057   3.047   4.284 -0.6040  2.3481  0.5284
  567THF     H612384   3.460   3.066   4.310  0.5563  1.3556  0.2534
  567THF     H712385   3.379   2.963   4.430  0.0664  0.2343 -0.6718
  567THF     C812386   3.348   2.901   4.219 -0.6188 -0.1542 -0.4763
  567THF     C912387   3.199   2.901   4.195  0.3382  0.1872  0.0795
  567THF    H1012388   3.384   2.799   4.234 -1.2318 -0.2907  0.0960
  567THF    H1112389   3.400   2.924   4.127  3.0449 -2.8021  0.6743
  567THF    H1212390   3.177   2.883   4.089  2.7980 -2.5290 -0.1022
  567THF    H1312391   3.162   2.819   4.256  1.5310  1.2822  2.4038
  568THF     O112392   1.283   3.186   3.905 -0.0137 -0.5154  0.7171
  568THF     C212393   1.270   3.306   3.836 -0.5602 -0.6832 -0.2559
  568THF     C312394   1.369   3.215   4.021 -0.1133 -0.2568 -0.0893
  568THF     H412395   1.173   3.351   3.859  0.0363 -0.3059  1.7160
  568THF     H512396   1.266   3.293   3.728  0.6243 -0.2049 -0.3655
  568THF     H612397   1.317   3.186   4.112  1.3632 -0.9229  0.5670
  568THF     H712398   1.452   3.145   4.025  3.0605  3.2123  0.1358
  568THF     C812399   1.422   3.364   4.017  0.0445  0.4722  0.3654
  568THF     C912400   1.385   3.400   3.876 -0.2833 -0.2251 -0.1174
  568THF    H1012401   1.529   3.365   4.033  0.2970  0.4962 -1.1970
  568THF    H1112402   1.371   3.418   4.097 -1.3082 -1.4390  0.8770
  568THF    H1212403   1.357   3.505   3.883  3.2966  0.7815  1.3608
  568THF    H1312404   1.464   3.388   3.802 -1.7503 -0.3283 -1.7127
  569THF     O112405   1.950   2.471   4.293 -0.5176  0.1948 -0.1683
  569THF     C212406   1.936   2.360   4.379 -0.3842  0.5089 -0.8735
  569THF     C312407   1.988   2.423   4.164 -0.0585  0.2460 -0.4319
  569THF     H412408   1.843   2.318   4.340 -0.1918 -1.3861  0.5633
  569THF     H512409   1.927   2.379   4.486 -0.6028 -3.3500 -0.0469
  569THF     H612410   1.908   2.360   4.125 -1.3732  1.2690  0.4788
  569THF     H712411   2.004   2.499   4.087 -1.7918 -0.2244 -1.3144
  569THF     C812412   2.091   2.319   4.208  0.2896 -0.1780 -0.3089
  569THF     C912413   2.054   2.274   4.346  0.0319  0.2714 -0.1846
  569THF    H1012414   2.177   2.385   4.223  0.0873  0.0954 -0.3331
  569THF    H1112415   2.110   2.244   4.131  0.1295 -0.4347 -0.1008
  569THF    H1212416   2.028   2.168   4.348 -1.7170  0.6526 -0.7075
  569THF    H1312417   2.140   2.293   4.411  1.4550 -1.5545 -1.4406
  570THF     O112418   2.360   3.423   3.691  0.8334 -0.8156  0.2373
  570THF     C212419   2.248   3.378   3.626 -0.3390 -0.1443  0.1904
  570THF     C312420   2.356   3.565   3.686 -0.2889  0.2794 -0.0304
  570THF     H412421   2.222   3.275   3.651  1.1825 -0.7463 -0.6146
  570THF     H512422   2.246   3.378   3.517  0.1285 -3.3852  0.0587
  570THF     H612423   2.417   3.613   3.762  0.5742 -1.2380  0.2971
  570THF     H712424   2.387   3.613   3.593  1.2111 -0.5288  0.0023
  570THF     C812425   2.203   3.596   3.710 -0.1526 -0.0317  0.0112
  570THF     C912426   2.135   3.460   3.684 -0.0452 -0.2308  0.3584
  570THF    H1012427   2.166   3.670   3.638  0.3481 -0.5670 -0.8026
  570THF    H1112428   2.190   3.631   3.812 -0.8844  1.6288 -0.6015
  570THF    H1212429   2.102   3.409   3.775 -0.1180 -1.4699 -0.3564
  570THF    H1312430   2.053   3.459   3.612  1.0266  0.1116 -0.8908
  571THF     O112431   3.692   1.369   3.746 -0.3479 -0.8273  0.1082
  571THF     C212432   3.700   1.250   3.835 -0.7977  0.2522  0.1785
  571THF     C312433   3.824   1.424   3.742 -0.8087 -0.3188  0.1021
  571THF     H412434   3.608   1.192   3.830 -1.1032  0.7359  0.1085
  571THF     H512435   3.719   1.288   3.935  2.5919 -0.1680 -0.1851
  571THF     H612436   3.829   1.470   3.644  0.0970  0.1399  0.3568
  571THF     H712437   3.829   1.490   3.828  3.2384 -0.7706  0.4334
  571THF     C812438   3.912   1.307   3.769  0.3208  0.6428 -0.5223
  571THF     C912439   3.825   1.185   3.782 -0.1360  0.7316 -0.3484
  571THF    H1012440   3.987   1.326   3.846  1.8565 -0.8391 -1.5713
  571THF    H1112441   3.974   1.277   3.685 -2.5793  0.3626 -2.6970
  571THF    H1212442   3.801   1.142   3.684 -2.3592  3.3609 -1.0683
  571THF    H1312443   3.877   1.120   3.853  0.3958  0.8331 -0.6383
  572THF     O112444   1.793   4.739   1.338  0.3074 -0.4616 -0.7437
  572THF     C212445   1.669   4.766   1.271 -0.8022 -0.2893 -0.2191
  572THF     C312446   1.822   4.856   1.412  0.5515 -0.5318  0.2805
  572THF     H412447   1.633   4.685   1.207 -0.1279 -1.2066  0.5331
  572THF     H512448   1.682   4.858   1.214  1.2589 -0.0625  0.5164
  572THF     H612449   1.890   4.840   1.496  1.4952  1.6232 -0.0149
  572THF     H712450   1.870   4.929   1.347 -2.5437  1.4161 -0.0146
  572THF     C812451   1.686   4.911   1.452 -0.3647  0.3810 -0.3003
  572THF     C912452   1.586   4.817   1.384  0.1894  0.1471 -0.4374
  572THF    H1012453   1.665   5.011   1.415 -1.8828  0.6283  1.0796
  572THF    H1112454   1.670   4.924   1.559 -0.0265 -2.1340  0.1247
  572THF    H1212455   1.551   4.731   1.441 -2.3373  2.2791  1.4893
  572THF    H1312456   1.490   4.864   1.360 -0.2605 -0.5913 -0.1260
  573THF     O112457   2.191   3.662   2.443 -0.2948 -0.3347  0.7667
  573THF     C212458   2.147   3.528   2.434 -0.6939 -0.4147  0.0733
  573THF     C312459   2.128   3.728   2.336 -0.1431  0.1948  0.1525
  573THF     H412460   2.170   3.468   2.522 -1.3304  0.7394  1.0532
  573THF     H512461   2.186   3.477   2.346  2.0433  0.7649  0.5133
  573THF     H612462   2.111   3.835   2.340 -1.7051 -0.0705  1.5730
  573THF     H712463   2.201   3.715   2.256 -0.8374  1.4881 -0.7338
  573THF     C812464   1.988   3.661   2.322  0.1581 -0.2162 -0.0667
  573THF     C912465   1.999   3.542   2.427  0.7116 -0.3009 -0.3422
  573THF    H1012466   1.973   3.624   2.221 -3.2901 -3.6485  1.4805
  573THF    H1112467   1.915   3.737   2.350  0.1291 -0.5481  0.7941
  573THF    H1212468   1.957   3.570   2.523  0.4040  0.3620 -0.6641
  573THF    H1312469   1.949   3.452   2.392  2.1886 -0.2343 -2.9013
  574THF     O112470   2.928   4.848   5.086 -0.3562  0.0591  0.4871
  574THF     C212471   2.976   4.956   5.013 -0.3986 -0.5235  0.2322
  574THF     C312472   2.847   4.773   5.000  0.1087  0.2492 -1.0279
  574THF     H412473   3.064   4.928   4.956  0.5850  1.2559  0.7871
  574THF     H512474   2.992   5.051   5.065  0.3377 -0.1485 -0.6540
  574THF     H612475   2.905   4.722   4.924  0.3505 -1.5628  0.3215
  574THF     H712476   2.782   4.706   5.056 -0.1775  0.5471 -1.0007
  574THF     C812477   2.763   4.885   4.940 -0.7768 -0.0209  0.4172
  574THF     C912478   2.871   4.984   4.911 -0.5049  0.2280  0.2273
  574THF    H1012479   2.689   4.918   5.013 -0.9730  0.7835 -0.1314
  574THF    H1112480   2.703   4.848   4.857 -1.0096  1.0054  0.1102
  574THF    H1212481   2.913   4.975   4.811 -0.1047  1.3820  0.2685
  574THF    H1312482   2.820   5.080   4.918  0.1353  0.5270  0.9342
  575THF     O112483   2.929   5.307   3.786 -0.1662 -0.0639  0.5088
  575THF     C212484   3.020   5.191   3.768 -0.3455  0.0788 -0.1898
  575THF     C312485   2.869   5.335   3.661  0.6952 -0.4617  0.5157
  575THF     H412486   3.037   5.133   3.859  0.0033 -0.1721 -0.4132
  575THF     H512487   3.117   5.237   3.753 -1.2117  1.9857 -0.2956
  575THF     H612488   2.771   5.380   3.677 -0.0593 -2.1291  0.7745
  575THF     H712489   2.928   5.402   3.599 -0.4652  0.9099  0.8365
  575THF     C812490   2.852   5.193   3.604  0.2570  0.4632  0.6592
  575THF     C912491   2.964   5.111   3.653  0.4526  0.1288 -0.0673
  575THF    H1012492   2.844   5.203   3.496  0.4967  0.5924  0.6507
  575THF    H1112493   2.755   5.152   3.632  0.2637  0.9557  1.4505
  575THF    H1212494   2.911   5.026   3.696  2.9795 -1.6024 -0.1502
  575THF    H1312495   3.037   5.082   3.577 -1.0468  0.1380 -1.5786
  576THF     O112496   0.430   2.971   3.503 -0.7526 -0.1339 -0.1043
  576THF     C212497   0.365   2.948   3.376 -0.4071 -0.6183 -0.1562
  576THF     C312498   0.569   2.941   3.491 -0.0190  0.1963 -0.1032
  576THF     H412499   0.351   3.047   3.332  3.0855  0.2024  0.2812
  576THF     H512500   0.268   2.901   3.392 -1.3725  1.6026  1.0029
  576THF     H612501   0.612   3.032   3.449  0.8562  1.3894  3.0713
  576THF     H712502   0.618   2.922   3.587  0.1872  2.1162  0.2117
  576THF     C812503   0.569   2.831   3.381 -0.7169 -0.2133  0.3737
  576THF     C912504   0.453   2.852   3.291  0.6752 -0.4431 -0.8816
  576THF    H1012505   0.570   2.734   3.430 -1.2535  0.9808  2.8889
  576THF    H1112506   0.664   2.842   3.328  0.1075 -0.7225  1.7147
  576THF    H1212507   0.482   2.895   3.195  3.2777  0.6010  0.2520
  576THF    H1312508   0.392   2.762   3.285  0.3177 -0.0843 -3.8859
  577THF     O112509   1.339   5.094   0.542 -0.2477 -0.1798  0.2430
  577THF     C212510   1.261   5.176   0.625 -0.4199 -0.2952  0.2116
  577THF     C312511   1.262   4.975   0.532  0.1949  0.3129 -0.4651
  577THF     H412512   1.180   5.220   0.567  0.3870  1.3307  0.2868
  577THF     H512513   1.328   5.248   0.672  0.4139  0.0636 -1.4497
  577THF     H612514   1.169   4.993   0.478 -2.0746 -0.3605  2.9425
  577THF     H712515   1.311   4.894   0.477 -0.1717  0.5214 -1.1090
  577THF     C812516   1.228   4.946   0.683 -0.3436  0.3532  0.0968
  577THF     C912517   1.204   5.085   0.738  1.2053  0.0959 -0.5440
  577THF    H1012518   1.312   4.889   0.722 -0.4421  1.0108  1.2976
  577THF    H1112519   1.137   4.886   0.685  0.9952 -1.7624  1.1817
  577THF    H1212520   1.097   5.105   0.742  1.0963 -0.5719 -0.0839
  577THF    H1312521   1.249   5.108   0.835  1.8934 -0.0362 -0.8247
  578THF     O112522   3.273   1.795   0.856 -0.3127  0.0393 -0.1993
  578THF     C212523   3.190   1.696   0.911  0.5864  1.0695  0.0914
  578THF     C312524   3.262   1.805   0.719  0.0225 -0.3806  0.4190
  578THF     H412525   3.146   1.727   1.006 -0.2014  2.7719 -0.7745
  578THF     H512526   3.248   1.607   0.935 -0.8775 -0.3874 -1.4368
  578THF     H612527   3.211   1.901   0.714  0.5225 -0.1744 -1.5253
  578THF     H712528   3.360   1.818   0.673  0.2430  1.9923  1.3896
  578THF     C812529   3.186   1.682   0.671  0.5281  0.4569 -0.1094
  578THF     C912530   3.092   1.667   0.796  0.2038 -0.1003  0.9205
  578THF    H1012531   3.258   1.602   0.654 -0.3508 -0.3128 -0.3185
  578THF    H1112532   3.136   1.700   0.575 -0.1798  1.0877  0.3689
  578THF    H1212533   3.013   1.742   0.788  1.3747  1.2905  1.9859
  578THF    H1312534   3.061   1.564   0.812 -0.0069 -0.2361 -0.2650
  579THF     O112535   1.734   1.504   0.217  0.2216 -0.0019  0.0669
  579THF     C212536   1.820   1.550   0.110  0.0453 -0.1678  0.1372
  579THF     C312537   1.612   1.481   0.145  0.0227 -0.5225  0.4922
  579THF     H412538   1.927   1.536   0.125  0.1473 -1.7422 -1.7423
  579THF     H512539   1.801   1.650   0.070 -0.7128 -1.2960 -2.5133
  579THF     H612540   1.542   1.430   0.211  1.3064 -1.5149  1.1447
  579THF     H712541   1.571   1.574   0.105 -0.6206  0.0038  2.2703
  579THF     C812542   1.659   1.393   0.026  0.5631  0.4097 -0.0467
  579THF     C912543   1.788   1.455  -0.009  0.0212  0.6285  1.0057
  579THF    H1012544   1.608   1.376  -0.068  0.6865 -0.9179  0.1058
  579THF    H1112545   1.674   1.294   0.068  0.7194  0.1816 -0.6321
  579THF    H1212546   1.866   1.380  -0.023  0.7269  1.4321  0.5535
  579THF    H1312547   1.778   1.521  -0.094 -1.5289  2.2691  2.3750
  580THF     O112548   3.037   2.890   2.009  0.7603  0.0450  0.4234
  580THF     C212549   3.165   2.841   1.961 -0.0587 -0.9148  0.2332
  580THF     C312550   2.977   2.786   2.090 -0.3175  0.0220  1.2485
  580THF     H412551   3.245   2.887   2.019  0.8588 -0.8735 -1.0430
  580THF     H512552   3.187   2.881   1.862 -1.3466  1.0243  0.6552
  580THF     H612553   3.017   2.787   2.192  0.6179  0.6531  0.8895
  580THF     H712554   2.869   2.798   2.088 -0.3586 -0.3631 -0.6858
  580THF     C812555   3.032   2.655   2.023  0.2720 -0.5792  0.0524
  580THF     C912556   3.167   2.692   1.971  0.3737 -0.5040 -0.4898
  580THF    H1012557   2.974   2.627   1.935  0.4445 -0.1130 -0.2087
  580THF    H1112558   3.023   2.566   2.085  0.5300  0.2783  1.3622
  580THF    H1212559   3.241   2.665   2.046  0.1899 -1.0385 -0.4953
  580THF    H1312560   3.197   2.640   1.880  4.0118 -1.0203  0.8444
  581THF     O112561   5.484   1.277   4.752 -0.3543  0.6286  0.4830
  581THF     C212562   5.354   1.243   4.703  0.4554 -0.3711  0.1077
  581THF     C312563   5.469   1.390   4.844 -0.2316 -0.3487  0.0140
  581THF     H412564   5.342   1.141   4.666 -1.5744  0.0855 -0.5930
  581THF     H512565   5.334   1.309   4.619  0.7420 -0.1068  0.2464
  581THF     H612566   5.549   1.398   4.918 -0.5947  1.1472  0.2840
  581THF     H712567   5.496   1.477   4.783  3.3994 -1.7564 -0.6582
  581THF     C812568   5.320   1.388   4.886  0.2683 -0.1684 -0.0101
  581THF     C912569   5.259   1.272   4.815  0.3050 -0.1025 -0.2466
  581THF    H1012570   5.267   1.482   4.869 -1.2148 -0.4880  2.3585
  581THF    H1112571   5.304   1.380   4.994  1.8697  3.4747  0.6620
  581THF    H1212572   5.242   1.183   4.876 -2.7122 -0.7454 -1.8391
  581THF    H1312573   5.159   1.309   4.794  0.5160 -0.2331 -1.5645
  582THF     O112574   5.194   5.251   1.070 -0.2710 -0.7426  0.4325
  582THF     C212575   5.240   5.347   0.974 -0.2540  0.8780 -0.0755
  582THF     C312576   5.264   5.127   1.047 -0.1367  0.7365 -0.1367
  582THF     H412577   5.246   5.445   1.021  0.3969  0.8407 -0.0789
  582THF     H512578   5.169   5.357   0.891  0.8876  1.9735 -0.9646
  582THF     H612579   5.259   5.054   1.127 -1.0669 -0.9450 -1.6293
  582THF     H712580   5.209   5.083   0.963 -0.5016 -1.2160  1.0558
  582THF     C812581   5.400   5.163   0.992 -0.4828  0.0330  0.8677
  582THF     C912582   5.376   5.293   0.922 -0.5838 -0.4585  0.2711
  582THF    H1012583   5.446   5.082   0.936  1.6672 -0.6640  3.4254
  582THF    H1112584   5.471   5.168   1.074  2.3029 -2.2516 -1.2002
  582THF    H1212585   5.458   5.365   0.922 -0.6282 -0.4074  0.4907
  582THF    H1312586   5.357   5.280   0.816  0.0264 -2.2286  0.3442
  583THF     O112587   0.498   2.504   1.157 -0.5092 -0.0765 -0.0485
  583THF     C212588   0.371   2.483   1.207 -0.6814 -0.3142  0.1722
  583THF     C312589   0.496   2.462   1.019  0.2996 -0.8496  0.1616
  583THF     H412590   0.310   2.569   1.180  0.9450  1.5613  2.0644
  583THF     H512591   0.373   2.481   1.316 -0.0765 -0.7856  0.1581
  583THF     H612592   0.444   2.537   0.960  0.7384 -0.8744 -0.2681
  583THF     H712593   0.594   2.453   0.971  0.1873  1.1567 -0.5173
  583THF     C812594   0.422   2.332   1.031  0.2357 -0.0192  0.0005
  583THF     C912595   0.336   2.353   1.150  0.6852  0.4979 -0.1331
  583THF    H1012596   0.487   2.251   1.064  1.2303  1.0093  0.6194
  583THF    H1112597   0.359   2.296   0.949 -0.9081  0.3664  0.6929
  583THF    H1212598   0.231   2.355   1.120  0.4713  0.9535  0.6061
  583THF    H1312599   0.346   2.267   1.217  2.5748  0.5932 -0.2501
  584THF     O112600   1.787   3.075   0.651 -0.4602  0.3484 -0.1579
  584THF     C212601   1.719   2.986   0.558 -0.3700 -0.2733 -0.2966
  584THF     C312602   1.917   3.089   0.595 -0.2403 -0.2623 -0.0830
  584THF     H412603   1.616   2.980   0.591 -0.2605  1.2794  0.3986
  584THF     H512604   1.761   2.885   0.568  0.7193 -0.0950 -2.5530
  584THF     H612605   1.967   3.181   0.626  1.2137 -1.1742  0.3625
  584THF     H712606   1.985   3.008   0.619 -0.3931  0.2168  2.1156
  584THF     C812607   1.893   3.095   0.448  0.0013 -0.5351 -0.2920
  584THF     C912608   1.747   3.049   0.426  0.2899  0.5806  0.5346
  584THF    H1012609   1.969   3.046   0.388  0.9933 -1.9051  1.9534
  584THF    H1112610   1.895   3.199   0.415  1.1430  0.5191  2.6947
  584THF    H1212611   1.666   3.114   0.391 -0.4701  0.0234  1.2115
  584THF    H1312612   1.755   2.965   0.358  1.8370  0.7727  0.4453
  585THF     O112613   5.072   3.387   3.092  0.0872 -0.1360  1.0250
  585THF     C212614   5.206   3.370   3.139  0.0202 -0.2958 -1.0601
  585THF     C312615   5.088   3.456   2.970  0.2315  0.1719 -0.3324
  585THF     H412616   5.210   3.283   3.203  0.3430 -2.4201 -3.7984
  585THF     H512617   5.245   3.450   3.202  1.8462 -0.1227 -2.3262
  585THF     H612618   5.008   3.437   2.898  0.2651  1.5814 -0.7781
  585THF     H712619   5.092   3.560   3.002  1.7907 -0.3409  1.2414
  585THF     C812620   5.220   3.400   2.908  0.9874 -0.4339 -0.1812
  585THF     C912621   5.298   3.347   3.023  0.4704  0.0862 -0.2033
  585THF    H1012622   5.277   3.483   2.867  1.9839 -1.2547 -0.5324
  585THF    H1112623   5.186   3.317   2.845  1.8147 -2.0650  1.4232
  585THF    H1212624   5.316   3.242   3.001  1.8522 -0.1002  1.6266
  585THF    H1312625   5.393   3.398   3.032  0.8221 -0.7392  0.9021
  586THF     O112626   2.564   3.146   3.491  0.1886  0.3336  0.3277
  586THF     C212627   2.635   3.206   3.598 -0.1851  0.8337  0.0814
  586THF     C312628   2.622   3.204   3.375 -0.1837  0.6843  0.7027
  586THF     H412629   2.612   3.154   3.691  1.4583 -1.4339 -0.6765
  586THF     H512630   2.617   3.312   3.616 -0.0500  0.6661  1.3169
  586THF     H612631   2.582   3.137   3.298  0.4687 -1.4603  2.1215
  586THF     H712632   2.591   3.307   3.358  1.2606  1.0942  0.4441
  586THF     C812633   2.775   3.193   3.402  0.1937  0.1678  0.4714
  586THF     C912634   2.784   3.188   3.557  0.7637  0.0622  0.4049
  586THF    H1012635   2.826   3.270   3.344  0.0328  0.1868  0.3563
  586THF    H1112636   2.809   3.097   3.361 -0.7768  0.5178 -1.2441
  586THF    H1212637   2.819   3.091   3.593  1.0180  0.5724  1.5600
  586THF    H1312638   2.852   3.261   3.601  3.2099 -1.1761 -1.0661
  587THF     O112639   0.943   4.927   4.358  0.3417  0.4434 -0.0975
  587THF     C212640   0.973   4.791   4.389  0.1744 -0.0890 -0.0655
  587THF     C312641   1.067   4.992   4.394  0.2458 -0.1246 -0.2650
  587THF     H412642   0.902   4.718   4.348 -1.2105  1.1045  0.1483
  587THF     H512643   0.987   4.772   4.495  0.6910  0.5697 -0.0142
  587THF     H612644   1.064   5.094   4.354 -0.7961  0.2267  0.6568
  587THF     H712645   1.093   5.005   4.499  2.2778  0.2538 -0.7566
  587THF     C812646   1.172   4.905   4.329 -0.0833  0.4457  0.2986
  587THF     C912647   1.104   4.766   4.321 -0.7172  0.3860  0.4390
  587THF    H1012648   1.260   4.904   4.394 -1.5464  0.6760  2.3991
  587THF    H1112649   1.194   4.933   4.226 -0.4458 -1.9628 -0.4987
  587THF    H1212650   1.102   4.733   4.217  3.0834 -2.2699  0.9922
  587THF    H1312651   1.172   4.700   4.376 -0.1594  1.2292  0.7783
  588THF     O112652   4.719   5.026   0.930  0.3349 -0.8492 -0.0893
  588THF     C212653   4.789   4.916   0.961 -0.4837  0.5553 -0.4344
  588THF     C312654   4.812   5.128   0.894 -0.4921 -0.5467  0.4904
  588THF     H412655   4.750   4.832   0.904  0.3349 -1.8468  2.2598
  588THF     H512656   4.771   4.882   1.063  0.5354  1.9710  0.2597
  588THF     H612657   4.758   5.197   0.830  1.5649 -0.5159 -1.3084
  588THF     H712658   4.837   5.175   0.989  1.1379  0.6639 -0.4816
  588THF     C812659   4.941   5.062   0.842  1.0822 -0.5452 -0.1436
  588THF     C912660   4.943   4.946   0.931  0.0164  0.1984 -0.6496
  588THF    H1012661   5.023   5.131   0.863 -0.5859  1.3627  0.3800
  588THF    H1112662   4.924   5.040   0.737 -2.3390  1.5804 -0.1873
  588THF    H1212663   5.000   4.864   0.887 -0.1901 -0.6533  0.6413
  588THF    H1312664   4.991   4.980   1.022 -0.2726  1.4199 -0.9392
  589THF     O112665   3.821   2.216   1.865 -0.0278 -0.5065  0.4810
  589THF     C212666   3.806   2.108   1.780 -0.1077  0.2907  0.0510
  589THF     C312667   3.937   2.295   1.824 -0.3446 -0.1099  0.4613
  589THF     H412668   3.752   2.133   1.688 -0.6695 -1.3026 -0.0860
  589THF     H512669   3.736   2.033   1.817  0.0592 -0.1812 -0.5701
  589THF     H612670   3.909   2.337   1.727  0.3642  0.1712  0.3747
  589THF     H712671   3.971   2.381   1.882 -1.1733  1.2065 -0.9109
  589THF     C812672   4.037   2.175   1.799 -0.2759  0.3915  0.1377
  589THF     C912673   3.952   2.056   1.776  0.5618  0.1031  0.7332
  589THF    H1012674   4.092   2.158   1.892 -1.9387 -1.0444  0.9221
  589THF    H1112675   4.102   2.195   1.714 -0.7277 -0.1479 -0.3385
  589THF    H1212676   3.982   2.010   1.681 -1.8580 -2.9684  1.2772
  589THF    H1312677   3.961   1.986   1.860 -1.8786 -1.0393  0.1370
  590THF     O112678   4.487   1.087   0.328  0.3482 -0.2877 -0.0085
  590THF     C212679   4.551   0.966   0.330  0.3578  0.1486  0.6823
  590THF     C312680   4.493   1.145   0.197 -0.0250 -0.0601  0.0390
  590THF     H412681   4.513   0.906   0.413 -1.2918  0.8970  0.5118
  590THF     H512682   4.656   0.988   0.347 -0.1045  0.8026  3.0954
  590THF     H612683   4.419   1.225   0.187 -0.6948 -0.6408  0.2301
  590THF     H712684   4.596   1.174   0.178 -0.2201  0.3155 -0.4914
  590THF     C812685   4.453   1.029   0.110  0.5459  0.3970 -0.3648
  590THF     C912686   4.535   0.914   0.178  1.0813 -0.2992 -0.0783
  590THF    H1012687   4.474   1.049   0.004 -0.5048  2.7450 -0.1905
  590THF    H1112688   4.346   1.010   0.119  0.8681 -2.4312 -1.2136
  590THF    H1212689   4.482   0.821   0.157 -0.5340  0.7647 -0.9749
  590THF    H1312690   4.633   0.916   0.131  1.5584  2.5790  0.8450
  591THF     O112691   3.858   4.193   0.235 -0.2101  0.4695 -0.1295
  591THF     C212692   3.788   4.279   0.328 -0.1848  0.7171  0.1449
  591THF     C312693   3.920   4.276   0.142 -0.3092  0.1179 -0.1540
  591THF     H412694   3.758   4.223   0.416 -1.9782 -0.6840 -1.2708
  591THF     H512695   3.695   4.305   0.278 -1.4958 -0.2798  1.9781
  591THF     H612696   4.021   4.238   0.132 -0.4802  0.1711 -2.8368
  591THF     H712697   3.876   4.279   0.042  0.8410  2.9979 -0.6791
  591THF     C812698   3.921   4.418   0.203  0.2160 -0.1534  0.3087
  591THF     C912699   3.872   4.399   0.346 -0.4362 -0.9764  0.5473
  591THF    H1012700   3.851   4.489   0.159  0.3422  0.7339  1.4677
  591THF    H1112701   4.019   4.465   0.192 -0.1348  0.3638 -0.7724
  591THF    H1212702   3.960   4.375   0.407  0.1348 -2.9944 -0.9863
  591THF    H1312703   3.822   4.485   0.389 -0.2781 -0.3095 -0.5885
  592THF     O112704   1.784   2.532   2.539  1.0168  0.5099 -0.7044
  592THF     C212705   1.772   2.497   2.676 -0.0929 -0.2102  0.7765
  592THF     C312706   1.673   2.622   2.506 -0.1272  0.0905  0.2270
  592THF     H412707   1.863   2.454   2.718  1.6016  2.4860  0.1529
  592THF     H512708   1.697   2.417   2.679  0.4917 -0.7801  0.3662
  592THF     H612709   1.712   2.697   2.437 -0.7086  0.8107  0.6644
  592THF     H712710   1.595   2.569   2.451 -0.6119 -0.2037  1.1695
  592THF     C812711   1.614   2.671   2.640  0.4887 -0.0395 -0.8900
  592THF     C912712   1.722   2.628   2.739  0.0153 -0.7893 -0.3395
  592THF    H1012713   1.514   2.631   2.661 -0.5289  0.3087 -4.4799
  592THF    H1112714   1.603   2.779   2.634 -0.0131  0.1777  2.2051
  592THF    H1212715   1.787   2.715   2.731 -1.7664  0.6721  0.4059
  592THF    H1312716   1.691   2.604   2.841  0.4011 -2.3670 -0.5626
  593THF     O112717   3.814   5.445   5.028  0.2074  0.0858 -0.1233
  593THF     C212718   3.701   5.530   5.025 -0.5921 -0.3367 -0.4803
  593THF     C312719   3.901   5.489   4.922 -0.0272  0.3619  0.3547
  593THF     H412720   3.662   5.526   5.127  0.8004  2.2069  0.2439
  593THF     H512721   3.630   5.486   4.955  0.4501 -1.1339 -1.0632
  593THF     H612722   4.001   5.477   4.964  0.5760 -0.9051 -1.3239
  593THF     H712723   3.885   5.430   4.831 -0.2551 -0.8890  1.1885
  593THF     C812724   3.871   5.641   4.899  0.1422 -0.1666  0.5129
  593THF     C912725   3.768   5.663   4.998  0.7340 -0.4115 -0.4471
  593THF    H1012726   3.839   5.653   4.796 -0.3564 -1.0028  0.5612
  593THF    H1112727   3.954   5.706   4.927  0.2642 -1.5191  3.6455
  593THF    H1212728   3.803   5.712   5.089 -1.4141  0.5503 -0.0922
  593THF    H1312729   3.695   5.735   4.963 -1.2868 -1.3754  1.5678
  594THF     O112730   2.705   3.474   3.135  0.0063 -0.0819  0.8676
  594THF     C212731   2.801   3.566   3.075  0.0022 -0.7340 -0.6728
  594THF     C312732   2.580   3.551   3.154  0.0650 -0.5944 -0.1573
  594THF     H412733   2.879   3.518   3.017  1.1864 -2.0066  1.7943
  594THF     H512734   2.866   3.614   3.149  0.5157 -0.1397 -1.5009
  594THF     H612735   2.492   3.489   3.173 -0.7048 -0.4645 -2.9588
  594THF     H712736   2.588   3.628   3.231 -0.4278  2.1938 -2.7080
  594THF     C812737   2.580   3.641   3.032 -0.6475 -0.8885 -0.3807
  594THF     C912738   2.724   3.671   2.993 -0.2126  0.4212 -0.2682
  594THF    H1012739   2.520   3.729   3.057  1.2801  1.3272 -2.8700
  594THF    H1112740   2.527   3.587   2.954 -1.4643  0.3356 -0.7051
  594THF    H1212741   2.737   3.659   2.885 -0.1273  2.9140 -0.6119
  594THF    H1312742   2.754   3.773   3.016 -0.6128  0.9772 -2.0762
  595THF     O112743   4.004   1.055   5.333 -0.2801 -1.1442  0.6794
  595THF     C212744   4.138   1.081   5.388 -0.3571 -0.2788  0.2393
  595THF     C312745   3.997   1.147   5.222 -0.1359  0.1304 -0.7397
  595THF     H412746   4.206   1.052   5.309 -1.0796 -1.5229  0.0560
  595THF     H512747   4.166   1.028   5.479  3.0952  0.5370 -0.2296
  595THF     H612748   4.040   1.106   5.131  0.5654 -1.0416  0.0896
  595THF     H712749   3.892   1.162   5.196 -0.1495 -1.2941 -1.6175
  595THF     C812750   4.063   1.280   5.278 -0.1574 -0.1692  0.7805
  595THF     C912751   4.135   1.237   5.405 -0.1528 -0.3688  0.4626
  595THF    H1012752   3.985   1.357   5.276  0.0340  0.0010 -0.9146
  595THF    H1112753   4.132   1.323   5.206  0.8426  0.4209  2.0454
  595THF    H1212754   4.238   1.273   5.406 -0.3654  0.3568 -1.0341
  595THF    H1312755   4.085   1.272   5.495  2.5780 -0.5534  2.1764
  596THF     O112756   3.417   1.449   0.025 -0.2340 -0.1295 -0.6026
  596THF     C212757   3.450   1.317   0.007 -0.0833  0.8318  0.0482
  596THF     C312758   3.276   1.448   0.047  0.1891 -0.5292  0.6353
  596THF     H412759   3.557   1.305   0.020  0.4779  3.2426 -1.5762
  596THF     H512760   3.435   1.272  -0.092  2.8540 -0.3700  0.0418
  596THF     H612761   3.243   1.546   0.081  0.4494 -0.9261  2.1007
  596THF     H712762   3.232   1.427  -0.050  1.9042  0.0488 -0.3221
  596THF     C812763   3.253   1.333   0.151 -0.6204 -0.0772 -0.0502
  596THF     C912764   3.361   1.242   0.108 -0.6111  0.1800  0.3195
  596THF    H1012765   3.154   1.292   0.170 -1.0300  0.7701 -0.2959
  596THF    H1112766   3.271   1.377   0.249  0.1662 -0.7722  0.1253
  596THF    H1212767   3.419   1.215   0.196  0.5957  1.6331  0.0103
  596THF    H1312768   3.312   1.157   0.060  1.2264 -1.7785  1.7306
  597THF     O112769   2.808   0.240   1.410 -0.2992  0.7661 -0.4319
  597THF     C212770   2.741   0.284   1.527 -0.0598 -0.5937  0.0918
  597THF     C312771   2.820   0.099   1.419  0.4334 -0.0534 -0.2670
  597THF     H412772   2.637   0.295   1.494 -0.5340  1.6414  2.0458
  597THF     H512773   2.770   0.384   1.556 -0.3961 -0.4022 -0.2119
  597THF     H612774   2.758   0.049   1.344  0.5212  0.3018 -0.5788
  597THF     H712775   2.925   0.079   1.400  0.5195  0.9796 -0.9331
  597THF     C812776   2.770   0.054   1.564  0.0176 -0.3289  0.7078
  597THF     C912777   2.754   0.181   1.635  0.0967 -0.0161  0.2645
  597THF    H1012778   2.839  -0.006   1.624  0.1588  1.8215  2.8379
  597THF    H1112779   2.685  -0.013   1.576 -0.0566 -0.5679 -0.9771
  597THF    H1212780   2.661   0.183   1.692  0.6448  3.4648  1.2509
  597THF    H1312781   2.842   0.213   1.690  0.0249 -0.3486  0.5759
  598THF     O112782   4.935   2.977   0.611 -0.4522  0.2915  0.4249
  598THF     C212783   5.011   2.861   0.570  0.1173  0.4353  0.1436
  598THF     C312784   4.858   3.024   0.503 -0.0387  0.1707 -0.3909
  598THF     H412785   4.992   2.770   0.628  0.3969 -1.4787 -2.6047
  598THF     H512786   5.116   2.885   0.558  0.0527  1.0185  0.6637
  598THF     H612787   4.765   3.076   0.526  0.2979  0.6440 -0.0779
  598THF     H712788   4.929   3.092   0.456 -1.0867  0.8795 -1.0127
  598THF     C812789   4.832   2.904   0.411 -0.1272 -0.7355 -0.5811
  598THF     C912790   4.958   2.829   0.428 -0.4987 -0.6551  0.2518
  598THF    H1012791   4.815   2.920   0.305  0.7144 -0.7309 -0.7212
  598THF    H1112792   4.749   2.841   0.444 -1.0078  1.4645  1.7676
  598THF    H1212793   4.953   2.726   0.394  0.3330 -0.6019 -0.0649
  598THF    H1312794   5.026   2.865   0.351 -1.7906 -0.3506 -0.7837
  599THF     O112795   5.264   2.098   1.076 -0.9560 -0.0063 -0.1314
  599THF     C212796   5.382   2.162   1.023 -0.0224 -0.0478  0.5760
  599THF     C312797   5.195   2.202   1.145  0.3875 -0.0798  0.0972
  599THF     H412798   5.351   2.227   0.942 -0.0453 -0.1843  0.4734
  599THF     H512799   5.456   2.094   0.980  0.6230  1.1712 -0.2692
  599THF     H612800   5.127   2.255   1.079 -0.9560  0.0012  1.5099
  599THF     H712801   5.140   2.141   1.216 -1.3095  1.7219  0.4115
  599THF     C812802   5.307   2.289   1.203 -0.0568 -0.7306 -0.0077
  599THF     C912803   5.433   2.231   1.148 -0.0894 -0.4072  0.5683
  599THF    H1012804   5.313   2.291   1.311  2.2486 -0.8684 -0.0860
  599THF    H1112805   5.295   2.390   1.161  0.7790 -0.4800  0.3393
  599THF    H1212806   5.507   2.306   1.121  0.6577 -1.3245 -0.0040
  599THF    H1312807   5.480   2.160   1.216  2.2039  0.6074  0.1429
  600THF     O112808   0.981   1.694   1.432  0.2009  0.0799 -0.0791
  600THF     C212809   0.934   1.661   1.562  0.4812 -0.2059  0.0660
  600THF     C312810   0.932   1.825   1.400 -0.5697 -0.2073 -0.5533
  600THF     H412811   1.005   1.685   1.641  1.0537 -1.0320 -0.1889
  600THF     H512812   0.918   1.553   1.568 -2.0300  0.1488  1.4828
  600THF     H612813   1.004   1.903   1.422  1.7035 -1.8042 -1.9413
  600THF     H712814   0.932   1.835   1.291 -1.7461 -0.5951 -0.6020
  600THF     C812815   0.793   1.831   1.468  0.0403 -0.4068  0.3054
  600THF     C912816   0.805   1.746   1.587  0.2629  0.0446  0.4289
  600THF    H1012817   0.708   1.803   1.407  0.0973  2.1900 -1.1070
  600THF    H1112818   0.789   1.936   1.499  2.8167  0.2802 -1.2723
  600THF    H1212819   0.837   1.819   1.662  1.1663  0.2960 -0.1881
  600THF    H1312820   0.711   1.692   1.603  0.2001  0.2100  0.6318
  601THF     O112821   0.970   2.750   5.337  0.1422 -0.7163 -0.5188
  601THF     C212822   0.913   2.736   5.464 -0.3741 -0.9069  0.0678
  601THF     C312823   0.880   2.687   5.248  0.2165  0.0355  0.4256
  601THF     H412824   0.946   2.827   5.513  0.7822 -0.5501 -1.3322
  601THF     H512825   0.958   2.658   5.526  1.1652  0.8476  1.2653
  601THF     H612826   0.904   2.721   5.147 -1.9850  2.3686  0.6042
  601THF     H712827   0.896   2.579   5.250 -0.4283 -0.0491  1.6876
  601THF     C812828   0.740   2.711   5.303  0.3794  0.1204 -0.2172
  601THF     C912829   0.762   2.722   5.453  0.2966  0.9131  0.5089
  601THF    H1012830   0.657   2.645   5.276  0.1552  1.0132 -1.8250
  601THF    H1112831   0.716   2.812   5.270 -2.3090 -0.4319 -0.1729
  601THF    H1212832   0.695   2.799   5.490  1.0711  2.4014 -1.0490
  601THF    H1312833   0.735   2.627   5.499 -0.7779  0.5720 -0.7845
  602THF     O112834   5.152   0.050   3.739  0.1995  0.0703 -0.2812
  602THF     C212835   5.054   0.016   3.839  0.0644  0.4832  0.5921
  602THF     C312836   5.174   0.188   3.746  0.0936 -0.1955 -0.7379
  602THF     H412837   5.099   0.030   3.937 -0.4865  0.8626  0.7918
  602THF     H512838   4.999  -0.078   3.835  0.0624  0.5125 -1.9717
  602THF     H612839   5.247   0.210   3.824 -1.6320  0.2403  0.8294
  602THF     H712840   5.218   0.226   3.654 -0.7427  2.7064 -0.0539
  602THF     C812841   5.032   0.245   3.769  0.3061 -0.0481  0.1951
  602THF     C912842   4.955   0.127   3.821  0.4242  0.1658 -0.6884
  602THF    H1012843   4.999   0.278   3.670  3.1845  1.2239 -0.4384
  602THF    H1112844   5.026   0.333   3.834  0.9340  0.7631 -0.8111
  602THF    H1212845   4.909   0.148   3.918  0.5356 -2.6773  0.0565
  602THF    H1312846   4.875   0.094   3.756 -1.9724 -0.2090  2.2177
  603THF     O112847   4.630   0.424   3.924  0.0085 -0.4107 -0.0842
  603THF     C212848   4.567   0.299   3.876 -0.5640 -0.0123  0.3744
  603THF     C312849   4.743   0.394   4.012 -0.1839  0.5334  0.6398
  603THF     H412850   4.618   0.263   3.787  0.9203  1.6785  0.4749
  603THF     H512851   4.465   0.313   3.840  0.3383  0.0602 -2.4378
  603THF     H612852   4.824   0.348   3.956 -1.4188 -2.1661  0.8984
  603THF     H712853   4.758   0.483   4.072 -0.9191 -0.0798  1.7634
  603THF     C812854   4.688   0.273   4.088 -0.7482 -0.4462  0.1106
  603THF     C912855   4.576   0.209   3.999 -0.3215  0.5732  0.3036
  603THF    H1012856   4.644   0.318   4.177  1.1119 -1.5588  1.6600
  603THF    H1112857   4.764   0.199   4.112 -2.6482 -2.7936 -0.6455
  603THF    H1212858   4.596   0.105   3.975 -1.8482  0.2344  0.4638
  603THF    H1312859   4.484   0.204   4.056  0.7358 -0.1286  2.0111
  604THF     O112860   0.139   1.892   0.586  0.0362 -0.3909  0.3344
  604THF     C212861   0.107   1.798   0.687 -0.7913  0.6711  0.2462
  604THF     C312862   0.050   2.002   0.604  0.4566  0.3305  0.4692
  604THF     H412863   0.172   1.811   0.774 -0.7988  0.3642  0.3001
  604THF     H512864   0.123   1.697   0.649 -2.6314  0.9061 -1.2310
  604THF     H612865   0.081   2.061   0.690  0.3799 -0.4138  1.0180
  604THF     H712866   0.056   2.064   0.515  1.0401  0.5945  0.6931
  604THF     C812867  -0.080   1.932   0.623  0.5716 -1.2602  0.3586
  604THF     C912868  -0.042   1.818   0.712  0.0752  0.9774  0.3908
  604THF    H1012869  -0.118   1.899   0.527 -2.7699 -1.1490  1.5223
  604THF    H1112870  -0.149   1.999   0.676  0.4090 -1.0220 -0.1530
  604THF    H1212871  -0.055   1.834   0.819  0.7946 -0.1290  0.6653
  604THF    H1312872  -0.097   1.724   0.701  0.5061  0.7604  0.0598
  605THF     O112873   0.376   0.774   4.319 -0.0855 -0.2583  0.3756
  605THF     C212874   0.416   0.713   4.432 -0.1423 -0.5258 -0.0861
  605THF     C312875   0.310   0.902   4.346 -0.5304  0.0682  0.9932
  605THF     H412876   0.514   0.755   4.455  0.5984  0.2210 -3.8840
  605THF     H512877   0.433   0.605   4.420 -1.1991 -0.5765 -1.4361
  605THF     H612878   0.365   0.995   4.331  0.5007 -0.8688 -1.4753
  605THF     H712879   0.223   0.898   4.281 -0.5943 -1.3187  1.1390
  605THF     C812880   0.252   0.886   4.491  0.2214  0.1965  1.1035
  605THF     C912881   0.307   0.750   4.534 -0.3596 -0.7725  0.4355
  605THF    H1012882   0.144   0.878   4.493  0.1596  0.4094 -0.6399
  605THF    H1112883   0.295   0.969   4.547  0.9807  1.0308 -0.6394
  605THF    H1212884   0.349   0.759   4.634  1.4441 -0.4072 -0.3286
  605THF    H1312885   0.231   0.672   4.530 -0.5802 -0.6438  1.7403
  606THF     O112886   3.758   2.610   2.510  0.7047  0.4390  0.0984
  606THF     C212887   3.629   2.662   2.504 -0.1915 -0.1963  0.2897
  606THF     C312888   3.769   2.527   2.625  0.9637  0.6126 -0.5070
  606THF     H412889   3.600   2.697   2.405 -1.8339  0.8161  1.0794
  606THF     H512890   3.636   2.754   2.562 -1.4296  0.1464 -0.0632
  606THF     H612891   3.822   2.437   2.595  0.6159  0.6141 -1.1465
  606THF     H712892   3.830   2.577   2.700  0.0971 -1.4258  1.6703
  606THF     C812893   3.622   2.501   2.675 -0.3963 -0.2071 -1.2768
  606THF     C912894   3.536   2.566   2.571  0.4638  0.4758 -0.1937
  606THF    H1012895   3.592   2.560   2.761  0.9498  1.9147 -2.1796
  606THF    H1112896   3.602   2.399   2.707 -2.5821  0.8307  0.9674
  606THF    H1212897   3.511   2.494   2.493 -0.0570  0.9875 -0.5128
  606THF    H1312898   3.440   2.607   2.605  1.0822  3.7187 -2.0095
  607THF     O112899   2.766   5.468   4.656  0.5747 -0.1118 -0.5881
  607THF     C212900   2.689   5.592   4.661  0.6307  0.0271 -0.1193
  607THF     C312901   2.868   5.473   4.752  0.1692  0.3327  0.0875
  607THF     H412902   2.598   5.582   4.720  1.7140 -0.3809  1.5543
  607THF     H512903   2.664   5.621   4.559 -0.9209  2.7998  0.9309
  607THF     H612904   2.866   5.393   4.826 -0.9340  0.9639  0.7696
  607THF     H712905   2.964   5.458   4.703 -0.9759 -0.7683 -1.9800
  607THF     C812906   2.863   5.607   4.815 -0.0416  0.4270 -0.4383
  607THF     C912907   2.782   5.697   4.724 -0.6121  0.7274 -0.0482
  607THF    H1012908   2.955   5.656   4.847 -0.6588  3.1078 -2.3441
  607THF    H1112909   2.808   5.599   4.909 -0.7065  0.8744 -0.7771
  607THF    H1212910   2.731   5.777   4.776  1.0109  2.0540 -0.4243
  607THF    H1312911   2.841   5.747   4.647 -0.7927  0.3787 -0.4170
  608THF     O112912   0.529   1.838   0.139 -0.1371 -0.2162  0.4822
  608THF     C212913   0.415   1.757   0.096 -0.5887 -0.1030  0.0709
  608THF     C312914   0.535   1.957   0.051 -0.1860  0.1052 -0.0832
  608THF     H412915   0.370   1.693   0.172  1.1383  0.0534  1.3071
  608THF     H512916   0.449   1.704   0.007 -2.0177  1.9752 -1.8190
  608THF     H612917   0.555   2.034   0.127 -0.2334 -0.7915  0.8584
  608THF     H712918   0.611   1.948  -0.026 -0.5198 -2.9316 -0.1764
  608THF     C812919   0.395   1.968  -0.020  0.0635 -0.2699 -1.0444
  608THF     C912920   0.317   1.858   0.049 -0.0376  0.5382  0.6906
  608THF    H1012921   0.399   1.961  -0.129 -1.8449  2.0603 -1.3343
  608THF    H1112922   0.354   2.068  -0.009  0.8327  0.1721 -2.0441
  608THF    H1212923   0.261   1.885   0.138 -2.0206 -0.4881 -0.1767
  608THF    H1312924   0.246   1.814  -0.022  1.8598  0.9837 -1.6357
  609THF     O112925   2.734   0.502   2.070 -0.2775 -0.2856 -0.4854
  609THF     C212926   2.673   0.372   2.099 -0.2338  0.2364  0.5670
  609THF     C312927   2.685   0.548   1.943  0.3723 -0.1756 -0.6723
  609THF     H412928   2.577   0.387   2.147 -0.3069 -0.3092  0.5950
  609THF     H512929   2.738   0.310   2.161  0.2728  0.2752  0.0838
  609THF     H612930   2.610   0.621   1.975  0.3919 -0.3624 -0.1872
  609THF     H712931   2.760   0.585   1.874  0.0457 -0.5557 -1.2479
  609THF     C812932   2.604   0.430   1.874 -0.2364  0.0485 -0.0651
  609THF     C912933   2.655   0.312   1.960 -0.0706  0.6318  0.1545
  609THF    H1012934   2.644   0.423   1.773 -1.0989 -0.6932 -0.3681
  609THF    H1112935   2.496   0.443   1.870 -0.1579  1.0562  0.7397
  609THF    H1212936   2.593   0.222   1.953  2.4785 -1.0806 -3.2919
  609THF    H1312937   2.755   0.280   1.933 -0.8088  0.1424 -2.3079
  610THF     O112938   1.795   4.236   2.800 -0.0780  0.4240  0.3103
  610THF     C212939   1.820   4.297   2.923 -0.8962 -0.8357  0.0173
  610THF     C312940   1.821   4.323   2.689  0.1005  0.8937  0.4884
  610THF     H412941   1.856   4.227   2.999  0.1634 -1.1522 -0.7503
  610THF     H512942   1.726   4.336   2.961 -0.4908 -1.5761  1.9608
  610THF     H612943   1.875   4.274   2.608 -0.2998 -0.6325  1.0937
  610THF     H712944   1.727   4.357   2.648  0.4772 -0.5127 -1.7235
  610THF     C812945   1.884   4.447   2.740  0.3305 -0.2880 -0.5219
  610THF     C912946   1.909   4.418   2.892  0.6370 -0.3658  0.5003
  610THF    H1012947   1.817   4.533   2.728  0.0426 -0.3783  0.3807
  610THF    H1112948   1.975   4.475   2.688  0.2789  0.1484 -0.3761
  610THF    H1212949   2.013   4.388   2.894  1.5213  2.1104 -1.8496
  610THF    H1312950   1.883   4.504   2.953 -2.3513  0.7288 -2.0145
  611THF     O112951   5.045   3.008   2.291  0.3465 -0.2797  0.1588
  611THF     C212952   5.190   3.003   2.278  0.4277  0.3146  0.0698
  611THF     C312953   5.008   3.102   2.393 -0.1132  0.2951 -0.5401
  611THF     H412954   5.230   2.993   2.177  4.0169 -0.4120  1.4452
  611THF     H512955   5.236   2.924   2.337 -1.2131  0.5699  1.7702
  611THF     H612956   4.905   3.137   2.393  0.2800  1.5505  1.0106
  611THF     H712957   5.034   3.063   2.491 -2.5503  0.0164  0.0496
  611THF     C812958   5.099   3.215   2.352 -0.0209  0.2633  0.5412
  611THF     C912959   5.232   3.140   2.334  0.4333 -0.0739  0.2641
  611THF    H1012960   5.098   3.290   2.431 -0.4163 -0.8855  1.6777
  611THF    H1112961   5.077   3.268   2.260  1.3918  1.8844  1.0977
  611THF    H1212962   5.292   3.186   2.256  0.7160 -3.0317 -1.4318
  611THF    H1312963   5.288   3.137   2.428  0.6241 -0.9047  0.1336
  612THF     O112964   1.062   2.690   2.699  0.1909  0.1216  0.0540
  612THF     C212965   0.951   2.762   2.755  0.3285 -0.4272  0.1550
  612THF     C312966   1.126   2.763   2.602 -0.1947  0.7109  0.3583
  612THF     H412967   0.978   2.811   2.849  0.5938 -0.7918  0.2746
  612THF     H512968   0.878   2.690   2.791  1.0942 -2.1685 -1.5918
  612THF     H612969   1.224   2.779   2.647 -0.0531  0.0742  0.2838
  612THF     H712970   1.130   2.687   2.523  1.4821  1.5774 -0.4489
  612THF     C812971   1.035   2.883   2.574 -0.5497  0.2816 -0.0918
  612THF     C912972   0.910   2.856   2.647 -0.1990  1.1126  0.1847
  612THF    H1012973   1.032   2.902   2.466 -0.6602  0.8806  0.0132
  612THF    H1112974   1.078   2.968   2.627 -0.5654  0.1889  0.0698
  612THF    H1212975   0.881   2.956   2.681 -2.4903  0.3579  0.6166
  612THF    H1312976   0.830   2.824   2.581  1.0559 -0.5622 -0.5853
  613THF     O112977   2.316   3.670   0.571 -0.0791  0.2020  0.3824
  613THF     C212978   2.385   3.741   0.471 -0.2771 -0.0183 -0.2849
  613THF     C312979   2.409   3.636   0.672 -0.6439  0.5287 -0.2876
  613THF     H412980   2.319   3.801   0.407  0.0421 -0.6080 -1.1909
  613THF     H512981   2.444   3.673   0.409  2.1946  0.7910  1.0237
  613THF     H612982   2.354   3.616   0.764 -1.4648 -2.9048 -1.3709
  613THF     H712983   2.447   3.535   0.655 -2.1006 -0.6551  2.7281
  613THF     C812984   2.525   3.746   0.664  0.2170 -0.0727  0.3818
  613THF     C912985   2.489   3.824   0.539 -0.1865 -0.2786 -0.9810
  613THF    H1012986   2.622   3.695   0.665  0.7229  0.8680  0.8848
  613THF    H1112987   2.533   3.805   0.755 -0.2317 -0.2801  0.5570
  613THF    H1212988   2.452   3.925   0.557  2.3868  0.3492  1.5142
  613THF    H1312989   2.580   3.838   0.480  0.1525  1.0905 -0.1856
  614THF     O112990   3.593   2.737   1.913  0.0827  0.4615 -0.0050
  614THF     C212991   3.500   2.786   1.814 -0.1405 -0.2566 -0.0118
  614THF     C312992   3.719   2.708   1.855 -0.5552 -0.3807  0.0497
  614THF     H412993   3.453   2.877   1.852 -2.4850 -0.2259 -2.6402
  614THF     H512994   3.425   2.708   1.802 -0.2889 -0.2090  0.5692
  614THF     H612995   3.794   2.742   1.925  0.1730  0.9365 -1.3066
  614THF     H712996   3.736   2.603   1.828  2.1337 -0.3217  1.1930
  614THF     C812997   3.725   2.801   1.730 -0.0616 -0.0939  0.3800
  614THF     C912998   3.579   2.803   1.686 -0.1196  0.2308  0.5182
  614THF    H1012999   3.796   2.763   1.656 -0.6101  1.4921 -1.0200
  614THF    H1113000   3.742   2.901   1.771 -2.0275 -0.2282  1.6315
  614THF    H1213001   3.562   2.898   1.636  1.7210 -0.7319 -2.1260
  614THF    H1313002   3.556   2.723   1.615  1.9151 -0.6579  0.7942
  615THF     O113003   4.899   3.030   4.058  0.4144  0.0922 -0.2860
  615THF     C213004   4.797   3.041   3.960 -0.1194  0.2328  0.0669
  615THF     C313005   4.988   3.144   4.060  0.3639 -0.2759 -0.0940
  615THF     H413006   4.721   3.106   4.002  0.3599 -2.2094  5.5651
  615THF     H513007   4.748   2.947   3.934  0.6428 -0.2032  0.1554
  615THF     H613008   4.953   3.218   4.132  0.2968 -1.0768  0.7065
  615THF     H713009   5.085   3.111   4.094  0.6914  1.2847  0.5910
  615THF     C813010   4.984   3.182   3.910 -0.0736 -0.5354 -0.1361
  615THF     C913011   4.868   3.114   3.849  0.0101 -0.4762  0.0670
  615THF    H1013012   5.068   3.139   3.854  0.2079 -1.3213  0.8727
  615THF    H1113013   4.989   3.290   3.891  2.1232 -0.6744 -0.5729
  615THF    H1213014   4.804   3.187   3.800 -0.6376 -0.4531  0.9228
  615THF    H1313015   4.897   3.038   3.777  0.4578  0.0531 -0.3307
  616THF     O113016   4.539   1.733   2.826  0.4565  0.7685  0.1745
  616THF     C213017   4.535   1.748   2.971  0.3198  0.4157  0.3725
  616THF     C313018   4.414   1.676   2.781  0.1908  0.1823 -0.2983
  616THF     H413019   4.573   1.848   2.994 -0.1054  0.3286  1.5377
  616THF     H513020   4.588   1.668   3.023 -1.6275 -2.0198 -1.1404
  616THF     H613021   4.405   1.702   2.676  2.3426  0.3371 -0.4963
  616THF     H713022   4.423   1.568   2.793  1.2327  0.3608  0.7079
  616THF     C813023   4.309   1.736   2.877 -0.2431 -0.1188 -0.4388
  616THF     C913024   4.385   1.747   3.009 -0.9128  1.3056  0.3231
  616THF    H1013025   4.216   1.680   2.887 -0.0651  0.0032  4.1674
  616THF    H1113026   4.284   1.833   2.834  1.0889  0.9262  1.0237
  616THF    H1213027   4.349   1.813   3.089 -0.5419  2.9668 -0.8284
  616THF    H1313028   4.383   1.652   3.062 -0.3631  0.7750 -0.5905
  617THF     O113029   3.647   2.978   3.073 -0.3889  0.1023 -0.2550
  617THF     C213030   3.635   3.019   2.942  0.3313  0.3125 -0.2455
  617THF     C313031   3.781   2.955   3.097 -0.6614  0.3723 -0.8017
  617THF     H413032   3.644   3.128   2.941 -2.5665  0.6276 -0.6940
  617THF     H513033   3.535   3.012   2.899 -0.2507 -0.1007  1.0948
  617THF     H613034   3.843   3.038   3.132  0.3398 -0.0425 -1.5203
  617THF     H713035   3.795   2.872   3.166  0.0050  0.4380 -0.8456
  617THF     C813036   3.845   2.893   2.976 -0.2234 -0.0582 -0.4572
  617THF     C913037   3.750   2.948   2.866  0.6191 -0.3847  0.6949
  617THF    H1013038   3.851   2.784   2.980  0.4101 -0.0034  0.6599
  617THF    H1113039   3.946   2.930   2.958  0.0319 -0.4646  0.1152
  617THF    H1213040   3.810   3.020   2.810  1.3891 -0.2075  1.7246
  617THF    H1313041   3.719   2.865   2.803  1.4809  0.6031 -1.1001
  618THF     O113042   4.492   2.697   0.087 -0.9789  0.0862  0.1437
  618THF     C213043   4.589   2.800   0.084 -0.2976 -0.4902  0.2050
  618THF     C313044   4.426   2.706   0.211  0.3072 -0.1751 -0.0007
  618THF     H413045   4.628   2.814  -0.017  1.5187  0.0757  0.9416
  618THF     H513046   4.677   2.776   0.145  1.2060 -0.7183 -1.9228
  618THF     H613047   4.336   2.645   0.210  0.7608 -0.8495  0.0421
  618THF     H713048   4.499   2.670   0.283  0.3847 -0.4603 -0.2192
  618THF     C813049   4.409   2.854   0.233  0.3904 -0.2098 -0.1983
  618THF     C913050   4.510   2.917   0.145 -0.2148 -0.1658  0.1859
  618THF    H1013051   4.411   2.873   0.341  0.6420 -1.4644  0.0336
  618THF    H1113052   4.308   2.881   0.202  0.4462  2.9306  1.9040
  618THF    H1213053   4.456   2.981   0.075 -1.3241  1.3983  2.3235
  618THF    H1313054   4.580   2.984   0.196 -0.0311  0.3561 -0.7245
  619THF     O113055   1.050   2.676   1.179 -0.5038  0.2877  0.0548
  619THF     C213056   0.979   2.761   1.096 -0.0826  0.1833  0.3982
  619THF     C313057   0.955   2.585   1.238 -0.0489 -0.0411 -0.2700
  619THF     H413058   1.011   2.769   0.992 -2.8003  1.3664 -0.4591
  619THF     H513059   0.988   2.864   1.132  0.8851  0.3332 -0.2305
  619THF     H613060   0.998   2.486   1.251  1.0645  0.5550  0.7939
  619THF     H713061   0.935   2.627   1.337  0.0191 -0.9174  0.1187
  619THF     C813062   0.834   2.579   1.145  0.3988 -0.2850  0.0721
  619THF     C913063   0.830   2.720   1.089 -0.3071 -0.9299 -0.4287
  619THF    H1013064   0.742   2.544   1.193  0.5591 -0.0290  0.5687
  619THF    H1113065   0.860   2.510   1.065 -0.1783 -1.7271  1.0924
  619THF    H1213066   0.784   2.727   0.990  0.4729  1.2141 -0.6942
  619THF    H1313067   0.772   2.775   1.163  1.0018  0.2135 -0.2139
  620THF     O113068   0.953   4.500   1.937  0.3085 -0.4598  0.4498
  620THF     C213069   0.889   4.378   1.983 -0.3544 -0.0170  1.1674
  620THF     C313070   0.913   4.532   1.803  0.7898  0.5989  0.1790
  620THF     H413071   0.835   4.391   2.077  0.7816  1.5626  1.6486
  620THF     H513072   0.965   4.301   1.996 -0.5826 -0.3891  0.3921
  620THF     H613073   0.835   4.607   1.815  0.3906  0.1181  0.6375
  620THF     H713074   0.996   4.566   1.741  1.8355 -1.2331  0.4798
  620THF     C813075   0.850   4.396   1.748 -0.2341  0.0053  0.1079
  620THF     C913076   0.801   4.319   1.871  0.4134 -0.5571  0.0886
  620THF    H1013077   0.923   4.346   1.682 -0.7412 -0.6112  0.0020
  620THF    H1113078   0.769   4.427   1.683 -0.4917 -1.8532 -0.5389
  620THF    H1213079   0.695   4.339   1.887  0.2711 -1.3887  0.2098
  620THF    H1313080   0.803   4.211   1.861  0.7739 -0.7206  1.6837
  621THF     O113081   1.407   3.708   4.362 -0.0050 -0.2626  0.2573
  621THF     C213082   1.423   3.795   4.472 -0.0603  0.5453  0.1420
  621THF     C313083   1.448   3.580   4.401  0.5820  1.0314  0.0878
  621THF     H413084   1.345   3.766   4.542  0.5852 -0.5311  0.4427
  621THF     H513085   1.407   3.901   4.453  2.7442  1.4096  1.9156
  621THF     H613086   1.384   3.529   4.473  0.3936  1.0856 -0.0425
  621THF     H713087   1.473   3.515   4.318  1.1755  0.6307  0.5697
  621THF     C813088   1.577   3.614   4.485  0.7015  0.0981  0.9404
  621THF     C913089   1.558   3.759   4.523 -0.3983 -1.1330  0.5029
  621THF    H1013090   1.663   3.612   4.418  0.3345 -2.2961  0.4306
  621THF    H1113091   1.583   3.554   4.576  0.2310  0.7196  1.3882
  621THF    H1213092   1.571   3.783   4.628  0.2661 -0.3603  0.2554
  621THF    H1313093   1.631   3.818   4.468 -0.9195  1.3833  2.3686
  622THF     O113094   3.794   1.940   0.508  0.4611 -0.6141  0.2552
  622THF     C213095   3.664   1.889   0.547 -0.6696 -0.2977 -0.3383
  622THF     C313096   3.886   1.910   0.612  0.2234 -0.1264  0.8978
  622THF     H413097   3.660   1.782   0.530 -0.1033 -0.2256 -0.9928
  622THF     H513098   3.592   1.927   0.474 -0.9556  0.1628  0.1835
  622THF     H613099   3.932   1.811   0.601  0.4264 -0.1491  1.8734
  622THF     H713100   3.963   1.986   0.622  0.1837  0.7216 -3.2711
  622THF     C813101   3.801   1.910   0.735  0.1702  0.0671 -0.0634
  622THF     C913102   3.654   1.939   0.688  0.0214  0.3368 -0.3140
  622THF    H1013103   3.831   1.989   0.803 -0.9503  2.6820 -2.4044
  622THF    H1113104   3.819   1.821   0.794 -1.8896 -0.0140  0.5366
  622THF    H1213105   3.586   1.883   0.751 -1.3462  1.9402 -0.2848
  622THF    H1313106   3.616   2.039   0.711 -1.9975 -0.8252  1.8197
  623THF     O113107   3.218   4.866   4.763 -0.8212  0.4515 -0.6055
  623THF     C213108   3.216   4.742   4.833  0.0075  0.2267 -0.2829
  623THF     C313109   3.346   4.885   4.727 -0.2851 -0.1273  0.5391
  623THF     H413110   3.118   4.693   4.834  0.4318 -0.6960  2.0605
  623THF     H513111   3.234   4.753   4.940 -0.5938 -1.4257  0.0093
  623THF     H613112   3.365   4.967   4.658  2.1874 -0.5186  0.6485
  623THF     H713113   3.408   4.913   4.812  0.8022 -1.9661  0.4363
  623THF     C813114   3.396   4.747   4.680  0.8947  0.1913 -0.1028
  623THF     C913115   3.320   4.649   4.762  0.4947  0.4162  0.2970
  623THF    H1013116   3.501   4.729   4.704  0.3068  0.5044  3.2228
  623THF    H1113117   3.381   4.732   4.573  4.3671 -2.8822 -0.3711
  623THF    H1213118   3.279   4.584   4.685  1.0601 -0.0168  0.3522
  623THF    H1313119   3.382   4.597   4.835 -0.9265  1.0250  2.0184
  624THF     O113120   1.790   3.357   2.019 -0.5756  0.4002 -0.2267
  624THF     C213121   1.660   3.424   2.006 -0.1575 -0.0060 -0.1581
  624THF     C313122   1.783   3.237   1.955  0.1191 -0.3135 -0.0651
  624THF     H413123   1.655   3.526   2.044 -0.1977  0.2110 -0.7489
  624THF     H513124   1.590   3.357   2.056  1.1577 -2.7366 -1.7501
  624THF     H613125   1.879   3.187   1.962  0.2148  0.0784  2.6100
  624THF     H713126   1.706   3.172   1.996  0.0229 -0.5256 -0.5775
  624THF     C813127   1.731   3.289   1.818 -0.5055 -0.1421  0.2446
  624THF     C913128   1.652   3.412   1.852  0.7273 -0.6407  0.2001
  624THF    H1013129   1.673   3.212   1.766 -1.7328  0.4900  0.6375
  624THF    H1113130   1.812   3.313   1.749 -1.5043  1.7330 -0.3211
  624THF    H1213131   1.706   3.493   1.802 -0.0263 -0.0928  0.2547
  624THF    H1313132   1.546   3.408   1.825  0.7448 -1.0248  0.1873
  625THF     O113133   0.315   4.172   2.959 -0.0644 -0.0971 -0.0123
  625THF     C213134   0.181   4.213   2.972 -0.2323 -0.0019 -0.0145
  625THF     C313135   0.392   4.288   2.945  0.1834 -0.5406  0.3836
  625THF     H413136   0.171   4.252   3.073  2.0779 -0.0422  0.2899
  625THF     H513137   0.111   4.131   2.958 -0.4200 -0.0989  1.3868
  625THF     H613138   0.444   4.328   3.032  1.8541  2.0415 -1.6321
  625THF     H713139   0.467   4.273   2.867 -1.4578  0.7215 -1.5136
  625THF     C813140   0.296   4.393   2.889 -0.7782  0.5353  0.0630
  625THF     C913141   0.170   4.309   2.862  0.2371 -0.4031 -0.2738
  625THF    H1013142   0.337   4.444   2.802 -0.3985 -1.5517 -1.0343
  625THF    H1113143   0.286   4.468   2.968 -1.5517 -0.7999  1.2890
  625THF    H1213144   0.078   4.363   2.883 -1.7675 -3.8842  0.6353
  625THF    H1313145   0.178   4.258   2.765  2.5566  0.3901 -0.5589
  626THF     O113146   0.339   3.639   5.437  0.5022  0.2516 -0.2411
  626THF     C213147   0.363   3.664   5.299 -0.2987  0.6204 -0.4094
  626THF     C313148   0.426   3.527   5.482  0.0623 -0.5398  0.6620
  626THF     H413149   0.436   3.745   5.308  0.9615 -0.6664  2.1458
  626THF     H513150   0.273   3.694   5.246 -1.6117 -1.1977  0.6892
  626THF     H613151   0.526   3.567   5.502  0.1490 -0.7260  0.5996
  626THF     H713152   0.388   3.486   5.575 -1.6211  0.9484  0.6872
  626THF     C813153   0.420   3.429   5.359 -0.2038 -0.2304 -0.2535
  626THF     C913154   0.423   3.530   5.245  0.0172  0.2062  0.5471
  626THF    H1013155   0.331   3.367   5.355  0.9062 -1.8723 -0.3130
  626THF    H1113156   0.502   3.359   5.341  0.1637  0.1149  0.0348
  626THF    H1213157   0.528   3.539   5.217 -0.1164 -0.8986 -0.3559
  626THF    H1313158   0.362   3.504   5.158  1.9340  0.5981 -0.9820
  627THF     O113159   5.383   3.007   2.757  0.0936 -0.5703  0.1826
  627THF     C213160   5.451   2.930   2.665 -0.1980  0.8259  0.3319
  627THF     C313161   5.245   2.991   2.746 -0.8813 -0.4417 -0.1472
  627THF     H413162   5.554   2.911   2.695 -0.0778 -0.6327 -0.8947
  627THF     H513163   5.453   2.973   2.565  2.3909 -2.3055 -1.1521
  627THF     H613164   5.198   2.994   2.845 -1.0615  0.2166 -0.2463
  627THF     H713165   5.209   3.077   2.689 -0.9687  0.8148  1.6836
  627THF     C813166   5.227   2.856   2.680  0.3569  0.4307 -0.2023
  627THF     C913167   5.367   2.800   2.666 -0.1044  0.4849 -0.0813
  627THF    H1013168   5.181   2.862   2.581 -0.0971  1.6370  0.0632
  627THF    H1113169   5.183   2.789   2.754  3.3348 -0.2322  1.1339
  627THF    H1213170   5.382   2.750   2.761 -0.4845  0.7667  0.1303
  627THF    H1313171   5.390   2.740   2.577  2.5492  4.1011 -2.1082
  628THF     O113172   0.723   2.990   2.932 -0.0310 -0.3077  0.3054
  628THF     C213173   0.759   2.981   3.067 -0.6834  0.5817 -0.6100
  628THF     C313174   0.756   3.123   2.889  0.0695  0.3386 -0.0999
  628THF     H413175   0.771   2.879   3.104 -2.2780  1.0753  1.4577
  628THF     H513176   0.673   3.017   3.124 -0.2380 -1.5055  1.5706
  628THF     H613177   0.763   3.125   2.780 -2.1097  2.6595 -0.3149
  628THF     H713178   0.676   3.192   2.916  0.3955  0.4567  0.5803
  628THF     C813179   0.895   3.153   2.949 -0.0732  0.0110 -1.0027
  628THF     C913180   0.889   3.071   3.083  0.4681  0.6228  0.4800
  628THF    H1013181   0.924   3.256   2.967 -1.2063 -0.0369  1.6268
  628THF    H1113182   0.968   3.105   2.884 -0.7374 -0.3391 -1.4986
  628THF    H1213183   0.987   3.024   3.079  0.1989  0.1312 -0.4011
  628THF    H1313184   0.889   3.139   3.169  3.4693  0.1227  0.9776
  629THF     O113185   2.423   3.899   3.394 -0.3279  0.3730 -0.0781
  629THF     C213186   2.300   3.889   3.462  0.2843 -0.0766  0.3329
  629THF     C313187   2.382   3.937   3.263  0.1870  0.2314 -0.2046
  629THF     H413188   2.321   3.898   3.569 -0.0865 -0.8904  0.4766
  629THF     H513189   2.251   3.793   3.452 -4.2168  1.8724  1.1538
  629THF     H613190   2.467   3.945   3.195  1.0541 -0.4194  0.7561
  629THF     H713191   2.324   3.853   3.225 -0.3180  0.8059 -0.7241
  629THF     C813192   2.286   4.044   3.286  0.8211 -0.0681  0.1839
  629THF     C913193   2.226   4.016   3.417 -0.0242 -0.0354 -0.2049
  629THF    H1013194   2.210   4.032   3.209  0.6921 -0.6315  0.3939
  629THF    H1113195   2.325   4.145   3.278  0.8479 -0.1258 -0.4433
  629THF    H1213196   2.255   4.104   3.474 -1.0278  0.2592 -0.1442
  629THF    H1313197   2.118   4.005   3.425  0.1318 -1.7014  0.1660
  630THF     O113198   3.192   3.227   3.801  0.4221  0.3971  0.0626
  630THF     C213199   3.301   3.158   3.871  0.0712  0.4229 -0.4346
  630THF     C313200   3.136   3.136   3.715  0.3956  0.3537 -0.4955
  630THF     H413201   3.287   3.177   3.977  1.8583  1.1738 -0.2884
  630THF     H513202   3.402   3.196   3.852  1.1634 -2.8514 -1.8706
  630THF     H613203   3.029   3.148   3.698  0.4481 -1.1037 -2.2310
  630THF     H713204   3.181   3.165   3.620  0.6809  3.3408  0.4523
  630THF     C813205   3.161   2.994   3.769  0.0982 -0.3987  0.3996
  630THF     C913206   3.300   3.008   3.826  0.7580 -0.4406  0.2143
  630THF    H1013207   3.158   2.909   3.701 -0.3637 -0.9427  1.0888
  630THF    H1113208   3.090   2.972   3.849  1.9363  0.0855  2.2340
  630THF    H1213209   3.334   2.938   3.903  0.7448  1.3317  1.9055
  630THF    H1313210   3.376   3.005   3.748  0.5520 -0.1441  0.0060
  631THF     O113211   1.515   1.995   0.877 -0.3473 -0.4240  0.4717
  631THF     C213212   1.450   2.069   0.770 -0.3006  0.1116  0.0908
  631THF     C313213   1.608   1.910   0.822 -0.4712 -0.3925  0.1941
  631THF     H413214   1.439   2.175   0.793 -4.6037  0.0735 -1.0582
  631THF     H513215   1.352   2.029   0.744 -0.1766 -0.2356  0.1576
  631THF     H613216   1.687   1.877   0.889 -1.5697 -0.4024  1.5110
  631THF     H713217   1.566   1.816   0.786 -1.6154  0.8960 -2.1254
  631THF     C813218   1.669   1.988   0.715  0.0534  0.1270 -0.4092
  631THF     C913219   1.544   2.046   0.645 -0.3214  0.3971  0.0861
  631THF    H1013220   1.736   1.929   0.652  0.0680  0.6828 -0.9256
  631THF    H1113221   1.717   2.076   0.758  0.6092 -0.6571  0.6378
  631THF    H1213222   1.570   2.131   0.583 -2.0737 -0.7999 -2.4717
  631THF    H1313223   1.492   1.978   0.578  0.8382 -0.5070  0.0762
  632THF     O113224   3.585   1.764   3.499 -0.4918 -0.4215 -0.1873
  632THF     C213225   3.678   1.748   3.606 -0.6048 -0.2127  0.0919
  632THF     C313226   3.539   1.898   3.508  0.6756  0.7278 -0.3129
  632THF     H413227   3.780   1.746   3.567 -0.6766  0.1364 -0.1167
  632THF     H513228   3.669   1.648   3.650  0.0755 -0.4694 -0.3290
  632THF     H613229   3.561   1.949   3.414 -1.2114 -0.4781 -1.4834
  632THF     H713230   3.430   1.893   3.508  0.6832 -0.7704  1.8664
  632THF     C813231   3.597   1.964   3.635 -0.3002 -0.2482 -0.6605
  632THF     C913232   3.655   1.852   3.711 -1.2178 -0.1042  0.4182
  632THF    H1013233   3.524   2.027   3.685  0.1905  0.1473 -0.4358
  632THF    H1113234   3.671   2.036   3.600  0.6609 -1.4888 -1.2801
  632THF    H1213235   3.745   1.875   3.768 -0.7928 -0.0457 -0.2667
  632THF    H1313236   3.580   1.823   3.784 -1.9304 -0.2645 -0.3655
  633THF     O113237   4.797   4.806   5.298  0.3063 -0.2087 -0.4257
  633THF     C213238   4.913   4.755   5.362  0.1000 -0.1612 -0.1532
  633THF     C313239   4.820   4.943   5.266 -0.6970 -0.1596  0.0191
  633THF     H413240   4.972   4.717   5.279 -3.1031  0.2649 -2.8328
  633THF     H513241   4.902   4.662   5.417  2.6810 -0.6833 -0.4131
  633THF     H613242   4.858   4.956   5.164  1.5110 -0.1010  0.7895
  633THF     H713243   4.728   4.996   5.288  0.4803  1.0946  2.2392
  633THF     C813244   4.922   4.993   5.363  0.0581  0.8051 -0.7751
  633THF     C913245   4.966   4.866   5.440  0.0081 -0.0581  0.1377
  633THF    H1013246   4.891   5.082   5.417  0.3742 -0.0961  0.9466
  633THF    H1113247   5.011   5.029   5.311 -0.6859  1.2705 -1.7604
  633THF    H1213248   5.075   4.867   5.435 -0.0345 -0.6355 -1.6852
  633THF    H1313249   4.930   4.880   5.542  2.2660  0.7117  0.9029
  634THF     O113250   1.351   5.128   3.553  0.0771  0.5533  0.0576
  634THF     C213251   1.351   5.179   3.418  0.2603  0.1961  0.4944
  634THF     C313252   1.462   5.194   3.617  0.1418 -0.4250  0.1296
  634THF     H413253   1.263   5.161   3.357  0.9337 -1.3903 -0.0483
  634THF     H513254   1.440   5.140   3.370 -0.7794 -1.4145 -0.1987
  634THF     H613255   1.462   5.176   3.725 -1.1415 -2.2780 -0.1113
  634THF     H713256   1.546   5.137   3.578  0.9412  0.3061  0.7390
  634THF     C813257   1.453   5.336   3.560 -0.4993 -0.0593  0.4589
  634THF     C913258   1.368   5.333   3.430 -0.9248  0.7283 -0.0083
  634THF    H1013259   1.554   5.375   3.557 -0.3280  0.0928  3.8352
  634THF    H1113260   1.401   5.407   3.625 -1.4275 -0.0525 -0.2643
  634THF    H1213261   1.271   5.380   3.447 -1.2441 -0.3018  1.2143
  634THF    H1313262   1.422   5.362   3.340  0.6267  0.4240  0.7932
  635THF     O113263   2.913   5.194   0.492  0.5999 -0.5091 -0.0775
  635THF     C213264   3.021   5.214   0.395 -0.2243 -0.5247 -1.0553
  635THF     C313265   2.804   5.274   0.451  0.1208  0.3301 -0.1990
  635THF     H413266   3.094   5.135   0.412 -0.8562 -1.4576 -2.4549
  635THF     H513267   3.061   5.316   0.399 -1.4930 -0.0385 -0.1643
  635THF     H613268   2.709   5.228   0.477  0.5817 -0.2441  0.4948
  635THF     H713269   2.807   5.364   0.512  0.4511  0.2294 -0.0628
  635THF     C813270   2.816   5.286   0.300 -1.0245 -0.6142  0.2297
  635THF     C913271   2.941   5.197   0.270  0.4759  0.1826  0.3655
  635THF    H1013272   2.824   5.391   0.274  2.4749  0.0109  3.1111
  635THF    H1113273   2.728   5.252   0.246  0.6707  1.2276 -4.1782
  635THF    H1213274   2.919   5.091   0.274 -1.4099  0.5691  3.4573
  635THF    H1313275   2.995   5.227   0.180 -1.4637 -1.4450 -1.4511
  636THF     O113276   0.168   2.331   3.461  0.0774 -0.1921 -0.1850
  636THF     C213277   0.197   2.199   3.501 -0.3140 -0.5828 -0.1716
  636THF     C313278   0.054   2.324   3.372 -0.9255  0.0619 -0.4601
  636THF     H413279   0.276   2.188   3.576 -0.9346 -0.7931  0.4627
  636THF     H513280   0.240   2.143   3.418  0.2716 -2.5298  1.3682
  636THF     H613281  -0.006   2.415   3.374 -0.4518  0.3696  0.2253
  636THF     H713282   0.093   2.316   3.271 -0.5384  1.7262 -0.4692
  636THF     C813283  -0.029   2.197   3.401 -0.4043  0.1345 -0.3435
  636THF     C913284   0.055   2.144   3.528  0.3580  0.0509  0.2264
  636THF    H1013285  -0.022   2.128   3.317  1.0619 -0.3326  0.1297
  636THF    H1113286  -0.136   2.214   3.413  0.0271  1.7583  1.7155
  636THF    H1213287   0.034   2.199   3.620  0.0458 -0.3737  0.4132
  636THF    H1313288   0.051   2.036   3.544  2.3541 -0.9016 -4.1534
  637THF     O113289   0.097   0.992   5.038  0.4453  0.2497  0.3899
  637THF     C213290   0.198   1.070   4.989 -0.7893 -0.0130 -0.2279
  637THF     C313291  -0.000   0.980   4.932  0.3767 -0.0881  0.1538
  637THF     H413292   0.277   1.052   5.061 -1.3035  0.1445  0.3850
  637THF     H513293   0.181   1.178   4.986  0.4441  0.3894  3.1868
  637THF     H613294  -0.072   0.898   4.944 -1.4337  1.3322 -0.5504
  637THF     H713295  -0.061   1.069   4.918 -4.4959 -2.9916  0.5563
  637THF     C813296   0.079   0.954   4.805  0.0450  0.3894 -0.8529
  637THF     C913297   0.217   1.011   4.843 -0.2043 -0.1757 -0.2967
  637THF    H1013298   0.039   1.008   4.719  1.5044  2.2009 -0.4520
  637THF    H1113299   0.084   0.845   4.795 -2.0486  0.0200  1.1975
  637THF    H1213300   0.294   0.936   4.864 -0.0727 -0.2501 -1.0163
  637THF    H1313301   0.254   1.089   4.777  1.5459  0.5766  1.5059
  638THF     O113302   3.889   2.973   2.459 -0.1692  0.6961 -0.2095
  638THF     C213303   3.851   3.046   2.343  0.2185 -0.0173 -0.1277
  638THF     C313304   3.985   2.882   2.415 -0.5080  0.9189  0.3954
  638THF     H413305   3.910   3.132   2.311  0.6976 -0.9779 -1.9512
  638THF     H513306   3.751   3.084   2.362 -1.2272 -2.4974 -2.1163
  638THF     H613307   4.088   2.895   2.449 -0.3576 -0.4912  0.5221
  638THF     H713308   3.959   2.794   2.474 -1.0000  1.1714  0.5641
  638THF     C813309   3.966   2.854   2.261  0.3429 -0.4796 -0.2101
  638THF     C913310   3.851   2.944   2.227 -0.7032 -0.0779  0.4156
  638THF    H1013311   3.938   2.753   2.233  1.0193 -0.5779 -0.5405
  638THF    H1113312   4.058   2.879   2.208  0.3888  1.0873  0.5435
  638THF    H1213313   3.862   2.987   2.128 -2.0691 -0.3350  0.1387
  638THF    H1313314   3.769   2.873   2.228 -0.2479 -0.6859 -1.5237
  639THF     O113315   0.692   5.158   1.838  0.0807  0.2546 -0.2283
  639THF     C213316   0.811   5.221   1.807  0.6959 -0.2067 -0.7312
  639THF     C313317   0.714   5.035   1.910  0.0834  0.0146  0.0006
  639THF     H413318   0.815   5.329   1.818  1.2855 -0.3999  1.3305
  639THF     H513319   0.830   5.211   1.700 -0.5277 -0.6915 -0.9233
  639THF     H613320   0.680   5.049   2.013  1.1776 -0.4600  0.4329
  639THF     H713321   0.663   4.946   1.875  1.3950 -0.7258 -0.0762
  639THF     C813322   0.863   5.012   1.911 -0.3229  0.1478  0.1317
  639THF     C913323   0.919   5.158   1.896  0.2856 -0.3745 -0.2771
  639THF    H1013324   0.882   4.952   1.822 -2.0991  0.5638 -0.5815
  639THF    H1113325   0.892   4.968   2.007  1.9230  0.7445 -0.2206
  639THF    H1213326   0.910   5.203   1.995 -0.1031 -1.5452  0.2373
  639THF    H1313327   1.025   5.172   1.874  0.2660  0.2250 -0.0122
  640THF     O113328   2.684   4.648   0.807  0.1521  0.5651  0.1899
  640THF     C213329   2.764   4.603   0.909  0.1831  0.0773  0.6111
  640THF     C313330   2.667   4.555   0.702  0.1761  0.0042 -0.0659
  640THF     H413331   2.756   4.666   0.998 -0.6710 -1.3090  1.5620
  640THF     H513332   2.865   4.611   0.870 -0.4495  0.0055 -1.1055
  640THF     H613333   2.573   4.545   0.647  0.0482  1.0684 -0.0657
  640THF     H713334   2.745   4.563   0.627  1.0116  1.5499  0.9021
  640THF     C813335   2.687   4.425   0.784  0.2208 -0.2097 -0.0339
  640THF     C913336   2.707   4.467   0.930  0.2386 -0.0768 -0.0663
  640THF    H1013337   2.777   4.370   0.757  1.3111  1.7168 -0.5042
  640THF    H1113338   2.597   4.364   0.775 -0.2564  0.0812  2.1726
  640THF    H1213339   2.613   4.474   0.984 -0.1473 -0.6019 -0.6552
  640THF    H1313340   2.771   4.399   0.987  1.4960 -1.8571 -3.3090
  641THF     O113341   0.517   4.756   2.285 -0.1773  0.3586 -0.4170
  641THF     C213342   0.543   4.697   2.156 -0.7291 -0.1667 -0.1994
  641THF     C313343   0.614   4.860   2.296 -0.0044  0.1241 -0.3253
  641THF     H413344   0.510   4.774   2.086  1.6172  1.5194  0.4197
  641THF     H513345   0.490   4.604   2.137 -0.4527 -0.2601 -0.5203
  641THF     H613346   0.594   4.941   2.225 -1.2430  1.4040  1.3963
  641THF     H713347   0.614   4.911   2.392  1.4166 -0.5582  0.0581
  641THF     C813348   0.744   4.790   2.248 -0.3627 -0.1376 -0.3820
  641THF     C913349   0.697   4.682   2.154  0.0260  0.2476 -0.2390
  641THF    H1013350   0.797   4.737   2.328  0.3129 -2.3550 -2.1791
  641THF    H1113351   0.803   4.854   2.184 -1.4579 -0.1396 -1.4271
  641THF    H1213352   0.748   4.694   2.059 -0.5685  2.1530 -0.3638
  641THF    H1313353   0.727   4.587   2.198 -1.3933  0.0174  0.2882
  642THF     O113354   4.909   3.630   1.442 -0.1497  0.2965 -0.3449
  642THF     C213355   5.018   3.628   1.529  0.6528 -0.4412 -0.2413
  642THF     C313356   4.942   3.721   1.338 -0.1546  0.1905  0.6204
  642THF     H413357   5.028   3.548   1.602 -1.2182  0.1314  0.7231
  642THF     H513358   5.011   3.725   1.580  1.3356 -1.8653  2.8064
  642THF     H613359   4.872   3.713   1.255 -0.2378  3.0946  0.3258
  642THF     H713360   4.941   3.822   1.380 -0.6453  1.1213 -1.5017
  642THF     C813361   5.087   3.679   1.308 -0.1373  0.1500 -0.4897
  642THF     C913362   5.141   3.625   1.432 -0.0460 -0.2608 -0.2950
  642THF    H1013363   5.145   3.767   1.282  0.6713  0.2299  1.4017
  642THF    H1113364   5.082   3.601   1.233 -0.0052  2.1326 -2.6638
  642THF    H1213365   5.166   3.520   1.417  0.8008 -0.2287  0.7241
  642THF    H1313366   5.219   3.678   1.487 -0.2728 -0.0684 -0.1572
  643THF     O113367   1.164   4.074   1.692  0.0808 -0.2630  0.0185
  643THF     C213368   1.034   4.053   1.644  0.1328 -0.1911 -0.1302
  643THF     C313369   1.259   4.078   1.586  0.2085  0.1827  0.0331
  643THF     H413370   0.977   4.143   1.620 -1.7291 -1.5130 -0.8693
  643THF     H513371   0.972   3.994   1.712 -1.9538  0.2487 -1.5460
  643THF     H613372   1.290   4.176   1.549 -1.8603  0.0370 -2.3335
  643THF     H713373   1.349   4.024   1.616 -0.2321 -0.2859  0.5400
  643THF     C813374   1.206   4.004   1.469  0.0036 -0.5850  0.1413
  643THF     C913375   1.063   3.974   1.517  1.0763 -0.1985 -0.5031
  643THF    H1013376   1.265   3.915   1.447 -0.1997 -0.5186 -0.7026
  643THF    H1113377   1.207   4.063   1.378  0.9737 -1.5013 -0.4698
  643THF    H1213378   0.992   4.004   1.441  0.4688 -2.1231 -0.7464
  643THF    H1313379   1.053   3.867   1.532 -0.7614 -0.3187 -2.2066
  644THF     O113380   0.897   1.175   2.147 -0.0838 -0.0929  0.0652
  644THF     C213381   1.029   1.169   2.200 -0.1729  0.9988 -0.0672
  644THF     C313382   0.808   1.233   2.240  0.4418 -0.0612  0.2187
  644THF     H413383   1.098   1.216   2.130 -0.0835  0.5003 -0.3253
  644THF     H513384   1.056   1.064   2.213 -2.8984  0.1496 -0.5580
  644THF     H613385   0.798   1.339   2.218  2.2398  0.0702 -0.1723
  644THF     H713386   0.711   1.185   2.228  0.8386 -1.3161  1.6488
  644THF     C813387   0.878   1.203   2.377  0.2905 -0.0835  0.2007
  644THF     C913388   1.019   1.230   2.337  0.3925 -0.1824 -0.6365
  644THF    H1013389   0.857   1.103   2.415 -0.5346 -0.0512 -0.1377
  644THF    H1113390   0.833   1.279   2.442 -1.2989 -0.8155 -0.0016
  644THF    H1213391   1.039   1.337   2.335  1.2962 -0.2858  0.8039
  644THF    H1313392   1.083   1.196   2.419  0.0421  1.3077  0.3006
  645THF     O113393   1.551   0.131   2.950  0.2637 -0.4702  0.0533
  645THF     C213394   1.653   0.090   3.043  0.8710 -0.3341 -0.5167
  645THF     C313395   1.566   0.048   2.835  0.2562  0.2504  0.6826
  645THF     H413396   1.629  -0.009   3.081 -1.2875  0.1895 -0.3858
  645THF     H513397   1.675   0.150   3.131  2.0527 -1.4572 -0.0193
  645THF     H613398   1.507  -0.044   2.840 -0.2596  0.4968 -0.5675
  645THF     H713399   1.537   0.108   2.749  0.1212 -1.7754 -0.7503
  645THF     C813400   1.715   0.025   2.831 -0.2815  0.4002  0.2016
  645THF     C913401   1.771   0.085   2.954  0.4248 -0.0075 -0.4354
  645THF    H1013402   1.759   0.072   2.743 -1.5696  1.0512 -0.1207
  645THF    H1113403   1.734  -0.082   2.843  0.2216  0.3223 -1.0657
  645THF    H1213404   1.855   0.032   3.000 -0.6734  0.2541  2.0786
  645THF    H1313405   1.816   0.183   2.935  2.7136 -0.8231  0.4447
  646THF     O113406   0.533   3.432   3.417 -0.0736  0.5238  0.2314
  646THF     C213407   0.654   3.357   3.401 -0.0312  0.2325 -0.5835
  646THF     C313408   0.474   3.435   3.287  0.0976 -0.3074 -0.1891
  646THF     H413409   0.618   3.255   3.406  1.0697 -0.1292  0.6368
  646THF     H513410   0.722   3.380   3.483 -0.0657  1.2789 -0.8342
  646THF     H613411   0.440   3.338   3.249  0.0744 -0.6680  0.7122
  646THF     H713412   0.393   3.508   3.287  1.2072  0.9701  0.9969
  646THF     C813413   0.591   3.480   3.197 -0.1986  0.1518 -0.0706
  646THF     C913414   0.710   3.422   3.270  0.7145  0.1867  0.1772
  646THF    H1013415   0.598   3.589   3.195  2.3869  0.0793  0.9787
  646THF    H1113416   0.583   3.445   3.094 -1.9099  0.4524 -0.0594
  646THF    H1213417   0.754   3.341   3.212  0.1297  0.3140 -0.4608
  646THF    H1313418   0.790   3.493   3.293 -0.5202  1.5930  0.2979
  647THF     O113419   0.253   1.280   0.582 -0.3009 -0.0378  0.4231
  647THF     C213420   0.322   1.158   0.605 -0.1827 -0.4252 -0.3939
  647THF     C313421   0.137   1.251   0.502 -1.6077 -0.1456  0.4108
  647THF     H413422   0.351   1.163   0.710  0.9157  0.5832 -0.7277
  647THF     H513423   0.414   1.168   0.548 -0.1409  0.4586 -0.1804
  647THF     H613424   0.060   1.322   0.534  0.3680  2.8645 -1.0305
  647THF     H713425   0.163   1.267   0.397 -0.2184  0.6460  0.8508
  647THF     C813426   0.104   1.108   0.526  0.7842 -0.2529 -0.2703
  647THF     C913427   0.236   1.040   0.567  0.1541 -0.5560  0.5824
  647THF    H1013428   0.055   1.073   0.435 -0.3150  1.9081 -0.5568
  647THF    H1113429   0.032   1.077   0.603  0.5847 -2.5487 -1.2819
  647THF    H1213430   0.217   0.976   0.653 -0.1555  1.0030  1.7109
  647THF    H1313431   0.273   0.982   0.482 -0.4992 -1.7433  1.0846
  648THF     O113432   3.966   1.048   4.048  0.2391 -0.3194 -0.1028
  648THF     C213433   3.894   0.929   4.060 -0.3417  0.4901 -0.0873
  648THF     C313434   3.936   1.119   4.174 -0.2443 -0.2663  0.1616
  648THF     H413435   3.938   0.850   3.999 -0.9660 -2.7702  3.3327
  648THF     H513436   3.792   0.939   4.023 -0.4866  0.4159  0.2903
  648THF     H613437   4.025   1.169   4.213 -0.1189 -0.0098 -0.4440
  648THF     H713438   3.862   1.196   4.155 -2.3198 -2.3587 -0.6969
  648THF     C813439   3.891   1.012   4.279 -0.2974 -0.2313  0.0417
  648THF     C913440   3.900   0.884   4.203  0.9669  0.6511  0.0043
  648THF    H1013441   3.790   1.016   4.319 -0.2849  0.5461  0.0146
  648THF    H1113442   3.964   1.026   4.359  0.0613 -0.5892 -0.2201
  648THF    H1213443   3.987   0.826   4.233  1.2260  0.3297 -1.3095
  648THF    H1313444   3.814   0.820   4.222 -1.2383  3.9841  2.3948
  649THF     O113445   0.779   1.646   2.214 -0.3395 -0.7474  0.1674
  649THF     C213446   0.895   1.619   2.142  0.3054  0.2613 -0.2616
  649THF     C313447   0.692   1.708   2.114 -0.0686 -0.0134  0.3072
  649THF     H413448   0.959   1.554   2.202  2.8326  1.7138 -1.2550
  649THF     H513449   0.946   1.714   2.123  1.6210 -0.0969  1.2424
  649THF     H613450   0.589   1.726   2.145  0.0383  0.1939  0.5473
  649THF     H713451   0.731   1.805   2.084  1.3624 -0.3105  1.1070
  649THF     C813452   0.697   1.609   1.999  0.0720  0.7510 -0.0823
  649THF     C913453   0.838   1.553   2.019  0.4417  0.2566  0.5560
  649THF    H1013454   0.688   1.669   1.908  1.0082 -0.9169 -1.3197
  649THF    H1113455   0.616   1.537   2.001 -0.6302  1.4598  2.8843
  649THF    H1213456   0.828   1.446   2.033 -0.9924  0.3802  0.6422
  649THF    H1313457   0.898   1.562   1.928 -1.6138 -4.5391 -1.6216
  650THF     O113458   4.648   3.175   3.328  0.2755  0.0150  0.5816
  650THF     C213459   4.540   3.137   3.247 -0.4349 -0.4076  0.0493
  650THF     C313460   4.633   3.112   3.457 -0.3221  0.4589  0.0966
  650THF     H413461   4.578   3.053   3.188  0.3910 -0.9499  1.3056
  650THF     H513462   4.514   3.219   3.181 -0.2538 -0.5093 -0.1519
  650THF     H613463   4.721   3.048   3.469  0.4663  1.9300  3.0061
  650THF     H713464   4.644   3.193   3.529 -0.1532 -0.9433  1.7061
  650THF     C813465   4.494   3.046   3.469  0.0866  0.6784 -0.4721
  650THF     C913466   4.428   3.086   3.340 -0.5319  0.2390  0.6854
  650THF    H1013467   4.428   3.076   3.550  0.0005  3.3232 -1.4473
  650THF    H1113468   4.514   2.939   3.473  0.4680  0.7735  0.3462
  650THF    H1213469   4.360   3.015   3.293  0.5227 -0.1188 -0.3642
  650THF    H1313470   4.358   3.169   3.349 -0.7202  0.1135  0.4001
  651THF     O113471   3.495   3.792   3.408  0.5396 -0.2984  0.6290
  651THF     C213472   3.401   3.802   3.302 -0.3831 -0.5016 -0.5935
  651THF     C313473   3.611   3.735   3.345 -0.0522  0.1907  0.0433
  651THF     H413474   3.313   3.857   3.337 -2.2487 -3.2123 -0.6594
  651THF     H513475   3.367   3.700   3.281  0.4632 -0.7036 -1.0178
  651THF     H613476   3.707   3.734   3.396  1.6753 -1.4413 -2.9784
  651THF     H713477   3.598   3.628   3.327  1.3216 -0.0243  0.1978
  651THF     C813478   3.617   3.821   3.215 -0.1508  0.5916  0.7801
  651THF     C913479   3.478   3.851   3.180  0.2729  1.1211 -0.1139
  651THF    H1013480   3.667   3.767   3.135 -1.6366  0.7649 -0.3169
  651THF    H1113481   3.671   3.911   3.244 -0.3665  0.6325  1.0605
  651THF    H1213482   3.459   3.954   3.150  0.1695  0.3455 -2.9873
  651THF    H1313483   3.455   3.784   3.097  0.7054 -0.1745  0.7893
  652THF     O113484   1.360   5.168   4.209  0.2673  0.2135  0.0725
  652THF     C213485   1.481   5.107   4.249  0.7469 -0.3778 -0.1144
  652THF     C313486   1.393   5.279   4.128 -0.0515  0.1651 -0.0526
  652THF     H413487   1.459   5.001   4.259 -0.1373 -0.3096 -1.1318
  652THF     H513488   1.512   5.151   4.344 -0.4814 -1.5816  0.8860
  652THF     H613489   1.310   5.308   4.063  0.6747  2.1114 -0.1613
  652THF     H713490   1.425   5.370   4.180  0.0291  0.6053 -0.8640
  652THF     C813491   1.501   5.220   4.040  0.0060 -0.8230 -0.1574
  652THF     C913492   1.580   5.146   4.142 -0.8072  0.4174 -0.3637
  652THF    H1013493   1.561   5.295   3.988 -0.5617 -0.3785 -0.1920
  652THF    H1113494   1.457   5.151   3.968 -1.7144 -0.1141  0.1599
  652THF    H1213495   1.646   5.069   4.102  2.1744  2.5563  0.1089
  652THF    H1313496   1.652   5.213   4.189 -0.1498  0.8046 -1.8669
  653THF     O113497   0.762   0.711   1.119  0.8168  0.2687 -0.3580
  653THF     C213498   0.723   0.740   0.985  0.0182  0.0738  0.5327
  653THF     C313499   0.646   0.675   1.180  0.5051 -0.0005 -0.4368
  653THF     H413500   0.690   0.649   0.935 -0.1354 -0.9842  2.4319
  653THF     H513501   0.802   0.794   0.935 -1.4431  0.4904 -1.4356
  653THF     H613502   0.609   0.575   1.155 -0.8978  0.3854  0.0167
  653THF     H713503   0.672   0.676   1.285  1.1051  1.6025 -0.5772
  653THF     C813504   0.545   0.783   1.144 -0.0315  0.0325 -0.3673
  653THF     C913505   0.607   0.842   1.022  0.6972  0.6681  0.9043
  653THF    H1013506   0.527   0.850   1.228 -1.2795 -0.4068 -0.2563
  653THF    H1113507   0.446   0.743   1.120 -0.9171  2.8666 -1.8227
  653THF    H1213508   0.532   0.844   0.943  1.4444 -0.2057  0.1546
  653THF    H1313509   0.644   0.941   1.050 -0.1687  1.2175  0.1808
  654THF     O113510   3.495   2.358   4.560  0.1859  0.1619  0.0976
  654THF     C213511   3.529   2.342   4.701  0.3237 -0.0109  0.3617
  654THF     C313512   3.497   2.226   4.511  0.0409 -0.5023  0.5067
  654THF     H413513   3.455   2.394   4.762  0.6685  0.4513  0.3933
  654THF     H513514   3.619   2.398   4.727 -1.3891  2.1668  2.1115
  654THF     H613515   3.438   2.199   4.423  0.9947  0.9014 -0.6183
  654THF     H713516   3.601   2.213   4.479  0.1125  0.5711  0.2371
  654THF     C813517   3.473   2.127   4.620 -0.1214  0.1811 -0.4564
  654THF     C913518   3.529   2.195   4.744 -0.1623 -0.0387  0.2883
  654THF    H1013519   3.524   2.032   4.606 -2.1410 -0.9773 -0.2416
  654THF    H1113520   3.371   2.092   4.633  0.0158 -0.2091 -0.4256
  654THF    H1213521   3.476   2.186   4.839  2.7245 -0.3603  1.9824
  654THF    H1313522   3.631   2.163   4.767 -0.8854 -3.2362 -0.5320
  655THF     O113523   5.095   0.237   5.020  0.2482 -0.1804 -0.0322
  655THF     C213524   5.137   0.268   5.152 -0.4220  0.0442  0.0674
  655THF     C313525   5.206   0.245   4.931  0.7499 -0.1599  0.3333
  655THF     H413526   5.075   0.229   5.232  1.8367 -0.2312  1.7853
  655THF     H513527   5.126   0.375   5.166 -1.4283 -0.0879  0.3380
  655THF     H613528   5.192   0.196   4.834  1.9239 -1.6942  0.8939
  655THF     H713529   5.230   0.350   4.914  0.9840 -0.4332 -1.2578
  655THF     C813530   5.307   0.172   5.011  0.0258  0.5463 -0.3584
  655THF     C913531   5.281   0.209   5.159 -0.0628  0.6483  0.6739
  655THF    H1013532   5.409   0.197   4.981 -0.0701  0.1952 -1.0010
  655THF    H1113533   5.289   0.066   4.992 -0.9294  0.4437  1.0089
  655THF    H1213534   5.285   0.125   5.228 -1.8017 -0.8947 -0.9686
  655THF    H1313535   5.363   0.270   5.196  0.3648 -0.0987  0.9736
  656THF     O113536   0.752   5.375   3.223  0.2834 -0.0282 -0.0419
  656THF     C213537   0.769   5.361   3.078  0.8836  0.0355  0.1712
  656THF     C313538   0.860   5.308   3.293  0.2144  0.3327 -0.1515
  656THF     H413539   0.858   5.406   3.034  0.5523 -0.9725 -1.6557
  656THF     H513540   0.683   5.395   3.020 -0.3514 -0.9291  1.3844
  656THF     H613541   0.950   5.368   3.286  2.4873 -2.7828  0.0785
  656THF     H713542   0.832   5.282   3.395 -1.6535 -1.3388 -1.0112
  656THF     C813543   0.871   5.185   3.202  0.8917  0.2846 -0.1698
  656THF     C913544   0.784   5.211   3.074 -0.1209  0.9156 -0.3857
  656THF    H1013545   0.838   5.099   3.262  0.4582  0.3378 -0.3304
  656THF    H1113546   0.974   5.156   3.183  1.0187 -0.2090  1.1736
  656THF    H1213547   0.834   5.175   2.984  0.6637  0.8858  0.0600
  656THF    H1313548   0.695   5.151   3.095 -0.5641  1.3237 -1.0587
  657THF     O113549   3.538   1.016   5.268 -0.0608  0.2692 -0.3809
  657THF     C213550   3.555   0.983   5.132 -0.7740 -0.1695  0.3363
  657THF     C313551   3.462   0.911   5.328  0.4136 -0.2091  0.2074
  657THF     H413552   3.642   1.035   5.092 -0.9311  0.5162  0.8580
  657THF     H513553   3.465   1.007   5.075  2.5175  2.2259 -4.6062
  657THF     H613554   3.496   0.888   5.429 -0.4334  0.8086  0.7471
  657THF     H713555   3.362   0.953   5.343  1.3416  1.7553  1.2928
  657THF     C813556   3.472   0.784   5.237 -0.1553 -0.2586 -0.1207
  657THF     C913557   3.576   0.833   5.145 -0.2733 -0.6821 -0.4590
  657THF    H1013558   3.375   0.756   5.197 -1.1963  0.7422  1.5669
  657THF    H1113559   3.515   0.695   5.282  0.9484  0.2426 -0.1416
  657THF    H1213560   3.679   0.814   5.175 -1.0622 -0.2214  2.8635
  657THF    H1313561   3.554   0.786   5.049 -1.7235  0.4974 -0.7449
  658THF     O113562   4.176   2.582   3.340  0.2795  0.0922 -0.2170
  658THF     C213563   4.196   2.656   3.455 -0.0443 -0.5031  0.5463
  658THF     C313564   4.171   2.665   3.227 -0.0291 -0.2585 -0.2568
  658THF     H413565   4.294   2.702   3.450 -0.0172 -0.6154  0.0301
  658THF     H513566   4.173   2.594   3.542 -0.6354  0.2540  0.9472
  658THF     H613567   4.269   2.704   3.202 -1.0656  2.5028 -0.3800
  658THF     H713568   4.125   2.622   3.138 -1.5825  1.6462 -0.4368
  658THF     C813569   4.082   2.778   3.283 -0.8915  0.0411  0.1461
  658THF     C913570   4.110   2.781   3.439  0.3539 -0.2543 -0.0664
  658THF    H1013571   3.975   2.756   3.279 -0.6608 -0.9740 -0.7934
  658THF    H1113572   4.107   2.869   3.230  0.3237 -0.7193 -0.6282
  658THF    H1213573   4.161   2.868   3.481  1.5129 -0.0438 -1.7680
  658THF    H1313574   4.014   2.757   3.484  0.1909 -1.7473 -1.1392
  659THF     O113575   2.591   1.272   1.924 -0.3482 -0.3434 -0.4412
  659THF     C213576   2.714   1.271   1.997 -0.3528  0.2877  0.1482
  659THF     C313577   2.599   1.363   1.818  0.4544 -0.2126 -0.0268
  659THF     H413578   2.740   1.177   2.047 -2.4678 -1.4845 -1.8361
  659THF     H513579   2.715   1.359   2.061  0.7137  2.5904 -2.8239
  659THF     H613580   2.519   1.351   1.744  1.7364 -1.5076 -1.2826
  659THF     H713581   2.590   1.462   1.861  3.4723  0.6356 -1.0975
  659THF     C813582   2.744   1.365   1.775  0.5543 -0.2939  0.1139
  659THF     C913583   2.820   1.318   1.896 -0.0952  0.3772 -0.1634
  659THF    H1013584   2.776   1.464   1.744 -0.4631 -0.0473 -0.1748
  659THF    H1113585   2.768   1.303   1.689  0.3251  2.0648 -1.7539
  659THF    H1213586   2.883   1.231   1.879 -1.6386 -0.7780 -0.1978
  659THF    H1313587   2.895   1.390   1.929 -1.0061  1.2891 -0.0156
  660THF     O113588   4.502   5.311   2.927  0.7239 -0.3446  0.6744
  660THF     C213589   4.390   5.353   2.847 -0.3684  0.6428  0.1868
  660THF     C313590   4.515   5.419   3.031 -0.0378 -0.0097  0.1377
  660THF     H413591   4.336   5.267   2.806 -1.2576  1.2934 -0.0170
  660THF     H513592   4.422   5.417   2.765  2.5857  0.5678  1.1490
  660THF     H613593   4.512   5.357   3.121 -0.1517  1.3141  1.0952
  660THF     H713594   4.607   5.471   3.003  0.2164  0.4908  1.7314
  660THF     C813595   4.397   5.512   3.019  0.6894 -0.8664 -0.0303
  660THF     C913596   4.297   5.428   2.946 -0.2939  0.3754  0.2679
  660THF    H1013597   4.432   5.596   2.958  1.2361 -0.9947  0.1109
  660THF    H1113598   4.366   5.551   3.116  4.0135 -0.3113  0.9335
  660THF    H1213599   4.235   5.358   3.002  0.7869 -0.5834  0.3016
  660THF    H1313600   4.225   5.485   2.886 -0.5877 -0.3216 -0.0573
  661THF     O113601   3.334   4.674   4.224  0.0868 -0.3052 -0.0027
  661THF     C213602   3.316   4.729   4.090  0.1918  0.0968  0.0514
  661THF     C313603   3.472   4.635   4.236 -0.6417  0.5617 -0.2229
  661THF     H413604   3.325   4.837   4.102 -1.0218  0.2784 -0.5472
  661THF     H513605   3.216   4.706   4.055  0.6903 -1.5115 -0.4122
  661THF     H613606   3.536   4.722   4.254 -0.2010  0.3776 -0.8772
  661THF     H713607   3.480   4.566   4.319 -1.7318  0.9367  0.2179
  661THF     C813608   3.507   4.587   4.097  0.8205  0.2407 -0.4513
  661THF     C913609   3.421   4.668   3.999  0.5156 -0.2263 -0.0601
  661THF    H1013610   3.473   4.485   4.078 -1.2189  0.8931 -0.5740
  661THF    H1113611   3.611   4.582   4.068  0.8119 -1.6497 -0.3335
  661THF    H1213612   3.478   4.732   3.932  0.0342 -2.4560 -2.8292
  661THF    H1313613   3.366   4.587   3.950  0.4474 -0.6751  0.7422
  662THF     O113614   1.415   5.309   2.141 -0.3717  0.2133  0.2021
  662THF     C213615   1.507   5.294   2.036 -0.1409 -0.1733 -0.3054
  662THF     C313616   1.329   5.197   2.127  0.1311 -0.0640 -0.2972
  662THF     H413617   1.572   5.209   2.062 -1.1561 -1.1132 -0.7533
  662THF     H513618   1.568   5.383   2.026  1.8444 -1.0993  2.1977
  662THF     H613619   1.379   5.108   2.164  1.8395  0.1606 -1.9484
  662THF     H713620   1.230   5.202   2.173  0.3390 -1.9349  0.4476
  662THF     C813621   1.301   5.194   1.977  0.2376  0.0193  0.1853
  662THF     C913622   1.427   5.253   1.916  0.8192  0.1118 -0.1898
  662THF    H1013623   1.221   5.266   1.960 -1.0853 -0.8068  2.4955
  662THF    H1113624   1.269   5.097   1.940 -0.6678  0.2527  0.3501
  662THF    H1213625   1.468   5.168   1.862 -0.7283  0.2596 -1.6872
  662THF    H1313626   1.416   5.321   1.832  1.4335  1.9353  1.1436
  663THF     O113627   0.476   5.003   3.424  0.9284  0.0574  0.8221
  663THF     C213628   0.416   5.058   3.301  0.3822  0.2131  0.7912
  663THF     C313629   0.531   5.111   3.493 -0.5024 -0.7335 -0.3209
  663THF     H413630   0.349   4.987   3.253  1.7969 -0.3211 -0.4588
  663THF     H513631   0.490   5.104   3.234  0.9523 -1.1385  0.4686
  663THF     H613632   0.547   5.089   3.599 -0.9346  0.6117  0.0483
  663THF     H713633   0.628   5.133   3.449  0.4825 -1.1080  1.5255
  663THF     C813634   0.440   5.228   3.457  0.3976 -0.1638  0.7817
  663THF     C913635   0.340   5.178   3.348 -0.0026  0.0921 -0.0694
  663THF    H1013636   0.492   5.319   3.427 -1.0256  0.4318  0.0554
  663THF    H1113637   0.386   5.276   3.539 -1.2968  0.4673 -0.6443
  663THF    H1213638   0.241   5.155   3.389  0.2546 -0.9276  0.0087
  663THF    H1313639   0.325   5.254   3.271 -1.1897 -0.9157 -0.8713
  664THF     O113640   4.071   3.476   1.385  0.1241  0.6331  0.6820
  664THF     C213641   4.008   3.598   1.371  0.0872  0.2410  0.1380
  664THF     C313642   4.207   3.498   1.434 -0.5026  0.1703 -0.1878
  664THF     H413643   3.906   3.600   1.410  0.6667 -0.5226  1.7568
  664THF     H513644   3.997   3.612   1.263  0.2568  0.2112  0.1173
  664THF     H613645   4.252   3.418   1.493  1.4764  0.9582 -0.5476
  664THF     H713646   4.277   3.525   1.354  1.4279 -3.3184  0.1143
  664THF     C813647   4.192   3.619   1.529 -0.3096 -0.0675 -0.1693
  664THF     C913648   4.093   3.698   1.442  0.4808 -0.2464 -0.2455
  664THF    H1013649   4.285   3.667   1.558  1.0375 -3.1660  1.0994
  664THF    H1113650   4.143   3.588   1.621 -0.9157 -0.0329 -0.4787
  664THF    H1213651   4.036   3.766   1.505 -0.4495 -1.7765  0.6333
  664THF    H1313652   4.150   3.764   1.376 -0.0566  0.6893  0.2039
  665THF     O113653   2.678   4.243   3.748 -0.2657  0.1164  0.1747
  665THF     C213654   2.596   4.160   3.664 -0.1242 -0.3655 -0.1218
  665THF     C313655   2.667   4.375   3.707 -0.8998 -0.6835 -0.3666
  665THF     H413656   2.580   4.059   3.701 -0.6406 -0.9559 -1.8657
  665THF     H513657   2.639   4.149   3.565  1.2244 -0.8787  0.4973
  665THF     H613658   2.700   4.451   3.777 -2.8401  0.0616 -0.1954
  665THF     H713659   2.722   4.391   3.614 -2.0526  0.1825 -0.9291
  665THF     C813660   2.517   4.389   3.691  0.0187  0.2496  0.3014
  665THF     C913661   2.465   4.245   3.661  0.1554  0.7141 -0.7241
  665THF    H1013662   2.507   4.468   3.617 -1.3193  2.1949  2.4065
  665THF    H1113663   2.475   4.425   3.786  0.1386  0.4914  0.2634
  665THF    H1213664   2.408   4.206   3.746  1.2177 -0.4442 -0.5108
  665THF    H1313665   2.404   4.243   3.571 -3.3434 -3.2347  1.3652
  666THF     O113666   1.086   3.911   5.276 -0.3658  0.4775 -0.1230
  666THF     C213667   1.015   3.931   5.158  0.1351  0.1326 -0.0120
  666THF     C313668   1.197   4.003   5.269  0.5453  0.2133 -0.1449
  666THF     H413669   0.914   3.892   5.162  0.1053  0.1493 -0.5722
  666THF     H513670   1.075   3.894   5.075  1.4238 -0.4968  1.1667
  666THF     H613671   1.220   4.036   5.371  0.5820  0.8304 -0.3436
  666THF     H713672   1.285   3.959   5.221  0.6784  1.8950 -1.5604
  666THF     C813673   1.153   4.119   5.185  0.0655 -0.0169  0.1029
  666THF     C913674   1.010   4.084   5.149  0.1972 -0.1187  0.7384
  666THF    H1013675   1.205   4.121   5.089  0.6450 -1.3154  0.3782
  666THF    H1113676   1.163   4.214   5.239 -1.2608  0.2567 -0.1068
  666THF    H1213677   0.935   4.133   5.212  1.6745  2.3009  0.7343
  666THF    H1313678   0.980   4.114   5.048  0.4981  0.3999  0.8012
  667THF     O113679   4.932   0.599   3.999 -0.2014 -0.4750  0.4131
  667THF     C213680   4.981   0.615   3.860 -0.3683  0.3930 -0.2903
  667THF     C313681   5.007   0.687   4.085 -0.5686  0.5514  0.0919
  667THF     H413682   4.919   0.560   3.789  0.6262 -1.0155 -0.1087
  667THF     H513683   5.079   0.570   3.849  0.5253  2.5153 -1.3570
  667THF     H613684   4.937   0.720   4.162 -2.1205 -0.3785 -0.8625
  667THF     H713685   5.093   0.638   4.131 -0.3469  0.7073 -0.1566
  667THF     C813686   5.045   0.807   3.991 -0.3236 -0.0898  0.0684
  667THF     C913687   4.984   0.759   3.855 -0.1375  0.9432 -0.3309
  667THF    H1013688   5.153   0.823   3.989 -0.0727 -1.6325 -2.1088
  667THF    H1113689   4.987   0.890   4.030  1.1941  0.6401  0.8513
  667THF    H1213690   4.877   0.778   3.858 -0.1890  0.4982  1.0013
  667THF    H1313691   5.039   0.791   3.766  0.2527  1.3784  0.0590
  668THF     O113692   4.080   3.101   1.908 -0.3335 -0.4777 -0.0553
  668THF     C213693   4.218   3.114   1.911 -0.5658 -0.1687  0.2403
  668THF     C313694   4.032   3.107   1.773  0.0277  0.7640  0.0298
  668THF     H413695   4.253   3.015   1.938 -2.4000 -0.3334  2.2514
  668THF     H513696   4.251   3.175   1.995 -1.1893  2.7193 -1.4392
  668THF     H613697   3.973   3.016   1.761  0.1786  0.7776 -0.9512
  668THF     H713698   3.973   3.197   1.753 -0.0538  0.3552 -1.7461
  668THF     C813699   4.154   3.116   1.686 -0.2898  0.2590 -0.0594
  668THF     C913700   4.257   3.174   1.775  0.7708 -0.6390  0.3826
  668THF    H1013701   4.148   3.186   1.603  0.1146  2.0706  1.3510
  668THF    H1113702   4.190   3.016   1.664  0.9562  0.4869  0.8361
  668THF    H1213703   4.359   3.140   1.757  0.9041 -0.9502  1.6807
  668THF    H1313704   4.255   3.283   1.771 -1.4034 -0.6850 -1.0621
  669THF     O113705   4.674   0.445   0.141 -0.2564 -0.5938  0.4443
  669THF     C213706   4.775   0.347   0.115 -0.3665 -0.3112 -0.1196
  669THF     C313707   4.683   0.537   0.030 -0.1443 -0.4443 -0.0865
  669THF     H413708   4.746   0.256   0.168  0.4759 -0.3835  0.2351
  669THF     H513709   4.866   0.395   0.151  0.8638 -1.2862 -1.7453
  669THF     H613710   4.588   0.588   0.016 -0.5639 -0.6022  1.9034
  669THF     H713711   4.768   0.605   0.030  1.2890 -2.1139 -0.9231
  669THF     C813712   4.688   0.442  -0.084  0.9826  0.0656  0.1317
  669THF     C913713   4.776   0.332  -0.037  0.7152 -0.1079  0.0462
  669THF    H1013714   4.725   0.488  -0.175  0.3700  1.5005  0.5758
  669THF    H1113715   4.591   0.394  -0.092  1.5259 -1.9639  3.5901
  669THF    H1213716   4.752   0.234  -0.079  0.4730  0.4972 -1.2687
  669THF    H1313717   4.874   0.352  -0.081  0.4173 -1.3587 -1.2809
  670THF     O113718   2.251   0.524   3.337  0.0280 -0.1300 -0.0463
  670THF     C213719   2.171   0.414   3.319 -0.5401  0.0491 -0.3656
  670THF     C313720   2.389   0.479   3.342 -0.1398 -0.3518 -0.0126
  670THF     H413721   2.183   0.358   3.226  1.1592  0.0075 -0.1537
  670THF     H513722   2.066   0.443   3.319 -0.5683 -0.0242 -1.1409
  670THF     H613723   2.413   0.453   3.239  0.4381  2.3384 -0.6201
  670THF     H713724   2.461   0.546   3.387  1.1915 -1.2003 -0.8050
  670THF     C813725   2.374   0.360   3.432  0.5959 -0.1752 -0.3037
  670THF     C913726   2.229   0.324   3.424 -0.1367 -0.1722  0.4262
  670THF    H1013727   2.397   0.379   3.537 -0.6865  0.2400 -0.0752
  670THF    H1113728   2.436   0.277   3.398 -1.3001 -1.6359 -0.3243
  670THF    H1213729   2.216   0.217   3.409  0.0054 -0.3136  1.2765
  670THF    H1313730   2.188   0.356   3.520 -1.0869  0.0570 -0.0449
  671THF     O113731   1.291   4.414   0.851  1.0565  0.1648  0.5098
  671THF     C213732   1.344   4.498   0.751  0.6401  0.2191  0.0311
  671THF     C313733   1.378   4.430   0.969  0.8684 -0.1851 -0.0151
  671THF     H413734   1.267   4.522   0.678  0.0025 -0.1659  0.5554
  671THF     H513735   1.420   4.441   0.697  1.5508 -0.9535  2.4139
  671THF     H613736   1.309   4.435   1.053  2.7056  1.3648  1.4893
  671THF     H713737   1.450   4.348   0.971 -0.5144 -1.4410  2.1064
  671THF     C813738   1.457   4.562   0.951  0.2824 -0.2415 -0.2266
  671THF     C913739   1.395   4.624   0.822 -0.2140  0.4096 -0.8111
  671THF    H1013740   1.563   4.542   0.935  0.9032 -0.0295  2.9034
  671THF    H1113741   1.430   4.637   1.026  0.3363  1.0448 -1.4511
  671THF    H1213742   1.307   4.682   0.850 -1.3713 -1.3128 -0.7118
  671THF    H1313743   1.461   4.689   0.763 -0.2365  1.6244  0.4641
  672THF     O113744   0.339   0.038   4.121  0.1430  0.1350  0.0083
  672THF     C213745   0.297  -0.017   3.996 -0.2833  0.2792  1.1836
  672THF     C313746   0.215   0.060   4.198  0.5250 -0.6087  0.2991
  672THF     H413747   0.303  -0.125   4.010  2.0074  0.3002  0.8098
  672THF     H513748   0.376   0.019   3.931 -1.2447  2.0150  0.9302
  672THF     H613749   0.184  -0.032   4.247 -0.4457 -0.4542 -0.0111
  672THF     H713750   0.243   0.121   4.283 -1.2536  0.2880  0.2900
  672THF     C813751   0.119   0.116   4.090  0.8162  0.0824  1.1013
  672THF     C913752   0.154   0.036   3.961  0.4948  0.9047  0.5135
  672THF    H1013753   0.154   0.217   4.067  1.9973 -0.9518 -2.1426
  672THF    H1113754   0.013   0.116   4.118 -0.0905 -1.6096 -1.8615
  672THF    H1213755   0.077  -0.040   3.950  1.1449  0.5896 -2.8820
  672THF    H1313756   0.158   0.080   3.862 -1.5000 -1.6436 -0.8132
  673THF     O113757   1.281   0.325   1.946  0.1486 -0.1622  0.2454
  673THF     C213758   1.240   0.198   1.988  0.3916  0.3119 -0.2091
  673THF     C313759   1.415   0.305   1.902  0.0769 -0.8562 -0.1576
  673THF     H413760   1.138   0.206   1.949  0.1202 -0.2024  0.3769
  673THF     H513761   1.250   0.186   2.095 -0.0858  1.5458 -0.0063
  673THF     H613762   1.452   0.376   1.827 -1.8895  0.6365  0.1823
  673THF     H713763   1.486   0.302   1.984  1.8505  0.2762 -1.5623
  673THF     C813764   1.410   0.172   1.823  0.1725 -0.0209  0.2640
  673THF     C913765   1.321   0.098   1.915  0.4091  0.5200 -0.0281
  673THF    H1013766   1.506   0.122   1.816 -1.1857 -2.6222 -1.0009
  673THF    H1113767   1.385   0.196   1.719 -0.0278  1.4776  0.6305
  673THF    H1213768   1.261   0.017   1.873  0.1428  0.3031  0.7597
  673THF    H1313769   1.384   0.057   1.993  0.5930 -1.3659 -1.1044
  674THF     O113770   3.704   5.166   2.842  0.6297  0.5039 -0.0194
  674THF     C213771   3.659   5.251   2.735 -0.2621  0.1000 -0.1150
  674THF     C313772   3.828   5.223   2.885 -0.1450 -0.2274  0.6019
  674THF     H413773   3.553   5.242   2.709 -0.3306 -2.2310  0.7759
  674THF     H513774   3.719   5.245   2.644 -0.9880  0.7147 -0.6556
  674THF     H613775   3.880   5.174   2.968  0.8264 -0.0506  0.1106
  674THF     H713776   3.898   5.213   2.803 -1.0527 -0.2717 -0.1890
  674THF     C813777   3.794   5.371   2.896 -0.2478 -0.1640 -0.0401
  674THF     C913778   3.682   5.392   2.795 -0.3563  0.1323  0.3191
  674THF    H1013779   3.884   5.425   2.866  2.0111 -2.1887  2.6013
  674THF    H1113780   3.776   5.406   2.998  2.9340 -0.4104  0.7126
  674THF    H1213781   3.586   5.431   2.829 -0.3147 -0.3518  1.0143
  674THF    H1313782   3.726   5.464   2.726  1.8230  0.1488  1.6352
  675THF     O113783   4.087   1.748   0.188 -0.4288 -0.5319  0.5881
  675THF     C213784   4.151   1.862   0.135  0.1870  0.0505 -0.0156
  675THF     C313785   4.057   1.780   0.315 -0.0891  0.2247  0.3256
  675THF     H413786   4.069   1.929   0.109  2.0535  2.8762  0.8751
  675THF     H513787   4.212   1.826   0.053  0.5917 -0.2495  0.4141
  675THF     H613788   3.972   1.849   0.316 -0.5180 -0.2997  0.3951
  675THF     H713789   4.027   1.684   0.357 -0.1252  0.5315  1.0221
  675THF     C813790   4.183   1.851   0.370 -0.0100 -0.3519 -0.0491
  675THF     C913791   4.241   1.916   0.251 -0.7834 -0.4646  0.1692
  675THF    H1013792   4.248   1.778   0.418 -1.2240 -0.6572  1.2110
  675THF    H1113793   4.152   1.925   0.443 -0.8175  0.6709 -1.3787
  675THF    H1213794   4.239   2.024   0.261 -2.3492 -0.3181 -1.2538
  675THF    H1313795   4.343   1.881   0.236 -1.0816 -0.7499 -1.3515
  676THF     O113796   4.781   4.409   3.132 -0.0213 -0.0348 -0.0033
  676THF     C213797   4.889   4.496   3.128  0.0750 -0.5974  0.0253
  676THF     C313798   4.803   4.327   3.014 -0.5393  0.0591  0.2346
  676THF     H413799   4.986   4.456   3.158  1.2710  1.5602 -0.6752
  676THF     H513800   4.880   4.587   3.188  3.2061 -0.3816  0.3370
  676THF     H613801   4.894   4.268   3.022  0.4681  1.3110 -1.2557
  676THF     H713802   4.724   4.253   2.999 -1.6110  1.4202 -1.2929
  676THF     C813803   4.812   4.430   2.908 -0.3026 -0.0243  0.7124
  676THF     C913804   4.906   4.525   2.977  0.0425 -0.4034  0.0512
  676THF    H1013805   4.714   4.470   2.881  0.2256  0.8786  0.0989
  676THF    H1113806   4.855   4.388   2.817  1.4783  1.6444  0.7302
  676THF    H1213807   5.010   4.516   2.945  0.1631  0.6781  0.0896
  676THF    H1313808   4.881   4.627   2.948  0.3327 -0.7453 -1.5376
  677THF     O113809   0.413   0.065   3.460 -0.2048 -0.8775 -0.2192
  677THF     C213810   0.526   0.149   3.456  0.4944 -0.1728 -0.1235
  677THF     C313811   0.350   0.058   3.335 -0.1386 -0.3278 -0.2734
  677THF     H413812   0.617   0.101   3.493 -0.0829 -0.9995  0.2472
  677THF     H513813   0.518   0.235   3.523  2.2397 -0.2055  0.1626
  677THF     H613814   0.294  -0.036   3.331 -0.9298  0.1441 -0.6239
  677THF     H713815   0.277   0.139   3.335  0.4279  0.1964 -0.5993
  677THF     C813816   0.464   0.080   3.236 -0.6172  0.2404  0.1573
  677THF     C913817   0.553   0.187   3.307  0.5211  0.1351  0.1849
  677THF    H1013818   0.424   0.109   3.139  0.9951  0.7851 -0.3701
  677THF    H1113819   0.515  -0.015   3.222  1.0261  1.1846 -0.5099
  677THF    H1213820   0.651   0.181   3.260  0.9404  0.7868  0.9656
  677THF    H1313821   0.511   0.285   3.285  1.4816  0.6984  0.8246
  678THF     O113822   5.235   4.754   1.187  0.0128 -0.3268 -0.1385
  678THF     C213823   5.326   4.757   1.079  0.0809  0.2507 -0.2309
  678THF     C313824   5.290   4.664   1.284  0.1787 -0.0203  0.0008
  678THF     H413825   5.323   4.849   1.020 -1.2612  0.9235  0.8321
  678THF     H513826   5.296   4.674   1.016 -0.1872 -2.0985  2.7865
  678THF     H613827   5.274   4.679   1.391  3.0921 -0.3236  0.5743
  678THF     H713828   5.248   4.568   1.255 -0.6259 -0.4527  2.3897
  678THF     C813829   5.439   4.673   1.273 -0.3411 -0.0788  0.3800
  678THF     C913830   5.462   4.735   1.136  0.0279 -0.1386  0.3775
  678THF    H1013831   5.491   4.579   1.256 -0.2978  0.1809 -1.0152
  678THF    H1113832   5.487   4.724   1.357 -0.3998  1.4757 -0.5045
  678THF    H1213833   5.503   4.836   1.141 -2.3931  0.9671 -0.4552
  678THF    H1313834   5.527   4.678   1.070 -1.4323  0.3613 -1.5853
  679THF     O113835   2.748   2.691   3.537 -0.3862  0.5909 -0.2809
  679THF     C213836   2.798   2.743   3.662 -0.5918 -0.0919  0.0845
  679THF     C313837   2.636   2.767   3.500  0.6952 -0.3510 -0.3320
  679THF     H413838   2.861   2.827   3.631  0.5592 -0.2986  1.7644
  679THF     H513839   2.867   2.676   3.713  3.1138  1.5926 -2.2397
  679THF     H613840   2.663   2.854   3.440  0.1741  0.1077  0.0834
  679THF     H713841   2.567   2.702   3.446  0.0174 -1.6904  1.9858
  679THF     C813842   2.568   2.816   3.629  0.0572  0.5234 -0.2230
  679THF     C913843   2.672   2.787   3.743 -0.1677 -0.2250 -0.2870
  679THF    H1013844   2.472   2.766   3.642  0.4595  0.1578  1.5892
  679THF    H1113845   2.543   2.922   3.620 -0.2042  0.6483  1.6525
  679THF    H1213846   2.676   2.873   3.810  0.2476 -0.7559  0.3750
  679THF    H1313847   2.643   2.693   3.790  0.1475 -0.7296 -1.0791
  680THF     O113848   3.379   5.385   1.085  0.2940 -0.0097  0.1185
  680THF     C213849   3.501   5.465   1.089  0.3231  0.4307  0.1918
  680THF     C313850   3.389   5.284   0.988  0.2203  0.1359 -0.3826
  680THF     H413851   3.564   5.439   1.174  0.3957  1.7712  0.5815
  680THF     H513852   3.482   5.570   1.112  0.3820 -0.0264  2.6637
  680THF     H613853   3.457   5.207   1.025 -0.6723 -1.1092 -1.2371
  680THF     H713854   3.305   5.219   0.961  2.0039 -1.6334 -1.9628
  680THF     C813855   3.454   5.354   0.870  0.4500  0.0474  0.1438
  680THF     C913856   3.551   5.442   0.941 -0.5583  0.1654 -0.2427
  680THF    H1013857   3.377   5.418   0.826  0.3592 -0.3172 -0.2398
  680THF    H1113858   3.490   5.280   0.799 -1.4899 -1.2709  0.4554
  680THF    H1213859   3.651   5.400   0.950  0.1980  2.1404  1.4804
  680THF    H1313860   3.568   5.540   0.897 -1.1239  1.1564  1.6113
  681THF     O113861   4.801   4.121   5.302 -0.7722 -0.1212  0.1283
  681THF     C213862   4.680   4.184   5.340  0.4301 -0.7495 -0.0050
  681THF     C313863   4.902   4.219   5.312 -0.7410 -0.7615 -0.3396
  681THF     H413864   4.604   4.115   5.375 -0.2606  0.0253  0.0613
  681THF     H513865   4.644   4.229   5.247  1.8124  0.0718 -0.1722
  681THF     H613866   4.999   4.169   5.314  0.9244  2.2065 -0.9625
  681THF     H713867   4.891   4.278   5.221 -2.7506 -0.4967  0.0407
  681THF     C813868   4.869   4.313   5.424 -0.0617 -0.8296  0.3372
  681THF     C913869   4.718   4.289   5.442  0.0610  0.3679  0.6145
  681THF    H1013870   4.903   4.416   5.412 -1.7816 -0.2657 -0.0294
  681THF    H1113871   4.931   4.286   5.510  2.8322  1.4705 -0.8553
  681THF    H1213872   4.694   4.259   5.544 -0.1133 -1.5691  0.0284
  681THF    H1313873   4.654   4.377   5.450 -1.6032 -0.8519  1.2303
  682THF     O113874   0.867   3.340   1.341 -0.4374  0.1344  0.4869
  682THF     C213875   1.006   3.346   1.368 -0.6499 -0.0849  0.4075
  682THF     C313876   0.800   3.392   1.451  0.5947  0.6240 -0.6732
  682THF     H413877   1.042   3.445   1.340  0.2966 -0.2733  0.9080
  682THF     H513878   1.067   3.285   1.301 -1.8253 -1.6188  0.6969
  682THF     H613879   0.780   3.499   1.454 -0.2196  0.4617  0.5642
  682THF     H713880   0.704   3.342   1.457  0.8346  0.0715 -1.3742
  682THF     C813881   0.880   3.338   1.571 -0.3153  0.4925 -0.1448
  682THF     C913882   1.023   3.309   1.513 -0.0392  0.2195  0.7232
  682THF    H1013883   0.843   3.244   1.612  0.9560  0.4219  0.9065
  682THF    H1113884   0.879   3.414   1.649  0.0737 -0.4075  0.7622
  682THF    H1213885   1.099   3.355   1.576 -1.2639  0.0416  2.3757
  682THF    H1313886   1.020   3.201   1.528 -3.5530  0.4074  2.1985
  683THF     O113887   1.425   3.877   0.540 -0.4949 -0.0626 -0.9317
  683THF     C213888   1.561   3.845   0.496  0.7431 -1.0897  0.2438
  683THF     C313889   1.360   3.957   0.444  0.8208  0.0298 -0.2990
  683THF     H413890   1.607   3.757   0.542  1.3086 -1.7939 -1.5618
  683THF     H513891   1.620   3.936   0.500  0.4609 -0.8505 -0.8567
  683THF     H613892   1.254   3.953   0.470  1.0719 -0.8198  0.6418
  683THF     H713893   1.385   4.063   0.438  0.4652  0.1485  0.2443
  683THF     C813894   1.412   3.903   0.317 -0.5085 -0.7597 -0.0757
  683THF     C913895   1.522   3.809   0.353 -0.2157 -0.3994 -0.3034
  683THF    H1013896   1.452   3.987   0.261  0.1672 -0.6088  0.6025
  683THF    H1113897   1.336   3.845   0.265 -0.8389 -0.2946 -0.1176
  683THF    H1213898   1.482   3.707   0.352  0.7192 -0.8004  0.5565
  683THF    H1313899   1.602   3.817   0.280  0.7571  1.4870  0.8837
  684THF     O113900   3.233   0.105   2.078  0.0377 -0.3486  0.3783
  684THF     C213901   3.264   0.137   2.215  0.6705 -0.4739 -0.7849
  684THF     C313902   3.098   0.128   2.053  1.3887 -0.8485 -0.2945
  684THF     H413903   3.364   0.175   2.233  0.5068  0.5263 -1.8518
  684THF     H513904   3.262   0.048   2.277  0.3469  0.7653  1.0437
  684THF     H613905   3.082   0.153   1.948  1.5922 -1.2357 -0.4183
  684THF     H713906   3.032   0.048   2.087  0.6095  0.1379  0.5882
  684THF     C813907   3.074   0.261   2.127 -0.5265 -0.0355  0.9844
  684THF     C913908   3.143   0.230   2.263 -1.0523  0.7978 -0.1193
  684THF    H1013909   2.966   0.274   2.124 -1.0377 -3.2065  1.6741
  684THF    H1113910   3.125   0.352   2.094 -1.8831  0.6119  0.6271
  684THF    H1213911   3.174   0.314   2.325 -3.7007  0.3766  1.9395
  684THF    H1313912   3.079   0.183   2.337 -1.7049  1.2604 -0.3783
  685THF     O113913   0.039   0.787   3.803 -0.3364 -0.2563 -0.3470
  685THF     C213914  -0.023   0.826   3.930 -0.6312  0.7282  0.5750
  685THF     C313915   0.170   0.844   3.806 -0.7627  0.2621  0.2930
  685THF     H413916  -0.106   0.762   3.960 -0.9306  0.7647 -0.1498
  685THF     H513917  -0.049   0.932   3.921 -0.2047  0.6893 -1.6852
  685THF     H613918   0.240   0.819   3.726  0.0534 -0.1565  1.1197
  685THF     H713919   0.171   0.953   3.800  0.6033  0.2228 -0.7831
  685THF     C813920   0.218   0.788   3.941  0.4175 -0.2667  0.2692
  685THF     C913921   0.091   0.811   4.026  0.4866 -0.3310  0.1281
  685THF    H1013922   0.314   0.831   3.968  0.4334  1.7621 -2.5535
  685THF    H1113923   0.225   0.680   3.936  0.1299 -0.3265  0.9839
  685THF    H1213924   0.085   0.728   4.097  1.7269 -0.6516 -0.1209
  685THF    H1313925   0.078   0.907   4.076 -1.3763  1.7030 -3.7774
  686THF     O113926   4.821   4.653   0.382  0.0518 -0.9818  0.6859
  686THF     C213927   4.691   4.626   0.347  0.6732 -0.8088  0.7844
  686THF     C313928   4.866   4.565   0.476 -0.1774  0.5654  0.5574
  686THF     H413929   4.650   4.682   0.263  1.1074 -0.4920  0.7811
  686THF     H513930   4.620   4.644   0.429  3.3039 -1.1621  3.2937
  686THF     H613931   4.972   4.556   0.453 -0.6108  1.4214 -2.0617
  686THF     H713932   4.831   4.598   0.574  0.1684  0.3632  0.7550
  686THF     C813933   4.795   4.436   0.444  0.5297  0.3843 -0.0489
  686THF     C913934   4.693   4.471   0.336 -0.2351 -0.9545  0.0156
  686THF    H1013935   4.745   4.400   0.534  0.3423  2.5363  0.7855
  686THF    H1113936   4.862   4.359   0.408 -0.9823 -0.6714 -0.6962
  686THF    H1213937   4.732   4.425   0.245 -0.0986 -0.7443 -0.0328
  686THF    H1313938   4.601   4.420   0.363 -0.2397 -2.5758 -2.7166
  687THF     O113939   1.527   4.546   4.204  0.7665 -0.3208  0.0699
  687THF     C213940   1.589   4.673   4.182  0.4363 -0.5632 -0.6023
  687THF     C313941   1.518   4.526   4.347 -0.2105 -0.1795 -0.2672
  687THF     H413942   1.504   4.740   4.171  1.0224  0.2910 -0.0775
  687THF     H513943   1.647   4.662   4.090  2.7155  0.8913  0.5721
  687THF     H613944   1.432   4.574   4.393  1.0699 -0.0565  2.1633
  687THF     H713945   1.495   4.420   4.353  0.2522 -0.3071 -0.6839
  687THF     C813946   1.653   4.578   4.395 -0.3452 -0.1908 -0.1325
  687THF     C913947   1.692   4.691   4.296  0.3727  0.4880  0.1530
  687THF    H1013948   1.735   4.508   4.412  2.5712  3.1436  0.6309
  687THF    H1113949   1.636   4.615   4.497  0.4763 -1.9876  0.6995
  687THF    H1213950   1.663   4.788   4.337 -2.7074 -1.1861  2.4010
  687THF    H1313951   1.795   4.684   4.262 -0.3591 -1.5079 -1.8841
  688THF     O113952   5.211   4.787   1.802 -0.1271 -1.2213 -0.7843
  688THF     C213953   5.343   4.759   1.842 -0.6723 -0.2996 -0.5090
  688THF     C313954   5.208   4.884   1.697  0.1831  0.4397  0.3531
  688THF     H413955   5.371   4.662   1.801  0.1472 -0.3691  0.1786
  688THF     H513956   5.342   4.748   1.951  0.7797 -2.4442 -0.6511
  688THF     H613957   5.133   4.871   1.619 -1.8030 -0.7859  2.3450
  688THF     H713958   5.182   4.974   1.752  0.2736  0.1576  0.8640
  688THF     C813959   5.353   4.891   1.645 -0.7527 -0.7985  0.5549
  688THF     C913960   5.421   4.862   1.770 -0.3715  0.2720 -0.7843
  688THF    H1013961   5.379   4.989   1.605  0.2962 -0.8080  1.1834
  688THF    H1113962   5.375   4.814   1.571  2.2085  0.3220  0.1638
  688THF    H1213963   5.528   4.841   1.764 -0.3279 -1.7096  3.3677
  688THF    H1313964   5.408   4.949   1.833  1.6698  0.1862 -0.1524
  689THF     O113965   1.464   4.593   3.801 -0.2535 -0.0690 -0.7751
  689THF     C213966   1.390   4.711   3.776 -0.3533 -0.1139 -0.0356
  689THF     C313967   1.501   4.545   3.671 -0.3708 -0.2019  0.3581
  689THF     H413968   1.437   4.806   3.752 -1.0300  0.6219  1.4017
  689THF     H513969   1.326   4.723   3.864  0.4870  1.9896  0.3534
  689THF     H613970   1.592   4.591   3.632  0.6704 -2.3683  0.0489
  689THF     H713971   1.520   4.438   3.680 -1.7619 -0.3227  2.6537
  689THF     C813972   1.381   4.564   3.583 -0.1992  0.2432 -0.2382
  689THF     C913973   1.306   4.674   3.651 -0.2590  0.1185 -0.3682
  689THF    H1013974   1.320   4.476   3.599 -1.1999  0.6641 -1.5803
  689THF    H1113975   1.392   4.575   3.475 -2.3970  0.3432 -0.4790
  689THF    H1213976   1.295   4.763   3.588 -0.3180  1.8564  1.9547
  689THF    H1313977   1.203   4.656   3.682  0.3562  0.0859  1.7780
  690THF     O113978   4.035   0.124   5.290  0.4570 -0.1408  0.3223
  690THF     C213979   4.167   0.082   5.262  0.0982  0.8859  0.1720
  690THF     C313980   3.963   0.002   5.323  0.4200 -0.0741 -0.4376
  690THF     H413981   4.225   0.076   5.355 -0.2049 -0.0708  0.3102
  690THF     H513982   4.222   0.147   5.193 -1.0202  0.5644 -1.0698
  690THF     H613983   3.928   0.013   5.425  2.0521  1.6731 -0.0006
  690THF     H713984   3.877  -0.016   5.259  1.1755  0.5603 -1.6680
  690THF     C813985   4.051  -0.116   5.319  0.7857  0.2314 -0.3297
  690THF     C913986   4.158  -0.068   5.223 -0.1257  0.1518  0.3809
  690THF    H1013987   4.000  -0.206   5.285 -0.0113  0.3815  0.4452
  690THF    H1113988   4.097  -0.147   5.413  1.0592  1.8501  0.0958
  690THF    H1213989   4.253  -0.119   5.237 -1.0690 -2.0026 -0.6279
  690THF    H1313990   4.130  -0.076   5.118  1.7582 -0.3449 -0.1290
  691THF     O113991   3.882   0.388   4.599  0.7771 -0.2175 -0.4987
  691THF     C213992   3.802   0.510   4.597 -0.0550  0.8882 -0.3435
  691THF     C313993   3.964   0.391   4.488  0.0660 -1.0112  0.9005
  691THF     H413994   3.854   0.591   4.649  1.8831 -1.2083  1.1694
  691THF     H513995   3.704   0.493   4.642 -0.7952 -0.6334 -2.3495
  691THF     H613996   4.051   0.449   4.519  0.2762 -0.5680 -0.4523
  691THF     H713997   3.996   0.289   4.467  1.8795 -0.2457 -0.3143
  691THF     C813998   3.889   0.457   4.376  0.2684  0.4163 -0.3984
  691THF     C913999   3.792   0.553   4.441  0.2810 -0.8812  0.0736
  691THF    H1014000   3.824   0.389   4.322 -0.5580  0.8604  0.0210
  691THF    H1114001   3.966   0.511   4.320  0.8009 -0.5433 -0.6029
  691THF    H1214002   3.830   0.652   4.416  1.1058 -1.6966 -2.1310
  691THF    H1314003   3.694   0.544   4.394 -0.0681  0.0990  0.5789
  692THF     O114004   4.170   1.020   2.251  0.3653  0.1736  0.5555
  692THF     C214005   4.289   1.087   2.211  0.1403  0.5547 -0.2499
  692THF     C314006   4.169   0.883   2.199  0.0521 -0.5043  0.4227
  692THF     H414007   4.367   1.064   2.284 -0.1955 -1.8097 -0.5570
  692THF     H514008   4.260   1.192   2.212 -0.2400  0.5082  2.3559
  692THF     H614009   4.195   0.803   2.269 -0.2010 -0.9649 -0.0082
  692THF     H714010   4.074   0.860   2.151 -0.7695  1.5956  0.9489
  692THF     C814011   4.276   0.878   2.089  0.4169  0.0966  0.0646
  692THF     C914012   4.308   1.029   2.072  0.1061 -0.6021  0.2462
  692THF    H1014013   4.243   0.836   1.994 -0.5827  0.0542  0.4239
  692THF    H1114014   4.364   0.825   2.126 -0.4862 -2.3675 -1.0869
  692THF    H1214015   4.398   1.054   2.015 -0.6041 -0.0377 -0.6688
  692THF    H1314016   4.229   1.065   2.005  0.0340 -1.1813  0.0176
  693THF     O114017   1.802   4.983   3.149 -0.1905 -0.1872  0.1265
  693THF     C214018   1.883   4.875   3.099  0.7521 -0.1502 -0.4969
  693THF     C314019   1.704   4.942   3.243 -0.3833  0.1596 -0.0922
  693THF     H414020   1.989   4.897   3.084  0.6120 -0.0596 -1.3547
  693THF     H514021   1.835   4.851   3.004 -1.3529 -2.0670  0.9272
  693THF     H614022   1.731   4.992   3.336 -0.2217 -0.1304  0.0203
  693THF     H714023   1.604   4.969   3.211  0.6911  1.6918 -2.3805
  693THF     C814024   1.724   4.786   3.249 -0.5888 -0.1579  0.0709
  693THF     C914025   1.866   4.764   3.195 -0.7784 -0.0579 -0.0853
  693THF    H1014026   1.665   4.750   3.164 -0.2165 -0.0329 -0.2454
  693THF    H1114027   1.703   4.753   3.350  0.0593  1.2117  0.6804
  693THF    H1214028   1.943   4.780   3.270  0.2383  0.9490 -1.3039
  693THF    H1314029   1.882   4.668   3.147 -0.0991  1.0287 -2.1452
  694THF     O114030   4.179   5.171   5.086 -0.0169 -0.8267  0.6016
  694THF     C214031   4.167   5.058   5.160  0.1902  0.7816 -0.2009
  694THF     C314032   4.168   5.136   4.949 -0.4161  0.7816  0.4079
  694THF     H414033   4.067   5.066   5.204 -0.4635 -1.1177 -1.2095
  694THF     H514034   4.239   5.055   5.241 -1.0667 -2.8738  1.0070
  694THF     H614035   4.082   5.164   4.889  0.0875 -0.1749 -0.8120
  694THF     H714036   4.250   5.198   4.912  1.8248 -0.2543  3.2357
  694THF     C814037   4.197   4.983   4.925 -0.0696 -0.4064 -0.3817
  694THF     C914038   4.206   4.939   5.072 -0.5410  0.1570  0.7843
  694THF    H1014039   4.284   4.963   4.863  0.1430 -2.0965  0.4102
  694THF    H1114040   4.110   4.943   4.873  0.1070  1.5103 -2.3365
  694THF    H1214041   4.133   4.858   5.078  0.3753 -0.6782  0.9098
  694THF    H1314042   4.300   4.896   5.107 -1.0335 -0.1436  1.7676
  695THF     O114043   0.371   5.463   4.975 -0.2827  0.0581 -0.2482
  695THF     C214044   0.383   5.430   4.837 -0.3983 -0.1755 -0.1407
  695THF     C314045   0.253   5.393   5.020  0.6445 -0.4411  0.2229
  695THF     H414046   0.480   5.446   4.791  0.3486  0.3589  1.5094
  695THF     H514047   0.316   5.501   4.788  2.0900  1.4016 -1.4704
  695THF     H614048   0.285   5.355   5.116  1.9489  0.3108  0.1044
  695THF     H714049   0.166   5.457   5.031  1.1429  0.1963  0.5063
  695THF     C814050   0.217   5.285   4.917  0.0324  0.6992  0.2006
  695THF     C914051   0.330   5.283   4.823 -0.0779  0.1136 -0.4619
  695THF    H1014052   0.126   5.319   4.869 -0.0236  1.9187  1.1043
  695THF    H1114053   0.199   5.193   4.972 -1.0378  1.9201  1.9736
  695THF    H1214054   0.409   5.219   4.862 -0.7768  0.6326  2.0302
  695THF    H1314055   0.305   5.242   4.725  0.3423 -1.6246  0.1198
  696THF     O114056   5.349   2.748   4.008 -0.0991  0.1004 -0.7614
  696THF     C214057   5.257   2.782   3.903 -0.3851 -0.2875 -0.3932
  696THF     C314058   5.324   2.605   4.021 -0.2572  0.5147 -0.3736
  696THF     H414059   5.280   2.730   3.810 -1.8192  0.0716 -0.9712
  696THF     H514060   5.250   2.890   3.886 -1.4820  0.1520  2.3005
  696THF     H614061   5.353   2.550   3.931  2.8776 -1.2964  1.5416
  696THF     H714062   5.382   2.558   4.101  0.0561 -0.3852 -1.1137
  696THF     C814063   5.172   2.599   4.030 -0.8223  0.0887 -0.2579
  696THF     C914064   5.125   2.722   3.953 -0.4383  0.2062  0.3061
  696THF    H1014065   5.148   2.603   4.137  1.0769 -0.1557  0.2028
  696THF    H1114066   5.150   2.498   3.996  0.5906 -0.8537  1.4535
  696THF    H1214067   5.063   2.699   3.867  0.8214  0.4043 -0.6837
  696THF    H1314068   5.062   2.781   4.019 -0.7213 -0.9163  1.0848
  697THF     O114069   2.524   2.510   0.867 -0.3410  0.1798 -0.3951
  697THF     C214070   2.498   2.644   0.897  0.0251 -0.1165 -0.1600
  697THF     C314071   2.418   2.465   0.779 -0.8362  0.2648  0.2946
  697THF     H414072   2.552   2.716   0.835  1.8155 -0.4164  0.9771
  697THF     H514073   2.529   2.666   0.999 -1.7209  2.2549 -0.0570
  697THF     H614074   2.430   2.500   0.677 -3.5056 -0.1916 -0.2474
  697THF     H714075   2.433   2.357   0.780 -2.8250 -0.0596  0.4790
  697THF     C814076   2.294   2.532   0.834 -0.8629 -0.3855 -0.7341
  697THF     C914077   2.343   2.665   0.885  0.0355 -0.0100 -0.0176
  697THF    H1014078   2.252   2.463   0.908 -1.7629 -0.9725 -1.7553
  697THF    H1114079   2.225   2.553   0.752  0.2817  1.0580 -1.3599
  697THF    H1214080   2.331   2.734   0.801 -0.4035  0.7329  0.6448
  697THF    H1314081   2.301   2.699   0.980  1.9642  0.0762  0.8446
  698THF     O114082   2.938   1.442   1.370  0.0057  0.6754  0.1101
  698THF     C214083   2.940   1.414   1.225  0.0401 -0.3414 -0.8429
  698THF     C314084   2.818   1.507   1.404 -0.1287 -0.7461 -0.0163
  698THF     H414085   2.991   1.324   1.191  3.8716  0.9179  0.9575
  698THF     H514086   2.996   1.492   1.173  0.1804 -1.5772 -2.6167
  698THF     H614087   2.796   1.502   1.511 -1.5992  0.0328 -0.2641
  698THF     H714088   2.817   1.613   1.379  2.8229 -0.4769  0.6603
  698THF     C814089   2.714   1.441   1.309 -0.2707  0.3701  0.2098
  698THF     C914090   2.797   1.414   1.178 -0.4578  0.1736 -0.5039
  698THF    H1014091   2.625   1.500   1.287 -0.0799  0.0792 -1.4960
  698THF    H1114092   2.683   1.344   1.346 -0.4112 -0.4309 -1.8945
  698THF    H1214093   2.765   1.316   1.145  0.7020 -2.0009  4.0565
  698THF    H1314094   2.794   1.498   1.108  2.3104  2.8806  2.2870
  699THF     O114095   3.995   0.202   2.388  0.3858  0.3097 -0.2202
  699THF     C214096   3.979   0.065   2.441 -0.4140  0.3617  0.8425
  699THF     C314097   3.859   0.247   2.373  0.1959 -0.0072 -0.0579
  699THF     H414098   3.939   0.078   2.541 -2.1411  0.2570  0.1987
  699THF     H514099   4.070   0.004   2.447  0.4395  1.5580  0.5221
  699THF     H614100   3.832   0.260   2.478  2.6974 -2.2169  0.9751
  699THF     H714101   3.835   0.346   2.332  0.4987  1.0231  2.1118
  699THF     C814102   3.785   0.129   2.307 -0.1565  0.7285  1.0296
  699THF     C914103   3.868   0.008   2.350  0.3104 -0.0566  0.0364
  699THF    H1014104   3.782   0.145   2.200 -0.6430 -1.3507  0.6808
  699THF    H1114105   3.679   0.129   2.333 -1.0146  2.1972 -2.0273
  699THF    H1214106   3.804  -0.061   2.405  1.1518  0.6588  1.9820
  699THF    H1314107   3.915  -0.046   2.267 -0.5594 -0.2440 -0.3400
  700THF     O114108   2.378   1.338   0.809 -0.3700  0.2611 -0.2209
  700THF     C214109   2.397   1.299   0.945  0.1744 -0.1261  0.3735
  700THF     C314110   2.258   1.421   0.804 -0.2179 -0.1808  0.0168
  700THF     H414111   2.503   1.279   0.958  1.2581  4.8245  1.1402
  700THF     H514112   2.336   1.209   0.959  2.0776 -1.2796  1.7428
  700THF     H614113   2.270   1.490   0.720 -2.6389 -1.1743 -1.2769
  700THF     H714114   2.172   1.354   0.790  0.4364 -1.3630  1.3902
  700THF     C814115   2.262   1.497   0.937  0.4239  0.1116  0.7797
  700THF     C914116   2.357   1.420   1.031 -0.0479 -0.2200  0.3173
  700THF    H1014117   2.167   1.519   0.986 -0.1357 -0.2241 -0.1402
  700THF    H1114118   2.303   1.595   0.918  0.0986  0.3224  1.1454
  700THF    H1214119   2.440   1.483   1.061  1.3652 -0.5678 -2.5018
  700THF    H1314120   2.305   1.388   1.121  0.1696  0.3651  0.6583
  701THF     O114121   2.766   3.012   4.166 -0.3752 -1.0109  0.1336
  701THF     C214122   2.636   3.070   4.152  0.1787  0.6389 -1.0299
  701THF     C314123   2.824   3.037   4.035 -0.3840 -0.2545  0.3843
  701THF     H414124   2.605   3.099   4.252  1.1034  1.4540 -0.9690
  701THF     H514125   2.562   3.003   4.107 -0.6250  1.0277 -0.3163
  701THF     H614126   2.930   3.011   4.031 -0.0590  1.1696 -0.8334
  701THF     H714127   2.775   2.965   3.969  0.5665  0.3916 -1.0832
  701THF     C814128   2.789   3.176   3.994  0.0279 -0.4378 -0.3575
  701THF     C914129   2.657   3.193   4.068 -0.1720 -0.0016 -0.2366
  701THF    H1014130   2.779   3.178   3.886 -2.8315  0.3147 -0.1665
  701THF    H1114131   2.861   3.251   4.024 -1.3639  0.6289  0.4601
  701THF    H1214132   2.667   3.284   4.128  0.9597 -1.1361  1.4211
  701THF    H1314133   2.573   3.205   4.001 -1.5199 -0.0016  1.3795
  702THF     O114134   2.671   3.028   1.854 -0.0949  0.6315 -0.0558
  702THF     C214135   2.809   3.036   1.876 -0.7589 -0.0539  0.7071
  702THF     C314136   2.650   3.045   1.717  0.6429  0.1749  0.3432
  702THF     H414137   2.848   2.935   1.868  2.0776  0.9997 -0.0580
  702THF     H514138   2.805   3.068   1.980 -0.4177 -0.4076  0.8310
  702THF     H614139   2.667   2.954   1.658  1.9560 -0.5467  1.7642
  702THF     H714140   2.550   3.078   1.687  0.5331  3.1597  3.3923
  702THF     C814141   2.749   3.155   1.689  0.4882  0.1793  0.0460
  702THF     C914142   2.868   3.146   1.780 -0.3239 -0.4416 -0.5422
  702THF    H1014143   2.700   3.250   1.711 -0.2833 -0.1891 -0.0486
  702THF    H1114144   2.772   3.154   1.582 -0.7956  0.6318 -0.2482
  702THF    H1214145   2.958   3.104   1.736 -1.2880 -1.3694 -1.6948
  702THF    H1314146   2.889   3.237   1.836 -0.2544 -1.2103  0.7057
  703THF     O114147   3.334   5.133   2.290  0.0712  0.1706  0.7262
  703THF     C214148   3.277   5.051   2.393 -0.1784  0.2674 -0.1548
  703THF     C314149   3.353   5.266   2.345 -0.4571 -0.2159  0.4059
  703THF     H414150   3.353   4.983   2.430  0.1336  0.2547 -0.8009
  703THF     H514151   3.193   4.985   2.370 -1.4489  2.2428 -1.5474
  703THF     H614152   3.449   5.263   2.398  1.1729 -3.1561 -2.3038
  703THF     H714153   3.355   5.349   2.276  0.8544 -0.8701 -0.4030
  703THF     C814154   3.239   5.284   2.438 -0.2588 -0.1669  0.5719
  703THF     C914155   3.230   5.146   2.505 -0.6976 -0.0687  0.3093
  703THF    H1014156   3.156   5.307   2.371 -0.0373 -0.1722  0.2960
  703THF    H1114157   3.268   5.364   2.505 -0.4621 -0.1907  0.6902
  703THF    H1214158   3.305   5.138   2.584  1.5415  1.6090 -1.5344
  703THF    H1314159   3.125   5.120   2.525 -0.8811 -0.0344 -0.5883
  704THF     O114160   4.321   4.036   1.730  0.0171 -0.2393 -0.7129
  704THF     C214161   4.363   4.174   1.750  0.5714  0.7977  0.3487
  704THF     C314162   4.424   3.964   1.666 -0.1049  0.0018  0.1093
  704THF     H414163   4.321   4.214   1.842  0.2548  2.4518 -0.4701
  704THF     H514164   4.323   4.235   1.669 -0.5880  0.7388  0.8596
  704THF     H614165   4.448   3.865   1.707  1.2309  0.6314  0.9176
  704THF     H714166   4.380   3.947   1.568  0.9178 -0.9265 -0.2127
  704THF     C814167   4.551   4.050   1.658 -0.0236  0.5291 -0.2062
  704THF     C914168   4.516   4.160   1.757  0.1345  0.0464 -0.0390
  704THF    H1014169   4.566   4.095   1.560  0.4714 -0.0682 -0.4140
  704THF    H1114170   4.630   3.985   1.696  0.0659  1.0321  0.4901
  704THF    H1214171   4.563   4.135   1.852  0.4093 -0.8087 -0.3893
  704THF    H1314172   4.555   4.257   1.725 -3.6415  1.7206 -0.1301
  705THF     O114173   1.998   1.088   3.258  0.1874  0.4408 -0.1957
  705THF     C214174   1.871   1.131   3.304  0.3176 -0.0014  0.1771
  705THF     C314175   1.975   0.984   3.165  0.3460  0.2283 -0.0531
  705THF     H414176   1.845   1.234   3.281  0.8103  0.0225 -0.2704
  705THF     H514177   1.870   1.124   3.413  1.2398  0.4738  0.2235
  705THF     H614178   1.948   1.032   3.071 -0.5445  0.2729  0.2188
  705THF     H714179   2.059   0.916   3.151 -0.4792 -1.4484  2.4770
  705THF     C814180   1.858   0.910   3.234 -0.3039 -0.3758  0.0961
  705THF     C914181   1.769   1.032   3.240  0.1122  0.6540  0.0413
  705THF    H1014182   1.875   0.866   3.332  0.3488  0.3292  0.3058
  705THF    H1114183   1.825   0.823   3.177  0.5305  0.1996 -1.3154
  705THF    H1214184   1.736   1.060   3.140 -0.8756  1.5901  0.5989
  705THF    H1314185   1.679   1.021   3.301  1.1234 -0.7275  1.3419
  706THF     O114186   1.057   4.562   1.354  0.0677  0.2708  0.2788
  706THF     C214187   1.137   4.491   1.256  0.0285 -0.7030  0.4193
  706THF     C314188   1.033   4.481   1.467  0.2917 -0.6701  0.2628
  706THF     H414189   1.246   4.504   1.261  0.2396 -2.4604  0.8093
  706THF     H514190   1.108   4.528   1.158  0.0506  0.6171  0.8892
  706THF     H614191   1.115   4.488   1.538 -0.5629 -0.5590  1.2614
  706THF     H714192   0.943   4.528   1.507 -0.7213 -1.3472 -1.1455
  706THF     C814193   1.038   4.336   1.417  0.1980 -0.0318 -0.2633
  706THF     C914194   1.105   4.345   1.282 -0.0954  0.4782 -0.1855
  706THF    H1014195   0.937   4.295   1.416  0.3158 -0.4437  1.3879
  706THF    H1114196   1.098   4.272   1.481 -0.5212  1.0621  1.5866
  706THF    H1214197   1.198   4.290   1.268 -0.0110  0.8741 -1.3184
  706THF    H1314198   1.045   4.311   1.198 -1.1774 -1.0624  1.1351
  707THF     O114199   0.384   1.517   4.221  0.1030  0.2869  0.0509
  707THF     C214200   0.287   1.410   4.253 -0.3100 -0.2160  0.9031
  707THF     C314201   0.465   1.455   4.114 -0.2099 -0.5043  0.1244
  707THF     H414202   0.210   1.413   4.177  1.3486  0.2629 -0.8384
  707THF     H514203   0.239   1.431   4.348 -2.1164  0.1123 -0.0470
  707THF     H614204   0.411   1.453   4.020 -0.0327 -0.3435  0.0191
  707THF     H714205   0.562   1.500   4.092 -1.0511  0.3495 -2.0915
  707THF     C814206   0.495   1.319   4.172  0.2177  0.8074 -0.4806
  707THF     C914207   0.364   1.273   4.245 -0.3550  0.0307 -0.1293
  707THF    H1014208   0.567   1.323   4.253 -1.1653  0.0845  0.8204
  707THF    H1114209   0.539   1.248   4.102 -1.4419  0.0852 -0.8275
  707THF    H1214210   0.308   1.203   4.183  0.4267 -0.2557 -0.5245
  707THF    H1314211   0.382   1.231   4.344  0.6685 -0.4266 -0.4992
  708THF     O114212   4.126   2.088   5.437  0.9989 -0.5601 -0.0698
  708THF     C214213   4.080   2.213   5.493 -0.8713 -0.2499 -0.5113
  708THF     C314214   4.207   2.113   5.323  1.1156 -0.7968  0.3493
  708THF     H414215   4.162   2.274   5.531  0.2515 -1.9646 -0.0640
  708THF     H514216   4.008   2.216   5.575  0.8418 -0.4360  1.0762
  708THF     H614217   4.310   2.132   5.353 -0.1265  2.5563  3.0653
  708THF     H714218   4.209   2.031   5.250  2.8963 -0.7051  0.2517
  708THF     C814219   4.142   2.236   5.258 -0.1481  0.4319 -0.5095
  708THF     C914220   4.049   2.284   5.366 -0.6256 -0.4431 -0.1396
  708THF    H1014221   4.088   2.207   5.168 -1.1376  1.1606 -0.1744
  708THF    H1114222   4.216   2.315   5.245 -1.5579  1.7433 -0.9456
  708THF    H1214223   4.065   2.391   5.377 -2.4136  0.2726 -3.2582
  708THF    H1314224   3.945   2.274   5.334 -1.4318  2.2736  1.3646
  709THF     O114225   3.055   4.664   0.065  0.2932 -0.0048  0.3140
  709THF     C214226   3.111   4.783   0.117 -0.0364 -0.3027 -0.2800
  709THF     C314227   2.923   4.701   0.012  0.2965 -0.7139  0.4710
  709THF     H414228   3.218   4.773   0.102 -0.0700  0.7612 -1.3762
  709THF     H514229   3.080   4.805   0.219 -1.1776  1.7748 -1.0141
  709THF     H614230   2.894   4.632  -0.067  0.2084  0.2956 -0.4030
  709THF     H714231   2.859   4.712   0.100  0.6570  3.0872  0.4448
  709THF     C814232   2.936   4.849  -0.037  0.3800  0.7144  0.2045
  709THF     C914233   3.064   4.893   0.025 -0.1194 -0.0274  0.5320
  709THF    H1014234   2.847   4.901  -0.001 -0.8215 -0.9859 -0.1814
  709THF    H1114235   2.935   4.852  -0.146 -1.1455  1.8522  0.2130
  709THF    H1214236   3.147   4.901  -0.045  0.5019 -0.3599  1.2187
  709THF    H1314237   3.058   4.991   0.072 -1.3882 -0.1761  0.7123
  710THF     O114238   2.427   0.996   0.571 -0.4077 -0.2505  0.0411
  710THF     C214239   2.332   0.899   0.536 -0.1907  0.1391 -0.0228
  710THF     C314240   2.370   1.087   0.659 -0.9489 -0.5111  0.0682
  710THF     H414241   2.338   0.830   0.620 -0.5443 -0.2003 -0.2713
  710THF     H514242   2.348   0.841   0.445  1.2782  0.7441 -0.1895
  710THF     H614243   2.371   1.051   0.762 -2.9381  0.4667  0.4737
  710THF     H714244   2.435   1.174   0.649  0.3111 -1.6333 -2.1723
  710THF     C814245   2.234   1.099   0.605  0.8015 -0.5936  0.0416
  710THF     C914246   2.205   0.983   0.517  0.8062 -0.4477 -0.0643
  710THF    H1014247   2.236   1.192   0.548 -1.7060 -0.5009 -0.0049
  710THF    H1114248   2.160   1.110   0.684  0.8208  1.3987 -0.1724
  710THF    H1214249   2.106   0.942   0.539 -0.3126  2.5454  1.0695
  710THF    H1314250   2.199   1.025   0.417 -1.7875  0.2934  0.3241
  711THF     O114251   0.256   3.398   2.424 -0.6528 -0.2380 -0.6956
  711THF     C214252   0.185   3.470   2.521  0.6332 -0.0365 -0.5899
  711THF     C314253   0.246   3.257   2.446 -0.3230  0.1205 -0.6488
  711THF     H414254   0.091   3.497   2.472 -1.2943 -0.3579  2.6640
  711THF     H514255   0.231   3.554   2.573  1.1977  0.1095 -1.3160
  711THF     H614256   0.197   3.218   2.356  0.0432 -1.6980 -0.0999
  711THF     H714257   0.342   3.206   2.444  0.1595  0.9190  0.8970
  711THF     C814258   0.169   3.239   2.579 -0.2369  0.2441  0.7146
  711THF     C914259   0.168   3.374   2.637  0.2093  0.2107 -0.0109
  711THF    H1014260   0.221   3.166   2.642  0.5369  0.0622 -0.1100
  711THF    H1114261   0.068   3.201   2.567  0.1853 -0.4627 -0.8496
  711THF    H1214262   0.081   3.404   2.697 -0.7100 -1.2004 -0.5993
  711THF    H1314263   0.249   3.374   2.709  0.8470  0.2761 -0.7183
  712THF     O114264   3.846   1.040   4.715 -0.8569  0.2576  0.0669
  712THF     C214265   3.860   1.067   4.855 -0.4982  0.0460  0.4852
  712THF     C314266   3.927   0.927   4.692  0.9096  0.3118  0.3119
  712THF     H414267   3.796   1.149   4.888 -2.5271 -0.6750 -1.4530
  712THF     H514268   3.965   1.089   4.876 -0.2946 -0.6452  0.2173
  712THF     H614269   3.911   0.882   4.594  1.3101  0.5189  0.1475
  712THF     H714270   4.033   0.950   4.682  0.7305  1.0935  0.1648
  712THF     C814271   3.892   0.832   4.814 -0.2858  0.5967  0.4667
  712THF     C914272   3.829   0.932   4.909 -0.0423 -0.0540  0.0943
  712THF    H1014273   3.980   0.775   4.844 -1.4305 -1.5640 -0.1001
  712THF    H1114274   3.814   0.763   4.781  0.3176 -0.7758  1.7949
  712THF    H1214275   3.720   0.919   4.909 -0.1733  0.9522  0.1534
  712THF    H1314276   3.868   0.921   5.010 -2.8992 -1.9837  1.1318
  713THF     O114277   1.021   4.960   2.267  0.4469 -0.6040 -0.0542
  713THF     C214278   1.126   4.893   2.331 -0.1431  0.0862  0.0745
  713THF     C314279   0.986   5.066   2.358 -0.2127  0.3153 -0.2118
  713THF     H414280   1.216   4.953   2.315 -0.1246 -0.1209 -0.6409
  713THF     H514281   1.143   4.797   2.281 -0.3772 -1.0290  2.0202
  713THF     H614282   1.062   5.143   2.367  0.3587 -0.3145  0.4231
  713THF     H714283   0.890   5.110   2.330 -0.8612 -0.9730 -0.0720
  713THF     C814284   0.966   4.983   2.481 -0.2840 -0.1915 -0.4755
  713THF     C914285   1.091   4.883   2.475  0.5891 -0.0410 -0.3449
  713THF    H1014286   0.870   4.932   2.485 -0.5831  0.4291  0.2696
  713THF    H1114287   0.964   5.048   2.568 -1.4990 -1.8053  0.7780
  713THF    H1214288   1.174   4.915   2.538 -1.3437  2.4411  1.1484
  713THF    H1314289   1.046   4.788   2.505 -0.1001  0.6337  0.8552
  714THF     O114290   2.102   1.987   4.893  0.3930  0.2363  0.2195
  714THF     C214291   2.214   1.972   4.807  0.3504 -0.5252 -0.4516
  714THF     C314292   1.993   2.018   4.808 -0.0118  0.7946 -0.1944
  714THF     H414293   2.296   1.908   4.839 -0.7156 -2.1931 -0.9551
  714THF     H514294   2.257   2.072   4.804 -0.2647 -0.2697 -0.9198
  714THF     H614295   1.897   1.983   4.846 -0.6319  1.4195 -1.1486
  714THF     H714296   1.992   2.124   4.784 -1.1131  0.7972 -0.1640
  714THF     C814297   2.011   1.945   4.675 -0.1209 -0.4539 -0.4116
  714THF     C914298   2.163   1.940   4.668 -0.1193 -0.1426 -0.0382
  714THF    H1014299   1.960   2.000   4.596  0.6285  3.3187  1.4618
  714THF    H1114300   1.967   1.846   4.682  0.4893 -0.9530 -2.7321
  714THF    H1214301   2.199   1.839   4.647 -1.8406 -0.8007  0.0004
  714THF    H1314302   2.201   2.016   4.600 -0.4739  0.0199 -0.0589
  715THF     O114303   0.901   2.998   3.410  0.2963 -0.2273 -0.1756
  715THF     C214304   0.915   2.861   3.442  0.0361 -0.3393  0.0522
  715THF     C314305   0.967   3.083   3.499  0.0667  0.2370  0.1036
  715THF     H414306   0.942   2.799   3.357 -2.0244 -2.2089  0.6589
  715THF     H514307   0.829   2.809   3.484  1.1271 -1.8228  0.5422
  715THF     H614308   0.977   3.175   3.441 -1.7936 -0.2913 -1.1238
  715THF     H714309   0.894   3.104   3.577 -0.7292 -0.1118 -0.5449
  715THF     C814310   1.099   3.004   3.527 -0.2186  0.8282  0.8214
  715THF     C914311   1.039   2.867   3.533  0.2030  0.4487 -0.2069
  715THF    H1014312   1.153   3.034   3.617  1.5642 -1.7246  0.7028
  715THF    H1114313   1.182   3.012   3.457 -0.4104  1.0526  0.6179
  715THF    H1214314   1.115   2.794   3.503  0.6076  0.6685  0.2656
  715THF    H1314315   1.010   2.845   3.636 -0.1768 -1.0615 -0.6111
  716THF     O114316   2.343   2.728   2.973 -0.0628 -0.3312 -0.8749
  716THF     C214317   2.376   2.603   3.027  0.2156 -0.5781 -0.1950
  716THF     C314318   2.379   2.835   3.065 -0.1744  0.1553  0.2382
  716THF     H414319   2.447   2.552   2.962  1.1255  0.8512 -0.3567
  716THF     H514320   2.283   2.546   3.030  0.0376 -0.2614  0.4468
  716THF     H614321   2.477   2.874   3.035 -0.3163  0.0730 -0.3432
  716THF     H714322   2.300   2.910   3.072 -0.2372  0.2715 -1.4680
  716THF     C814323   2.380   2.761   3.203 -0.0140 -0.1689  0.4612
  716THF     C914324   2.448   2.633   3.159  1.1733  0.2558  0.1647
  716THF    H1014325   2.278   2.743   3.237 -0.5999 -0.3253 -1.2692
  716THF    H1114326   2.428   2.809   3.288  0.1456 -0.4225  0.5138
  716THF    H1214327   2.552   2.664   3.151  1.0673  0.3086 -1.1529
  716THF    H1314328   2.434   2.549   3.227 -1.5218  1.2344  0.9448
  717THF     O114329   4.489   5.015   1.517  0.0403  0.1264 -0.1983
  717THF     C214330   4.429   4.980   1.392 -0.2978  0.3972  0.5958
  717THF     C314331   4.501   4.896   1.588 -0.2274 -0.6731 -0.3393
  717THF     H414332   4.443   5.059   1.319 -0.8042  0.3703  0.4653
  717THF     H514333   4.320   4.976   1.401 -0.1594  0.0399  2.6883
  717THF     H614334   4.570   4.914   1.670 -0.3435  1.3232 -0.6326
  717THF     H714335   4.402   4.883   1.631 -0.3852 -0.0968 -0.5309
  717THF     C814336   4.542   4.790   1.487 -0.7806 -0.4111 -1.0079
  717THF     C914337   4.494   4.847   1.350 -0.2403  0.3304  0.0262
  717THF    H1014338   4.496   4.692   1.504  0.5106 -0.9235 -0.3054
  717THF    H1114339   4.650   4.780   1.485 -0.9800 -3.7682 -0.6479
  717THF    H1214340   4.582   4.840   1.287 -0.4399 -0.3442 -0.1906
  717THF    H1314341   4.423   4.778   1.303 -2.4031  2.3100  0.2002
  718THF     O114342   2.374   3.341   1.884 -0.4275  0.4953  0.2753
  718THF     C214343   2.262   3.425   1.859  0.7475  0.3466 -0.6642
  718THF     C314344   2.471   3.430   1.952  0.1376  0.2677 -0.3929
  718THF     H414345   2.177   3.372   1.816 -0.8180  3.0199 -1.0899
  718THF     H514346   2.281   3.497   1.778  1.1265  3.4549  1.9764
  718THF     H614347   2.536   3.363   2.008 -1.7346 -2.3113 -1.1387
  718THF     H714348   2.532   3.494   1.888  3.1345  0.0329  2.0163
  718THF     C814349   2.370   3.507   2.050  0.8493  0.1816  0.4942
  718THF     C914350   2.235   3.489   1.992  0.4857 -0.3227  0.1157
  718THF    H1014351   2.405   3.610   2.056 -0.4838  0.6488  0.6786
  718THF    H1114352   2.368   3.462   2.149 -0.6763  0.3944  0.5918
  718THF    H1214353   2.175   3.430   2.061 -0.3222  2.2276  1.6950
  718THF    H1314354   2.176   3.580   1.995  0.7612 -0.1419  0.0872
  719THF     O114355   4.556   5.267   0.068  0.2938 -0.3041 -0.0063
  719THF     C214356   4.667   5.338   0.025 -0.1779  0.1838 -0.4866
  719THF     C314357   4.451   5.340   0.016  0.3561 -0.3128  0.1377
  719THF     H414358   4.748   5.265   0.019  0.9065  1.3149 -0.0110
  719THF     H514359   4.681   5.424   0.090 -1.7188  0.9823 -1.1660
  719THF     H614360   4.352   5.294   0.028 -0.2743  0.0269 -3.0177
  719THF     H714361   4.431   5.427   0.079 -0.4332  0.4649 -1.1485
  719THF     C814362   4.492   5.378  -0.124  0.0879  0.5271 -0.3500
  719THF     C914363   4.648   5.399  -0.111  0.3270  0.0463 -0.2859
  719THF    H1014364   4.442   5.464  -0.167  0.3332  0.0219 -1.7020
  719THF    H1114365   4.478   5.299  -0.199  1.5156  0.4328 -0.5574
  719THF    H1214366   4.716   5.356  -0.185  3.4071  1.2150  1.6858
  719THF    H1314367   4.678   5.504  -0.108 -0.3837  0.2369  0.3973
  720THF     O114368   0.200   5.187   3.712  0.0610 -0.6264 -0.8563
  720THF     C214369   0.230   5.046   3.730 -0.3313  0.1980 -0.3400
  720THF     C314370   0.054   5.198   3.712 -1.2495  0.2581 -0.7446
  720THF     H414371   0.196   5.020   3.831 -3.1576  0.9453 -0.9924
  720THF     H514372   0.320   5.000   3.691 -1.1261 -0.4004 -1.5493
  720THF     H614373   0.031   5.202   3.818 -1.5496 -0.8777 -0.7578
  720THF     H714374   0.018   5.286   3.659 -2.4929 -0.8562 -1.8501
  720THF     C814375   0.001   5.072   3.654  0.8743 -1.1654 -0.5214
  720THF     C914376   0.121   4.987   3.635 -0.2115 -0.4695  0.4899
  720THF    H1014377  -0.052   5.092   3.560  0.1561 -1.3035 -0.1540
  720THF    H1114378  -0.077   5.025   3.714  0.3424 -0.3274 -0.5272
  720THF    H1214379   0.102   4.880   3.647 -1.6544 -0.0457  2.4769
  720THF    H1314380   0.158   4.996   3.533  0.8569  0.1903  0.9183
  721THF     O114381   4.869   4.004   0.350 -0.0630  0.0775 -0.0296
  721THF     C214382   4.764   4.083   0.314 -0.0306 -0.1463 -0.2489
  721THF     C314383   4.925   4.048   0.474  0.0899  0.4152  0.1017
  721THF     H414384   4.712   4.036   0.230  2.1920 -3.3776 -0.0343
  721THF     H514385   4.811   4.179   0.293  0.8299 -0.4428  0.2623
  721THF     H614386   4.981   3.970   0.526 -0.0244 -0.8510 -1.6127
  721THF     H714387   4.992   4.134   0.466  0.3620  0.3737  1.6146
  721THF     C814388   4.804   4.084   0.552  0.4822 -0.4990  0.5486
  721THF     C914389   4.692   4.097   0.451  0.3685 -0.1978  0.1234
  721THF    H1014390   4.825   4.180   0.598  0.3554  0.0526 -0.5110
  721THF    H1114391   4.778   4.019   0.635  0.0817 -0.5627  0.3786
  721THF    H1214392   4.627   4.013   0.473 -0.4068  0.4761  0.4594
  721THF    H1314393   4.640   4.192   0.463  1.1647  0.2320  0.2824
  722THF     O114394   0.582   4.494   1.158  0.1054  0.7100 -0.0255
  722THF     C214395   0.667   4.503   1.276  0.0224 -0.6539  0.7151
  722THF     C314396   0.450   4.466   1.211 -0.2228 -0.5534  0.4366
  722THF     H414397   0.669   4.607   1.309  0.6523 -0.1769 -0.7514
  722THF     H514398   0.770   4.478   1.252 -0.0303  0.8913 -1.4344
  722THF     H614399   0.371   4.535   1.180  1.7194  1.5336 -0.1396
  722THF     H714400   0.417   4.365   1.186  2.3616 -1.3961  0.1468
  722THF     C814401   0.461   4.480   1.361 -0.0399 -0.1240 -0.5500
  722THF     C914402   0.594   4.427   1.387  0.2100  0.5093  0.3461
  722THF    H1014403   0.383   4.434   1.421  1.8006 -3.2538 -0.3405
  722THF    H1114404   0.462   4.584   1.394 -1.0970 -0.2509 -0.0750
  722THF    H1214405   0.645   4.452   1.480 -0.0988  4.4267 -0.3479
  722THF    H1314406   0.608   4.321   1.366  2.3826  1.0348 -1.3712
  723THF     O114407   1.527   0.371   0.509 -0.4410  0.0772  0.0857
  723THF     C214408   1.490   0.239   0.477 -0.0963  0.0637  0.3885
  723THF     C314409   1.593   0.432   0.400  0.0461  0.1398 -0.1234
  723THF     H414410   1.402   0.240   0.412 -0.7623  1.2385  1.2551
  723THF     H514411   1.462   0.177   0.562 -2.4889  0.6007  0.0856
  723THF     H614412   1.527   0.467   0.321  0.9593  0.5829 -0.7193
  723THF     H714413   1.654   0.515   0.434 -0.6514  0.9030 -0.7081
  723THF     C814414   1.670   0.315   0.340 -0.0686  1.1251 -0.2036
  723THF     C914415   1.604   0.191   0.393  0.0094  0.2831 -0.3786
  723THF    H1014416   1.774   0.328   0.368 -0.3144 -0.5402  1.7349
  723THF    H1114417   1.665   0.323   0.231 -0.7060 -0.5068 -0.3260
  723THF    H1214418   1.568   0.128   0.312 -2.3328 -0.0774  0.8726
  723THF    H1314419   1.666   0.123   0.450  0.9599 -0.0947 -1.8109
  724THF     O114420   3.405   0.247   1.593 -0.4605 -0.3171  0.2065
  724THF     C214421   3.327   0.237   1.713 -0.7070  0.4797 -0.2962
  724THF     C314422   3.359   0.163   1.486 -0.3572  0.0784  0.5222
  724THF     H414423   3.305   0.331   1.765 -1.4037  0.0883  0.1369
  724THF     H514424   3.382   0.181   1.789 -1.7813 -0.2028  0.0072
  724THF     H614425   3.318   0.227   1.408  0.4717 -1.3859 -1.1760
  724THF     H714426   3.444   0.110   1.444  0.1938  0.1218  1.5482
  724THF     C814427   3.261   0.078   1.560  0.4137 -0.0968 -0.0250
  724THF     C914428   3.199   0.164   1.670 -0.4584 -0.4839 -0.1382
  724THF    H1014429   3.311  -0.004   1.611 -1.6986  0.0119  2.4436
  724THF    H1114430   3.180   0.049   1.492  0.8239  1.1605 -1.1017
  724THF    H1214431   3.125   0.235   1.633  0.7305  0.5328 -0.6445
  724THF    H1314432   3.143   0.096   1.735 -3.8024 -0.7606 -2.9915
  725THF     O114433   3.343   0.232   0.373  0.4324 -0.1591 -0.2626
  725THF     C214434   3.446   0.184   0.459  0.0230 -0.3727 -0.9614
  725THF     C314435   3.219   0.255   0.444 -0.4623  0.1397 -0.0787
  725THF     H414436   3.517   0.267   0.466 -0.2749 -0.1694 -0.1784
  725THF     H514437   3.491   0.097   0.412 -2.3641 -1.0338 -2.1755
  725THF     H614438   3.195   0.351   0.489 -0.9169  0.4403 -0.9465
  725THF     H714439   3.138   0.245   0.372 -1.1143  1.5966  0.4201
  725THF     C814440   3.224   0.153   0.560  0.2643 -0.1564 -0.2568
  725THF     C914441   3.375   0.150   0.591  0.6576  0.6913  0.2516
  725THF    H1014442   3.174   0.060   0.532  0.0420  0.3287 -1.5297
  725THF    H1114443   3.155   0.175   0.642 -0.8070 -1.1204 -0.8606
  725THF    H1214444   3.388   0.222   0.672 -3.0379  0.3395  1.3524
  725THF    H1314445   3.414   0.058   0.634  0.3735  0.7432  0.6316
  726THF     O114446   1.353   2.667   3.172 -0.0137  0.0041  0.0395
  726THF     C214447   1.365   2.600   3.041 -0.1008 -0.2757 -0.1582
  726THF     C314448   1.227   2.737   3.167 -0.4731  0.5957 -0.2345
  726THF     H414449   1.330   2.498   3.053  0.3060 -0.5185 -1.0240
  726THF     H514450   1.472   2.604   3.023  0.0068  2.1045  0.5697
  726THF     H614451   1.149   2.661   3.169  0.1011 -0.0213 -0.8362
  726THF     H714452   1.213   2.812   3.245 -0.4627  0.3236  0.0313
  726THF     C814453   1.228   2.803   3.030  1.0339  0.3258  0.1568
  726THF     C914454   1.291   2.692   2.945  0.2165 -0.4059 -0.3965
  726THF    H1014455   1.297   2.887   3.020  0.4019  0.7264 -0.8836
  726THF    H1114456   1.134   2.844   2.995  1.6205  1.4282 -0.1696
  726THF    H1214457   1.215   2.637   2.887  2.0036 -2.6717 -0.7465
  726THF    H1314458   1.363   2.736   2.877 -1.5925  0.6209 -1.7565
  727THF     O114459   5.355   1.581   1.083  0.2575  0.2245  0.4734
  727THF     C214460   5.346   1.672   1.188 -0.3419  0.6690 -0.9083
  727THF     C314461   5.483   1.526   1.054  0.1558  0.1471  0.3197
  727THF     H414462   5.285   1.610   1.254 -1.3094  0.4435 -1.9724
  727THF     H514463   5.290   1.762   1.166 -1.4836  0.6277  1.5452
  727THF     H614464   5.478   1.427   1.099 -0.2939  0.5744  1.2236
  727THF     H714465   5.506   1.513   0.948  0.0271 -1.0164  0.4232
  727THF     C814466   5.580   1.622   1.121  0.1054 -0.4113 -0.5016
  727THF     C914467   5.497   1.687   1.229  0.5306 -0.7069 -0.1276
  727THF    H1014468   5.616   1.701   1.054  0.1517  0.2880  0.3219
  727THF    H1114469   5.671   1.575   1.159 -0.0800 -0.9133 -0.6740
  727THF    H1214470   5.521   1.642   1.326  1.4431  3.1329  1.6548
  727THF    H1314471   5.523   1.792   1.248  0.6030 -0.7783  0.1863
  728THF     O114472   1.903   4.432   3.383 -0.0370  0.6033  0.3694
  728THF     C214473   1.980   4.315   3.411  0.7393  0.2357 -0.7472
  728THF     C314474   1.766   4.409   3.364  0.2979  0.4242  0.3690
  728THF     H414475   2.021   4.307   3.512  2.6608 -2.3659 -1.6012
  728THF     H514476   2.059   4.307   3.336  0.2325  1.6151 -1.4505
  728THF     H614477   1.701   4.490   3.395  0.1973  0.1599  0.8517
  728THF     H714478   1.747   4.387   3.259  0.8043 -1.5433  0.6583
  728THF     C814479   1.745   4.272   3.435 -0.3714  0.1103 -0.6955
  728THF     C914480   1.875   4.198   3.407  0.4731 -0.2109  0.4693
  728THF    H1014481   1.653   4.229   3.396 -2.3230  1.3401  2.2021
  728THF    H1114482   1.720   4.271   3.541 -1.3292 -2.0644 -0.8850
  728THF    H1214483   1.897   4.123   3.482  1.6190  0.7977  1.1751
  728THF    H1314484   1.880   4.158   3.305  1.1641 -1.5558  1.0077
  729THF     O114485   2.915   2.665   3.972  1.1467 -0.1813 -0.0375
  729THF     C214486   2.833   2.546   3.996  0.7586  0.5647  0.0853
  729THF     C314487   3.054   2.638   3.973  0.5099 -0.1467 -0.6648
  729THF     H414488   2.790   2.503   3.906  0.7025 -0.4353  0.5674
  729THF     H514489   2.755   2.576   4.066  0.8076  1.2621 -0.1528
  729THF     H614490   3.117   2.672   3.891 -1.1898  2.6329 -0.9376
  729THF     H714491   3.089   2.690   4.062 -0.2266  1.8777 -1.4919
  729THF     C814492   3.063   2.484   3.984  0.3528 -0.5109 -0.9455
  729THF     C914493   2.937   2.448   4.056 -0.1695  0.4229 -0.4915
  729THF    H1014494   3.152   2.443   4.032  0.9972  0.6732 -1.0780
  729THF    H1114495   3.042   2.441   3.886 -1.3260  0.1257 -0.8984
  729THF    H1214496   2.915   2.342   4.051 -0.3451  0.3892  0.7335
  729THF    H1314497   2.955   2.479   4.159  0.9739 -0.8752 -0.2636
  730THF     O114498   5.279   2.490   4.988  0.3551  0.5429  0.5163
  730THF     C214499   5.194   2.606   5.000  0.0978 -0.0770 -0.2372
  730THF     C314500   5.286   2.460   4.847 -0.0693 -0.2354 -0.4183
  730THF     H414501   5.232   2.704   4.972 -1.0994  1.1898  2.2668
  730THF     H514502   5.176   2.628   5.106 -1.0371 -0.2101 -0.3979
  730THF     H614503   5.345   2.542   4.806  1.1061  0.0976  1.7682
  730THF     H714504   5.339   2.369   4.818 -1.8786 -1.1205 -1.1152
  730THF     C814505   5.141   2.463   4.802  0.0216  0.0921  0.6843
  730THF     C914506   5.080   2.560   4.903 -0.0324 -0.6827 -0.4053
  730THF    H1014507   5.091   2.366   4.814 -0.0106  0.0618  0.3352
  730THF    H1114508   5.140   2.493   4.697  1.0145 -0.5072  0.4914
  730THF    H1214509   5.056   2.649   4.845  1.0909  0.8434  1.3703
  730THF    H1314510   4.987   2.531   4.952 -0.8626  0.8871 -0.9647
  731THF     O114511   2.060   3.747   1.005 -0.2137  0.1118  0.2351
  731THF     C214512   2.089   3.691   1.134  0.4586  0.4899 -0.0624
  731THF     C314513   2.177   3.824   0.964  0.2434  0.5196  0.1767
  731THF     H414514   2.096   3.582   1.131  0.1713  0.3979  1.8075
  731THF     H514515   2.003   3.711   1.198 -0.3616 -0.0087 -0.9736
  731THF     H614516   2.207   3.817   0.860  0.4933  0.2217  0.2666
  731THF     H714517   2.140   3.927   0.968 -3.2091 -0.5618 -0.5201
  731THF     C814518   2.289   3.795   1.066  0.1148 -0.2631 -0.3790
  731THF     C914519   2.219   3.758   1.193 -0.4510  0.0639  0.3967
  731THF    H1014520   2.371   3.867   1.066  0.4598 -0.6298  0.9781
  731THF    H1114521   2.334   3.701   1.033 -1.6509 -0.9996 -0.7965
  731THF    H1214522   2.280   3.686   1.248  0.2890 -0.4293 -0.9959
  731THF    H1314523   2.196   3.847   1.252 -0.6832  1.3922 -1.5967
  732THF     O114524   0.559   3.706   2.646  0.3864 -0.3982  0.0361
  732THF     C214525   0.541   3.581   2.719  0.1690  0.4968  0.2502
  732THF     C314526   0.667   3.776   2.702 -0.0793  0.4966 -0.3022
  732THF     H414527   0.504   3.503   2.653  0.6936  1.2259 -0.9442
  732THF     H514528   0.472   3.586   2.803 -0.4749  0.9989 -0.2914
  732THF     H614529   0.738   3.805   2.625 -0.2215 -0.5619 -0.8403
  732THF     H714530   0.639   3.866   2.757 -0.6205 -0.8622  1.7658
  732THF     C814531   0.733   3.683   2.804 -0.2703 -0.3707  0.2059
  732THF     C914532   0.678   3.552   2.765 -0.8148 -0.0847  0.0812
  732THF    H1014533   0.693   3.715   2.900  2.5707  1.5919  0.8707
  732THF    H1114534   0.841   3.685   2.814 -0.3066  0.4908  0.5036
  732THF    H1214535   0.748   3.517   2.690  0.2683  0.7252  0.6746
  732THF    H1314536   0.685   3.479   2.845  1.4621  1.8807  1.8306
  733THF     O114537   1.541   1.842   3.638 -0.2369  0.3384  0.1920
  733THF     C214538   1.515   1.961   3.716 -0.2141 -1.1935  0.6147
  733THF     C314539   1.565   1.883   3.505 -0.1012  0.6028  0.1795
  733THF     H414540   1.604   2.023   3.719 -1.5148  0.7369  4.3630
  733THF     H514541   1.481   1.940   3.817 -0.7630  0.3189  0.7736
  733THF     H614542   1.661   1.931   3.489 -0.0026  0.2950 -0.1776
  733THF     H714543   1.547   1.800   3.436  0.7176  1.2447 -0.8462
  733THF     C814544   1.450   1.981   3.485  0.5129  0.1650 -0.6290
  733THF     C914545   1.427   2.048   3.624  0.0013  0.0021  0.3083
  733THF    H1014546   1.366   1.924   3.445 -0.5856  0.8018  0.6658
  733THF    H1114547   1.480   2.055   3.410  2.0213 -0.9339 -1.1566
  733THF    H1214548   1.453   2.153   3.634 -1.4838  0.2715  1.9572
  733THF    H1314549   1.323   2.050   3.657 -0.1249  3.9943  0.1946
  734THF     O114550   4.146   5.303   4.626 -0.1125  0.2816 -0.0013
  734THF     C214551   4.058   5.313   4.520 -0.2231  0.1297  0.7058
  734THF     C314552   4.275   5.270   4.570 -0.2858  0.4032  0.2001
  734THF     H414553   3.960   5.358   4.534  0.9781  2.7189  1.3409
  734THF     H514554   4.022   5.215   4.489  0.3855  0.5251 -1.4267
  734THF     H614555   4.363   5.312   4.619  0.7358 -1.6728  0.2412
  734THF     H714556   4.290   5.162   4.572 -1.2899  0.1028 -2.8150
  734THF     C814557   4.268   5.295   4.420  0.4106 -0.2757 -0.1524
  734THF     C914558   4.136   5.369   4.403 -0.0112 -0.1243  0.2452
  734THF    H1014559   4.266   5.205   4.358 -1.7504  1.1284 -2.2888
  734THF    H1114560   4.347   5.363   4.388  1.0074 -0.0205  1.6885
  734THF    H1214561   4.135   5.477   4.416  2.6783  0.4251 -2.9117
  734THF    H1314562   4.079   5.344   4.314 -0.1237 -0.1713  0.3302
  735THF     O114563   0.680   0.636   3.774 -0.4263  0.1820 -0.3403
  735THF     C214564   0.698   0.593   3.645  0.6938 -0.1821 -0.0949
  735THF     C314565   0.545   0.633   3.816  0.2709  0.1567  0.0545
  735THF     H414566   0.797   0.549   3.635  0.6224 -0.3468 -0.0822
  735THF     H514567   0.683   0.678   3.579  0.5106 -0.8244 -0.8999
  735THF     H614568   0.535   0.634   3.925  2.1135  2.3865  0.2909
  735THF     H714569   0.489   0.719   3.780  1.4100  1.3535  1.0297
  735THF     C814570   0.490   0.517   3.736  0.7678  0.0896  0.2099
  735THF     C914571   0.590   0.494   3.626  0.1485  0.9493  0.5330
  735THF    H1014572   0.388   0.544   3.708  0.1732 -0.5535  1.6573
  735THF    H1114573   0.490   0.424   3.794  2.3739  0.3756  0.6975
  735THF    H1214574   0.625   0.391   3.634 -1.3791 -0.0477 -3.2161
  735THF    H1314575   0.540   0.494   3.529  0.4248  0.2894  0.3868
  736THF     O114576   2.930   1.942   3.183  0.1039 -0.1638  0.3823
  736THF     C214577   2.812   1.880   3.237  0.2084 -0.0148 -0.4106
  736THF     C314578   2.989   1.832   3.112 -0.2717  0.3063  1.1405
  736THF     H414579   2.738   1.869   3.157 -0.9463  2.4915  0.2342
  736THF     H514580   2.766   1.942   3.313  0.0986  1.3862 -1.5816
  736THF     H614581   2.966   1.830   3.006 -0.1088 -0.9712  1.1117
  736THF     H714582   3.098   1.840   3.106 -0.0412 -2.4412  0.1783
  736THF     C814583   2.957   1.704   3.195 -0.3467 -0.0378  0.4780
  736THF     C914584   2.856   1.752   3.300  0.0093 -0.4383 -0.1902
  736THF    H1014585   3.042   1.655   3.242  0.1218 -0.6792 -0.9950
  736THF    H1114586   2.935   1.619   3.130  1.3017 -1.4798  1.6873
  736THF    H1214587   2.776   1.677   3.308  0.8721 -1.5891 -1.6885
  736THF    H1314588   2.898   1.747   3.400 -2.3653 -0.2382  0.8983
  737THF     O114589   2.404   1.560   1.613  0.2943 -0.0007 -0.4205
  737THF     C214590   2.268   1.577   1.594 -0.5565  0.2613 -0.2576
  737THF     C314591   2.466   1.491   1.505  0.2371  0.4392 -0.1238
  737THF     H414592   2.235   1.658   1.659 -1.1576 -0.9375  0.9686
  737THF     H514593   2.213   1.489   1.626  1.4863 -2.7426 -4.1343
  737THF     H614594   2.566   1.529   1.486  1.0053 -1.5859 -0.3610
  737THF     H714595   2.485   1.386   1.527  0.1112  0.4378 -0.0227
  737THF     C814596   2.366   1.516   1.394  0.1945 -0.1066 -0.5878
  737THF     C914597   2.262   1.613   1.445  0.4380  0.2536 -0.5016
  737THF    H1014598   2.312   1.427   1.363  1.2949 -1.2962  0.7482
  737THF    H1114599   2.413   1.554   1.304  1.8225  0.4259  0.4452
  737THF    H1214600   2.302   1.713   1.426  1.2526  0.3442  1.3799
  737THF    H1314601   2.160   1.601   1.409 -0.0110 -0.0900  0.8306
  738THF     O114602   4.493   3.437   1.600  0.1734 -0.1697 -0.4859
  738THF     C214603   4.530   3.510   1.721 -0.5988  0.0923  0.1092
  738THF     C314604   4.575   3.319   1.601 -0.1739  0.3036 -0.3879
  738THF     H414605   4.468   3.490   1.809  0.4358  1.7426  1.2750
  738THF     H514606   4.515   3.617   1.706  0.2523  0.2841  0.5994
  738THF     H614607   4.550   3.240   1.672  2.2590  1.8977  2.5202
  738THF     H714608   4.579   3.267   1.506  1.0105 -0.2951 -0.0329
  738THF     C814609   4.716   3.379   1.629  0.6086  0.3288  0.2622
  738THF     C914610   4.680   3.480   1.746  0.5011 -0.1367 -0.1527
  738THF    H1014611   4.755   3.431   1.542 -0.6843  2.1818  0.7218
  738THF    H1114612   4.792   3.308   1.661 -0.5563 -0.8201  0.6030
  738THF    H1214613   4.687   3.435   1.845  0.4953  2.4360  1.0912
  738THF    H1314614   4.744   3.568   1.744 -1.7093  1.5260 -1.9270
  739THF     O114615   1.741   1.197   5.250  0.0742 -0.1201 -0.0032
  739THF     C214616   1.879   1.149   5.221  0.4184  0.0158 -1.1121
  739THF     C314617   1.680   1.091   5.324  0.0791 -0.0797  0.0783
  739THF     H414618   1.951   1.229   5.233  2.9425 -2.2002 -0.4159
  739THF     H514619   1.887   1.112   5.119  2.1852 -3.3269  0.0522
  739THF     H614620   1.603   1.126   5.393  1.0765  0.3561  0.9920
  739THF     H714621   1.643   1.016   5.254  0.6884 -0.2779 -0.0350
  739THF     C814622   1.788   1.041   5.412 -0.6983 -0.2847 -0.0185
  739THF     C914623   1.909   1.031   5.318  0.0331  0.0397  0.3444
  739THF    H1014624   1.774   0.939   5.448  0.4176 -1.1988 -2.0022
  739THF    H1114625   1.816   1.117   5.485 -0.5122 -2.0961  1.8629
  739THF    H1214626   2.008   1.026   5.363  0.0963 -0.6352  0.1487
  739THF    H1314627   1.905   0.941   5.257 -1.8139  0.1868  0.2003
  740THF     O114628   0.440   1.005   3.471 -0.8710  0.4259 -0.1747
  740THF     C214629   0.515   1.057   3.360 -0.0519 -0.4978 -0.2534
  740THF     C314630   0.363   1.120   3.516 -0.4696 -0.4042 -0.0218
  740THF     H414631   0.549   0.982   3.288  0.0726 -0.7625  0.0766
  740THF     H514632   0.608   1.087   3.408 -0.4837 -0.0513  0.3241
  740THF     H614633   0.291   1.085   3.591  1.8596  0.7464  2.9206
  740THF     H714634   0.427   1.196   3.560  0.2320 -1.8175  1.4948
  740THF     C814635   0.308   1.167   3.379 -0.1236 -0.5646 -0.8818
  740THF     C914636   0.434   1.181   3.299 -0.2459  1.0990 -0.0225
  740THF    H1014637   0.250   1.257   3.398 -1.8307 -1.1327 -2.9795
  740THF    H1114638   0.237   1.091   3.344 -1.0437  0.7846 -2.0429
  740THF    H1214639   0.427   1.183   3.190  5.9649  0.9899 -0.7830
  740THF    H1314640   0.482   1.272   3.335  1.5990  0.3603 -0.4504
  741THF     O114641   0.807   2.960   3.999  0.1644  0.3945  0.1402
  741THF     C214642   0.800   3.036   3.882  0.3059  0.7752  0.2620
  741THF     C314643   0.896   3.014   4.091 -0.2432  0.7573 -0.3216
  741THF     H414644   0.715   3.103   3.900 -0.6821 -0.5265  0.6163
  741THF     H514645   0.771   2.970   3.800 -0.0505  0.6966  0.4481
  741THF     H614646   0.843   3.048   4.180 -1.8557 -1.0460 -0.5322
  741THF     H714647   0.972   2.939   4.114  0.2559  0.9656 -1.2583
  741THF     C814648   0.976   3.120   4.011  0.6667  0.1227 -0.7455
  741THF     C914649   0.939   3.096   3.871 -0.6244  0.4557  0.5869
  741THF    H1014650   1.079   3.124   4.047 -0.4440  0.0359  2.8159
  741THF    H1114651   0.939   3.221   4.031 -2.2292 -0.3328 -3.0760
  741THF    H1214652   0.948   3.190   3.817  1.4585 -0.2289 -0.3484
  741THF    H1314653   1.000   3.021   3.822  1.5804  1.8100  1.1308
  742THF     O114654   1.410   3.403   3.499 -0.3916  0.6777  0.2423
  742THF     C214655   1.441   3.512   3.415 -0.2101 -0.5112  0.1539
  742THF     C314656   1.435   3.280   3.425 -0.1897  0.1389 -0.7321
  742THF     H414657   1.512   3.572   3.472  0.3220 -0.3066 -0.7145
  742THF     H514658   1.349   3.566   3.392 -1.3958 -2.8339 -0.9113
  742THF     H614659   1.525   3.236   3.466 -0.1424  1.2694  0.4232
  742THF     H714660   1.347   3.222   3.453  1.6998 -2.3701  0.3491
  742THF     C814661   1.458   3.320   3.282  0.1939  0.8222  0.0922
  742THF     C914662   1.499   3.463   3.286 -0.2103 -0.6964  0.2072
  742THF    H1014663   1.368   3.309   3.222 -0.9809 -0.2057  1.9554
  742THF    H1114664   1.529   3.251   3.238  0.5660  1.4372 -0.2937
  742THF    H1214665   1.608   3.464   3.285 -0.1892 -2.1290  0.2051
  742THF    H1314666   1.460   3.509   3.195  0.7690 -2.8765 -1.3748
  743THF     O114667   3.212   3.058   1.658  0.2121  0.2133  0.8540
  743THF     C214668   3.264   3.146   1.561 -0.2925 -0.1935  0.9043
  743THF     C314669   3.148   2.950   1.583 -0.3374 -0.3412  1.0713
  743THF     H414670   3.352   3.206   1.587  1.0052 -1.1960 -0.9918
  743THF     H514671   3.186   3.210   1.520 -0.2147 -0.5321  0.2267
  743THF     H614672   3.116   2.862   1.638  0.1171 -0.7707  0.6660
  743THF     H714673   3.054   2.992   1.548  0.5925 -0.5286 -1.9139
  743THF     C814674   3.248   2.917   1.472  0.1467 -0.6212 -0.2986
  743THF     C914675   3.315   3.056   1.447 -0.1573  0.2349 -0.2834
  743THF    H1014676   3.208   2.875   1.380 -0.0616 -1.3200  0.1036
  743THF    H1114677   3.321   2.850   1.517  2.9406  2.0748 -0.4804
  743THF    H1214678   3.423   3.046   1.455 -0.1791 -0.8413 -1.1186
  743THF    H1314679   3.300   3.090   1.345 -0.6583  0.9795  0.0270
  744THF     O114680   2.488   5.237   3.121  0.1109 -0.0046  0.7423
  744THF     C214681   2.527   5.241   3.256  0.1804 -0.4788  0.3904
  744THF     C314682   2.505   5.113   3.063 -0.1868  0.2346  0.4082
  744THF     H414683   2.438   5.209   3.311 -0.6054 -0.5381 -0.8723
  744THF     H514684   2.554   5.346   3.268  1.5725 -0.5227 -1.7648
  744THF     H614685   2.411   5.058   3.072  0.8794 -1.7043  0.3481
  744THF     H714686   2.539   5.120   2.959 -0.8720  1.4114  0.2443
  744THF     C814687   2.615   5.047   3.152 -0.1592  0.6447  0.9349
  744THF     C914688   2.639   5.148   3.268  0.4715  0.4005 -0.3099
  744THF    H1014689   2.707   5.012   3.105 -1.2338  0.4693 -1.1274
  744THF    H1114690   2.571   4.958   3.197 -0.9410 -0.0017 -1.0252
  744THF    H1214691   2.654   5.104   3.366 -0.7090  0.6966  0.0108
  744THF    H1314692   2.736   5.193   3.245  1.0898 -0.4816  0.4686
  745THF     O114693   3.016   0.355   5.105  0.9102  0.0490  0.3221
  745THF     C214694   3.004   0.472   5.016 -0.1977 -0.2942  0.1352
  745THF     C314695   2.920   0.376   5.211  0.6582 -0.1965 -0.6304
  745THF     H414696   3.040   0.452   4.915  0.1491 -0.1637  0.2335
  745THF     H514697   3.069   0.554   5.048  0.3750  0.0627 -1.8218
  745THF     H614698   2.884   0.280   5.248  0.1000 -0.1162 -0.9622
  745THF     H714699   2.945   0.421   5.307 -1.4531 -0.4381  0.0855
  745THF     C814700   2.807   0.449   5.146 -0.0085  0.2495 -0.3556
  745THF     C914701   2.853   0.497   5.011  0.7896  0.3953 -0.0683
  745THF    H1014702   2.782   0.537   5.204  1.9812  0.0001  0.9793
  745THF    H1114703   2.721   0.381   5.145  1.0089 -1.1486  1.3933
  745THF    H1214704   2.806   0.443   4.929  2.1034  0.0209 -0.5906
  745THF    H1314705   2.838   0.602   4.985  1.9735  0.2219 -1.5590
  746THF     O114706   2.158   4.227   4.641 -0.3488  0.3403 -0.4074
  746THF     C214707   2.107   4.140   4.545 -0.7703 -0.0354 -0.7666
  746THF     C314708   2.071   4.344   4.642  0.2084  0.6228  0.3778
  746THF     H414709   2.015   4.094   4.582  1.3486 -3.7036  0.4059
  746THF     H514710   2.175   4.057   4.528 -0.1092  0.1961  0.6417
  746THF     H614711   1.998   4.341   4.723 -0.2942 -0.3351 -0.0893
  746THF     H714712   2.137   4.430   4.649  3.3416 -1.6650  1.2778
  746THF     C814713   2.007   4.345   4.501 -0.4754  0.4418  1.0778
  746THF     C914714   2.069   4.224   4.431  0.4380 -0.3430  0.8975
  746THF    H1014715   2.030   4.434   4.442  0.4118  0.3203  1.2259
  746THF    H1114716   1.899   4.347   4.513 -0.6718 -0.4994 -0.3928
  746THF    H1214717   2.011   4.170   4.356  0.6534 -1.0393  1.2261
  746THF    H1314718   2.154   4.263   4.376 -0.4396 -0.1598 -0.3732
  747THF     O114719   4.502   1.502   0.417  0.0511  0.6172  0.3561
  747THF     C214720   4.486   1.562   0.545 -0.4644  0.5488 -0.1324
  747THF     C314721   4.621   1.426   0.419 -0.4041  0.0247  0.2880
  747THF     H414722   4.386   1.604   0.550 -1.2052 -1.1927  0.7053
  747THF     H514723   4.558   1.643   0.553 -0.1557  0.3468 -0.8298
  747THF     H614724   4.619   1.377   0.322  0.7699 -0.5984  0.5594
  747THF     H714725   4.706   1.494   0.425  1.6740 -2.2023 -1.8216
  747THF     C814726   4.593   1.348   0.549 -0.2062 -0.8390 -0.3180
  747THF     C914727   4.524   1.446   0.640  0.0028  0.4289  0.0083
  747THF    H1014728   4.679   1.301   0.596 -0.0796  0.4559  0.8140
  747THF    H1114729   4.513   1.276   0.535  0.6549 -1.6281 -1.3347
  747THF    H1214730   4.439   1.398   0.687  0.3449 -0.6632 -0.4537
  747THF    H1314731   4.590   1.488   0.717 -0.8765  1.3567  0.2834
  748THF     O114732   4.384   2.764   3.978  0.3495 -0.0973 -0.0966
  748THF     C214733   4.470   2.655   3.965 -0.2221 -0.3352  0.1501
  748THF     C314734   4.399   2.859   3.868  0.1409 -0.0524 -0.5279
  748THF     H414735   4.436   2.571   4.025 -0.6683 -0.6383 -0.5100
  748THF     H514736   4.561   2.689   4.015 -1.2862  2.3904  0.4194
  748THF     H614737   4.301   2.890   3.830 -1.2557 -1.8960  1.3080
  748THF     H714738   4.444   2.955   3.891 -0.6469 -0.1929  1.9082
  748THF     C814739   4.485   2.775   3.771  0.6677 -0.7083 -0.5058
  748THF     C914740   4.464   2.635   3.817 -0.4340 -0.3575 -0.0456
  748THF    H1014741   4.588   2.804   3.792 -0.5243  3.3983  0.7097
  748THF    H1114742   4.459   2.804   3.670  1.2987  1.7457 -0.0352
  748THF    H1214743   4.370   2.597   3.775  0.1920  0.4408 -2.3739
  748THF    H1314744   4.538   2.575   3.765 -0.9165  1.1313 -2.6679
  749THF     O114745   3.069   4.526   2.474 -0.1956 -0.1837  0.3206
  749THF     C214746   3.072   4.632   2.571 -0.0169 -0.1882 -0.2136
  749THF     C314747   3.143   4.427   2.533 -0.5070 -0.7276 -0.0493
  749THF     H414748   3.000   4.614   2.651 -0.2913 -1.6275 -0.7426
  749THF     H514749   3.035   4.718   2.516  1.0103  0.0697 -0.5200
  749THF     H614750   3.088   4.378   2.613 -0.6828  2.8840  2.2786
  749THF     H714751   3.178   4.358   2.457 -1.4516 -1.0057 -0.2541
  749THF     C814752   3.263   4.496   2.602 -0.4669  0.5119  0.2296
  749THF     C914753   3.223   4.639   2.613  0.4409 -0.1614 -0.0888
  749THF    H1014754   3.352   4.479   2.541  1.6932  2.6452  2.5779
  749THF    H1114755   3.282   4.474   2.707  0.9594  1.8170  0.2883
  749THF    H1214756   3.231   4.674   2.716  0.4367 -0.3848 -0.0112
  749THF    H1314757   3.280   4.707   2.550 -0.4452 -0.4060 -1.1726
  750THF     O114758   4.705   4.339   2.011  0.0006 -0.5126 -0.1942
  750THF     C214759   4.790   4.260   2.092  1.2002 -0.2128  0.0262
  750THF     C314760   4.790   4.427   1.941 -0.0158  0.1398  0.1285
  750THF     H414761   4.738   4.169   2.121 -0.6117  0.1867 -1.7524
  750THF     H514762   4.810   4.318   2.183 -0.4440  1.0112 -0.3392
  750THF     H614763   4.746   4.467   1.850  2.0578 -1.1822 -1.5492
  750THF     H714764   4.821   4.512   2.002  1.7834  0.3157 -0.9565
  750THF     C814765   4.925   4.352   1.918 -0.5484 -0.2596  0.2883
  750THF     C914766   4.918   4.239   2.011 -0.4618  0.0728 -0.0444
  750THF    H1014767   5.013   4.413   1.934 -1.8374  1.4520  1.0823
  750THF    H1114768   4.934   4.319   1.814  2.6073 -2.4544  1.1141
  750THF    H1214769   4.918   4.142   1.962 -1.2744  0.2563 -0.4199
  750THF    H1314770   4.997   4.236   2.087 -2.0358 -2.3123  1.6425
  751THF     O114771   5.396   5.343   3.452  0.0909  0.2772  0.0149
  751THF     C214772   5.378   5.341   3.311 -0.3179  0.1961 -0.0143
  751THF     C314773   5.397   5.479   3.496  0.0129  0.2399  0.2117
  751THF     H414774   5.310   5.257   3.298  0.6447 -0.9613  1.9483
  751THF     H514775   5.479   5.332   3.270 -0.4094 -0.7478 -0.0653
  751THF     H614776   5.305   5.485   3.554 -1.3294 -0.3390 -1.7628
  751THF     H714777   5.477   5.508   3.564 -1.2783  1.3677  1.3244
  751THF     C814778   5.394   5.573   3.370  0.3361  0.1941 -0.1526
  751THF     C914779   5.318   5.475   3.275  0.3187 -0.0076 -0.0830
  751THF    H1014780   5.492   5.617   3.351 -0.5365  3.1583  1.6140
  751THF    H1114781   5.320   5.646   3.403  0.1306  0.5005 -1.2690
  751THF    H1214782   5.213   5.480   3.301  0.1532 -1.1601 -0.4877
  751THF    H1314783   5.329   5.499   3.169 -1.0700 -2.0433 -0.7337
  752THF     O114784   0.192   0.517   0.869 -0.1189 -0.8576 -0.0182
  752THF     C214785   0.229   0.513   1.001  0.3178 -0.2591 -0.1862
  752THF     C314786   0.321   0.530   0.807 -0.1489 -0.0931  0.3169
  752THF     H414787   0.143   0.489   1.063 -2.1618  2.6169 -2.2021
  752THF     H514788   0.254   0.615   1.027 -2.0194  0.6664 -1.2297
  752THF     H614789   0.308   0.503   0.703 -1.0626 -0.4016  0.4965
  752THF     H714790   0.348   0.636   0.815 -1.1067  0.4414 -2.4523
  752THF     C814791   0.411   0.439   0.882 -0.1546 -0.8640  0.4378
  752THF     C914792   0.341   0.413   1.011 -0.2831  0.2342  0.1609
  752THF    H1014793   0.511   0.480   0.897  0.4017 -2.6826  2.1074
  752THF    H1114794   0.422   0.342   0.834  1.4855 -0.7112  0.4312
  752THF    H1214795   0.301   0.313   1.028  0.6898  0.3321  3.8820
  752THF    H1314796   0.412   0.426   1.093  2.8113  0.9552 -2.4218
  753THF     O114797   4.346   1.721   5.186  0.0064 -0.0615  0.0155
  753THF     C214798   4.208   1.717   5.233 -0.0082 -0.4573 -0.1818
  753THF     C314799   4.378   1.594   5.137 -0.9713  0.9001 -0.8407
  753THF     H414800   4.163   1.814   5.254  1.9829  0.5054 -0.0347
  753THF     H514801   4.220   1.659   5.325  3.9918 -0.7580 -0.6902
  753THF     H614802   4.470   1.586   5.080  0.0976  0.5029  0.8510
  753THF     H714803   4.381   1.524   5.221 -0.0096  2.3560  0.3981
  753THF     C814804   4.264   1.565   5.045 -0.2802 -0.5401 -0.7364
  753THF     C914805   4.142   1.630   5.121 -0.0768  0.0439  0.2568
  753THF    H1014806   4.257   1.456   5.042 -1.7203 -0.4977  0.2173
  753THF    H1114807   4.281   1.609   4.947  1.2349 -1.0765 -0.7367
  753THF    H1214808   4.076   1.678   5.050  1.3063 -0.9565 -1.8232
  753THF    H1314809   4.079   1.556   5.170  1.5350 -2.0999 -0.7505
  754PF6-    P114810   5.274   3.859   2.830 -0.2710  0.1012  0.0522
  754PF6-    F214811   5.170   3.865   2.956 -0.1032  0.2373  0.4474
  754PF6-    F314812   5.374   3.853   2.702 -0.1311  0.0968  0.1029
  754PF6-    F414813   5.362   3.984   2.888  0.4003  0.1722  0.7197
  754PF6-    F514814   5.186   3.739   2.776  0.0310 -0.0404  0.2273
  754PF6-    F614815   5.179   3.957   2.745  0.2649 -0.5575  0.4898
  754PF6-    F714816   5.367   3.759   2.909  0.2430  0.5962 -0.4381
  755PF6-    P114817   1.042   5.462   1.525 -0.3974 -0.2224  0.4318
  755PF6-    F214818   1.125   5.599   1.560  0.1691  0.1989  0.6626
  755PF6-    F314819   0.957   5.333   1.490 -0.0143  0.2792 -0.1320
  755PF6-    F414820   0.913   5.558   1.528  0.0319 -0.2179  0.2271
  755PF6-    F514821   1.174   5.371   1.529 -0.0682 -0.5889  0.1272
  755PF6-    F614822   1.025   5.436   1.680  0.4970 -0.1936  0.0422
  755PF6-    F714823   1.064   5.484   1.368 -0.1518  0.0399  0.3423
  756PF6-    P114824   3.635   1.457   1.779 -0.7350  0.3233  0.2659
  756PF6-    F214825   3.778   1.499   1.838 -0.0537 -0.0261 -0.1191
  756PF6-    F314826   3.489   1.418   1.725  0.4445 -0.0343 -0.2873
  756PF6-    F414827   3.596   1.393   1.924  0.1862 -0.0612 -0.1450
  756PF6-    F514828   3.680   1.522   1.635  0.2330  0.3011  0.0738
  756PF6-    F614829   3.699   1.311   1.734  0.1049  0.4756  0.3118
  756PF6-    F714830   3.579   1.599   1.818  0.1976 -0.9266 -0.0380
  757PF6-    P114831   3.306   4.242   2.984  0.4781  0.0306 -0.0532
  757PF6-    F214832   3.416   4.277   2.869  0.0726 -0.2258  0.6290
  757PF6-    F314833   3.201   4.202   3.097  0.4537 -0.3131  0.2620
  757PF6-    F414834   3.287   4.087   2.919 -0.1645 -0.4696  0.3896
  757PF6-    F514835   3.331   4.377   3.057 -0.0283 -0.1680  0.2294
  757PF6-    F614836   3.183   4.302   2.900 -0.3445 -0.6377  0.3436
  757PF6-    F714837   3.422   4.180   3.078 -0.1941  0.5672  0.1210
  758PF6-    P114838   5.367   1.249   4.200  0.0532 -0.3168  0.1721
  758PF6-    F214839   5.236   1.256   4.113 -0.0570 -0.1549 -0.2049
  758PF6-    F314840   5.502   1.245   4.283 -0.4610 -0.4185 -0.1724
  758PF6-    F414841   5.377   1.410   4.196 -0.2822 -0.1785  0.6261
  758PF6-    F514842   5.356   1.093   4.204  0.6814  0.6526  0.2628
  758PF6-    F614843   5.447   1.237   4.059 -0.1520  0.2757  0.2184
  758PF6-    F714844   5.283   1.261   4.338 -0.6585  0.5750  0.0669
  759PF6-    P114845   0.502   4.991   0.260 -0.2249  0.2471 -0.1827
  759PF6-    F214846   0.487   5.115   0.358  0.5741 -0.5021 -0.2234
  759PF6-    F314847   0.519   4.866   0.164 -0.4656 -0.2877 -0.6262
  759PF6-    F414848   0.554   5.091   0.146 -0.1500 -0.1487  0.4756
  759PF6-    F514849   0.446   4.894   0.373 -0.2650 -0.0915 -0.4473
  759PF6-    F614850   0.352   5.011   0.210  0.2195 -0.4642  0.0125
  759PF6-    F714851   0.657   4.972   0.300  0.2125  0.2769 -0.4490
  760PF6-    P114852   1.375   4.834   4.763 -0.0735 -0.0158 -0.1562
  760PF6-    F214853   1.236   4.881   4.703 -0.3299  0.4025  0.2434
  760PF6-    F314854   1.518   4.785   4.825  0.6002 -0.4381  0.1064
  760PF6-    F414855   1.293   4.750   4.877  0.5185 -0.0361  0.0982
  760PF6-    F514856   1.454   4.922   4.650  0.0459 -0.0081  0.4363
  760PF6-    F614857   1.378   4.955   4.860 -0.3800 -0.2537 -0.2391
  760PF6-    F714858   1.369   4.704   4.662  0.1740  0.2652 -0.0482
  761PF6-    P114859   5.087   5.336   1.623 -0.0435 -0.5628 -0.0971
  761PF6-    F214860   5.191   5.457   1.603 -0.2927  0.0934 -0.1859
  761PF6-    F314861   4.987   5.217   1.640 -0.2546 -0.2599  0.3701
  761PF6-    F414862   5.010   5.412   1.731 -0.0408 -0.1925 -0.5922
  761PF6-    F514863   5.158   5.254   1.504 -0.3249  0.3992  0.0977
  761PF6-    F614864   5.186   5.275   1.731 -0.6811 -0.3897  0.3698
  761PF6-    F714865   4.985   5.397   1.515 -0.1912 -0.0491  0.3117
  762PF6-    P114866   3.459   5.211   3.961  0.3167 -0.1827  0.0004
  762PF6-    F214867   3.541   5.123   4.071 -0.0614  0.3796 -0.2946
  762PF6-    F314868   3.384   5.307   3.859  0.3283  0.0546 -0.4252
  762PF6-    F414869   3.526   5.128   3.836 -0.2094  0.0810  0.3557
  762PF6-    F514870   3.392   5.297   4.075  0.0695 -0.1045  0.0140
  762PF6-    F614871   3.581   5.311   3.951  0.1154 -0.5128 -0.3836
  762PF6-    F714872   3.338   5.109   3.966 -0.0676  0.0797  0.4993
  763PF6-    P114873   3.277   4.038   5.175  0.1691 -0.0447  0.0007
  763PF6-    F214874   3.355   4.142   5.078 -0.4447 -0.1206 -0.2744
  763PF6-    F314875   3.200   3.940   5.270  0.5539  0.4400 -0.4076
  763PF6-    F414876   3.409   4.021   5.268  0.1478 -0.0131  0.2171
  763PF6-    F514877   3.149   4.051   5.087 -0.2438 -0.3606 -0.0551
  763PF6-    F614878   3.331   3.919   5.080  0.1693  0.3490 -0.1709
  763PF6-    F714879   3.225   4.165   5.261  0.6755  0.1119 -0.3771
  764PF6-    P114880   0.621   0.755   0.581  0.0218  0.1669 -0.4328
  764PF6-    F214881   0.770   0.706   0.545  0.0263 -0.4373 -0.2842
  764PF6-    F314882   0.474   0.798   0.616  0.8181 -0.0195 -0.1891
  764PF6-    F414883   0.643   0.887   0.495  0.1521 -0.5538  0.0625
  764PF6-    F514884   0.606   0.628   0.672  0.6309 -0.1502 -0.4035
  764PF6-    F614885   0.677   0.830   0.708 -0.6135 -0.4074 -0.0824
  764PF6-    F714886   0.560   0.675   0.455 -0.2805 -0.2555 -0.3007
  765PF6-    P114887   3.699   3.849   1.338 -0.0663  0.2961  0.3982
  765PF6-    F214888   3.722   3.963   1.446  0.0961  0.1749  0.9343
  765PF6-    F314889   3.678   3.736   1.228  0.1669 -0.2894 -0.2207
  765PF6-    F414890   3.860   3.847   1.308 -0.3948  0.2446  0.2162
  765PF6-    F514891   3.538   3.843   1.372 -0.0656 -0.2869 -0.3118
  765PF6-    F614892   3.675   3.961   1.227 -0.5533 -0.9118 -0.8690
  765PF6-    F714893   3.725   3.736   1.448  0.0347 -0.4509  0.5146
  766PF6-    P114894   0.043   2.327   2.901 -0.0109  0.0853 -0.1025
  766PF6-    F214895  -0.019   2.186   2.861 -0.2405  0.3217 -0.3838
  766PF6-    F314896   0.100   2.471   2.937 -0.6411 -0.2955  0.3325
  766PF6-    F414897   0.191   2.267   2.913 -0.0278  0.2007  0.1030
  766PF6-    F514898  -0.101   2.387   2.874  0.0352  0.0439 -0.1820
  766PF6-    F614899   0.007   2.307   3.057  0.0950 -0.8284 -0.9159
  766PF6-    F714900   0.076   2.360   2.748  0.4592 -0.2312  0.2999
  767PF6-    P114901   1.528   1.048   0.910  0.2342  0.0362 -0.0928
  767PF6-    F214902   1.576   0.992   1.053 -0.0340  0.4728 -0.2211
  767PF6-    F314903   1.491   1.105   0.769 -0.4139 -0.1355  0.2184
  767PF6-    F414904   1.379   1.083   0.964  0.1403  0.0285 -0.5896
  767PF6-    F514905   1.668   1.006   0.853 -0.5482  0.5812  0.0952
  767PF6-    F614906   1.477   0.910   0.865  0.6192 -0.4465  0.4900
  767PF6-    F714907   1.587   1.188   0.957  0.1726 -0.0531 -0.0386
  768PF6-    P114908   0.696   1.966   3.602 -0.0626 -0.1797 -0.3494
  768PF6-    F214909   0.817   1.870   3.657  0.4341 -0.2207  0.5687
  768PF6-    F314910   0.577   2.061   3.554  0.1146  0.0968 -0.1087
  768PF6-    F414911   0.726   1.920   3.450 -0.0587 -0.6992  0.4337
  768PF6-    F514912   0.671   2.013   3.753 -0.6897 -0.4190 -0.1898
  768PF6-    F614913   0.803   2.089   3.576  0.4206 -0.5718  0.3258
  768PF6-    F714914   0.593   1.848   3.624  0.2135  0.0325  0.4049
  769PF6-    P114915   0.461   3.024   0.094 -0.7496 -0.0935  0.5395
  769PF6-    F214916   0.584   2.939   0.160 -0.1069  0.1341  0.2061
  769PF6-    F314917   0.345   3.113   0.020 -0.2090 -0.1887 -0.1543
  769PF6-    F414918   0.563   3.067  -0.027 -1.0660  0.2810 -0.5811
  769PF6-    F514919   0.362   2.976   0.204  0.2214  0.3452  0.0090
  769PF6-    F614920   0.492   3.158   0.186  0.0487  0.3253  0.1954
  769PF6-    F714921   0.420   2.896   0.004 -0.1219 -0.3534  0.3745
  770PF6-    P114922   4.611   2.507   4.860 -0.4487  0.2036  0.5061
  770PF6-    F214923   4.565   2.397   4.759 -0.0780 -0.4270  0.5420
  770PF6-    F314924   4.659   2.620   4.959  0.5318  0.1423 -0.0549
  770PF6-    F414925   4.688   2.595   4.747  0.4839  0.3590 -0.2978
  770PF6-    F514926   4.538   2.424   4.979 -0.3203 -0.0287 -0.3863
  770PF6-    F614927   4.745   2.428   4.893 -0.1758 -0.0841  0.3142
  770PF6-    F714928   4.465   2.584   4.838  0.5484  0.0033  0.5114
  771PF6-    P114929   3.094   2.851   0.467 -0.0210 -0.0726  0.1966
  771PF6-    F214930   3.215   2.944   0.513  0.7662 -0.6386  0.0229
  771PF6-    F314931   2.967   2.755   0.413 -0.2330  0.3617 -0.0757
  771PF6-    F414932   3.088   2.785   0.610  0.1824 -0.1990  0.1071
  771PF6-    F514933   3.099   2.923   0.320  0.1337 -0.1159 -0.5311
  771PF6-    F614934   3.201   2.739   0.421 -0.0848 -0.2207 -0.1021
  771PF6-    F714935   2.991   2.963   0.510  0.0233 -0.0347  0.0343
  772PF6-    P114936   0.780   2.256   5.404 -0.3760 -0.3188  0.5018
  772PF6-    F214937   0.935   2.274   5.446  0.5424 -0.0616  0.4762
  772PF6-    F314938   0.628   2.234   5.357 -0.2492  0.5469  0.3234
  772PF6-    F414939   0.736   2.398   5.464 -0.2355  0.1360  0.5335
  772PF6-    F514940   0.814   2.109   5.347 -0.4868 -0.1585 -0.1295
  772PF6-    F614941   0.746   2.186   5.545 -0.2661  0.4830  0.3652
  772PF6-    F714942   0.820   2.315   5.264  0.0185 -0.3386  0.0973
  773PF6-    P114943   0.015   0.270   2.320  0.1406 -0.0274  0.1068
  773PF6-    F214944   0.115   0.395   2.338 -0.3704  0.5304  0.0029
  773PF6-    F314945  -0.081   0.144   2.300  0.3897  0.1138  0.2771
  773PF6-    F414946   0.090   0.187   2.437  0.0762 -0.1660 -0.4456
  773PF6-    F514947  -0.060   0.355   2.206  0.1403 -0.3025  0.0047
  773PF6-    F614948   0.113   0.207   2.208  0.0795  0.1260  0.6213
  773PF6-    F714949  -0.090   0.332   2.426 -0.1441  0.1696 -0.2249
  774PF6-    P114950   1.814   1.652   1.574  0.2245  0.0496  0.0210
  774PF6-    F214951   1.848   1.746   1.698 -0.3115  0.1070 -0.2370
  774PF6-    F314952   1.774   1.559   1.443  0.3294 -0.6532 -0.4993
  774PF6-    F414953   1.922   1.723   1.485  0.4858 -0.2307 -0.2533
  774PF6-    F514954   1.697   1.578   1.662  0.1392 -0.1792  0.2688
  774PF6-    F614955   1.709   1.768   1.530  0.4361 -0.1158  0.3677
  774PF6-    F714956   1.921   1.542   1.617  0.3979  0.0470 -0.4044
  775PF6-    P114957   5.118   5.439   5.476  0.4350 -0.4206 -0.7931
  775PF6-    F214958   5.086   5.461   5.631  0.6169 -0.0072 -0.5193
  775PF6-    F314959   5.157   5.409   5.322  0.5198  0.3071 -0.1309
  775PF6-    F414960   5.167   5.595   5.460  0.2174 -0.0786  0.2892
  775PF6-    F514961   5.063   5.286   5.488 -0.1824 -0.1959  0.2862
  775PF6-    F614962   4.969   5.486   5.435 -0.1355 -0.1167  0.0574
  775PF6-    F714963   5.262   5.389   5.523  0.0508  0.2541  0.3833
  776PF6-    P114964   0.228   2.852   2.333  0.1901  0.1900 -0.0872
  776PF6-    F214965   0.228   2.760   2.199 -0.1188 -0.8684 -0.1842
  776PF6-    F314966   0.227   2.944   2.466  0.4919  0.2283 -0.3462
  776PF6-    F414967   0.150   2.741   2.412  0.2390 -0.9903 -0.2033
  776PF6-    F514968   0.307   2.971   2.257  0.2143  0.1839  0.4853
  776PF6-    F614969   0.089   2.909   2.285 -0.3504 -0.0955  0.3607
  776PF6-    F714970   0.367   2.789   2.378  0.2972 -0.2152  0.0610
  777PF6-    P114971   4.501   0.004   0.820 -0.2202  0.0763 -0.1570
  777PF6-    F214972   4.516  -0.110   0.930  0.3927  0.3275  0.0475
  777PF6-    F314973   4.493   0.125   0.713  0.6537 -0.2229 -0.1462
  777PF6-    F414974   4.546  -0.102   0.702 -0.4722 -0.6732  0.2051
  777PF6-    F514975   4.456   0.108   0.939  0.2487  0.3752 -0.3462
  777PF6-    F614976   4.656   0.038   0.842 -0.0429 -0.0247  0.3915
  777PF6-    F714977   4.345  -0.038   0.794 -0.1579  0.0538 -0.0255
  778PF6-    P114978   2.078   1.169   2.780  0.0303  0.2580 -0.2920
  778PF6-    F214979   2.066   1.013   2.787 -0.4401 -0.5809  0.2002
  778PF6-    F314980   2.091   1.327   2.779 -0.0223 -0.4767  0.2907
  778PF6-    F414981   1.992   1.187   2.644  0.3984  0.6528 -0.0908
  778PF6-    F514982   2.169   1.175   2.913  0.4269 -0.3260  0.5451
  778PF6-    F614983   2.210   1.159   2.689 -0.1891 -0.0060  0.0719
  778PF6-    F714984   1.947   1.170   2.864  0.5651  0.1733 -0.1958
  779PF6-    P114985   1.154   3.236   0.937 -0.2022  0.0217  0.1864
  779PF6-    F214986   1.139   3.189   0.785 -0.3251 -0.5099  0.2961
  779PF6-    F314987   1.176   3.288   1.087  0.3234 -0.4368  0.4185
  779PF6-    F414988   0.999   3.296   0.930 -0.3964 -0.5347 -0.3761
  779PF6-    F514989   1.304   3.180   0.933 -0.2268  0.2362  0.3440
  779PF6-    F614990   1.205   3.373   0.885  0.5458  0.3895 -0.4384
  779PF6-    F714991   1.093   3.097   0.989  0.2120 -0.2693 -0.5291
  780PF6-    P114992   2.246   1.311   5.482  0.0275  0.0888 -0.0134
  780PF6-    F214993   2.204   1.235   5.610  0.0588 -0.0563 -0.2795
  780PF6-    F314994   2.291   1.387   5.348  0.2006 -0.0778 -0.1556
  780PF6-    F414995   2.378   1.369   5.549 -0.1939 -0.3292  0.1038
  780PF6-    F514996   2.113   1.252   5.406  0.1123  0.4384 -0.2870
  780PF6-    F614997   2.164   1.438   5.534  0.4560 -0.0670  0.2128
  780PF6-    F714998   2.330   1.181   5.434 -0.1165 -0.5187 -0.0861
  781PF6-    P114999   1.130   3.957   4.718 -0.2025  0.0026 -0.1728
  781PF6-    F215000   1.223   3.852   4.798 -0.6949  0.2298  0.2416
  781PF6-    F315001   1.031   4.066   4.656  0.3164 -0.1783  0.3444
  781PF6-    F415002   1.002   3.902   4.798  0.1580  0.5455  0.0345
  781PF6-    F515003   1.253   4.007   4.639  0.1013 -0.9233  0.4749
  781PF6-    F615004   1.097   3.847   4.600 -0.8801 -0.3687 -0.2611
  781PF6-    F715005   1.167   4.065   4.835  0.1833  0.0674  0.0924
  782PF6-    P115006   0.435   2.198   4.370  0.6344  0.2595  0.1096
  782PF6-    F215007   0.360   2.151   4.501  0.0996  0.0114 -0.1682
  782PF6-    F315008   0.512   2.242   4.240 -0.4883  0.0028 -0.2637
  782PF6-    F415009   0.307   2.275   4.325 -0.2687 -0.0929  0.1307
  782PF6-    F515010   0.559   2.116   4.412  0.1436 -0.0225  0.4111
  782PF6-    F615011   0.378   2.064   4.297 -0.3478 -0.1604 -0.1215
  782PF6-    F715012   0.486   2.320   4.452  0.3725  0.4175  0.4072
  783PF6-    P115013   5.284   4.020   1.914  0.0990 -0.2391 -0.1929
  783PF6-    F215014   5.278   3.908   1.805  0.1848 -0.2527  0.1324
  783PF6-    F315015   5.287   4.137   2.022  0.4396  0.2368 -0.3708
  783PF6-    F415016   5.366   3.920   2.011 -0.1805  0.4163 -0.1956
  783PF6-    F515017   5.201   4.114   1.814 -0.4194  0.1359  0.1247
  783PF6-    F615018   5.144   3.972   1.972  0.1161  0.3829  0.0510
  783PF6-    F715019   5.428   4.071   1.857 -0.4131  0.6954 -0.2133
  784PF6-    P115020   1.586   4.143   1.284 -0.1845 -0.0649 -0.2111
  784PF6-    F215021   1.638   4.295   1.315 -0.2628  0.0442  0.5141
  784PF6-    F315022   1.527   3.999   1.248 -0.1281  0.1465  0.1627
  784PF6-    F415023   1.725   4.083   1.305 -0.6994  0.3289  0.1846
  784PF6-    F515024   1.440   4.210   1.264 -0.0888 -0.0044  0.4036
  784PF6-    F615025   1.612   4.164   1.129 -0.4160 -0.3736 -0.0155
  784PF6-    F715026   1.546   4.123   1.439  0.3629 -1.1355 -0.0916
  785PF6-    P115027   2.321   3.343   5.265  0.0464  0.0849  0.1388
  785PF6-    F215028   2.438   3.453   5.248  0.0915 -0.3817  0.3315
  785PF6-    F315029   2.210   3.229   5.270  0.2092 -0.1166 -0.2545
  785PF6-    F415030   2.307   3.367   5.417 -0.1870 -0.1202  0.2447
  785PF6-    F515031   2.323   3.319   5.106 -0.6883  0.2644 -0.0336
  785PF6-    F615032   2.432   3.233   5.294 -0.2372 -0.2104 -0.4680
  785PF6-    F715033   2.210   3.452   5.243  0.2893 -0.3668  0.0700
  786PF6-    P115034   2.344   4.842   4.638 -0.0582 -0.2036 -0.2521
  786PF6-    F215035   2.445   4.726   4.584 -0.1679 -0.5098 -0.8526
  786PF6-    F315036   2.246   4.963   4.686 -0.3102  0.1092  0.1346
  786PF6-    F415037   2.438   4.871   4.762 -0.1136  0.4744  0.0302
  786PF6-    F515038   2.255   4.822   4.504 -0.3984  0.4178  0.7984
  786PF6-    F615039   2.258   4.738   4.723 -0.2169  0.5758  1.3259
  786PF6-    F715040   2.428   4.949   4.550 -0.0964  0.6489  0.1610
  787PF6-    P115041   4.818   3.100   2.927  0.2028 -0.1071  0.0299
  787PF6-    F215042   4.775   3.014   3.056 -0.0884 -0.3535 -0.3641
  787PF6-    F315043   4.863   3.187   2.795 -0.1500 -0.1716 -0.3832
  787PF6-    F415044   4.679   3.070   2.855  0.0579  0.3069 -0.2297
  787PF6-    F515045   4.956   3.130   2.999 -0.1515 -0.2701 -0.0068
  787PF6-    F615046   4.887   2.971   2.858  0.3930  0.0975  0.2444
  787PF6-    F715047   4.756   3.237   2.990 -0.2148 -0.0496 -0.0110
  788PF6-    P115048   4.522   1.125   5.154 -0.1038 -0.0587 -0.1960
  788PF6-    F215049   4.374   1.123   5.099 -0.1837  0.5803 -0.4001
  788PF6-    F315050   4.678   1.144   5.191 -0.1907 -0.1096  0.0202
  788PF6-    F415051   4.511   0.989   5.227  0.5141  0.2550 -0.3502
  788PF6-    F515052   4.532   1.270   5.081  0.4746  0.0838 -0.0948
  788PF6-    F615053   4.471   1.196   5.291 -0.0328 -0.0084 -0.1982
  788PF6-    F715054   4.566   1.054   5.021 -0.0078  0.2709 -0.3467
  789PF6-    P115055   4.366   3.787   2.497 -0.3154  0.2818  0.1330
  789PF6-    F215056   4.392   3.643   2.571 -0.0782  0.7266 -0.2142
  789PF6-    F315057   4.335   3.922   2.416 -0.4370  0.6465 -0.5520
  789PF6-    F415058   4.336   3.708   2.360  0.5572 -0.0845 -0.2075
  789PF6-    F515059   4.399   3.868   2.627  0.4854  0.5558 -0.0023
  789PF6-    F615060   4.519   3.787   2.456  0.2884  0.0568 -0.1531
  789PF6-    F715061   4.205   3.779   2.534 -0.0139  0.0505  0.1053
  790PF6-    P115062   0.670   0.905   4.797  0.0113  0.1088  0.0801
  790PF6-    F215063   0.533   0.987   4.761 -0.4305  0.1425 -0.4843
  790PF6-    F315064   0.807   0.826   4.824 -0.3687  0.0498  0.6249
  790PF6-    F415065   0.584   0.774   4.831 -0.3179  0.3494  0.4626
  790PF6-    F515066   0.751   1.034   4.754  0.0366  0.3158 -0.3996
  790PF6-    F615067   0.660   0.957   4.945  0.2751  0.2744  0.4218
  790PF6-    F715068   0.685   0.838   4.648 -0.3036 -0.3715  0.3187
  791PF6-    P115069   2.793   2.915   1.321  0.6661 -0.0984 -0.2220
  791PF6-    F215070   2.811   2.863   1.474  0.4670  0.4599 -1.4307
  791PF6-    F315071   2.777   2.951   1.167 -0.2521 -0.2674  0.6688
  791PF6-    F415072   2.683   2.791   1.298 -0.1476 -0.1431  0.4385
  791PF6-    F515073   2.900   3.027   1.342  0.0760  0.3114  0.0634
  791PF6-    F615074   2.914   2.818   1.286  0.0786  0.0621 -0.1445
  791PF6-    F715075   2.678   3.017   1.370  0.3445 -0.0872 -0.3819
  792PF6-    P115076   3.239   1.147   0.952  0.2458 -0.1205  0.1586
  792PF6-    F215077   3.105   1.187   1.033 -0.7180 -0.1627 -0.2981
  792PF6-    F315078   3.370   1.099   0.864  0.0631  0.2000 -0.5360
  792PF6-    F415079   3.295   1.298   0.970 -0.0483 -0.2336  0.1156
  792PF6-    F515080   3.177   0.995   0.937 -0.3380  0.4941 -0.0864
  792PF6-    F615081   3.166   1.187   0.813 -0.4898 -0.2566 -0.3855
  792PF6-    F715082   3.312   1.107   1.093 -0.0938 -0.5361 -0.3335
  793PF6-    P115083   0.335   4.566   1.818 -0.2613 -0.3633  0.4440
  793PF6-    F215084   0.175   4.576   1.808 -0.0724 -0.1211  0.0375
  793PF6-    F315085   0.494   4.559   1.827  0.1377  0.0360  0.6592
  793PF6-    F415086   0.326   4.403   1.792  0.3503 -0.1368  0.1782
  793PF6-    F515087   0.341   4.725   1.839 -0.3575 -0.1108  0.3091
  793PF6-    F615088   0.330   4.544   1.975  0.4968  0.0523 -0.0515
  793PF6-    F715089   0.343   4.585   1.660 -0.3115  0.4328 -0.5007
  794PF6-    P115090   0.354   3.181   1.544 -0.0801  0.4262  0.0603
  794PF6-    F215091   0.260   3.066   1.603  0.4728 -0.2691  0.1073
  794PF6-    F315092   0.450   3.291   1.475  0.2704 -0.1202  0.8917
  794PF6-    F415093   0.466   3.130   1.644 -0.0477 -0.8182 -0.2970
  794PF6-    F515094   0.227   3.227   1.450 -0.5065 -0.0158 -0.3374
  794PF6-    F615095   0.306   3.282   1.654  0.2445  0.3280  0.0967
  794PF6-    F715096   0.403   3.083   1.427  0.2531  0.2088 -0.2842
  795PF6-    P115097   0.695   1.154   2.879 -0.3585  0.1568  0.0283
  795PF6-    F215098   0.676   1.176   2.719  0.0457  0.4858 -0.1844
  795PF6-    F315099   0.714   1.124   3.037 -0.4055 -0.2125 -0.2495
  795PF6-    F415100   0.753   1.007   2.841  0.1963 -0.3330 -0.2141
  795PF6-    F515101   0.632   1.296   2.913  0.0389 -0.2994 -0.2494
  795PF6-    F615102   0.551   1.097   2.886  0.3824 -0.1114  0.1982
  795PF6-    F715103   0.842   1.214   2.872  0.1995  0.1243  0.1987
  796PF6-    P115104   2.310   2.272   1.980  0.5334 -0.3873  0.0281
  796PF6-    F215105   2.232   2.402   1.942 -0.3805 -0.1531  0.3036
  796PF6-    F315106   2.380   2.138   2.020  0.0441 -0.0900 -0.2003
  796PF6-    F415107   2.439   2.359   2.010  0.2798  0.3100  0.3642
  796PF6-    F515108   2.183   2.191   1.947 -0.3202 -0.1215  0.3113
  796PF6-    F615109   2.354   2.259   1.830 -0.0118 -0.1211  0.1918
  796PF6-    F715110   2.256   2.289   2.128  0.0625 -0.3852 -0.2996
  797PF6-    P115111   4.023   4.677   5.438 -0.1168 -0.2450  0.3688
  797PF6-    F215112   4.181   4.710   5.448  0.0704  0.1989  0.3919
  797PF6-    F315113   3.866   4.642   5.432  0.7382  0.2962 -0.1157
  797PF6-    F415114   4.021   4.674   5.601  0.1887 -0.3891  0.0892
  797PF6-    F515115   4.031   4.684   5.276  0.1618  0.3011 -0.3195
  797PF6-    F615116   4.060   4.525   5.440 -0.4435  0.7361 -0.0975
  797PF6-    F715117   3.991   4.836   5.448 -0.5427  0.0163 -0.2025
  798PF6-    P115118   4.114   5.167   2.485  0.0324 -0.6620  0.0708
  798PF6-    F215119   4.180   5.296   2.564 -0.4067  0.0131  0.1617
  798PF6-    F315120   4.048   5.047   2.404  0.2453  0.1221 -0.3891
  798PF6-    F415121   4.266   5.129   2.433 -0.0180 -0.4852 -0.5382
  798PF6-    F515122   3.968   5.211   2.543 -0.2892 -0.4337 -0.1903
  798PF6-    F615123   4.091   5.264   2.353 -0.1226 -0.0967 -0.1940
  798PF6-    F715124   4.133   5.074   2.610 -0.5607 -0.2001  0.1397
  799PF6-    P115125   4.127   0.161   4.111 -0.0543 -0.1435 -0.0996
  799PF6-    F215126   4.084   0.309   4.090  0.4123  0.1252  0.0100
  799PF6-    F315127   4.174   0.008   4.136  0.6080  0.4403 -0.0291
  799PF6-    F415128   4.229   0.212   4.223  0.2511  0.3142 -0.1117
  799PF6-    F515129   4.026   0.117   3.996  0.6350 -0.8603 -0.0311
  799PF6-    F615130   4.244   0.176   4.001  0.2923 -0.2371  0.2321
  799PF6-    F715131   4.009   0.136   4.225 -0.2422  0.3993  0.4228
  800PF6-    P115132   3.656   4.348   4.522  0.0939  0.2863  0.3769
  800PF6-    F215133   3.598   4.218   4.444  0.4277  0.4162 -0.5186
  800PF6-    F315134   3.719   4.478   4.594 -0.0142  0.3711 -0.4671
  800PF6-    F415135   3.643   4.264   4.660 -0.0915 -0.2733 -0.2140
  800PF6-    F515136   3.673   4.424   4.382 -0.0639 -0.0757  0.3099
  800PF6-    F615137   3.509   4.396   4.540 -0.1653  0.0760 -0.0454
  800PF6-    F715138   3.808   4.292   4.503  0.3031  0.0365 -0.0818
  801PF6-    P115139   3.138   1.764   3.714  0.0729 -0.1777  0.0847
  801PF6-    F215140   3.250   1.718   3.818  0.2243  0.0102  0.3675
  801PF6-    F315141   3.028   1.814   3.606  0.1579 -0.2219 -0.3010
  801PF6-    F415142   3.078   1.608   3.710  0.0021 -0.3614 -0.1919
  801PF6-    F515143   3.192   1.913   3.731  0.3000  0.4358  0.6108
  801PF6-    F615144   3.240   1.739   3.600  0.0660  0.1090  0.9201
  801PF6-    F715145   3.033   1.792   3.836  0.7591  0.1066  0.0344
  802PF6-    P115146   4.511   3.342   3.877  0.1604  0.1212 -0.3629
  802PF6-    F215147   4.374   3.345   3.798 -0.0005 -0.2592  0.3330
  802PF6-    F315148   4.649   3.345   3.962 -0.4523  0.2597 -0.2695
  802PF6-    F415149   4.472   3.473   3.953  0.5176 -0.2431 -0.2156
  802PF6-    F515150   4.548   3.203   3.807 -0.1673 -0.2220 -0.1020
  802PF6-    F615151   4.576   3.435   3.766  0.0661  0.2749 -0.2252
  802PF6-    F715152   4.444   3.253   3.991  0.0756 -0.3155 -0.5046
  803PF6-    P115153   2.164   3.337   3.016  0.5705  0.5341  0.4402
  803PF6-    F215154   2.073   3.215   3.076 -0.2699  1.1198  0.4569
  803PF6-    F315155   2.249   3.458   2.963 -0.1410  0.6756 -0.4588
  803PF6-    F415156   2.099   3.325   2.873  0.1855  0.0047 -0.5183
  803PF6-    F515157   2.233   3.358   3.160  0.0002 -0.2569  0.2382
  803PF6-    F615158   2.272   3.227   2.977 -0.2341 -0.0506  0.2949
  803PF6-    F715159   2.047   3.439   3.057  0.0357  0.3857  0.1841
  804PF6-    P115160   1.683   2.287   4.732  0.4135  0.5885  0.5185
  804PF6-    F215161   1.591   2.154   4.742 -0.1028 -0.9383  0.1942
  804PF6-    F315162   1.772   2.417   4.721 -0.1005  0.3481 -0.0555
  804PF6-    F415163   1.762   2.248   4.865  0.1010 -0.0124 -0.5943
  804PF6-    F515164   1.606   2.335   4.604 -0.3229  0.1087  0.0076
  804PF6-    F615165   1.571   2.371   4.814  0.5679  0.6336 -0.6436
  804PF6-    F715166   1.783   2.205   4.646  0.7710 -0.0748  0.2650
  805PF6-    P115167   4.303   0.347   1.830 -0.6613  0.3251 -0.4986
  805PF6-    F215168   4.401   0.235   1.896  0.0371 -0.2956  0.3415
  805PF6-    F315169   4.208   0.460   1.770  0.0251  0.3637  0.2036
  805PF6-    F415170   4.427   0.426   1.766  0.3752 -0.1843  0.5706
  805PF6-    F515171   4.176   0.266   1.885  0.5219 -0.4844  0.3811
  805PF6-    F615172   4.310   0.431   1.967 -0.5031  0.4030  0.8354
  805PF6-    F715173   4.294   0.265   1.697  0.0472  0.2198  0.0679
  806PF6-    P115174   5.213   2.394   0.655  0.3018 -0.2854 -0.3729
  806PF6-    F215175   5.171   2.412   0.806  0.3050 -0.1227 -0.1958
  806PF6-    F315176   5.247   2.390   0.500  0.4047  0.3567 -0.2290
  806PF6-    F415177   5.284   2.534   0.662 -0.3064  0.0589  0.6632
  806PF6-    F515178   5.147   2.248   0.655  0.5742  0.3822  0.1581
  806PF6-    F615179   5.075   2.466   0.614 -0.4444  0.3065 -0.3655
  806PF6-    F715180   5.355   2.324   0.686  0.3784 -0.2969 -0.0871
  807PF6-    P115181   0.944   2.162   0.863 -0.0438 -0.1187  0.1421
  807PF6-    F215182   1.038   2.164   0.990  0.0956 -0.2711  0.0526
  807PF6-    F315183   0.848   2.164   0.732  0.1577  0.4599  0.3644
  807PF6-    F415184   0.995   2.313   0.828 -0.5048 -0.0670 -0.1090
  807PF6-    F515185   0.903   2.013   0.897 -0.0811 -0.1342 -0.1018
  807PF6-    F615186   0.818   2.214   0.957 -0.0409 -0.2145  0.5041
  807PF6-    F715187   1.075   2.112   0.775  0.7368 -0.1675 -0.6363
  808PF6-    P115188   4.713   4.435   0.915  0.3531 -0.4142 -0.8252
  808PF6-    F215189   4.585   4.344   0.930  0.1538  0.5935  0.2829
  808PF6-    F315190   4.839   4.533   0.907  0.3427  0.3128  0.5544
  808PF6-    F415191   4.787   4.349   1.030 -0.0623  0.0179 -0.0054
  808PF6-    F515192   4.638   4.524   0.801 -0.1054 -0.4966 -0.0226
  808PF6-    F615193   4.648   4.532   1.019 -0.0116  0.2209  0.1144
  808PF6-    F715194   4.769   4.342   0.800 -0.1251 -0.3458 -0.1154
  809PF6-    P115195   2.021   4.752   2.381  0.1905  0.3738 -0.0507
  809PF6-    F215196   1.870   4.782   2.343 -0.0597 -0.5313  0.1656
  809PF6-    F315197   2.169   4.717   2.422  0.7190  0.1962  0.0789
  809PF6-    F415198   1.981   4.783   2.532  0.0869  0.3591  0.6210
  809PF6-    F515199   2.053   4.730   2.222 -0.3928  0.1848  0.2186
  809PF6-    F615200   2.061   4.910   2.361  0.4473  0.4395 -0.5165
  809PF6-    F715201   1.974   4.594   2.418  0.2703  0.1627 -0.1735
  810PF6-    P115202   1.576   0.804   4.742 -0.0305  0.1896  0.2185
  810PF6-    F215203   1.550   0.880   4.878  0.2305  0.2948  0.2870
  810PF6-    F315204   1.599   0.708   4.613  0.0962 -0.7667 -0.4465
  810PF6-    F415205   1.417   0.776   4.730 -0.0002  0.1606  0.5412
  810PF6-    F515206   1.736   0.837   4.752 -0.3513 -0.0942  0.3947
  810PF6-    F615207   1.592   0.673   4.830  0.6840  0.2415 -0.5440
  810PF6-    F715208   1.560   0.932   4.652 -0.3698 -0.1650  0.0582
  811PF6-    P115209   5.308   3.404   3.810  0.0244  0.1532  0.1303
  811PF6-    F215210   5.328   3.456   3.665  0.3090 -0.0684  0.4979
  811PF6-    F315211   5.284   3.360   3.959 -0.0744  0.5141  0.0515
  811PF6-    F415212   5.153   3.450   3.801 -0.1871  0.1556  0.1395
  811PF6-    F515213   5.457   3.349   3.818 -0.1863  0.3749 -0.8261
  811PF6-    F615214   5.342   3.548   3.866  0.1308 -0.0656 -0.5175
  811PF6-    F715215   5.267   3.263   3.750  0.1639  0.2946  0.4153
  812PF6-    P115216   1.077   3.797   2.103 -0.1254 -0.0802  0.1133
  812PF6-    F215217   1.024   3.950   2.111  0.0296  0.1923  0.5535
  812PF6-    F315218   1.122   3.644   2.093  0.1526 -0.6225  0.3446
  812PF6-    F415219   0.937   3.757   2.036  0.0843 -0.2431 -0.0576
  812PF6-    F515220   1.215   3.845   2.168  0.0484  0.0124  0.2167
  812PF6-    F615221   1.018   3.769   2.249  0.1839  0.2106 -0.0249
  812PF6-    F715222   1.133   3.826   1.956 -0.1256  0.0582  0.5478
  813PF6-    P115223   5.181   2.708   1.584  0.7352 -0.0449  0.0612
  813PF6-    F215224   5.192   2.812   1.467  0.1968  0.1979 -0.3740
  813PF6-    F315225   5.170   2.599   1.703  0.1084  0.1343 -0.1761
  813PF6-    F415226   5.028   2.688   1.547  0.0804  0.4948  0.2226
  813PF6-    F515227   5.328   2.739   1.625 -0.4141 -0.2309  0.9053
  813PF6-    F615228   5.133   2.823   1.682  0.4350  0.2990  0.5392
  813PF6-    F715229   5.231   2.594   1.493  1.0559  0.0399  0.6164
  814PF6-    P115230   4.141   1.597   4.364 -0.2613 -0.2110  0.5170
  814PF6-    F215231   4.186   1.442   4.353  0.4346 -0.3163  0.1283
  814PF6-    F315232   4.094   1.751   4.378 -0.3179 -0.1594  0.6317
  814PF6-    F415233   4.229   1.605   4.506  0.1202  0.5154  0.4314
  814PF6-    F515234   4.059   1.581   4.228 -0.7117  0.2645 -0.5641
  814PF6-    F615235   4.016   1.548   4.448  0.4623  0.4084 -0.4985
  814PF6-    F715236   4.270   1.647   4.275  0.8518 -0.0083 -0.2353
  815PF6-    P115237   2.878   1.553   2.619 -0.0962  0.2589 -0.3573
  815PF6-    F215238   2.970   1.469   2.523  0.3658 -0.4692  0.3083
  815PF6-    F315239   2.794   1.646   2.719 -0.9223  0.0908 -0.1505
  815PF6-    F415240   2.914   1.684   2.534 -0.1395  0.5906  0.0505
  815PF6-    F515241   2.852   1.420   2.697 -0.5007 -0.2351  0.3536
  815PF6-    F615242   3.009   1.581   2.708 -0.0023  0.6151  0.4563
  815PF6-    F715243   2.748   1.519   2.526  0.2431  0.0641 -0.0459
  816PF6-    P115244   2.320   2.191   0.434  0.2121  0.0969  0.2908
  816PF6-    F215245   2.251   2.319   0.373  0.5802 -0.6481 -0.3841
  816PF6-    F315246   2.400   2.069   0.489 -0.6772  0.6867  0.5323
  816PF6-    F415247   2.186   2.100   0.411 -0.5292 -0.5440  0.2472
  816PF6-    F515248   2.458   2.278   0.451 -0.2418  0.1957  0.1444
  816PF6-    F615249   2.276   2.234   0.579  0.1413  0.0285 -0.4771
  816PF6-    F715250   2.373   2.151   0.286  0.2350  0.0441  0.1842
  817PF6-    P115251   0.715   4.422   4.174 -0.1569 -0.2794  0.4043
  817PF6-    F215252   0.845   4.509   4.206 -0.7250 -0.5957 -0.6001
  817PF6-    F315253   0.581   4.339   4.136 -0.2208  0.4192  0.0052
  817PF6-    F415254   0.629   4.559   4.170  0.1358 -0.2832  0.6118
  817PF6-    F515255   0.798   4.288   4.176  0.3644  0.0513 -0.0032
  817PF6-    F615256   0.683   4.405   4.328 -0.1191  0.2610 -0.8034
  817PF6-    F715257   0.741   4.429   4.020 -0.3958 -0.6037  0.1787
  818PF6-    P115258   3.102   2.011   0.290  0.0198 -0.0198 -0.4097
  818PF6-    F215259   3.122   1.932   0.426  0.2749  0.5517  0.0099
  818PF6-    F315260   3.102   2.094   0.156  0.4827  0.5199  0.3786
  818PF6-    F415261   3.205   2.117   0.350  0.5753 -0.2661 -0.4175
  818PF6-    F515262   3.001   1.898   0.232 -0.2292  0.2553 -0.4392
  818PF6-    F615263   2.976   2.095   0.353  0.0716  0.3849  0.4453
  818PF6-    F715264   3.217   1.926   0.226 -0.1237  0.1138  0.1364
  819PF6-    P115265   3.190   2.474   1.442 -0.3778 -0.2707 -0.0714
  819PF6-    F215266   3.326   2.497   1.358 -0.0945  0.1603  0.1159
  819PF6-    F315267   3.057   2.445   1.525 -0.2155 -0.2954  0.1821
  819PF6-    F415268   3.153   2.627   1.426  0.7725  0.0808  0.2876
  819PF6-    F515269   3.238   2.318   1.456  0.2406  0.0770 -0.4189
  819PF6-    F615270   3.264   2.509   1.577 -0.4211  0.0347 -0.0430
  819PF6-    F715271   3.119   2.438   1.306  0.4618  0.0594 -0.1511
  820PF6-    P115272   5.284   4.481   5.044 -0.5119 -0.5420  0.2912
  820PF6-    F215273   5.298   4.525   4.890 -0.2590 -0.3706  0.3384
  820PF6-    F315274   5.279   4.434   5.195 -0.4493  0.0232 -0.1911
  820PF6-    F415275   5.363   4.351   4.997  0.4970 -0.4711 -0.1037
  820PF6-    F515276   5.210   4.618   5.080 -0.5392  0.0453  0.1183
  820PF6-    F615277   5.142   4.406   5.015  0.4464  0.2763 -0.0314
  820PF6-    F715278   5.425   4.551   5.073 -0.3590 -0.3240  0.1322
  821PF6-    P115279   2.796   0.395   3.346 -0.0378 -0.3193 -0.1920
  821PF6-    F215280   2.674   0.307   3.290  0.2134 -0.5797  0.6236
  821PF6-    F315281   2.924   0.480   3.407  0.0032 -0.1627 -0.1844
  821PF6-    F415282   2.699   0.449   3.461  0.2242 -0.0929  0.5981
  821PF6-    F515283   2.886   0.346   3.228  0.4070  0.2141  0.2811
  821PF6-    F615284   2.742   0.515   3.253 -0.0456  0.2944 -0.4623
  821PF6-    F715285   2.844   0.273   3.436  0.0971 -0.0150 -0.8975
  822PF6-    P115286   4.255   3.685   5.100 -0.1056 -0.4065 -0.3986
  822PF6-    F215287   4.270   3.805   5.208  0.3549 -0.4153 -0.4809
  822PF6-    F315288   4.227   3.564   5.000 -0.5244  0.0655  0.1065
  822PF6-    F415289   4.409   3.635   5.120  0.2559 -0.3134  0.1292
  822PF6-    F515290   4.099   3.736   5.075  0.0168  0.3266 -0.2586
  822PF6-    F615291   4.310   3.780   4.978 -0.0626 -0.0793 -0.1541
  822PF6-    F715292   4.206   3.590   5.221  0.5057 -0.2648 -0.2154
  823PF6-    P115293   2.707   4.259   0.335  0.1740  0.3031 -0.0250
  823PF6-    F215294   2.571   4.219   0.411  0.5931  0.4060 -0.8158
  823PF6-    F315295   2.842   4.302   0.262  0.0082 -0.1456  0.1630
  823PF6-    F415296   2.697   4.408   0.401  0.1299 -0.5667 -0.2009
  823PF6-    F515297   2.718   4.113   0.274  0.0137 -0.2153  0.0564
  823PF6-    F615298   2.616   4.311   0.208 -0.4351 -0.2881  0.0579
  823PF6-    F715299   2.789   4.217   0.465 -0.1447 -0.1019  0.2881
  824PF6-    P115300   3.671   3.106   3.991  0.0538 -0.1464  0.2589
  824PF6-    F215301   3.799   3.032   3.921 -0.3915 -0.2073 -0.5308
  824PF6-    F315302   3.547   3.187   4.055  0.6556  0.2308  0.2758
  824PF6-    F415303   3.569   2.989   3.938 -0.1291 -0.5190 -0.4211
  824PF6-    F515304   3.771   3.222   4.047  0.1055 -0.2070 -0.2494
  824PF6-    F615305   3.643   3.190   3.850 -0.1608 -0.0351 -0.3228
  824PF6-    F715306   3.700   3.032   4.128  0.3680 -0.3728  0.3459
  825PF6-    P115307   4.996   0.632   1.411  0.9043 -0.0263 -0.1918
  825PF6-    F215308   4.862   0.536   1.415  0.4629 -0.0018 -0.2430
  825PF6-    F315309   5.129   0.725   1.418  0.1998  0.1846 -0.2596
  825PF6-    F415310   4.944   0.710   1.539  0.6933 -0.0860  0.0090
  825PF6-    F515311   5.055   0.558   1.283  0.1741  0.4575 -0.3208
  825PF6-    F615312   4.920   0.734   1.315  0.2823 -0.6318 -0.5770
  825PF6-    F715313   5.075   0.528   1.508 -0.6069  0.2413  0.2334
  826PF6-    P115314   3.036   0.716   4.606  0.2443  0.2214  0.2982
  826PF6-    F215315   2.896   0.795   4.594 -0.2151  0.4040  0.5249
  826PF6-    F315316   3.176   0.638   4.622  0.6353  0.1921  0.0013
  826PF6-    F415317   3.100   0.845   4.678  0.2040  0.1081  0.5094
  826PF6-    F515318   2.975   0.587   4.539 -0.2784 -0.1657 -0.3283
  826PF6-    F615319   3.082   0.770   4.461  0.0966  0.3349  0.1043
  826PF6-    F715320   2.992   0.668   4.754 -0.1202 -0.5485  0.5552
  827PF6-    P115321   4.135   2.512   1.442  0.1845 -0.3505  0.1790
  827PF6-    F215322   4.209   2.375   1.481  0.2369  0.3937 -0.5416
  827PF6-    F315323   4.060   2.649   1.393 -0.1630  0.0752  0.6097
  827PF6-    F415324   3.987   2.454   1.479 -0.0076  0.8624 -0.3340
  827PF6-    F515325   4.277   2.582   1.396 -0.0118  0.5320 -0.2102
  827PF6-    F615326   4.113   2.469   1.289  0.2072 -0.0181 -0.2170
  827PF6-    F715327   4.157   2.565   1.589 -0.0860  0.3957 -0.1796
  828PF6-    P115328   1.009   1.805   4.630 -0.2015 -0.4197  0.4841
  828PF6-    F215329   1.027   1.700   4.511 -0.4294  0.1534  0.2514
  828PF6-    F315330   0.991   1.905   4.753  0.0610 -0.1456 -0.3550
  828PF6-    F415331   0.966   1.685   4.724  0.3389 -0.1559 -0.0011
  828PF6-    F515332   1.048   1.932   4.533 -0.4816 -0.2752 -0.0414
  828PF6-    F615333   0.854   1.822   4.594  0.0563  0.0262  0.4925
  828PF6-    F715334   1.159   1.785   4.671 -0.2486  0.4747 -0.0283
  829PF6-    P115335   2.020   3.695   4.572  0.0592  0.0654 -0.1881
  829PF6-    F215336   1.876   3.720   4.645 -0.3697 -0.1689 -0.0443
  829PF6-    F315337   2.162   3.670   4.506  0.1984  0.4257  0.1155
  829PF6-    F415338   1.995   3.537   4.581  0.1848  0.2966 -0.4425
  829PF6-    F515339   2.043   3.856   4.560 -0.1805 -0.7500  0.1658
  829PF6-    F615340   2.091   3.680   4.711 -0.3096  0.1500 -0.4695
  829PF6-    F715341   1.953   3.706   4.430 -0.5420 -0.1014 -0.1715
  830PF6-    P115342   2.633   0.444   0.076  0.2955 -0.0171  0.3828
  830PF6-    F215343   2.713   0.418   0.206  0.3538 -0.1084  0.1638
  830PF6-    F315344   2.569   0.469  -0.069  0.0739  0.1190  0.1509
  830PF6-    F415345   2.768   0.406  -0.008  0.5642 -0.1433 -0.4549
  830PF6-    F515346   2.501   0.492   0.149 -0.3283 -0.1699  0.1092
  830PF6-    F615347   2.684   0.597   0.073  0.1883 -0.4907 -0.0383
  830PF6-    F715348   2.572   0.295   0.080 -0.4282 -0.0069 -0.6389
  831PF6-    P115349   4.762   1.691   2.006 -0.0404 -0.2168  0.1432
  831PF6-    F215350   4.601   1.701   1.998  0.0466 -0.5610  0.1515
  831PF6-    F315351   4.918   1.684   2.014  0.2188 -0.2441 -0.1774
  831PF6-    F415352   4.760   1.827   2.098 -0.2343 -0.1671  0.2206
  831PF6-    F515353   4.762   1.557   1.922 -0.2218  0.0373 -0.2668
  831PF6-    F615354   4.774   1.780   1.871  0.5381 -0.0448 -0.3253
  831PF6-    F715355   4.754   1.598   2.132 -0.5285  0.4663  0.1422
  832PF6-    P115356   0.408   1.587   1.428 -0.1886  0.4485 -0.0349
  832PF6-    F215357   0.269   1.640   1.478  0.2742  0.4682 -0.1915
  832PF6-    F315358   0.548   1.535   1.376  0.5639 -0.2592  0.7145
  832PF6-    F415359   0.410   1.493   1.557 -0.3270  0.3323  0.1614
  832PF6-    F515360   0.403   1.682   1.303  0.1616 -0.2431 -0.2862
  832PF6-    F615361   0.479   1.700   1.511 -0.1015  0.0607 -0.1947
  832PF6-    F715362   0.344   1.462   1.346  0.4059  0.0763  0.3209
  833PF6-    P115363   5.432   1.510   2.767 -0.4301  0.1065  0.0044
  833PF6-    F215364   5.307   1.519   2.868  0.1918  0.4851  0.0862
  833PF6-    F315365   5.564   1.505   2.676  0.0995  0.0810 -0.4425
  833PF6-    F415366   5.522   1.558   2.890 -0.2764  0.1290  0.4047
  833PF6-    F515367   5.335   1.456   2.650  0.0724 -0.2895  0.3792
  833PF6-    F615368   5.421   1.665   2.719  0.6410 -0.0840  0.0103
  833PF6-    F715369   5.456   1.358   2.805 -0.2705 -0.2950 -0.3491
  834PF6-    P115370   0.388   0.422   1.526 -0.4685 -0.0432  0.1728
  834PF6-    F215371   0.516   0.394   1.615  0.0787  0.6959 -0.5027
  834PF6-    F315372   0.255   0.447   1.438  0.4437 -0.4123 -0.4979
  834PF6-    F415373   0.300   0.427   1.660 -0.1142  0.0759  0.2185
  834PF6-    F515374   0.483   0.421   1.399  0.0283 -0.4054 -0.6298
  834PF6-    F615375   0.372   0.266   1.503  0.0597  0.1048  0.0325
  834PF6-    F715376   0.417   0.576   1.539 -0.6558 -0.0908  0.0294
  835PF6-    P115377   4.614   1.107   2.833  0.1876  0.0137  0.2136
  835PF6-    F215378   4.482   1.140   2.918  0.4918 -0.3985 -0.0695
  835PF6-    F315379   4.746   1.060   2.755  0.2126 -0.3289 -0.1108
  835PF6-    F415380   4.605   0.960   2.894 -0.1542 -0.6718 -0.3661
  835PF6-    F515381   4.623   1.259   2.775 -0.7240 -0.6809 -0.0073
  835PF6-    F615382   4.707   1.156   2.955  0.0971 -0.4143  0.5232
  835PF6-    F715383   4.518   1.063   2.708  0.2224  0.6778  0.1257
  836PF6-    P115384   3.614   3.277   0.610 -0.0256  0.2572 -0.4744
  836PF6-    F215385   3.575   3.428   0.609  0.1118  0.1630 -0.2720
  836PF6-    F315386   3.643   3.118   0.611 -0.1874 -0.2216 -0.2824
  836PF6-    F415387   3.767   3.321   0.588 -0.6645  0.0075 -0.5729
  836PF6-    F515388   3.460   3.239   0.632  0.2087 -0.1151  0.0684
  836PF6-    F615389   3.593   3.270   0.454 -0.0435 -0.6377  0.1518
  836PF6-    F715390   3.637   3.285   0.771  0.4237  0.2363 -0.2343
  837PF6-    P115391   5.238   2.191   3.816  0.3240  0.0012 -0.1241
  837PF6-    F215392   5.400   2.170   3.836  0.1297  0.5755 -0.1934
  837PF6-    F315393   5.082   2.218   3.796  0.1557 -0.0175 -0.4921
  837PF6-    F415394   5.210   2.210   3.979 -0.0126  0.0335 -0.0287
  837PF6-    F515395   5.261   2.172   3.659  0.1437  0.0156  0.2947
  837PF6-    F615396   5.212   2.034   3.838 -0.4016  0.0192  0.0024
  837PF6-    F715397   5.260   2.353   3.802  0.1025 -0.0722 -0.5758
  838PF6-    P115398   4.364   2.731   0.627  0.3982 -0.0376  0.1123
  838PF6-    F215399   4.401   2.831   0.744 -0.4072 -0.2809  0.2954
  838PF6-    F315400   4.323   2.635   0.508 -0.1774  0.0345  0.0682
  838PF6-    F415401   4.288   2.851   0.551 -0.2747  0.4265  0.1269
  838PF6-    F515402   4.439   2.610   0.699  0.1712 -0.3178 -0.0979
  838PF6-    F615403   4.225   2.694   0.698  0.8556 -0.1717  0.2750
  838PF6-    F715404   4.502   2.764   0.552 -0.0771  0.1879 -0.3859
  839PF6-    P115405   3.398   0.255   2.640  0.2799  0.2234  0.3513
  839PF6-    F215406   3.335   0.149   2.738 -0.3946  0.1799  0.4362
  839PF6-    F315407   3.457   0.366   2.535  0.0258  0.0889  0.2092
  839PF6-    F415408   3.503   0.149   2.582 -0.5257 -0.1264 -0.3429
  839PF6-    F515409   3.295   0.372   2.698 -0.5473  0.2684  0.0402
  839PF6-    F615410   3.505   0.301   2.750 -0.3743 -0.1327  0.2801
  839PF6-    F715411   3.291   0.204   2.531  0.3293  0.1500 -0.0327
  840PF6-    P115412   4.246   1.865   0.869  0.3113  0.0526  0.1163
  840PF6-    F215413   4.251   1.855   1.028 -0.3405  1.0175  0.1302
  840PF6-    F315414   4.247   1.881   0.706 -0.2113  0.0701 -0.0417
  840PF6-    F415415   4.150   1.740   0.862 -0.2038  0.4265 -0.7864
  840PF6-    F515416   4.350   1.987   0.880  0.1428 -0.4848 -0.2991
  840PF6-    F615417   4.377   1.769   0.855 -0.2535 -0.0792  0.5072
  840PF6-    F715418   4.122   1.966   0.878  0.2875  0.5786  0.4988
  841PF6-    P115419   2.329   2.026   3.109  0.1581 -0.5900  0.1877
  841PF6-    F215420   2.463   1.950   3.074  0.1617  0.3809  0.3851
  841PF6-    F315421   2.195   2.116   3.129  0.3404 -0.3936 -0.0502
  841PF6-    F415422   2.411   2.164   3.080 -0.0644 -0.7087  0.1980
  841PF6-    F515423   2.246   1.890   3.133 -0.5099 -0.0344 -0.1998
  841PF6-    F615424   2.371   2.034   3.264  0.1716  0.6282 -0.5369
  841PF6-    F715425   2.297   2.025   2.949 -0.1623  0.0942 -0.3452
  842PF6-    P115426   5.058   3.821   4.570 -0.4235  0.5062  0.2161
  842PF6-    F215427   5.075   3.966   4.641  0.1845 -0.6879 -0.2384
  842PF6-    F315428   5.038   3.679   4.497  0.1181 -0.1658 -0.5446
  842PF6-    F415429   5.160   3.752   4.680 -0.1930  0.4708  0.4973
  842PF6-    F515430   4.965   3.894   4.457  0.3926 -0.0513  0.0195
  842PF6-    F615431   5.192   3.847   4.479 -0.3352 -0.6756 -0.0286
  842PF6-    F715432   4.931   3.792   4.661 -1.1703  0.4771 -0.1797
  843PF6-    P115433   2.671   4.111   1.230 -0.3994  0.7164  0.1852
  843PF6-    F215434   2.703   3.965   1.292  0.0910 -0.9320  0.5171
  843PF6-    F315435   2.646   4.258   1.171  0.1171  0.9573  0.3409
  843PF6-    F415436   2.716   4.052   1.086  0.0022  0.5909 -0.5493
  843PF6-    F515437   2.628   4.166   1.377  0.0344 -0.5373 -0.0036
  843PF6-    F615438   2.827   4.146   1.256 -0.0427 -0.4045 -0.4780
  843PF6-    F715439   2.518   4.075   1.196  0.3993  0.2786 -0.2564
  844PF6-    P115440   3.094   1.356   5.091 -0.1905 -0.0414  0.6893
  844PF6-    F215441   2.937   1.402   5.094 -0.5472  0.3088  0.2238
  844PF6-    F315442   3.248   1.307   5.078  0.2049  0.1017  0.2871
  844PF6-    F415443   3.106   1.363   5.250  0.4501 -0.1951  0.2129
  844PF6-    F515444   3.079   1.346   4.933  0.3024  0.0917  0.6580
  844PF6-    F615445   3.137   1.511   5.074  0.0849  0.6627  0.1139
  844PF6-    F715446   3.045   1.204   5.097  0.6873  0.4280  0.2067
  845PF6-    P115447   4.483   4.905   4.406  0.2343  0.2227  0.2056
  845PF6-    F215448   4.519   5.059   4.432  0.0559  0.3366 -0.6626
  845PF6-    F315449   4.448   4.747   4.386 -0.0456 -0.1213  0.1239
  845PF6-    F415450   4.421   4.900   4.557 -0.6544  0.5414 -0.4511
  845PF6-    F515451   4.528   4.915   4.252 -0.5215 -0.2644  0.1328
  845PF6-    F615452   4.634   4.865   4.459 -0.2712  0.1328  0.7047
  845PF6-    F715453   4.338   4.946   4.359  0.0218  0.4583 -0.2874
  846PF6-    P115454   1.651   2.545   0.297 -0.2090 -0.3430  0.1828
  846PF6-    F215455   1.596   2.581   0.155  0.7870  0.1907  0.3015
  846PF6-    F315456   1.714   2.514   0.438  0.2272 -0.4759 -0.0015
  846PF6-    F415457   1.738   2.675   0.293 -0.6015 -0.4282 -0.2017
  846PF6-    F515458   1.562   2.418   0.311 -0.1485 -0.3207  0.3198
  846PF6-    F615459   1.770   2.462   0.231 -0.5824  0.5195  0.4908
  846PF6-    F715460   1.529   2.628   0.363 -0.6907 -0.0713 -0.3028
  847PF6-    P115461   1.561   4.480   0.347  0.1691  0.0395  0.0556
  847PF6-    F215462   1.457   4.603   0.376 -0.0285 -0.5023  0.2343
  847PF6-    F315463   1.667   4.360   0.322 -0.5610 -0.2647 -0.4613
  847PF6-    F415464   1.468   4.427   0.233  0.4739 -0.6463 -0.1012
  847PF6-    F515465   1.658   4.540   0.463 -0.0265  0.4122  0.0288
  847PF6-    F615466   1.484   4.395   0.449  0.3657  0.9493 -0.2009
  847PF6-    F715467   1.636   4.567   0.241 -0.6242 -0.3421  0.1496
  848PF6-    P115468   1.023   0.201   3.591 -0.2694 -0.2556  0.3215
  848PF6-    F215469   1.167   0.184   3.525  0.3192  0.1349  0.1213
  848PF6-    F315470   0.872   0.213   3.655 -0.3656  0.0966  0.0767
  848PF6-    F415471   1.054   0.351   3.640 -0.1758 -0.1172  0.3851
  848PF6-    F515472   0.987   0.052   3.548  0.2719  0.3412  0.7583
  848PF6-    F615473   1.084   0.147   3.734 -0.3011  0.0908  0.3794
  848PF6-    F715474   0.977   0.264   3.447 -0.4585 -0.0259  0.0666
  849PF6-    P115475   3.666   2.081   2.602 -0.1511 -0.1395  0.3568
  849PF6-    F215476   3.567   1.982   2.528 -0.3410  0.0144 -0.0338
  849PF6-    F315477   3.761   2.187   2.677 -0.0775  0.2074 -0.2811
  849PF6-    F415478   3.779   2.063   2.491 -0.4515 -0.1540  0.6862
  849PF6-    F515479   3.558   2.096   2.721 -0.4192  0.2629  0.2832
  849PF6-    F615480   3.726   1.961   2.686 -0.1170  0.1852  0.3844
  849PF6-    F715481   3.601   2.213   2.525  0.0476  0.3591  0.1939
  850PF6-    P115482   3.852   0.121   0.640 -0.0896 -0.4968 -0.6875
  850PF6-    F215483   3.708   0.202   0.655 -0.1414  0.0767 -0.2576
  850PF6-    F315484   3.988   0.044   0.628 -0.0637 -0.4558 -0.0289
  850PF6-    F415485   3.781  -0.001   0.567  0.2567  0.8274  0.2785
  850PF6-    F515486   3.930   0.243   0.720 -0.3150  0.3712 -0.7405
  850PF6-    F615487   3.826   0.051   0.781  0.4927  0.0442 -0.2804
  850PF6-    F715488   3.884   0.197   0.496  0.6856  0.4815 -0.0928
  851PF6-    P115489   5.456   1.741   5.138  0.0977  0.3870 -0.4946
  851PF6-    F215490   5.337   1.669   5.211  0.0501 -0.3606 -0.4866
  851PF6-    F315491   5.574   1.820   5.068  0.5800 -0.0191 -0.3608
  851PF6-    F415492   5.541   1.607   5.133  0.2953 -0.5973  0.2478
  851PF6-    F515493   5.366   1.876   5.129  0.1407  0.0537 -0.0272
  851PF6-    F615494   5.514   1.785   5.281 -0.2141  0.0432 -0.2302
  851PF6-    F715495   5.403   1.703   4.992  0.1114  0.3479  0.1021
  852PF6-    P115496   0.157   3.942   0.858 -0.1937 -0.0679  0.0423
  852PF6-    F215497   0.160   4.080   0.770  0.2395  0.3428  0.2148
  852PF6-    F315498   0.148   3.801   0.937 -0.2012  0.3134  0.3956
  852PF6-    F415499   0.048   3.878   0.762  0.2722  0.0070 -0.1284
  852PF6-    F515500   0.267   4.002   0.961  0.0304  0.2290  0.1215
  852PF6-    F615501   0.033   4.002   0.948 -0.0891  0.4687  0.1748
  852PF6-    F715502   0.276   3.888   0.770 -0.2176  0.1687 -0.0257
  853PF6-    P115503   0.911   0.122   4.612 -0.3176  0.1358 -0.3081
  853PF6-    F215504   0.868   0.262   4.677  0.6782  0.4390 -0.0931
  853PF6-    F315505   0.963  -0.016   4.555  0.7076 -0.4499 -0.3268
  853PF6-    F415506   0.937   0.187   4.468 -0.0741  0.6311 -0.2307
  853PF6-    F515507   0.897   0.051   4.756 -0.1126  0.5035 -0.4948
  853PF6-    F615508   0.763   0.076   4.573  0.6996 -0.1478 -0.0814
  853PF6-    F715509   1.063   0.164   4.648 -0.1945  0.4124  0.0188
  854Na+     N115510   4.015   3.728   4.310  0.6480  0.0819  0.2851
  855Na+     N115511   0.843   4.539   0.027  0.0139 -0.5564 -0.4694
  856Na+     N115512   3.183   3.829   0.937 -0.3779 -0.0176 -0.0243
  857Na+     N115513   3.189   4.019   4.018  0.1043  0.1363 -0.0274
  858Na+     N115514   4.627   3.201   4.593  0.1106  0.2119  0.1323
  859Na+     N115515   4.150   4.360   4.793  0.8006 -0.1031 -0.3987
  860Na+     N115516   4.659   1.216   4.293  0.2572  0.1308 -0.2848
  861Na+     N115517   3.714   2.932   3.691  0.1363 -0.0807  0.3120
  862Na+     N115518   5.042   5.284   1.301  0.1039  0.2107  0.3679
  863Na+     N115519   4.866   3.269   3.229 -0.1767  0.3471  0.3991
  864Na+     N115520   0.619   2.063   3.993  0.3923  0.3889  0.3870
  865Na+     N115521   4.081   1.209   2.374  0.5125  0.2221  0.3649
  866Na+     N115522   0.757   1.778   0.311 -0.0216  0.3418  0.7094
  867Na+     N115523   2.680   1.007   0.524  0.1892 -0.4012 -0.5944
  868Na+     N115524   0.108   2.783   3.910 -0.3587  0.4686 -0.3446
  869Na+     N115525   5.348   1.870   4.361  0.1655 -0.2654  0.3266
  870Na+     N115526   2.849   2.564   1.413  0.1956  0.2609 -0.0543
  871Na+     N115527   4.550   0.448   2.560 -0.2018  0.4047 -0.1693
  872Na+     N115528   5.131   3.674   3.883 -0.1652 -0.3379  0.0391
  873Na+     N115529   0.518   3.197   0.782  0.3053 -0.3927  0.0599
  874Na+     N115530   0.201   1.651   3.088 -0.4562 -0.0269 -0.5326
  875Na+     N115531   0.352   0.135   0.153 -0.2807  0.1503  0.1092
  876Na+     N115532   0.906   0.644   1.815 -0.0492  0.2802  0.0704
  877Na+     N115533   2.010   4.154   5.456  0.0583  0.3910  0.1017
  878Na+     N115534   4.503   0.026   1.899 -0.3116 -0.3108 -0.1609
  879Na+     N115535   3.643   3.595   0.051 -0.0704 -0.1076 -0.0070
  880Na+     N115536   3.847   0.754   0.268  0.1050 -0.0966 -0.4471
  881Na+     N115537   5.035   3.806   2.578  0.0251 -0.2502  0.2900
  882Na+     N115538   1.292   0.071   4.741 -0.1666 -0.0186  0.5607
  883Na+     N115539   2.505   0.921   5.033 -0.1579 -0.2958  0.2916
  884Na+     N115540   3.855   4.896   1.998 -0.5443 -0.2553  0.0144
  885Na+     N115541   0.724   2.864   1.757 -0.2244 -0.0250  0.6385
  886Na+     N115542   4.255   4.441   2.731 -0.4894 -0.4274 -0.0949
  887Na+     N115543   4.588   0.219   4.792  0.3979 -0.0941  0.3322
  888Na+     N115544   0.916   0.331   4.227  0.1478  0.1047  0.0072
  889Na+     N115545   2.056   4.621   1.175  0.0848 -0.4305 -0.1479
  890Na+     N115546   2.452   1.270   3.074  0.4311 -0.0406 -0.2097
  891Na+     N115547   0.706   5.004   4.364  0.3184 -0.2699  0.0490
  892Na+     N115548   4.738   1.826   2.704  0.2784 -0.0412  0.2161
  893Na+     N115549   0.673   4.029   4.179  0.1091  0.1002 -0.1687
  894Na+     N115550   2.218   1.666   2.301 -0.0881  0.2097 -0.3322
  895Na+     N115551   4.723   2.138   1.343  0.0539 -0.0771  0.1914
  896Na+     N115552   3.004   2.146   3.033  0.0456  0.1183 -0.2255
  897Na+     N115553   0.481   3.690   1.977  0.2327 -0.1446  0.0959
  898Na+     N115554   2.226   2.920   4.574 -0.1621 -0.1011  0.3575
  899Na+     N115555   2.950   1.473   4.455 -0.6088 -0.1031  0.4548
  900Na+     N115556   3.782   3.660   2.016  0.3216  0.4936  0.0746
  901Na+     N115557   4.100   4.962   3.817  0.0658 -0.3854 -0.4931
  902Na+     N115558   3.313   0.000   4.523 -0.2583 -0.0600  0.0816
  903Na+     N115559   1.018   3.362   5.096 -0.3087  0.2049  0.0210
  904Na+     N115560   1.831   3.618   0.859  0.0113  0.3029 -0.3001
  905Na+     N115561   0.276   5.395   2.051 -0.4353 -0.3279  0.1509
  906Na+     N115562   2.218   2.909   2.330  0.0091 -0.0545 -0.4206
  907Na+     N115563   1.418   1.636   3.701 -0.3900  0.1420  0.4817
  908Na+     N115564   3.647   1.541   1.372 -0.0913  0.0246 -0.1343
  909Na+     N115565   5.239   4.280   1.373  0.0483 -0.1374 -0.1625
  910Na+     N115566   4.906   3.912   5.222  0.2684 -0.5510 -0.4304
  911Na+     N115567   0.818   5.470   1.286 -0.0648 -0.0059 -0.1656
  912Na+     N115568   4.234   3.440   0.822  0.1248 -0.3988  0.0938
  913Na+     N115569   2.826   2.728   0.222 -0.5612 -0.0682  0.2014
  914Na+     N115570   3.190   2.575   0.745 -0.3677 -0.2803 -0.2024
  915Na+     N115571   1.869   1.586   0.438  0.2069  0.4607 -0.0664
  916Na+     N115572   3.573   1.639   0.006  0.7139 -0.6961  0.0819
  917Na+     N115573   5.334   3.293   1.903  0.1257  0.2380 -0.1358
  918Na+     N115574   4.960   2.407   3.291  0.1081  0.9799  0.3184
  919Na+     N115575   3.262   1.243   3.261 -0.0993 -0.5043  0.4954
  920Na+     N115576   2.374   2.031   0.029  0.1053  0.1220 -0.6194
  921Na+     N115577   1.499   4.426   2.001  0.1437  0.2842  0.0002
  922Na+     N115578   2.451   4.166   2.600 -0.1510 -0.3332  0.2025
  923Na+     N115579   4.758   1.810   4.914 -0.4129  0.1512  0.0133
  924Na+     N115580   3.606   2.199   1.977 -0.0513  0.2677  0.3100
  925Na+     N115581   2.820   4.986   4.292 -0.3213  0.0003 -0.1216
  926Na+     N115582   5.146   2.378   2.189 -0.0800  0.1426 -0.2069
  927Na+     N115583   3.618   0.578   1.179  0.3497 -0.7854  0.0609
  928Na+     N115584   4.488   5.167   0.292  0.2710 -0.1778 -0.1409
  929Na+     N115585   5.163   0.613   0.994  0.2055  0.2217 -0.0282
  930Na+     N115586   3.768   4.937   0.615 -0.0834 -0.1438  0.0494
  931Na+     N115587   1.334   2.549   4.812  0.4803  0.2503 -0.2181
  932Na+     N115588   1.214   1.665   1.288  0.0534 -0.0874 -0.1057
  933Na+     N115589   5.401   1.236   2.030  0.2074  0.1335 -0.0524
  934Na+     N115590   1.920   2.298   1.327  0.0753  0.1804  0.2664
  935Na+     N115591   4.416   0.891   1.403 -0.0842 -0.0923  0.6838
  936Na+     N115592   1.473   4.340   4.110 -0.1057  0.0592  0.3155
  937Na+     N115593   3.481   0.158   3.413 -0.2347  0.1665 -0.0566
  938Na+     N115594   1.283   2.617   0.374  0.5706  0.2763 -0.2653
  939Na+     N115595   0.198   0.692   2.900  0.2662  0.5208  0.5897
  940Na+     N115596   0.566   1.633   4.782 -0.0947 -0.1910  0.1217
  941Na+     N115597   2.044   4.971   5.304 -0.4528  0.3409 -0.2090
  942Na+     N115598   0.618   2.258   2.425 -0.2752  0.2202  0.0338
  943Na+     N115599   3.398   4.407   5.224 -0.1293  0.1952 -0.1699
  944Na+     N115600   1.003   0.667   0.592  0.1187  0.3448  0.8659
  945Na+     N115601   5.041   2.975   0.856  0.1881  0.3912  0.1004
  946Na+     N115602   0.198   4.841   0.138 -0.1389  0.1841  0.2736
  947Na+     N115603   4.010   2.562   0.711 -0.6230  0.5446 -0.1327
  948Na+     N115604   2.344   5.372   2.953  0.2065  0.0055 -0.2176
  949Na+     N115605   1.416   1.181   4.678 -0.0911  0.3970 -0.2649
  950Na+     N115606   2.668   3.709   4.832  0.3539 -0.1849  0.0464
  951Na+     N115607   0.124   2.420   0.064 -0.3547 -0.4047  0.5009
  952Na+     N115608   0.922   3.898   0.982 -0.2959 -0.2651 -0.2493
  953Na+     N115609   4.829   2.126   0.420 -0.2757  0.0396 -0.2975
   5.49883   5.49883   5.49883
