DG-THF-PF6-Na    Amber RESP
15609
    1DG      C1    1   1.632   0.416   0.846  0.3673 -0.1357 -0.0774
    1DG      C2    2   1.136   0.753   1.095 -0.4609 -0.5219  0.4601
    1DG      H3    3   1.664   0.508   0.797  0.0604 -0.5644 -1.1082
    1DG      H4    4   1.665   0.329   0.790 -1.9524 -1.2271  0.1199
    1DG      H5    5   1.674   0.420   0.946 -1.0302  0.1813  0.5212
    1DG      H6    6   1.092   0.666   1.144  1.8793 -1.7397  0.5223
    1DG      H7    7   1.208   0.785   1.170  0.7666  0.6689 -1.1621
    1DG      H8    8   1.058   0.827   1.080  1.4922  1.2193 -1.6050
    1DG      O9    9   1.488   0.407   0.853  0.9784 -0.3733  0.0820
    1DG     O10   10   1.200   0.701   0.981 -0.4548  0.0099 -0.6448
    1DG     C11   11   1.431   0.427   0.720  0.2321 -0.8919 -0.1414
    1DG     C12   12   1.100   0.657   0.887  0.2966  0.2027 -0.4745
    1DG     H13   13   1.478   0.369   0.640  1.4222  1.3534 -1.1535
    1DG     H14   14   1.440   0.531   0.688 -1.8534  0.5638  3.4152
    1DG     H15   15   1.049   0.745   0.849  1.9563  1.0006 -0.9870
    1DG     H16   16   1.024   0.596   0.935  0.7039 -0.3441 -0.5180
    1DG     C17   17   1.290   0.375   0.753 -0.0610 -0.2042  0.2970
    1DG     C18   18   1.172   0.575   0.777 -0.3784  0.2027  0.3628
    1DG     O19   19   1.215   0.457   0.840 -0.3651  0.1085  0.2699
    1DG     H20   20   1.301   0.282   0.808 -1.5780  0.3137  1.5819
    1DG     H21   21   1.236   0.358   0.660 -0.9278  1.9546  0.3406
    1DG     H22   22   1.105   0.542   0.698  0.2666  0.0581 -0.1364
    1DG     H23   23   1.249   0.637   0.730 -1.9401  1.7245 -0.2562
    2DG      C1   24   0.707   1.748   4.171 -0.6703  0.0555 -0.2794
    2DG      C2   25   0.595   1.974   3.312 -0.8344  1.2240 -0.4496
    2DG      H3   26   0.790   1.689   4.209 -2.0618 -1.0876  1.1357
    2DG      H4   27   0.610   1.712   4.207  1.0270 -1.3530  3.3565
    2DG      H5   28   0.730   1.845   4.213 -1.3316  0.5091 -0.9287
    2DG      H6   29   0.650   1.973   3.218  1.7482  0.8249  0.9894
    2DG      H7   30   0.509   1.907   3.306  0.0618 -0.1717  1.4338
    2DG      H8   31   0.573   2.079   3.329 -1.6625  1.1764 -1.1064
    2DG      O9   32   0.697   1.772   4.032  0.0918  0.6686  0.0130
    2DG     O10   33   0.688   1.937   3.414  0.0652  0.2020  0.0075
    2DG     C11   34   0.595   1.870   3.987  0.0278  0.3456 -0.5398
    2DG     C12   35   0.638   1.947   3.544  0.0161 -0.0219  0.7027
    2DG     H13   36   0.618   1.973   4.016 -0.5507  0.5657 -0.8417
    2DG     H14   37   0.495   1.854   4.027 -0.7123  2.9582 -1.1787
    2DG     H15   38   0.540   1.901   3.556 -1.2822  1.9764 -1.3524
    2DG     H16   39   0.614   2.050   3.571 -2.3713 -0.3525  0.0626
    2DG     C17   40   0.594   1.852   3.835 -0.0901 -0.6109 -0.4657
    2DG     C18   41   0.739   1.890   3.643 -0.6232 -0.4764 -0.2103
    2DG     O19   42   0.706   1.924   3.781  0.9036 -0.2493 -0.4016
    2DG     H20   43   0.496   1.893   3.813 -1.3996 -2.6608  1.1373
    2DG     H21   44   0.581   1.747   3.809  0.9477 -0.8077 -0.2275
    2DG     H22   45   0.761   1.784   3.627  0.2465 -0.2107 -0.9144
    2DG     H23   46   0.836   1.938   3.634 -0.8620  0.3537  1.3838
    3DG      C1   47   3.306   4.814   4.787  0.3599  0.3978  0.1334
    3DG      C2   48   3.011   4.341   4.197  0.4865  0.4479  0.0440
    3DG      H3   49   3.395   4.814   4.849  1.7942  1.0406 -1.8265
    3DG      H4   50   3.224   4.873   4.828 -0.6336 -0.3535 -0.7030
    3DG      H5   51   3.327   4.861   4.691 -0.0570 -1.1509 -0.7490
    3DG      H6   52   2.916   4.385   4.227  0.0095 -1.5171  1.7151
    3DG      H7   53   3.052   4.391   4.110  1.0019 -4.4371 -2.9310
    3DG      H8   54   2.994   4.238   4.164 -0.5347 -0.2511  2.4713
    3DG      O9   55   3.269   4.677   4.771  0.1710  0.2095  0.2416
    3DG     O10   56   3.113   4.339   4.297 -0.3803  0.3244  0.0634
    3DG     C11   57   3.144   4.666   4.710 -0.1675  0.1138  0.6428
    3DG     C12   58   3.061   4.306   4.425  0.1428  0.5088 -0.4691
    3DG     H13   59   3.139   4.740   4.630  0.2641 -1.1234 -0.5791
    3DG     H14   60   3.070   4.695   4.784  1.4454 -0.9508  2.7604
    3DG     H15   61   3.041   4.199   4.421  1.2578  0.3245 -2.3339
    3DG     H16   62   2.972   4.370   4.431  1.2211  2.4198 -2.8423
    3DG     C17   63   3.117   4.518   4.678 -0.0606  0.1705  0.3483
    3DG     C18   64   3.167   4.335   4.531 -0.0904  0.5978 -0.3408
    3DG     O19   65   3.189   4.473   4.563  0.0901  0.6873  0.2994
    3DG     H20   66   3.010   4.513   4.656 -0.2731 -0.6950  1.4745
    3DG     H21   67   3.127   4.459   4.769 -1.8973 -0.5256  0.1545
    3DG     H22   68   3.145   4.289   4.628 -0.5830  1.8117  0.1387
    3DG     H23   69   3.264   4.304   4.491  1.4613  0.7258  2.9789
    4DG      C1   70   2.185   4.890   0.278  0.1062  0.1204 -0.2033
    4DG      C2   71   1.518   4.865   0.408  0.1202 -0.2078  0.2939
    4DG      H3   72   2.203   4.825   0.363 -0.3734  0.9001  0.5038
    4DG      H4   73   2.282   4.939   0.263  0.1300  0.6693  1.5254
    4DG      H5   74   2.167   4.829   0.190 -3.2964 -1.1174  1.2126
    4DG      H6   75   1.533   4.769   0.358  0.2954  1.3454 -2.9443
    4DG      H7   76   1.489   4.861   0.513 -0.3914  1.4461  0.2316
    4DG      H8   77   1.434   4.915   0.361  1.2085  2.3691  0.9047
    4DG      O9   78   2.079   4.979   0.311 -0.5704  0.5048 -0.6337
    4DG     O10   79   1.632   4.950   0.394  0.0893  0.2560  0.1582
    4DG     C11   80   2.067   5.104   0.238 -0.0593 -0.6528 -0.3012
    4DG     C12   81   1.629   5.093   0.429  0.4761  0.8720 -0.5521
    4DG     H13   82   2.053   5.071   0.135 -0.6866 -0.4915 -0.2735
    4DG     H14   83   2.151   5.173   0.246  0.2149 -1.0905  0.7844
    4DG     H15   84   1.655   5.084   0.534 -0.5395  0.1250 -0.3435
    4DG     H16   85   1.528   5.133   0.419  0.4758  0.8055 -0.8243
    4DG     C17   86   1.951   5.183   0.290 -0.2010 -0.6773 -0.6526
    4DG     C18   87   1.727   5.176   0.359  0.1843 -0.8092 -0.0042
    4DG     O19   88   1.844   5.103   0.332  0.2709  0.3801  0.0943
    4DG     H20   89   1.926   5.255   0.213 -1.1022  0.0246  0.2553
    4DG     H21   90   1.987   5.245   0.372  1.6225 -1.2324 -1.0087
    4DG     H22   91   1.688   5.229   0.272  0.9003  0.7022  0.5727
    4DG     H23   92   1.750   5.262   0.421  0.9799  0.4496 -1.9437
    5DG      C1   93   4.821   5.441   0.596 -0.1546 -0.4649 -0.3636
    5DG      C2   94   4.366   5.840   1.218  0.0338  0.0188  0.4739
    5DG      H3   95   4.749   5.372   0.640  0.7359  0.1801  2.2740
    5DG      H4   96   4.898   5.435   0.672 -0.2803  1.6549 -0.0155
    5DG      H5   97   4.853   5.403   0.499  1.8153 -0.8517  0.3986
    5DG      H6   98   4.443   5.890   1.277 -0.4332 -1.0664  2.0358
    5DG      H7   99   4.265   5.882   1.225 -0.1659 -0.4544  0.4706
    5DG      H8  100   4.351   5.748   1.273 -1.0683  0.2892  0.6603
    5DG      O9  101   4.769   5.568   0.611  0.8000 -0.3009 -0.0715
    5DG     O10  102   4.410   5.815   1.086 -0.3425 -0.2528  0.4090
    5DG     C11  103   4.726   5.609   0.740  0.4088 -0.4422 -0.5253
    5DG     C12  104   4.498   5.921   1.034  0.4917 -0.5608  0.3310
    5DG     H13  105   4.821   5.612   0.794 -0.0521 -0.3958  0.2960
    5DG     H14  106   4.658   5.530   0.771 -0.2041 -0.9097 -2.8421
    5DG     H15  107   4.583   5.944   1.099  0.6724 -0.9951  0.2504
    5DG     H16  108   4.435   6.009   1.044 -0.0708 -1.1808  3.2376
    5DG     C17  109   4.664   5.746   0.752  0.6283 -0.7143  0.0843
    5DG     C18  110   4.536   5.887   0.887 -0.7939 -0.2611 -0.5555
    5DG     O19  111   4.624   5.777   0.881 -0.1855 -0.1164 -0.4328
    5DG     H20  112   4.574   5.735   0.691  0.4176 -0.7410  0.3964
    5DG     H21  113   4.729   5.815   0.699 -0.1484 -1.5290 -2.0818
    5DG     H22  114   4.444   5.876   0.830 -1.8516 -0.8940  1.1864
    5DG     H23  115   4.580   5.972   0.833 -0.8851  0.2304  0.1315
    6DG      C1  116   3.200   3.667   2.989  0.1876  0.1984  0.6734
    6DG      C2  117   3.662   3.054   2.754  0.7031  0.0610 -0.1721
    6DG      H3  118   3.141   3.672   3.080  0.2450 -1.3546  0.8291
    6DG      H4  119   3.148   3.712   2.905 -0.3810 -2.1793 -0.3395
    6DG      H5  120   3.292   3.726   2.988 -0.4146  1.1563 -0.7110
    6DG      H6  121   3.669   2.948   2.778 -0.8831  0.4423  2.3319
    6DG      H7  122   3.648   3.069   2.647  0.4138  1.7777  0.0779
    6DG      H8  123   3.755   3.099   2.790  1.1477 -0.5171 -0.5949
    6DG      O9  124   3.219   3.524   2.963  0.1080 -0.5059 -0.1472
    6DG     O10  125   3.564   3.118   2.838 -0.1775  1.0825  0.5792
    6DG     C11  126   3.286   3.465   3.071  0.1413  0.2808  0.9049
    6DG     C12  127   3.438   3.061   2.824 -0.2512 -0.1330  0.1792
    6DG     H13  128   3.246   3.491   3.169  1.5513 -2.2535  2.2660
    6DG     H14  129   3.391   3.494   3.063 -0.4851  2.1520 -2.8678
    6DG     H15  130   3.457   2.956   2.848  1.6927 -0.1698 -1.2389
    6DG     H16  131   3.389   3.065   2.726  2.1177  1.0227 -1.0279
    6DG     C17  132   3.292   3.314   3.050  0.0878  0.7251  0.3835
    6DG     C18  133   3.353   3.113   2.936  0.0222 -0.7083 -0.3623
    6DG     O19  134   3.350   3.254   2.937  0.3233 -0.6227 -0.3895
    6DG     H20  135   3.188   3.284   3.062 -0.2509  1.8403  0.3514
    6DG     H21  136   3.343   3.270   3.135 -1.1930 -0.4312  0.5805
    6DG     H22  137   3.254   3.068   2.924  1.1348 -3.9762  1.3277
    6DG     H23  138   3.377   3.068   3.033 -1.4044 -0.9960 -0.1190
    7DG      C1  139   4.688   5.142   0.354 -0.6273  0.1213 -0.4512
    7DG      C2  140   4.193   4.776   0.637 -0.3545  0.2780  0.4624
    7DG      H3  141   4.695   5.236   0.408  1.0803  0.0477 -0.5030
    7DG      H4  142   4.617   5.155   0.273 -0.0560  1.1462 -0.7983
    7DG      H5  143   4.787   5.128   0.310 -0.4583 -1.0212  0.2345
    7DG      H6  144   4.152   4.679   0.666  2.3127 -1.0457  0.0871
    7DG      H7  145   4.189   4.841   0.725 -0.7459  2.7005 -1.2365
    7DG      H8  146   4.127   4.824   0.565 -0.3932  0.5391  0.6719
    7DG      O9  147   4.645   5.031   0.436  0.1682 -0.5135 -0.4317
    7DG     O10  148   4.318   4.756   0.578 -0.1013 -0.1581  0.0520
    7DG     C11  149   4.740   4.993   0.529 -0.1383  0.7274 -0.4960
    7DG     C12  150   4.414   4.695   0.667  0.1942 -0.1866 -0.1633
    7DG     H13  151   4.783   5.083   0.574 -0.1927 -0.0965  1.2930
    7DG     H14  152   4.825   4.951   0.476  2.1904  1.8373  2.0848
    7DG     H15  153   4.384   4.597   0.706 -0.5656  0.3266  0.5691
    7DG     H16  154   4.421   4.752   0.760 -0.1841 -2.1831  1.1507
    7DG     C17  155   4.671   4.895   0.625  0.7280 -0.2677 -0.7125
    7DG     C18  156   4.549   4.680   0.598  0.6799 -0.2605  0.0251
    7DG     O19  157   4.611   4.796   0.545  0.3395  0.2449 -0.3489
    7DG     H20  158   4.598   4.950   0.685  1.1284  0.7432 -1.1217
    7DG     H21  159   4.742   4.848   0.693  0.2739 -1.3570 -0.9666
    7DG     H22  160   4.618   4.640   0.672 -1.4091  0.1471  2.3056
    7DG     H23  161   4.531   4.599   0.527 -1.6757  0.5301 -0.3758
    8DG      C1  162   3.086   4.816   0.489  0.0228  0.4762 -0.1611
    8DG      C2  163   3.341   4.775   0.969  0.5480 -0.3331  0.0784
    8DG      H3  164   3.006   4.792   0.559 -0.3915  1.6123 -0.2256
    8DG      H4  165   3.055   4.772   0.394 -2.6706  0.8093  0.4979
    8DG      H5  166   3.084   4.924   0.471  0.1923  0.8611  1.8855
    8DG      H6  167   3.330   4.879   0.998  2.6489  0.8010 -2.7388
    8DG      H7  168   3.285   4.786   0.877 -0.7751  3.6485  1.1656
    8DG      H8  169   3.288   4.703   1.031 -1.5858 -0.1810 -1.4676
    8DG      O9  170   3.210   4.759   0.525  0.2584 -0.2670 -0.1628
    8DG     O10  171   3.475   4.741   0.948  0.3570  0.1604  0.2396
    8DG     C11  172   3.201   4.613   0.532  0.0536  0.6650  0.9789
    8DG     C12  173   3.500   4.609   0.901  0.4779  0.2808 -0.4550
    8DG     H13  174   3.172   4.573   0.435  0.6069 -0.7997  1.3992
    8DG     H14  175   3.129   4.579   0.606 -1.0906  0.8107 -0.0297
    8DG     H15  176   3.425   4.544   0.946 -0.0464 -0.2169 -1.9799
    8DG     H16  177   3.598   4.583   0.941  0.6519  0.2567 -0.8852
    8DG     C17  178   3.334   4.558   0.574 -0.8939 -0.2887 -0.0775
    8DG     C18  179   3.493   4.605   0.744 -0.2803  0.0730  0.8897
    8DG     O19  180   3.352   4.599   0.704 -0.5667  0.0691  0.1851
    8DG     H20  181   3.406   4.600   0.504 -2.0202 -0.5501 -1.4322
    8DG     H21  182   3.332   4.450   0.565  1.3341 -0.4630  0.8940
    8DG     H22  183   3.539   4.687   0.689 -0.5419 -0.3608  0.0126
    8DG     H23  184   3.540   4.510   0.717 -2.0067 -0.2020 -1.3980
    9DG      C1  185   4.736   3.918   2.503 -0.3420  0.2567 -0.0006
    9DG      C2  186   4.408   3.261   2.230 -0.2806 -0.5678 -0.0203
    9DG      H3  187   4.843   3.895   2.507 -0.0728  1.4393 -0.1830
    9DG      H4  188   4.710   3.889   2.605  1.2750 -0.8730  0.1452
    9DG      H5  189   4.723   4.023   2.479  0.9247  0.8660  1.8271
    9DG      H6  190   4.402   3.220   2.129 -3.2920 -0.8353  0.1695
    9DG      H7  191   4.473   3.203   2.296  1.6912  0.5700 -0.8660
    9DG      H8  192   4.304   3.260   2.264  0.2140  0.8538  1.7570
    9DG      O9  193   4.666   3.842   2.403  0.2894  0.3773 -0.8756
    9DG     O10  194   4.455   3.397   2.245  0.0793  0.5278 -0.3272
    9DG     C11  195   4.723   3.839   2.274 -0.6626 -0.8047 -0.2742
    9DG     C12  196   4.593   3.401   2.191  0.0984  0.1181  0.2813
    9DG     H13  197   4.814   3.781   2.289 -0.0131  0.4285  0.7009
    9DG     H14  198   4.755   3.941   2.253 -2.5960 -0.5127 -2.1271
    9DG     H15  199   4.593   3.366   2.087  0.1616 -0.4164  0.4583
    9DG     H16  200   4.670   3.351   2.249  0.6972 -0.4785 -0.9860
    9DG     C17  201   4.629   3.785   2.168  0.1893  0.0859  0.4967
    9DG     C18  202   4.655   3.545   2.195  0.1496 -0.3012  0.1318
    9DG     O19  203   4.570   3.659   2.192  0.2404  0.3103  0.1070
    9DG     H20  204   4.687   3.775   2.076 -3.5968  0.2648 -2.1345
    9DG     H21  205   4.544   3.853   2.161  0.9120  1.0985  1.2845
    9DG     H22  206   4.712   3.552   2.288  0.2511  3.7911 -0.0697
    9DG     H23  207   4.728   3.551   2.115  1.8749  1.3518  1.7315
   10DG      C1  208   3.967   0.941   0.051  0.5173  0.2238  0.4047
   10DG      C2  209   3.958   0.525  -0.649 -0.0177  0.6056 -0.3529
   10DG      H3  210   3.884   0.889   0.098 -1.1548  1.6320 -0.8621
   10DG      H4  211   3.943   1.046   0.031  1.0868  0.4442  0.8539
   10DG      H5  212   4.037   0.949   0.134  0.3345 -1.5175  0.7687
   10DG      H6  213   3.889   0.441  -0.646  0.2108  0.4191 -0.2690
   10DG      H7  214   3.902   0.613  -0.678  0.3227  0.4555 -1.5174
   10DG      H8  215   4.029   0.506  -0.730 -0.6740  3.2517 -1.6450
   10DG      O9  216   4.027   0.875  -0.059  0.0327  0.1134  0.1006
   10DG     O10  217   4.005   0.550  -0.514 -0.7297  0.6964  0.8219
   10DG     C11  218   4.062   0.741  -0.033 -0.2587  0.7445 -0.6107
   10DG     C12  219   3.911   0.612  -0.434 -0.0900 -0.2157 -0.1799
   10DG     H13  220   3.971   0.684  -0.012  0.4445  0.6511  2.7811
   10DG     H14  221   4.116   0.744   0.062 -0.7217 -2.6315 -0.1237
   10DG     H15  222   3.819   0.552  -0.437  0.3505 -1.0079  1.2012
   10DG     H16  223   3.869   0.707  -0.467 -0.5029  0.0816  1.1647
   10DG     C17  224   4.134   0.659  -0.140  0.2686 -0.4250 -0.0625
   10DG     C18  225   3.943   0.638  -0.280 -0.4494  0.0048 -0.1681
   10DG     O19  226   4.077   0.683  -0.270  0.1434 -0.1241  0.1842
   10DG     H20  227   4.157   0.554  -0.123  1.5268  0.0372  1.2853
   10DG     H21  228   4.235   0.696  -0.151 -0.5698  2.5769  1.2939
   10DG     H22  229   3.874   0.708  -0.234  1.1317  2.3256 -1.1694
   10DG     H23  230   3.934   0.541  -0.231  1.3419  0.4982  1.2451
   11DG      C1  231   4.200   4.429   0.466 -0.2686  0.4501  0.4449
   11DG      C2  232   4.390   3.784   0.817  0.5839  0.2829  0.0167
   11DG      H3  233   4.130   4.512   0.475 -0.2161  0.7305 -1.4167
   11DG      H4  234   4.232   4.432   0.362  0.2355  2.2730  0.6213
   11DG      H5  235   4.297   4.453   0.509  0.4672 -0.8834 -0.3880
   11DG      H6  236   4.479   3.836   0.781 -0.6397  0.9346 -2.2810
   11DG      H7  237   4.417   3.750   0.917  3.5014 -0.3070 -0.8727
   11DG      H8  238   4.376   3.703   0.746  1.0630  1.1096 -1.0432
   11DG      O9  239   4.140   4.305   0.503 -0.0396  0.2905  0.3526
   11DG     O10  240   4.287   3.881   0.830  0.6829 -0.0012  0.1114
   11DG     C11  241   4.100   4.312   0.640  0.4117 -0.8998  0.5009
   11DG     C12  242   4.168   3.835   0.763 -0.3290  0.4371  0.6624
   11DG     H13  243   4.037   4.401   0.646  1.4027 -0.1803  0.2895
   11DG     H14  244   4.187   4.318   0.706  0.4116  1.5717  0.3769
   11DG     H15  245   4.128   3.749   0.818  1.4214  0.3565  1.8645
   11DG     H16  246   4.191   3.800   0.662  2.3737 -0.4803  1.5203
   11DG     C17  247   4.027   4.185   0.695  0.5973 -0.1440 -0.2921
   11DG     C18  248   4.067   3.952   0.760  0.2504  0.7142  0.4527
   11DG     O19  249   4.110   4.073   0.694  0.0517 -0.3336 -0.6004
   11DG     H20  250   3.942   4.171   0.628  1.1958  0.7053 -1.2679
   11DG     H21  251   3.989   4.191   0.797 -0.9393 -2.2236 -0.6707
   11DG     H22  252   3.969   3.929   0.716  0.4455 -0.5629  0.6340
   11DG     H23  253   4.046   3.964   0.866  0.3782 -2.9696  1.0348
   12DG      C1  254   0.346   1.443   2.497  0.1938 -0.1821  0.6541
   12DG      C2  255  -0.154   1.741   2.978  0.9611 -0.2640  0.1518
   12DG      H3  256   0.353   1.447   2.388 -0.1135  1.1644  0.6645
   12DG      H4  257   0.413   1.362   2.523 -0.0009 -1.2739 -1.9083
   12DG      H5  258   0.377   1.540   2.536  1.2637 -0.1554 -0.1977
   12DG      H6  259  -0.243   1.703   3.028  0.5400 -1.9881 -1.7464
   12DG      H7  260  -0.076   1.753   3.053 -1.0929  0.2421  2.3136
   12DG      H8  261  -0.166   1.843   2.942 -0.5062 -1.0074 -1.6275
   12DG      O9  262   0.209   1.419   2.529  0.0206  0.6723  0.8138
   12DG     O10  263  -0.129   1.657   2.861 -0.4280  0.2381  0.1542
   12DG     C11  264   0.114   1.485   2.444  0.2465  0.2487 -0.1493
   12DG     C12  265  -0.223   1.667   2.749  1.0226  0.3133 -1.8416
   12DG     H13  266   0.118   1.443   2.344  1.8007 -0.2233  0.0735
   12DG     H14  267   0.146   1.589   2.436  1.9256 -0.2808 -0.8270
   12DG     H15  268  -0.235   1.769   2.711  2.9092  1.0381 -0.6214
   12DG     H16  269  -0.322   1.639   2.785  1.5504  1.1844  0.5353
   12DG     C17  270  -0.022   1.478   2.503 -0.3127  0.6129 -0.2530
   12DG     C18  271  -0.183   1.559   2.651  0.3870  0.3659 -0.6956
   12DG     O19  272  -0.043   1.560   2.619 -0.2605  0.0584  0.7156
   12DG     H20  273  -0.043   1.373   2.524  2.3566 -0.1318 -0.8756
   12DG     H21  274  -0.098   1.503   2.429 -0.0095 -1.6553 -1.4132
   12DG     H22  275  -0.197   1.459   2.693 -1.3372  1.6974  2.2161
   12DG     H23  276  -0.246   1.573   2.564 -2.3565  2.0388  1.3824
   13DG      C1  277   5.001   5.183   4.349 -0.2636  0.3547 -0.5337
   13DG      C2  278   4.561   4.574   4.615 -0.2409  0.3795  0.5098
   13DG      H3  279   4.944   5.261   4.299 -0.5712 -0.3260 -1.2745
   13DG      H4  280   5.062   5.127   4.278 -1.7252 -1.1894 -0.6260
   13DG      H5  281   5.071   5.236   4.414  0.6310 -0.3876 -0.8664
   13DG      H6  282   4.627   4.567   4.701 -0.8605  0.0374  0.9724
   13DG      H7  283   4.462   4.591   4.658  0.1297  0.4572  1.3438
   13DG      H8  284   4.570   4.472   4.576  1.4799  1.3004 -1.7392
   13DG      O9  285   4.907   5.099   4.412 -0.5234 -0.4763 -0.1174
   13DG     O10  286   4.568   4.669   4.509 -0.8315  0.5095  0.1084
   13DG     C11  287   4.961   5.008   4.508  0.9024 -0.2028  0.5627
   13DG     C12  288   4.694   4.648   4.438 -0.3916  0.3605 -0.8313
   13DG     H13  289   5.037   5.062   4.564  2.5556  1.5188 -2.9980
   13DG     H14  290   5.025   4.943   4.448  2.4891  0.6049  1.3105
   13DG     H15  291   4.685   4.683   4.335  2.5090  0.9977 -0.9333
   13DG     H16  292   4.718   4.547   4.406  0.6306  0.9724 -2.0645
   13DG     C17  293   4.855   4.945   4.602  0.6820 -0.1285 -0.4116
   13DG     C18  294   4.809   4.724   4.500 -0.0581 -0.2954 -0.3380
   13DG     O19  295   4.761   4.857   4.541  0.3949 -0.5607 -0.1216
   13DG     H20  296   4.788   5.014   4.653  0.2523 -0.7120 -0.1755
   13DG     H21  297   4.898   4.890   4.686  1.5105  1.1572  0.0457
   13DG     H22  298   4.849   4.671   4.587  0.0441  1.8872  1.0201
   13DG     H23  299   4.894   4.744   4.435  0.4738 -1.4093 -0.0183
   14DG      C1  300   3.690   0.266   1.041  0.4718 -0.7891  0.2180
   14DG      C2  301   3.714  -0.174   1.148  0.1629  0.8033 -0.2128
   14DG      H3  302   3.638   0.202   0.969  0.8770  0.4554 -1.2304
   14DG      H4  303   3.725   0.353   0.986  1.2275 -0.7836  0.7062
   14DG      H5  304   3.628   0.289   1.127 -1.2473 -1.7509 -0.6990
   14DG      H6  305   3.657  -0.244   1.088  2.5134 -0.8631 -0.6807
   14DG      H7  306   3.656  -0.162   1.239  0.2771 -1.4568  0.2091
   14DG      H8  307   3.738  -0.076   1.106 -1.4438  2.2800  2.0986
   14DG      O9  308   3.811   0.202   1.081 -0.2004  0.1732  0.1344
   14DG     O10  309   3.825  -0.238   1.204  0.2202  0.6414  0.3255
   14DG     C11  310   3.902   0.180   0.973 -0.9595  0.2139  0.0200
   14DG     C12  311   3.940  -0.267   1.128 -0.5586 -0.1637 -0.2140
   14DG     H13  312   3.965   0.268   0.962 -1.6556  0.5080 -1.8915
   14DG     H14  313   3.859   0.161   0.875  2.7068  1.0588 -1.9190
   14DG     H15  314   3.914  -0.308   1.030  0.5464 -1.2017 -0.1042
   14DG     H16  315   3.991  -0.349   1.177  1.2507  0.0894 -1.5419
   14DG     C17  316   4.016   0.076   1.015 -0.2565  0.3181  0.2592
   14DG     C18  317   4.027  -0.138   1.106 -0.0323  0.2705 -0.0718
   14DG     O19  318   3.957  -0.048   1.022  0.2000 -0.0610 -0.3214
   14DG     H20  319   4.049   0.108   1.113 -1.7399 -1.1113  1.2818
   14DG     H21  320   4.094   0.082   0.939  1.3166 -2.3810  1.5179
   14DG     H22  321   4.050  -0.097   1.204 -0.2165  0.8983 -0.2808
   14DG     H23  322   4.117  -0.161   1.048  1.3140  2.3576  1.0665
   15DG      C1  323   1.637   4.359   3.981  0.3627 -0.1807  0.6160
   15DG      C2  324   1.241   4.133   3.666 -0.1554 -0.6846  0.5144
   15DG      H3  325   1.645   4.273   4.048  3.2319 -0.3332  0.2054
   15DG      H4  326   1.558   4.428   4.010  0.9840  0.5818  0.5279
   15DG      H5  327   1.716   4.433   3.994 -2.5058  3.1782  0.1399
   15DG      H6  328   1.158   4.204   3.666 -2.3381 -2.9949 -2.1438
   15DG      H7  329   1.204   4.047   3.721 -2.2029 -0.3353 -0.2234
   15DG      H8  330   1.325   4.181   3.716 -0.4079  0.5422 -0.1834
   15DG      O9  331   1.633   4.317   3.841  0.7063 -0.0272 -0.1128
   15DG     O10  332   1.268   4.104   3.528  0.4021  0.1307 -0.2905
   15DG     C11  333   1.629   4.430   3.757 -0.0881  0.4115  0.5721
   15DG     C12  334   1.329   4.204   3.452 -0.2849 -0.3374  0.1540
   15DG     H13  335   1.727   4.477   3.766  0.2071  0.0574 -0.5666
   15DG     H14  336   1.552   4.500   3.790 -2.2373 -0.3715 -2.3167
   15DG     H15  337   1.286   4.304   3.455  0.7263  0.3074 -2.8387
   15DG     H16  338   1.324   4.173   3.347  1.1642  1.4031 -0.4796
   15DG     C17  339   1.613   4.376   3.618 -0.5102  0.3664  0.4082
   15DG     C18  340   1.475   4.221   3.487 -0.2305  0.2900 -0.7345
   15DG     O19  341   1.488   4.306   3.598  0.6096 -0.1033  0.3357
   15DG     H20  342   1.694   4.313   3.581 -1.5778 -0.4400 -0.6581
   15DG     H21  343   1.608   4.456   3.545 -0.9562 -1.7936 -2.0968
   15DG     H22  344   1.528   4.126   3.493  2.0570  1.3673 -2.3399
   15DG     H23  345   1.535   4.257   3.403  1.6999  1.0272  0.8846
   16DG      C1  346   2.682   2.441   2.905 -0.0385  0.1793  0.1954
   16DG      C2  347   1.974   2.822   3.112 -0.0231 -0.5056 -0.2399
   16DG      H3  348   2.662   2.377   2.991  0.5013  0.7029  0.7201
   16DG      H4  349   2.787   2.468   2.892  0.4166 -0.2639  2.5619
   16DG      H5  350   2.677   2.370   2.822  5.2813 -1.4510  0.8239
   16DG      H6  351   1.958   2.806   3.219 -3.7365  3.5899  0.1252
   16DG      H7  352   1.979   2.929   3.091  2.9471 -0.9453 -2.3834
   16DG      H8  353   1.899   2.782   3.044 -0.4446  0.6790 -0.5080
   16DG      O9  354   2.587   2.545   2.894 -0.0347  0.0929  0.3653
   16DG     O10  355   2.100   2.775   3.077 -0.2129 -0.4092 -0.0285
   16DG     C11  356   2.458   2.488   2.911  0.1625 -0.7049  0.8060
   16DG     C12  357   2.130   2.789   2.935 -0.2472 -0.5007  0.3219
   16DG     H13  358   2.441   2.465   3.016  3.2061 -1.1603  1.2721
   16DG     H14  359   2.447   2.405   2.842  0.8095  1.2092 -1.7323
   16DG     H15  360   2.092   2.884   2.897 -1.1779 -0.8570  0.3510
   16DG     H16  361   2.087   2.706   2.880  2.1846 -1.9689  0.5071
   16DG     C17  362   2.355   2.590   2.860 -0.1830  0.5899  0.3943
   16DG     C18  363   2.287   2.805   2.917 -0.5452  0.1360  0.8766
   16DG     O19  364   2.357   2.691   2.956  0.5083 -0.4852 -0.0662
   16DG     H20  365   2.255   2.547   2.859  0.7375 -1.8789 -2.2250
   16DG     H21  366   2.363   2.617   2.754 -1.7712 -0.0192  0.0910
   16DG     H22  367   2.309   2.836   2.814  0.0337 -1.5154  0.4838
   16DG     H23  368   2.320   2.881   2.988  1.4162  1.2628 -1.0886
   17DG      C1  369   2.123   4.833   1.096 -0.2472  0.0047 -0.1975
   17DG      C2  370   2.327   5.121   0.522 -0.4611 -0.0384  0.1273
   17DG      H3  371   2.221   4.787   1.082 -0.3711 -0.5710  0.7309
   17DG      H4  372   2.042   4.763   1.076  0.2925 -0.4530 -0.8320
   17DG      H5  373   2.107   4.862   1.200 -1.4900  0.3750 -0.4720
   17DG      H6  374   2.423   5.172   0.510  0.6742 -1.8747  0.8603
   17DG      H7  375   2.342   5.013   0.529  2.7589  0.3056  0.2692
   17DG      H8  376   2.263   5.142   0.436 -1.4809  0.2228  0.9318
   17DG      O9  377   2.120   4.945   1.010 -0.0950 -0.7852 -0.4284
   17DG     O10  378   2.268   5.155   0.646 -0.1599  0.1644 -0.0492
   17DG     C11  379   2.003   5.025   1.017 -0.1367  0.2998  0.0918
   17DG     C12  380   2.153   5.236   0.627  0.2762  1.1225  0.1737
   17DG     H13  381   1.976   5.035   1.122 -2.3861 -0.2938 -0.3883
   17DG     H14  382   1.914   4.978   0.975 -1.4261  1.1466  1.7724
   17DG     H15  383   2.080   5.182   0.566  1.4670 -0.6388  0.2635
   17DG     H16  384   2.189   5.324   0.573  0.4614  0.3396 -1.0040
   17DG     C17  385   2.033   5.166   0.967 -0.4566  0.4944 -0.1579
   17DG     C18  386   2.098   5.266   0.768 -0.1475 -0.6953  0.6340
   17DG     O19  387   2.068   5.155   0.833 -0.2589  0.2604 -0.4319
   17DG     H20  388   2.109   5.211   1.031  0.0917  0.3004 -0.6595
   17DG     H21  389   1.944   5.228   0.972 -1.1385 -0.2556 -2.1490
   17DG     H22  390   2.179   5.327   0.808  1.4641  0.0740 -3.3710
   17DG     H23  391   2.012   5.332   0.754 -0.3343 -1.4207 -2.2298
   18DG      C1  392   3.208   2.920   0.643 -0.0078 -0.0158 -0.1946
   18DG      C2  393   3.614   2.657   1.206 -0.4634 -0.4513  0.0003
   18DG      H3  394   3.114   2.939   0.695 -0.2502 -0.9625 -0.2533
   18DG      H4  395   3.181   2.900   0.539 -0.7943 -3.0996  0.4765
   18DG      H5  396   3.273   3.006   0.653  0.1977 -0.1016 -0.7470
   18DG      H6  397   3.655   2.755   1.230 -0.3074 -0.7812  1.1611
   18DG      H7  398   3.524   2.650   1.267 -1.6635  1.4358 -1.4390
   18DG      H8  399   3.688   2.586   1.243  0.3898  0.4115 -0.0349
   18DG      O9  400   3.268   2.803   0.693  0.5420 -0.0651 -0.8620
   18DG     O10  401   3.580   2.650   1.066 -0.3221 -0.2098 -0.8179
   18DG     C11  402   3.351   2.736   0.604 -0.2987 -0.3694  0.4600
   18DG     C12  403   3.520   2.527   1.035 -0.1504 -1.0008 -0.1335
   18DG     H13  404   3.421   2.810   0.566 -1.1973  0.9097  1.2159
   18DG     H14  405   3.290   2.705   0.519  0.0210  0.5417 -0.1223
   18DG     H15  406   3.429   2.521   1.095 -0.3456  3.3313  0.3133
   18DG     H16  407   3.588   2.446   1.063 -1.1087 -1.8659 -0.2313
   18DG     C17  408   3.411   2.615   0.676  0.6511 -0.0471 -0.1815
   18DG     C18  409   3.503   2.523   0.876 -0.2942 -0.0861 -0.8026
   18DG     O19  410   3.446   2.632   0.815 -0.0757 -0.3523  0.0661
   18DG     H20  411   3.503   2.585   0.626  0.5052  1.0359 -1.1582
   18DG     H21  412   3.347   2.527   0.663  1.5441 -0.5701 -1.2598
   18DG     H22  413   3.603   2.501   0.840  0.6366  0.1715  1.5024
   18DG     H23  414   3.445   2.437   0.842 -0.0739 -0.8299  0.6600
   19DG      C1  415   0.622   3.969   2.743 -0.2535  0.2748 -0.0005
   19DG      C2  416   1.118   4.421   3.059  0.5909  0.2320  0.3710
   19DG      H3  417   0.592   3.890   2.813 -0.9358  0.8127  0.3229
   19DG      H4  418   0.729   3.967   2.723  0.2233  2.5012  1.9156
   19DG      H5  419   0.574   3.945   2.648  0.2000  1.8837 -0.6606
   19DG      H6  420   1.155   4.349   3.133 -0.0874  1.8411  2.3800
   19DG      H7  421   1.196   4.478   3.010 -0.0234  1.2258  0.5235
   19DG      H8  422   1.053   4.493   3.109  0.1998  0.2699 -0.1788
   19DG      O9  423   0.586   4.091   2.795 -0.1139 -0.0044  0.1171
   19DG     O10  424   1.022   4.375   2.961  0.2900  0.1571 -0.3146
   19DG     C11  425   0.659   4.117   2.918  0.8860 -0.1535  0.1736
   19DG     C12  426   1.077   4.269   2.877  0.1810  0.0667  0.2279
   19DG     H13  427   0.691   4.031   2.976  0.0775 -0.2115  0.5500
   19DG     H14  428   0.592   4.172   2.985  1.8926  0.6371  0.5500
   19DG     H15  429   1.113   4.190   2.943  1.3685  1.1235  0.9110
   19DG     H16  430   1.169   4.310   2.834 -0.3298  1.5159  0.4608
   19DG     C17  431   0.771   4.215   2.902 -0.9898  0.3181 -0.3782
   19DG     C18  432   0.976   4.214   2.775 -0.0003 -0.1380 -0.4337
   19DG     O19  433   0.875   4.135   2.835  0.2377 -0.1739  0.2355
   19DG     H20  434   0.819   4.243   2.996  0.5567  0.2381 -1.1146
   19DG     H21  435   0.738   4.304   2.850  0.7522  0.9071 -0.5368
   19DG     H22  436   0.920   4.288   2.718  0.7248  0.0711 -0.8809
   19DG     H23  437   1.035   4.155   2.704 -0.2048 -0.1421 -0.6009
   20DG      C1  438   0.447   1.114   0.853  0.3151  0.1919 -0.0151
   20DG      C2  439   1.070   1.170   1.195 -0.3300 -0.1151  0.4942
   20DG      H3  440   0.338   1.109   0.857  0.0075  2.7264 -2.2255
   20DG      H4  441   0.482   1.011   0.866 -2.6220 -1.2257 -2.3080
   20DG      H5  442   0.466   1.140   0.749  1.0635 -1.1385 -0.2284
   20DG      H6  443   1.080   1.230   1.105 -0.7714 -0.2767  0.3350
   20DG      H7  444   1.122   1.221   1.276 -1.5453  0.6495  0.8196
   20DG      H8  445   1.104   1.068   1.176 -2.0004 -0.4183 -1.1097
   20DG      O9  446   0.494   1.198   0.963  0.0003 -0.0765  0.1623
   20DG     O10  447   0.936   1.166   1.235 -0.1665  0.0268  0.6069
   20DG     C11  448   0.452   1.143   1.089 -0.7440  0.0724  0.6765
   20DG     C12  449   0.874   1.281   1.290 -0.0509 -0.0711 -0.1183
   20DG     H13  450   0.473   1.037   1.103 -2.4091 -0.1610  1.6499
   20DG     H14  451   0.343   1.140   1.092 -0.7963 -3.1403 -0.5873
   20DG     H15  452   0.888   1.370   1.228 -0.2975  0.2065  0.2184
   20DG     H16  453   0.916   1.309   1.386 -0.4170 -0.6411  0.2131
   20DG     C17  454   0.521   1.204   1.209  0.2166  0.7253 -0.3599
   20DG     C18  455   0.728   1.267   1.300  0.1047 -0.0058 -0.4029
   20DG     O19  456   0.666   1.190   1.199  0.0162 -0.2750 -0.4914
   20DG     H20  457   0.475   1.169   1.301  0.0792  0.3226 -0.5801
   20DG     H21  458   0.495   1.310   1.210 -1.9779  0.2377 -0.5335
   20DG     H22  459   0.725   1.212   1.395  4.8288 -0.0569 -0.0088
   20DG     H23  460   0.685   1.365   1.320 -0.9299 -0.7447  1.2562
   21DG      C1  461   1.784   3.457   0.221  0.3538 -0.5517 -0.1902
   21DG      C2  462   2.471   3.222   0.331  0.0456 -0.2938  1.0449
   21DG      H3  463   1.806   3.557   0.257 -3.4201  0.1427  0.6917
   21DG      H4  464   1.702   3.419   0.282 -0.3950 -3.2196 -2.6383
   21DG      H5  465   1.746   3.470   0.120 -0.7228  2.2830  0.4739
   21DG      H6  466   2.510   3.323   0.317 -0.1516 -0.3533 -0.0777
   21DG      H7  467   2.465   3.209   0.439 -1.9492  0.0640  1.0230
   21DG      H8  468   2.543   3.154   0.285 -0.8986 -1.1005  0.7227
   21DG      O9  469   1.908   3.387   0.227  0.4853 -0.0283 -0.3583
   21DG     O10  470   2.338   3.217   0.275 -0.0578  0.4996 -0.5329
   21DG     C11  471   1.879   3.250   0.195 -0.2204  0.1922 -0.0308
   21DG     C12  472   2.347   3.231   0.131 -0.7443  0.2765  0.1512
   21DG     H13  473   1.785   3.231   0.142 -0.1863 -0.6441  0.1991
   21DG     H14  474   1.871   3.175   0.274 -1.3946  1.4153  1.0835
   21DG     H15  475   2.422   3.168   0.083 -1.6623  0.1418 -1.1757
   21DG     H16  476   2.366   3.330   0.089  1.4241 -0.7665 -1.5919
   21DG     C17  477   1.985   3.193   0.105 -0.2157  0.0015  0.4416
   21DG     C18  478   2.212   3.188   0.076  0.5033 -0.2016  0.0671
   21DG     O19  479   2.106   3.237   0.152 -0.1028 -0.1591 -0.6924
   21DG     H20  480   1.973   3.249   0.012  0.2774  1.3082  1.1357
   21DG     H21  481   1.978   3.085   0.091 -1.0551 -0.3629  3.1315
   21DG     H22  482   2.194   3.233  -0.022 -0.1310 -0.3150  0.1310
   21DG     H23  483   2.198   3.081   0.062  0.3660 -0.1244 -0.4096
   22DG      C1  484   4.654   2.386   1.978  0.6620  0.3866 -0.1760
   22DG      C2  485   5.082   1.913   2.337  0.1687  0.5274  0.0067
   22DG      H3  486   4.562   2.332   1.955  0.0849 -0.2197  3.0871
   22DG      H4  487   4.661   2.465   1.903  1.6189  0.3329 -0.1524
   22DG      H5  488   4.642   2.428   2.078  1.7978  0.9516 -0.2725
   22DG      H6  489   5.188   1.925   2.360  0.6543 -1.3421 -1.0226
   22DG      H7  490   5.017   1.977   2.397 -2.5442 -1.4995 -0.5933
   22DG      H8  491   5.064   1.810   2.369  0.6805  0.3286 -0.3291
   22DG      O9  492   4.770   2.310   1.972  0.0355  0.1068  0.3237
   22DG     O10  493   5.058   1.930   2.198  0.2900 -0.2438  0.2945
   22DG     C11  494   4.742   2.185   1.919  0.3448 -0.3460  0.1102
   22DG     C12  495   5.143   2.025   2.135 -0.1530 -0.1312 -0.1766
   22DG     H13  496   4.684   2.178   1.827 -2.5930  0.5469  1.7792
   22DG     H14  497   4.687   2.139   2.001  1.0345  0.3878  1.0119
   22DG     H15  498   5.246   1.991   2.122 -1.0755 -2.7965 -1.2260
   22DG     H16  499   5.133   2.119   2.188 -2.6717  0.1036 -0.9061
   22DG     C17  500   4.873   2.108   1.894  0.2124  0.3461  0.0446
   22DG     C18  501   5.092   2.059   1.991  0.3437  0.0366  0.2332
   22DG     O19  502   4.967   2.133   2.002 -0.4932  0.5366 -0.3859
   22DG     H20  503   4.911   2.143   1.798 -0.8147 -0.4817 -0.6840
   22DG     H21  504   4.856   2.000   1.888 -0.5473  0.0970  3.9956
   22DG     H22  505   5.167   2.118   1.938  1.9614 -0.8694  1.3971
   22DG     H23  506   5.075   1.971   1.930  0.0732  1.1540 -1.3715
   23DG      C1  507   4.493   5.036   3.493  0.0595  0.4181  1.1285
   23DG      C2  508   4.550   4.894   4.188 -0.3060 -0.0410  0.4383
   23DG      H3  509   4.501   5.103   3.407 -1.9616  1.3193  1.5949
   23DG      H4  510   4.394   5.061   3.529 -0.0283 -1.0903  1.9902
   23DG      H5  511   4.486   4.932   3.462 -2.1853  0.0812  2.5834
   23DG      H6  512   4.477   4.975   4.181 -0.6576 -0.2314  1.6309
   23DG      H7  513   4.483   4.809   4.175  1.3882 -1.3474  0.0066
   23DG      H8  514   4.607   4.897   4.281  0.6963 -0.2733 -0.1633
   23DG      O9  515   4.590   5.060   3.594 -0.0607 -0.4335  0.3487
   23DG     O10  516   4.634   4.889   4.075 -1.0361  0.2516 -0.2155
   23DG     C11  517   4.721   5.014   3.567 -0.6954 -0.7345 -0.5488
   23DG     C12  518   4.729   4.999   4.077 -0.1643  0.4776  0.3425
   23DG     H13  519   4.769   5.062   3.482 -1.4986 -2.0356 -1.7670
   23DG     H14  520   4.710   4.908   3.546 -0.5331 -0.3558 -2.7342
   23DG     H15  521   4.806   4.992   4.154  0.9741  0.0305 -0.8037
   23DG     H16  522   4.669   5.086   4.103  0.9637  0.9958  1.2864
   23DG     C17  523   4.797   5.032   3.701 -0.3871  0.3425  0.3504
   23DG     C18  524   4.803   5.022   3.939 -0.2373  0.0577 -0.1455
   23DG     O19  525   4.717   5.011   3.825 -0.3723 -0.3690 -0.1043
   23DG     H20  526   4.839   5.132   3.710  0.4389  0.1125 -0.7440
   23DG     H21  527   4.877   4.958   3.708 -0.5391  0.1155 -0.2121
   23DG     H22  528   4.853   5.119   3.939 -0.6883  0.2930 -0.2836
   23DG     H23  529   4.880   4.946   3.925  1.0965  1.6731 -2.2419
   24DG      C1  530   4.751   5.354   5.387 -0.0304  0.2799 -0.1250
   24DG      C2  531   4.585   4.878   4.861  0.6470  0.6025  0.0558
   24DG      H3  532   4.825   5.277   5.366 -1.4445 -1.0005 -0.6779
   24DG      H4  533   4.724   5.341   5.492  2.1122  0.1431  0.4594
   24DG      H5  534   4.795   5.452   5.376 -0.0143  0.4304  1.1163
   24DG      H6  535   4.506   4.833   4.801 -0.7964  3.8656 -0.7084
   24DG      H7  536   4.645   4.935   4.791  1.5708  0.4633  0.7147
   24DG      H8  537   4.648   4.793   4.885 -2.4134 -1.9635 -0.2487
   24DG      O9  538   4.646   5.352   5.299  0.3488  0.5837  0.3668
   24DG     O10  539   4.548   4.941   4.982  0.5920  0.2308  0.5429
   24DG     C11  540   4.690   5.331   5.166 -0.2464 -0.5071  0.6808
   24DG     C12  541   4.439   5.025   4.966  0.3897 -0.0090 -0.1145
   24DG     H13  542   4.775   5.263   5.153  3.2703  3.6756 -0.8503
   24DG     H14  543   4.718   5.426   5.121 -0.6684 -0.1246  1.2200
   24DG     H15  544   4.350   4.972   4.931  1.3714 -0.6548 -1.7229
   24DG     H16  545   4.457   5.094   4.883  0.5815 -1.2733 -1.1677
   24DG     C17  546   4.588   5.266   5.083  0.3670  0.0754  0.0278
   24DG     C18  547   4.429   5.091   5.109  0.2141  0.3642 -0.1103
   24DG     O19  548   4.552   5.148   5.153 -0.3257  0.0584  0.2049
   24DG     H20  549   4.618   5.237   4.983  1.5588 -2.1939  0.9616
   24DG     H21  550   4.508   5.337   5.062 -0.2312 -1.4031 -3.2414
   24DG     H22  551   4.351   5.167   5.108  2.2156  2.5223 -1.2284
   24DG     H23  552   4.405   5.017   5.185  0.5520  2.1549  1.8377
   25DG      C1  553   0.102   1.842   1.459 -0.0992  0.1547 -0.0195
   25DG      C2  554   0.073   1.996   2.009  0.7159 -0.6116 -0.6004
   25DG      H3  555  -0.005   1.820   1.457  0.1370 -0.9887 -1.0323
   25DG      H4  556   0.143   1.774   1.385 -1.1098  0.1368 -0.5836
   25DG      H5  557   0.113   1.944   1.423 -1.6174  0.4272  0.2370
   25DG      H6  558  -0.033   2.019   2.000  0.7332  0.8517  1.9350
   25DG      H7  559   0.119   2.079   2.063  2.3011 -3.1595  2.2940
   25DG      H8  560   0.112   2.007   1.908  2.2845 -0.7181 -0.0379
   25DG      O9  561   0.176   1.830   1.583 -0.3752  0.0324 -0.9180
   25DG     O10  562   0.101   1.869   2.064  0.7336  0.2926  0.3947
   25DG     C11  563   0.207   1.697   1.624 -0.3029 -0.5194 -0.4416
   25DG     C12  564   0.243   1.848   2.085  0.0988  0.1788  0.5778
   25DG     H13  565   0.262   1.643   1.547 -0.1794  0.2548 -0.9036
   25DG     H14  566   0.123   1.630   1.644  1.1079 -2.1189  0.4710
   25DG     H15  567   0.247   1.763   2.154  2.8818  0.6933  1.1559
   25DG     H16  568   0.282   1.923   2.153  1.6167 -0.4320  0.4257
   25DG     C17  569   0.302   1.700   1.748 -0.2732  0.5026  0.2042
   25DG     C18  570   0.327   1.820   1.957 -0.1082  0.3161  0.1608
   25DG     O19  571   0.239   1.774   1.849 -0.6047  0.4350  0.0402
   25DG     H20  572   0.404   1.738   1.740 -0.6039  2.4231  3.2477
   25DG     H21  573   0.303   1.595   1.778  0.0802  0.8557  1.5196
   25DG     H22  574   0.373   1.909   1.913 -1.3262  0.3261 -1.1580
   25DG     H23  575   0.410   1.752   1.973  0.2735  0.8674  0.5414
   26DG      C1  576   5.303   2.450   4.702 -0.3498  0.4654 -0.2099
   26DG      C2  577   5.677   2.994   4.472  0.0769 -0.3144  0.6367
   26DG      H3  578   5.308   2.397   4.607 -1.0254  0.8248 -0.4468
   26DG      H4  579   5.199   2.437   4.731  0.2572 -0.3021  1.7608
   26DG      H5  580   5.375   2.401   4.768 -0.6988  2.3540  1.6342
   26DG      H6  581   5.784   3.015   4.463 -0.2239  0.5468 -1.8937
   26DG      H7  582   5.657   2.905   4.411  0.0974 -0.1434  0.3783
   26DG      H8  583   5.628   3.087   4.445  0.5522 -0.1882  0.1795
   26DG      O9  584   5.345   2.587   4.683 -0.3096  0.2140 -0.2782
   26DG     O10  585   5.662   2.963   4.611  0.0222 -0.0629 -0.2012
   26DG     C11  586   5.256   2.645   4.588 -1.1047  0.2635 -0.5573
   26DG     C12  587   5.544   3.028   4.666 -0.5649 -0.4177  0.0860
   26DG     H13  588   5.154   2.611   4.605 -2.1620  3.3717 -0.0240
   26DG     H14  589   5.280   2.611   4.487  1.0030  2.5354 -0.9137
   26DG     H15  590   5.570   3.134   4.666  1.6431 -0.9041  0.8758
   26DG     H16  591   5.538   2.995   4.770 -0.4827 -3.3339 -0.7316
   26DG     C17  592   5.267   2.797   4.590 -0.4936 -0.0777  0.6730
   26DG     C18  593   5.409   2.985   4.606  0.4413  0.5585  0.6114
   26DG     O19  594   5.399   2.842   4.620 -0.6495 -0.6706 -0.1284
   26DG     H20  595   5.200   2.836   4.667 -0.6917  1.0920 -0.0601
   26DG     H21  596   5.238   2.843   4.495 -2.5848 -3.0317 -0.2809
   26DG     H22  597   5.321   3.030   4.652  0.0508 -2.3043  2.9186
   26DG     H23  598   5.413   3.012   4.500  1.5389  0.3745  0.5959
   27DG      C1  599   3.396   1.409   3.325  0.5154  0.1760  0.2059
   27DG      C2  600   2.630   1.404   3.538  0.2245 -0.1504 -0.0387
   27DG      H3  601   3.480   1.346   3.297 -0.7551 -2.4640  1.9644
   27DG      H4  602   3.422   1.436   3.427  1.0542 -0.8963  0.3580
   27DG      H5  603   3.385   1.503   3.271  1.6824  1.1431  1.5941
   27DG      H6  604   2.594   1.477   3.464  2.5789  0.4346 -0.7001
   27DG      H7  605   2.543   1.350   3.576  0.9483 -0.5264  1.1422
   27DG      H8  606   2.680   1.457   3.619 -0.5618 -1.1355  1.1208
   27DG      O9  607   3.270   1.334   3.333 -0.0048  0.4774  0.4224
   27DG     O10  608   2.713   1.311   3.476 -0.6022 -0.0324  0.3714
   27DG     C11  609   3.224   1.274   3.221  0.4536 -0.0697  0.1849
   27DG     C12  610   2.829   1.364   3.424 -0.6811 -0.1211  0.3024
   27DG     H13  611   3.288   1.197   3.177  1.2488  0.1794  0.8920
   27DG     H14  612   3.213   1.356   3.149 -0.2959 -0.5488 -0.2672
   27DG     H15  613   2.895   1.418   3.491 -0.3599 -2.3796  1.9226
   27DG     H16  614   2.807   1.440   3.349  0.1334  1.2295  1.3987
   27DG     C17  615   3.092   1.207   3.259  0.2001 -0.2423  0.0785
   27DG     C18  616   2.898   1.246   3.361 -0.0862 -0.3370  0.1434
   27DG     O19  617   3.009   1.302   3.314  0.3075  0.2306  0.1955
   27DG     H20  618   3.115   1.130   3.333  0.6804  1.1415  1.4110
   27DG     H21  619   3.041   1.171   3.170 -0.2905  2.3429 -0.7669
   27DG     H22  620   2.911   1.165   3.434  0.9060 -1.8413 -1.6030
   27DG     H23  621   2.820   1.212   3.294  2.6445 -3.2857 -1.8525
   28DG      C1  622   1.767   5.479   3.947 -0.7920 -0.1427  0.0470
   28DG      C2  623   1.485   6.066   4.158 -0.0828 -0.0670  0.1316
   28DG      H3  624   1.739   5.513   3.847  1.1455 -0.1271 -0.5325
   28DG      H4  625   1.766   5.370   3.939  0.9186 -0.1823 -0.1902
   28DG      H5  626   1.873   5.506   3.950 -0.4882 -0.7228 -2.5770
   28DG      H6  627   1.500   6.143   4.235 -2.5711  0.2423  0.3729
   28DG      H7  628   1.521   6.104   4.062  1.4501 -3.3243 -0.7260
   28DG      H8  629   1.378   6.050   4.159 -0.1050  0.0699  0.8880
   28DG      O9  630   1.691   5.535   4.044 -0.8734  0.2712  0.2558
   28DG     O10  631   1.553   5.943   4.194  0.4646  0.2487  0.0647
   28DG     C11  632   1.711   5.478   4.168  0.2023 -0.4215 -0.3863
   28DG     C12  633   1.501   5.884   4.309  0.9344 -0.7271 -0.1491
   28DG     H13  634   1.810   5.505   4.206  0.0187  0.0413 -0.2279
   28DG     H14  635   1.679   5.374   4.166  1.1220 -0.7076 -0.9076
   28DG     H15  636   1.407   5.843   4.273 -0.2716 -0.0296  2.0445
   28DG     H16  637   1.471   5.951   4.389  4.3742 -1.2152  1.7645
   28DG     C17  638   1.622   5.555   4.267  1.0036 -0.1039 -0.4693
   28DG     C18  639   1.583   5.774   4.360 -0.7487 -0.6711 -0.0620
   28DG     O19  640   1.649   5.691   4.258 -0.5663  0.2869  0.0776
   28DG     H20  641   1.647   5.532   4.371 -1.6066 -1.3526 -0.0328
   28DG     H21  642   1.516   5.538   4.245  0.6429  0.7562  0.5467
   28DG     H22  643   1.664   5.816   4.419  0.2199  0.3931 -2.0418
   28DG     H23  644   1.515   5.713   4.419  1.3831 -4.0314 -0.7921
   29DG      C1  645   1.752   4.928   5.063  0.0638 -0.3602  0.4210
   29DG      C2  646   2.217   4.427   4.647  0.2660 -0.1570  0.5854
   29DG      H3  647   1.670   4.937   4.992 -1.1150 -1.7306  1.5278
   29DG      H4  648   1.745   5.017   5.125 -0.8973 -0.6084  0.6919
   29DG      H5  649   1.733   4.838   5.121 -1.0180  0.5613  1.5668
   29DG      H6  650   2.179   4.444   4.546 -0.8850 -3.8923  0.2225
   29DG      H7  651   2.319   4.463   4.654  0.2699  0.0033 -0.1888
   29DG      H8  652   2.217   4.319   4.661  1.8450 -0.0013  2.1015
   29DG      O9  653   1.880   4.934   5.006  0.3775  0.1265  0.8779
   29DG     O10  654   2.153   4.502   4.751  0.5075 -0.0002  0.3634
   29DG     C11  655   1.975   4.856   5.076 -0.2290  0.0231 -0.1923
   29DG     C12  656   2.014   4.474   4.770  0.5361  0.1134  0.6343
   29DG     H13  657   1.964   4.867   5.184  2.2348 -0.4942  0.1876
   29DG     H14  658   2.071   4.895   5.043  0.9577 -0.6303  2.2341
   29DG     H15  659   1.985   4.368   4.768 -0.8877  0.4911  0.0937
   29DG     H16  660   1.964   4.519   4.684  0.2962 -1.5257 -0.1246
   29DG     C17  661   1.968   4.697   5.056 -0.2903  0.0224  0.3316
   29DG     C18  662   1.957   4.524   4.900 -0.2733  0.0032 -0.7757
   29DG     O19  663   1.976   4.670   4.919  0.1687  0.4635  0.5985
   29DG     H20  664   1.873   4.664   5.100 -0.2074 -1.3145 -0.4390
   29DG     H21  665   2.044   4.648   5.118  0.4517  0.1369 -0.4736
   29DG     H22  666   1.851   4.499   4.902 -0.1678 -0.3885  0.8892
   29DG     H23  667   1.998   4.465   4.982  1.2212 -0.6174 -1.9230
   30DG      C1  668   0.969   5.446   1.409 -0.0146  0.0449  0.0562
   30DG      C2  669   1.568   5.156   1.485 -0.1924 -0.1260 -1.0150
   30DG      H3  670   1.040   5.528   1.419 -0.4912  0.3968  0.5370
   30DG      H4  671   0.922   5.422   1.504 -1.6533 -0.6944 -0.9074
   30DG      H5  672   0.890   5.468   1.337 -0.6493 -0.4433  0.5937
   30DG      H6  673   1.581   5.245   1.424  1.1218 -0.2941 -1.0043
   30DG      H7  674   1.570   5.182   1.591  0.2565 -1.1825 -0.7465
   30DG      H8  675   1.652   5.090   1.467  0.1077 -0.2329  0.6322
   30DG      O9  676   1.047   5.332   1.371  0.0615 -0.1672  0.3736
   30DG     O10  677   1.443   5.088   1.465 -0.2083  0.5691 -0.0349
   30DG     C11  678   1.074   5.323   1.235  0.2724  0.2086  0.6221
   30DG     C12  679   1.431   5.036   1.333  0.2503 -0.0388  0.0825
   30DG     H13  680   1.129   5.413   1.205  0.9137 -0.8147 -1.4062
   30DG     H14  681   0.987   5.326   1.170  1.3640 -0.0479 -0.8976
   30DG     H15  682   1.471   4.935   1.332  1.9215  0.5953 -0.0670
   30DG     H16  683   1.477   5.099   1.257  2.2889  0.0354  1.2777
   30DG     C17  684   1.145   5.192   1.192  0.3817  0.8764 -0.7340
   30DG     C18  685   1.288   5.021   1.290  0.8569  0.4863 -0.4638
   30DG     O19  686   1.222   5.145   1.307 -0.0385 -0.3580  0.1038
   30DG     H20  687   1.216   5.210   1.111 -0.3056 -1.1647 -1.8952
   30DG     H21  688   1.073   5.120   1.152  1.1965  0.3351 -1.2553
   30DG     H22  689   1.292   4.978   1.190 -0.0111 -1.6689  0.3708
   30DG     H23  690   1.233   4.946   1.347  0.2366  0.0357 -1.6190
   31DG      C1  691   2.236   4.238   1.713  0.7352  0.2907 -0.0413
   31DG      C2  692   2.208   3.765   2.222 -0.5618  0.3862  0.0209
   31DG      H3  693   2.314   4.313   1.704  2.1506 -0.9913  0.9853
   31DG      H4  694   2.146   4.289   1.746  1.1220  0.4194  0.8367
   31DG      H5  695   2.208   4.203   1.613 -1.9002 -0.0275  0.7550
   31DG      H6  696   2.133   3.834   2.261 -1.3113  0.0843 -0.8594
   31DG      H7  697   2.167   3.716   2.134 -0.6890  0.1595  0.2039
   31DG      H8  698   2.226   3.680   2.288  2.3803 -0.7970 -2.0860
   31DG      O9  699   2.264   4.120   1.794 -0.0111 -0.1357  0.8641
   31DG     O10  700   2.323   3.845   2.188  0.8059  0.7527  0.0535
   31DG     C11  701   2.387   4.056   1.749  0.1513  0.3487  1.5134
   31DG     C12  702   2.424   3.793   2.102  0.3622  0.5724 -0.1630
   31DG     H13  703   2.466   4.131   1.741  0.2829  0.0941  0.1818
   31DG     H14  704   2.366   4.016   1.650  2.4647  0.1098  1.0728
   31DG     H15  705   2.381   3.729   2.024  1.0094 -0.1041  0.0203
   31DG     H16  706   2.488   3.729   2.163  1.7195  1.0055 -1.0961
   31DG     C17  707   2.429   3.946   1.839  0.0549  0.2075 -0.3841
   31DG     C18  708   2.506   3.912   2.054 -0.2381 -0.6560 -0.8797
   31DG     O19  709   2.442   3.999   1.969 -0.1919 -0.1924  0.4227
   31DG     H20  710   2.517   3.899   1.793  0.5586  1.3254 -0.5828
   31DG     H21  711   2.358   3.864   1.848  2.6887 -2.0481  1.7970
   31DG     H22  712   2.547   3.969   2.137  1.9075 -0.8996 -1.7240
   31DG     H23  713   2.602   3.871   2.024  0.3371 -2.3170  2.6682
   32DG      C1  714   2.306   0.060   5.223  0.0749 -0.0160  0.0695
   32DG      C2  715   2.646  -0.309   5.608 -0.0438 -0.2031 -0.0365
   32DG      H3  716   2.391   0.035   5.160 -0.0037  0.6077 -0.2917
   32DG      H4  717   2.295   0.169   5.221 -0.3475 -0.0647 -0.5431
   32DG      H5  718   2.216   0.015   5.181 -0.6307  1.5156 -0.1333
   32DG      H6  719   2.709  -0.281   5.523 -0.6155 -0.7493 -0.6502
   32DG      H7  720   2.712  -0.351   5.685  0.5093  1.5083  0.4669
   32DG      H8  721   2.576  -0.384   5.571  2.0085 -1.1443 -2.2892
   32DG      O9  722   2.319   0.025   5.354 -0.2098  0.8511 -0.4686
   32DG     O10  723   2.582  -0.189   5.633  0.2625 -0.5051 -0.1422
   32DG     C11  724   2.209   0.060   5.444 -0.1186  0.4842  0.4065
   32DG     C12  725   2.481  -0.204   5.729  0.3369  0.3141 -0.4358
   32DG     H13  726   2.127  -0.008   5.421 -0.1675  0.5114  0.5015
   32DG     H14  727   2.162   0.153   5.415 -0.4003  0.5464  1.0444
   32DG     H15  728   2.528  -0.216   5.827  2.2318 -0.1224 -1.3348
   32DG     H16  729   2.416  -0.291   5.722 -0.8290  1.0895  0.3754
   32DG     C17  730   2.252   0.052   5.589  0.5807  0.3121 -0.1267
   32DG     C18  731   2.393  -0.079   5.734  0.3163  0.1883 -0.8152
   32DG     O19  732   2.322  -0.068   5.615 -0.4859  0.1374 -0.4168
   32DG     H20  733   2.167   0.063   5.657  1.5823  1.2561  1.0268
   32DG     H21  734   2.303   0.146   5.614  0.3132  0.4012  0.0949
   32DG     H22  735   2.322  -0.091   5.816  0.4363  0.2143 -0.7084
   32DG     H23  736   2.452   0.010   5.755 -0.8487  0.5684  1.1087
   33DG      C1  737   2.430   4.912   4.276  0.4533 -0.1830 -0.6856
   33DG      C2  738   2.029   5.241   4.648 -0.0313  0.3801 -0.2022
   33DG      H3  739   2.474   5.009   4.298 -0.0838  0.0190 -0.5083
   33DG      H4  740   2.377   4.924   4.181  0.2725  0.7712 -0.4735
   33DG      H5  741   2.515   4.847   4.252  1.8716  0.5833  1.8695
   33DG      H6  742   1.934   5.247   4.701  1.3689 -0.4978  2.5716
   33DG      H7  743   2.111   5.248   4.719 -1.2406 -0.1358  1.2992
   33DG      H8  744   2.033   5.320   4.572  0.1971  0.3003 -0.2744
   33DG      O9  745   2.369   4.877   4.395  0.0501 -0.5168  0.0475
   33DG     O10  746   2.038   5.113   4.588 -0.1699  0.1499 -0.2089
   33DG     C11  747   2.265   4.788   4.366  0.2982 -0.0581 -0.1455
   33DG     C12  748   2.000   5.011   4.683  0.1643  0.7202  0.3848
   33DG     H13  749   2.306   4.700   4.315  0.3557  0.7429 -1.5310
   33DG     H14  750   2.199   4.838   4.295 -0.6268 -1.5125 -0.3549
   33DG     H15  751   1.904   5.023   4.734  0.1262 -0.0496  0.5004
   33DG     H16  752   2.072   5.020   4.765  1.7489 -1.5786 -0.6474
   33DG     C17  753   2.189   4.756   4.499 -0.2066  0.6885  0.7187
   33DG     C18  754   2.015   4.873   4.621 -0.5577  0.7125  0.4877
   33DG     O19  755   2.138   4.877   4.558  0.0101 -0.5686  0.3177
   33DG     H20  756   2.262   4.717   4.569 -1.5544  0.3998  2.0018
   33DG     H21  757   2.109   4.686   4.475 -0.6552  2.4259 -3.8453
   33DG     H22  758   2.012   4.796   4.699 -0.9263  0.7490  0.5130
   33DG     H23  759   1.928   4.851   4.559  0.4177 -1.0086 -0.3279
   34DG      C1  760   0.662   5.174   2.171  0.3616  0.1079  0.5036
   34DG      C2  761   0.698   4.440   2.099 -0.2019 -0.7636  0.3119
   34DG      H3  762   0.574   5.193   2.233 -0.6099 -0.4240 -0.6576
   34DG      H4  763   0.692   5.268   2.125 -0.5453  0.3179  0.3258
   34DG      H5  764   0.740   5.134   2.235  0.5374  1.1627  0.9637
   34DG      H6  765   0.771   4.427   2.179  0.3775  1.4335  0.1960
   34DG      H7  766   0.601   4.452   2.147 -1.5190 -0.2881 -2.3092
   34DG      H8  767   0.703   4.351   2.036 -0.1241 -0.2929 -0.3575
   34DG      O9  768   0.632   5.087   2.074 -0.1302  0.5550  0.4073
   34DG     O10  769   0.729   4.566   2.040  0.2887 -0.7473 -0.5199
   34DG     C11  770   0.740   5.043   1.996  0.4979 -0.0446  0.1948
   34DG     C12  771   0.634   4.591   1.936 -0.1606 -0.2252  0.8435
   34DG     H13  772   0.813   4.993   2.060  1.6075 -0.1669 -1.1275
   34DG     H14  773   0.792   5.126   1.949 -0.3023 -0.1821 -0.9667
   34DG     H15  774   0.541   4.626   1.982  0.0326  1.5392 -0.0473
   34DG     H16  775   0.620   4.505   1.871 -1.5429  1.1310 -0.7250
   34DG     C17  776   0.700   4.948   1.888  0.2073 -0.0881  0.9319
   34DG     C18  777   0.685   4.707   1.853  0.9183  0.3999  0.1372
   34DG     O19  778   0.688   4.819   1.941  0.1437 -0.2114 -0.2437
   34DG     H20  779   0.782   4.923   1.821 -2.4004 -2.0139 -1.8708
   34DG     H21  780   0.612   4.973   1.828  1.5424 -1.7888 -1.9509
   34DG     H22  781   0.792   4.695   1.840  0.8867  0.1977  0.0528
   34DG     H23  782   0.621   4.744   1.772  1.0731  0.1121 -0.1181
   35DG      C1  783   4.971   3.873   4.490 -0.1910  0.6115  0.4601
   35DG      C2  784   4.830   3.891   3.914 -0.0570 -0.1959 -0.4923
   35DG      H3  785   5.041   3.864   4.573  1.1119  2.4708 -0.3712
   35DG      H4  786   4.866   3.864   4.520  0.0757 -1.7218  0.9018
   35DG      H5  787   4.988   3.975   4.454 -1.5198  0.0574 -1.9984
   35DG      H6  788   4.805   3.990   3.952 -0.2429 -1.2106  2.1925
   35DG      H7  789   4.937   3.904   3.902  0.0227 -1.4872 -1.4183
   35DG      H8  790   4.789   3.882   3.813 -3.9566  0.0010  0.9111
   35DG      O9  791   5.005   3.795   4.377 -0.4092  0.0934  0.1217
   35DG     O10  792   4.804   3.790   4.003 -0.0072 -0.3227 -0.2512
   35DG     C11  793   4.997   3.654   4.390  0.4215  0.3929  0.5279
   35DG     C12  794   4.868   3.665   3.975  0.5062  0.7899 -0.0881
   35DG     H13  795   4.913   3.639   4.459 -1.0982  2.7305 -0.6446
   35DG     H14  796   5.088   3.626   4.442  0.1619  1.0889  1.3877
   35DG     H15  797   4.976   3.677   3.963  0.2506  0.7967 -3.2309
   35DG     H16  798   4.824   3.648   3.877  0.3964 -1.8149  0.3289
   35DG     C17  799   4.983   3.581   4.254  0.7067  0.6430  0.1509
   35DG     C18  800   4.826   3.565   4.078  0.0788 -0.0112 -0.4706
   35DG     O19  801   4.856   3.621   4.201 -0.3295 -0.1215 -0.1607
   35DG     H20  802   4.977   3.473   4.264  0.1953  0.5424 -1.0095
   35DG     H21  803   5.067   3.605   4.189 -0.3670  1.1358 -1.1025
   35DG     H22  804   4.717   3.552   4.077  0.0394  0.1187  0.6273
   35DG     H23  805   4.883   3.474   4.058 -0.0687  0.1260 -1.6017
   36DG      C1  806   3.262   0.545   3.785 -0.1992 -0.0687 -0.0306
   36DG      C2  807   3.318   0.443   4.218 -0.3922  0.4461  0.7673
   36DG      H3  808   3.259   0.500   3.884 -1.6338 -1.1571 -0.5265
   36DG      H4  809   3.166   0.521   3.739  0.6691 -1.0557 -1.3930
   36DG      H5  810   3.266   0.651   3.810  2.3917 -0.4195  1.3128
   36DG      H6  811   3.241   0.367   4.198  1.3645 -1.1212 -0.3514
   36DG      H7  812   3.362   0.424   4.316  0.8801  1.1098  0.3362
   36DG      H8  813   3.276   0.540   4.245  2.3716  0.7910  4.7662
   36DG      O9  814   3.367   0.492   3.710  0.5054 -0.6295  0.2634
   36DG     O10  815   3.414   0.448   4.115  0.0561  0.1031  0.0842
   36DG     C11  816   3.474   0.578   3.682  0.5186  0.6068 -0.6882
   36DG     C12  817   3.521   0.531   4.149 -0.3250 -0.0814  0.1911
   36DG     H13  818   3.436   0.679   3.669 -2.5102 -0.4402 -0.6993
   36DG     H14  819   3.506   0.545   3.583 -2.3634  0.0356 -1.5400
   36DG     H15  820   3.574   0.493   4.237  3.5209  2.7523 -0.6694
   36DG     H16  821   3.493   0.629   4.186 -0.1405 -0.7993  2.3852
   36DG     C17  822   3.585   0.565   3.781  0.1260 -0.0417  0.8243
   36DG     C18  823   3.607   0.539   4.020 -0.4569  0.2149 -0.3215
   36DG     O19  824   3.524   0.564   3.908 -0.3433  0.8042 -0.2831
   36DG     H20  825   3.664   0.640   3.767 -1.5046  2.4662  3.7421
   36DG     H21  826   3.642   0.473   3.777  2.8344  1.5698 -0.1692
   36DG     H22  827   3.694   0.606   4.019 -1.2068  1.2395  0.3778
   36DG     H23  828   3.650   0.441   4.000 -1.1945  0.0110 -0.9366
   37DG      C1  829   2.677   1.587   1.673 -0.0950 -1.3115  0.4832
   37DG      C2  830   3.188   0.831   1.462  0.3943  0.3604  0.6481
   37DG      H3  831   2.579   1.634   1.673  0.8383  0.7485 -0.0281
   37DG      H4  832   2.736   1.649   1.606  1.0885 -1.4239  1.3825
   37DG      H5  833   2.718   1.589   1.774  1.4974  1.2137 -0.1046
   37DG      H6  834   3.227   0.783   1.373  0.1823 -1.7867  1.6439
   37DG      H7  835   3.266   0.897   1.501  1.3693 -0.8459  0.7956
   37DG      H8  836   3.157   0.762   1.540  0.3700 -1.0771 -0.5863
   37DG      O9  837   2.658   1.452   1.624  0.3689 -0.8421 -0.4408
   37DG     O10  838   3.066   0.898   1.431 -0.2439 -0.3195 -0.0209
   37DG     C11  839   2.787   1.384   1.628  1.8076 -0.0243 -0.1631
   37DG     C12  840   3.020   0.975   1.551 -0.3316  0.3180 -0.0891
   37DG     H13  841   2.843   1.374   1.721  0.7972 -2.8651  0.2338
   37DG     H14  842   2.864   1.437   1.572  1.8204 -1.0134 -1.1172
   37DG     H15  843   3.103   1.035   1.589 -0.6389  1.5691 -1.3094
   37DG     H16  844   2.974   0.906   1.621 -1.0838  1.3949  0.4981
   37DG     C17  845   2.765   1.240   1.572 -0.3879 -0.3768 -0.4221
   37DG     C18  846   2.910   1.072   1.507 -0.0600 -0.3033 -0.4166
   37DG     O19  847   2.887   1.175   1.603  0.9685 -0.2209 -0.0743
   37DG     H20  848   2.744   1.245   1.466 -2.0791 -1.5135 -0.1889
   37DG     H21  849   2.677   1.194   1.618 -0.5932  0.2118 -0.2081
   37DG     H22  850   2.946   1.116   1.415  0.9240  1.6989  0.8448
   37DG     H23  851   2.817   1.019   1.485 -0.4920  0.2173  0.1129
   38DG      C1  852   0.407   0.536   3.463 -0.0525 -0.7665 -0.5774
   38DG      C2  853  -0.284   0.637   3.761  0.1434  1.0197  0.0780
   38DG      H3  854   0.446   0.451   3.408  1.6216  2.2011 -4.4353
   38DG      H4  855   0.390   0.522   3.570 -0.2011  1.3222 -0.2759
   38DG      H5  856   0.474   0.623   3.456 -1.3527  0.8097  3.4833
   38DG      H6  857  -0.283   0.745   3.773  1.5016  0.9772  0.4705
   38DG      H7  858  -0.389   0.607   3.763  0.2500  0.5443 -0.7865
   38DG      H8  859  -0.240   0.592   3.850  1.1267 -1.6058 -1.6043
   38DG      O9  860   0.279   0.574   3.416 -0.0063 -0.3044  0.5047
   38DG     O10  861  -0.209   0.579   3.661 -0.3372  0.2127 -0.3666
   38DG     C11  862   0.205   0.453   3.375  0.5268  0.2409  0.1741
   38DG     C12  863  -0.231   0.657   3.537 -0.1958  0.5670  0.3065
   38DG     H13  864   0.196   0.381   3.457  0.9466 -1.2446 -1.0412
   38DG     H14  865   0.246   0.414   3.282 -0.7811 -1.3382  0.2051
   38DG     H15  866  -0.190   0.757   3.553  1.5832  0.2188 -1.7017
   38DG     H16  867  -0.339   0.655   3.522 -0.1782 -2.5320  0.0677
   38DG     C17  868   0.056   0.500   3.345 -0.0336  0.4398 -0.6891
   38DG     C18  869  -0.157   0.602   3.414 -0.3099 -0.1686 -0.1540
   38DG     O19  870  -0.019   0.577   3.446 -0.0128 -0.1557 -0.0403
   38DG     H20  871  -0.008   0.415   3.321  0.2773 -0.1695  0.5795
   38DG     H21  872   0.068   0.568   3.260 -0.7188  1.2074 -0.1881
   38DG     H22  873  -0.197   0.503   3.393  0.2848  0.3076 -4.3692
   38DG     H23  874  -0.159   0.673   3.331 -2.5288 -1.0117 -0.9135
   39DG      C1  875   4.214   1.160   5.120 -0.4567 -0.5184  0.5019
   39DG      C2  876   3.570   1.076   4.870 -0.0693  0.2376 -0.3717
   39DG      H3  877   4.189   1.103   5.209 -3.1996 -0.2131  0.0202
   39DG      H4  878   4.173   1.261   5.131  1.3372  0.3592 -0.4354
   39DG      H5  879   4.318   1.186   5.102 -0.5140  2.2961  3.3063
   39DG      H6  880   3.569   1.172   4.921  0.5383  0.7968 -1.3646
   39DG      H7  881   3.507   1.094   4.783 -0.4037 -1.4426 -0.5242
   39DG      H8  882   3.514   1.016   4.940 -2.0942  0.7131 -1.5118
   39DG      O9  883   4.152   1.100   5.003 -0.0147  0.2433  0.0522
   39DG     O10  884   3.708   1.053   4.848 -0.2601  0.0311 -0.2160
   39DG     C11  885   4.178   0.959   4.990  0.0598 -0.1136 -0.3615
   39DG     C12  886   3.736   0.922   4.800 -0.5218  0.2212 -0.0406
   39DG     H13  887   4.148   0.904   5.079 -0.9738 -0.6847 -1.0343
   39DG     H14  888   4.285   0.946   4.977  0.0659 -0.3910 -0.0658
   39DG     H15  889   3.677   0.893   4.713 -1.4278 -0.1173  0.6759
   39DG     H16  890   3.700   0.842   4.865  0.0888  0.7498  0.9694
   39DG     C17  891   4.100   0.919   4.869  0.6988  0.4243  1.1008
   39DG     C18  892   3.886   0.901   4.774 -0.0531  0.0973  0.0631
   39DG     O19  893   3.963   0.951   4.878 -0.3165 -0.2579 -0.2031
   39DG     H20  894   4.123   0.813   4.854 -1.2111 -0.0329  1.1462
   39DG     H21  895   4.140   0.957   4.775 -0.1666 -3.1354 -0.9019
   39DG     H22  896   3.905   0.797   4.748  0.9277 -0.0453  1.2686
   39DG     H23  897   3.917   0.950   4.682  0.8860 -0.1099  0.2594
   40DG      C1  898   0.727   0.598   0.226 -0.0290 -0.0825 -0.3163
   40DG      C2  899   0.986   1.201   0.143  0.5252 -0.2622 -0.0612
   40DG      H3  900   0.835   0.587   0.227 -0.0637 -0.4982 -0.6700
   40DG      H4  901   0.687   0.501   0.195  0.5950 -0.5670  0.3457
   40DG      H5  902   0.683   0.636   0.319 -0.9531 -0.9121 -0.3981
   40DG      H6  903   0.972   1.098   0.178  1.9122 -0.7708 -0.8956
   40DG      H7  904   1.086   1.220   0.103  0.8426 -2.3781 -0.4360
   40DG      H8  905   0.975   1.266   0.229  3.2340 -0.7485  0.7423
   40DG      O9  906   0.703   0.685   0.123  0.2275  0.3871 -0.8123
   40DG     O10  907   0.907   1.229   0.033 -0.1786 -0.1886  0.5518
   40DG     C11  908   0.766   0.809   0.142 -0.3400  0.5114  0.1537
   40DG     C12  909   0.940   1.167  -0.092 -0.1259  0.4012  0.6071
   40DG     H13  910   0.869   0.793   0.174  0.0242 -0.3211 -1.3206
   40DG     H14  911   0.706   0.870   0.210 -0.1600  2.2308 -1.1808
   40DG     H15  912   1.042   1.133  -0.107 -0.3510  1.0852 -3.7152
   40DG     H16  913   0.909   1.236  -0.171 -2.1212 -0.9651  0.1274
   40DG     C17  914   0.766   0.855  -0.002 -0.4958 -0.9411 -0.7148
   40DG     C18  915   0.834   1.052  -0.110 -0.6101 -0.0474 -0.3913
   40DG     O19  916   0.845   0.979   0.012  0.1252  0.1864  0.3636
   40DG     H20  917   0.667   0.875  -0.042 -0.1674  1.0632 -0.6439
   40DG     H21  918   0.825   0.794  -0.070  0.3403  1.6134 -2.4692
   40DG     H22  919   0.735   1.090  -0.134  0.4004  2.4422 -1.0219
   40DG     H23  920   0.860   0.995  -0.200  1.7067 -0.6480  0.5780
   41DG      C1  921   2.922   0.942   1.169 -1.1583 -0.0377  0.4817
   41DG      C2  922   2.190   0.910   1.324 -0.0930  0.3020  0.2295
   41DG      H3  923   3.002   1.012   1.196 -0.0152 -1.4997  1.0268
   41DG      H4  924   2.937   0.904   1.068 -0.5140 -1.3849  1.0642
   41DG      H5  925   2.918   0.863   1.244  0.5266  0.6513  1.3709
   41DG      H6  926   2.093   0.945   1.288 -1.3794 -2.5513  0.6243
   41DG      H7  927   2.194   0.809   1.283  1.0005  0.0412  0.9336
   41DG      H8  928   2.191   0.901   1.433 -0.9589  0.8653  0.2978
   41DG      O9  929   2.806   1.013   1.185 -0.2970  0.0320  0.6854
   41DG     O10  930   2.298   0.997   1.284 -0.1327  0.6714 -0.1473
   41DG     C11  931   2.762   1.074   1.061  0.1881 -0.5117 -0.3591
   41DG     C12  932   2.300   1.024   1.144 -0.1035 -0.3068  0.2875
   41DG     H13  933   2.742   1.001   0.982 -0.5277 -0.0375 -0.6219
   41DG     H14  934   2.840   1.137   1.019  2.5828 -1.0240  2.8731
   41DG     H15  935   2.197   1.054   1.124 -0.0005 -0.0667  0.1042
   41DG     H16  936   2.330   0.929   1.099  0.8153 -0.1598  0.5511
   41DG     C17  937   2.637   1.165   1.093  0.4890 -0.1977  0.1073
   41DG     C18  938   2.397   1.133   1.106  0.5556  0.6908 -0.3968
   41DG     O19  939   2.526   1.076   1.120 -0.3695 -0.1618 -0.4072
   41DG     H20  940   2.609   1.214   1.000 -0.3578  0.8019  0.8538
   41DG     H21  941   2.658   1.246   1.163 -0.3648 -0.6237  0.8836
   41DG     H22  942   2.377   1.151   1.001 -0.8670  0.7269 -0.1416
   41DG     H23  943   2.381   1.223   1.165  0.7711  0.9982 -0.8030
   42DG      C1  944   4.989   2.544   1.749  0.1916 -0.2724 -0.5354
   42DG      C2  945   4.820   2.214   2.313  0.3508 -0.2831 -0.2790
   42DG      H3  946   5.007   2.440   1.722 -0.6368 -0.5100 -0.2198
   42DG      H4  947   5.083   2.596   1.735  0.6052 -1.5880 -3.5040
   42DG      H5  948   4.904   2.573   1.687  0.6148 -1.0646 -1.5244
   42DG      H6  949   4.714   2.217   2.288 -0.3108 -4.2019  1.3468
   42DG      H7  950   4.863   2.135   2.251  0.6568  1.4576 -2.4328
   42DG      H8  951   4.841   2.196   2.418 -2.0686  0.8252  0.4650
   42DG      O9  952   4.959   2.551   1.889  0.0472 -0.1950 -0.4555
   42DG     O10  953   4.880   2.325   2.262 -0.2140 -0.5383  0.4322
   42DG     C11  954   4.930   2.680   1.937  0.6995 -0.0078 -0.0562
   42DG     C12  955   4.843   2.446   2.330 -0.5055 -0.4181  0.4400
   42DG     H13  956   4.826   2.702   1.912  0.4560  0.6963  1.4441
   42DG     H14  957   4.987   2.759   1.889  2.3763  0.4663  2.4961
   42DG     H15  958   4.876   2.425   2.431  1.4881 -0.5515 -0.1968
   42DG     H16  959   4.736   2.465   2.319 -0.1328  1.0201 -1.1656
   42DG     C17  960   4.938   2.685   2.095  0.2191 -0.1777 -0.2962
   42DG     C18  961   4.916   2.569   2.287 -0.3336 -0.1904 -0.1089
   42DG     O19  962   4.892   2.565   2.147  0.3452 -0.5711  0.1449
   42DG     H20  963   4.875   2.764   2.136  1.9690  1.4850 -0.6299
   42DG     H21  964   5.039   2.714   2.123 -0.9126  3.1190  0.8927
   42DG     H22  965   4.866   2.650   2.340 -2.4686 -1.7738  0.4220
   42DG     H23  966   5.020   2.571   2.319 -0.1035 -1.1538 -0.7506
   43DG      C1  967   5.371   3.416   5.413  0.7741 -0.1399 -0.3175
   43DG      C2  968   5.509   2.475   5.392  0.6222  0.1052  0.5302
   43DG      H3  969   5.393   3.508   5.467 -0.4607 -0.0498  0.0432
   43DG      H4  970   5.267   3.429   5.385 -0.2124 -1.3034  2.4876
   43DG      H5  971   5.427   3.431   5.320  0.0242  1.3482 -0.5508
   43DG      H6  972   5.556   2.393   5.446  2.2284  1.1805  0.8280
   43DG      H7  973   5.411   2.444   5.353  0.3400 -0.8318  1.9147
   43DG      H8  974   5.571   2.487   5.303 -0.6224 -0.0549 -0.3985
   43DG      O9  975   5.404   3.297   5.485  0.1864 -0.8088  0.5624
   43DG     O10  976   5.508   2.608   5.454  0.2794 -0.4497 -0.1301
   43DG     C11  977   5.394   3.187   5.403  0.8914  0.8821 -0.6804
   43DG     C12  978   5.467   2.715   5.366  0.0681  0.1305  0.8193
   43DG     H13  979   5.477   3.181   5.334  2.0725  0.6828  0.7098
   43DG     H14  980   5.303   3.179   5.343  0.5352 -2.1648  0.0869
   43DG     H15  981   5.369   2.700   5.319 -0.7791  3.9399  1.0811
   43DG     H16  982   5.545   2.742   5.295 -0.2103  1.3444  0.9530
   43DG     C17  983   5.409   3.066   5.494 -0.9503 -0.5579 -0.0363
   43DG     C18  984   5.473   2.835   5.463  0.1045  0.0244  0.1050
   43DG     O19  985   5.426   2.955   5.407  0.1789 -0.3073  0.5144
   43DG     H20  986   5.328   3.058   5.567 -0.8527  2.0055  0.4586
   43DG     H21  987   5.496   3.085   5.558 -0.6597  3.1039 -1.2770
   43DG     H22  988   5.422   2.810   5.556 -0.1685  1.8328  0.4681
   43DG     H23  989   5.579   2.844   5.486  0.6965 -1.3127 -1.8763
   44DG      C1  990   4.215   4.692   4.499 -0.4037  0.0344 -0.9581
   44DG      C2  991   3.744   4.336   4.043 -0.6566  0.1538  0.6040
   44DG      H3  992   4.184   4.736   4.405 -1.6401 -1.0469 -1.0766
   44DG      H4  993   4.319   4.719   4.520 -0.1670 -0.8140 -1.0222
   44DG      H5  994   4.158   4.743   4.577  4.4052 -0.5908  3.5680
   44DG      H6  995   3.728   4.239   3.995 -0.9652  0.4393  0.1304
   44DG      H7  996   3.644   4.376   4.062 -0.7953  2.0660 -3.3169
   44DG      H8  997   3.801   4.382   3.963  0.0823 -1.3890  0.1992
   44DG      O9  998   4.191   4.547   4.515  0.1061 -0.1059  0.3789
   44DG     O10  999   3.813   4.304   4.167  0.9419  0.1151 -0.0978
   44DG     C11 1000   4.255   4.463   4.411  0.5760 -0.3918  0.5821
   44DG     C12 1001   3.933   4.229   4.139 -0.0036  0.2165  0.0974
   44DG     H13 1002   4.355   4.447   4.451  0.4395 -1.1117  0.6500
   44DG     H14 1003   4.260   4.512   4.314  0.7179  0.7519  1.1509
   44DG     H15 1004   4.006   4.278   4.074 -1.0778 -1.3247 -2.4335
   44DG     H16 1005   3.916   4.129   4.100  0.3930  0.0272  0.4042
   44DG     C17 1006   4.185   4.327   4.392  0.6307  0.4704 -0.4220
   44DG     C18 1007   4.016   4.210   4.270  0.0178 -0.0837  1.1731
   44DG     O19 1008   4.069   4.339   4.305 -0.2268 -0.1514 -0.3593
   44DG     H20 1009   4.157   4.285   4.489  3.4260 -0.4635  0.0810
   44DG     H21 1010   4.254   4.258   4.344 -0.8676  0.6575 -3.0020
   44DG     H22 1011   3.951   4.177   4.351 -0.3101 -1.1367  0.4971
   44DG     H23 1012   4.085   4.128   4.249  0.6397  0.9746 -1.2548
   45DG      C1 1013   1.910   4.889   0.656  0.1658 -0.5424  0.2525
   45DG      C2 1014   2.128   4.536   0.283 -0.3409  0.3347  0.5431
   45DG      H3 1015   1.944   4.950   0.572  0.0173 -1.5447 -0.5579
   45DG      H4 1016   1.996   4.879   0.722 -1.1192 -2.0348  1.7899
   45DG      H5 1017   1.826   4.940   0.704 -1.7466 -3.1188 -0.1484
   45DG      H6 1018   2.150   4.469   0.366 -0.8729  0.5785  0.8911
   45DG      H7 1019   2.133   4.477   0.191 -2.2287  1.8516 -0.6262
   45DG      H8 1020   2.210   4.605   0.264  0.8432 -0.7916  1.4468
   45DG      O9 1021   1.873   4.770   0.590  0.1485 -0.1657  0.3837
   45DG     O10 1022   1.995   4.584   0.296 -0.4157  0.1555  0.0252
   45DG     C11 1023   1.749   4.707   0.632 -0.5814  0.0099  0.3669
   45DG     C12 1024   1.908   4.466   0.323 -0.3758  1.1217 -0.0789
   45DG     H13 1025   1.671   4.782   0.619  1.2955  1.9041 -0.4217
   45DG     H14 1026   1.746   4.685   0.739  2.0796 -2.2766  0.0907
   45DG     H15 1027   1.936   4.403   0.407  2.0837  1.4855 -0.5486
   45DG     H16 1028   1.935   4.401   0.239  0.3721 -0.7168  1.5196
   45DG     C17 1029   1.724   4.583   0.547 -0.1248 -0.0771  0.3509
   45DG     C18 1030   1.759   4.501   0.319 -0.3923 -0.5629 -0.4753
   45DG     O19 1031   1.725   4.613   0.407 -0.1111  0.1141 -0.5912
   45DG     H20 1032   1.628   4.534   0.566 -1.1043  2.1064  1.5142
   45DG     H21 1033   1.806   4.516   0.573  0.1215  0.7743  1.9029
   45DG     H22 1034   1.723   4.525   0.219  0.5010  0.9273 -0.4733
   45DG     H23 1035   1.702   4.416   0.358 -0.9822 -0.1781 -0.4871
   46DG      C1 1036   2.703   0.184   5.203 -0.1824 -0.3165  0.0329
   46DG      C2 1037   2.547   0.208   4.473 -0.6960  0.2527 -0.0420
   46DG      H3 1038   2.613   0.239   5.176 -0.4824  0.3324  2.1676
   46DG      H4 1039   2.772   0.243   5.264 -1.4166  0.4404  0.7487
   46DG      H5 1040   2.667   0.106   5.271  0.0595 -1.4351 -1.0914
   46DG      H6 1041   2.449   0.210   4.521  0.2088 -0.1178  1.9271
   46DG      H7 1042   2.560   0.308   4.432  0.9243  0.9820  2.0751
   46DG      H8 1043   2.556   0.136   4.392  3.1956 -0.7207  1.0643
   46DG      O9 1044   2.767   0.127   5.090 -0.0488  0.4101  0.5978
   46DG     O10 1045   2.653   0.200   4.571 -0.3517  0.0071  0.0756
   46DG     C11 1046   2.841   0.222   5.013  0.3024 -0.2528  0.7448
   46DG     C12 1047   2.698   0.071   4.590  0.1575  0.2672 -0.5628
   46DG     H13 1048   2.927   0.273   5.057 -1.3560  3.9319 -0.3988
   46DG     H14 1049   2.778   0.304   4.981 -0.2850 -1.4291 -1.2986
   46DG     H15 1050   2.738   0.030   4.497  0.6753  0.3629 -0.3832
   46DG     H16 1051   2.615   0.004   4.615 -1.3641  1.5650 -1.9016
   46DG     C17 1052   2.890   0.153   4.889 -0.0936 -0.0546 -0.1500
   46DG     C18 1053   2.814   0.063   4.688 -0.0367 -0.8440  0.5818
   46DG     O19 1054   2.780   0.102   4.819 -0.4274  0.0169 -0.5175
   46DG     H20 1055   2.962   0.074   4.912  1.1074  1.3264  1.0500
   46DG     H21 1056   2.952   0.219   4.828 -0.0642 -0.3549 -0.4516
   46DG     H22 1057   2.851  -0.038   4.707  3.5208  0.3552  0.6707
   46DG     H23 1058   2.893   0.128   4.651 -1.4436 -0.0422 -1.1704
   47DG      C1 1059   4.698   3.939   5.167 -0.9134  0.2405 -0.9565
   47DG      C2 1060   5.076   3.417   5.108 -0.0410  0.8919 -0.3899
   47DG      H3 1061   4.756   4.014   5.222  1.3299 -0.8850 -1.6403
   47DG      H4 1062   4.634   3.887   5.238 -1.9987 -0.2216 -2.2421
   47DG      H5 1063   4.638   3.980   5.086 -3.0726 -0.2703  0.3084
   47DG      H6 1064   5.153   3.486   5.140  0.0451  1.0130 -0.8582
   47DG      H7 1065   5.026   3.373   5.194 -0.3124  0.4987 -0.7452
   47DG      H8 1066   5.117   3.326   5.064 -2.8621  0.3390 -2.1459
   47DG      O9 1067   4.790   3.840   5.112 -0.3662 -0.2379 -0.3912
   47DG     O10 1068   4.977   3.471   5.024  0.2860  0.1658 -0.1301
   47DG     C11 1069   4.857   3.894   4.998 -0.2916 -0.3765 -0.3121
   47DG     C12 1070   5.033   3.489   4.892  0.3672 -0.2162  0.0991
   47DG     H13 1071   4.912   3.981   5.034 -1.5604  0.8679 -1.2624
   47DG     H14 1072   4.781   3.923   4.926  0.0692 -2.7778 -1.7705
   47DG     H15 1073   5.026   3.391   4.844  0.3089  0.2345 -0.8315
   47DG     H16 1074   5.138   3.514   4.906  0.4598 -0.8754  0.6325
   47DG     C17 1075   4.952   3.793   4.939 -0.4505  0.0439  0.2353
   47DG     C18 1076   4.961   3.589   4.804 -0.1029 -0.4619 -0.3122
   47DG     O19 1077   4.883   3.686   4.878  0.0031  0.4716  0.0047
   47DG     H20 1078   5.018   3.755   5.017 -0.5018 -0.7784 -0.1122
   47DG     H21 1079   5.004   3.827   4.849 -0.1494 -0.2238  0.3069
   47DG     H22 1080   5.026   3.635   4.730 -0.2493  0.2820  0.0121
   47DG     H23 1081   4.890   3.535   4.741 -0.5924 -0.8065  0.5110
   48DG      C1 1082   0.465   3.456   3.614  0.0281 -0.7932 -0.0722
   48DG      C2 1083   0.292   3.495   4.388  0.1969 -0.5072 -0.5779
   48DG      H3 1084   0.546   3.497   3.553 -1.2715  0.8902 -0.7598
   48DG      H4 1085   0.369   3.475   3.566 -0.5148 -1.7348  0.5997
   48DG      H5 1086   0.469   3.348   3.606 -0.9461 -0.8003 -0.6188
   48DG      H6 1087   0.191   3.499   4.347 -0.8644  1.0784  1.9414
   48DG      H7 1088   0.315   3.389   4.392 -1.3926 -0.9309 -1.6191
   48DG      H8 1089   0.288   3.529   4.491  1.1221  0.9716 -1.0004
   48DG      O9 1090   0.481   3.497   3.752 -0.1420  0.3085  0.7478
   48DG     O10 1091   0.385   3.573   4.312  0.8387 -0.0994 -0.3829
   48DG     C11 1092   0.622   3.485   3.792  0.5329  0.9730 -0.3496
   48DG     C12 1093   0.405   3.521   4.184 -0.5422  0.6068 -0.1825
   48DG     H13 1094   0.681   3.565   3.748  0.8303  0.9898  0.0740
   48DG     H14 1095   0.670   3.397   3.749  0.7586  1.3686 -0.9208
   48DG     H15 1096   0.322   3.532   4.115  0.2930  3.2146 -0.9126
   48DG     H16 1097   0.435   3.417   4.186 -1.4921  0.3427  1.8033
   48DG     C17 1098   0.629   3.489   3.942  0.3314  0.7395  0.1851
   48DG     C18 1099   0.511   3.604   4.124 -0.3428  0.4554 -0.0220
   48DG     O19 1100   0.525   3.577   3.986 -0.4894 -0.4176 -0.4762
   48DG     H20 1101   0.721   3.538   3.973  0.4798  1.4218 -1.2707
   48DG     H21 1102   0.612   3.395   3.996  1.7136 -0.1974 -0.9629
   48DG     H22 1103   0.474   3.706   4.115 -1.4081  0.0324 -0.5969
   48DG     H23 1104   0.601   3.614   4.185 -0.6257  1.1532  0.2921
   49DG      C1 1105   1.802   5.089   2.369  0.0277 -0.1034  0.5613
   49DG      C2 1106   1.188   5.266   2.639 -0.1465 -0.1938 -0.2079
   49DG      H3 1107   1.720   5.023   2.344 -1.5893  1.8554  0.4711
   49DG      H4 1108   1.890   5.029   2.391 -0.8916 -1.6301  0.1877
   49DG      H5 1109   1.821   5.158   2.286 -0.4343  1.1712  1.4841
   49DG      H6 1110   1.159   5.291   2.537  1.9587  1.1882 -0.5333
   49DG      H7 1111   1.176   5.160   2.658 -0.6043 -0.3071 -1.1062
   49DG      H8 1112   1.118   5.313   2.708 -0.7779 -1.8521  0.3243
   49DG      O9 1113   1.767   5.168   2.482 -0.2740  0.2343  0.1429
   49DG     O10 1114   1.326   5.298   2.647  0.0067  0.3585 -0.2296
   49DG     C11 1115   1.753   5.098   2.606 -0.4486  0.0340  0.6385
   49DG     C12 1116   1.380   5.295   2.778 -0.3020 -0.2643 -0.3740
   49DG     H13 1117   1.847   5.053   2.635 -2.6150 -5.0509  0.8674
   49DG     H14 1118   1.681   5.016   2.601 -0.0352 -0.2478 -2.1510
   49DG     H15 1119   1.356   5.193   2.809 -0.4260 -0.3503 -0.7473
   49DG     H16 1120   1.321   5.369   2.832  2.1712  0.7806  1.0824
   49DG     C17 1121   1.717   5.206   2.706 -0.1671  0.1539 -0.2570
   49DG     C18 1122   1.530   5.329   2.787  0.5236 -0.5490 -0.5766
   49DG     O19 1123   1.579   5.231   2.704  0.2752  0.1961  0.4734
   49DG     H20 1124   1.788   5.287   2.689  1.6643 -1.1907  0.6159
   49DG     H21 1125   1.751   5.160   2.799 -0.0802 -0.0730 -0.3998
   49DG     H22 1126   1.561   5.423   2.740  1.9355 -1.3855 -1.4052
   49DG     H23 1127   1.568   5.329   2.889 -1.8443  1.5238  0.3996
   50DG      C1 1128   4.699   2.918   0.933  0.6737  0.2047  0.4524
   50DG      C2 1129   4.305   2.683   0.315  0.7348 -0.1522  0.3290
   50DG      H3 1130   4.635   2.960   0.856  0.8981 -2.2305 -1.1481
   50DG      H4 1131   4.807   2.922   0.920  0.7466 -0.3542  0.8627
   50DG      H5 1132   4.677   2.986   1.016  1.0805 -0.0910  0.8069
   50DG      H6 1133   4.385   2.750   0.281  0.2962 -0.9534 -2.6073
   50DG      H7 1134   4.307   2.589   0.259  0.9706 -0.6864  1.2258
   50DG      H8 1135   4.203   2.720   0.314  0.6313 -0.4454 -0.3707
   50DG      O9 1136   4.666   2.784   0.952  0.8058 -0.0496  0.1527
   50DG     O10 1137   4.338   2.631   0.440 -0.1085  0.0442 -0.6570
   50DG     C11 1138   4.528   2.760   0.986 -0.6354 -0.3055 -0.4340
   50DG     C12 1139   4.356   2.718   0.555 -0.3361 -0.2756  0.2183
   50DG     H13 1140   4.468   2.850   0.976 -0.5379 -0.3764 -1.7615
   50DG     H14 1141   4.516   2.740   1.093 -0.1266  0.7306 -0.1605
   50DG     H15 1142   4.264   2.776   0.564 -1.5656 -1.1594 -4.2962
   50DG     H16 1143   4.435   2.791   0.538  1.6158 -1.8120  2.1516
   50DG     C17 1144   4.465   2.646   0.903  0.5883  0.0401  0.0976
   50DG     C18 1145   4.394   2.627   0.676  0.0300 -0.0411 -0.5327
   50DG     O19 1146   4.414   2.713   0.787  0.2833  0.3340 -0.2362
   50DG     H20 1147   4.385   2.596   0.957 -0.0608 -1.1580 -1.8675
   50DG     H21 1148   4.541   2.572   0.877  0.1238 -0.7232  0.8742
   50DG     H22 1149   4.314   2.554   0.690 -0.1039  0.3905  1.1785
   50DG     H23 1150   4.479   2.563   0.652  0.0296  0.7780 -2.8974
   51DG      C1 1151   1.131   0.327   2.526  0.4232 -0.0712 -0.7264
   51DG      C2 1152   1.462   0.523   3.195  0.3764  0.0363  0.4474
   51DG      H3 1153   1.224   0.371   2.488  0.7649  0.5671  0.7747
   51DG      H4 1154   1.060   0.410   2.526 -0.8268 -1.1158  0.2519
   51DG      H5 1155   1.099   0.253   2.452  0.9354 -0.7925 -0.2395
   51DG      H6 1156   1.405   0.439   3.235 -1.9931  0.7744 -1.1787
   51DG      H7 1157   1.513   0.551   3.287  1.2748  0.3900 -0.1495
   51DG      H8 1158   1.384   0.585   3.152  0.7225 -0.3114 -0.7461
   51DG      O9 1159   1.143   0.284   2.661 -0.0146 -0.1272 -0.2984
   51DG     O10 1160   1.547   0.472   3.099  0.6029  0.3704 -0.2328
   51DG     C11 1161   1.227   0.171   2.678 -0.0594  0.6261 -0.0456
   51DG     C12 1162   1.471   0.433   2.983 -0.8082 -0.2006 -0.1515
   51DG     H13 1163   1.312   0.185   2.611  1.0341  1.6224  1.4692
   51DG     H14 1164   1.168   0.085   2.646  0.3568  0.5591 -0.6622
   51DG     H15 1165   1.539   0.437   2.898 -0.1283  0.0392  0.3973
   51DG     H16 1166   1.397   0.509   2.957 -0.4101 -0.1627 -1.2362
   51DG     C17 1167   1.267   0.160   2.821  0.2825  0.2711 -0.8688
   51DG     C18 1168   1.398   0.292   2.984  0.2398 -0.6120  0.4889
   51DG     O19 1169   1.334   0.283   2.859  0.9127 -0.6358  0.2003
   51DG     H20 1170   1.339   0.079   2.833  1.2516  1.4542  2.6960
   51DG     H21 1171   1.181   0.133   2.883 -1.5119  0.0645 -3.2746
   51DG     H22 1172   1.464   0.205   2.991 -0.3088 -1.1901 -1.0385
   51DG     H23 1173   1.318   0.295   3.059  0.5097  0.9527  0.7472
   52DG      C1 1174   0.614   2.777   3.003 -0.0852 -0.5959 -0.2619
   52DG      C2 1175   0.988   2.180   3.190  0.8128  0.3726 -0.3520
   52DG      H3 1176   0.575   2.776   2.901  2.0457  1.1595 -1.1713
   52DG      H4 1177   0.600   2.871   3.055 -1.2098 -0.2452 -1.1507
   52DG      H5 1178   0.562   2.700   3.060  0.6544 -0.2975  0.8502
   52DG      H6 1179   0.973   2.108   3.110  0.3241  0.4798 -0.3635
   52DG      H7 1180   1.080   2.155   3.243  1.4376  2.1554 -0.5289
   52DG      H8 1181   0.909   2.161   3.263  0.5269 -0.1826 -0.7955
   52DG      O9 1182   0.749   2.740   3.005 -0.1409 -0.6973  0.0490
   52DG     O10 1183   0.972   2.310   3.143  0.4873  0.1079  0.2662
   52DG     C11 1184   0.764   2.618   2.935 -0.1555  0.7945 -0.0937
   52DG     C12 1185   1.090   2.358   3.082  0.5061  0.8153 -0.1505
   52DG     H13 1186   0.724   2.630   2.834 -0.4480 -0.7069 -0.1765
   52DG     H14 1187   0.705   2.541   2.986  1.6610 -1.1668 -0.8216
   52DG     H15 1188   1.090   2.327   2.977  0.1905 -1.7640  0.5593
   52DG     H16 1189   1.186   2.329   3.124  0.9350  1.5885 -0.5593
   52DG     C17 1190   0.913   2.569   2.927 -0.5578 -0.0345 -0.6004
   52DG     C18 1191   1.072   2.512   3.089 -0.0514 -0.4869  0.4660
   52DG     O19 1192   0.942   2.559   3.072  0.4810 -0.6171  0.1512
   52DG     H20 1193   0.971   2.644   2.874  0.3521 -1.1140 -1.1811
   52DG     H21 1194   0.916   2.480   2.864 -2.8308  0.1701 -1.0606
   52DG     H22 1195   1.087   2.542   3.192 -0.3293  1.5389 -0.0297
   52DG     H23 1196   1.143   2.562   3.022 -0.6496 -0.9604 -0.5427
   53DG      C1 1197   0.041   5.255   2.353  0.2848 -0.1395 -0.1856
   53DG      C2 1198   0.160   4.848   2.756  0.0225  0.1777 -0.6032
   53DG      H3 1199   0.025   5.197   2.444  0.2054  0.1459 -0.0163
   53DG      H4 1200  -0.022   5.344   2.349  1.3823  0.7078  0.7245
   53DG      H5 1201   0.142   5.290   2.372 -0.7975  3.1256  0.1598
   53DG      H6 1202   0.160   4.750   2.806  0.7050  0.1893 -0.5685
   53DG      H7 1203   0.267   4.868   2.756  0.0750 -0.0811 -0.3205
   53DG      H8 1204   0.127   4.925   2.826  0.3964  0.7223 -1.0274
   53DG      O9 1205   0.024   5.174   2.239 -0.2893  0.3367  0.2864
   53DG     O10 1206   0.118   4.847   2.627  0.3901 -0.1003 -0.4912
   53DG     C11 1207  -0.097   5.099   2.230  0.3818  0.6853 -0.2234
   53DG     C12 1208  -0.025   4.830   2.617 -0.7768  0.2094 -0.0084
   53DG     H13 1209  -0.123   5.090   2.124 -0.6061 -1.3871  0.1355
   53DG     H14 1210  -0.179   5.142   2.287  0.1089  1.9598 -1.5237
   53DG     H15 1211  -0.074   4.913   2.667 -0.1485 -0.0513  1.0746
   53DG     H16 1212  -0.055   4.736   2.664  3.7259 -0.2177  2.5927
   53DG     C17 1213  -0.073   4.957   2.270  0.7687  0.3761  0.9359
   53DG     C18 1214  -0.076   4.830   2.470  0.4269  0.5513 -0.4555
   53DG     O19 1215  -0.051   4.956   2.408  0.0452 -0.5117  0.7183
   53DG     H20 1216   0.007   4.911   2.212  0.8654  0.8185  0.7136
   53DG     H21 1217  -0.160   4.895   2.248  1.6323 -0.3356 -0.6477
   53DG     H22 1218  -0.015   4.760   2.413  2.9246  1.7239  0.6190
   53DG     H23 1219  -0.182   4.809   2.460  0.5775 -1.4806  1.4431
   54DG      C1 1220   5.340   2.924   3.348 -0.4257 -0.0557 -0.0685
   54DG      C2 1221   4.921   2.583   3.819  0.2197 -0.4332 -0.3669
   54DG      H3 1222   5.264   3.001   3.339 -0.1363  0.7360  3.0122
   54DG      H4 1223   5.322   2.848   3.272  0.7566  0.3608 -0.7934
   54DG      H5 1224   5.428   2.978   3.314 -0.0553 -0.7192 -0.1830
   54DG      H6 1225   4.860   2.620   3.901 -1.6909  0.4135 -2.0945
   54DG      H7 1226   4.866   2.574   3.726 -0.5477 -0.3629  0.0752
   54DG      H8 1227   4.962   2.489   3.857 -1.1281 -0.4064  1.2777
   54DG      O9 1228   5.351   2.872   3.480  0.4436  0.0864  0.1770
   54DG     O10 1229   5.026   2.673   3.794 -0.2787 -0.3431 -0.3491
   54DG     C11 1230   5.364   2.962   3.591  0.3382 -0.2905  0.0215
   54DG     C12 1231   4.994   2.797   3.738  0.0033 -0.3397 -0.2034
   54DG     H13 1232   5.286   3.037   3.580  0.4130 -0.1696  0.3205
   54DG     H14 1233   5.461   3.011   3.584 -0.2371  0.6887 -1.7802
   54DG     H15 1234   4.902   2.837   3.780  0.1010 -0.7645  0.4272
   54DG     H16 1235   4.984   2.801   3.630  0.8827 -0.5347 -0.2986
   54DG     C17 1236   5.352   2.895   3.726  0.1129  0.5401  0.1666
   54DG     C18 1237   5.112   2.892   3.772  0.0768  0.3231  0.1098
   54DG     O19 1238   5.230   2.821   3.727 -0.8386  0.2477 -0.3696
   54DG     H20 1239   5.350   2.969   3.806 -0.3113 -2.4962  3.2097
   54DG     H21 1240   5.439   2.836   3.754  1.0615  1.4806 -0.6903
   54DG     H22 1241   5.104   2.986   3.718 -0.4545 -0.1738 -0.6934
   54DG     H23 1242   5.111   2.923   3.876  2.1953  1.2916 -0.1105
   55DG      C1 1243   2.722   2.335   4.008 -0.4180 -0.3475  0.4073
   55DG      C2 1244   3.393   2.187   4.164  0.0526  0.1845  0.1575
   55DG      H3 1245   2.624   2.327   3.963 -0.3268  2.0640 -0.3891
   55DG      H4 1246   2.802   2.344   3.935  0.6286 -3.1552  1.1043
   55DG      H5 1247   2.704   2.422   4.073  0.8045 -0.4733  0.9568
   55DG      H6 1248   3.446   2.148   4.078  2.0141  1.3697  0.7527
   55DG      H7 1249   3.414   2.294   4.173 -0.7557  0.5741 -2.0135
   55DG      H8 1250   3.437   2.141   4.253 -1.0519 -1.4464 -0.0989
   55DG      O9 1251   2.754   2.224   4.092 -0.1890  0.3347  0.5587
   55DG     O10 1252   3.258   2.170   4.156  0.0243  0.1915 -0.1324
   55DG     C11 1253   2.759   2.097   4.026 -0.0769 -0.3700  0.7082
   55DG     C12 1254   3.217   2.031   4.168  0.6668 -0.6117 -0.2926
   55DG     H13 1255   2.797   2.114   3.926 -1.4937 -0.8083  0.0686
   55DG     H14 1256   2.660   2.053   4.011 -0.8952  1.1024  1.5106
   55DG     H15 1257   3.265   1.981   4.253  0.9586 -0.0695 -0.1302
   55DG     H16 1258   3.230   1.983   4.071 -1.0279 -2.3995  0.2878
   55DG     C17 1259   2.849   2.008   4.112  0.3281  0.7793  0.0292
   55DG     C18 1260   3.066   2.007   4.204 -0.2113 -0.5652 -0.1068
   55DG     O19 1261   2.982   2.061   4.107 -0.0354 -0.7439 -0.4836
   55DG     H20 1262   2.851   1.904   4.080 -0.5833  0.9153 -0.5271
   55DG     H21 1263   2.816   2.016   4.216  1.2932 -0.4480  0.4426
   55DG     H22 1264   3.040   1.904   4.226  2.8671 -1.8530 -1.9283
   55DG     H23 1265   3.046   2.063   4.296 -0.0305 -2.8381  1.3795
   56DG      C1 1266   4.703   2.964   0.563 -0.0417  0.1093  0.0525
   56DG      C2 1267   4.383   2.537  -0.080 -0.3712  0.2758 -0.3567
   56DG      H3 1268   4.704   2.860   0.593  0.0541  0.3862  1.0248
   56DG      H4 1269   4.607   3.013   0.577  0.5425  1.3990 -0.3093
   56DG      H5 1270   4.766   3.023   0.630  0.4348 -1.1260  0.7238
   56DG      H6 1271   4.285   2.494  -0.058  0.6956 -0.4771  3.6588
   56DG      H7 1272   4.363   2.631  -0.132  0.5021 -0.4367 -2.0848
   56DG      H8 1273   4.434   2.466  -0.145  3.2178  1.6721  0.6956
   56DG      O9 1274   4.770   2.972   0.432 -0.1721  0.0499  0.1115
   56DG     O10 1275   4.462   2.565   0.041  0.2904  0.6752 -0.2526
   56DG     C11 1276   4.692   2.918   0.331  0.0392 -0.0660 -0.1395
   56DG     C12 1277   4.600   2.530   0.029  0.2800 -0.4271 -0.0373
   56DG     H13 1278   4.726   2.960   0.237  0.0075  0.1087 -0.0737
   56DG     H14 1279   4.591   2.960   0.333  0.0452 -0.0646  0.5103
   56DG     H15 1280   4.644   2.559  -0.066 -0.1341  0.6012  0.0742
   56DG     H16 1281   4.610   2.422   0.039 -0.5172 -0.4089  1.1536
   56DG     C17 1282   4.684   2.765   0.319 -0.1507  0.2823  0.9248
   56DG     C18 1283   4.671   2.579   0.154 -0.2429  0.1314  0.2216
   56DG     O19 1284   4.657   2.719   0.183 -0.0938  0.1468  0.3656
   56DG     H20 1285   4.632   2.713   0.399 -2.0625  1.4635  0.5341
   56DG     H21 1286   4.789   2.736   0.325  0.2583  1.8724  2.2460
   56DG     H22 1287   4.629   2.530   0.242  2.0774  1.1222  2.0168
   56DG     H23 1288   4.778   2.557   0.154  0.2398  2.2564 -0.7635
   57DG      C1 1289   4.246   2.360   1.742  1.3463 -0.7290  0.7034
   57DG      C2 1290   4.752   2.816   1.360  1.2244  0.0512 -0.2201
   57DG      H3 1291   4.196   2.326   1.651  2.4673 -0.8457  0.1103
   57DG      H4 1292   4.171   2.383   1.817 -0.1892 -1.1746 -0.6356
   57DG      H5 1293   4.311   2.278   1.771 -0.9877 -3.2127 -0.6280
   57DG      H6 1294   4.796   2.913   1.339  2.3375 -1.0411 -3.5384
   57DG      H7 1295   4.832   2.742   1.354  0.1366 -1.1000 -1.0302
   57DG      H8 1296   4.680   2.802   1.280  0.5341 -1.4095  0.6217
   57DG      O9 1297   4.316   2.477   1.715  0.1420 -0.1028 -0.4320
   57DG     O10 1298   4.692   2.791   1.486  0.2614  0.2141  0.4234
   57DG     C11 1299   4.398   2.470   1.599  0.5351  0.7339 -0.3927
   57DG     C12 1300   4.573   2.866   1.512 -0.8850 -0.2500 -0.1090
   57DG     H13 1301   4.322   2.476   1.521 -0.0366 -1.7627 -0.1042
   57DG     H14 1302   4.458   2.381   1.583 -1.3362 -1.2316  2.5788
   57DG     H15 1303   4.501   2.858   1.431 -1.7033  1.6124  0.4008
   57DG     H16 1304   4.599   2.972   1.515 -1.0870 -0.2091  2.6412
   57DG     C17 1305   4.498   2.586   1.589  0.5646 -0.3057 -0.2576
   57DG     C18 1306   4.510   2.820   1.643  0.7287  0.1120 -0.2351
   57DG     O19 1307   4.425   2.708   1.613 -0.1141 -0.2405 -0.3646
   57DG     H20 1308   4.558   2.576   1.499 -1.2694  1.8590 -1.8204
   57DG     H21 1309   4.576   2.575   1.664  2.3663  0.7164 -1.8976
   57DG     H22 1310   4.587   2.795   1.716 -1.3107 -0.2873  1.9391
   57DG     H23 1311   4.453   2.904   1.684  0.3348  0.2433 -1.0391
   58DG      C1 1312   3.719   4.954   2.369 -0.4407 -0.2372 -0.8309
   58DG      C2 1313   3.694   4.522   1.728  0.7252  0.3332  0.2481
   58DG      H3 1314   3.748   5.030   2.297  0.8896 -0.3471 -0.4355
   58DG      H4 1315   3.802   4.949   2.439  1.1420 -2.2659 -2.7125
   58DG      H5 1316   3.629   4.983   2.423 -0.4074  0.2272 -1.0238
   58DG      H6 1317   3.651   4.605   1.671  0.1334  0.7226  1.2259
   58DG      H7 1318   3.803   4.524   1.720  0.7354  0.5761  0.4160
   58DG      H8 1319   3.642   4.434   1.691 -1.5250  0.4901  2.7270
   58DG      O9 1320   3.706   4.826   2.303  0.3988 -0.1543 -0.0495
   58DG     O10 1321   3.647   4.540   1.859  0.5437 -0.1150 -0.1496
   58DG     C11 1322   3.811   4.800   2.212 -0.2450 -0.1987  0.6485
   58DG     C12 1323   3.724   4.463   1.953  0.3517 -1.0617 -0.0086
   58DG     H13 1324   3.904   4.833   2.258  0.1566  1.7398 -1.3941
   58DG     H14 1325   3.794   4.855   2.119 -0.7439 -2.1333 -0.4577
   58DG     H15 1326   3.831   4.482   1.955  0.4883 -1.3872 -2.0996
   58DG     H16 1327   3.723   4.360   1.917 -0.7878 -1.1956  0.3364
   58DG     C17 1328   3.802   4.653   2.181 -0.5014  0.6069 -0.1043
   58DG     C18 1329   3.673   4.488   2.093  0.4556  0.2506 -0.6418
   58DG     O19 1330   3.677   4.620   2.130 -0.1461 -0.3426 -0.4680
   58DG     H20 1331   3.814   4.603   2.277 -2.3819  0.4475  0.1008
   58DG     H21 1332   3.885   4.635   2.113  0.5661  1.7628  0.8527
   58DG     H22 1333   3.569   4.457   2.103  0.6770 -0.6789 -1.0847
   58DG     H23 1334   3.736   4.425   2.157  2.6227  0.8100 -2.1148
   59DG      C1 1335   5.084   4.417   4.372 -0.7139 -0.0265  0.9858
   59DG      C2 1336   5.644   4.605   4.133  0.2709  0.5453  0.1671
   59DG      H3 1337   5.042   4.466   4.284 -3.1032 -0.3203  1.8994
   59DG      H4 1338   5.104   4.485   4.454  1.4900  0.3330  0.2160
   59DG      H5 1339   5.001   4.349   4.387  1.1868 -2.6991  0.1780
   59DG      H6 1340   5.588   4.648   4.050  3.0508 -1.3643 -2.9395
   59DG      H7 1341   5.629   4.672   4.218  0.5040 -0.4693  1.0361
   59DG      H8 1342   5.751   4.609   4.114  0.5511 -4.1711 -0.4919
   59DG      O9 1343   5.197   4.340   4.331  0.0652 -0.2196 -0.1477
   59DG     O10 1344   5.591   4.475   4.156 -0.0665  0.0456 -0.7542
   59DG     C11 1345   5.250   4.253   4.430 -0.6091  0.1552 -0.0357
   59DG     C12 1346   5.674   4.400   4.242  0.9327  0.2419 -0.9571
   59DG     H13 1347   5.178   4.172   4.442 -1.2054  0.7687  0.6534
   59DG     H14 1348   5.274   4.295   4.528 -0.7931  1.9185 -0.7071
   59DG     H15 1349   5.683   4.465   4.329 -1.2646  0.8699 -1.1268
   59DG     H16 1350   5.774   4.375   4.209  0.5676 -1.7055 -0.7211
   59DG     C17 1351   5.384   4.202   4.373 -0.1249 -0.6594 -0.3983
   59DG     C18 1352   5.600   4.273   4.284 -0.0690 -0.2926 -0.1480
   59DG     O19 1353   5.469   4.302   4.330  0.9418 -0.1403  0.4124
   59DG     H20 1354   5.367   4.135   4.289  0.8061  1.2377 -2.1852
   59DG     H21 1355   5.436   4.141   4.446  0.4055  0.0652 -0.1549
   59DG     H22 1356   5.597   4.199   4.204  0.3671  1.9401 -2.3500
   59DG     H23 1357   5.656   4.230   4.367 -0.6855 -0.5608  0.1402
   60DG      C1 1358   0.834   3.721   2.953 -0.2143 -0.4627 -0.3504
   60DG      C2 1359   1.359   3.359   2.782  0.2464  0.1289 -0.2976
   60DG      H3 1360   0.735   3.719   2.999 -0.1204  1.3892  0.0124
   60DG      H4 1361   0.829   3.764   2.853 -2.0689 -0.6333 -0.3688
   60DG      H5 1362   0.903   3.790   3.001  1.0409 -2.3493  0.6832
   60DG      H6 1363   1.310   3.394   2.691  0.4639  0.9944 -0.0881
   60DG      H7 1364   1.453   3.412   2.797  0.0660  0.5703 -0.6988
   60DG      H8 1365   1.387   3.257   2.754  1.4608  0.1807  0.6849
   60DG      O9 1366   0.903   3.591   2.963 -0.3611 -0.8656 -0.1600
   60DG     O10 1367   1.269   3.375   2.890 -0.6237 -0.1019 -0.1712
   60DG     C11 1368   0.894   3.547   3.093 -0.8069  0.0624  0.0569
   60DG     C12 1369   1.315   3.361   3.021 -0.0667 -1.0590 -0.3939
   60DG     H13 1370   0.795   3.540   3.137 -1.9467 -0.2895 -2.3808
   60DG     H14 1371   0.950   3.618   3.154 -2.2237  0.7518  0.5937
   60DG     H15 1372   1.366   3.452   3.053 -2.8573  0.3846  0.3293
   60DG     H16 1373   1.383   3.276   3.027  0.3184 -0.6480  1.7448
   60DG     C17 1374   0.964   3.411   3.107 -0.2761 -0.3638  0.6010
   60DG     C18 1375   1.192   3.319   3.089  0.4146  0.1781  0.7576
   60DG     O19 1376   1.104   3.433   3.084  0.2755 -0.2509  0.2168
   60DG     H20 1377   0.930   3.332   3.040  0.2059  0.3454 -0.5162
   60DG     H21 1378   0.950   3.367   3.206 -0.0049 -1.0930  0.3170
   60DG     H22 1379   1.149   3.237   3.033  0.5327  0.2097  0.6196
   60DG     H23 1380   1.215   3.276   3.186 -1.2276  0.6376  1.3812
   61DG      C1 1381   3.068   2.912   3.081 -0.4434  0.0648 -0.5190
   61DG      C2 1382   2.520   3.261   2.981 -0.5800 -0.5907  0.1987
   61DG      H3 1383   3.044   2.847   3.166 -2.9477  0.6532 -0.7198
   61DG      H4 1384   3.093   3.005   3.132  0.4458  0.0037 -0.8287
   61DG      H5 1385   3.160   2.870   3.040  0.6157  0.4912  1.3075
   61DG      H6 1386   2.598   3.333   3.007 -0.3320 -1.0971  0.8766
   61DG      H7 1387   2.450   3.319   2.922  0.6313  1.5084  0.7187
   61DG      H8 1388   2.486   3.223   3.077 -1.4565 -2.1605 -0.6922
   61DG      O9 1389   2.960   2.925   2.998  0.3207  0.2036  0.3688
   61DG     O10 1390   2.594   3.169   2.903 -0.0704 -0.2231 -0.7071
   61DG     C11 1391   2.905   2.802   2.939 -0.1815 -0.1744  0.0051
   61DG     C12 1392   2.515   3.067   2.853  0.5859 -0.1867  0.1892
   61DG     H13 1393   2.847   2.739   3.007 -0.4271  0.5266  0.4564
   61DG     H14 1394   2.981   2.737   2.896  0.7417  0.6906  0.2781
   61DG     H15 1395   2.444   3.113   2.785 -0.1717 -0.2319  0.9441
   61DG     H16 1396   2.460   3.021   2.935 -0.3199  0.8330  0.1636
   61DG     C17 1397   2.798   2.823   2.831 -0.2932 -1.1459 -0.0306
   61DG     C18 1398   2.612   2.968   2.789 -0.1657  0.8972  0.0752
   61DG     O19 1399   2.701   2.913   2.881 -0.3967 -0.0007  0.0947
   61DG     H20 1400   2.763   2.725   2.798  0.2588 -1.0795 -0.8473
   61DG     H21 1401   2.850   2.875   2.750 -0.9490 -1.6671 -0.8098
   61DG     H22 1402   2.548   2.893   2.741  1.1197 -1.8354  2.3081
   61DG     H23 1403   2.666   3.017   2.708  3.3637 -0.4217  1.4388
   62DG      C1 1404   1.595   1.644   0.808  0.7481 -0.2036 -0.4017
   62DG      C2 1405   1.133   1.120   0.797 -0.5692  0.2137  0.0625
   62DG      H3 1406   1.535   1.704   0.876 -1.6404 -1.0643 -1.6363
   62DG      H4 1407   1.660   1.707   0.748 -0.3307  0.4511 -0.9070
   62DG      H5 1408   1.666   1.584   0.865 -0.7694  0.3500  2.2426
   62DG      H6 1409   1.210   1.078   0.733 -0.6933 -0.6335  0.4512
   62DG      H7 1410   1.164   1.097   0.899  1.4726 -1.9383 -0.9588
   62DG      H8 1411   1.035   1.082   0.768 -0.8517  1.1974 -0.3222
   62DG      O9 1412   1.501   1.568   0.730 -0.0620 -0.6077 -0.3054
   62DG     O10 1413   1.137   1.259   0.780  0.5849  0.2917  0.2106
   62DG     C11 1414   1.427   1.663   0.644  0.5531  0.6912  0.3644
   62DG     C12 1415   1.147   1.290   0.637 -0.8044  0.0074 -0.8583
   62DG     H13 1416   1.498   1.691   0.567  0.5680  0.8416  0.4315
   62DG     H14 1417   1.385   1.740   0.710 -0.6521 -0.4317  0.9593
   62DG     H15 1418   1.078   1.239   0.569  0.1169 -1.2579 -0.8706
   62DG     H16 1419   1.244   1.260   0.598  0.0096  1.7008 -0.2137
   62DG     C17 1420   1.309   1.586   0.571 -0.3197  0.4191 -0.6633
   62DG     C18 1421   1.139   1.443   0.618  0.3025 -0.2006  0.2173
   62DG     O19 1422   1.261   1.495   0.667 -0.3402 -0.1844 -0.1643
   62DG     H20 1423   1.337   1.543   0.475 -3.0142 -1.5373 -0.6597
   62DG     H21 1424   1.242   1.670   0.554  0.6293  1.1904 -0.7258
   62DG     H22 1425   1.135   1.447   0.509 -1.1404  0.4891  0.2720
   62DG     H23 1426   1.052   1.494   0.660  2.0306  3.9745 -0.8169
   63DG      C1 1427   4.403   0.088   1.744 -0.2807  0.3814  0.4400
   63DG      C2 1428   4.255   0.123   2.521  0.1719 -0.2990 -0.1501
   63DG      H3 1429   4.458   0.116   1.655  1.8425 -5.0261 -0.3666
   63DG      H4 1430   4.340   0.170   1.778  0.1775  0.8986  0.0565
   63DG      H5 1431   4.336   0.008   1.711  1.2974 -0.4723 -0.8032
   63DG      H6 1432   4.288   0.101   2.622 -3.2839 -1.7030  0.7953
   63DG      H7 1433   4.197   0.215   2.520 -0.2218 -0.5322 -1.8054
   63DG      H8 1434   4.201   0.044   2.469 -2.6223  2.4647 -1.8027
   63DG      O9 1435   4.485   0.043   1.854  0.1967 -0.5483 -0.1157
   63DG     O10 1436   4.376   0.143   2.441 -0.3500  0.4299  0.6769
   63DG     C11 1437   4.418   0.014   1.968  0.5731 -0.4999 -0.7413
   63DG     C12 1438   4.466   0.028   2.449  0.5315 -0.4441  0.1116
   63DG     H13 1439   4.398  -0.093   1.976  1.7062 -0.9168 -2.8242
   63DG     H14 1440   4.320   0.061   1.973  0.5597 -0.6127  0.2513
   63DG     H15 1441   4.404  -0.060   2.460 -1.0983  0.1252 -3.1075
   63DG     H16 1442   4.531   0.046   2.535  1.8359 -2.1801 -0.4513
   63DG     C17 1443   4.519   0.037   2.084  0.0086 -0.2085  0.0002
   63DG     C18 1444   4.543   0.024   2.314  0.0850  0.9793 -0.1040
   63DG     O19 1445   4.459   0.001   2.207 -0.2500  0.0260  0.3512
   63DG     H20 1446   4.543   0.144   2.092  0.5948 -0.3911  0.8810
   63DG     H21 1447   4.612  -0.017   2.068  1.2959  1.2634  1.9108
   63DG     H22 1448   4.588   0.124   2.307 -0.1362  1.0777 -0.1192
   63DG     H23 1449   4.634  -0.034   2.323  0.1142  1.2541  1.7141
   64DG      C1 1450   0.784   0.682   3.532 -0.1520  0.2970 -0.9278
   64DG      C2 1451   1.009   0.227   3.122 -0.5668  0.2578 -0.1596
   64DG      H3 1452   0.739   0.607   3.597 -0.1532  1.3106  0.2816
   64DG      H4 1453   0.731   0.775   3.554 -0.1865 -0.2976  1.8992
   64DG      H5 1454   0.888   0.689   3.565 -0.6462  1.3134  0.5339
   64DG      H6 1455   1.008   0.166   3.031  0.2871 -1.1065  0.7023
   64DG      H7 1456   1.106   0.263   3.155 -0.3352 -1.1203  0.7395
   64DG      H8 1457   0.977   0.161   3.203  0.3486 -0.0852 -0.0697
   64DG      O9 1458   0.775   0.643   3.400 -0.6797  0.0278 -0.2031
   64DG     O10 1459   0.913   0.336   3.104 -0.1639  0.3591 -0.5373
   64DG     C11 1460   0.799   0.744   3.307 -0.7424 -0.0808  0.1560
   64DG     C12 1461   0.959   0.426   3.002  0.4073 -0.5121 -0.6192
   64DG     H13 1462   0.893   0.798   3.319 -0.2644 -1.1921  1.5993
   64DG     H14 1463   0.722   0.818   3.328 -0.3297  0.1752  0.7666
   64DG     H15 1464   0.957   0.374   2.906 -0.5246 -1.6811  0.0155
   64DG     H16 1465   1.060   0.458   3.028 -0.2084 -0.1347  1.4748
   64DG     C17 1466   0.788   0.707   3.165  0.3468  0.9008  0.0661
   64DG     C18 1467   0.865   0.554   3.014  0.5101 -0.3906 -0.1916
   64DG     O19 1468   0.874   0.597   3.145 -0.0191 -0.3493 -0.3612
   64DG     H20 1469   0.803   0.796   3.103  0.1413  0.8401 -0.0758
   64DG     H21 1470   0.683   0.681   3.150  0.8900 -3.4485  2.2263
   64DG     H22 1471   0.893   0.633   2.945  2.4627 -3.5553 -3.3499
   64DG     H23 1472   0.763   0.522   2.996  0.5955 -0.3510 -0.7375
   65DG      C1 1473   1.192   0.580   0.001 -0.6639 -0.5001  0.3254
   65DG      C2 1474   1.755   0.826   0.207  0.0687  0.0903  0.5922
   65DG      H3 1475   1.093   0.571   0.047 -0.7552  1.9515  0.7372
   65DG      H4 1476   1.256   0.499   0.036  0.5128 -0.9908 -2.6559
   65DG      H5 1477   1.182   0.557  -0.106  0.4262 -1.9709  0.5071
   65DG      H6 1478   1.725   0.741   0.268 -0.4271 -0.5857 -0.5602
   65DG      H7 1479   1.817   0.801   0.122  2.2727  0.9192  1.8739
   65DG      H8 1480   1.800   0.893   0.281  0.5975 -0.9199  1.2080
   65DG      O9 1481   1.252   0.699   0.039  0.1508  0.0272  0.2202
   65DG     O10 1482   1.628   0.883   0.175  0.2447  0.3759  0.2443
   65DG     C11 1483   1.199   0.811  -0.024  0.0874  0.3288  0.3376
   65DG     C12 1484   1.635   1.001   0.095 -0.3021 -0.1909  0.0168
   65DG     H13 1485   1.093   0.834  -0.019  0.0199  0.5326 -1.3233
   65DG     H14 1486   1.221   0.801  -0.131  0.1462  0.4191  0.3418
   65DG     H15 1487   1.682   0.978  -0.001 -0.2985 -2.1494  0.4521
   65DG     H16 1488   1.693   1.086   0.131 -2.7124  1.1985  0.8965
   65DG     C17 1489   1.272   0.931   0.022  0.1043  0.4299  0.0790
   65DG     C18 1490   1.484   1.031   0.069 -0.4667  0.5381 -0.5650
   65DG     O19 1491   1.409   0.913   0.036  0.4735  0.4684 -0.2203
   65DG     H20 1492   1.236   0.966   0.119  0.3532  0.5597  0.1234
   65DG     H21 1493   1.265   1.009  -0.053 -0.4335  0.9781  0.6911
   65DG     H22 1494   1.428   1.053   0.160  1.0301 -3.0444  1.4153
   65DG     H23 1495   1.481   1.111  -0.005  1.4522  0.7461 -0.4689
   66DG      C1 1496   2.072   4.477   3.552  0.1177 -0.8523  0.1870
   66DG      C2 1497   1.289   4.624   3.271  0.1511  0.2467 -0.0371
   66DG      H3 1498   2.163   4.533   3.572 -0.6073  1.0665 -1.6214
   66DG      H4 1499   2.107   4.383   3.508  0.3097 -0.9017  0.4354
   66DG      H5 1500   2.034   4.445   3.650  0.0752 -1.9459 -0.1713
   66DG      H6 1501   1.249   4.645   3.371 -0.0318  1.9218 -0.4274
   66DG      H7 1502   1.215   4.670   3.205  0.4023  1.2174  0.3345
   66DG      H8 1503   1.290   4.516   3.259  0.0012  0.3141 -0.7152
   66DG      O9 1504   1.978   4.550   3.479  0.4640 -0.0174  0.5786
   66DG     O10 1505   1.418   4.672   3.250  0.2072 -0.3870 -0.1039
   66DG     C11 1506   1.941   4.676   3.528 -0.2320 -0.4405  0.0575
   66DG     C12 1507   1.507   4.631   3.356  0.3341  0.7412  0.2489
   66DG     H13 1508   2.021   4.750   3.539 -0.3222 -0.4206  0.6145
   66DG     H14 1509   1.887   4.666   3.623  0.2638 -0.2871  0.3615
   66DG     H15 1510   1.536   4.528   3.334  1.2325  0.9490  0.4310
   66DG     H16 1511   1.458   4.634   3.453  2.4903 -0.9628  1.4897
   66DG     C17 1512   1.845   4.736   3.421  0.1746 -0.6508  0.0744
   66DG     C18 1513   1.629   4.721   3.349 -0.1498  0.2725 -0.7648
   66DG     O19 1514   1.736   4.649   3.407 -0.0493 -0.0448 -0.8707
   66DG     H20 1515   1.898   4.746   3.327  0.2072  0.6770  0.2103
   66DG     H21 1516   1.824   4.840   3.449  2.1175  0.1679 -1.2799
   66DG     H22 1517   1.658   4.736   3.245  1.8642  0.4791 -0.2066
   66DG     H23 1518   1.605   4.809   3.409 -1.7790 -1.7713  1.8092
   67DG      C1 1519   4.249   5.088   0.405 -0.3062  0.1946  0.2529
   67DG      C2 1520   4.102   4.994  -0.255 -0.7817 -0.3164  0.1818
   67DG      H3 1521   4.308   5.167   0.359  1.1709 -0.3731  1.0854
   67DG      H4 1522   4.303   5.052   0.493 -0.4431  0.1097  0.3039
   67DG      H5 1523   4.153   5.130   0.434 -0.7173  0.0945 -0.9354
   67DG      H6 1524   4.143   4.965  -0.352  0.9427  2.9479 -0.2144
   67DG      H7 1525   3.996   4.968  -0.255 -1.5368  2.2813  2.8380
   67DG      H8 1526   4.101   5.103  -0.255 -0.5298 -0.2787  2.3989
   67DG      O9 1527   4.244   4.980   0.315  0.4148 -0.1782  0.4995
   67DG     O10 1528   4.175   4.943  -0.145  0.0610  0.2966 -0.2448
   67DG     C11 1529   4.367   4.924   0.288  0.1799  0.8636 -0.0795
   67DG     C12 1530   4.152   4.801  -0.124 -0.8997  0.3670  0.7209
   67DG     H13 1531   4.423   4.884   0.373 -0.0536  0.1356 -0.2564
   67DG     H14 1532   4.426   4.998   0.234 -0.9702  0.3882 -2.0933
   67DG     H15 1533   4.174   4.741  -0.213 -0.0816  0.7680  0.6433
   67DG     H16 1534   4.053   4.777  -0.084 -0.1739 -3.5504  0.5322
   67DG     C17 1535   4.344   4.805   0.191 -0.1078  0.0929 -0.0729
   67DG     C18 1536   4.255   4.741  -0.025  0.1447 -0.2269  0.0040
   67DG     O19 1537   4.268   4.843   0.075 -0.2607  0.4161  0.1523
   67DG     H20 1538   4.284   4.723   0.232  0.0596  0.4467  0.9115
   67DG     H21 1539   4.431   4.756   0.148 -1.4129 -0.6911 -1.9391
   67DG     H22 1540   4.226   4.645   0.018  0.3568  0.1367  0.9844
   67DG     H23 1541   4.347   4.721  -0.079  1.1812 -1.8619  2.2296
   68DG      C1 1542   2.396   3.680   0.202  0.2596  0.1630 -0.1817
   68DG      C2 1543   2.776   4.233   0.164 -0.0332 -0.4312  0.3754
   68DG      H3 1544   2.357   3.781   0.190 -2.8700 -0.9077  0.1189
   68DG      H4 1545   2.348   3.620   0.124 -0.5195  2.0733 -1.2425
   68DG      H5 1546   2.504   3.670   0.194  0.0089 -2.9137 -1.0433
   68DG      H6 1547   2.843   4.256   0.080  0.7845  2.7117  1.7501
   68DG      H7 1548   2.673   4.260   0.142 -0.1083  0.7157  1.9610
   68DG      H8 1549   2.808   4.294   0.248  0.7911 -0.3545  0.0178
   68DG      O9 1550   2.360   3.618   0.325 -0.5542 -0.0195  0.5290
   68DG     O10 1551   2.789   4.099   0.208 -0.0528 -0.1737 -0.3431
   68DG     C11 1552   2.393   3.696   0.438  0.0946 -0.4760 -0.6948
   68DG     C12 1553   2.673   4.050   0.289 -0.1270 -0.1824 -0.0436
   68DG     H13 1554   2.368   3.628   0.519  0.3359 -1.6111 -1.5389
   68DG     H14 1555   2.334   3.786   0.452  2.5049  1.3245 -1.3952
   68DG     H15 1556   2.592   4.058   0.217  0.2949  1.3653 -0.3834
   68DG     H16 1557   2.658   4.115   0.376 -3.2073  1.3072 -1.5240
   68DG     C17 1558   2.535   3.748   0.447 -0.2523  0.2688 -0.7376
   68DG     C18 1559   2.683   3.899   0.331  0.7959 -0.3057 -0.6273
   68DG     O19 1560   2.545   3.872   0.372 -0.7235  0.9915  0.2412
   68DG     H20 1561   2.610   3.674   0.419  0.5860 -0.2230  2.4528
   68DG     H21 1562   2.546   3.770   0.553 -0.9080 -0.2876 -0.5430
   68DG     H22 1563   2.717   3.835   0.249 -0.4563 -0.5574 -0.9758
   68DG     H23 1564   2.746   3.882   0.418  1.2617 -2.3774 -1.3207
   69DG      C1 1565   1.006   1.629   0.282  0.0580 -0.1144 -0.1963
   69DG      C2 1566   1.598   1.307   0.433 -0.2595 -0.1373  0.2235
   69DG      H3 1567   0.905   1.606   0.247  0.2343  0.0847 -0.8512
   69DG      H4 1568   1.007   1.662   0.386  3.3276  2.4750 -0.8896
   69DG      H5 1569   1.075   1.546   0.275 -0.4395 -0.5847  0.3668
   69DG      H6 1570   1.651   1.335   0.524  1.2163 -0.3326 -0.5416
   69DG      H7 1571   1.519   1.236   0.457 -1.2743  1.3760  1.5916
   69DG      H8 1572   1.673   1.265   0.365  1.1712  1.0306  1.0240
   69DG      O9 1573   1.062   1.726   0.194  0.1659 -0.1779 -0.0893
   69DG     O10 1574   1.552   1.423   0.362  0.0106  0.3879 -0.6940
   69DG     C11 1575   1.186   1.781   0.241 -0.2471  0.0709 -0.4838
   69DG     C12 1576   1.480   1.398   0.242  0.2641  0.1319 -0.5946
   69DG     H13 1577   1.189   1.786   0.349 -1.4626  1.2775 -0.4674
   69DG     H14 1578   1.188   1.887   0.214  1.7092  1.1447  3.2247
   69DG     H15 1579   1.381   1.358   0.265  1.0217 -2.3245 -1.2717
   69DG     H16 1580   1.533   1.323   0.182  1.2231  1.1613 -1.0600
   69DG     C17 1581   1.307   1.717   0.177 -0.0717  0.8087 -0.3337
   69DG     C18 1582   1.454   1.531   0.173 -0.3842 -0.2808  0.5332
   69DG     O19 1583   1.329   1.582   0.218 -0.3641  0.2440  0.5370
   69DG     H20 1584   1.398   1.777   0.186  0.0685  0.5462  0.0272
   69DG     H21 1585   1.279   1.718   0.072 -2.5647  1.4569  0.2637
   69DG     H22 1586   1.537   1.600   0.192 -0.9247  0.7465 -0.7822
   69DG     H23 1587   1.452   1.513   0.066 -2.8669  0.3683  0.4276
   70DG      C1 1588   4.901   5.244   4.839 -0.0737  0.6024  0.0729
   70DG      C2 1589   5.183   5.330   5.518  0.0423  0.1074  0.7110
   70DG      H3 1590   4.956   5.175   4.903 -0.8738  0.0412  0.1653
   70DG      H4 1591   4.945   5.243   4.739 -1.1005  2.5000 -0.4426
   70DG      H5 1592   4.810   5.190   4.814  1.1829 -1.2806 -0.6538
   70DG      H6 1593   5.200   5.437   5.531 -0.1016  0.1312  0.7004
   70DG      H7 1594   5.079   5.318   5.546 -0.3977  1.8558 -0.0563
   70DG      H8 1595   5.244   5.270   5.585  0.2827 -0.9723 -0.4328
   70DG      O9 1596   4.891   5.377   4.862  0.3944 -0.5487 -0.0674
   70DG     O10 1597   5.218   5.300   5.385  0.5529  0.1291 -0.0218
   70DG     C11 1598   5.012   5.452   4.842  0.0996  0.1853 -0.5323
   70DG     C12 1599   5.132   5.362   5.290 -0.3502  0.5681  0.1135
   70DG     H13 1600   4.983   5.554   4.868  0.3118  0.5219 -1.5830
   70DG     H14 1601   5.038   5.444   4.737  1.7030 -0.6678 -0.0864
   70DG     H15 1602   5.128   5.471   5.302 -0.4492  0.5672  0.0862
   70DG     H16 1603   5.030   5.324   5.303 -0.4213 -0.0559 -1.9083
   70DG     C17 1604   5.132   5.416   4.935 -0.2320 -0.2032 -0.2479
   70DG     C18 1605   5.178   5.337   5.149  0.1777  0.0729  0.0659
   70DG     O19 1606   5.086   5.406   5.065  0.4267  0.3382 -0.3455
   70DG     H20 1607   5.209   5.492   4.921 -1.3288  0.8620 -0.7419
   70DG     H21 1608   5.185   5.324   4.910  0.9982 -0.1443  1.8891
   70DG     H22 1609   5.276   5.384   5.135 -0.2069  1.4970  1.8699
   70DG     H23 1610   5.167   5.231   5.128 -1.6718  0.1302  0.6446
   71DG      C1 1611   2.613   0.838   0.388 -0.4730  0.7984  0.7746
   71DG      C2 1612   2.765   0.121   0.115 -0.1114 -0.2297 -0.1394
   71DG      H3 1613   2.604   0.925   0.453  2.2183  0.5312  1.6329
   71DG      H4 1614   2.513   0.805   0.360  0.1796  0.8242 -1.8470
   71DG      H5 1615   2.673   0.854   0.299 -0.6109 -1.9208  0.1010
   71DG      H6 1616   2.671   0.111   0.060 -1.7456 -1.0927  2.6293
   71DG      H7 1617   2.847   0.116   0.043  1.9815  0.4369  2.0540
   71DG      H8 1618   2.758   0.031   0.177 -2.6326 -0.9057 -1.2744
   71DG      O9 1619   2.676   0.739   0.467  0.2949  0.1238  0.3982
   71DG     O10 1620   2.779   0.245   0.182  0.1176  0.1576 -0.2271
   71DG     C11 1621   2.701   0.607   0.402 -0.0853 -0.3721 -0.5395
   71DG     C12 1622   2.900   0.243   0.256  0.3902 -0.2721 -0.1180
   71DG     H13 1623   2.758   0.637   0.315  1.4920 -0.8476  0.3000
   71DG     H14 1624   2.605   0.566   0.372 -0.1298 -1.2891  0.7648
   71DG     H15 1625   2.994   0.241   0.199  0.8889  1.8854  0.5134
   71DG     H16 1626   2.896   0.171   0.337 -0.2587  0.1065  0.1911
   71DG     C17 1627   2.794   0.522   0.481 -0.1626 -0.2087 -0.0489
   71DG     C18 1628   2.891   0.380   0.321 -0.5565  0.4474  0.5494
   71DG     O19 1629   2.795   0.396   0.426 -0.2418 -0.0162 -0.1407
   71DG     H20 1630   2.759   0.522   0.584 -1.3951  0.5080 -0.4438
   71DG     H21 1631   2.898   0.556   0.474  1.5268 -4.7884 -0.6956
   71DG     H22 1632   2.988   0.391   0.369 -1.6341 -3.2855  4.1324
   71DG     H23 1633   2.874   0.447   0.237  1.7981  1.0913  0.5311
   72DG      C1 1634   3.597   3.204   2.153 -0.6839 -1.1900  0.1348
   72DG      C2 1635   3.104   2.767   2.619 -0.0680  0.5123  0.0816
   72DG      H3 1636   3.586   3.278   2.232  1.2665 -0.2349 -0.4167
   72DG      H4 1637   3.548   3.231   2.059 -1.0498 -3.4502 -0.3713
   72DG      H5 1638   3.702   3.206   2.123 -0.8240  1.2323 -0.4295
   72DG      H6 1639   3.149   2.783   2.717 -0.9735 -0.6940  0.7172
   72DG      H7 1640   3.018   2.701   2.630  0.1160  0.0505 -1.1391
   72DG      H8 1641   3.182   2.697   2.587 -1.6846 -0.7290 -1.3372
   72DG      O9 1642   3.551   3.081   2.195  0.6608 -0.5012  0.0388
   72DG     O10 1643   3.089   2.874   2.529  0.0004 -0.2513 -0.2925
   72DG     C11 1644   3.414   3.082   2.241  0.2579  0.2797 -0.6211
   72DG     C12 1645   3.038   2.838   2.401 -0.8077  0.4264  0.1730
   72DG     H13 1646   3.340   3.146   2.193 -1.4504 -0.1223  1.3553
   72DG     H14 1647   3.421   3.129   2.339  0.6033  2.3785 -1.5947
   72DG     H15 1648   2.990   2.922   2.351 -1.9396 -1.1942 -1.6063
   72DG     H16 1649   2.981   2.746   2.391  2.7843 -1.8097 -2.2937
   72DG     C17 1650   3.362   2.940   2.248 -0.0519  0.0238 -0.5783
   72DG     C18 1651   3.165   2.824   2.311 -0.2473 -0.2951 -0.0350
   72DG     O19 1652   3.244   2.942   2.323  0.2563 -0.2049  0.1071
   72DG     H20 1653   3.436   2.867   2.280  1.8319  1.3410 -1.7092
   72DG     H21 1654   3.332   2.911   2.147 -0.8366  0.7092 -0.5578
   72DG     H22 1655   3.232   2.739   2.328  0.5701 -0.1819 -2.3621
   72DG     H23 1656   3.127   2.792   2.214  2.5738 -0.1085 -1.2957
   73DG      C1 1657   1.727   2.575   1.610 -0.2377 -0.0872 -0.5098
   73DG      C2 1658   2.518   2.805   1.801  0.2592  0.2616 -0.3440
   73DG      H3 1659   1.673   2.521   1.533  0.3292 -0.7506 -0.4525
   73DG      H4 1660   1.775   2.666   1.573  1.3694 -0.3243  0.8635
   73DG      H5 1661   1.648   2.607   1.677  1.3030 -0.2409  1.5028
   73DG      H6 1662   2.607   2.748   1.828  0.5335  1.0306  0.4263
   73DG      H7 1663   2.543   2.877   1.723 -0.8184  0.8953 -0.1212
   73DG      H8 1664   2.492   2.856   1.893 -1.5932  1.7163 -1.5972
   73DG      O9 1665   1.824   2.493   1.679  0.0554 -0.2462 -0.6065
   73DG     O10 1666   2.417   2.712   1.758 -0.3226  0.3817  0.0432
   73DG     C11 1667   1.920   2.567   1.755  0.4663  0.0151 -0.5708
   73DG     C12 1668   2.376   2.638   1.873  0.1214 -0.3764 -0.3302
   73DG     H13 1669   1.883   2.580   1.857  2.7556 -0.4373  0.3881
   73DG     H14 1670   1.929   2.669   1.717  1.6466  0.9802  2.0245
   73DG     H15 1671   2.336   2.699   1.954 -2.0036 -0.5094 -1.2190
   73DG     H16 1672   2.465   2.583   1.903  0.5418 -0.7635 -2.1576
   73DG     C17 1673   2.065   2.508   1.741 -0.7852 -0.0900  0.3798
   73DG     C18 1674   2.284   2.531   1.813 -0.1675  0.5858 -0.7498
   73DG     O19 1675   2.158   2.582   1.822  0.0876 -0.2507 -0.0884
   73DG     H20 1676   2.104   2.526   1.641  0.7826  1.1843  1.1794
   73DG     H21 1677   2.060   2.404   1.773 -0.2696 -1.3305 -3.1203
   73DG     H22 1678   2.318   2.512   1.712  0.9704  3.2316 -0.9438
   73DG     H23 1679   2.292   2.440   1.872 -0.4291  2.0817  1.7594
   74DG      C1 1680   3.575   0.384   5.380  0.3483  0.1057  0.8694
   74DG      C2 1681   3.701  -0.157   5.309 -0.3428 -0.1557 -0.5387
   74DG      H3 1682   3.579   0.280   5.413 -0.0043  0.5452  2.3939
   74DG      H4 1683   3.574   0.379   5.272 -0.0900 -0.3690  0.8944
   74DG      H5 1684   3.484   0.438   5.404 -1.0030 -1.4227 -0.5834
   74DG      H6 1685   3.716  -0.254   5.357 -0.0434 -0.0292 -0.3794
   74DG      H7 1686   3.597  -0.134   5.331 -0.3761 -1.0487  0.2964
   74DG      H8 1687   3.724  -0.162   5.202  1.0095  2.4584 -0.4348
   74DG      O9 1688   3.695   0.466   5.405  0.5258  0.4489  0.2634
   74DG     O10 1689   3.783  -0.053   5.364  0.2810 -0.0416 -0.1858
   74DG     C11 1690   3.747   0.440   5.534 -0.5719  0.2073 -0.0150
   74DG     C12 1691   3.782   0.063   5.277  0.0064  0.4696  0.1226
   74DG     H13 1692   3.668   0.426   5.607 -0.6566  0.9798  0.0525
   74DG     H14 1693   3.792   0.538   5.549  0.0808  0.0703 -0.9448
   74DG     H15 1694   3.679   0.096   5.268 -0.4602 -0.1336  2.4812
   74DG     H16 1695   3.832   0.044   5.182  0.8425  0.6596  0.5130
   74DG     C17 1696   3.850   0.320   5.537  0.5550  0.1131 -0.1637
   74DG     C18 1697   3.861   0.170   5.344 -0.0745  0.7531  0.2100
   74DG     O19 1698   3.813   0.197   5.472  0.2177  0.0835  0.1786
   74DG     H20 1699   3.873   0.290   5.639 -1.5307  1.0743  0.6535
   74DG     H21 1700   3.943   0.351   5.490 -0.0394  0.6349 -1.0213
   74DG     H22 1701   3.962   0.130   5.341 -0.9352 -1.5210 -0.8850
   74DG     H23 1702   3.867   0.260   5.283  2.5803 -0.3997 -1.4253
   75DG      C1 1703   4.932   0.683   5.465  0.0698 -0.5211  0.0275
   75DG      C2 1704   5.284   0.894   6.252 -0.0469  0.2370 -0.4853
   75DG      H3 1705   4.954   0.578   5.449  1.2997 -0.2729 -0.0618
   75DG      H4 1706   4.990   0.743   5.394 -1.3019  0.1586 -0.5564
   75DG      H5 1707   4.828   0.695   5.434 -0.2215 -1.3893  0.6463
   75DG      H6 1708   5.283   0.950   6.345  0.7622 -1.8883  0.8796
   75DG      H7 1709   5.321   0.794   6.277 -2.0630 -0.8050 -1.4357
   75DG      H8 1710   5.356   0.938   6.182 -0.4453 -1.7196 -2.2216
   75DG      O9 1711   4.952   0.730   5.597 -0.2675 -0.2643  0.4955
   75DG     O10 1712   5.158   0.879   6.194 -0.5687  0.1289 -0.7788
   75DG     C11 1713   4.892   0.653   5.697 -0.4321  0.2182  0.1798
   75DG     C12 1714   5.153   0.846   6.062 -0.3279  0.5217 -0.1391
   75DG     H13 1715   4.947   0.561   5.719 -1.8731 -0.7646 -0.1800
   75DG     H14 1716   4.787   0.629   5.679 -0.0962 -1.3818  0.1637
   75DG     H15 1717   5.208   0.752   6.050 -0.4646  0.3737  0.3438
   75DG     H16 1718   5.208   0.918   6.002  2.2498  0.9998  2.5351
   75DG     C17 1719   4.883   0.743   5.822 -0.4526  0.2433 -0.5006
   75DG     C18 1720   5.010   0.816   6.011  0.0514 -0.2282 -0.0971
   75DG     O19 1721   5.013   0.769   5.878  0.4582 -0.2118  0.2557
   75DG     H20 1722   4.824   0.688   5.896  1.9914 -2.8636 -0.6468
   75DG     H21 1723   4.839   0.840   5.801  0.5809  1.1882  1.4898
   75DG     H22 1724   4.952   0.751   6.076  0.4790  0.5695  1.1305
   75DG     H23 1725   4.958   0.911   6.012 -0.7187 -0.5244 -3.0398
   76DG      C1 1726   0.607   3.403   5.058  0.2474  0.4364 -0.7242
   76DG      C2 1727  -0.060   3.476   5.057  0.5116 -0.1569 -0.2663
   76DG      H3 1728   0.711   3.404   5.025  0.9938  0.9587  1.4751
   76DG      H4 1729   0.597   3.305   5.104  2.0076  0.0651 -1.0332
   76DG      H5 1730   0.601   3.474   5.140  0.3035 -0.0511 -0.2908
   76DG      H6 1731   0.047   3.494   5.066  0.7115 -0.8998 -0.9997
   76DG      H7 1732  -0.102   3.566   5.101  1.1660  0.0999 -0.1491
   76DG      H8 1733  -0.087   3.380   5.102 -0.5498 -0.1887 -0.9476
   76DG      O9 1734   0.525   3.429   4.953 -0.7956  0.2605  0.0307
   76DG     O10 1735  -0.114   3.479   4.926 -0.1101  0.2541  0.6651
   76DG     C11 1736   0.394   3.373   4.963 -0.4545  0.6649  0.0590
   76DG     C12 1737  -0.052   3.390   4.827 -0.1590 -0.2570  0.0221
   76DG     H13 1738   0.352   3.402   5.059  2.5456  0.7232  1.4464
   76DG     H14 1739   0.394   3.265   4.957  1.5085  0.6832 -1.3627
   76DG     H15 1740  -0.119   3.385   4.741  1.3495  1.5534 -1.3270
   76DG     H16 1741  -0.040   3.290   4.869 -0.0604  0.6001  2.1519
   76DG     C17 1742   0.310   3.440   4.860  0.2832  0.6414  0.4231
   76DG     C18 1743   0.086   3.437   4.782 -0.1843  0.2194  0.2749
   76DG     O19 1744   0.176   3.398   4.886  0.4448  0.1866  0.1017
   76DG     H20 1745   0.338   3.400   4.762 -1.2994  0.0029  0.2026
   76DG     H21 1746   0.314   3.549   4.863  1.4063  0.5929  1.4134
   76DG     H22 1747   0.101   3.380   4.690  0.8115 -1.8127  1.6246
   76DG     H23 1748   0.083   3.541   4.748 -2.4199 -0.4757 -1.9692
   77DG      C1 1749   1.885   1.803   1.153  0.8134 -0.3553  0.4515
   77DG      C2 1750   2.208   1.242   1.466  0.7113  0.4784 -0.6486
   77DG      H3 1751   1.821   1.715   1.154 -0.5949  0.6032  2.7155
   77DG      H4 1752   1.895   1.822   1.046 -1.4405  2.0423  0.5507
   77DG      H5 1753   1.822   1.881   1.197 -0.6188 -1.0354 -0.3029
   77DG      H6 1754   2.292   1.179   1.495  0.7927 -0.1020 -2.0652
   77DG      H7 1755   2.163   1.308   1.540 -2.1479 -0.8079 -1.0969
   77DG      H8 1756   2.129   1.171   1.439  1.9379 -1.4347  0.5346
   77DG      O9 1757   2.007   1.780   1.220 -0.1996  0.2692 -0.1236
   77DG     O10 1758   2.225   1.324   1.354  0.2732 -0.4968 -0.4242
   77DG     C11 1759   2.001   1.781   1.356 -0.1635 -0.3766  0.0164
   77DG     C12 1760   2.323   1.427   1.378 -0.0172  0.3069  0.2324
   77DG     H13 1761   1.923   1.709   1.383  0.3630 -0.7743  0.4898
   77DG     H14 1762   1.963   1.882   1.376 -0.4203 -0.4022 -0.3270
   77DG     H15 1763   2.359   1.462   1.281  0.9709 -0.3053  0.3721
   77DG     H16 1764   2.416   1.390   1.420  1.9648  1.4724 -2.7832
   77DG     C17 1765   2.127   1.741   1.428 -0.8715 -0.5447  0.2226
   77DG     C18 1766   2.274   1.553   1.450 -0.4820 -0.1986 -0.0739
   77DG     O19 1767   2.166   1.610   1.381 -0.4510 -0.4394  0.1942
   77DG     H20 1768   2.114   1.737   1.536  1.1995 -2.3793  0.4851
   77DG     H21 1769   2.207   1.809   1.397 -2.7627  0.5423 -2.7384
   77DG     H22 1770   2.250   1.525   1.553  1.6669 -0.3377  0.4446
   77DG     H23 1771   2.355   1.626   1.449 -1.2285  0.6491  0.0323
   78DG      C1 1772   4.727   2.489   2.710  0.5674  0.8970 -0.7310
   78DG      C2 1773   4.040   2.860   2.616 -0.4371 -0.8342 -0.4658
   78DG      H3 1774   4.694   2.573   2.769  0.7101  0.5393 -0.1351
   78DG      H4 1775   4.831   2.459   2.726 -0.3345 -2.2479 -0.0627
   78DG      H5 1776   4.663   2.409   2.748  0.4008  1.7391  0.8023
   78DG      H6 1777   3.984   2.788   2.675 -0.0351 -0.7827 -0.0084
   78DG      H7 1778   4.014   2.964   2.636  0.4546 -0.6946  0.0364
   78DG      H8 1779   4.009   2.826   2.518  0.3853 -2.2667 -0.2518
   78DG      O9 1780   4.704   2.514   2.573  0.1586 -0.2109 -0.4615
   78DG     O10 1781   4.179   2.836   2.641 -0.1147 -0.0003  0.4107
   78DG     C11 1782   4.577   2.570   2.552 -0.3141 -0.5107 -0.2720
   78DG     C12 1783   4.261   2.903   2.542 -0.4062  0.5373  0.0101
   78DG     H13 1784   4.504   2.506   2.601 -1.0958 -0.2584 -1.0925
   78DG     H14 1785   4.562   2.567   2.444 -1.6186  0.3488 -0.1410
   78DG     H15 1786   4.241   3.010   2.551  2.2752  0.9928  1.9316
   78DG     H16 1787   4.250   2.876   2.437 -1.2621  0.7511  0.0412
   78DG     C17 1788   4.571   2.718   2.585  0.5003 -0.0167  0.2006
   78DG     C18 1789   4.398   2.887   2.581  0.1210 -0.0324 -0.6503
   78DG     O19 1790   4.432   2.751   2.568 -0.4713  0.5983 -0.1591
   78DG     H20 1791   4.629   2.762   2.503  0.2861 -1.5885 -0.8311
   78DG     H21 1792   4.610   2.748   2.682 -0.7107  0.7914  0.4678
   78DG     H22 1793   4.460   2.946   2.514 -0.0209  0.4873 -0.3298
   78DG     H23 1794   4.424   2.921   2.681 -0.7189 -1.1408 -0.0305
   79DG      C1 1795   4.996   3.682   5.332 -1.0494 -0.0084  0.3109
   79DG      C2 1796   4.511   3.695   4.911 -0.2311 -0.1677  0.4252
   79DG      H3 1797   5.065   3.659   5.251 -0.5839  1.1591  0.3604
   79DG      H4 1798   5.049   3.653   5.423 -1.6361 -2.6458 -0.0950
   79DG      H5 1799   4.978   3.789   5.332  1.6620  0.5661 -1.9861
   79DG      H6 1800   4.459   3.626   4.845  1.5099 -2.6694  1.4958
   79DG      H7 1801   4.454   3.781   4.944 -1.3060 -0.0671 -1.5446
   79DG      H8 1802   4.595   3.744   4.861 -0.8668  0.6739  0.1579
   79DG      O9 1803   4.885   3.596   5.324 -0.3756 -0.1862  0.0675
   79DG     O10 1804   4.552   3.633   5.027  0.1396 -0.7289 -0.1395
   79DG     C11 1805   4.794   3.622   5.430 -0.1204  0.1977 -0.4045
   79DG     C12 1806   4.441   3.614   5.115 -0.0867  0.1552  0.2871
   79DG     H13 1807   4.770   3.727   5.441 -1.3004 -0.2260  1.7388
   79DG     H14 1808   4.837   3.576   5.519 -0.1497 -0.1372 -0.5582
   79DG     H15 1809   4.365   3.559   5.058  1.8702 -1.0832 -1.2597
   79DG     H16 1810   4.409   3.711   5.152  0.2925  0.4752 -0.2122
   79DG     C17 1811   4.659   3.545   5.396 -0.7825 -0.1291 -0.0695
   79DG     C18 1812   4.493   3.536   5.226  0.0532  0.0207 -0.1608
   79DG     O19 1813   4.617   3.597   5.272 -0.1945  0.5781  0.1907
   79DG     H20 1814   4.584   3.561   5.473 -1.0182 -2.5106  0.2750
   79DG     H21 1815   4.672   3.437   5.406 -2.4989 -0.3240  0.2146
   79DG     H22 1816   4.419   3.522   5.304  0.3327 -2.2735 -0.2480
   79DG     H23 1817   4.535   3.439   5.199 -0.4586  0.0765 -1.2108
   80DG      C1 1818   5.034   1.541   0.303 -0.4095  0.3554 -0.3894
   80DG      C2 1819   5.230   1.744  -0.371  0.3023  1.3496  0.1261
   80DG      H3 1820   5.066   1.470   0.380  1.2701 -2.3861 -3.4078
   80DG      H4 1821   4.957   1.490   0.245 -0.3054 -0.0565 -0.1711
   80DG      H5 1822   4.992   1.620   0.366  0.2358 -0.3838  1.0384
   80DG      H6 1823   5.242   1.637  -0.350 -0.2591  1.0769 -0.9021
   80DG      H7 1824   5.147   1.750  -0.441  0.6236 -1.4523 -0.6158
   80DG      H8 1825   5.323   1.779  -0.415  0.5582 -1.1750 -1.5886
   80DG      O9 1826   5.146   1.596   0.242  0.1272  0.0042 -0.3634
   80DG     O10 1827   5.192   1.819  -0.257  0.0948 -0.4209 -0.4025
   80DG     C11 1828   5.217   1.498   0.165  0.2466 -0.0183  0.2302
   80DG     C12 1829   5.299   1.854  -0.167 -0.2585  0.1373 -0.4031
   80DG     H13 1830   5.153   1.430   0.109 -3.4392  1.4509  2.2950
   80DG     H14 1831   5.262   1.433   0.240 -1.9513  0.0746  1.7206
   80DG     H15 1832   5.261   1.935  -0.105  0.7282  0.7885 -0.6184
   80DG     H16 1833   5.385   1.898  -0.218  0.3197 -0.1851  0.2660
   80DG     C17 1834   5.320   1.565   0.073  0.3705 -0.2892 -0.3498
   80DG     C18 1835   5.344   1.732  -0.087  0.7036  0.4697 -0.0500
   80DG     O19 1836   5.262   1.681   0.015  0.1411 -0.2620 -0.0761
   80DG     H20 1837   5.348   1.500  -0.009 -1.8066 -0.7236 -0.7938
   80DG     H21 1838   5.409   1.593   0.130  0.2758  0.0668 -0.3715
   80DG     H22 1839   5.362   1.660  -0.167  0.2740  1.0197 -0.6572
   80DG     H23 1840   5.439   1.747  -0.035  0.9417 -0.3592 -0.2285
   81DG      C1 1841   1.758   2.988   5.401 -0.5091 -0.4220 -0.5035
   81DG      C2 1842   1.375   3.404   4.824 -0.2788  0.8028 -0.0270
   81DG      H3 1843   1.705   2.984   5.496  1.7965  0.4622  0.9009
   81DG      H4 1844   1.834   3.065   5.416 -0.2532 -1.0865  2.0881
   81DG      H5 1845   1.800   2.888   5.390 -0.0104 -0.2986  0.2295
   81DG      H6 1846   1.460   3.459   4.783 -0.6708  1.2089 -0.3083
   81DG      H7 1847   1.288   3.402   4.757 -0.4310  1.6904  0.1235
   81DG      H8 1848   1.343   3.461   4.911 -0.1013  1.1675 -0.1989
   81DG      O9 1849   1.676   3.027   5.291 -0.2325  0.4287  0.6844
   81DG     O10 1850   1.413   3.273   4.875 -0.3285 -0.4611 -0.0956
   81DG     C11 1851   1.562   2.942   5.282  0.7312  0.7485 -0.5080
   81DG     C12 1852   1.495   3.272   4.989  0.7033 -0.6461 -0.0563
   81DG     H13 1853   1.482   2.967   5.352 -0.0740  1.1869 -1.5656
   81DG     H14 1854   1.595   2.839   5.294 -1.6835  0.0569  0.9424
   81DG     H15 1855   1.429   3.308   5.068 -1.0164 -2.6728 -0.5068
   81DG     H16 1856   1.577   3.341   4.967 -0.8404  0.8776 -1.3274
   81DG     C17 1857   1.502   2.928   5.137  0.1303 -0.0707  0.4538
   81DG     C18 1858   1.544   3.129   5.016 -0.7459 -0.1901  0.3100
   81DG     O19 1859   1.449   3.049   5.082  0.2396  0.0402 -0.3088
   81DG     H20 1860   1.419   2.857   5.135 -0.2979  0.3898 -3.0305
   81DG     H21 1861   1.570   2.885   5.063 -0.1716 -0.6958  0.5283
   81DG     H22 1862   1.570   3.081   4.922 -0.2554  2.2770 -0.9120
   81DG     H23 1863   1.632   3.142   5.079 -1.7375  0.3827  1.6190
   82DG      C1 1864   2.021   4.137   5.092  0.5151 -0.3850  0.2305
   82DG      C2 1865   1.735   3.366   5.317 -0.7772  0.1460  0.4284
   82DG      H3 1866   2.015   4.243   5.118 -3.7535 -0.0586 -1.2959
   82DG      H4 1867   2.038   4.137   4.985  3.0020 -3.7134  0.4514
   82DG      H5 1868   2.108   4.098   5.145 -0.7374  0.6365  3.2664
   82DG      H6 1869   1.775   3.340   5.415 -2.2324 -0.6340  0.8420
   82DG      H7 1870   1.641   3.313   5.303  0.1956 -1.5901  0.1539
   82DG      H8 1871   1.805   3.332   5.240 -0.7886  1.2659 -0.0885
   82DG      O9 1872   1.901   4.071   5.143  0.6150 -0.1467  0.2859
   82DG     O10 1873   1.728   3.507   5.306  0.7535  0.1927 -0.0346
   82DG     C11 1874   1.903   3.936   5.106  0.7637  0.4512 -0.1488
   82DG     C12 1875   1.666   3.539   5.182 -0.4493 -0.0808  0.3052
   82DG     H13 1876   1.978   3.868   5.148  1.4048  0.6000 -1.0183
   82DG     H14 1877   1.906   3.915   4.999 -0.4604 -1.7451  0.2050
   82DG     H15 1878   1.576   3.479   5.171 -0.8735  0.8609 -1.8921
   82DG     H16 1879   1.725   3.505   5.097 -0.0471  0.4428  0.3672
   82DG     C17 1880   1.768   3.881   5.142  0.6500  0.3546  0.1721
   82DG     C18 1881   1.646   3.688   5.174  0.0595  0.3405 -0.4012
   82DG     O19 1882   1.770   3.738   5.137 -0.5651 -0.1032 -0.3676
   82DG     H20 1883   1.698   3.939   5.081  2.0344  0.8496 -0.9843
   82DG     H21 1884   1.761   3.900   5.249  0.3145  2.5714 -0.1860
   82DG     H22 1885   1.584   3.715   5.089 -2.1250  0.2911  1.0775
   82DG     H23 1886   1.614   3.739   5.265 -0.4683  2.4047 -1.6946
   83DG      C1 1887   2.774   4.038   0.877  0.2301  0.3258  0.0870
   83DG      C2 1888   2.893   3.607   1.428  0.0212 -0.1840 -0.0375
   83DG      H3 1889   2.845   4.103   0.929  0.6504 -0.3099  0.3220
   83DG      H4 1890   2.672   4.058   0.912 -0.5583 -0.4978 -1.6432
   83DG      H5 1891   2.772   4.055   0.770 -0.6568 -0.0834  0.0246
   83DG      H6 1892   2.844   3.675   1.498 -0.1197 -0.1923 -0.1264
   83DG      H7 1893   2.875   3.507   1.466  0.5472  0.6269  2.5586
   83DG      H8 1894   3.001   3.619   1.436 -0.0524  0.0133  0.7763
   83DG      O9 1895   2.809   3.905   0.911  0.1313 -0.1467  0.7659
   83DG     O10 1896   2.859   3.635   1.296  0.9344 -0.1452  0.2900
   83DG     C11 1897   2.697   3.817   0.891  0.0792  0.3988  0.0515
   83DG     C12 1898   2.749   3.557   1.253 -0.1350 -0.4277 -0.3786
   83DG     H13 1899   2.651   3.824   0.792  1.5774 -1.6885 -0.8395
   83DG     H14 1900   2.623   3.832   0.969 -0.4419 -1.7372  0.0294
   83DG     H15 1901   2.676   3.556   1.334 -0.0451 -0.7978 -0.3042
   83DG     H16 1902   2.790   3.457   1.238 -1.0610 -0.7673 -0.6726
   83DG     C17 1903   2.743   3.671   0.896 -0.1527  1.1843 -0.6650
   83DG     C18 1904   2.689   3.608   1.118 -0.3499 -0.4960 -0.3617
   83DG     O19 1905   2.792   3.636   1.022  0.3478 -0.4907 -0.3535
   83DG     H20 1906   2.816   3.658   0.816 -0.4510  1.6880 -1.0274
   83DG     H21 1907   2.668   3.597   0.866  1.3325 -0.5168 -0.3561
   83DG     H22 1908   2.628   3.526   1.078  0.7880 -0.9308 -1.2467
   83DG     H23 1909   2.622   3.692   1.136  1.8588  1.2811 -0.1362
   84DG      C1 1910   3.705   3.394   2.584 -0.1758 -0.4131 -0.4800
   84DG      C2 1911   3.465   4.014   2.546  0.2038  0.0585  0.0021
   84DG      H3 1912   3.722   3.392   2.476 -1.0611 -0.1458 -0.6307
   84DG      H4 1913   3.700   3.293   2.624  0.8618 -0.8157 -1.3118
   84DG      H5 1914   3.792   3.424   2.641 -0.0960 -2.3513  0.4919
   84DG      H6 1915   3.487   4.023   2.439 -0.2076 -0.7136 -0.1540
   84DG      H7 1916   3.383   4.084   2.561  2.5682  2.2652  4.5997
   84DG      H8 1917   3.552   4.048   2.602  1.5572  2.2342 -3.1127
   84DG      O9 1918   3.587   3.477   2.604  0.6617  0.0214  0.3898
   84DG     O10 1919   3.421   3.887   2.592 -0.2533  0.3283 -0.9499
   84DG     C11 1920   3.467   3.399   2.614  0.1738  0.2486 -0.0570
   84DG     C12 1921   3.294   3.833   2.534 -0.0825  0.1409  0.4613
   84DG     H13 1922   3.481   3.320   2.688 -1.0940 -0.0454 -0.1102
   84DG     H14 1923   3.441   3.350   2.520  1.6205  0.1291 -0.4206
   84DG     H15 1924   3.307   3.827   2.426 -2.5980 -0.4021  0.1343
   84DG     H16 1925   3.211   3.902   2.546  2.0902  2.6623  2.0248
   84DG     C17 1926   3.350   3.489   2.654 -0.5087 -1.0150  0.6307
   84DG     C18 1927   3.255   3.706   2.600  0.9570  0.1330  0.3243
   84DG     O19 1928   3.354   3.608   2.572  0.6394 -0.2366  0.3019
   84DG     H20 1929   3.365   3.515   2.759  0.2745  0.7336  0.1133
   84DG     H21 1930   3.257   3.434   2.638 -0.3928 -0.9484 -0.3271
   84DG     H22 1931   3.250   3.720   2.708  1.3565  0.6181  0.2771
   84DG     H23 1932   3.162   3.658   2.568  1.3300 -0.1989 -0.2874
   85DG      C1 1933   3.360   0.509   0.588  0.5972  0.0112  0.8272
   85DG      C2 1934   3.503   0.025   0.058  0.5121 -0.2616  0.3701
   85DG      H3 1935   3.367   0.467   0.688 -0.3940  0.0170  0.9052
   85DG      H4 1936   3.264   0.559   0.578 -0.0686 -1.0876  1.5669
   85DG      H5 1937   3.433   0.584   0.557 -0.6287  0.3437 -1.4919
   85DG      H6 1938   3.460  -0.072   0.031 -0.8076 -0.4392  2.7816
   85DG      H7 1939   3.443   0.102   0.009  0.9791 -0.2486 -0.1964
   85DG      H8 1940   3.606   0.035   0.025  0.5290  0.6634  0.6705
   85DG      O9 1941   3.364   0.399   0.495  0.1555  0.3555  0.4931
   85DG     O10 1942   3.484   0.046   0.197 -0.1191  0.3535  0.2098
   85DG     C11 1943   3.339   0.445   0.356  0.0617 -0.0851  0.5952
   85DG     C12 1944   3.350   0.013   0.233  0.4176 -0.0293  0.0063
   85DG     H13 1945   3.410   0.525   0.333 -1.3923  0.7431 -1.3283
   85DG     H14 1946   3.236   0.478   0.340 -0.0608 -1.2398 -1.4478
   85DG     H15 1947   3.344  -0.019   0.337  0.6094 -0.7834 -0.2106
   85DG     H16 1948   3.320  -0.077   0.180  1.8123 -1.2057  1.1502
   85DG     C17 1949   3.341   0.331   0.257  0.4949 -0.1115 -0.6017
   85DG     C18 1950   3.244   0.116   0.206 -0.5385 -0.0910 -0.4840
   85DG     O19 1951   3.247   0.237   0.295 -0.4225  0.1399  0.0343
   85DG     H20 1952   3.441   0.294   0.239  0.2889 -0.5195 -0.9193
   85DG     H21 1953   3.315   0.370   0.158  1.9736  1.9737 -0.2456
   85DG     H22 1954   3.247   0.151   0.103  2.0085 -1.4690 -0.9877
   85DG     H23 1955   3.151   0.061   0.215 -0.9006  0.5047 -0.5321
   86DG      C1 1956   1.597   0.359   5.146 -0.3022 -0.4879 -0.2428
   86DG      C2 1957   0.764   0.284   5.486 -0.3291  0.1138 -0.1625
   86DG      H3 1958   1.583   0.467   5.147 -0.5347 -0.4181 -2.8533
   86DG      H4 1959   1.580   0.327   5.043 -2.0017 -0.2240 -0.0792
   86DG      H5 1960   1.702   0.338   5.163 -0.2895  0.3243  0.7565
   86DG      H6 1961   0.724   0.249   5.581 -0.3271  1.6829  0.4427
   86DG      H7 1962   0.772   0.392   5.487 -0.0967  0.1842 -2.6224
   86DG      H8 1963   0.699   0.251   5.405  0.4369  0.1223 -0.7931
   86DG      O9 1964   1.513   0.301   5.242 -0.1897  0.5543  0.2210
   86DG     O10 1965   0.888   0.218   5.456 -0.2204 -0.5687  0.0616
   86DG     C11 1966   1.372   0.313   5.233 -0.5279 -0.0621  0.0586
   86DG     C12 1967   0.999   0.271   5.519 -0.3138  0.2635 -0.5520
   86DG     H13 1968   1.334   0.309   5.131  0.6367  0.5128 -0.4224
   86DG     H14 1969   1.333   0.411   5.261 -1.8031 -0.0447 -1.5940
   86DG     H15 1970   0.987   0.258   5.627 -0.5277 -1.4274 -0.7624
   86DG     H16 1971   1.001   0.378   5.498  2.5432  0.5946  0.8930
   86DG     C17 1972   1.315   0.213   5.333  0.2455 -0.1169 -0.0810
   86DG     C18 1973   1.120   0.189   5.484  0.1497  0.0446  0.1778
   86DG     O19 1974   1.178   0.243   5.357  0.5887 -0.1074 -0.1344
   86DG     H20 1975   1.367   0.220   5.429  1.9632  1.8817 -1.0813
   86DG     H21 1976   1.312   0.108   5.305 -0.3172  0.5821 -2.8686
   86DG     H22 1977   1.188   0.197   5.568 -0.6551  2.3326  0.6827
   86DG     H23 1978   1.093   0.084   5.468  2.9810 -1.1096  2.2191
   87DG      C1 1979   2.207   4.497   3.074  0.6088  0.5293 -1.0187
   87DG      C2 1980   1.639   4.955   2.948  0.0956  0.6759  0.1449
   87DG      H3 1981   2.199   4.402   3.126  0.4590  0.4015 -1.2743
   87DG      H4 1982   2.234   4.567   3.153 -1.4750  1.1891 -0.8381
   87DG      H5 1983   2.291   4.490   3.005 -0.2775 -3.3509 -1.9038
   87DG      H6 1984   1.584   4.875   2.998  2.2168 -1.4395 -0.6991
   87DG      H7 1985   1.667   5.021   3.031 -0.2695  0.1159  0.7275
   87DG      H8 1986   1.567   5.005   2.883 -0.3364 -1.1991 -0.8784
   87DG      O9 1987   2.090   4.524   3.007 -0.3303 -0.0258 -0.1669
   87DG     O10 1988   1.757   4.907   2.882 -0.1769  0.0976  0.1702
   87DG     C11 1989   1.992   4.514   3.102 -0.6876 -0.5664 -0.0741
   87DG     C12 1990   1.746   4.790   2.803 -0.1775  0.2213  0.3868
   87DG     H13 1991   2.002   4.592   3.178 -1.0833  0.4079 -0.9968
   87DG     H14 1992   1.989   4.414   3.145 -0.4287 -1.0329 -1.1186
   87DG     H15 1993   1.836   4.773   2.744  0.9610  0.0856  2.0928
   87DG     H16 1994   1.652   4.792   2.748 -0.0032  1.1041  0.1138
   87DG     C17 1995   1.852   4.533   3.039 -0.6120  0.5972  0.1561
   87DG     C18 1996   1.747   4.654   2.875  0.2938  0.2649 -0.9916
   87DG     O19 1997   1.865   4.643   2.951  0.2833 -0.4239 -0.0788
   87DG     H20 1998   1.775   4.545   3.114 -0.7641 -0.2864  0.1522
   87DG     H21 1999   1.830   4.447   2.975  0.5987  1.0373 -0.8956
   87DG     H22 2000   1.660   4.646   2.940  1.0422  0.4345  0.0797
   87DG     H23 2001   1.735   4.570   2.807  2.0070 -0.4819 -0.4471
   88DG      C1 2002   4.983   5.334   2.127 -0.1649  0.5554  0.1272
   88DG      C2 2003   5.289   5.600   2.845  0.5736  0.7436 -0.2548
   88DG      H3 2004   5.076   5.380   2.095 -0.1981 -0.2313 -1.1607
   88DG      H4 2005   4.908   5.312   2.051 -0.0811  1.2978 -0.1815
   88DG      H5 2006   5.010   5.231   2.148  3.5906  0.8650 -2.2432
   88DG      H6 2007   5.313   5.506   2.894 -0.7169  1.1345  1.2189
   88DG      H7 2008   5.377   5.615   2.783  0.2959  0.7422 -0.6518
   88DG      H8 2009   5.286   5.675   2.925 -0.7157  1.2181 -0.7215
   88DG      O9 2010   4.935   5.407   2.241  0.6838  0.3497  0.1098
   88DG     O10 2011   5.165   5.589   2.773  0.6987  0.3456 -0.0556
   88DG     C11 2012   5.025   5.413   2.348 -0.3184 -0.3814 -0.1704
   88DG     C12 2013   5.134   5.698   2.686 -0.0576  0.4547  0.0277
   88DG     H13 2014   5.087   5.325   2.365 -0.5244 -0.1222  2.2834
   88DG     H14 2015   4.959   5.411   2.435 -0.7014  1.5688 -0.3700
   88DG     H15 2016   5.226   5.744   2.652  1.4972 -1.4292  1.4294
   88DG     H16 2017   5.069   5.763   2.745 -0.0849  1.0357 -0.6288
   88DG     C17 2018   5.109   5.543   2.350  0.1171 -0.4764 -0.3784
   88DG     C18 2019   5.063   5.649   2.561 -0.0268 -0.0463  0.5020
   88DG     O19 2020   5.153   5.578   2.476  0.0579 -0.4648 -0.6215
   88DG     H20 2021   5.064   5.626   2.296 -0.2419  0.1802  0.8709
   88DG     H21 2022   5.201   5.523   2.295  0.1167 -0.2061 -0.4805
   88DG     H22 2023   4.980   5.582   2.586  0.8145 -0.5325  2.1175
   88DG     H23 2024   5.023   5.740   2.515 -1.7031 -0.5591  0.8438
   89DG      C1 2025   3.643   1.469   1.278 -0.9080  0.1896  0.3869
   89DG      C2 2026   4.040   0.968   1.230 -0.4447  0.3328  0.7618
   89DG      H3 2027   3.600   1.399   1.207 -0.7317  0.9542 -0.4926
   89DG      H4 2028   3.709   1.532   1.219 -1.0105 -2.0317 -2.2803
   89DG      H5 2029   3.564   1.532   1.319 -2.0507 -0.3918 -0.8434
   89DG      H6 2030   4.090   0.878   1.265 -1.4320 -1.5219 -2.2423
   89DG      H7 2031   3.954   0.922   1.181  1.6276 -0.7862 -2.1095
   89DG      H8 2032   4.102   1.008   1.151 -1.9877  0.5331 -0.4009
   89DG      O9 2033   3.714   1.386   1.373 -0.2643  0.4523  0.0258
   89DG     O10 2034   4.011   1.066   1.323  0.0737  0.1186  0.9039
   89DG     C11 2035   3.803   1.465   1.450  0.2212  0.0728 -0.0161
   89DG     C12 2036   4.137   1.136   1.361  0.2236 -0.6009 -0.3941
   89DG     H13 2037   3.748   1.513   1.530  0.5095  2.1825 -1.0240
   89DG     H14 2038   3.857   1.547   1.403  1.0474 -0.5730 -0.2181
   89DG     H15 2039   4.197   1.158   1.273  0.4372 -1.4453 -0.4732
   89DG     H16 2040   4.204   1.069   1.416  1.1980 -1.2060 -2.2389
   89DG     C17 2041   3.907   1.377   1.506 -0.0448  0.1802 -0.0683
   89DG     C18 2042   4.103   1.254   1.451 -0.1695 -0.1655 -0.9359
   89DG     O19 2043   3.980   1.309   1.409 -0.3918 -0.3282 -0.3046
   89DG     H20 2044   3.864   1.314   1.584  0.1247 -1.7771 -1.4736
   89DG     H21 2045   3.983   1.438   1.555  2.1664 -2.0998 -0.4432
   89DG     H22 2046   4.087   1.215   1.551  0.9895 -0.6528 -0.9280
   89DG     H23 2047   4.186   1.324   1.448 -0.4420  0.1432 -1.5565
   90DG      C1 2048   3.650   1.821   2.571 -0.8511 -0.4726  0.5354
   90DG      C2 2049   4.294   2.243   2.939  0.9970  0.1857 -0.2717
   90DG      H3 2050   3.617   1.738   2.508  1.0520 -1.1485  0.3520
   90DG      H4 2051   3.664   1.913   2.514  1.7392 -1.1427 -0.0526
   90DG      H5 2052   3.570   1.833   2.644 -0.7249  0.3326  0.5506
   90DG      H6 2053   4.355   2.240   3.030  0.7954 -2.3663 -0.1456
   90DG      H7 2054   4.356   2.248   2.850  2.1622 -0.5892  0.4621
   90DG      H8 2055   4.229   2.330   2.944  1.1218  0.3746 -1.5845
   90DG      O9 2056   3.767   1.777   2.647  0.0689 -0.1382  0.2304
   90DG     O10 2057   4.215   2.120   2.932  0.6467 -0.3428  0.0744
   90DG     C11 2058   3.827   1.881   2.722  0.0489  0.8811  0.0644
   90DG     C12 2059   4.282   2.005   2.880 -0.2320  0.4437 -0.4902
   90DG     H13 2060   3.761   1.910   2.805 -1.6599 -1.8614 -0.2138
   90DG     H14 2061   3.852   1.966   2.659  0.9512  1.8827  1.7047
   90DG     H15 2062   4.363   1.968   2.944 -1.0328  1.1471  0.9801
   90DG     H16 2063   4.335   2.037   2.791 -1.3338 -1.1871 -1.8075
   90DG     C17 2064   3.960   1.836   2.775  0.4580 -0.0884 -0.0634
   90DG     C18 2065   4.178   1.893   2.861  0.4797  1.0036  0.7428
   90DG     O19 2066   4.056   1.939   2.802  0.8014 -0.6112  0.2779
   90DG     H20 2067   4.006   1.771   2.701  2.8712 -1.6294  2.5705
   90DG     H21 2068   3.947   1.774   2.865 -0.7294 -2.3635 -1.6848
   90DG     H22 2069   4.217   1.807   2.807  0.4479  1.2452  0.3353
   90DG     H23 2070   4.158   1.856   2.962 -0.5523  0.1714  0.2503
   91DG      C1 2071   2.337   1.387   4.206  0.2111 -0.1876  0.0943
   91DG      C2 2072   2.178   1.857   4.698  0.4264 -0.4178 -0.0308
   91DG      H3 2073   2.262   1.312   4.181 -0.8986  1.4798 -1.7953
   91DG      H4 2074   2.411   1.331   4.265  0.1921  1.7278  2.0677
   91DG      H5 2075   2.374   1.444   4.121 -1.2341  1.8566  0.7702
   91DG      H6 2076   2.088   1.797   4.685  0.0367  0.2566 -0.4727
   91DG      H7 2077   2.246   1.824   4.776  1.3968  1.3089 -0.0958
   91DG      H8 2078   2.149   1.956   4.732 -0.8528 -0.3554 -1.2117
   91DG      O9 2079   2.269   1.477   4.299 -0.1646  0.3950  0.2399
   91DG     O10 2080   2.263   1.858   4.580 -1.1232 -0.0153 -0.1600
   91DG     C11 2081   2.143   1.515   4.242  0.8612  0.3118 -0.4713
   91DG     C12 2082   2.209   1.925   4.469 -0.0887 -0.1908  0.2255
   91DG     H13 2083   2.070   1.435   4.231  0.0108  1.0454 -0.2803
   91DG     H14 2084   2.146   1.566   4.146  0.4856 -0.6568 -1.0096
   91DG     H15 2085   2.291   1.938   4.398 -0.2159 -4.1932 -0.9052
   91DG     H16 2086   2.165   2.019   4.500  1.4640  0.1730  1.4773
   91DG     C17 2087   2.067   1.612   4.344  0.1747  0.4320 -0.4571
   91DG     C18 2088   2.096   1.840   4.398 -0.1578 -0.5176 -0.9138
   91DG     O19 2089   2.158   1.709   4.386  0.0008 -0.4754 -0.1576
   91DG     H20 2090   2.037   1.554   4.431 -1.4611  1.3807 -0.3494
   91DG     H21 2091   1.972   1.646   4.303  0.4836  0.3663 -1.2435
   91DG     H22 2092   2.023   1.841   4.479  1.5992  2.1846  0.8169
   91DG     H23 2093   2.062   1.885   4.305  2.1820 -0.4704 -1.8196
   92DG      C1 2094   3.642   5.024   3.980 -0.2497  1.0091  0.0429
   92DG      C2 2095   3.819   4.739   4.526  0.2668  0.3591  0.0393
   92DG      H3 2096   3.702   5.070   3.902 -0.4588 -0.4804 -1.0368
   92DG      H4 2097   3.598   5.088   4.057 -3.0740 -2.0146  1.2139
   92DG      H5 2098   3.559   4.973   3.932  0.3640  0.1325 -0.1052
   92DG      H6 2099   3.726   4.690   4.555  0.8550 -2.4326 -2.2299
   92DG      H7 2100   3.907   4.697   4.576  0.9736  0.0754 -1.3560
   92DG      H8 2101   3.812   4.838   4.571  1.2988 -0.3121  1.7586
   92DG      O9 2102   3.727   4.928   4.044 -0.3723 -0.0517 -0.6288
   92DG     O10 2103   3.845   4.732   4.388 -0.4908 -0.1081 -0.0266
   92DG     C11 2104   3.783   4.835   3.954  0.1437  0.9137  0.9079
   92DG     C12 2105   3.881   4.598   4.345 -0.0338  0.4837 -1.0007
   92DG     H13 2106   3.814   4.886   3.863 -0.8342 -1.3506 -0.7976
   92DG     H14 2107   3.714   4.753   3.933  0.6481  0.3932  1.2614
   92DG     H15 2108   3.795   4.531   4.342 -0.7351  1.3140 -0.2455
   92DG     H16 2109   3.952   4.558   4.418 -1.2559  1.3753  0.7567
   92DG     C17 2110   3.908   4.764   4.018  0.2894 -0.4533 -0.2145
   92DG     C18 2111   3.942   4.608   4.203 -0.1600  0.6653  0.1188
   92DG     O19 2112   3.862   4.690   4.126 -0.1043 -0.3653  0.2984
   92DG     H20 2113   3.985   4.831   4.055  0.5245 -0.1836 -1.1937
   92DG     H21 2114   3.953   4.703   3.940  0.1466 -1.8507  0.7398
   92DG     H22 2115   4.045   4.643   4.204  0.5820 -1.3268  2.0090
   92DG     H23 2116   3.946   4.509   4.157  0.7679  1.7679 -2.3201
   93DG      C1 2117   1.300   2.214   3.812 -0.7951  0.1781 -0.1522
   93DG      C2 2118   1.559   1.688   3.673 -0.4243  0.6783 -0.0357
   93DG      H3 2119   1.378   2.248   3.744 -0.1019  0.2855  0.6800
   93DG      H4 2120   1.265   2.294   3.878  1.1957  0.0494  1.1483
   93DG      H5 2121   1.213   2.184   3.753 -0.1909  1.8770 -2.0074
   93DG      H6 2122   1.457   1.689   3.636  0.2409  0.5438 -1.9594
   93DG      H7 2123   1.616   1.741   3.597  0.7496 -0.7761 -0.2160
   93DG      H8 2124   1.594   1.586   3.664 -1.1091  0.5881 -2.3357
   93DG      O9 2125   1.357   2.113   3.895  0.5021 -0.2508 -0.3570
   93DG     O10 2126   1.574   1.755   3.800 -0.5164  0.4771  0.5580
   93DG     C11 2127   1.457   2.151   3.993 -0.2574  0.2926  0.1180
   93DG     C12 2128   1.517   1.684   3.915  0.0406 -0.2040 -0.0275
   93DG     H13 2129   1.419   2.230   4.058 -0.1016  1.0133 -0.6428
   93DG     H14 2130   1.549   2.176   3.941 -0.1617 -2.2908 -1.0823
   93DG     H15 2131   1.575   1.594   3.935  1.2766  0.2256 -1.4735
   93DG     H16 2132   1.416   1.652   3.892  0.2042  0.8771 -2.5805
   93DG     C17 2133   1.494   2.027   4.074 -0.5918  0.3311  0.7054
   93DG     C18 2134   1.526   1.790   4.031  0.3481 -0.2019  0.7200
   93DG     O19 2135   1.491   1.920   3.979  0.2125 -0.5359  0.3583
   93DG     H20 2136   1.425   2.004   4.155 -0.5803 -1.3367  0.2643
   93DG     H21 2137   1.590   2.039   4.124 -0.3580 -1.0503  0.6320
   93DG     H22 2138   1.468   1.748   4.113  2.0651 -2.4274  0.9061
   93DG     H23 2139   1.629   1.803   4.066  1.3997  1.9076 -2.6932
   94DG      C1 2140   0.261   2.491   4.034  0.1280  0.2036 -0.6899
   94DG      C2 2141  -0.367   2.707   4.264  0.4551 -0.1611 -0.4751
   94DG      H3 2142   0.219   2.401   4.081  0.3929 -0.0177 -0.8724
   94DG      H4 2143   0.362   2.504   4.074 -0.7986 -1.4086  2.5496
   94DG      H5 2144   0.267   2.469   3.928  2.2877 -1.9328 -0.2349
   94DG      H6 2145  -0.444   2.711   4.187  0.2703  2.0908 -0.2264
   94DG      H7 2146  -0.364   2.605   4.301 -2.0065 -0.7295 -1.6155
   94DG      H8 2147  -0.397   2.769   4.348 -2.4519 -1.6107 -0.3063
   94DG      O9 2148   0.181   2.599   4.065  0.2129 -0.1338  0.7067
   94DG     O10 2149  -0.230   2.732   4.222 -0.0575 -0.2877 -0.4733
   94DG     C11 2150   0.203   2.707   3.975 -0.1406  1.0475 -0.2357
   94DG     C12 2151  -0.213   2.854   4.151 -0.2951  0.1765  0.3718
   94DG     H13 2152   0.193   2.681   3.869  1.0488  1.4676 -0.4715
   94DG     H14 2153   0.308   2.732   3.990  0.1795 -1.1938  1.8656
   94DG     H15 2154  -0.274   2.935   4.190  0.5522  1.1547 -0.2712
   94DG     H16 2155  -0.251   2.840   4.049  2.5842 -0.0255 -0.7763
   94DG     C17 2156   0.136   2.832   4.017  0.4758 -0.7848 -0.2514
   94DG     C18 2157  -0.066   2.897   4.128 -0.0597 -0.8508  0.1048
   94DG     O19 2158  -0.003   2.804   4.040  0.1110  0.1092  0.1091
   94DG     H20 2159   0.136   2.901   3.932 -0.0299 -1.9090 -1.2064
   94DG     H21 2160   0.177   2.882   4.105 -1.2484  0.7267 -0.2490
   94DG     H22 2161  -0.066   2.989   4.070  1.4013 -0.8661  0.0288
   94DG     H23 2162  -0.018   2.914   4.225 -0.7730  0.7591  0.2169
   95DG      C1 2163   3.749   3.246   0.431  0.0213  0.8606  0.0066
   95DG      C2 2164   4.037   2.755   0.841  0.7992 -0.1373 -0.8326
   95DG      H3 2165   3.673   3.323   0.416  0.5623  1.1825 -1.1552
   95DG      H4 2166   3.746   3.190   0.338  2.5077  1.9981 -0.8273
   95DG      H5 2167   3.844   3.299   0.436  1.3854 -1.3455 -1.0009
   95DG      H6 2168   4.041   2.687   0.756  1.5492 -1.3100  0.1126
   95DG      H7 2169   4.128   2.815   0.845 -0.7619  2.3010  0.7403
   95DG      H8 2170   4.036   2.676   0.915  1.5049  0.2133 -0.4348
   95DG      O9 2171   3.731   3.167   0.549 -0.5455 -0.3340  0.1155
   95DG     O10 2172   3.926   2.847   0.868  0.4222  0.3289  0.2862
   95DG     C11 2173   3.599   3.120   0.577 -0.2770  0.4126  0.3692
   95DG     C12 2174   3.801   2.786   0.849 -0.6038 -0.1602  0.3870
   95DG     H13 2175   3.567   3.046   0.503  2.5977 -1.3059  0.6932
   95DG     H14 2176   3.523   3.195   0.554 -0.9708  0.1141  1.6051
   95DG     H15 2177   3.795   2.707   0.925 -1.4999  1.1052  1.6820
   95DG     H16 2178   3.788   2.728   0.758  0.7193  1.2291 -0.7169
   95DG     C17 2179   3.583   3.068   0.727 -0.0762  0.1206  0.3342
   95DG     C18 2180   3.688   2.889   0.866  0.2821 -0.4486  0.1341
   95DG     O19 2181   3.698   2.985   0.756  0.3682 -0.0468  0.4345
   95DG     H20 2182   3.495   3.004   0.733  0.7962 -1.2048 -0.3700
   95DG     H21 2183   3.585   3.144   0.805  0.0883  1.0210 -0.5265
   95DG     H22 2184   3.592   2.838   0.865  0.6705 -1.2372  1.5897
   95DG     H23 2185   3.706   2.935   0.963 -0.6627  1.2927 -0.4703
   96DG      C1 2186   1.667   1.431   4.721  0.1349  0.3629  0.3713
   96DG      C2 2187   1.333   0.885   4.681  0.3028 -0.1886 -0.4589
   96DG      H3 2188   1.753   1.365   4.709  0.5104  1.1256 -1.3145
   96DG      H4 2189   1.672   1.458   4.827  3.3634 -2.1605  1.0239
   96DG      H5 2190   1.675   1.517   4.655  1.2057  0.1823  0.2429
   96DG      H6 2191   1.365   0.923   4.778  0.8077 -0.1304 -0.6424
   96DG      H7 2192   1.246   0.820   4.680 -0.6898  0.9363  2.2454
   96DG      H8 2193   1.418   0.828   4.643  1.2920 -0.0664  1.4369
   96DG      O9 2194   1.551   1.352   4.710  0.3470  1.1314  0.3770
   96DG     O10 2195   1.299   0.997   4.601  0.3946  0.1193  0.5248
   96DG     C11 2196   1.433   1.425   4.727  0.2005 -0.6171 -0.3039
   96DG     C12 2197   1.176   1.059   4.628 -0.4580  0.1147 -0.3977
   96DG     H13 2198   1.412   1.494   4.645  0.3354 -0.2665 -0.0454
   96DG     H14 2199   1.432   1.473   4.825 -1.6843  1.4868 -1.2376
   96DG     H15 2200   1.163   1.051   4.736  0.5222 -0.1640 -0.2939
   96DG     H16 2201   1.100   0.994   4.584  1.4641 -2.0142 -0.7348
   96DG     C17 2202   1.298   1.345   4.715 -0.4852  0.1422  0.4592
   96DG     C18 2203   1.164   1.204   4.579 -0.0338 -0.3317 -0.5378
   96DG     O19 2204   1.289   1.281   4.593 -0.4910  0.3473 -0.2395
   96DG     H20 2205   1.220   1.419   4.737 -0.0886  0.3849  1.0849
   96DG     H21 2206   1.288   1.267   4.791 -3.1760  1.3587  1.5000
   96DG     H22 2207   1.142   1.202   4.472 -0.7140 -0.7937 -0.3943
   96DG     H23 2208   1.087   1.266   4.624  0.7385  0.8732 -0.8352
   97DG      C1 2209   4.500   0.416   2.646  0.1263 -0.1427  0.1902
   97DG      C2 2210   3.913   0.622   2.379 -0.3903  0.8463 -0.0723
   97DG      H3 2211   4.516   0.312   2.675 -0.0045  0.0994  1.1571
   97DG      H4 2212   4.560   0.481   2.710 -0.8759 -0.5471  1.5940
   97DG      H5 2213   4.531   0.436   2.543 -0.7030 -0.6152 -0.1618
   97DG      H6 2214   3.906   0.539   2.310 -1.7346  0.3172  0.6843
   97DG      H7 2215   3.816   0.669   2.393 -0.9298 -0.5444  1.1009
   97DG      H8 2216   3.975   0.692   2.322  0.1103  0.5578  0.1146
   97DG      O9 2217   4.366   0.449   2.674  0.4017  0.1850 -0.3564
   97DG     O10 2218   3.984   0.600   2.500 -0.0318 -0.1774 -0.5980
   97DG     C11 2219   4.322   0.411   2.808 -0.1494 -0.0893  0.6218
   97DG     C12 2220   3.907   0.535   2.595 -0.0711 -0.8699 -0.3738
   97DG     H13 2221   4.392   0.442   2.886  0.5780 -1.6976  0.6470
   97DG     H14 2222   4.322   0.302   2.812  1.4646 -0.1206  0.6010
   97DG     H15 2223   3.884   0.429   2.583 -1.1650 -0.7291  0.2600
   97DG     H16 2224   3.809   0.583   2.601  1.0296  1.3636  1.0707
   97DG     C17 2225   4.180   0.468   2.822  0.3447  0.6408 -0.0847
   97DG     C18 2226   3.982   0.536   2.731  0.0010 -0.5023  0.1527
   97DG     O19 2227   4.106   0.476   2.700  0.2928  0.1664  0.0279
   97DG     H20 2228   4.196   0.572   2.852  1.7283  0.3393  0.3080
   97DG     H21 2229   4.125   0.415   2.900  0.1273 -0.2478 -0.8256
   97DG     H22 2230   4.001   0.637   2.768 -0.7957  0.5830 -2.1712
   97DG     H23 2231   3.922   0.476   2.799 -0.7057  0.1622  0.1276
   98DG      C1 2232   1.265   5.325   3.638  0.3373  0.6078 -0.3055
   98DG      C2 2233   1.594   4.816   3.715 -0.6391 -0.1443  0.5193
   98DG      H3 2234   1.217   5.421   3.658  0.8565  0.4107  2.1886
   98DG      H4 2235   1.207   5.279   3.558 -0.3290  2.0959 -0.7081
   98DG      H5 2236   1.365   5.347   3.603  0.3704  1.7386  0.4658
   98DG      H6 2237   1.662   4.865   3.645 -0.8651 -0.0153  0.3910
   98DG      H7 2238   1.671   4.763   3.771 -0.1538  0.8810  0.8489
   98DG      H8 2239   1.533   4.745   3.659 -0.9539  2.0300 -2.1354
   98DG      O9 2240   1.270   5.251   3.762  0.3175  0.0300 -0.1344
   98DG     O10 2241   1.524   4.911   3.791  0.0735 -0.2719 -0.1386
   98DG     C11 2242   1.339   5.322   3.863 -0.5604 -0.3518  0.3796
   98DG     C12 2243   1.576   4.952   3.916  0.0280 -1.1393 -0.5139
   98DG     H13 2244   1.282   5.410   3.892  0.5856  0.8643 -0.8501
   98DG     H14 2245   1.438   5.353   3.828 -1.4276  4.9508  1.6884
   98DG     H15 2246   1.684   4.959   3.897  0.4565 -2.2931  1.2983
   98DG     H16 2247   1.557   4.880   3.995  1.3121 -0.3238  0.5953
   98DG     C17 2248   1.346   5.224   3.979  0.8545 -0.2854 -0.0461
   98DG     C18 2249   1.538   5.098   3.954 -0.3789 -0.0843  0.3593
   98DG     O19 2250   1.406   5.107   3.942 -0.0810  0.5677  0.0449
   98DG     H20 2251   1.246   5.198   4.015  1.3294 -0.0113  1.5655
   98DG     H21 2252   1.397   5.263   4.067  2.6430 -2.6660  0.0906
   98DG     H22 2253   1.570   5.122   4.055  1.1991 -0.4773 -0.0111
   98DG     H23 2254   1.576   5.167   3.879  1.1556 -1.7948 -0.5282
   99DG      C1 2255   4.190   3.889   5.280 -0.0047 -0.1488 -0.2150
   99DG      C2 2256   4.341   4.130   5.834  0.4168  0.5835  0.7055
   99DG      H3 2257   4.088   3.924   5.297 -0.3645 -1.7130  1.1169
   99DG      H4 2258   4.194   3.809   5.206  0.9948  0.0255 -0.3647
   99DG      H5 2259   4.245   3.974   5.238 -1.0030  0.2192 -0.8020
   99DG      H6 2260   4.442   4.171   5.829  0.5007  0.3341  0.3459
   99DG      H7 2261   4.271   4.194   5.779  3.9951  3.3002 -1.1540
   99DG      H8 2262   4.308   4.123   5.938  1.0100  0.1612  0.8699
   99DG      O9 2263   4.245   3.847   5.404 -0.3412  0.6481 -0.1968
   99DG     O10 2264   4.335   4.005   5.775  0.1788  0.4728  0.0779
   99DG     C11 2265   4.190   3.717   5.444 -0.4807 -0.8075  0.5163
   99DG     C12 2266   4.322   3.901   5.869  0.1961  0.2832 -0.5656
   99DG     H13 2267   4.211   3.633   5.378 -1.6258 -0.3075 -0.5439
   99DG     H14 2268   4.081   3.720   5.452 -0.4922 -1.0836  0.4504
   99DG     H15 2269   4.237   3.911   5.935  0.9053  1.2251  0.2337
   99DG     H16 2270   4.415   3.893   5.926  0.9672  3.3402 -1.2016
   99DG     C17 2271   4.244   3.681   5.585  0.3308 -0.3730  0.2064
   99DG     C18 2272   4.325   3.775   5.783 -0.4426 -0.1515  0.4187
   99DG     O19 2273   4.240   3.792   5.669  0.4879  0.7356 -0.7403
   99DG     H20 2274   4.348   3.650   5.577  0.0196 -1.4434  0.1648
   99DG     H21 2275   4.193   3.597   5.633  0.1832  0.2218  1.1309
   99DG     H22 2276   4.429   3.757   5.754 -1.2481 -4.4500 -0.4291
   99DG     H23 2277   4.300   3.692   5.848 -0.7971 -0.3752  0.0053
  100DG      C1 2278   3.659   5.373   3.132  0.3892 -0.2817 -0.3281
  100DG      C2 2279   3.184   5.704   3.622 -0.3053  0.1704  0.3744
  100DG      H3 2280   3.685   5.277   3.088  1.5181 -0.3221  0.3989
  100DG      H4 2281   3.697   5.381   3.234 -1.7165 -0.0769  0.5052
  100DG      H5 2282   3.684   5.457   3.067  2.0996  0.3937  1.1102
  100DG      H6 2283   3.224   5.709   3.723 -1.3533 -0.8415  0.8576
  100DG      H7 2284   3.228   5.785   3.565 -0.2503  1.0535  1.6307
  100DG      H8 2285   3.077   5.725   3.632 -1.3582 -2.9198 -2.5634
  100DG      O9 2286   3.517   5.360   3.147 -0.1914  0.2826  0.6745
  100DG     O10 2287   3.195   5.579   3.556 -0.1684 -0.2261 -0.8235
  100DG     C11 2288   3.475   5.259   3.239  0.2203 -0.4107 -0.2811
  100DG     C12 2289   3.332   5.559   3.535  0.0193  0.0384  0.0142
  100DG     H13 2290   3.529   5.253   3.334  0.2016 -1.7286 -0.3274
  100DG     H14 2291   3.491   5.155   3.211 -1.7510 -1.8630  3.3132
  100DG     H15 2292   3.397   5.573   3.621  2.5273 -4.2420 -0.9034
  100DG     H16 2293   3.360   5.646   3.474 -0.7528  0.5648  0.3857
  100DG     C17 2294   3.334   5.283   3.287 -0.1119 -0.7806  0.1160
  100DG     C18 2295   3.386   5.435   3.457 -0.0574  0.1913  0.0112
  100DG     O19 2296   3.310   5.413   3.345  0.2399 -0.4167  0.2836
  100DG     H20 2297   3.300   5.192   3.336  0.9294 -1.6309 -0.7129
  100DG     H21 2298   3.277   5.285   3.195 -2.4877  0.3145  1.5104
  100DG     H22 2299   3.485   5.461   3.419 -0.0480  4.2617  2.1761
  100DG     H23 2300   3.394   5.349   3.523 -0.9395  0.4593  0.4766
  101DG      C1 2301   4.435   4.434   0.966  0.1091  0.6002  0.1155
  101DG      C2 2302   4.988   4.425   0.560  0.2865  0.1042 -0.1229
  101DG      H3 2303   4.422   4.543   0.967 -1.7292  0.4214  2.0365
  101DG      H4 2304   4.514   4.413   1.037  0.3205 -2.3892 -0.8952
  101DG      H5 2305   4.338   4.403   1.004 -1.0709  2.4128 -1.1989
  101DG      H6 2306   5.036   4.424   0.461  0.0106 -0.3844 -0.2551
  101DG      H7 2307   4.998   4.530   0.584 -0.6675  0.0237  0.6711
  101DG      H8 2308   5.037   4.368   0.638  2.2810  2.3477  0.3782
  101DG      O9 2309   4.460   4.379   0.842 -0.1868 -0.6923  0.0615
  101DG     O10 2310   4.844   4.399   0.549 -0.6346  0.3739 -0.0822
  101DG     C11 2311   4.472   4.239   0.852 -0.1322  0.7966  0.0351
  101DG     C12 2312   4.820   4.264   0.528  0.5102  0.3462  1.0059
  101DG     H13 2313   4.373   4.202   0.879 -0.7529  0.5336 -2.4128
  101DG     H14 2314   4.530   4.197   0.935 -1.5638 -0.1041  0.6127
  101DG     H15 2315   4.895   4.211   0.586  0.1204 -1.1714  0.1708
  101DG     H16 2316   4.843   4.233   0.426  0.2052 -3.3266  1.9250
  101DG     C17 2317   4.519   4.183   0.714  0.2817  0.3647  0.1950
  101DG     C18 2318   4.672   4.231   0.543 -0.1507  0.7777  0.0854
  101DG     O19 2319   4.632   4.252   0.676 -0.0956  0.4740  0.1537
  101DG     H20 2320   4.448   4.204   0.634 -0.9684 -0.8106  0.9520
  101DG     H21 2321   4.539   4.078   0.735 -0.3708  0.2522  0.2649
  101DG     H22 2322   4.607   4.285   0.474 -2.0335  1.0240  1.9476
  101DG     H23 2323   4.650   4.125   0.531  0.5089  0.1916  3.1839
  102DG      C1 2324   5.181   2.758   3.070 -0.0810  0.4808 -0.1836
  102DG      C2 2325   4.724   2.018   2.954 -0.0985  0.2973 -0.3974
  102DG      H3 2326   5.112   2.828   3.118 -0.1246  0.9825 -0.9494
  102DG      H4 2327   5.136   2.758   2.971 -0.9347 -0.1354  0.2017
  102DG      H5 2328   5.278   2.808   3.064  0.3584 -0.1179  1.4274
  102DG      H6 2329   4.621   1.985   2.966  0.2041 -0.6207 -0.2375
  102DG      H7 2330   4.727   2.091   2.873  2.5214 -0.6995 -1.3067
  102DG      H8 2331   4.782   1.933   2.919 -1.8516 -0.9615 -0.3939
  102DG      O9 2332   5.186   2.617   3.112 -0.7814 -0.5400  0.5376
  102DG     O10 2333   4.781   2.088   3.059  0.3849  0.5526  0.0625
  102DG     C11 2334   5.057   2.562   3.114  0.2246  0.3301  0.3694
  102DG     C12 2335   4.921   2.122   3.046  0.9315 -0.2830  0.2330
  102DG     H13 2336   5.011   2.574   3.015  1.1041 -0.8768 -0.2051
  102DG     H14 2337   4.992   2.603   3.191  2.6117 -0.2693  2.8365
  102DG     H15 2338   4.939   2.179   2.955 -0.8451 -0.5925 -0.3516
  102DG     H16 2339   4.976   2.028   3.035  0.8138 -0.2476 -0.7962
  102DG     C17 2340   5.073   2.411   3.128 -0.3302 -0.1625  0.3539
  102DG     C18 2341   4.968   2.207   3.164 -0.1307 -0.1023  0.3745
  102DG     O19 2342   4.948   2.349   3.139  0.9256  0.3314 -0.1221
  102DG     H20 2343   5.133   2.395   3.217  2.0466  1.1572 -0.9084
  102DG     H21 2344   5.129   2.372   3.043 -0.3345 -1.7291  1.0444
  102DG     H22 2345   4.900   2.194   3.248 -1.7594 -0.2429 -0.9093
  102DG     H23 2346   5.071   2.180   3.189  0.3813  0.0169 -1.4661
  103DG      C1 2347   4.472   4.365   4.096 -1.1552 -0.4770 -0.0778
  103DG      C2 2348   5.042   4.618   3.647  0.4669 -0.2669  0.1509
  103DG      H3 2349   4.390   4.354   4.026  0.2709 -2.6330 -1.5304
  103DG      H4 2350   4.480   4.458   4.152  0.1579 -0.7999  0.3230
  103DG      H5 2351   4.480   4.283   4.167  0.8844  0.7435  1.2091
  103DG      H6 2352   5.127   4.553   3.666  1.2605  1.0495  1.2433
  103DG      H7 2353   5.079   4.686   3.570 -0.3201 -0.4665 -0.4266
  103DG      H8 2354   5.034   4.675   3.740  4.2089  1.4214 -0.3808
  103DG      O9 2355   4.593   4.375   4.020 -0.9352 -0.3055  0.0946
  103DG     O10 2356   4.924   4.546   3.615 -0.2749  0.7243  0.3217
  103DG     C11 2357   4.615   4.247   3.966 -0.2566  1.3702  0.5914
  103DG     C12 2358   4.865   4.471   3.722  0.4069  0.1453  0.3984
  103DG     H13 2359   4.524   4.223   3.912  0.9171  1.7331 -1.6829
  103DG     H14 2360   4.640   4.158   4.022  0.2647  0.2283 -1.3526
  103DG     H15 2361   4.822   4.541   3.793  0.3643 -0.6864  1.1946
  103DG     H16 2362   4.940   4.406   3.768  0.4545 -0.1117 -0.0316
  103DG     C17 2363   4.720   4.251   3.853  0.0956 -0.2803 -0.9635
  103DG     C18 2364   4.748   4.384   3.653  0.2142  0.0227  0.3165
  103DG     O19 2365   4.660   4.332   3.753 -0.3019  0.0261  0.0503
  103DG     H20 2366   4.740   4.151   3.816 -2.2354 -0.4802 -1.8469
  103DG     H21 2367   4.817   4.288   3.885 -0.2863 -0.6591  0.7111
  103DG     H22 2368   4.704   4.457   3.584  1.6082  0.8063  0.2154
  103DG     H23 2369   4.793   4.299   3.602  0.4720 -0.7581  1.8218
  104DG      C1 2370   3.328   0.017   0.887 -0.1569  0.3155 -0.1649
  104DG      C2 2371   3.233  -0.275   1.502 -0.0622  1.3216  0.4662
  104DG      H3 2372   3.333  -0.089   0.862  0.6707  0.0384  1.0920
  104DG      H4 2373   3.418   0.075   0.866  1.2935 -1.0652  1.9077
  104DG      H5 2374   3.237   0.058   0.844 -0.6845 -1.6541 -1.0081
  104DG      H6 2375   3.245  -0.272   1.610  1.0386 -1.9141  0.5271
  104DG      H7 2376   3.131  -0.304   1.480 -0.0402  0.9801  0.8100
  104DG      H8 2377   3.289  -0.365   1.477 -0.4702  0.8767  1.1093
  104DG      O9 2378   3.314   0.027   1.031 -0.3977 -0.0840  0.1024
  104DG     O10 2379   3.279  -0.157   1.432  0.1098 -0.0313 -0.1014
  104DG     C11 2380   3.285   0.152   1.076 -0.3988 -0.7371 -0.1133
  104DG     C12 2381   3.235  -0.030   1.498  0.3518 -0.3236 -0.4798
  104DG     H13 2382   3.179   0.171   1.061 -0.1028  1.4051  0.2043
  104DG     H14 2383   3.332   0.231   1.017 -3.3719  0.2654 -1.3351
  104DG     H15 2384   3.253  -0.036   1.606 -0.7805 -1.0313 -0.3090
  104DG     H16 2385   3.128  -0.012   1.491  0.3662  0.2017  0.4539
  104DG     C17 2386   3.330   0.179   1.221  0.1208  0.2213  0.4979
  104DG     C18 2387   3.290   0.093   1.437  0.3867 -0.3033  0.8222
  104DG     O19 2388   3.273   0.075   1.300  0.2730  0.0273 -0.2593
  104DG     H20 2389   3.294   0.279   1.245 -0.9146  0.0905 -0.4007
  104DG     H21 2390   3.439   0.177   1.221  0.1229 -1.4567  1.1700
  104DG     H22 2391   3.236   0.186   1.454  0.3391  0.2940 -2.0691
  104DG     H23 2392   3.397   0.109   1.451 -0.0271  1.9178  1.9178
  105DG      C1 2393   4.182   2.889   4.728  0.1048 -0.0779  0.1355
  105DG      C2 2394   4.325   3.131   5.335  0.1462 -0.2970  0.3264
  105DG      H3 2395   4.173   2.904   4.621  1.4810 -0.2918 -0.0230
  105DG      H4 2396   4.265   2.821   4.747  1.4253  1.3230 -0.3435
  105DG      H5 2397   4.202   2.979   4.787  1.8346  2.1839 -3.5366
  105DG      H6 2398   4.295   3.221   5.388  0.7636  1.5017 -2.2497
  105DG      H7 2399   4.344   3.054   5.411 -0.4663 -2.4680 -1.5947
  105DG      H8 2400   4.418   3.171   5.296 -0.2011  2.3348  1.9629
  105DG      O9 2401   4.046   2.839   4.746  0.5797 -0.2994  0.6280
  105DG     O10 2402   4.228   3.082   5.239  0.2015 -0.7979 -0.4494
  105DG     C11 2403   4.020   2.758   4.860  0.2655  0.1920 -0.0845
  105DG     C12 2404   4.285   2.989   5.146 -0.5852  0.1955  0.0452
  105DG     H13 2405   4.101   2.696   4.899 -0.2353  0.6798  1.7934
  105DG     H14 2406   3.950   2.687   4.815  2.3077 -0.6154 -2.2243
  105DG     H15 2407   4.365   2.937   5.199 -0.4528  2.1518  1.9122
  105DG     H16 2408   4.321   3.034   5.054 -1.4690 -0.2992 -0.5620
  105DG     C17 2409   3.971   2.833   4.989  0.0550 -0.1437  0.4384
  105DG     C18 2410   4.184   2.886   5.094  0.4249 -0.3396 -0.0252
  105DG     O19 2411   4.068   2.936   5.024  0.0987 -0.1342  0.1399
  105DG     H20 2412   3.961   2.768   5.076 -0.5109 -1.4153 -0.5337
  105DG     H21 2413   3.874   2.878   4.966  0.7676  0.0868 -2.3561
  105DG     H22 2414   4.230   2.808   5.032 -0.6622 -1.2682  0.3064
  105DG     H23 2415   4.150   2.825   5.178 -0.0531 -0.6921 -0.4667
  106DG      C1 2416   0.139   0.037   4.218 -0.3676 -0.1062 -0.1768
  106DG      C2 2417  -0.074  -0.710   3.841 -0.2774  0.2746  0.8196
  106DG      H3 2418   0.097   0.025   4.318  0.6248 -1.1326  0.1377
  106DG      H4 2419   0.092   0.109   4.150 -0.2911  0.0345 -0.0816
  106DG      H5 2420   0.244   0.063   4.230 -0.5334  0.7060 -0.4333
  106DG      H6 2421  -0.034  -0.794   3.785  1.4623  2.1093 -0.8491
  106DG      H7 2422  -0.131  -0.749   3.926 -2.8084  2.9021  0.4923
  106DG      H8 2423  -0.134  -0.645   3.778 -0.6615 -1.2882 -0.5021
  106DG      O9 2424   0.145  -0.090   4.158  0.1921 -0.0019 -0.0442
  106DG     O10 2425   0.047  -0.650   3.883 -0.7054 -0.7460  0.1495
  106DG     C11 2426   0.208  -0.083   4.029 -0.0285  0.1704  0.6620
  106DG     C12 2427   0.020  -0.513   3.914  0.4590 -0.0352  0.6277
  106DG     H13 2428   0.301  -0.027   4.035 -0.1002  0.2504  1.1217
  106DG     H14 2429   0.153  -0.030   3.951  1.4891 -1.3396 -1.5568
  106DG     H15 2430  -0.046  -0.498   3.999 -1.2700 -0.4226 -0.5891
  106DG     H16 2431  -0.031  -0.455   3.837  3.0716  1.8786  0.1660
  106DG     C17 2432   0.240  -0.229   3.981  0.1836  0.5638  0.6338
  106DG     C18 2433   0.150  -0.448   3.950  0.3245  0.0748  0.0347
  106DG     O19 2434   0.129  -0.320   3.996  0.2976  0.1900  0.1282
  106DG     H20 2435   0.320  -0.263   4.046  0.7618  1.6209  0.5077
  106DG     H21 2436   0.258  -0.238   3.873 -1.8882 -0.2616  0.3091
  106DG     H22 2437   0.195  -0.494   4.037 -0.1645 -1.6211 -0.5807
  106DG     H23 2438   0.220  -0.453   3.866  0.6590  1.6151  0.1860
  107DG      C1 2439   0.455   5.152   0.551  0.7553  0.0197 -0.0727
  107DG      C2 2440   0.410   5.469   1.144 -0.5960 -0.1767  0.2458
  107DG      H3 2441   0.463   5.073   0.476 -0.6092  0.4518 -0.7042
  107DG      H4 2442   0.500   5.246   0.519 -0.5684  0.6048 -0.2612
  107DG      H5 2443   0.348   5.170   0.555  0.7516 -0.0188  0.0196
  107DG      H6 2444   0.304   5.487   1.128 -0.7739  0.1583  1.6548
  107DG      H7 2445   0.416   5.455   1.252 -1.3536  1.3827  0.5120
  107DG      H8 2446   0.458   5.559   1.105 -0.8492  0.2152  0.8321
  107DG      O9 2447   0.496   5.106   0.689  0.2182 -0.2785  0.7104
  107DG     O10 2448   0.467   5.353   1.080  0.2336 -0.3217 -0.6660
  107DG     C11 2449   0.636   5.088   0.707 -0.5936  0.5481 -0.3018
  107DG     C12 2450   0.606   5.345   1.105  0.0650 -0.6867 -0.2934
  107DG     H13 2451   0.681   5.179   0.667  0.9291  0.2363  0.6186
  107DG     H14 2452   0.683   5.004   0.655  2.3367  2.9419 -1.8450
  107DG     H15 2453   0.632   5.335   1.211  1.1334  0.6856 -0.3949
  107DG     H16 2454   0.676   5.416   1.061  0.7763 -0.8079  0.5949
  107DG     C17 2455   0.677   5.087   0.854  0.2352 -0.4264  0.4229
  107DG     C18 2456   0.646   5.212   1.056  0.5070  1.0002  0.6800
  107DG     O19 2457   0.615   5.198   0.919  0.0667  0.3154 -0.0580
  107DG     H20 2458   0.784   5.107   0.850  0.9141 -3.6325  0.0688
  107DG     H21 2459   0.661   4.991   0.904 -4.6448 -0.5596 -0.8554
  107DG     H22 2460   0.750   5.190   1.078  0.1259 -0.4850  1.1570
  107DG     H23 2461   0.592   5.130   1.104 -1.0361  1.3719 -0.3340
  108DG      C1 2462   2.945   2.045   2.921 -0.9164  0.3530  0.4532
  108DG      C2 2463   2.481   1.646   2.916 -0.1489  0.4109  0.5279
  108DG      H3 2464   2.926   2.134   2.980  1.1083  0.9110  0.3473
  108DG      H4 2465   3.005   2.078   2.836  0.4827 -1.9228  0.4766
  108DG      H5 2466   3.008   1.991   2.992 -0.0678  0.3380 -0.2935
  108DG      H6 2467   2.464   1.746   2.956  2.1903  0.3795  1.7939
  108DG      H7 2468   2.390   1.588   2.900 -0.4323  0.3053  2.3378
  108DG      H8 2469   2.548   1.591   2.982  0.1548 -1.6606 -1.4105
  108DG      O9 2470   2.841   1.963   2.855 -0.0764 -0.3361  0.4742
  108DG     O10 2471   2.550   1.664   2.791 -0.0434  0.5689  0.0944
  108DG     C11 2472   2.759   2.049   2.772 -1.0324  1.0063 -0.4569
  108DG     C12 2473   2.478   1.724   2.688  0.1673 -0.6926  0.2567
  108DG     H13 2474   2.815   2.088   2.688 -0.2304  0.7341 -0.0588
  108DG     H14 2475   2.719   2.139   2.821 -4.1279 -0.4350 -0.0556
  108DG     H15 2476   2.408   1.798   2.726 -0.7016 -0.0455 -2.3897
  108DG     H16 2477   2.414   1.650   2.640  0.2358 -0.9364  0.5446
  108DG     C17 2478   2.634   1.961   2.732 -0.4861  0.7318  0.2302
  108DG     C18 2479   2.588   1.776   2.593  0.5696 -0.3717  0.7952
  108DG     O19 2480   2.686   1.849   2.662  0.2839  0.2026 -0.2848
  108DG     H20 2481   2.580   2.019   2.657  0.0507  1.3099  0.2764
  108DG     H21 2482   2.571   1.946   2.819  2.0448  0.1375  2.0732
  108DG     H22 2483   2.622   1.704   2.519  1.8984 -0.6975  1.6857
  108DG     H23 2484   2.545   1.846   2.521 -1.1694 -0.3942  1.7527
  109DG      C1 2485   5.122   4.678   4.700  0.1347  0.1300  0.4339
  109DG      C2 2486   5.570   5.190   4.373  0.9661  0.1345  0.0581
  109DG      H3 2487   5.218   4.628   4.698 -0.1238 -0.3733 -1.1637
  109DG      H4 2488   5.066   4.633   4.618 -0.2883  2.1747 -0.4746
  109DG      H5 2489   5.068   4.678   4.795  0.1030  2.5109  0.4814
  109DG      H6 2490   5.666   5.139   4.383  1.3548  0.4720 -1.6483
  109DG      H7 2491   5.520   5.152   4.284  1.4843 -1.3568  0.3686
  109DG      H8 2492   5.575   5.299   4.378 -2.2222  0.3189  3.0841
  109DG      O9 2493   5.149   4.816   4.678  0.2814 -0.1137 -0.1117
  109DG     O10 2494   5.479   5.145   4.473  0.3383 -0.5523 -0.2419
  109DG     C11 2495   5.229   4.871   4.782  0.5126 -1.1098  0.1646
  109DG     C12 2496   5.361   5.225   4.486 -0.2664 -0.4338 -0.1092
  109DG     H13 2497   5.320   4.811   4.780 -0.0264 -1.9319 -0.7839
  109DG     H14 2498   5.174   4.858   4.876 -0.7108  3.7819  0.3634
  109DG     H15 2499   5.283   5.186   4.421  0.6179 -2.2730 -0.1234
  109DG     H16 2500   5.376   5.331   4.466 -1.7068  0.4396  2.8569
  109DG     C17 2501   5.248   5.017   4.765  0.6974  0.2179 -0.2073
  109DG     C18 2502   5.310   5.199   4.629  0.4954  0.1938 -0.1925
  109DG     O19 2503   5.294   5.060   4.641 -0.5204  0.1789  0.0694
  109DG     H20 2504   5.315   5.055   4.843  0.8617 -1.9811  0.8004
  109DG     H21 2505   5.155   5.070   4.786  0.1909 -0.4265 -0.7565
  109DG     H22 2506   5.371   5.247   4.706 -0.5967 -0.3103  1.0194
  109DG     H23 2507   5.212   5.244   4.642 -0.7318 -2.0864 -0.9483
  110DG      C1 2508   2.441   3.169   3.383 -0.4439  0.3059 -0.0544
  110DG      C2 2509   2.024   2.701   3.899 -0.0963 -0.1798 -0.4223
  110DG      H3 2510   2.507   3.145   3.466 -1.8564 -0.1805  0.9632
  110DG      H4 2511   2.480   3.263   3.343  2.1855 -0.4336  0.5560
  110DG      H5 2512   2.459   3.102   3.299 -0.2754 -0.1486  0.3405
  110DG      H6 2513   1.958   2.787   3.914  0.2268 -0.2964  2.1965
  110DG      H7 2514   1.970   2.623   3.845  0.8844 -1.1396 -0.0361
  110DG      H8 2515   2.051   2.659   3.996  0.3013 -3.0089 -1.6713
  110DG      O9 2516   2.303   3.167   3.425  0.4252 -0.3097  0.6089
  110DG     O10 2517   2.146   2.746   3.835 -0.2470 -0.3817  0.2064
  110DG     C11 2518   2.268   3.049   3.496  0.1872 -0.6529  0.1407
  110DG     C12 2519   2.238   2.824   3.915  0.2918  0.4785 -0.2360
  110DG     H13 2520   2.266   2.957   3.437 -0.6650 -0.8856  0.5066
  110DG     H14 2521   2.161   3.060   3.516  0.2169 -0.7362  0.3530
  110DG     H15 2522   2.286   2.759   3.988  1.9053  0.6119 -1.1337
  110DG     H16 2523   2.192   2.907   3.970  1.1642  1.7839 -1.4104
  110DG     C17 2524   2.338   3.026   3.621 -0.3246 -0.0883 -0.4061
  110DG     C18 2525   2.332   2.880   3.810  0.4231  0.1659  0.1844
  110DG     O19 2526   2.259   2.944   3.707 -0.3334 -0.2374  0.1010
  110DG     H20 2527   2.370   3.120   3.668  0.8906  0.3882 -2.0863
  110DG     H21 2528   2.432   2.971   3.613 -0.8014 -1.0267  0.3692
  110DG     H22 2529   2.403   2.945   3.862 -0.5952  0.7610  0.8735
  110DG     H23 2530   2.378   2.787   3.779 -1.7656 -1.4562  1.4917
  111DG      C1 2531   2.914   0.070   1.343  0.0117 -0.0403  0.0623
  111DG      C2 2532   3.354  -0.352   1.169  0.2088  0.0684  0.1346
  111DG      H3 2533   2.880   0.151   1.279 -0.0404 -0.3394 -0.2873
  111DG      H4 2534   3.000   0.103   1.402  0.4283  0.5047 -0.8388
  111DG      H5 2535   2.831   0.064   1.415  0.0140  0.0742  0.0764
  111DG      H6 2536   3.392  -0.442   1.218  0.5375  0.1632  0.0603
  111DG      H7 2537   3.388  -0.356   1.066  0.9333 -0.8823  0.3980
  111DG      H8 2538   3.402  -0.265   1.216 -0.6384  1.1442 -0.9408
  111DG      O9 2539   2.941  -0.039   1.264  0.3728 -0.2875 -0.4104
  111DG     O10 2540   3.215  -0.353   1.194 -0.1815  0.3908  0.2153
  111DG     C11 2541   2.816  -0.092   1.211  0.0296 -0.3365 -0.1293
  111DG     C12 2542   3.136  -0.425   1.099 -0.3566  0.6343 -0.1439
  111DG     H13 2543   2.789  -0.043   1.117 -1.0047  0.2723  0.4682
  111DG     H14 2544   2.727  -0.069   1.269 -1.0856 -1.2720 -1.3949
  111DG     H15 2545   3.160  -0.531   1.103  0.3031  0.7182 -1.4334
  111DG     H16 2546   3.152  -0.386   0.999  0.8380  1.2930  0.2739
  111DG     C17 2547   2.836  -0.249   1.201 -0.2615 -0.8943 -0.1217
  111DG     C18 2548   2.993  -0.405   1.151 -0.4719 -0.4003 -0.2312
  111DG     O19 2549   2.964  -0.262   1.152  0.3209  0.3770 -0.1748
  111DG     H20 2550   2.760  -0.291   1.136 -0.1243 -0.4443 -0.5813
  111DG     H21 2551   2.825  -0.287   1.303 -0.7503  0.4605  0.3502
  111DG     H22 2552   2.920  -0.460   1.092 -0.6226  0.3997 -0.8072
  111DG     H23 2553   2.989  -0.448   1.252  3.3536  3.3795  1.8420
  112DG      C1 2554   4.205   3.750   3.496  0.2438 -0.1414  0.1234
  112DG      C2 2555   4.253   3.066   3.744 -0.2885  0.3695  0.1169
  112DG      H3 2556   4.271   3.837   3.498 -1.0019  0.8370 -0.4564
  112DG      H4 2557   4.112   3.778   3.448  0.1277 -0.5086  0.1306
  112DG      H5 2558   4.266   3.685   3.434  0.8634  1.4551 -1.0089
  112DG      H6 2559   4.162   3.054   3.686 -1.8282 -0.3183  2.5524
  112DG      H7 2560   4.342   3.031   3.691  0.0726  1.2632  0.1069
  112DG      H8 2561   4.244   2.992   3.823 -0.3331 -0.2762 -0.4787
  112DG      O9 2562   4.185   3.710   3.630 -0.8414  0.2138  0.1516
  112DG     O10 2563   4.290   3.191   3.793 -0.1972 -0.5149 -0.0744
  112DG     C11 2564   4.310   3.679   3.697 -0.2049  0.5126 -0.8200
  112DG     C12 2565   4.182   3.252   3.860  0.4603 -0.0650 -0.5998
  112DG     H13 2566   4.373   3.766   3.716 -0.0213  0.1730  0.2146
  112DG     H14 2567   4.381   3.614   3.645 -1.2855 -1.2286 -0.2171
  112DG     H15 2568   4.176   3.195   3.953  0.0949 -0.1799 -0.6917
  112DG     H16 2569   4.091   3.253   3.801  0.8992  1.7597 -1.3181
  112DG     C17 2570   4.269   3.612   3.828  0.0488 -0.2969  0.1422
  112DG     C18 2571   4.212   3.397   3.897 -0.2073  0.1513 -0.6797
  112DG     O19 2572   4.259   3.475   3.793  0.3819  0.3989 -0.7796
  112DG     H20 2573   4.182   3.662   3.873  0.0371  0.4141 -0.6310
  112DG     H21 2574   4.352   3.617   3.899 -1.6665 -0.4385  2.2600
  112DG     H22 2575   4.121   3.433   3.946 -0.5950  0.4436 -1.6059
  112DG     H23 2576   4.296   3.400   3.966  0.8632  0.5075 -1.9648
  113DG      C1 2577   3.366   1.495   4.864 -0.4901  0.0799  1.0603
  113DG      C2 2578   3.728   1.528   5.443 -0.6320  0.5470  0.4803
  113DG      H3 2579   3.445   1.559   4.824 -0.6241 -0.0935  0.5000
  113DG      H4 2580   3.277   1.502   4.802  1.3941  2.9038 -1.6697
  113DG      H5 2581   3.410   1.396   4.853 -1.2018 -0.2230  0.8562
  113DG      H6 2582   3.715   1.577   5.540 -0.7512 -0.2060  0.8530
  113DG      H7 2583   3.775   1.432   5.464  1.6978  1.5597  0.2048
  113DG      H8 2584   3.804   1.575   5.381 -0.1797 -1.0002 -0.1784
  113DG      O9 2585   3.330   1.536   4.993 -0.2697 -0.4227 -0.3733
  113DG     O10 2586   3.607   1.524   5.365  0.0884 -0.3363 -0.6263
  113DG     C11 2587   3.229   1.449   5.052 -0.4207  0.2163  0.8241
  113DG     C12 2588   3.505   1.438   5.420  0.5154 -0.3380  0.5633
  113DG     H13 2589   3.258   1.347   5.030  1.5607  0.8110  0.4738
  113DG     H14 2590   3.138   1.476   4.998 -0.3603  0.1624  0.6945
  113DG     H15 2591   3.464   1.484   5.510 -0.3568 -1.5542  0.8032
  113DG     H16 2592   3.558   1.353   5.463  1.3826  0.7339  1.6890
  113DG     C17 2593   3.194   1.469   5.203 -0.5028  0.4901  0.7218
  113DG     C18 2594   3.392   1.391   5.316  0.0470 -0.2624  0.3158
  113DG     O19 2595   3.306   1.498   5.280 -0.1624  0.6819 -0.3235
  113DG     H20 2596   3.143   1.378   5.232 -1.3564  0.4916 -0.6468
  113DG     H21 2597   3.125   1.554   5.213  0.2825  1.3287 -0.5792
  113DG     H22 2598   3.434   1.351   5.224 -2.8554 -1.7391 -0.4965
  113DG     H23 2599   3.328   1.320   5.367 -0.8053 -0.1926 -0.6317
  114DG      C1 2600   4.456   0.575   3.786 -0.1005  0.2094 -0.0382
  114DG      C2 2601   4.815   1.125   3.410  0.3763  0.8306  0.5525
  114DG      H3 2602   4.427   0.574   3.680 -0.7928  2.5668  0.0827
  114DG      H4 2603   4.390   0.642   3.841 -0.3598  1.2924 -1.6040
  114DG      H5 2604   4.458   0.475   3.829  1.8803  0.2156 -0.0002
  114DG      H6 2605   4.907   1.183   3.397  0.4334  0.3731 -1.2596
  114DG      H7 2606   4.789   1.108   3.306 -0.6920  2.8352  0.4499
  114DG      H8 2607   4.733   1.180   3.455  1.4971  3.5587 -0.5440
  114DG      O9 2608   4.584   0.626   3.789  0.2399  0.0816 -0.2036
  114DG     O10 2609   4.831   0.994   3.466  0.3770  0.2111  0.2299
  114DG     C11 2610   4.677   0.550   3.714 -0.6530  0.6886  0.4765
  114DG     C12 2611   4.861   0.991   3.606  0.5582 -0.8725  0.1669
  114DG     H13 2612   4.638   0.531   3.614  0.7741  0.9621 -0.1559
  114DG     H14 2613   4.690   0.450   3.757 -0.4586  0.7914  0.6586
  114DG     H15 2614   4.768   1.005   3.661  1.1110  0.5014  0.8030
  114DG     H16 2615   4.929   1.074   3.626 -2.4451  2.3709 -1.9408
  114DG     C17 2616   4.805   0.636   3.724 -0.5848 -0.1998 -0.6512
  114DG     C18 2617   4.905   0.847   3.645  0.1037  0.5090  0.0913
  114DG     O19 2618   4.796   0.757   3.644  0.0167  0.3365 -0.0478
  114DG     H20 2619   4.890   0.578   3.688 -0.4163 -0.4968  0.2005
  114DG     H21 2620   4.825   0.653   3.830  1.6368 -0.2411 -1.0092
  114DG     H22 2621   4.990   0.815   3.585  1.4611 -0.0204  2.1919
  114DG     H23 2622   4.943   0.866   3.745 -0.9668  2.2246  0.2213
  115DG      C1 2623   3.097   0.025   0.538 -0.2956 -0.5766  0.8316
  115DG      C2 2624   2.557   0.071   1.010 -0.2443 -0.0586  0.1708
  115DG      H3 2625   3.204   0.017   0.558 -0.4076  0.7590  2.0971
  115DG      H4 2626   3.097   0.070   0.439  0.7227 -3.3977 -0.5802
  115DG      H5 2627   3.060  -0.078   0.541  0.2994 -0.8203  0.1611
  115DG      H6 2628   2.492   0.053   1.096 -1.5021  0.0478 -0.7345
  115DG      H7 2629   2.494   0.114   0.933 -0.3191  2.3575  1.4899
  115DG      H8 2630   2.595  -0.025   0.977  0.9676  0.8009 -1.0398
  115DG      O9 2631   3.020   0.104   0.622  0.3579 -0.0438  0.2112
  115DG     O10 2632   2.655   0.167   1.036  0.7887 -0.1757 -0.8857
  115DG     C11 2633   3.072   0.236   0.654  0.5084  0.5038 -0.2047
  115DG     C12 2634   2.740   0.186   0.926 -0.5988  0.3585 -0.6131
  115DG     H13 2635   3.072   0.296   0.563 -0.6663 -0.5229 -0.9157
  115DG     H14 2636   3.174   0.238   0.692  0.1861  3.9231  0.8741
  115DG     H15 2637   2.698   0.245   0.844 -0.3186  1.2339 -0.1440
  115DG     H16 2638   2.767   0.090   0.883  3.0607  0.1286  1.6951
  115DG     C17 2639   2.980   0.302   0.765  0.3868  0.4287  0.3328
  115DG     C18 2640   2.865   0.262   0.969 -0.8999 -0.4005  0.5681
  115DG     O19 2641   2.980   0.234   0.886 -0.0863  0.2405 -0.8294
  115DG     H20 2642   2.881   0.304   0.721  0.7186  1.2108 -0.4127
  115DG     H21 2643   3.012   0.404   0.789 -1.5562  1.0892  0.2271
  115DG     H22 2644   2.851   0.368   0.990  2.6958  0.5886 -1.1393
  115DG     H23 2645   2.883   0.219   1.068 -1.9700 -0.1781  0.8687
  116DG      C1 2646   4.705   2.671   4.201  0.3964  0.5191  0.2570
  116DG      C2 2647   4.610   3.272   4.249  0.2231  0.0429 -0.1727
  116DG      H3 2648   4.788   2.716   4.256  0.7616  3.0386 -2.1348
  116DG      H4 2649   4.726   2.679   4.095 -2.2023 -2.2246 -0.6110
  116DG      H5 2650   4.702   2.566   4.230  0.2913  0.5277  0.2804
  116DG      H6 2651   4.698   3.258   4.312  0.3175 -1.2058 -0.5616
  116DG      H7 2652   4.647   3.299   4.150  0.8098 -1.4328 -0.3817
  116DG      H8 2653   4.559   3.362   4.283  0.9729  0.5335 -0.3386
  116DG      O9 2654   4.574   2.740   4.228 -0.3879  0.4978  0.6686
  116DG     O10 2655   4.524   3.157   4.262 -0.1737  0.1886  0.3675
  116DG     C11 2656   4.474   2.714   4.137  0.2661  0.1919  0.6140
  116DG     C12 2657   4.401   3.167   4.189 -1.0784 -0.2309  0.1147
  116DG     H13 2658   4.446   2.610   4.119  0.4909  0.1152  0.7042
  116DG     H14 2659   4.505   2.744   4.036 -0.8856  0.5988  0.3690
  116DG     H15 2660   4.410   3.171   4.081 -1.3724  0.4509  0.1098
  116DG     H16 2661   4.350   3.257   4.225 -1.0478  0.4182 -1.3788
  116DG     C17 2662   4.350   2.801   4.173  0.4184 -0.2377 -0.1075
  116DG     C18 2663   4.325   3.030   4.214 -0.4952 -0.8115  0.1437
  116DG     O19 2664   4.411   2.922   4.178 -0.4178 -0.3221 -0.2620
  116DG     H20 2665   4.308   2.775   4.270 -2.1023  0.7937 -0.8518
  116DG     H21 2666   4.267   2.795   4.102 -0.4159  0.9524  0.7321
  116DG     H22 2667   4.303   3.027   4.321  1.8052 -0.9791  0.6788
  116DG     H23 2668   4.227   3.033   4.166 -0.2763  2.2378 -0.3414
  117DG      C1 2669   2.581   2.795   3.156 -0.1468 -0.0405 -1.1602
  117DG      C2 2670   2.901   3.325   3.057  0.2906 -0.2155  0.5111
  117DG      H3 2671   2.492   2.843   3.117  0.0166  1.3732  0.1187
  117DG      H4 2672   2.536   2.713   3.213  0.1675  0.0750 -0.7421
  117DG      H5 2673   2.646   2.764   3.074  0.4986  0.4495 -0.8490
  117DG      H6 2674   2.974   3.396   3.096  0.0736 -0.2154  0.9217
  117DG      H7 2675   2.946   3.276   2.970  2.3552 -1.1385  2.0219
  117DG      H8 2676   2.809   3.378   3.030 -0.8629 -1.2239  2.2794
  117DG      O9 2677   2.658   2.878   3.242  0.1710 -0.0894  0.0730
  117DG     O10 2678   2.863   3.224   3.147 -0.8223  0.7781  0.3676
  117DG     C11 2679   2.766   2.810   3.310  0.0201  0.2954  1.2510
  117DG     C12 2680   2.806   3.265   3.266  0.6908 -0.8625  0.0234
  117DG     H13 2681   2.833   2.770   3.234  1.0330  0.5854  1.9759
  117DG     H14 2682   2.750   2.724   3.375  1.6157  0.3636  1.7712
  117DG     H15 2683   2.698   3.275   3.253  1.0452  3.5696 -0.9156
  117DG     H16 2684   2.856   3.358   3.293  1.1648 -0.8656 -0.7945
  117DG     C17 2685   2.831   2.914   3.396 -0.6719  0.3648 -0.1075
  117DG     C18 2686   2.831   3.161   3.367 -0.1769  0.0264  0.1585
  117DG     O19 2687   2.830   3.030   3.308  0.0155  0.5066 -0.4530
  117DG     H20 2688   2.930   2.881   3.428 -0.4177  1.6269  0.4890
  117DG     H21 2689   2.768   2.926   3.484 -0.0683 -2.9079  0.8687
  117DG     H22 2690   2.919   3.178   3.429  2.1835  1.9066 -3.3597
  117DG     H23 2691   2.756   3.165   3.445  1.4928  2.2274  1.7599
  118DG      C1 2692   4.133   2.510   2.643 -0.2463  0.8246 -0.5026
  118DG      C2 2693   4.055   2.225   2.084 -0.4710 -0.0377  0.2294
  118DG      H3 2694   4.220   2.445   2.655 -0.5138  0.5121 -0.2174
  118DG      H4 2695   4.087   2.567   2.723 -2.4655  1.1947 -1.9587
  118DG      H5 2696   4.162   2.583   2.567 -0.3357  0.8432 -0.5182
  118DG      H6 2697   4.074   2.317   2.029 -0.2561  0.5086  1.1821
  118DG      H7 2698   4.139   2.201   2.149  0.7448 -0.2761 -1.3860
  118DG      H8 2699   4.051   2.145   2.011 -0.3331  0.2803 -0.1254
  118DG      O9 2700   4.030   2.441   2.578  0.1769 -0.6581 -0.0062
  118DG     O10 2701   3.935   2.231   2.157  0.4297 -0.0725  0.1470
  118DG     C11 2702   3.979   2.333   2.647  0.3314  0.2336 -0.0829
  118DG     C12 2703   3.887   2.116   2.223 -0.6055 -0.5889 -0.9061
  118DG     H13 2704   3.932   2.367   2.738  0.6722 -2.3596  1.1616
  118DG     H14 2705   4.051   2.253   2.662  0.5475  0.5916  0.8153
  118DG     H15 2706   3.962   2.044   2.254 -0.0236  0.3341 -0.1264
  118DG     H16 2707   3.828   2.063   2.148 -0.8372 -3.1155  0.9173
  118DG     C17 2708   3.862   2.268   2.564 -0.1457  0.3570  0.0540
  118DG     C18 2709   3.813   2.154   2.356 -0.2645  0.0260 -0.3524
  118DG     O19 2710   3.908   2.217   2.447 -0.1575 -0.0660  0.9709
  118DG     H20 2711   3.785   2.340   2.539 -1.2128 -0.9917 -0.6536
  118DG     H21 2712   3.816   2.197   2.633  1.4869  0.9243  1.8585
  118DG     H22 2713   3.722   2.210   2.335  0.1535  0.4840 -0.9962
  118DG     H23 2714   3.789   2.058   2.403  0.2370  0.1268  0.1126
  119DG      C1 2715   0.404   1.942   4.377 -0.2132 -1.0625 -0.3217
  119DG      C2 2716   0.025   1.495   5.045 -0.4932 -0.6510 -0.1581
  119DG      H3 2717   0.483   1.962   4.304  0.2180  1.0392  0.6458
  119DG      H4 2718   0.393   2.032   4.437  0.5529 -1.7048  0.8257
  119DG      H5 2719   0.306   1.930   4.331 -1.0212 -0.9391  1.3009
  119DG      H6 2720   0.055   1.523   5.146  2.6926  0.9243 -1.4283
  119DG      H7 2721  -0.052   1.569   5.018  0.8908  1.1087  0.4983
  119DG      H8 2722  -0.008   1.392   5.039 -0.8192 -0.4633 -3.5613
  119DG      O9 2723   0.434   1.830   4.465 -0.5285 -0.9382  0.5664
  119DG     O10 2724   0.128   1.519   4.947  0.2443  0.3071 -0.4687
  119DG     C11 2725   0.346   1.806   4.572  0.0380 -0.8123  0.5753
  119DG     C12 2726   0.090   1.485   4.811 -0.0788 -0.4260  0.0697
  119DG     H13 2727   0.250   1.851   4.548  1.3255  2.6529  1.3912
  119DG     H14 2728   0.382   1.853   4.663  2.9494 -0.2472 -0.7442
  119DG     H15 2729   0.019   1.564   4.785 -0.1427 -0.8521 -1.1111
  119DG     H16 2730   0.043   1.387   4.805 -0.0843 -0.3311 -2.6018
  119DG     C17 2731   0.328   1.656   4.585 -0.6978  0.2594  0.1319
  119DG     C18 2732   0.210   1.498   4.722  0.0737 -0.3711  0.3279
  119DG     O19 2733   0.249   1.630   4.699 -0.1198 -0.1951 -0.6826
  119DG     H20 2734   0.421   1.601   4.597 -1.6044 -0.7889  3.0760
  119DG     H21 2735   0.279   1.623   4.493  2.4699 -2.5175 -0.7910
  119DG     H22 2736   0.298   1.442   4.754 -0.1671  0.1184  1.9404
  119DG     H23 2737   0.169   1.464   4.627 -3.1894  1.6788  0.8546
  120DG      C1 2738   1.904   1.684   3.462 -0.4183 -1.3441 -0.3622
  120DG      C2 2739   2.060   1.528   2.742 -0.1965 -0.7788 -0.4573
  120DG      H3 2740   1.978   1.718   3.534 -0.8093 -2.3354  0.5352
  120DG      H4 2741   1.927   1.582   3.432  1.8573 -0.9540 -0.1396
  120DG      H5 2742   1.804   1.692   3.506 -0.5648 -2.5077 -0.4595
  120DG      H6 2743   2.029   1.424   2.743 -0.4991 -0.7238 -1.8293
  120DG      H7 2744   2.048   1.551   2.636  0.5611 -1.5805 -0.7268
  120DG      H8 2745   2.164   1.539   2.773 -0.1900 -0.5355 -0.5606
  120DG      O9 2746   1.904   1.784   3.358 -0.3458 -0.5255  0.5890
  120DG     O10 2747   1.975   1.596   2.838  0.2496 -0.1576 -0.4215
  120DG     C11 2748   1.779   1.779   3.283 -0.2775 -0.1232 -0.0928
  120DG     C12 2749   1.996   1.735   2.842 -0.9015  0.3156 -0.5904
  120DG     H13 2750   1.694   1.818   3.337 -0.4050  0.0400 -0.4068
  120DG     H14 2751   1.761   1.672   3.269 -0.5372 -0.0507 -0.3294
  120DG     H15 2752   2.001   1.769   2.739 -0.5545 -0.4285 -0.8320
  120DG     H16 2753   2.092   1.744   2.893 -1.0011 -0.1491 -0.3122
  120DG     C17 2754   1.790   1.835   3.144  0.9615  0.4234  0.0710
  120DG     C18 2755   1.894   1.808   2.931 -0.3132 -0.1523  0.6879
  120DG     O19 2756   1.890   1.765   3.069 -0.2740 -0.3053 -0.2144
  120DG     H20 2757   1.810   1.941   3.152 -2.5860  1.1639  0.4555
  120DG     H21 2758   1.690   1.837   3.101 -0.4716 -1.2068  3.0339
  120DG     H22 2759   1.916   1.914   2.920 -0.8821 -0.2682 -2.7261
  120DG     H23 2760   1.800   1.796   2.877  0.7212  1.3353 -1.5845
  121DG      C1 2761   1.570   3.155   1.456 -0.1499 -0.1145  0.4587
  121DG      C2 2762   2.082   2.833   2.044  0.2814  0.3637  0.3186
  121DG      H3 2763   1.568   3.047   1.466  2.7406 -0.3541 -0.4265
  121DG      H4 2764   1.637   3.181   1.374 -2.1440  1.2942 -0.8225
  121DG      H5 2765   1.483   3.199   1.407  1.0335  0.2585 -1.4313
  121DG      H6 2766   2.050   2.803   2.144 -0.5033  0.2612  0.0417
  121DG      H7 2767   2.105   2.735   2.002  2.4030  0.3464  1.3749
  121DG      H8 2768   2.173   2.894   2.045 -1.5621  3.3352 -0.7399
  121DG      O9 2769   1.593   3.218   1.579 -0.7408 -0.5709  0.2809
  121DG     O10 2770   1.969   2.889   1.981 -0.3820 -0.2078  0.1546
  121DG     C11 2771   1.712   3.183   1.657  0.1337  0.4189  0.1277
  121DG     C12 2772   1.938   3.020   2.028  0.7514  0.2846 -0.1146
  121DG     H13 2773   1.752   3.284   1.668 -1.3797  1.1414 -0.7308
  121DG     H14 2774   1.774   3.118   1.595 -0.8051  0.5349 -0.9574
  121DG     H15 2775   2.002   3.100   1.991 -0.3900  0.9082 -0.8098
  121DG     H16 2776   1.957   3.015   2.135 -0.4657 -0.5844  0.0853
  121DG     C17 2777   1.682   3.119   1.796 -0.6360  0.6528  0.2547
  121DG     C18 2778   1.798   3.048   1.987 -0.2594  0.3028  0.3893
  121DG     O19 2779   1.805   3.080   1.849 -0.0342  1.0869 -0.3904
  121DG     H20 2780   1.615   3.033   1.797 -1.9780  1.6563  0.2282
  121DG     H21 2781   1.633   3.189   1.863 -1.2475  0.7754 -0.3055
  121DG     H22 2782   1.749   2.951   2.001  2.5430 -1.4036 -0.7855
  121DG     H23 2783   1.758   3.135   2.039  0.5087  0.1860  1.2047
  122DG      C1 2784   4.836   4.336   2.437 -0.4975  0.0689 -0.3106
  122DG      C2 2785   5.062   5.152   2.651  0.8582  0.9569 -0.2813
  122DG      H3 2786   4.730   4.327   2.463 -0.1142 -0.5742  1.1135
  122DG      H4 2787   4.885   4.247   2.475 -0.4654  0.0082 -0.4906
  122DG      H5 2788   4.851   4.327   2.329  3.2340 -2.6869  0.2522
  122DG      H6 2789   5.146   5.192   2.594  0.4521  1.6534 -0.4135
  122DG      H7 2790   4.982   5.174   2.580 -1.3090 -3.1957  0.5716
  122DG      H8 2791   5.057   5.219   2.737 -0.3178  0.2561  0.2171
  122DG      O9 2792   4.907   4.452   2.475  0.0783 -0.1363 -0.2662
  122DG     O10 2793   5.071   5.016   2.699  0.7624 -0.3441 -0.4928
  122DG     C11 2794   5.048   4.459   2.447  0.6706 -0.2696  0.5701
  122DG     C12 2795   5.042   4.921   2.596 -0.3252  0.5458 -0.4324
  122DG     H13 2796   5.069   4.490   2.344 -0.0874 -0.9930  0.1874
  122DG     H14 2797   5.091   4.362   2.470  0.8998 -0.4467 -0.5484
  122DG     H15 2798   5.087   4.945   2.499 -1.2931  0.2847 -0.9636
  122DG     H16 2799   4.935   4.919   2.575 -0.9712  0.9660  2.4452
  122DG     C17 2800   5.110   4.561   2.541  0.0343  0.4951  0.7300
  122DG     C18 2801   5.089   4.782   2.633  0.3640 -0.1922  0.2873
  122DG     O19 2802   5.047   4.692   2.529 -0.2297 -0.3186 -0.3794
  122DG     H20 2803   5.219   4.563   2.528  0.1339 -3.7102 -0.6938
  122DG     H21 2804   5.102   4.526   2.644 -0.3636 -2.5585 -0.2246
  122DG     H22 2805   5.196   4.767   2.644  0.6046  1.4971  0.5758
  122DG     H23 2806   5.039   4.737   2.718 -0.4014 -1.2566 -0.6888
  123DG      C1 2807   5.235   0.650   2.329  0.3014  0.0025  0.2136
  123DG      C2 2808   5.765   0.641   2.710  0.1767  0.4037  0.3674
  123DG      H3 2809   5.202   0.626   2.227  1.0361  0.1849 -0.0720
  123DG      H4 2810   5.272   0.752   2.326  1.9331 -0.5584  0.6304
  123DG      H5 2811   5.153   0.660   2.401 -0.1946  1.1352 -0.4812
  123DG      H6 2812   5.803   0.729   2.657  0.3519 -1.1387 -2.2915
  123DG      H7 2813   5.682   0.674   2.772 -2.1122 -0.1390 -2.2002
  123DG      H8 2814   5.850   0.609   2.769 -0.1199  1.3432  1.3461
  123DG      O9 2815   5.336   0.566   2.372  0.0174 -0.7613 -0.2515
  123DG     O10 2816   5.721   0.548   2.612  0.2315  0.1684 -0.8345
  123DG     C11 2817   5.305   0.426   2.364  0.2913 -0.2551  0.8171
  123DG     C12 2818   5.672   0.432   2.678  0.3385 -0.0671  0.3532
  123DG     H13 2819   5.267   0.413   2.262  0.9359  0.1910  0.5087
  123DG     H14 2820   5.226   0.398   2.433 -0.6618 -1.3159 -0.6253
  123DG     H15 2821   5.588   0.458   2.743 -0.7067 -0.1351 -0.9294
  123DG     H16 2822   5.748   0.379   2.735  0.3152  2.2855  2.7710
  123DG     C17 2823   5.439   0.351   2.399  0.4868  0.2181 -0.0975
  123DG     C18 2824   5.611   0.339   2.572 -0.2157 -0.5186 -0.2707
  123DG     O19 2825   5.507   0.415   2.509 -0.0337 -0.1216 -0.1990
  123DG     H20 2826   5.496   0.366   2.308 -1.3079 -2.2781 -1.7734
  123DG     H21 2827   5.442   0.242   2.398  2.3689  0.2394 -2.4166
  123DG     H22 2828   5.684   0.304   2.499  1.1028 -0.8020  1.1315
  123DG     H23 2829   5.565   0.252   2.621  1.5742 -0.6442  1.3131
  124DG      C1 2830   5.488   5.425   1.528 -0.4249  0.2600 -0.3676
  124DG      C2 2831   5.296   5.877   1.946  0.6237 -0.0587  0.5280
  124DG      H3 2832   5.587   5.390   1.499  0.1233 -0.4693  2.1743
  124DG      H4 2833   5.407   5.376   1.474  0.7253 -1.4620 -0.6026
  124DG      H5 2834   5.468   5.397   1.631  1.8343  1.0139  0.3386
  124DG      H6 2835   5.355   5.884   2.038  2.3503 -1.7555 -0.3757
  124DG      H7 2836   5.205   5.935   1.936  0.1285 -0.5522  2.0029
  124DG      H8 2837   5.263   5.773   1.945 -0.6910  0.2251 -3.3184
  124DG      O9 2838   5.491   5.567   1.518  0.1491  0.0602  0.2286
  124DG     O10 2839   5.375   5.915   1.836 -0.2951 -0.6423  0.2448
  124DG     C11 2840   5.608   5.621   1.581 -0.1223 -0.5894  0.1684
  124DG     C12 2841   5.347   5.840   1.721 -0.5115 -0.5707 -0.1058
  124DG     H13 2842   5.699   5.561   1.572 -0.5825 -1.1117 -1.2289
  124DG     H14 2843   5.583   5.630   1.686  1.9012 -0.8401  0.7176
  124DG     H15 2844   5.243   5.852   1.689 -0.0091 -0.8121 -1.9525
  124DG     H16 2845   5.354   5.733   1.745  1.5007 -0.0660  1.8462
  124DG     C17 2846   5.637   5.763   1.531  0.5644  0.1339 -0.3294
  124DG     C18 2847   5.424   5.869   1.586 -0.9344 -0.8483 -0.4111
  124DG     O19 2848   5.569   5.860   1.603  0.4769 -0.0515  0.2525
  124DG     H20 2849   5.610   5.777   1.427 -1.6541 -2.9833 -0.3177
  124DG     H21 2850   5.746   5.765   1.534  0.5760  0.2243 -0.7612
  124DG     H22 2851   5.406   5.809   1.497  1.4971 -0.2639 -1.4062
  124DG     H23 2852   5.405   5.974   1.568  3.0900  0.6757  2.5636
  125DG      C1 2853   0.507   2.831   0.005  0.3634  0.2180  0.2329
  125DG      C2 2854   0.646   2.242   0.205  0.9297 -0.4070  0.3412
  125DG      H3 2855   0.476   2.930   0.040 -0.9619 -0.2477  0.4691
  125DG      H4 2856   0.464   2.815  -0.094  2.4655 -0.4350 -0.6158
  125DG      H5 2857   0.613   2.809  -0.004  0.2647 -1.5920  2.4544
  125DG      H6 2858   0.670   2.219   0.101 -2.7264 -2.5995 -0.1588
  125DG      H7 2859   0.729   2.305   0.238 -1.1092  2.4428  0.4067
  125DG      H8 2860   0.643   2.153   0.268 -1.1759 -0.2019  0.5896
  125DG      O9 2861   0.464   2.737   0.102 -0.0178 -0.0965  0.1841
  125DG     O10 2862   0.532   2.323   0.233  0.4684  0.1189 -0.3639
  125DG     C11 2863   0.322   2.715   0.106 -0.2453  0.0204  0.2648
  125DG     C12 2864   0.412   2.266   0.184 -0.3756  0.7262 -0.7437
  125DG     H13 2865   0.302   2.684   0.004  2.9562  0.9262 -0.7770
  125DG     H14 2866   0.268   2.808   0.124  0.1800  0.2564  0.3476
  125DG     H15 2867   0.389   2.165   0.218  2.0763  0.4956  0.3840
  125DG     H16 2868   0.420   2.256   0.075  0.0662 -2.0503 -0.5234
  125DG     C17 2869   0.263   2.602   0.190 -0.0307  0.8115  0.5171
  125DG     C18 2870   0.296   2.363   0.215 -0.6100 -0.0456 -0.4476
  125DG     O19 2871   0.331   2.485   0.145  0.4732  0.2848  0.5710
  125DG     H20 2872   0.155   2.595   0.183 -0.1188  2.4718 -0.4727
  125DG     H21 2873   0.297   2.614   0.293 -0.1032 -3.8464  1.2773
  125DG     H22 2874   0.200   2.331   0.175 -1.1572 -0.1937  0.9102
  125DG     H23 2875   0.281   2.368   0.323 -0.7968 -2.0860 -0.3344
  126DG      C1 2876   1.968   4.928   2.030  0.4208 -0.2463 -0.0749
  126DG      C2 2877   2.020   5.739   1.788 -0.0064 -0.4391  0.3532
  126DG      H3 2878   1.952   4.881   2.127  1.7580 -2.2883 -0.7648
  126DG      H4 2879   2.076   4.918   2.015  0.3092 -0.5194 -0.7657
  126DG      H5 2880   1.911   4.869   1.958  3.2604 -0.5765 -2.2654
  126DG      H6 2881   2.125   5.768   1.799  0.5178 -1.9232 -0.4561
  126DG      H7 2882   1.994   5.750   1.683 -0.1869  0.0368  0.4438
  126DG      H8 2883   1.965   5.816   1.842 -0.5689  0.0372 -0.8643
  126DG      O9 2884   1.928   5.060   2.043  0.1350 -0.5972 -0.0833
  126DG     O10 2885   2.016   5.602   1.825 -0.3789 -0.0155  0.8952
  126DG     C11 2886   1.952   5.129   1.923  0.0095  0.4273 -0.7292
  126DG     C12 2887   2.061   5.518   1.716 -0.1381  0.2948 -0.7977
  126DG     H13 2888   1.878   5.085   1.856  1.3365 -2.7466 -0.3248
  126DG     H14 2889   2.052   5.105   1.885 -0.7211 -3.2105 -0.6857
  126DG     H15 2890   2.162   5.542   1.682  0.5668 -0.0205  0.9719
  126DG     H16 2891   2.000   5.528   1.626 -0.4765  0.3616 -0.5641
  126DG     C17 2892   1.927   5.276   1.943  0.1946  0.7383  0.2000
  126DG     C18 2893   2.051   5.372   1.754 -0.5624  0.0809  0.5379
  126DG     O19 2894   1.928   5.345   1.821 -0.1670 -0.2949  1.1121
  126DG     H20 2895   1.997   5.323   2.011  1.9417 -1.1336 -0.2018
  126DG     H21 2896   1.829   5.304   1.982 -0.3630  2.1355 -2.0075
  126DG     H22 2897   2.061   5.310   1.665  0.1698  0.0923  0.6026
  126DG     H23 2898   2.122   5.329   1.825 -1.5996 -0.6733  1.1388
  127DG      C1 2899   3.700   0.110   3.971  0.1430 -0.1878 -0.1207
  127DG      C2 2900   4.445  -0.246   3.803  0.5160 -0.7230 -0.0896
  127DG      H3 2901   3.643   0.018   3.966 -1.0509  0.5534 -0.4945
  127DG      H4 2902   3.707   0.157   3.872 -2.2865  2.3725  0.7893
  127DG      H5 2903   3.644   0.183   4.030  0.0065 -1.8470  1.8737
  127DG      H6 2904   4.480  -0.173   3.729 -2.6966 -0.6936 -1.7267
  127DG      H7 2905   4.534  -0.261   3.864  0.2594 -0.5137  0.3396
  127DG      H8 2906   4.428  -0.343   3.757  0.8002 -0.6503 -0.3544
  127DG      O9 2907   3.824   0.090   4.038  0.3233  0.4999  0.1496
  127DG     O10 2908   4.340  -0.180   3.879 -0.2818  0.8434 -0.1842
  127DG     C11 2909   3.913  -0.002   3.969  0.2370 -0.1253 -0.0290
  127DG     C12 2910   4.297  -0.268   3.982 -0.2723  0.6847 -0.8734
  127DG     H13 2911   3.967   0.051   3.890 -0.5805 -1.3950 -1.5126
  127DG     H14 2912   3.856  -0.079   3.917  1.4552  0.0444 -1.6973
  127DG     H15 2913   4.386  -0.286   4.043  0.0156  1.8339 -0.9318
  127DG     H16 2914   4.270  -0.369   3.950  1.9128 -0.5394  0.8658
  127DG     C17 2915   4.014  -0.057   4.064 -0.0572 -0.6225 -0.3207
  127DG     C18 2916   4.202  -0.188   4.072 -0.1426  0.2550 -0.0270
  127DG     O19 2917   4.099  -0.142   3.991 -0.0713 -0.0750 -0.1294
  127DG     H20 2918   3.976  -0.123   4.142  1.7779 -1.0727  0.2278
  127DG     H21 2919   4.068   0.024   4.114  1.6215 -1.0172 -1.4202
  127DG     H22 2920   4.171  -0.249   4.157  0.9252 -0.9660 -0.4774
  127DG     H23 2921   4.254  -0.097   4.102 -0.4749 -0.0115  1.4397
  128DG      C1 2922   4.625   3.905   1.832  0.0409 -0.1825  0.6398
  128DG      C2 2923   4.159   3.950   1.171 -0.5951 -0.2258  0.4042
  128DG      H3 2924   4.655   3.919   1.936 -0.4518 -0.2195  0.7905
  128DG      H4 2925   4.716   3.887   1.775  1.3664  0.2724  2.5212
  128DG      H5 2926   4.581   3.807   1.850 -0.3824 -0.0359  0.4207
  128DG      H6 2927   4.211   3.868   1.121  0.1634 -0.2244  1.1574
  128DG      H7 2928   4.053   3.937   1.153 -1.0816  1.2288  2.0518
  128DG      H8 2929   4.190   4.049   1.139  1.7168 -0.8735  0.4206
  128DG      O9 2930   4.534   3.999   1.774  0.1392 -0.4909  0.0458
  128DG     O10 2931   4.185   3.931   1.308  0.0580  0.2946 -0.3514
  128DG     C11 2932   4.488   3.957   1.644 -0.3863 -0.7489 -0.5278
  128DG     C12 2933   4.147   3.810   1.368 -0.2150  0.6420  0.2496
  128DG     H13 2934   4.565   3.901   1.592  1.4158  1.0781  0.0688
  128DG     H14 2935   4.473   4.045   1.581  1.0552 -1.7630 -2.3576
  128DG     H15 2936   4.189   3.724   1.316  0.6527  1.4760 -0.4443
  128DG     H16 2937   4.039   3.794   1.369  0.0265 -1.2362  1.2105
  128DG     C17 2938   4.355   3.883   1.657 -0.8251 -0.2331 -0.5019
  128DG     C18 2939   4.194   3.791   1.517 -0.7522 -0.6233 -0.2477
  128DG     O19 2940   4.323   3.844   1.523 -0.4931 -0.0445  0.0956
  128DG     H20 2941   4.275   3.946   1.696 -1.4443 -1.4295  0.2345
  128DG     H21 2942   4.372   3.802   1.728 -1.2856  0.6635  0.6620
  128DG     H22 2943   4.123   3.837   1.586 -0.5222  1.0196 -1.0486
  128DG     H23 2944   4.209   3.686   1.544  0.9151 -1.2715 -3.2357
  129DG      C1 2945   3.462   0.630   4.975 -0.1224 -0.0507  0.6039
  129DG      C2 2946   3.213   0.063   4.605  0.9790 -0.4328 -0.4025
  129DG      H3 2947   3.467   0.730   4.932 -3.0298  0.0477  0.2669
  129DG      H4 2948   3.554   0.577   4.952  0.2909  0.9707 -0.1554
  129DG      H5 2949   3.453   0.651   5.082  0.1693  1.7317  0.3109
  129DG      H6 2950   3.180  -0.036   4.639 -0.5001  0.7679  1.9013
  129DG      H7 2951   3.162   0.086   4.512  2.1068 -0.8044 -1.1403
  129DG      H8 2952   3.321   0.057   4.589  0.8284 -1.1476 -1.2233
  129DG      O9 2953   3.360   0.545   4.934 -0.5192  0.5741  0.0131
  129DG     O10 2954   3.182   0.163   4.701 -0.8787 -0.0432 -0.4010
  129DG     C11 2955   3.240   0.555   5.009 -0.6015  0.1757  0.0336
  129DG     C12 2956   3.261   0.159   4.818  0.0987  0.1965 -1.0288
  129DG     H13 2957   3.215   0.661   5.016  0.2254  0.3078  1.1926
  129DG     H14 2958   3.252   0.514   5.109 -1.3007 -1.7049 -0.6182
  129DG     H15 2959   3.364   0.122   4.818  1.4389  3.0335  3.5703
  129DG     H16 2960   3.210   0.102   4.895 -1.2670 -1.2437 -2.8984
  129DG     C17 2961   3.116   0.481   4.946 -0.3362  0.6380  0.5988
  129DG     C18 2962   3.268   0.299   4.869 -0.4289  0.2960  0.5547
  129DG     O19 2963   3.139   0.338   4.917  0.1532 -0.1645  0.2003
  129DG     H20 2964   3.084   0.531   4.855 -1.6915 -1.6121 -0.2537
  129DG     H21 2965   3.033   0.493   5.016 -1.3646  0.2594 -0.5309
  129DG     H22 2966   3.344   0.296   4.947 -0.9369  1.0086  1.0978
  129DG     H23 2967   3.312   0.355   4.787 -1.2161  0.8867  0.5217
  130DG      C1 2968   0.816   3.169   3.988 -0.4688  0.4789  1.2217
  130DG      C2 2969   1.353   3.725   4.451 -0.1831 -0.0804 -0.4941
  130DG      H3 2970   0.905   3.112   3.961  1.8770  4.4317 -0.2861
  130DG      H4 2971   0.786   3.237   3.908  0.3421 -0.0213  0.4740
  130DG      H5 2972   0.729   3.105   4.000 -1.8451  1.1926 -3.1732
  130DG      H6 2973   1.327   3.798   4.528  1.2967  0.1770 -0.2040
  130DG      H7 2974   1.441   3.671   4.487 -1.6635 -1.0310  1.9747
  130DG      H8 2975   1.394   3.763   4.357  2.0870  0.1440  0.5243
  130DG      O9 2976   0.836   3.237   4.110  0.2020  0.1641  0.0882
  130DG     O10 2977   1.230   3.650   4.432 -0.0675  0.0329  0.0175
  130DG     C11 2978   0.919   3.351   4.105 -0.0222  0.2554 -0.7479
  130DG     C12 2979   1.122   3.709   4.367  0.3963  0.2272  0.4047
  130DG     H13 2980   0.900   3.410   4.016 -3.1907 -0.5910 -0.7364
  130DG     H14 2981   1.024   3.324   4.121 -0.1812  1.1512  2.8276
  130DG     H15 2982   1.161   3.732   4.268  0.0085 -1.1367 -0.0952
  130DG     H16 2983   1.094   3.803   4.414 -0.1809  1.3556 -2.0257
  130DG     C17 2984   0.895   3.429   4.233 -0.2723 -0.6316 -0.0163
  130DG     C18 2985   1.001   3.615   4.358  0.5081  0.0324  0.3040
  130DG     O19 2986   0.999   3.532   4.243  0.3277  0.3948  0.4254
  130DG     H20 2987   0.912   3.356   4.312 -2.8298 -0.8296  0.4280
  130DG     H21 2988   0.793   3.461   4.251 -0.9721 -1.4040 -2.3256
  130DG     H22 2989   0.984   3.552   4.446  2.7254 -1.0584 -0.0011
  130DG     H23 2990   0.916   3.682   4.345 -0.0124 -1.0004 -2.0374
  131DG      C1 2991   2.277   2.455   5.231 -0.2846  0.3821  0.3984
  131DG      C2 2992   2.474   1.976   5.187 -0.5228 -0.1818 -0.6910
  131DG      H3 2993   2.241   2.454   5.128 -0.2853  0.0395  0.4009
  131DG      H4 2994   2.384   2.474   5.230 -0.0188 -1.0094  0.3711
  131DG      H5 2995   2.232   2.541   5.282 -2.3558 -1.7703  2.4622
  131DG      H6 2996   2.518   1.942   5.093  1.2770 -0.8762  0.3579
  131DG      H7 2997   2.425   2.072   5.171 -0.5174  0.2121  1.3844
  131DG      H8 2998   2.563   1.984   5.249 -2.0843  0.0917  1.6356
  131DG      O9 2999   2.280   2.341   5.314 -0.1275 -0.0334  0.0505
  131DG     O10 3000   2.382   1.886   5.249  0.2304 -0.3275  0.1794
  131DG     C11 3001   2.145   2.290   5.332  0.4952  0.9346 -0.3618
  131DG     C12 3002   2.250   1.884   5.187 -0.3531 -0.0577 -0.1673
  131DG     H13 3003   2.073   2.369   5.357  0.7902  1.0727  0.0494
  131DG     H14 3004   2.143   2.225   5.419 -0.7414  0.2478 -0.8699
  131DG     H15 3005   2.212   1.799   5.243 -0.0366 -0.9544 -1.2931
  131DG     H16 3006   2.232   1.856   5.084 -0.6315  0.8141 -0.3680
  131DG     C17 3007   2.081   2.221   5.205 -0.0977 -0.2407  0.2608
  131DG     C18 3008   2.164   1.999   5.237 -0.3056  0.3497  0.7582
  131DG     O19 3009   2.166   2.115   5.154  0.1052  0.4524 -0.6391
  131DG     H20 3010   2.063   2.293   5.125 -0.5146 -0.4817  0.1372
  131DG     H21 3011   1.979   2.186   5.225  0.6866 -3.7907 -1.2172
  131DG     H22 3012   2.060   1.968   5.252 -0.6937 -0.6085 -2.8509
  131DG     H23 3013   2.205   2.026   5.334  1.7192  1.3158 -0.3148
  132DG      C1 3014   0.909   2.692   0.930 -0.4087  0.0973  0.4890
  132DG      C2 3015   1.563   2.608   1.154  0.4846  0.1480  0.0967
  132DG      H3 3016   0.963   2.769   0.875 -0.5805  0.1408  0.3793
  132DG      H4 3017   0.832   2.750   0.981  1.1591  2.3838  0.3673
  132DG      H5 3018   0.853   2.631   0.860  0.6852  0.3993 -0.6838
  132DG      H6 3019   1.613   2.621   1.058 -1.4711  1.3403 -0.8289
  132DG      H7 3020   1.538   2.708   1.191  1.2692  1.4981 -2.7820
  132DG      H8 3021   1.639   2.572   1.224  0.7971  0.5161 -0.0479
  132DG      O9 3022   0.995   2.599   0.999 -0.1304 -0.4580 -0.4264
  132DG     O10 3023   1.459   2.517   1.130 -0.2041 -0.2484 -0.4124
  132DG     C11 3024   0.933   2.519   1.096 -0.4422 -0.1209 -0.4174
  132DG     C12 3025   1.389   2.478   1.245  0.3907  0.0412 -0.0593
  132DG     H13 3026   0.845   2.473   1.053 -0.9052 -0.0698  0.4504
  132DG     H14 3027   0.888   2.582   1.173  0.4673  1.1715 -0.9062
  132DG     H15 3028   1.343   2.554   1.308  1.6226  0.3023  0.5394
  132DG     H16 3029   1.453   2.420   1.311  0.0770  0.4935  0.6547
  132DG     C17 3030   1.037   2.408   1.146  0.0752  0.4160 -0.0235
  132DG     C18 3031   1.267   2.390   1.220 -0.6219 -0.4676  0.2705
  132DG     O19 3032   1.167   2.465   1.154 -0.0648 -0.5064 -0.2224
  132DG     H20 3033   1.047   2.321   1.081 -1.1791 -0.6869  1.2096
  132DG     H21 3034   0.999   2.359   1.236 -2.7811 -1.4771 -2.1092
  132DG     H22 3035   1.296   2.306   1.157 -0.0726  0.3587 -0.6062
  132DG     H23 3036   1.228   2.349   1.313  0.6015  0.7817  1.3837
  133DG      C1 3037   0.099   1.396   3.670  0.4194  0.3204  0.8807
  133DG      C2 3038  -0.326   0.988   3.380  0.0556 -0.6554 -0.1765
  133DG      H3 3039   0.007   1.448   3.698 -0.9435 -1.5039  0.0013
  133DG      H4 3040   0.186   1.460   3.685 -0.2947  1.6867 -0.4742
  133DG      H5 3041   0.102   1.308   3.734  0.9993 -2.0697 -2.2180
  133DG      H6 3042  -0.376   1.056   3.449  2.1923 -1.9650  2.8621
  133DG      H7 3043  -0.376   0.988   3.283  3.0394  0.7567 -1.8627
  133DG      H8 3044  -0.317   0.889   3.424  1.0598  0.0111  1.2041
  133DG      O9 3045   0.101   1.344   3.540  0.1014  0.3095 -0.7006
  133DG     O10 3046  -0.196   1.059   3.379 -0.1974 -0.2903 -0.4883
  133DG     C11 3047   0.216   1.265   3.520 -0.1884  0.5519 -0.8027
  133DG     C12 3048  -0.097   0.988   3.309 -0.3918 -0.1520  0.3085
  133DG     H13 3049   0.228   1.189   3.597 -2.4284  0.8485 -0.0814
  133DG     H14 3050   0.313   1.316   3.521  0.0264  0.1460 -0.7686
  133DG     H15 3051  -0.140   0.956   3.214  1.6269  0.4009 -0.8554
  133DG     H16 3052  -0.076   0.897   3.365 -1.1699  0.8237  2.2563
  133DG     C17 3053   0.189   1.203   3.378  0.0235 -0.3838  0.0115
  133DG     C18 3054   0.022   1.077   3.268  0.1117  0.8868 -0.3081
  133DG     O19 3055   0.067   1.131   3.395  0.1094 -0.1271 -0.1892
  133DG     H20 3056   0.276   1.148   3.341  2.6412  2.9217  0.7715
  133DG     H21 3057   0.174   1.285   3.309 -0.6547  0.2796  0.9228
  133DG     H22 3058   0.096   1.023   3.209 -0.9631 -0.3482 -0.5538
  133DG     H23 3059  -0.019   1.160   3.209 -0.1736  2.6855  2.2397
  134DG      C1 3060   0.328   2.222   2.278  1.1622 -0.3232 -0.2621
  134DG      C2 3061   0.802   1.966   1.768  0.3077 -0.5243  0.2872
  134DG      H3 3062   0.271   2.238   2.185 -1.9415 -2.2611  1.1349
  134DG      H4 3063   0.333   2.311   2.341 -0.7011 -0.2076 -0.2190
  134DG      H5 3064   0.279   2.143   2.334  0.7435  0.2520  0.1957
  134DG      H6 3065   0.763   1.948   1.668  2.6518 -1.7625 -0.5016
  134DG      H7 3066   0.812   2.073   1.787  0.5579 -0.5031  0.0494
  134DG      H8 3067   0.896   1.910   1.765  0.6443  0.0630 -0.7763
  134DG      O9 3068   0.449   2.166   2.247 -0.1596 -0.0977 -0.2133
  134DG     O10 3069   0.714   1.907   1.863  0.0686  0.2038 -0.2964
  134DG     C11 3070   0.515   2.252   2.157 -0.2823 -0.5220  0.0802
  134DG     C12 3071   0.767   1.880   1.996 -0.4008  0.0086 -0.2732
  134DG     H13 3072   0.516   2.357   2.188  2.3700 -0.7275  0.9187
  134DG     H14 3073   0.469   2.260   2.058  0.0482  3.6481  0.0627
  134DG     H15 3074   0.862   1.830   1.979 -0.5054 -0.2722 -0.0354
  134DG     H16 3075   0.702   1.801   2.032  0.1656 -0.9189 -1.2421
  134DG     C17 3076   0.662   2.205   2.147  0.7066 -0.2032 -0.3091
  134DG     C18 3077   0.781   2.004   2.084  0.4277 -0.6197  1.0513
  134DG     O19 3078   0.661   2.087   2.071  0.1579 -0.0872 -0.5364
  134DG     H20 3079   0.705   2.192   2.247 -0.6424  2.6231  0.7599
  134DG     H21 3080   0.724   2.284   2.103 -0.3272  1.1283  0.5498
  134DG     H22 3081   0.806   1.969   2.184  1.0352 -1.5495  0.5826
  134DG     H23 3082   0.858   2.069   2.042  0.2993  0.5329  2.5254
  135DG      C1 3083   1.208   1.927   5.331  0.2314  0.2711  0.3053
  135DG      C2 3084   1.275   1.226   5.072  0.4818 -0.0427 -0.0578
  135DG      H3 3085   1.140   1.910   5.415 -0.6612 -0.9648 -0.6357
  135DG      H4 3086   1.147   1.977   5.257 -1.4352 -1.5456  0.3713
  135DG      H5 3087   1.296   1.982   5.364  0.6921  0.6225 -1.4416
  135DG      H6 3088   1.354   1.151   5.060  1.9915  1.3777  0.5969
  135DG      H7 3089   1.179   1.181   5.046  1.9312 -3.6904  0.1944
  135DG      H8 3090   1.296   1.319   5.019  1.0602  0.1315  0.4629
  135DG      O9 3091   1.242   1.795   5.282 -0.2397  0.3588 -0.0404
  135DG     O10 3092   1.277   1.261   5.213 -0.0133 -0.4724 -0.4655
  135DG     C11 3093   1.314   1.792   5.151 -0.3508  0.2692 -0.1678
  135DG     C12 3094   1.189   1.361   5.260  0.0419  0.5089 -0.7163
  135DG     H13 3095   1.392   1.868   5.146 -0.8470  0.9023  1.2477
  135DG     H14 3096   1.252   1.828   5.069 -1.6033  1.8574  1.4054
  135DG     H15 3097   1.146   1.342   5.359  1.5731 -1.1680 -0.3139
  135DG     H16 3098   1.096   1.360   5.202  0.8930  0.5934 -2.1181
  135DG     C17 3099   1.370   1.653   5.108 -0.4965  0.1973  0.5577
  135DG     C18 3100   1.246   1.503   5.253 -0.2429  0.0913  0.0145
  135DG     O19 3101   1.278   1.539   5.118 -0.4289 -0.4229 -0.1156
  135DG     H20 3102   1.462   1.619   5.156 -0.7623 -0.8796  0.3313
  135DG     H21 3103   1.392   1.657   5.001  3.0427  0.5512  1.1572
  135DG     H22 3104   1.162   1.569   5.275 -1.3468 -0.7471 -1.4102
  135DG     H23 3105   1.326   1.528   5.322  0.5885  0.9081 -1.1887
  136DG      C1 3106   0.401   3.792   3.761  0.4276  0.8312 -0.2379
  136DG      C2 3107   0.493   4.457   3.729  0.2019 -0.0459  0.7821
  136DG      H3 3108   0.455   3.782   3.667 -0.6241  1.8084 -0.9641
  136DG      H4 3109   0.339   3.704   3.781 -0.9060  1.4613 -1.4584
  136DG      H5 3110   0.479   3.794   3.837 -0.6094  1.9805  0.8511
  136DG      H6 3111   0.565   4.510   3.792  0.0865  1.1003 -0.0172
  136DG      H7 3112   0.545   4.447   3.633  3.3660  2.0381  2.0817
  136DG      H8 3113   0.405   4.519   3.715  0.4539  0.0118 -0.6982
  136DG      O9 3114   0.323   3.910   3.762 -0.5067  0.2255  0.0615
  136DG     O10 3115   0.448   4.335   3.785 -0.5349  0.0256 -0.2235
  136DG     C11 3116   0.266   3.925   3.892  0.7817 -0.3013 -1.0756
  136DG     C12 3117   0.405   4.341   3.918  0.3312  0.0215 -0.1962
  136DG     H13 3118   0.340   3.921   3.972 -0.0601  1.7756 -0.1256
  136DG     H14 3119   0.196   3.845   3.914  0.5025  0.2431  0.0677
  136DG     H15 3120   0.324   4.412   3.929  1.1495  0.8026  1.0103
  136DG     H16 3121   0.488   4.372   3.983  0.3077 -0.0051 -0.1537
  136DG     C17 3122   0.174   4.049   3.889  0.7189 -1.0461 -0.5081
  136DG     C18 3123   0.350   4.201   3.945 -0.2037 -0.3838 -0.1121
  136DG     O19 3124   0.245   4.170   3.853 -0.1166  0.5537  0.2340
  136DG     H20 3125   0.117   4.063   3.981 -0.6868 -0.0505 -1.4965
  136DG     H21 3126   0.088   4.028   3.826  0.1694  0.4150 -0.2847
  136DG     H22 3127   0.433   4.131   3.931  1.4342  1.3317  0.6311
  136DG     H23 3128   0.321   4.204   4.050  2.2955 -0.2574  0.6426
  137DG      C1 3129   0.440   2.618   3.689 -0.8266  0.0118 -0.2415
  137DG      C2 3130   1.141   2.917   3.496  0.3630 -0.4313 -0.7843
  137DG      H3 3131   0.425   2.543   3.611 -2.3923  0.0477  0.0063
  137DG      H4 3132   0.432   2.716   3.644  0.1580  0.8649  1.3525
  137DG      H5 3133   0.350   2.598   3.747 -0.2500  2.2644  1.5734
  137DG      H6 3134   1.123   2.835   3.426 -0.6329 -0.3865 -0.5977
  137DG      H7 3135   1.092   3.010   3.467 -1.3724 -0.1151  2.6792
  137DG      H8 3136   1.246   2.938   3.515  0.4895 -1.6621  0.0109
  137DG      O9 3137   0.568   2.603   3.751  0.6643 -0.1806 -0.2676
  137DG     O10 3138   1.097   2.886   3.634 -0.2058 -0.1015  0.7623
  137DG     C11 3139   0.580   2.697   3.863 -0.7088  0.2728  0.0968
  137DG     C12 3140   0.967   2.846   3.633  0.1257 -0.0169  0.0263
  137DG     H13 3141   0.525   2.660   3.949 -2.1247 -1.1074 -1.3430
  137DG     H14 3142   0.528   2.789   3.835  0.2617  1.1723  1.1622
  137DG     H15 3143   0.956   2.764   3.561 -3.3932 -1.5258  2.0010
  137DG     H16 3144   0.903   2.928   3.601  0.7076  0.2639 -0.4400
  137DG     C17 3145   0.732   2.725   3.887 -0.0339  0.1768 -0.6286
  137DG     C18 3146   0.925   2.798   3.770  0.5163  0.1170 -0.2010
  137DG     O19 3147   0.794   2.762   3.762  0.4074 -0.0631  0.2763
  137DG     H20 3148   0.777   2.634   3.927 -1.8346 -0.7876 -0.7041
  137DG     H21 3149   0.744   2.809   3.956 -1.0560 -0.0691 -0.1373
  137DG     H22 3150   0.975   2.704   3.791  1.2816 -0.0624 -2.5692
  137DG     H23 3151   0.934   2.869   3.853 -1.2927  0.4624 -0.2612
  138DG      C1 3152   5.378   1.972   1.697  0.3927  0.1616 -0.3664
  138DG      C2 3153   5.381   1.691   1.208  0.2019  0.1872  0.3187
  138DG      H3 3154   5.407   1.916   1.786  1.9628  2.2148  0.5032
  138DG      H4 3155   5.465   2.022   1.654  0.0652  0.3186 -0.8468
  138DG      H5 3156   5.348   1.908   1.614  2.0351  1.4620 -2.0285
  138DG      H6 3157   5.401   1.648   1.307  0.8267  0.0974  0.1525
  138DG      H7 3158   5.307   1.623   1.166 -1.3286 -0.5030  3.7451
  138DG      H8 3159   5.470   1.698   1.146 -1.3951 -0.7702 -2.2491
  138DG      O9 3160   5.281   2.071   1.736  0.2188  0.1946 -1.2216
  138DG     O10 3161   5.322   1.816   1.242  0.2595 -0.0099 -0.3141
  138DG     C11 3162   5.234   2.152   1.624 -0.0705 -0.4788 -0.2910
  138DG     C12 3163   5.191   1.792   1.299  0.1184 -0.4025  0.4668
  138DG     H13 3164   5.320   2.204   1.581 -1.1623  0.7001 -1.0969
  138DG     H14 3165   5.174   2.228   1.675 -2.4401 -2.4439  0.0174
  138DG     H15 3166   5.186   1.729   1.388 -2.5408 -1.1385 -0.1125
  138DG     H16 3167   5.131   1.736   1.227 -0.0680 -1.9300  1.7431
  138DG     C17 3168   5.139   2.079   1.524 -0.5919 -0.3452  0.3221
  138DG     C18 3169   5.134   1.933   1.337 -0.4832 -0.0637  0.3888
  138DG     O19 3170   5.214   1.990   1.437 -0.0648 -0.0255  0.1254
  138DG     H20 3171   5.097   2.156   1.459 -0.6934 -0.5095  0.1944
  138DG     H21 3172   5.053   2.027   1.565  0.1850 -1.2018  0.8913
  138DG     H22 3173   5.135   1.989   1.243  0.6949  0.2521  0.5783
  138DG     H23 3174   5.033   1.912   1.373  0.0619 -2.7707  0.4959
  139DG      C1 3175   3.607   3.991   4.402  0.0743  0.4168  0.2806
  139DG      C2 3176   3.302   4.348   3.682  0.2393  0.3618 -0.0060
  139DG      H3 3177   3.560   4.029   4.493 -0.5329 -0.8152  0.4922
  139DG      H4 3178   3.703   4.043   4.398  0.1412  0.4195  1.5155
  139DG      H5 3179   3.626   3.886   4.424  0.5079  0.6479  1.0409
  139DG      H6 3180   3.243   4.304   3.602 -1.0632  2.2159 -0.1360
  139DG      H7 3181   3.224   4.361   3.757  0.0051 -3.7013  0.6825
  139DG      H8 3182   3.350   4.443   3.660  2.1595  0.0352  2.2326
  139DG      O9 3183   3.512   4.023   4.303 -0.1899  0.1655 -0.1085
  139DG     O10 3184   3.404   4.258   3.733  0.0223  0.6784  0.4186
  139DG     C11 3185   3.506   4.156   4.254  0.1622 -0.3089 -0.1406
  139DG     C12 3186   3.361   4.142   3.793  0.1423 -0.4874  0.1858
  139DG     H13 3187   3.595   4.188   4.199 -0.8950  1.4579 -0.9431
  139DG     H14 3188   3.504   4.218   4.343  1.2298 -0.1959 -0.1774
  139DG     H15 3189   3.443   4.071   3.801  1.0825  0.6998  1.5069
  139DG     H16 3190   3.288   4.096   3.726 -0.8280  1.2310 -0.0086
  139DG     C17 3191   3.379   4.184   4.167 -0.2090  0.0189 -0.0032
  139DG     C18 3192   3.304   4.170   3.929  0.9568  0.8188  0.3365
  139DG     O19 3193   3.410   4.179   4.026  0.2470 -0.1079 -0.4622
  139DG     H20 3194   3.348   4.286   4.191 -2.5354 -0.2469 -1.5523
  139DG     H21 3195   3.298   4.117   4.196 -1.0354  1.2554  0.6404
  139DG     H22 3196   3.242   4.259   3.930  1.3005  1.0995 -0.9947
  139DG     H23 3197   3.243   4.085   3.959 -0.8015  2.5881  2.0604
  140DG      C1 3198   4.046   2.672   1.726  0.5348 -0.0133  0.1955
  140DG      C2 3199   3.923   3.153   2.367 -0.1191  0.1546  0.3018
  140DG      H3 3200   4.028   2.694   1.621  3.4470 -0.4516 -0.4926
  140DG      H4 3201   3.974   2.592   1.742 -0.2997  0.6247 -0.2950
  140DG      H5 3202   4.149   2.636   1.740  0.3660 -0.2158  1.0165
  140DG      H6 3203   3.836   3.090   2.385 -0.3495  0.4284  0.1593
  140DG      H7 3204   3.950   3.180   2.469  1.8856 -2.7816  0.6650
  140DG      H8 3205   3.896   3.239   2.305 -1.1887  0.5723  1.3094
  140DG      O9 3206   4.025   2.783   1.810  0.7463  0.2487 -0.2328
  140DG     O10 3207   4.038   3.082   2.325 -0.5414  0.2698 -0.1359
  140DG     C11 3208   4.100   2.902   1.774  0.4364  0.1718  0.3619
  140DG     C12 3209   4.004   3.004   2.213 -0.0725  0.7833 -0.0816
  140DG     H13 3210   4.068   2.949   1.681  0.0530  1.9655  1.3436
  140DG     H14 3211   4.208   2.886   1.776  0.3483 -0.4443  0.3471
  140DG     H15 3212   3.928   3.056   2.155  0.2999 -0.4093 -1.6760
  140DG     H16 3213   3.968   2.905   2.241  1.3486  0.9153  2.5220
  140DG     C17 3214   4.079   2.999   1.898 -0.1651 -0.7043 -0.2874
  140DG     C18 3215   4.136   2.997   2.127 -0.0645 -0.4639  0.5508
  140DG     O19 3216   4.112   2.919   2.010  0.2682  0.1550  0.4672
  140DG     H20 3217   3.978   3.040   1.902  0.8003  1.9348 -0.4490
  140DG     H21 3218   4.144   3.086   1.889 -1.7604  0.5984  0.2892
  140DG     H22 3219   4.167   3.098   2.102 -1.0727  0.2278  1.9093
  140DG     H23 3220   4.208   2.953   2.196  1.5714  3.1212  1.3725
  141DG      C1 3221   1.101   2.409   3.525 -0.3516  0.4121 -0.1109
  141DG      C2 3222   0.744   2.311   4.288  0.5399 -0.2703  1.1260
  141DG      H3 3223   1.186   2.475   3.544 -0.0009 -0.6753  2.6398
  141DG      H4 3224   1.022   2.471   3.484  1.0120  0.9343 -2.0686
  141DG      H5 3225   1.137   2.341   3.448 -0.0445  2.1476 -1.5691
  141DG      H6 3226   0.762   2.226   4.353 -2.9215 -0.9036  1.4746
  141DG      H7 3227   0.833   2.369   4.311  1.1348 -0.0400 -1.4473
  141DG      H8 3228   0.663   2.377   4.320  2.3598  2.1350  1.0668
  141DG      O9 3229   1.065   2.353   3.646 -0.1503  0.1794 -0.7187
  141DG     O10 3230   0.728   2.272   4.154  0.1444 -0.0288 -0.3453
  141DG     C11 3231   0.944   2.276   3.642 -0.0111 -0.4441  0.0741
  141DG     C12 3232   0.763   2.378   4.065 -0.2466 -0.4087  0.5141
  141DG     H13 3233   0.946   2.192   3.710 -3.2711  0.9196  2.0668
  141DG     H14 3234   0.936   2.237   3.540 -0.1654  1.2140 -0.5874
  141DG     H15 3235   0.858   2.426   4.091  1.5609 -1.4400 -3.3432
  141DG     H16 3236   0.691   2.460   4.063  0.6579  0.4055 -1.5462
  141DG     C17 3237   0.819   2.354   3.688 -0.0869  0.6684  0.5152
  141DG     C18 3238   0.782   2.316   3.922 -0.2593  0.8903 -0.0661
  141DG     O19 3239   0.833   2.405   3.822 -0.3445 -0.6749 -0.2531
  141DG     H20 3240   0.724   2.304   3.671  0.9490 -1.4014  0.5478
  141DG     H21 3241   0.802   2.443   3.627  0.5604 -0.3857 -1.3096
  141DG     H22 3242   0.844   2.227   3.929 -1.0097  0.2984 -0.7049
  141DG     H23 3243   0.683   2.273   3.905  0.4663 -1.2556  0.7531
  142DG      C1 3244   4.983   2.558   5.170 -0.0745 -0.3365 -0.3881
  142DG      C2 3245   5.069   2.099   5.481 -0.1202 -0.0806  0.1085
  142DG      H3 3246   5.002   2.586   5.067  3.2739  0.0412  0.2430
  142DG      H4 3247   5.057   2.604   5.235 -0.7663 -0.1450  0.2809
  142DG      H5 3248   4.890   2.597   5.212  1.4915  0.5219  2.5566
  142DG      H6 3249   5.076   2.074   5.375  1.2443 -1.8829  0.5925
  142DG      H7 3250   5.167   2.143   5.497  1.2896 -2.7944 -0.5056
  142DG      H8 3251   5.058   2.011   5.544  0.3045  0.5675  1.1131
  142DG      O9 3252   4.992   2.414   5.176 -0.1385 -0.4598  0.4924
  142DG     O10 3253   4.978   2.199   5.533  0.2593  0.5072  0.0156
  142DG     C11 3254   4.884   2.351   5.106  0.3741 -0.1805 -0.4186
  142DG     C12 3255   4.846   2.161   5.510  0.0565  0.2926  0.3560
  142DG     H13 3256   4.898   2.250   5.068 -0.7494 -0.2726 -0.6332
  142DG     H14 3257   4.870   2.408   5.015 -0.5858 -1.9159 -1.4045
  142DG     H15 3258   4.786   2.225   5.575  0.6197  0.7340  0.4481
  142DG     H16 3259   4.836   2.054   5.527 -0.7885  0.0471 -1.4062
  142DG     C17 3260   4.756   2.357   5.207 -1.0933  0.0683 -0.4957
  142DG     C18 3261   4.801   2.193   5.369  0.4123  0.0650 -0.6635
  142DG     O19 3262   4.805   2.328   5.336  0.1518  0.1992 -0.3894
  142DG     H20 3263   4.681   2.286   5.171  2.2633 -3.0174 -2.1474
  142DG     H21 3264   4.720   2.459   5.218 -0.3288  0.1622  1.3432
  142DG     H22 3265   4.844   2.138   5.285 -0.7941 -0.9611 -0.6407
  142DG     H23 3266   4.695   2.169   5.372  0.3911  0.1508  2.0980
  143DG      C1 3267   5.151   1.506   0.866 -0.4746  0.6604 -0.0293
  143DG      C2 3268   5.181   2.330   0.822 -0.5911  0.1595  1.0263
  143DG      H3 3269   5.120   1.402   0.877 -1.1060  0.9820  1.6953
  143DG      H4 3270   5.218   1.529   0.949 -0.4357  1.4234 -0.2676
  143DG      H5 3271   5.213   1.526   0.779  0.2145  1.6150  0.6540
  143DG      H6 3272   5.236   2.395   0.889  0.6579  0.1455  0.0424
  143DG      H7 3273   5.235   2.352   0.730  0.2201  1.6883  1.8416
  143DG      H8 3274   5.076   2.358   0.833  0.1412  3.7408 -0.0172
  143DG      O9 3275   5.046   1.602   0.879  0.1002  0.5760  0.2703
  143DG     O10 3276   5.188   2.199   0.872  0.1840  0.6576  0.1967
  143DG     C11 3277   5.083   1.734   0.843  0.2855  0.3714  0.1292
  143DG     C12 3278   5.319   2.147   0.865 -0.1842  0.2335  0.2994
  143DG     H13 3279   4.993   1.791   0.866 -0.2682 -0.8299  1.0854
  143DG     H14 3280   5.098   1.748   0.736 -0.7673 -1.2963 -0.2729
  143DG     H15 3281   5.387   2.199   0.933  0.8207  0.2843 -0.7076
  143DG     H16 3282   5.365   2.143   0.766  0.5366  1.4089  0.5627
  143DG     C17 3283   5.204   1.793   0.916  0.1697  0.0858 -0.4681
  143DG     C18 3284   5.319   2.005   0.929 -0.0159 -0.1690  0.3177
  143DG     O19 3285   5.233   1.919   0.859 -0.0184 -0.7683 -0.2980
  143DG     H20 3286   5.301   1.744   0.920  0.3422  0.1267 -2.7422
  143DG     H21 3287   5.179   1.803   1.021 -0.7120 -1.0162 -0.5598
  143DG     H22 3288   5.418   1.959   0.919 -0.0761 -0.3637  0.6040
  143DG     H23 3289   5.287   2.002   1.033 -0.3629 -0.6104  0.1981
  144DG      C1 3290   0.377   0.905   3.554 -0.1440 -0.2054  0.5958
  144DG      C2 3291   0.233   0.589   4.270  0.3340  0.6092  0.4074
  144DG      H3 3292   0.381   0.838   3.468  0.3247  1.9891 -1.1616
  144DG      H4 3293   0.484   0.918   3.570  0.0836 -0.7995 -0.3359
  144DG      H5 3294   0.322   0.995   3.529  0.7862  0.3346  0.4464
  144DG      H6 3295   0.162   0.549   4.342  0.5445  1.6296  1.2185
  144DG      H7 3296   0.280   0.510   4.212 -0.3019 -0.9383  1.9240
  144DG      H8 3297   0.301   0.661   4.316  0.9617 -0.0844  0.5785
  144DG      O9 3298   0.315   0.827   3.657  0.6935  0.0402  0.4271
  144DG     O10 3299   0.146   0.651   4.180 -0.1128 -0.0288  0.5002
  144DG     C11 3300   0.178   0.796   3.631 -0.7282 -0.3107 -0.5447
  144DG     C12 3301   0.180   0.678   4.049  0.3321  0.2587  0.1578
  144DG     H13 3302   0.167   0.731   3.544  0.3147 -0.7037 -0.3905
  144DG     H14 3303   0.111   0.880   3.612  0.3609  0.3316 -1.6957
  144DG     H15 3304   0.230   0.588   4.015  0.7390 -0.6772  2.9369
  144DG     H16 3305   0.243   0.767   4.050 -1.7120  1.7809  1.4278
  144DG     C17 3306   0.118   0.720   3.747  0.1536  0.5271 -0.7081
  144DG     C18 3307   0.047   0.726   3.971 -0.2173  0.0987 -0.8202
  144DG     O19 3308   0.105   0.796   3.863  0.3362 -0.1497  0.2229
  144DG     H20 3309   0.166   0.625   3.771 -1.0219 -0.1888 -1.1102
  144DG     H21 3310   0.019   0.697   3.709 -0.5394  0.7575  0.8768
  144DG     H22 3311  -0.021   0.647   3.940  0.0480 -0.5147  0.0840
  144DG     H23 3312  -0.021   0.792   4.025 -0.6167  1.3050 -2.6960
  145DG      C1 3313   4.054   2.789   3.399 -0.7289 -0.0083 -0.5018
  145DG      C2 3314   4.152   3.371   3.014 -0.0076  0.3938 -0.2752
  145DG      H3 3315   4.024   2.734   3.489  2.1616 -0.0072  0.5479
  145DG      H4 3316   4.162   2.796   3.405 -0.7833  1.2012 -0.7171
  145DG      H5 3317   4.031   2.738   3.305  0.7855  0.9974 -1.4415
  145DG      H6 3318   4.225   3.429   3.070 -0.1270  1.2450 -0.9711
  145DG      H7 3319   4.219   3.313   2.952 -0.0963 -1.0131  0.8821
  145DG      H8 3320   4.095   3.441   2.953  0.8625  0.6012 -0.8642
  145DG      O9 3321   4.007   2.924   3.391 -0.0806  0.0035 -0.7399
  145DG     O10 3322   4.074   3.285   3.101 -0.1622  0.1825  0.6383
  145DG     C11 3323   3.870   2.939   3.370 -0.4012 -0.6934  0.1925
  145DG     C12 3324   3.998   3.360   3.195 -0.5334 -0.6541  0.2694
  145DG     H13 3325   3.811   2.884   3.443 -1.0501  0.7101  0.7643
  145DG     H14 3326   3.857   2.902   3.268 -0.1539  2.0449 -0.9187
  145DG     H15 3327   3.931   3.431   3.145 -1.5802 -0.8048  1.4049
  145DG     H16 3328   4.069   3.420   3.250 -0.6734 -0.2015 -0.0348
  145DG     C17 3329   3.824   3.084   3.363  0.1599  0.4346  0.0809
  145DG     C18 3330   3.889   3.287   3.273  0.4126  0.0522 -0.1546
  145DG     O19 3331   3.925   3.152   3.291 -0.7517 -0.3187  0.5431
  145DG     H20 3332   3.816   3.124   3.464  1.2627  0.5542  0.1316
  145DG     H21 3333   3.725   3.099   3.320  0.3777 -0.6217 -0.8343
  145DG     H22 3334   3.882   3.336   3.370  2.2137 -0.1588  0.1127
  145DG     H23 3335   3.794   3.278   3.219 -0.0787 -2.1289  0.9802
  146DG      C1 3336   3.889   2.490   3.573 -0.2736 -0.1345  0.5540
  146DG      C2 3337   3.904   2.155   3.015 -0.8697  0.2589  0.5295
  146DG      H3 3338   3.985   2.445   3.547 -0.7481  0.6294 -3.1527
  146DG      H4 3339   3.829   2.424   3.634 -0.0035  0.5455  1.5879
  146DG      H5 3340   3.890   2.584   3.628 -2.1232 -0.7345  1.7053
  146DG      H6 3341   4.005   2.146   3.057 -0.2800 -0.8524 -1.0396
  146DG      H7 3342   3.852   2.063   3.042 -0.9610  0.0705 -0.2632
  146DG      H8 3343   3.910   2.140   2.907  0.5464 -0.3340  0.6590
  146DG      O9 3344   3.832   2.496   3.440 -0.0102  0.2834  0.3785
  146DG     O10 3345   3.833   2.265   3.066 -0.0097  0.2535  0.3954
  146DG     C11 3346   3.706   2.562   3.428 -0.0893  0.2425  0.2389
  146DG     C12 3347   3.696   2.287   3.036  1.0730  0.3437 -0.0706
  146DG     H13 3348   3.719   2.663   3.467  0.3562  0.7602 -1.2072
  146DG     H14 3349   3.638   2.505   3.492  0.0708  0.4168  0.5677
  146DG     H15 3350   3.640   2.214   3.093  1.6901 -1.3904 -1.6006
  146DG     H16 3351   3.667   2.287   2.931 -0.2073  2.4599  0.2086
  146DG     C17 3352   3.654   2.558   3.284 -0.0820  0.4579 -0.2537
  146DG     C18 3353   3.670   2.428   3.092 -0.2723  0.3105  0.3409
  146DG     O19 3354   3.711   2.438   3.224  0.3129  0.3216  0.3091
  146DG     H20 3355   3.698   2.639   3.226  3.5266  0.0292  1.5622
  146DG     H21 3356   3.545   2.562   3.282 -0.1269 -0.3585 -2.1269
  146DG     H22 3357   3.712   2.513   3.039  0.0191 -0.3502 -0.5053
  146DG     H23 3358   3.564   2.448   3.081  0.1051  2.0501 -0.5661
  147DG      C1 3359   1.249   1.388   1.619  0.0868  0.1414 -0.2512
  147DG      C2 3360   1.897   0.989   1.734 -0.1625 -0.0928 -0.6671
  147DG      H3 3361   1.241   1.495   1.635 -1.0606  0.0344 -0.0761
  147DG      H4 3362   1.168   1.360   1.552  1.2222 -1.0760 -1.1776
  147DG      H5 3363   1.336   1.373   1.554 -0.1684  2.7469 -1.3121
  147DG      H6 3364   1.940   1.085   1.707 -1.6106  0.9333  0.4722
  147DG      H7 3365   1.954   0.951   1.819  0.9126 -1.7361 -2.0499
  147DG      H8 3366   1.903   0.911   1.658  1.0278 -0.0493 -0.6358
  147DG      O9 3367   1.266   1.318   1.741 -0.2282 -0.2996  0.3565
  147DG     O10 3368   1.763   1.013   1.773  0.0256 -0.1783  0.3297
  147DG     C11 3369   1.288   1.174   1.739  0.4914 -0.3639 -0.8959
  147DG     C12 3370   1.743   1.113   1.872 -0.0329 -0.0393  0.1655
  147DG     H13 3371   1.320   1.127   1.646  2.0978 -2.6978  0.7298
  147DG     H14 3372   1.187   1.136   1.753  0.3826  0.5650  1.1752
  147DG     H15 3373   1.772   1.213   1.840  1.1450  0.1013  1.5414
  147DG     H16 3374   1.801   1.097   1.963 -1.8697  0.3928  1.4501
  147DG     C17 3375   1.371   1.124   1.852 -0.2304 -0.2592  0.0610
  147DG     C18 3376   1.603   1.111   1.924  0.0686  0.3517 -0.0094
  147DG     O19 3377   1.509   1.130   1.818 -0.5505 -0.1230 -0.0662
  147DG     H20 3378   1.343   1.021   1.872  1.3706 -0.6793  0.2516
  147DG     H21 3379   1.347   1.165   1.950  0.3499 -0.8890  0.4682
  147DG     H22 3380   1.578   1.013   1.965  1.7260  1.4449  4.1630
  147DG     H23 3381   1.585   1.193   1.993 -1.6597 -1.1893  1.4613
  148DG      C1 3382   4.321   2.237   2.470  0.0099 -0.2169  0.3624
  148DG      C2 3383   3.798   2.516   2.152  0.6443  0.1207  0.1509
  148DG      H3 3384   4.417   2.233   2.523 -0.5031  2.3509  1.6314
  148DG      H4 3385   4.299   2.146   2.414 -0.0448 -1.0861  1.7280
  148DG      H5 3386   4.251   2.222   2.552  1.3693 -1.0794  1.4097
  148DG      H6 3387   3.763   2.475   2.247 -2.5018  0.5855 -0.6852
  148DG      H7 3388   3.748   2.611   2.131 -1.5544 -0.8867  0.5561
  148DG      H8 3389   3.784   2.437   2.079  2.6729 -0.8396  0.7378
  148DG      O9 3390   4.301   2.356   2.400  0.4043 -0.1755  0.0500
  148DG     O10 3391   3.926   2.554   2.194 -0.2991  0.6901  0.5329
  148DG     C11 3392   4.396   2.377   2.302  0.3092 -0.9015  0.4190
  148DG     C12 3393   4.008   2.582   2.080 -0.2640 -0.3858  0.7976
  148DG     H13 3394   4.398   2.295   2.231 -0.2182 -1.7505  1.3609
  148DG     H14 3395   4.499   2.391   2.336  0.4502  1.7202 -0.8383
  148DG     H15 3396   3.978   2.681   2.044 -0.2304 -0.2239  1.2137
  148DG     H16 3397   3.979   2.507   2.007 -2.5639  0.2570  0.9778
  148DG     C17 3398   4.347   2.493   2.220 -0.5452 -0.0065  0.5398
  148DG     C18 3399   4.161   2.598   2.113  0.2798  0.7433 -0.6121
  148DG     O19 3400   4.211   2.481   2.179 -0.0071 -0.2245  0.4999
  148DG     H20 3401   4.411   2.506   2.133 -0.3527  0.9044  0.8031
  148DG     H21 3402   4.346   2.577   2.290  1.6034 -0.9956  1.8385
  148DG     H22 3403   4.226   2.626   2.030  1.5065 -1.1342 -0.3614
  148DG     H23 3404   4.161   2.670   2.194 -1.4378  0.3932 -0.2637
  149DG      C1 3405   2.420   0.933   2.179 -0.5852  0.3093 -0.0256
  149DG      C2 3406   2.825   1.476   2.465 -0.1378 -0.3782  0.0542
  149DG      H3 3407   2.470   1.016   2.129  1.1550 -0.4792  0.3266
  149DG      H4 3408   2.316   0.913   2.153 -0.3165  1.1398 -1.9609
  149DG      H5 3409   2.485   0.848   2.158 -1.1203 -0.7854  2.4346
  149DG      H6 3410   2.873   1.423   2.382 -1.8006 -0.3269 -0.9976
  149DG      H7 3411   2.840   1.579   2.434 -0.2669 -0.2948  0.2643
  149DG      H8 3412   2.880   1.468   2.559 -2.7452  1.2471  1.8670
  149DG      O9 3413   2.427   0.942   2.318  0.4311 -0.0160 -0.2905
  149DG     O10 3414   2.692   1.424   2.473 -0.2084  0.2361  0.4516
  149DG     C11 3415   2.363   1.053   2.371  0.5774  0.7609 -0.6682
  149DG     C12 3416   2.691   1.298   2.527  0.0284 -0.1562  0.7547
  149DG     H13 3417   2.254   1.044   2.371  0.4745  1.8268 -0.6399
  149DG     H14 3418   2.378   1.140   2.307 -0.8039 -0.3088 -2.5568
  149DG     H15 3419   2.715   1.303   2.634  0.4928  0.0731  0.6431
  149DG     H16 3420   2.768   1.237   2.480  1.5980  0.5832  2.2612
  149DG     C17 3421   2.406   1.069   2.521 -0.3773  0.4511  1.0543
  149DG     C18 3422   2.554   1.249   2.500  0.0757  0.2409  0.6208
  149DG     O19 3423   2.538   1.113   2.532  0.0028  0.1876  0.3360
  149DG     H20 3424   2.397   0.978   2.581  1.5410 -0.8775 -0.5643
  149DG     H21 3425   2.352   1.143   2.581  0.0778  0.6683  1.1997
  149DG     H22 3426   2.497   1.314   2.566 -1.6309 -0.2844 -0.2687
  149DG     H23 3427   2.526   1.267   2.396 -1.1712  2.5414  1.3127
  150DG      C1 3428   0.043   0.256   1.103 -0.3747  0.3401  0.0629
  150DG      C2 3429  -0.228  -0.371   0.760 -0.2534 -0.5677  0.2681
  150DG      H3 3430   0.004   0.292   1.198 -0.4686  0.6489 -0.0927
  150DG      H4 3431   0.099   0.338   1.059 -0.2768 -0.0167 -0.4875
  150DG      H5 3432   0.118   0.181   1.128 -0.3761 -0.3335 -1.8311
  150DG      H6 3433  -0.314  -0.426   0.720 -2.4587  2.3891  0.6090
  150DG      H7 3434  -0.148  -0.404   0.694  1.2935  2.5801  0.3919
  150DG      H8 3435  -0.226  -0.407   0.863 -4.2513 -0.3428  0.5828
  150DG      O9 3436  -0.070   0.208   1.034 -0.1336 -0.1563 -0.8412
  150DG     O10 3437  -0.239  -0.225   0.747  0.0832 -0.0495  0.4873
  150DG     C11 3438  -0.057   0.204   0.896  0.4399  0.2378  0.5985
  150DG     C12 3439  -0.344  -0.172   0.830 -0.1506  0.0393  0.3942
  150DG     H13 3440   0.031   0.150   0.862  1.6935  1.9618  0.9406
  150DG     H14 3441  -0.035   0.302   0.854 -1.7500  0.9944  1.0874
  150DG     H15 3442  -0.318  -0.203   0.931  1.7620 -0.1013 -0.1179
  150DG     H16 3443  -0.440  -0.208   0.794 -0.0849  0.3819 -0.1320
  150DG     C17 3444  -0.185   0.157   0.835  0.3615  1.2586 -0.0303
  150DG     C18 3445  -0.332  -0.019   0.825 -0.2974  0.5317  0.1673
  150DG     O19 3446  -0.214   0.025   0.887 -0.3604 -0.3305  0.2814
  150DG     H20 3447  -0.173   0.161   0.726  0.9153 -0.2119 -0.0429
  150DG     H21 3448  -0.266   0.225   0.861  0.7763  1.9595 -0.5341
  150DG     H22 3449  -0.339  -0.009   0.717  0.7847 -1.0522 -0.0696
  150DG     H23 3450  -0.421   0.030   0.864 -1.0369 -0.1243 -0.6529
  151DG      C1 3451   3.214   4.436   3.327  0.2488 -0.2231 -0.2384
  151DG      C2 3452   2.975   3.919   3.754 -0.3663  0.2289 -0.6968
  151DG      H3 3453   3.185   4.357   3.258 -0.1415 -0.2409 -0.0553
  151DG      H4 3454   3.304   4.403   3.379  0.3975  1.2860  0.5103
  151DG      H5 3455   3.240   4.532   3.281 -1.3818 -0.0478 -0.8549
  151DG      H6 3456   2.939   3.934   3.855 -1.1508 -2.1483 -0.5575
  151DG      H7 3457   2.940   3.824   3.712  1.3237 -0.3901 -0.7884
  151DG      H8 3458   3.082   3.902   3.745 -0.3076  0.1843  0.0875
  151DG      O9 3459   3.122   4.447   3.431  0.1453  0.2216 -0.2791
  151DG     O10 3460   2.924   4.023   3.675 -0.5947 -0.0554  0.4333
  151DG     C11 3461   2.986   4.455   3.393  0.1077  0.1143  0.8021
  151DG     C12 3462   2.974   4.152   3.704  0.8844  0.0716  0.8711
  151DG     H13 3463   2.944   4.370   3.339  1.0082  0.5686 -0.6668
  151DG     H14 3464   2.969   4.548   3.338 -0.5539 -1.0699 -1.0985
  151DG     H15 3465   3.082   4.138   3.700  0.9790  0.9319 -2.4826
  151DG     H16 3466   2.943   4.182   3.805  1.5380  1.7913  0.5906
  151DG     C17 3467   2.904   4.463   3.522 -0.3629  0.0566  0.5795
  151DG     C18 3468   2.933   4.234   3.582 -0.2056 -0.6963  0.3803
  151DG     O19 3469   2.959   4.369   3.612 -0.1430  0.1306 -0.0639
  151DG     H20 3470   2.799   4.440   3.506 -0.2067 -0.4354  0.2058
  151DG     H21 3471   2.903   4.565   3.559 -1.4647  0.3730 -0.2788
  151DG     H22 3472   3.007   4.199   3.510  0.7032  1.8684 -0.0496
  151DG     H23 3473   2.829   4.210   3.561 -0.4829 -0.1505  1.0696
  152DG      C1 3474   0.114   4.798   3.547 -0.2601  0.0962 -0.0288
  152DG      C2 3475   0.163   4.321   3.004 -0.6976 -0.0073 -0.9426
  152DG      H3 3476   0.215   4.766   3.572 -0.4463 -0.5960 -0.1559
  152DG      H4 3477   0.071   4.863   3.623  2.5621  1.5201  0.4843
  152DG      H5 3478   0.116   4.845   3.448 -0.5844  0.7855  0.2824
  152DG      H6 3479   0.118   4.233   2.958  0.3942 -0.8551 -0.4254
  152DG      H7 3480   0.205   4.395   2.936  0.2894 -0.6550 -1.0513
  152DG      H8 3481   0.241   4.288   3.072 -1.7562  1.9169  1.3263
  152DG      O9 3482   0.041   4.676   3.529 -0.1815  0.3319  0.0598
  152DG     O10 3483   0.063   4.394   3.085 -0.1212  0.1933  0.0246
  152DG     C11 3484  -0.089   4.682   3.469  0.0162  0.0828 -0.3616
  152DG     C12 3485  -0.008   4.303   3.162 -0.7703  0.1467 -0.7499
  152DG     H13 3486  -0.091   4.753   3.387 -0.1118  0.0328 -0.4012
  152DG     H14 3487  -0.159   4.718   3.544 -0.4230  1.5683 -1.4482
  152DG     H15 3488   0.054   4.261   3.241  0.9057 -1.8034 -2.9497
  152DG     H16 3489  -0.046   4.226   3.094  3.2764 -1.3255 -1.6594
  152DG     C17 3490  -0.146   4.549   3.413  0.1121 -0.5669 -0.0637
  152DG     C18 3491  -0.121   4.384   3.242  0.2275  0.1796 -0.3814
  152DG     O19 3492  -0.061   4.488   3.317  0.3264  0.1729  0.6758
  152DG     H20 3493  -0.233   4.592   3.362 -0.2358 -1.5426 -0.3254
  152DG     H21 3494  -0.184   4.481   3.490 -2.4054  0.4440 -0.2953
  152DG     H22 3495  -0.202   4.433   3.189 -0.5234 -2.9187 -2.3499
  152DG     H23 3496  -0.170   4.319   3.315 -2.2334  0.4353 -1.6962
  153DG      C1 3497   1.210   0.416   3.464 -0.7461 -0.4770 -0.5027
  153DG      C2 3498   0.592   0.329   3.200  0.1284  0.3881  0.0419
  153DG      H3 3499   1.209   0.438   3.570 -1.3905 -3.8371  0.3221
  153DG      H4 3500   1.191   0.508   3.409  1.9716  0.8242  0.5947
  153DG      H5 3501   1.307   0.381   3.427  0.8430  1.9301  1.1403
  153DG      H6 3502   0.580   0.436   3.187 -1.6942  0.0480 -1.5643
  153DG      H7 3503   0.630   0.298   3.102 -0.8692  0.7591 -0.4762
  153DG      H8 3504   0.490   0.293   3.216  0.1752  0.7038  1.1051
  153DG      O9 3505   1.120   0.320   3.427  0.2235 -0.7021  0.1769
  153DG     O10 3506   0.686   0.307   3.299  0.5803 -0.4828 -0.1849
  153DG     C11 3507   1.119   0.199   3.501  0.3613 -0.2748 -0.1615
  153DG     C12 3508   0.686   0.176   3.353 -0.1077  0.1390 -0.2021
  153DG     H13 3509   1.144   0.203   3.607 -0.6068  0.1652  0.0573
  153DG     H14 3510   1.201   0.133   3.471  0.0495 -0.1767 -1.2790
  153DG     H15 3511   0.745   0.113   3.287  0.8961  0.8521 -0.0089
  153DG     H16 3512   0.581   0.144   3.351 -1.1435  3.2049 -2.2960
  153DG     C17 3513   0.983   0.125   3.484  0.3929 -0.7685  0.3627
  153DG     C18 3514   0.749   0.176   3.491  0.1255  0.5538 -0.1957
  153DG     O19 3515   0.882   0.225   3.488  0.0731 -0.2610  0.0784
  153DG     H20 3516   0.976   0.054   3.566  0.7094 -0.3825  0.7306
  153DG     H21 3517   0.985   0.074   3.388  1.6302  0.9521 -0.5823
  153DG     H22 3518   0.707   0.252   3.558 -0.3228  1.5938 -1.6089
  153DG     H23 3519   0.737   0.082   3.545  1.0620  0.5966  0.0970
  154DG      C1 3520   1.559   5.118   3.534 -0.1047 -0.0394 -0.6353
  154DG      C2 3521   1.290   4.617   3.835  0.9166 -0.4321  0.0136
  154DG      H3 3522   1.615   5.097   3.625 -0.4928 -2.6696 -0.9373
  154DG      H4 3523   1.544   5.225   3.520 -0.4121 -0.3285 -3.0528
  154DG      H5 3524   1.625   5.073   3.459  0.2592 -0.4145 -0.0975
  154DG      H6 3525   1.323   4.539   3.766  2.1148 -0.1881  0.3038
  154DG      H7 3526   1.364   4.638   3.911 -0.0977  0.6357  0.7433
  154DG      H8 3527   1.201   4.595   3.895  0.2901 -0.6454 -0.9624
  154DG      O9 3528   1.434   5.057   3.547  0.6205 -0.2027 -0.2002
  154DG     O10 3529   1.256   4.733   3.758 -0.6733  0.4318 -0.0499
  154DG     C11 3530   1.366   5.048   3.425 -0.4981 -0.3164  0.3490
  154DG     C12 3531   1.149   4.703   3.667  0.5728  0.5022 -0.0132
  154DG     H13 3532   1.424   4.996   3.348 -0.6013  0.6642 -0.4106
  154DG     H14 3533   1.363   5.147   3.380 -1.1279  0.2660  1.6285
  154DG     H15 3534   1.058   4.666   3.713 -0.5724  0.3383 -2.2873
  154DG     H16 3535   1.187   4.627   3.599  1.4606  0.9828 -0.0717
  154DG     C17 3536   1.232   4.989   3.455 -0.5649 -0.7336  1.3165
  154DG     C18 3537   1.120   4.816   3.572 -0.0444  0.9299  0.5846
  154DG     O19 3538   1.247   4.869   3.533 -0.3271 -0.1841  0.1716
  154DG     H20 3539   1.184   4.968   3.360  2.2074  0.0077 -0.3486
  154DG     H21 3540   1.181   5.070   3.508  0.4929  0.9149 -0.0821
  154DG     H22 3541   1.048   4.783   3.497  0.3842 -1.6379  1.2076
  154DG     H23 3542   1.063   4.887   3.631 -2.0328  0.2116 -0.3691
  155DG      C1 3543   4.028   0.388   0.661  0.2541 -0.4633 -0.0680
  155DG      C2 3544   3.928   1.187   0.440  0.2375 -0.0494 -0.2682
  155DG      H3 3545   3.994   0.382   0.765  0.0855 -0.7612 -0.1408
  155DG      H4 3546   4.134   0.363   0.664  0.1192 -1.1846 -0.8857
  155DG      H5 3547   3.989   0.301   0.608 -3.5384  1.5822 -1.0456
  155DG      H6 3548   3.940   1.275   0.377  0.2596  1.4825  1.7480
  155DG      H7 3549   3.837   1.130   0.423 -0.9049  0.9735  1.9479
  155DG      H8 3550   3.911   1.218   0.543 -0.2057 -1.6226  0.1639
  155DG      O9 3551   3.984   0.511   0.607  0.0800  0.5126  0.0403
  155DG     O10 3552   4.040   1.102   0.431 -0.0276  0.0461  0.2796
  155DG     C11 3553   4.009   0.516   0.462 -0.4500 -0.7205 -0.2898
  155DG     C12 3554   4.036   0.985   0.515  0.1846 -0.5220 -0.1012
  155DG     H13 3555   3.971   0.429   0.408  1.5223 -1.9249  0.1370
  155DG     H14 3556   4.116   0.513   0.442 -0.6660 -3.0379 -1.4484
  155DG     H15 3557   3.999   1.004   0.615 -0.1552 -0.2535 -0.2757
  155DG     H16 3558   4.138   0.953   0.534  0.2548 -0.0531  0.3440
  155DG     C17 3559   3.952   0.654   0.405 -0.1012  0.0517 -0.5299
  155DG     C18 3560   3.947   0.887   0.444 -0.0252  0.7023 -0.1475
  155DG     O19 3561   3.993   0.760   0.486  0.1934 -0.1994 -0.3122
  155DG     H20 3562   3.843   0.655   0.404 -0.2460 -2.3692  1.4855
  155DG     H21 3563   3.992   0.668   0.305  0.4025  0.8270 -0.2255
  155DG     H22 3564   3.846   0.909   0.480 -0.4774 -0.6403 -0.5362
  155DG     H23 3565   3.931   0.896   0.336 -3.2036 -0.8648  0.0754
  156DG      C1 3566   4.612   0.993   2.227 -0.1819 -0.2168 -0.5079
  156DG      C2 3567   5.378   1.177   2.100 -0.2065  0.0051 -0.1141
  156DG      H3 3568   4.613   1.100   2.249 -0.3974 -0.2316 -0.4196
  156DG      H4 3569   4.567   0.934   2.307 -3.2919 -1.1495 -2.7479
  156DG      H5 3570   4.544   0.975   2.143 -0.7921 -0.4836  0.0344
  156DG      H6 3571   5.361   1.283   2.081 -1.0529  0.1376  1.2148
  156DG      H7 3572   5.394   1.181   2.208  1.0741  0.5887 -0.3067
  156DG      H8 3573   5.468   1.140   2.051  0.9562 -0.3459  2.1336
  156DG      O9 3574   4.744   0.942   2.192  0.1202 -0.0019 -0.0720
  156DG     O10 3575   5.256   1.102   2.061 -0.0743 -0.2602 -0.1520
  156DG     C11 3576   4.851   0.981   2.274  0.2548  0.2018 -0.2147
  156DG     C12 3577   5.261   0.966   2.087  0.1377 -0.3368  0.1736
  156DG     H13 3578   4.824   0.961   2.378  0.7185  0.5563 -0.0199
  156DG     H14 3579   4.867   1.089   2.267  0.1117  0.1188 -2.7212
  156DG     H15 3580   5.275   0.940   2.192  2.1539 -0.7526 -0.1452
  156DG     H16 3581   5.341   0.928   2.023 -0.7002  0.9440 -1.7076
  156DG     C17 3582   4.985   0.915   2.223  0.3932 -0.1172  0.3613
  156DG     C18 3583   5.136   0.904   2.032 -0.2768  0.0717 -0.2877
  156DG     O19 3584   5.017   0.957   2.089 -0.0727  0.0775  0.1580
  156DG     H20 3585   4.974   0.806   2.220  2.9534 -0.4560  0.6706
  156DG     H21 3586   5.066   0.939   2.292  0.5984  1.1534 -0.2955
  156DG     H22 3587   5.141   0.922   1.924 -2.3654 -1.5429 -0.7179
  156DG     H23 3588   5.148   0.796   2.039  1.7360  0.2005 -0.9150
  157DG      C1 3589   1.804   5.482   2.998  0.1855  0.8993  0.2086
  157DG      C2 3590   2.228   5.885   3.429  0.5463  0.2073 -0.1392
  157DG      H3 3591   1.814   5.469   3.106  1.4068 -0.1874 -0.0081
  157DG      H4 3592   1.864   5.409   2.943 -1.7983 -0.3105 -0.4425
  157DG      H5 3593   1.704   5.483   2.956 -1.0967  1.2894  3.0658
  157DG      H6 3594   2.188   5.894   3.530  1.0773  0.1489  0.0779
  157DG      H7 3595   2.315   5.820   3.438 -0.0365 -0.6173 -0.3784
  157DG      H8 3596   2.266   5.985   3.405 -1.6522  1.2221  0.2953
  157DG      O9 3597   1.859   5.613   2.981 -0.3183 -0.0505 -0.1667
  157DG     O10 3598   2.151   5.818   3.335  0.7423  0.2367  0.3007
  157DG     C11 3599   1.779   5.720   3.034  0.5974  0.2698  0.1944
  157DG     C12 3600   2.198   5.830   3.204  0.1261  0.0677  0.0735
  157DG     H13 3601   1.739   5.716   3.135 -0.7769  2.6423 -0.1602
  157DG     H14 3602   1.695   5.731   2.965  1.4335 -0.6780 -1.0327
  157DG     H15 3603   2.288   5.768   3.202  0.5232  0.6493 -0.7231
  157DG     H16 3604   2.233   5.929   3.173  0.0356 -0.3754 -1.5451
  157DG     C17 3605   1.863   5.853   3.027  0.0078  0.0986 -0.6518
  157DG     C18 3606   2.090   5.775   3.102  0.0954 -0.1856 -0.0648
  157DG     O19 3607   1.967   5.847   3.126  0.4371 -0.1500  0.0020
  157DG     H20 3608   1.801   5.941   3.041 -2.3505 -1.4416 -0.8603
  157DG     H21 3609   1.910   5.865   2.929  2.5719  1.7196  0.6620
  157DG     H22 3610   2.116   5.787   2.996 -2.3148 -0.7980 -0.7778
  157DG     H23 3611   2.072   5.667   3.107 -0.0375 -0.1425  0.3446
  158DG      C1 3612   4.830   1.765   2.111  0.6962 -0.3829 -0.2171
  158DG      C2 3613   5.283   1.609   1.649  0.1276 -0.2941  0.3349
  158DG      H3 3614   4.865   1.835   2.036 -0.2765  0.7739  0.3891
  158DG      H4 3615   4.908   1.690   2.128  0.0535 -0.9309  0.3737
  158DG      H5 3616   4.819   1.815   2.207  1.8687 -1.0595  0.2959
  158DG      H6 3617   5.331   1.604   1.747 -3.4461  0.6214  2.3165
  158DG      H7 3618   5.287   1.507   1.610 -1.4340  0.2404 -1.3494
  158DG      H8 3619   5.337   1.665   1.572  1.2610 -2.4527 -0.5349
  158DG      O9 3620   4.703   1.707   2.071 -0.1626 -0.4005  0.2427
  158DG     O10 3621   5.142   1.624   1.651 -0.3835  0.2776  0.3431
  158DG     C11 3622   4.720   1.619   1.962 -0.0937  0.2871  0.8604
  158DG     C12 3623   5.103   1.755   1.687  0.0634  0.2140  0.0580
  158DG     H13 3624   4.628   1.567   1.935  0.9606 -1.1787 -0.0753
  158DG     H14 3625   4.801   1.551   1.991  0.1151  1.6381  3.8522
  158DG     H15 3626   5.130   1.823   1.606  0.7397 -0.2822 -0.1468
  158DG     H16 3627   5.159   1.781   1.778  0.6706 -2.5331  0.5534
  158DG     C17 3628   4.773   1.689   1.833  0.0708 -0.0739  0.5503
  158DG     C18 3629   4.954   1.766   1.703  0.0773  0.8064 -0.1778
  158DG     O19 3630   4.913   1.699   1.819 -0.1576  0.2829 -0.2055
  158DG     H20 3631   4.726   1.786   1.818 -0.9156 -0.4938  0.8676
  158DG     H21 3632   4.734   1.615   1.763  2.2728 -1.9591  1.1983
  158DG     H22 3633   4.898   1.859   1.703 -1.7450 -0.2403 -0.6692
  158DG     H23 3634   4.903   1.718   1.619 -0.7236 -1.1106  1.3236
  159DG      C1 3635   0.379   5.057   2.512  0.5878  1.0418 -0.4868
  159DG      C2 3636   0.813   5.399   3.064  0.0687 -0.1049  0.0327
  159DG      H3 3637   0.279   5.090   2.485 -0.2798 -2.1438 -1.5090
  159DG      H4 3638   0.361   4.970   2.575 -0.7132 -0.9664 -3.4138
  159DG      H5 3639   0.430   5.028   2.420  0.9160  1.3848 -0.4183
  159DG      H6 3640   0.714   5.438   3.087  0.4625 -0.1608  1.9181
  159DG      H7 3641   0.832   5.313   3.128 -0.3093 -0.3778 -0.2223
  159DG      H8 3642   0.893   5.467   3.095 -1.8392  2.0741  0.4128
  159DG      O9 3643   0.466   5.150   2.567 -0.3651 -0.2218  0.5515
  159DG     O10 3644   0.825   5.350   2.934  0.5840 -0.5788 -0.2010
  159DG     C11 3645   0.603   5.113   2.576 -0.2596  1.0143  0.2326
  159DG     C12 3646   0.797   5.447   2.840  0.5274  0.0753  0.1151
  159DG     H13 3647   0.628   5.049   2.491 -0.6047 -0.7130  1.3917
  159DG     H14 3648   0.622   5.060   2.669  1.3488 -1.5430 -1.4090
  159DG     H15 3649   0.870   5.528   2.843  0.6266  0.2585 -3.4023
  159DG     H16 3650   0.700   5.491   2.861  0.9305  1.4284 -0.7374
  159DG     C17 3651   0.694   5.234   2.558 -0.9226  0.3117 -0.1292
  159DG     C18 3652   0.802   5.381   2.708 -1.0693 -0.3091  0.1505
  159DG     O19 3653   0.708   5.277   2.693  0.0489  0.0151  0.7916
  159DG     H20 3654   0.645   5.309   2.496 -1.4518  0.5641  0.5797
  159DG     H21 3655   0.795   5.214   2.522 -0.9053  0.3490 -0.1003
  159DG     H22 3656   0.796   5.453   2.627 -2.5228  0.3404  0.7992
  159DG     H23 3657   0.902   5.337   2.704 -0.5008  0.8032  1.4239
  160DG      C1 3658   2.614   2.353   1.009  0.2962 -0.5296 -0.4925
  160DG      C2 3659   2.218   1.898   0.552 -0.1257 -0.4519 -0.5719
  160DG      H3 3660   2.620   2.295   1.101  0.2890 -1.1765 -0.8946
  160DG      H4 3661   2.526   2.417   1.008 -1.0623 -2.2656  1.1753
  160DG      H5 3662   2.705   2.413   1.006 -0.2505  0.3664  0.4116
  160DG      H6 3663   2.145   1.918   0.630 -0.5293 -1.1461 -0.7605
  160DG      H7 3664   2.171   1.912   0.454 -0.4639  0.0582 -0.3354
  160DG      H8 3665   2.264   1.799   0.559  0.7841 -0.0059 -0.1958
  160DG      O9 3666   2.619   2.268   0.901  0.3740 -0.5270  0.0359
  160DG     O10 3667   2.313   2.002   0.566 -0.1983  0.0420  0.1112
  160DG     C11 3668   2.534   2.153   0.916  0.0383  0.2489  0.1562
  160DG     C12 3669   2.439   1.990   0.502 -0.3909  0.1153 -1.0940
  160DG     H13 3670   2.429   2.175   0.932 -0.5723 -2.1821 -0.1782
  160DG     H14 3671   2.559   2.090   1.001 -1.5679  0.2944  0.6790
  160DG     H15 3672   2.423   1.976   0.395  1.6788 -3.2654 -1.0888
  160DG     H16 3673   2.493   1.900   0.532  0.4713  1.1881  0.7177
  160DG     C17 3674   2.554   2.082   0.785  0.2574 -0.1769 -0.1143
  160DG     C18 3675   2.539   2.106   0.544 -0.0243  0.3332 -0.0439
  160DG     O19 3676   2.514   2.159   0.673 -0.3734 -0.2552 -0.2095
  160DG     H20 3677   2.489   1.994   0.786  0.9751 -0.7171  0.4201
  160DG     H21 3678   2.659   2.053   0.772  0.6970  1.8476 -1.5504
  160DG     H22 3679   2.644   2.076   0.549 -0.5153 -1.9179 -1.4063
  160DG     H23 3680   2.535   2.174   0.459 -1.9957  0.7285  0.3170
  161DG      C1 3681   2.760   5.490   3.438  0.1229  0.0637  0.0778
  161DG      C2 3682   2.749   5.621   2.931 -0.3740  0.3126  0.0309
  161DG      H3 3683   2.801   5.397   3.399  2.8220 -0.1916  3.0931
  161DG      H4 3684   2.669   5.469   3.493 -0.2922  1.6248  0.0249
  161DG      H5 3685   2.829   5.541   3.506 -1.8275 -0.0026  2.2297
  161DG      H6 3686   2.841   5.580   2.890 -0.9233  0.5931 -1.5546
  161DG      H7 3687   2.773   5.660   3.030 -0.2862 -0.7720  0.4497
  161DG      H8 3688   2.699   5.535   2.976 -0.6202  0.9072  0.9278
  161DG      O9 3689   2.707   5.568   3.330  0.1784  0.2366 -0.5638
  161DG     O10 3690   2.668   5.701   2.848  0.4116 -0.5714  0.3812
  161DG     C11 3691   2.641   5.686   3.374 -0.0461 -1.3813 -0.0880
  161DG     C12 3692   2.539   5.738   2.899  0.2959  0.2079  1.0496
  161DG     H13 3693   2.718   5.732   3.436  1.1307  1.0423 -3.0876
  161DG     H14 3694   2.547   5.674   3.428 -0.9815  1.2382 -0.9497
  161DG     H15 3695   2.475   5.650   2.891 -0.5022  0.9385 -1.6637
  161DG     H16 3696   2.492   5.811   2.833  0.9125  0.3249  0.7439
  161DG     C17 3697   2.629   5.780   3.258 -0.7626 -0.4573 -0.7349
  161DG     C18 3698   2.540   5.804   3.033  0.2602 -0.3374  0.1630
  161DG     O19 3699   2.577   5.716   3.138 -0.5690  0.1018 -0.2766
  161DG     H20 3700   2.721   5.833   3.238  0.2926 -1.8679  0.1786
  161DG     H21 3701   2.551   5.849   3.290  0.8664  0.0663  2.4818
  161DG     H22 3702   2.615   5.881   3.019 -0.1683 -0.3809 -3.0933
  161DG     H23 3703   2.446   5.853   3.057  0.8723  1.5197 -1.0268
  162DG      C1 3704   4.689   2.960   3.957  0.1397  0.2039 -0.8068
  162DG      C2 3705   4.604   3.012   4.626 -0.5093  0.4151 -0.2841
  162DG      H3 3706   4.714   2.855   3.946 -1.8180 -0.5306  1.1076
  162DG      H4 3707   4.739   3.013   3.876  1.4105  2.4554  1.3010
  162DG      H5 3708   4.581   2.973   3.948  0.1904  0.9277 -0.4591
  162DG      H6 3709   4.497   3.004   4.604 -0.1815 -1.1288 -1.5924
  162DG      H7 3710   4.626   2.911   4.662 -0.9650  1.1968  2.3915
  162DG      H8 3711   4.626   3.061   4.720  0.1548  1.0458 -0.7582
  162DG      O9 3712   4.725   3.013   4.087 -0.4595 -0.1673 -0.5199
  162DG     O10 3713   4.683   3.078   4.522  0.4551 -0.1015 -0.1388
  162DG     C11 3714   4.874   3.006   4.107  0.0657 -0.7739  0.3449
  162DG     C12 3715   4.814   3.078   4.566  0.3284 -1.0383 -0.1473
  162DG     H13 3716   4.925   3.031   4.014 -0.5666  0.6501  0.3458
  162DG     H14 3717   4.887   2.900   4.131 -2.3184 -1.1266  0.3341
  162DG     H15 3718   4.852   2.984   4.605 -1.0684 -0.9741  1.4602
  162DG     H16 3719   4.811   3.145   4.652 -2.3172 -1.1953 -0.0479
  162DG     C17 3720   4.922   3.097   4.215  0.4042 -0.4448  0.8018
  162DG     C18 3721   4.898   3.125   4.444 -0.0871  0.1528 -0.8642
  162DG     O19 3722   4.857   3.053   4.334 -0.3882 -0.2437  0.3147
  162DG     H20 3723   4.905   3.202   4.191 -0.5563 -0.4395  1.4919
  162DG     H21 3724   5.028   3.075   4.230  0.6984  1.1031  1.1675
  162DG     H22 3725   4.878   3.229   4.419  4.2845  0.8232 -2.3744
  162DG     H23 3726   5.004   3.118   4.465 -0.2635 -0.8240 -0.1902
  163DG      C1 3727   0.211   0.769   0.991 -0.7369 -0.3890  0.0195
  163DG      C2 3728  -0.192   1.202   0.529  0.1560 -0.0170  0.7545
  163DG      H3 3729   0.130   0.699   1.011 -0.9533 -0.4218 -0.9530
  163DG      H4 3730   0.258   0.802   1.084 -1.0295  0.1063 -0.0086
  163DG      H5 3731   0.284   0.708   0.938 -1.0049 -0.2747 -0.4877
  163DG      H6 3732  -0.119   1.127   0.499 -0.0407 -0.2662  0.9018
  163DG      H7 3733  -0.300   1.192   0.521  0.0544  0.4618  1.4091
  163DG      H8 3734  -0.167   1.288   0.467 -2.1724  0.5484  0.5024
  163DG      O9 3735   0.172   0.884   0.908 -0.9203  0.1077 -0.0826
  163DG     O10 3736  -0.171   1.230   0.664 -0.3205  0.1338  0.6503
  163DG     C11 3737   0.075   0.958   0.972  0.4855  0.3680  0.1405
  163DG     C12 3738  -0.043   1.289   0.690  0.2363  0.6495 -0.7422
  163DG     H13 3739   0.097   0.971   1.079  0.9223 -0.2313  0.1250
  163DG     H14 3740  -0.018   0.903   0.961 -0.0062  1.5342 -1.9401
  163DG     H15 3741  -0.053   1.329   0.791 -2.0977 -0.8669 -0.3084
  163DG     H16 3742  -0.011   1.369   0.623 -0.4345  0.4092 -1.3555
  163DG     C17 3743   0.051   1.089   0.904  0.2625 -0.5445 -0.2630
  163DG     C18 3744   0.071   1.186   0.675 -0.4331 -0.7227 -0.1633
  163DG     O19 3745   0.049   1.073   0.759 -0.0203 -0.0007  0.3240
  163DG     H20 3746   0.126   1.166   0.923  0.0877 -0.1407 -1.1357
  163DG     H21 3747  -0.049   1.122   0.932  0.0325 -0.2898 -1.3558
  163DG     H22 3748   0.103   1.167   0.573  1.3666  0.6084  0.1144
  163DG     H23 3749   0.161   1.229   0.718  0.9990 -2.0462 -1.7016
  164DG      C1 3750   0.092   4.400   0.947 -0.2919 -0.2440  0.0028
  164DG      C2 3751   0.286   3.856   0.457  0.3720  0.7591 -0.4343
  164DG      H3 3752   0.091   4.363   1.049 -1.5486 -0.1982  0.0283
  164DG      H4 3753   0.046   4.499   0.947 -0.0109 -0.0159  3.2810
  164DG      H5 3754   0.194   4.419   0.915  0.3714  2.5288  3.2306
  164DG      H6 3755   0.289   3.843   0.565 -1.0250  0.5362 -0.3991
  164DG      H7 3756   0.212   3.787   0.416 -0.2720  0.0027  1.8275
  164DG      H8 3757   0.383   3.859   0.409  0.0736  1.2385 -1.0154
  164DG      O9 3758   0.035   4.319   0.857  0.7661 -0.4249  0.1506
  164DG     O10 3759   0.226   3.983   0.451 -0.1105  0.3246 -0.0027
  164DG     C11 3760   0.001   4.373   0.731 -0.3321 -0.0595  0.6305
  164DG     C12 3761   0.312   4.067   0.525 -0.0623  0.0801  0.1822
  164DG     H13 3762  -0.041   4.474   0.723  0.2247  0.2272  1.2756
  164DG     H14 3763  -0.084   4.314   0.695 -0.3134 -1.0190  2.0676
  164DG     H15 3764   0.414   4.065   0.487 -0.8112 -0.1223 -1.9079
  164DG     H16 3765   0.315   4.036   0.630  0.7929  0.1281  0.1743
  164DG     C17 3766   0.109   4.352   0.626 -0.3497  0.1815  0.6967
  164DG     C18 3767   0.269   4.212   0.521 -0.1481 -0.0878 -0.0707
  164DG     O19 3768   0.160   4.219   0.606 -0.0516  0.5434  0.5315
  164DG     H20 3769   0.197   4.409   0.658  0.5945 -1.2441  0.7437
  164DG     H21 3770   0.074   4.403   0.536  0.4944  3.0641  1.8897
  164DG     H22 3771   0.348   4.271   0.568  0.5156  0.8540 -2.2520
  164DG     H23 3772   0.256   4.246   0.419 -2.7783 -1.0971 -0.1336
  165DG      C1 3773   0.068   4.712   3.156 -0.0282 -0.0740  0.4961
  165DG      C2 3774   0.251   5.292   3.384 -0.5899  0.4072 -0.4997
  165DG      H3 3775   0.069   4.615   3.106  1.2763  0.0079  0.3318
  165DG      H4 3776  -0.034   4.750   3.164  0.0662  0.3150 -0.1131
  165DG      H5 3777   0.101   4.685   3.257  1.6895  0.5543  0.1368
  165DG      H6 3778   0.229   5.354   3.297  0.2036 -3.5206 -3.8317
  165DG      H7 3779   0.159   5.249   3.425 -0.0766  1.3580  1.8226
  165DG      H8 3780   0.301   5.338   3.469  0.1195  0.3727 -0.8918
  165DG      O9 3781   0.156   4.799   3.088 -0.2963  0.2085 -0.0777
  165DG     O10 3782   0.327   5.186   3.342 -0.1024 -0.3471 -0.5463
  165DG     C11 3783   0.295   4.759   3.097 -0.2340  0.2185 -0.5203
  165DG     C12 3784   0.362   5.088   3.439  0.1052 -0.6570 -0.0326
  165DG     H13 3785   0.351   4.818   3.025  0.6466 -1.6326 -1.4424
  165DG     H14 3786   0.302   4.652   3.072  0.2706 -0.3448  1.8312
  165DG     H15 3787   0.276   5.068   3.503  0.9045  0.7483  1.5745
  165DG     H16 3788   0.434   5.132   3.508  0.7807  0.1149 -1.1745
  165DG     C17 3789   0.359   4.789   3.236  0.9655 -0.2684  0.0930
  165DG     C18 3790   0.421   4.965   3.378 -0.8622  0.3153  0.9617
  165DG     O19 3791   0.341   4.925   3.267  0.0343  0.3717 -0.5289
  165DG     H20 3792   0.464   4.761   3.232  1.5950  2.0146 -1.3892
  165DG     H21 3793   0.309   4.730   3.313  2.0649 -2.1235 -0.5576
  165DG     H22 3794   0.517   4.985   3.329 -2.1552 -0.9798 -2.3995
  165DG     H23 3795   0.437   4.889   3.454 -2.4444  0.0835  1.0832
  166DG      C1 3796   0.345   2.255   4.888 -0.5647  0.1777 -0.2479
  166DG      C2 3797   0.052   2.574   4.406  0.2570 -0.1506 -0.5875
  166DG      H3 3798   0.329   2.205   4.983 -0.3326  1.3431  0.4241
  166DG      H4 3799   0.373   2.358   4.911  1.5776 -0.6215  0.9363
  166DG      H5 3800   0.437   2.206   4.857 -0.3803 -1.5011  2.6810
  166DG      H6 3801   0.141   2.579   4.344  0.7525  2.5618  0.2141
  166DG      H7 3802  -0.032   2.583   4.337  0.2080  1.6121 -0.3588
  166DG      H8 3803   0.050   2.657   4.477  1.0339 -2.4170  2.3087
  166DG      O9 3804   0.232   2.243   4.808  0.1388 -0.2546 -0.6718
  166DG     O10 3805   0.037   2.449   4.481  0.2951  0.2141 -0.0313
  166DG     C11 3806   0.196   2.117   4.775  0.3101 -0.2049  0.6351
  166DG     C12 3807   0.039   2.325   4.406  0.7404 -0.2154  0.6388
  166DG     H13 3808   0.185   2.052   4.861 -0.1358  0.5194  1.1418
  166DG     H14 3809   0.273   2.079   4.707  0.5878  1.1010  0.1842
  166DG     H15 3810   0.137   2.297   4.367 -0.5932 -1.2643 -2.2339
  166DG     H16 3811  -0.018   2.330   4.313  1.0832 -0.7174  0.3986
  166DG     C17 3812   0.057   2.118   4.703 -0.3427  0.3527 -0.2296
  166DG     C18 3813  -0.004   2.210   4.496 -0.0904  0.0593 -0.0572
  166DG     O19 3814   0.073   2.224   4.608  0.2250 -0.2667 -0.1684
  166DG     H20 3815  -0.023   2.145   4.772 -0.0373 -0.4025  0.4391
  166DG     H21 3816   0.045   2.019   4.657 -0.4875  0.0247  0.5017
  166DG     H22 3817  -0.112   2.216   4.513  0.1666  0.2925  1.6240
  166DG     H23 3818   0.008   2.117   4.442  2.6373  1.0444 -1.3339
  167DG      C1 3819   4.241   1.449   3.134 -0.2382 -0.7089 -0.3964
  167DG      C2 3820   3.813   1.032   2.726  0.2895 -0.8367 -0.1826
  167DG      H3 3821   4.345   1.471   3.158 -0.0906 -0.9559 -0.8159
  167DG      H4 3822   4.198   1.408   3.225  2.6890 -3.1181  0.0361
  167DG      H5 3823   4.192   1.541   3.102  1.4852 -0.8456 -3.8932
  167DG      H6 3824   3.798   0.973   2.635 -1.4885  0.2787 -0.6620
  167DG      H7 3825   3.788   0.963   2.806 -2.9930 -1.0582 -1.2528
  167DG      H8 3826   3.738   1.110   2.728  0.2157 -0.9220  1.0764
  167DG      O9 3827   4.221   1.353   3.035 -0.2201  0.2991 -0.0179
  167DG     O10 3828   3.942   1.082   2.745  0.3958 -0.5108  0.2934
  167DG     C11 3829   4.290   1.233   3.072  0.5412 -0.4271  0.1039
  167DG     C12 3830   4.036   0.976   2.749  0.2081  0.6487  0.4803
  167DG     H13 3831   4.231   1.182   3.148  1.3785  0.0906  1.1257
  167DG     H14 3832   4.390   1.245   3.113  0.9040  0.1337 -0.9186
  167DG     H15 3833   4.018   0.910   2.664 -0.8583 -0.0580  1.2366
  167DG     H16 3834   4.005   0.913   2.833  0.7416 -0.3613 -0.0589
  167DG     C17 3835   4.301   1.151   2.939  0.6351  0.1868  0.3634
  167DG     C18 3836   4.183   1.025   2.769 -0.1261 -0.2251 -0.4889
  167DG     O19 3837   4.181   1.102   2.888 -0.5403  0.3794  0.1749
  167DG     H20 3838   4.368   1.067   2.951  2.0447  0.9601 -1.5707
  167DG     H21 3839   4.353   1.210   2.863  0.5465 -0.0361  0.1265
  167DG     H22 3840   4.256   0.944   2.772  0.7088  0.5188 -0.4236
  167DG     H23 3841   4.222   1.079   2.683 -0.2807 -0.4743 -0.7159
  168DG      C1 3842   0.423   2.631   1.966  0.1629  1.0794 -0.8010
  168DG      C2 3843   0.397   2.164   1.627 -0.1573  0.0485  0.2487
  168DG      H3 3844   0.428   2.733   2.004  0.1040  0.7283  0.1603
  168DG      H4 3845   0.526   2.598   1.955  0.0648  0.0385  1.0720
  168DG      H5 3846   0.381   2.560   2.037  1.2348 -0.6692 -1.8526
  168DG      H6 3847   0.407   2.127   1.729 -1.2372 -0.3770  0.2200
  168DG      H7 3848   0.340   2.092   1.568  0.1934  1.6060 -2.1261
  168DG      H8 3849   0.495   2.173   1.580 -0.3361  0.8065  0.0063
  168DG      O9 3850   0.348   2.624   1.851  0.7593  0.0449  0.5025
  168DG     O10 3851   0.318   2.282   1.635  0.6998  0.4341  0.6961
  168DG     C11 3852   0.208   2.625   1.879 -1.0093  0.2363 -0.1149
  168DG     C12 3853   0.189   2.270   1.695  0.4143  0.3685 -0.1736
  168DG     H13 3854   0.182   2.722   1.922 -0.3075  0.5313 -0.3481
  168DG     H14 3855   0.184   2.556   1.960 -0.4448 -3.1190 -2.5636
  168DG     H15 3856   0.185   2.241   1.800 -0.1002  0.1707 -0.2466
  168DG     H16 3857   0.134   2.192   1.642  1.6852 -0.3402 -0.4974
  168DG     C17 3858   0.133   2.624   1.749 -1.2272  0.4177 -0.5348
  168DG     C18 3859   0.110   2.400   1.678  0.2435 -0.6300  0.5769
  168DG     O19 3860   0.192   2.518   1.676  0.2231  0.3937  0.5832
  168DG     H20 3861   0.146   2.721   1.702 -2.7333  0.1420 -1.5901
  168DG     H21 3862   0.026   2.616   1.769 -0.9081 -0.9685  0.8240
  168DG     H22 3863   0.075   2.405   1.575  2.4100  0.2291 -0.1643
  168DG     H23 3864   0.020   2.398   1.740 -0.3610 -0.5249 -0.2837
  169DG      C1 3865   1.029   4.119   4.489 -0.0043  0.0140 -0.0550
  169DG      C2 3866   0.882   4.466   3.862 -0.0903  0.3057 -0.3837
  169DG      H3 3867   1.023   4.036   4.419 -0.8245 -0.2490  0.3183
  169DG      H4 3868   0.978   4.084   4.579 -2.3144  1.0686 -0.8761
  169DG      H5 3869   1.136   4.124   4.508  0.2588  0.3040 -1.5200
  169DG      H6 3870   0.790   4.503   3.817 -1.2042 -3.7299 -1.8410
  169DG      H7 3871   0.967   4.472   3.793 -1.0952 -1.0151 -1.7972
  169DG      H8 3872   0.870   4.360   3.883  0.4587  0.5072  1.0986
  169DG      O9 3873   0.963   4.233   4.439 -0.1354  0.0636 -0.0615
  169DG     O10 3874   0.916   4.536   3.984  0.2943 -0.3556 -0.5189
  169DG     C11 3875   1.008   4.357   4.483 -0.1581 -0.4575 -0.2396
  169DG     C12 3876   0.801   4.527   4.076  0.2642  0.1711 -0.3522
  169DG     H13 3877   1.114   4.372   4.463  0.6477 -2.0641  2.3770
  169DG     H14 3878   0.999   4.366   4.591 -0.9714  0.0896 -0.3446
  169DG     H15 3879   0.756   4.427   4.074 -0.7693  0.6155  0.0961
  169DG     H16 3880   0.718   4.592   4.051 -0.4565  0.0739  1.5790
  169DG     C17 3881   0.914   4.461   4.423 -0.4549  0.0982  0.2567
  169DG     C18 3882   0.840   4.563   4.222  0.3916  0.2215  0.3869
  169DG     O19 3883   0.922   4.461   4.280  0.1705 -0.2871  0.2112
  169DG     H20 3884   0.916   4.557   4.474 -3.2986 -0.0687  0.8540
  169DG     H21 3885   0.813   4.430   4.450  0.2236 -1.2386  1.4232
  169DG     H22 3886   0.901   4.652   4.230  2.1068 -0.9329  0.5464
  169DG     H23 3887   0.747   4.585   4.274 -0.0589  4.0352 -1.7018
  170DG      C1 3888   5.385   0.636   1.170 -0.2971 -0.3323  0.4051
  170DG      C2 3889   5.049   0.615   1.798 -0.7686  0.6444  0.0539
  170DG      H3 3890   5.490   0.608   1.166  0.1328  1.2967 -2.2774
  170DG      H4 3891   5.373   0.741   1.196  0.0440 -0.1569 -0.1445
  170DG      H5 3892   5.328   0.621   1.078 -0.5730  1.7397  0.1929
  170DG      H6 3893   4.977   0.679   1.850 -1.9144 -1.6378  1.4805
  170DG      H7 3894   5.012   0.513   1.806  0.5169  0.1678  0.1833
  170DG      H8 3895   5.145   0.637   1.844 -0.5085 -0.4788  0.0811
  170DG      O9 3896   5.362   0.543   1.267 -0.0325  0.1780 -0.0750
  170DG     O10 3897   5.064   0.652   1.658 -0.6143 -0.1469 -0.5293
  170DG     C11 3898   5.244   0.461   1.248 -0.4270  0.0426  0.2012
  170DG     C12 3899   4.951   0.643   1.576 -0.0329  0.8945 -0.1872
  170DG     H13 3900   5.218   0.384   1.320  0.3118 -2.6223 -2.1953
  170DG     H14 3901   5.258   0.414   1.150 -1.0204 -0.2189  0.2351
  170DG     H15 3902   4.893   0.726   1.618  0.7393  0.6929  1.3737
  170DG     H16 3903   4.893   0.558   1.614  0.9921  0.9523  1.6302
  170DG     C17 3904   5.118   0.543   1.262  0.3321  0.2484 -0.2195
  170DG     C18 3905   4.976   0.650   1.429 -0.0576  0.2122  0.1756
  170DG     O19 3906   5.081   0.561   1.397 -0.4557 -0.2200 -0.1373
  170DG     H20 3907   5.046   0.480   1.210 -0.7352 -0.6914  2.2971
  170DG     H21 3908   5.114   0.637   1.206 -1.5537  0.6262  0.4769
  170DG     H22 3909   4.886   0.622   1.374 -0.8618  1.1701  0.9641
  170DG     H23 3910   5.015   0.746   1.398  0.5624 -0.3817 -0.9710
  171DG      C1 3911   3.654   1.030   2.274 -0.1014  0.4720  0.4253
  171DG      C2 3912   3.476   0.533   2.021  0.0226 -0.0754  0.0145
  171DG      H3 3913   3.663   1.122   2.332 -0.3047 -0.2800  1.6974
  171DG      H4 3914   3.666   1.048   2.167 -0.8639  0.0337  0.2604
  171DG      H5 3915   3.734   0.964   2.308 -1.8908 -2.9329 -1.4781
  171DG      H6 3916   3.384   0.481   1.997 -0.3971  0.5855  0.1722
  171DG      H7 3917   3.504   0.581   1.927  0.3345 -0.7683 -0.2541
  171DG      H8 3918   3.555   0.459   2.038 -1.1148 -0.5990  3.7827
  171DG      O9 3919   3.519   0.975   2.302 -0.3215 -0.7313  0.5277
  171DG     O10 3920   3.477   0.620   2.135 -0.0432 -0.1947 -0.1563
  171DG     C11 3921   3.506   0.940   2.439  0.9295 -0.3070 -0.4194
  171DG     C12 3922   3.445   0.544   2.251 -0.0333 -0.0404  0.1534
  171DG     H13 3923   3.497   1.031   2.499  1.6233  0.7355 -1.8356
  171DG     H14 3924   3.582   0.876   2.484  1.2996  0.3286 -0.1253
  171DG     H15 3925   3.520   0.465   2.258 -0.5285 -0.6102 -0.6983
  171DG     H16 3926   3.347   0.499   2.233 -0.2228  1.0541 -1.8575
  171DG     C17 3927   3.377   0.856   2.443  0.3142  0.3834 -0.5614
  171DG     C18 3928   3.444   0.643   2.369 -0.0246  0.5636 -0.2799
  171DG     O19 3929   3.365   0.760   2.339 -0.3830  0.4626  0.4316
  171DG     H20 3930   3.297   0.930   2.436 -2.9782 -2.9410 -0.9145
  171DG     H21 3931   3.361   0.821   2.545 -1.0670 -0.1090 -0.9189
  171DG     H22 3932   3.393   0.593   2.451 -0.7160  1.0597 -0.3943
  171DG     H23 3933   3.548   0.670   2.387  0.2687  0.5941 -1.8534
  172DG      C1 3934   0.595   4.481   0.065  0.7362  0.2700 -0.2649
  172DG      C2 3935   0.102   4.905   0.282 -0.1572  1.0637 -0.0569
  172DG      H3 3936   0.671   4.473  -0.012  0.7010  1.2255 -0.4115
  172DG      H4 3937   0.601   4.407   0.146  0.8728 -0.6422 -1.0885
  172DG      H5 3938   0.610   4.580   0.108  1.2065  0.5438 -1.0475
  172DG      H6 3939   0.171   4.989   0.271  0.6486  0.6023  1.2195
  172DG      H7 3940   0.003   4.951   0.290 -0.3554  0.4515  1.4434
  172DG      H8 3941   0.123   4.841   0.367  0.8057  1.7000  0.2001
  172DG      O9 3942   0.461   4.471   0.012 -0.5457  0.2217  0.0968
  172DG     O10 3943   0.126   4.840   0.159  0.1341  0.1931  0.8568
  172DG     C11 3944   0.433   4.580  -0.081 -1.0854 -0.1533 -0.4457
  172DG     C12 3945   0.063   4.713   0.152  0.0981  0.3396  0.0581
  172DG     H13 3946   0.498   4.562  -0.166 -0.1533 -2.0879  0.6130
  172DG     H14 3947   0.480   4.671  -0.046  3.1113 -0.6222 -4.0627
  172DG     H15 3948  -0.042   4.738   0.168 -0.0968 -1.4864  2.0950
  172DG     H16 3949   0.091   4.649   0.235  1.9586  2.3055  1.0468
  172DG     C17 3950   0.290   4.596  -0.113 -0.2229 -0.3941  0.6407
  172DG     C18 3951   0.096   4.646   0.015 -0.3008  0.1023 -0.3835
  172DG     O19 3952   0.235   4.647   0.009  0.0504 -0.0963 -0.1569
  172DG     H20 3953   0.254   4.498  -0.144  1.3546 -0.7242 -0.2610
  172DG     H21 3954   0.266   4.666  -0.193  1.3932  0.3468  0.7763
  172DG     H22 3955   0.050   4.548   0.008 -2.1521  1.0320 -2.2927
  172DG     H23 3956   0.058   4.707  -0.067  1.3817  1.9336  0.1182
  173DG      C1 3957   1.667   1.609   2.623  0.1278 -0.1599  0.4825
  173DG      C2 3958   2.322   1.687   2.251  0.2199  0.1842 -0.0089
  173DG      H3 3959   1.608   1.566   2.542 -0.5069  2.2179 -0.3983
  173DG      H4 3960   1.621   1.703   2.651  0.1465  0.0507 -0.1742
  173DG      H5 3961   1.666   1.548   2.714  0.4518  0.5606  0.9715
  173DG      H6 3962   2.393   1.624   2.197  0.5001  0.5038 -0.0157
  173DG      H7 3963   2.356   1.790   2.242  2.0020 -0.3902 -0.2629
  173DG      H8 3964   2.319   1.663   2.357  2.4186 -2.1798 -0.3834
  173DG      O9 3965   1.798   1.636   2.576  0.0507  0.4935 -0.5348
  173DG     O10 3966   2.197   1.675   2.187 -0.0142 -0.4654  0.3210
  173DG     C11 3967   1.820   1.744   2.494 -0.3592  0.0599 -0.4910
  173DG     C12 3968   2.136   1.550   2.197 -0.1129 -0.4423  1.2676
  173DG     H13 3969   1.895   1.809   2.539 -0.2122 -1.6330  1.8519
  173DG     H14 3970   1.728   1.802   2.502  0.8496  1.8480  1.6162
  173DG     H15 3971   2.173   1.502   2.287  0.1953 -0.7320  0.9888
  173DG     H16 3972   2.160   1.492   2.107 -0.9332  1.0915  0.0095
  173DG     C17 3973   1.852   1.706   2.346  0.3003  0.7100 -0.3393
  173DG     C18 3974   1.987   1.566   2.204  0.0276  0.0530 -1.0764
  173DG     O19 3975   1.964   1.628   2.333  0.0349  0.1350 -0.3936
  173DG     H20 3976   1.871   1.803   2.300  1.1413  1.1397  0.8438
  173DG     H21 3977   1.774   1.648   2.297  0.7214  0.0203 -0.2084
  173DG     H22 3978   1.947   1.633   2.128  1.2722 -0.6574 -2.4165
  173DG     H23 3979   1.941   1.468   2.212  1.2582 -0.3953  1.9854
  174DG      C1 3980   3.374   5.269   4.639 -0.0079 -0.0636 -0.0783
  174DG      C2 3981   3.717   4.799   5.263  0.5964  0.3910 -0.2436
  174DG      H3 3982   3.335   5.337   4.715  0.0742 -1.1177  0.9250
  174DG      H4 3983   3.302   5.189   4.623 -1.0638  0.4591  1.8214
  174DG      H5 3984   3.380   5.314   4.540 -1.4381 -1.2536 -0.7433
  174DG      H6 3985   3.755   4.858   5.346  1.5772 -0.8676  0.2372
  174DG      H7 3986   3.612   4.775   5.281 -0.4732  0.9572 -4.4864
  174DG      H8 3987   3.784   4.713   5.258  0.8402  0.1515  3.7471
  174DG      O9 3988   3.501   5.218   4.667 -0.0880 -0.4137  0.0285
  174DG     O10 3989   3.713   4.870   5.140 -0.2283 -0.3784  0.4529
  174DG     C11 3990   3.502   5.138   4.784  0.2651 -0.0027 -0.1178
  174DG     C12 3991   3.692   4.788   5.030  0.3535  0.7158 -0.2505
  174DG     H13 3992   3.417   5.071   4.793 -0.1850  0.6937  1.2099
  174DG     H14 3993   3.497   5.200   4.874 -2.0185 -0.2594 -0.0103
  174DG     H15 3994   3.588   4.757   5.027  0.9071 -1.3967 -3.8055
  174DG     H16 3995   3.751   4.696   5.038 -2.5468 -1.1949  0.7425
  174DG     C17 3996   3.628   5.047   4.792 -0.0527 -0.0628  0.2081
  174DG     C18 3997   3.722   4.872   4.908 -0.6363 -0.6166  0.0682
  174DG     O19 3998   3.617   4.966   4.909  0.9471 -0.1961  0.3221
  174DG     H20 3999   3.707   5.120   4.812 -0.6912  0.7789 -0.2538
  174DG     H21 4000   3.629   4.991   4.699  0.4435  2.3450 -1.3261
  174DG     H22 4001   3.820   4.919   4.917 -0.3282 -1.5029  1.7591
  174DG     H23 4002   3.725   4.808   4.820  0.2462 -0.2223 -0.1929
  175DG      C1 4003   4.276   0.458   1.544  0.7795  1.1397  0.2354
  175DG      C2 4004   4.787   0.711   0.971  0.5360 -0.2918  0.0435
  175DG      H3 4005   4.186   0.490   1.597  0.3910 -0.3069  0.4830
  175DG      H4 4006   4.320   0.382   1.608 -2.2573 -0.4840  0.5990
  175DG      H5 4007   4.260   0.397   1.455 -0.4881 -0.4785  1.5211
  175DG      H6 4008   4.763   0.604   0.970  1.6334 -0.6085 -2.9142
  175DG      H7 4009   4.787   0.739   0.865  0.1422 -1.7606 -0.3747
  175DG      H8 4010   4.891   0.726   1.000  0.6812 -0.9302 -0.1248
  175DG      O9 4011   4.373   0.557   1.515  0.3779  0.3289  0.5924
  175DG     O10 4012   4.695   0.801   1.032  0.2483  0.8908  0.0273
  175DG     C11 4013   4.320   0.674   1.447  0.0618 -0.2336 -0.0343
  175DG     C12 4014   4.692   0.784   1.171  0.2313 -0.8114  0.3197
  175DG     H13 4015   4.227   0.704   1.495 -0.3398 -1.2002 -0.1766
  175DG     H14 4016   4.288   0.648   1.346  0.8515 -0.2172 -0.2968
  175DG     H15 4017   4.752   0.858   1.224 -0.3063 -0.1570  0.0430
  175DG     H16 4018   4.717   0.684   1.207 -1.9201 -0.7694  2.2059
  175DG     C17 4019   4.432   0.792   1.443  0.6721 -0.0622  0.7629
  175DG     C18 4020   4.551   0.808   1.222  0.1025  0.3197  0.4809
  175DG     O19 4021   4.553   0.777   1.364 -0.2328 -0.1392 -0.1179
  175DG     H20 4022   4.461   0.813   1.546 -1.9694  1.4954  1.2867
  175DG     H21 4023   4.390   0.885   1.405 -0.9773 -1.5215 -1.2597
  175DG     H22 4024   4.536   0.914   1.207  0.6769  0.6978  2.2634
  175DG     H23 4025   4.488   0.744   1.160 -0.0460  0.7221  0.2146
  176DG      C1 4026   3.470   4.537   4.385 -0.5963 -0.5172  0.3695
  176DG      C2 4027   3.899   5.070   4.310 -0.0243 -0.4309  0.3771
  176DG      H3 4028   3.561   4.496   4.341 -0.1095  0.1404  0.7523
  176DG      H4 4029   3.385   4.471   4.368  0.1507 -1.6374  0.8129
  176DG      H5 4030   3.479   4.537   4.493  0.5164 -0.9702  0.2928
  176DG      H6 4031   3.954   5.023   4.228  0.8755 -0.8114  1.1861
  176DG      H7 4032   3.914   5.177   4.305 -1.2329 -0.1031  2.5249
  176DG      H8 4033   3.939   5.032   4.404  0.1793  1.9502  1.2964
  176DG      O9 4034   3.482   4.672   4.336 -0.1703  0.6593 -0.1874
  176DG     O10 4035   3.762   5.031   4.295 -0.3204 -0.2348  0.3491
  176DG     C11 4036   3.359   4.748   4.336  0.1278  0.4104 -0.0167
  176DG     C12 4037   3.671   5.107   4.374 -0.3563  0.6656 -0.2009
  176DG     H13 4038   3.317   4.755   4.437  0.8044 -0.4818  0.3477
  176DG     H14 4039   3.293   4.701   4.264  2.1252 -0.2956 -1.4760
  176DG     H15 4040   3.690   5.210   4.344 -0.5522  0.8169  0.1936
  176DG     H16 4041   3.699   5.090   4.478  3.0401 -0.3242 -1.1325
  176DG     C17 4042   3.387   4.894   4.287 -0.3455  0.3487  0.0496
  176DG     C18 4043   3.528   5.070   4.335 -1.2691  0.2961 -0.0557
  176DG     O19 4044   3.505   4.930   4.349 -0.1967  0.0120  0.2478
  176DG     H20 4045   3.304   4.958   4.319  0.3447  0.1586  2.4325
  176DG     H21 4046   3.392   4.911   4.180 -1.9831  2.8695  0.2785
  176DG     H22 4047   3.453   5.118   4.398 -1.2006 -0.0079  0.2579
  176DG     H23 4048   3.516   5.102   4.231 -2.9630  1.2099  0.3684
  177DG      C1 4049   1.958   1.964   0.115 -0.0335  0.3207 -0.1406
  177DG      C2 4050   2.175   1.355   0.550  0.1414 -0.0895  0.1801
  177DG      H3 4051   2.044   1.929   0.058 -0.1750 -1.5246  0.6997
  177DG      H4 4052   1.957   2.073   0.119  0.2712  0.2995  0.5772
  177DG      H5 4053   1.865   1.935   0.066  0.8862  0.9734 -2.3810
  177DG      H6 4054   2.203   1.333   0.653  1.0667  0.3868  0.0453
  177DG      H7 4055   2.118   1.277   0.499 -1.7564  1.7070 -0.5897
  177DG      H8 4056   2.272   1.347   0.501  1.5246  0.6118  2.6662
  177DG      O9 4057   1.949   1.902   0.242  0.0273 -0.4412  0.4459
  177DG     O10 4058   2.119   1.486   0.545  0.2507 -0.0040  0.0062
  177DG     C11 4059   1.883   1.771   0.248 -0.1932 -0.4128  0.4600
  177DG     C12 4060   1.982   1.489   0.575 -0.1153  0.3151  0.1102
  177DG     H13 4061   1.949   1.695   0.208  0.8705  0.2724  0.8904
  177DG     H14 4062   1.793   1.772   0.187 -1.0304  0.8876  1.6413
  177DG     H15 4063   1.979   1.437   0.671 -2.2132  0.8362  0.3737
  177DG     H16 4064   1.917   1.430   0.511 -0.8757 -1.8304  2.6772
  177DG     C17 4065   1.838   1.726   0.387 -0.6751 -0.1494  0.6476
  177DG     C18 4066   1.931   1.630   0.593 -0.3019  0.2097 -0.2902
  177DG     O19 4067   1.952   1.712   0.477 -0.1489 -0.0909  0.5831
  177DG     H20 4068   1.792   1.627   0.384 -1.5290  0.2549 -0.0836
  177DG     H21 4069   1.761   1.791   0.429 -1.9742 -0.0423 -1.7649
  177DG     H22 4070   1.826   1.626   0.619 -0.3200 -0.0450 -0.3959
  177DG     H23 4071   1.975   1.684   0.677 -0.9826 -0.9606  0.8508
  178DG      C1 4072   3.580   1.180   3.821 -0.1320  0.2645 -0.8414
  178DG      C2 4073   2.873   1.091   3.985 -0.1198  0.4183 -0.4422
  178DG      H3 4074   3.585   1.241   3.912 -0.2617 -0.4704 -0.3326
  178DG      H4 4075   3.665   1.214   3.763  1.4280  2.2992  2.3325
  178DG      H5 4076   3.600   1.082   3.864  1.6805  1.3035  0.8848
  178DG      H6 4077   2.877   1.093   4.094 -0.4847  3.7275 -0.3933
  178DG      H7 4078   2.768   1.117   3.979  0.0464  1.1361 -0.3342
  178DG      H8 4079   2.894   0.998   3.933  0.2333 -0.2348  0.8261
  178DG      O9 4080   3.452   1.202   3.760 -0.3493 -0.1201 -0.3604
  178DG     O10 4081   2.965   1.188   3.939  0.2683  0.1055 -0.4052
  178DG     C11 4082   3.414   1.335   3.739  0.5448  0.1381 -0.3930
  178DG     C12 4083   2.948   1.223   3.803  0.3484  0.3806 -0.1821
  178DG     H13 4084   3.484   1.380   3.669 -1.0421  1.0055 -1.4990
  178DG     H14 4085   3.426   1.395   3.830 -0.3845  0.1776 -0.2881
  178DG     H15 4086   2.845   1.251   3.786 -0.9030 -3.0271  0.8781
  178DG     H16 4087   2.960   1.129   3.748 -0.2321  1.0884 -1.5631
  178DG     C17 4088   3.271   1.337   3.676 -0.8514  0.0820 -0.5268
  178DG     C18 4089   3.049   1.317   3.754 -0.4247  0.5026 -0.5074
  178DG     O19 4090   3.184   1.277   3.772  0.1275  0.4566 -0.1112
  178DG     H20 4091   3.264   1.276   3.586  0.4926 -2.1300  0.7685
  178DG     H21 4092   3.259   1.442   3.650 -0.2069  0.1006 -0.7898
  178DG     H22 4093   3.025   1.318   3.647 -1.5377  0.7996 -0.2656
  178DG     H23 4094   3.040   1.418   3.793  0.9489  0.1773  0.7522
  179DG      C1 4095   2.880   4.451   2.120 -0.2791  0.6635 -0.3137
  179DG      C2 4096   3.607   4.135   2.151  0.5121 -0.0515 -0.1925
  179DG      H3 4097   2.906   4.536   2.183  1.5072  0.6085 -0.9304
  179DG      H4 4098   2.776   4.421   2.135 -0.0372 -0.5502 -0.9689
  179DG      H5 4099   2.890   4.471   2.013  1.3190 -0.1067 -0.3339
  179DG      H6 4100   3.643   4.111   2.051 -1.6037  0.3517 -1.1194
  179DG      H7 4101   3.634   4.236   2.179  0.5388  0.0447 -0.5619
  179DG      H8 4102   3.660   4.065   2.217 -0.0352 -0.3704 -0.0767
  179DG      O9 4103   2.972   4.345   2.162 -0.7127 -0.0421  0.7009
  179DG     O10 4104   3.467   4.131   2.180  0.2383 -0.0834  0.1513
  179DG     C11 4105   2.958   4.215   2.105 -0.3025 -0.4609 -0.1358
  179DG     C12 4106   3.410   4.006   2.164 -0.5045 -0.4108  0.1155
  179DG     H13 4107   2.981   4.222   1.999 -0.4500 -0.7937 -0.1916
  179DG     H14 4108   2.857   4.180   2.129  0.3923 -2.0722  0.5628
  179DG     H15 4109   3.468   3.929   2.215  3.6335  1.7757 -0.9412
  179DG     H16 4110   3.405   3.970   2.061  0.2692 -1.6856  0.5067
  179DG     C17 4111   3.044   4.108   2.182  0.5040 -0.4752 -0.5348
  179DG     C18 4112   3.260   4.023   2.214 -0.4603  0.7106 -0.4520
  179DG     O19 4113   3.179   4.110   2.142  0.2421  0.1451  0.3098
  179DG     H20 4114   3.006   4.007   2.166  0.3108 -1.0282  2.6809
  179DG     H21 4115   3.032   4.114   2.291 -2.8658 -1.9963 -0.6830
  179DG     H22 4116   3.209   3.926   2.215 -0.2893  0.6131  1.6874
  179DG     H23 4117   3.268   4.055   2.317 -2.1243 -2.3116  0.7440
  180DG      C1 4118   0.966   2.054   4.164  0.6015 -0.0300  0.5335
  180DG      C2 4119   1.608   1.917   4.604  0.6493 -0.5219  0.4086
  180DG      H3 4120   0.924   2.054   4.063 -0.2536  0.5571  0.8774
  180DG      H4 4121   1.029   2.142   4.172 -0.4473  0.6313  1.9452
  180DG      H5 4122   0.883   2.052   4.235  0.2447 -0.2242  0.1163
  180DG      H6 4123   1.577   1.977   4.689 -0.0134 -2.3923  1.5377
  180DG      H7 4124   1.684   1.849   4.644  1.0697  1.0831  2.5198
  180DG      H8 4125   1.661   1.979   4.532  0.3702  0.0176  0.6623
  180DG      O9 4126   1.031   1.936   4.177 -1.2351  0.0392 -0.3709
  180DG     O10 4127   1.499   1.845   4.548 -0.2223  0.1053  0.2408
  180DG     C11 4128   1.115   1.937   4.293  0.3871 -0.4656  0.1657
  180DG     C12 4129   1.533   1.755   4.448  0.7995 -0.0334  0.3347
  180DG     H13 4130   1.059   1.953   4.385 -2.6276  0.5885 -1.7137
  180DG     H14 4131   1.177   2.026   4.303  0.4731 -0.3842 -0.9419
  180DG     H15 4132   1.583   1.666   4.487  1.7567  0.7013  0.8429
  180DG     H16 4133   1.603   1.803   4.380  0.1891 -0.3035 -0.5008
  180DG     C17 4134   1.197   1.806   4.304 -0.2436 -0.0546  0.3043
  180DG     C18 4135   1.401   1.722   4.390  0.4069  0.2549  0.5688
  180DG     O19 4136   1.325   1.836   4.359  0.3867 -0.1789 -0.4706
  180DG     H20 4137   1.219   1.772   4.203  0.6103  2.7374 -0.5584
  180DG     H21 4138   1.141   1.739   4.369 -0.5661  1.0594  1.2323
  180DG     H22 4139   1.410   1.671   4.294  2.8291  3.3693 -1.0246
  180DG     H23 4140   1.345   1.655   4.455 -0.9221  2.2962  1.6337
  181DG      C1 4141   0.895   1.951   0.655 -0.3075  0.5901 -0.4595
  181DG      C2 4142   0.795   1.386   0.911  0.3389  0.1516  0.3724
  181DG      H3 4143   0.840   1.905   0.573  1.9130 -0.4483 -1.4604
  181DG      H4 4144   0.947   2.036   0.611 -2.0979  1.0481 -1.8436
  181DG      H5 4145   0.829   1.986   0.734  1.9311  1.4068  1.1325
  181DG      H6 4146   0.742   1.405   1.004 -0.4932  1.2308 -0.2952
  181DG      H7 4147   0.712   1.373   0.841  0.2943  1.4744  0.1539
  181DG      H8 4148   0.859   1.298   0.916 -0.5481 -0.7314 -1.9695
  181DG      O9 4149   0.984   1.853   0.699 -0.5212 -0.1194  0.0272
  181DG     O10 4150   0.870   1.507   0.881 -0.2266 -0.2436  0.9653
  181DG     C11 4151   1.077   1.911   0.788  1.1966  0.3046 -0.3675
  181DG     C12 4152   0.977   1.523   0.971  0.0890  1.1450  0.5623
  181DG     H13 4153   1.103   2.015   0.769 -2.7707  1.3798 -0.6786
  181DG     H14 4154   1.176   1.864   0.784  0.9576 -0.1548 -0.9202
  181DG     H15 4155   1.049   1.442   0.953  0.0107  0.8710  1.4350
  181DG     H16 4156   0.935   1.521   1.071 -0.7356  0.7656  0.2233
  181DG     C17 4157   1.016   1.896   0.932 -0.1103  0.3308 -0.3833
  181DG     C18 4158   1.044   1.653   0.937 -0.8743 -0.3413 -0.5454
  181DG     O19 4159   0.958   1.768   0.964  0.2900 -0.1678  0.0105
  181DG     H20 4160   0.929   1.962   0.939 -0.3798 -0.2214  2.8283
  181DG     H21 4161   1.080   1.927   1.014  0.9085 -2.0702 -0.2009
  181DG     H22 4162   1.125   1.661   1.009  0.1982  0.7656 -1.8233
  181DG     H23 4163   1.100   1.645   0.843  0.8705 -2.5005  0.5795
  182DG      C1 4164   5.194   4.114   5.167 -0.2304  0.2102 -1.1642
  182DG      C2 4165   5.818   3.903   4.957  0.0851  0.1161  0.1956
  182DG      H3 4166   5.170   4.052   5.081 -0.8558  2.3448 -2.6354
  182DG      H4 4167   5.185   4.217   5.131  0.6929  0.8388  0.2881
  182DG      H5 4168   5.110   4.102   5.235  0.6450 -0.0515 -0.1027
  182DG      H6 4169   5.907   3.843   4.975 -0.3366 -0.4398  0.4584
  182DG      H7 4170   5.779   3.883   4.858 -0.5241  0.6424  0.3232
  182DG      H8 4171   5.855   4.006   4.965 -0.2556  0.2629 -0.1054
  182DG      O9 4172   5.323   4.095   5.230  0.5033 -0.1979 -0.4138
  182DG     O10 4173   5.726   3.867   5.056  0.0179 -0.5504 -0.1279
  182DG     C11 4174   5.337   3.974   5.300 -0.3640 -0.1464  0.0373
  182DG     C12 4175   5.787   3.881   5.184  0.3196  0.5358 -0.1597
  182DG     H13 4176   5.333   3.896   5.225  1.7722 -0.3776  0.0999
  182DG     H14 4177   5.266   3.957   5.381  0.8458  0.4778  1.2772
  182DG     H15 4178   5.818   3.984   5.205 -1.5361  1.4776 -1.7011
  182DG     H16 4179   5.877   3.820   5.193 -0.0640  0.0399  0.3666
  182DG     C17 4180   5.471   3.955   5.361  0.5350 -0.3257 -0.6896
  182DG     C18 4181   5.670   3.850   5.284 -0.2427 -0.2463 -0.4129
  182DG     O19 4182   5.564   3.935   5.255  0.2816  0.3132 -0.3354
  182DG     H20 4183   5.470   3.871   5.430  1.1170 -0.4100 -0.7778
  182DG     H21 4184   5.506   4.040   5.420  0.4862 -0.8410  0.0955
  182DG     H22 4185   5.650   3.743   5.279  1.2831 -0.9647  3.8772
  182DG     H23 4186   5.706   3.884   5.381 -1.5786  0.4256 -0.1293
  183DG      C1 4187   3.853   1.274   4.581  0.0278 -0.1495 -0.1646
  183DG      C2 4188   3.837   1.048   5.187  0.5696 -0.1429  0.6118
  183DG      H3 4189   3.765   1.212   4.563 -2.0506  2.1768  1.2405
  183DG      H4 4190   3.946   1.222   4.561  0.2786  0.7662 -1.5788
  183DG      H5 4191   3.848   1.354   4.507  0.6813  0.5210  0.4987
  183DG      H6 4192   3.830   1.028   5.294  1.0568  0.5024  0.7710
  183DG      H7 4193   3.763   0.990   5.133  0.8413 -1.5319  1.6837
  183DG      H8 4194   3.937   1.028   5.149  0.5960  2.8673 -1.2163
  183DG      O9 4195   3.863   1.330   4.711 -0.2745  0.7814 -0.7220
  183DG     O10 4196   3.830   1.185   5.153 -0.4798 -0.3060  0.5095
  183DG     C11 4197   3.760   1.419   4.744 -0.1024 -0.1793  0.2038
  183DG     C12 4198   3.707   1.251   5.173 -0.1007 -0.6399  0.1331
  183DG     H13 4199   3.668   1.362   4.728 -0.0352  0.2074 -1.7729
  183DG     H14 4200   3.759   1.504   4.677  0.4809 -0.9536 -0.8257
  183DG     H15 4201   3.697   1.275   5.279  0.9097 -1.0645  0.3331
  183DG     H16 4202   3.620   1.189   5.150 -0.7241  0.2530  0.0177
  183DG     C17 4203   3.755   1.459   4.889  0.6365 -0.6339 -0.0194
  183DG     C18 4204   3.713   1.376   5.097 -0.3894 -0.0373 -0.4530
  183DG     O19 4205   3.734   1.341   4.959  0.0224 -0.2024  0.7428
  183DG     H20 4206   3.671   1.529   4.890  0.7795 -0.4253 -0.9837
  183DG     H21 4207   3.847   1.510   4.917  0.2381  0.0285  0.1137
  183DG     H22 4208   3.616   1.424   5.112  0.3841  2.3187 -2.3685
  183DG     H23 4209   3.797   1.433   5.136 -0.5970  1.0609 -1.5643
  184DG      C1 4210   5.110   5.012   1.308 -0.0011 -0.1279 -0.2979
  184DG      C2 4211   5.476   4.806   1.868  0.1703  0.0171  0.2976
  184DG      H3 4212   5.110   5.098   1.240  0.1740 -0.4245 -0.6716
  184DG      H4 4213   5.040   5.033   1.390 -2.0236  0.8943 -2.1720
  184DG      H5 4214   5.067   4.925   1.260  4.5677 -1.8940 -1.6835
  184DG      H6 4215   5.562   4.745   1.895 -0.5765 -1.0067  0.4290
  184DG      H7 4216   5.468   4.898   1.927 -0.7747  1.8072 -2.4244
  184DG      H8 4217   5.387   4.746   1.888  1.8623 -3.5910 -2.0519
  184DG      O9 4218   5.235   4.989   1.371 -0.0593 -0.5469 -0.6118
  184DG     O10 4219   5.479   4.830   1.725 -0.5632  0.6546  0.4294
  184DG     C11 4220   5.333   4.942   1.280 -0.0719  0.3724  0.0666
  184DG     C12 4221   5.557   4.941   1.696  0.4157 -0.2798  0.0421
  184DG     H13 4222   5.331   4.991   1.182 -0.1552  0.4789  0.1208
  184DG     H14 4223   5.312   4.838   1.256  2.8614 -0.3608  0.3555
  184DG     H15 4224   5.644   4.960   1.758  0.2616  1.6448 -0.2545
  184DG     H16 4225   5.496   5.029   1.719  0.4644  0.0444 -1.0076
  184DG     C17 4226   5.479   4.957   1.345  0.7415 -0.6729  0.1979
  184DG     C18 4227   5.598   4.944   1.550  0.4351  0.6960 -0.0852
  184DG     O19 4228   5.477   4.918   1.483 -0.0802 -0.2172  0.3372
  184DG     H20 4229   5.514   5.061   1.343 -0.0137 -0.4204 -0.3271
  184DG     H21 4230   5.550   4.893   1.292  0.9306 -0.7588  0.5478
  184DG     H22 4231   5.653   5.033   1.519  1.3269 -0.2518 -1.3458
  184DG     H23 4232   5.670   4.864   1.535  0.5694  0.6589  0.7340
  185DG      C1 4233   3.757   1.538   3.899 -0.3479 -0.4162 -0.1057
  185DG      C2 4234   3.556   1.301   4.349 -0.1740  0.1017 -0.6004
  185DG      H3 4235   3.818   1.448   3.898  2.6755  1.3487  2.7837
  185DG      H4 4236   3.840   1.607   3.879  1.3657 -2.2881  0.2525
  185DG      H5 4237   3.670   1.539   3.833 -0.2337 -0.1872 -0.2575
  185DG      H6 4238   3.569   1.194   4.367 -1.5223 -0.4132 -2.4342
  185DG      H7 4239   3.476   1.318   4.277  1.5812  0.2381 -2.5975
  185DG      H8 4240   3.646   1.352   4.316  1.0660 -1.5695  0.0122
  185DG      O9 4241   3.710   1.546   4.029 -0.1396 -0.4492 -0.2249
  185DG     O10 4242   3.520   1.356   4.475  1.2224  0.0449 -0.0212
  185DG     C11 4243   3.673   1.677   4.063  0.2339 -0.1590 -0.1279
  185DG     C12 4244   3.470   1.493   4.470  0.6834 -0.6740 -0.1375
  185DG     H13 4245   3.585   1.697   4.001 -0.4521  0.1083  0.9115
  185DG     H14 4246   3.746   1.750   4.029  0.4467 -0.9238 -1.3942
  185DG     H15 4247   3.459   1.515   4.576  0.6185 -0.2637 -0.2238
  185DG     H16 4248   3.371   1.497   4.425  0.8698 -0.1676 -0.5169
  185DG     C17 4249   3.643   1.708   4.210  0.3443 -0.3987 -0.3096
  185DG     C18 4250   3.561   1.612   4.419  0.0461 -0.1932  0.2361
  185DG     O19 4251   3.582   1.594   4.274 -0.1749 -0.3725  0.4048
  185DG     H20 4252   3.596   1.803   4.235  1.2799  0.3607 -1.3236
  185DG     H21 4253   3.737   1.717   4.264  0.1261  0.2203 -0.0249
  185DG     H22 4254   3.515   1.708   4.441  0.7220  0.4642 -1.1171
  185DG     H23 4255   3.659   1.612   4.468  1.2612  2.6440 -1.9295
  186DG      C1 4256   2.695   2.851   4.554  0.2627 -0.5737  0.1023
  186DG      C2 4257   3.222   2.436   4.863 -0.1135 -0.4441 -0.2994
  186DG      H3 4258   2.756   2.810   4.473  0.0301  0.2522 -0.5072
  186DG      H4 4259   2.706   2.959   4.540  1.9167 -0.3644  2.4720
  186DG      H5 4260   2.588   2.832   4.546 -0.7704  3.4392  1.8356
  186DG      H6 4261   3.241   2.363   4.941 -1.2943 -0.0350  0.3937
  186DG      H7 4262   3.153   2.393   4.789 -0.3449 -1.0906  0.2826
  186DG      H8 4263   3.317   2.460   4.815 -0.2191 -0.4258 -0.4997
  186DG      O9 4264   2.746   2.801   4.674  0.2424  0.2368  0.0270
  186DG     O10 4265   3.180   2.561   4.917 -0.1107  0.3980  0.1752
  186DG     C11 4266   2.818   2.896   4.747  0.4492  0.4523 -0.0863
  186DG     C12 4267   3.053   2.547   4.979  0.2339 -0.0800 -0.6200
  186DG     H13 4268   2.764   2.990   4.750 -1.7401 -0.7246 -0.7232
  186DG     H14 4269   2.907   2.926   4.691  1.7177  0.1374  1.6802
  186DG     H15 4270   3.064   2.502   5.078 -1.5882  1.0900  0.1776
  186DG     H16 4271   2.981   2.476   4.939 -0.9793  1.2139 -0.7960
  186DG     C17 4272   2.851   2.852   4.888 -0.2472  0.2711 -0.4774
  186DG     C18 4273   2.975   2.678   4.999  0.5459 -0.4014  0.2089
  186DG     O19 4274   2.939   2.738   4.874 -0.0271 -0.1476  0.0494
  186DG     H20 4275   2.755   2.841   4.941 -1.2997 -0.1999 -2.3947
  186DG     H21 4276   2.908   2.929   4.939 -0.5747  1.0482 -1.2624
  186DG     H22 4277   2.888   2.667   5.064 -0.6701  2.2343 -0.8058
  186DG     H23 4278   3.038   2.754   5.047  0.3380  0.3314 -0.6483
  187DG      C1 4279   4.124   1.689   4.555 -0.1328  0.3928  0.3209
  187DG      C2 4280   4.404   1.739   3.957 -0.1403  0.2286 -0.4850
  187DG      H3 4281   4.129   1.594   4.503  0.8350  0.6263 -0.0451
  187DG      H4 4282   4.020   1.705   4.581 -0.3306 -0.8583  0.3527
  187DG      H5 4283   4.194   1.697   4.639 -1.9217 -1.4592  2.0772
  187DG      H6 4284   4.386   1.797   3.866  2.4223  0.1134 -1.1363
  187DG      H7 4285   4.511   1.716   3.965 -0.0597  0.9521  0.8526
  187DG      H8 4286   4.350   1.645   3.952  0.4372 -0.0971 -0.7300
  187DG      O9 4287   4.168   1.784   4.459 -0.0121 -0.1773 -0.3116
  187DG     O10 4288   4.365   1.807   4.071 -0.3877  0.0061 -0.1482
  187DG     C11 4289   4.203   1.912   4.509 -0.6170 -0.3304  0.5251
  187DG     C12 4290   4.423   1.935   4.097  0.0739  0.4688  0.4513
  187DG     H13 4291   4.289   1.915   4.576 -1.9853  0.7666  2.3178
  187DG     H14 4292   4.128   1.953   4.577 -0.2982 -0.1424  0.7619
  187DG     H15 4293   4.433   1.993   4.006 -1.7731  1.2103  0.6885
  187DG     H16 4294   4.528   1.922   4.122  0.2039  0.4986 -0.0654
  187DG     C17 4295   4.229   2.013   4.403 -0.4148 -0.1713 -0.2205
  187DG     C18 4296   4.339   2.017   4.195  0.2464  0.2389  0.1007
  187DG     O19 4297   4.304   1.940   4.309 -0.0790  0.0391 -0.2942
  187DG     H20 4298   4.300   2.092   4.428 -0.1527 -0.4294 -0.1414
  187DG     H21 4299   4.145   2.064   4.356 -0.2193  1.5182  1.1707
  187DG     H22 4300   4.390   2.112   4.212 -3.0639  1.8955  1.7292
  187DG     H23 4301   4.249   2.045   4.140  0.2105 -1.3753 -0.7081
  188DG      C1 4302   4.477   4.067   1.204 -0.0240  0.1710  0.3600
  188DG      C2 4303   4.913   3.535   1.686  0.1776 -0.4779  0.3043
  188DG      H3 4304   4.459   4.006   1.115  0.1378 -0.4010  0.7085
  188DG      H4 4305   4.442   4.170   1.199 -2.2219 -0.4355  1.6429
  188DG      H5 4306   4.417   4.014   1.279 -0.9858  0.6730 -0.0437
  188DG      H6 4307   5.001   3.555   1.747 -1.0889  0.8867  1.7658
  188DG      H7 4308   4.830   3.506   1.750  0.2046 -0.2820  0.4298
  188DG      H8 4309   4.918   3.458   1.608 -0.8528  0.9761 -1.2833
  188DG      O9 4310   4.612   4.070   1.260 -0.3908 -0.2351 -0.7089
  188DG     O10 4311   4.884   3.656   1.620  0.6423  0.0693 -0.0701
  188DG     C11 4312   4.661   3.939   1.298  0.1126  0.1136  0.1626
  188DG     C12 4313   4.991   3.692   1.537  0.3860  0.3231 -0.5159
  188DG     H13 4314   4.694   3.881   1.211  0.5170 -2.1567  1.7403
  188DG     H14 4315   4.588   3.876   1.348  1.1572 -1.0091  0.3097
  188DG     H15 4316   5.012   3.622   1.455  2.0353  1.4639 -1.1314
  188DG     H16 4317   5.088   3.694   1.586  0.2480 -3.2440  0.2005
  188DG     C17 4318   4.782   3.956   1.398  0.3660  0.1020  0.3052
  188DG     C18 4319   4.966   3.830   1.480  0.0967 -0.0171 -0.4887
  188DG     O19 4320   4.836   3.832   1.423 -0.3209  0.4491  0.2718
  188DG     H20 4321   4.737   3.987   1.492  0.9914  0.3315  0.5317
  188DG     H21 4322   4.847   4.038   1.367 -2.6261  2.7587  0.5255
  188DG     H22 4323   4.969   3.908   1.556 -2.2297  0.1256 -0.4572
  188DG     H23 4324   5.042   3.832   1.402  1.5077 -1.0815  0.7922
  189DG      C1 4325   3.706   1.541   0.413  0.0799  0.4640  0.4251
  189DG      C2 4326   3.836   2.264   0.260 -0.6692 -0.3185 -0.4346
  189DG      H3 4327   3.809   1.508   0.404 -0.1646 -0.1151 -0.4316
  189DG      H4 4328   3.646   1.495   0.334 -1.6631  1.6924  0.9823
  189DG      H5 4329   3.672   1.510   0.512 -0.0058  1.3665  0.6867
  189DG      H6 4330   3.836   2.222   0.160 -1.6947 -1.8691  0.1915
  189DG      H7 4331   3.773   2.353   0.265 -1.5331 -0.8869 -1.0946
  189DG      H8 4332   3.937   2.290   0.292 -0.7387  0.2689 -0.6799
  189DG      O9 4333   3.679   1.682   0.410 -0.3938 -0.0570  0.0953
  189DG     O10 4334   3.795   2.170   0.366 -0.4574 -1.0910 -0.1315
  189DG     C11 4335   3.539   1.712   0.427 -0.2331  0.6291 -0.3671
  189DG     C12 4336   3.655   2.189   0.390 -0.7282 -0.0943 -0.1752
  189DG     H13 4337   3.502   1.642   0.502 -0.4495  0.1277 -0.9389
  189DG     H14 4338   3.475   1.687   0.342 -0.3047  0.6376 -0.3162
  189DG     H15 4339   3.597   2.191   0.297 -0.1701 -0.2151 -0.5278
  189DG     H16 4340   3.646   2.271   0.460  0.6879 -0.3622  0.3515
  189DG     C17 4341   3.516   1.855   0.484  0.1243  0.0115  0.0836
  189DG     C18 4342   3.613   2.079   0.481  0.1302  0.2553 -0.2655
  189DG     O19 4343   3.592   1.959   0.406  0.4915 -0.4409 -0.6934
  189DG     H20 4344   3.549   1.850   0.587 -1.5991 -3.0184  0.5941
  189DG     H21 4345   3.409   1.875   0.487  0.0809  0.2150 -1.7032
  189DG     H22 4346   3.663   2.057   0.576 -0.6281 -0.4938 -0.0281
  189DG     H23 4347   3.514   2.105   0.519 -0.1179 -0.9925 -0.0035
  190DG      C1 4348   1.492   2.858   4.312 -0.3335  0.1943 -0.4054
  190DG      C2 4349   1.364   2.667   3.675 -0.3584  0.3132 -0.5993
  190DG      H3 4350   1.558   2.943   4.293 -1.2235  0.8552 -0.6498
  190DG      H4 4351   1.504   2.843   4.419  0.0557  0.8953 -0.3421
  190DG      H5 4352   1.389   2.880   4.285 -1.0527 -2.7140 -0.3150
  190DG      H6 4353   1.259   2.694   3.675 -0.3889  0.2113 -1.0488
  190DG      H7 4354   1.413   2.760   3.644  1.6218 -1.1549 -2.1251
  190DG      H8 4355   1.377   2.592   3.597  1.3628  0.0019 -0.0466
  190DG      O9 4356   1.539   2.745   4.230  0.5079 -0.3679  0.1317
  190DG     O10 4357   1.414   2.626   3.798 -0.6596 -1.1918 -0.0359
  190DG     C11 4358   1.489   2.612   4.268  0.8722 -0.6482 -0.9474
  190DG     C12 4359   1.556   2.605   3.802  0.0628 -0.3928  0.1836
  190DG     H13 4360   1.381   2.620   4.281  1.1265 -0.7439  1.9435
  190DG     H14 4361   1.517   2.596   4.372 -1.6312  1.0729  0.0934
  190DG     H15 4362   1.611   2.699   3.798  0.6306 -0.7548 -2.3853
  190DG     H16 4363   1.596   2.549   3.718  4.3213  2.0903  0.2589
  190DG     C17 4364   1.540   2.527   4.159 -0.2770  0.5758 -0.8955
  190DG     C18 4365   1.599   2.526   3.930  0.6093  0.0015 -0.2550
  190DG     O19 4366   1.514   2.579   4.030 -0.1125  0.2334 -0.3785
  190DG     H20 4367   1.501   2.426   4.170  0.9420  0.2176  0.4967
  190DG     H21 4368   1.646   2.521   4.180 -0.6699 -2.6014  0.7970
  190DG     H22 4369   1.573   2.421   3.919  1.7369 -0.4370  1.0594
  190DG     H23 4370   1.702   2.558   3.945 -0.1562  2.2755  0.6644
  191DG      C1 4371   5.488   2.631   0.382  0.1331  0.7273 -0.5148
  191DG      C2 4372   5.907   2.032   0.525  0.2227 -0.5332 -0.4075
  191DG      H3 4373   5.569   2.686   0.430  0.2081 -0.1673  0.4025
  191DG      H4 4374   5.399   2.665   0.435  1.5815  2.2188  1.0938
  191DG      H5 4375   5.475   2.651   0.275  2.0940 -0.3250 -1.0132
  191DG      H6 4376   5.921   1.940   0.469 -0.1896 -1.6456  1.2502
  191DG      H7 4377   5.996   2.090   0.499  0.7959 -1.9148 -1.6400
  191DG      H8 4378   5.905   2.029   0.634  2.0090  1.0034 -0.2809
  191DG      O9 4379   5.509   2.494   0.403 -0.8107  0.2776 -0.3486
  191DG     O10 4380   5.795   2.088   0.461 -0.6218 -0.2313  0.2231
  191DG     C11 4381   5.398   2.403   0.380 -0.1148  0.4140  0.1582
  191DG     C12 4382   5.674   2.023   0.478 -0.2825 -0.2799  0.4443
  191DG     H13 4383   5.318   2.444   0.319 -1.4489  0.6117  1.9767
  191DG     H14 4384   5.351   2.388   0.477  0.5372  0.9069  0.5556
  191DG     H15 4385   5.641   2.035   0.581 -0.6398  0.4063  0.2603
  191DG     H16 4386   5.687   1.917   0.457  1.0777  0.0437 -0.5503
  191DG     C17 4387   5.442   2.268   0.336 -0.0519  1.1142  0.1621
  191DG     C18 4388   5.564   2.079   0.388 -0.0869  0.3607 -0.5384
  191DG     O19 4389   5.550   2.213   0.413  0.6456  0.0036 -0.2350
  191DG     H20 4390   5.477   2.277   0.233 -1.5301 -0.7318 -0.5437
  191DG     H21 4391   5.354   2.204   0.336 -0.2831  1.2018  3.9469
  191DG     H22 4392   5.587   2.061   0.283  0.7455  0.1632 -0.3333
  191DG     H23 4393   5.467   2.039   0.417  0.7807 -1.4871 -0.0115
  192DG      C1 4394   0.113   1.281   0.033  0.4481  0.0294 -0.1508
  192DG      C2 4395   0.025   0.857   0.497 -0.0153 -0.3326 -0.3320
  192DG      H3 4396   0.186   1.347  -0.015  1.1786  0.6137  1.6780
  192DG      H4 4397   0.017   1.330   0.048  1.4743  1.5752  1.8642
  192DG      H5 4398   0.083   1.207  -0.041 -1.2062  1.4711 -1.0069
  192DG      H6 4399   0.035   0.821   0.600  0.9036  0.3337 -0.1767
  192DG      H7 4400   0.007   0.965   0.501  3.6294  0.3919  0.2427
  192DG      H8 4401  -0.076   0.825   0.472 -0.7984  0.7629  1.2059
  192DG      O9 4402   0.163   1.215   0.146 -0.1347  0.1019 -0.2470
  192DG     O10 4403   0.118   0.807   0.409 -0.4657  0.4769 -0.1018
  192DG     C11 4404   0.300   1.180   0.129 -0.6333  0.0878 -0.6578
  192DG     C12 4405   0.253   0.815   0.441 -0.6074 -0.2825  0.4943
  192DG     H13 4406   0.355   1.268   0.097 -1.6648  0.2776 -2.0158
  192DG     H14 4407   0.304   1.112   0.044  0.0053 -0.4904 -0.1799
  192DG     H15 4408   0.297   0.742   0.372 -0.5976  2.4859 -2.6522
  192DG     H16 4409   0.281   0.778   0.540 -0.7847 -1.2218  0.2062
  192DG     C17 4410   0.368   1.117   0.253 -0.0233 -0.2697 -0.7194
  192DG     C18 4411   0.315   0.951   0.420 -0.0492 -0.9278  0.1762
  192DG     O19 4412   0.290   0.994   0.288  0.1634 -0.1489  0.1640
  192DG     H20 4413   0.378   1.190   0.333  4.3644  0.0389 -1.3099
  192DG     H21 4414   0.468   1.089   0.220  0.1305  0.3129 -0.7503
  192DG     H22 4415   0.256   1.023   0.477  0.8191  0.6063 -0.7815
  192DG     H23 4416   0.415   0.968   0.461 -0.9502  2.3927  1.2970
  193DG      C1 4417   2.148   2.401   2.453  0.0472  0.5305 -0.0539
  193DG      C2 4418   1.773   2.194   2.987  0.1333 -0.4533  0.1836
  193DG      H3 4419   2.202   2.307   2.467 -1.7963 -0.7060 -0.8551
  193DG      H4 4420   2.222   2.472   2.491  1.8387 -1.5582  0.5832
  193DG      H5 4421   2.132   2.424   2.348  1.1851 -0.3488 -0.4430
  193DG      H6 4422   1.876   2.202   3.021  0.1874  0.2615 -0.1242
  193DG      H7 4423   1.700   2.216   3.065 -0.0350  0.9203 -0.3244
  193DG      H8 4424   1.749   2.095   2.950 -2.2563  0.5705 -1.3003
  193DG      O9 4425   2.021   2.408   2.521 -0.1605 -0.0939 -0.5981
  193DG     O10 4426   1.754   2.278   2.878  0.0410  0.7257 -0.5887
  193DG     C11 4427   1.976   2.539   2.542 -0.0819 -0.6308 -0.3252
  193DG     C12 4428   1.718   2.412   2.918 -0.0696 -0.0723  0.3972
  193DG     H13 4429   1.985   2.604   2.455 -0.5940  0.7100  0.6115
  193DG     H14 4430   2.046   2.578   2.616  0.9493 -0.9148 -1.1171
  193DG     H15 4431   1.782   2.465   2.989 -1.5687  0.8152  1.1429
  193DG     H16 4432   1.619   2.417   2.962 -0.0041  0.6167  0.4903
  193DG     C17 4433   1.832   2.547   2.594 -0.4882 -0.5703 -0.5863
  193DG     C18 4434   1.708   2.490   2.785 -0.4294  0.0294  0.3314
  193DG     O19 4435   1.829   2.477   2.717  0.1350 -0.2823  0.4999
  193DG     H20 4436   1.766   2.506   2.518  0.6033  0.6735 -2.3138
  193DG     H21 4437   1.811   2.653   2.607 -0.7987 -0.6294 -0.6119
  193DG     H22 4438   1.625   2.459   2.721  0.7902  0.4234 -1.5113
  193DG     H23 4439   1.684   2.594   2.806  0.6184  0.7781 -1.9382
  194DG      C1 4440   3.126   4.763   2.477  0.0774 -0.2293 -0.0533
  194DG      C2 4441   3.536   4.900   1.920  0.3652 -0.2678  0.0617
  194DG      H3 4442   3.116   4.783   2.583  0.5640 -0.1836 -0.0126
  194DG      H4 4443   3.152   4.658   2.466  0.9489  0.1129 -1.5305
  194DG      H5 4444   3.027   4.773   2.432  0.1840 -0.7506 -0.4265
  194DG      H6 4445   3.471   4.947   1.846  0.1201 -1.2760 -0.3930
  194DG      H7 4446   3.637   4.928   1.891 -0.0924  1.9791  0.4949
  194DG      H8 4447   3.525   4.791   1.919  2.2133 -0.4748 -0.4675
  194DG      O9 4448   3.220   4.846   2.419 -0.5064  0.1746 -0.2003
  194DG     O10 4449   3.515   4.936   2.048  0.6547  0.4270 -0.3584
  194DG     C11 4450   3.219   4.976   2.470 -0.4604  0.3793 -0.3448
  194DG     C12 4451   3.432   5.061   2.060  0.0692 -0.7439  0.2663
  194DG     H13 4452   3.233   4.984   2.578 -0.3606  0.3372 -0.3552
  194DG     H14 4453   3.118   5.017   2.459 -0.8019  0.0409  1.1691
  194DG     H15 4454   3.332   5.042   2.022  0.2694 -0.9352 -0.1821
  194DG     H16 4455   3.486   5.128   1.992  2.3469 -1.1535  1.5567
  194DG     C17 4456   3.331   5.053   2.406  0.3661 -0.3769  0.6051
  194DG     C18 4457   3.434   5.108   2.200  0.6294 -0.5496 -0.2779
  194DG     O19 4458   3.359   5.011   2.274 -0.2073 -0.2064 -0.3041
  194DG     H20 4459   3.420   5.042   2.468  0.3670  0.3456  0.7441
  194DG     H21 4460   3.316   5.161   2.409 -0.3833 -0.4524  0.0822
  194DG     H22 4461   3.525   5.139   2.251 -0.4202  2.4159 -0.0023
  194DG     H23 4462   3.366   5.193   2.202 -1.2553 -1.9768  2.3589
  195DG      C1 4463   0.358   3.311   1.888  0.5041  0.1262  0.9526
  195DG      C2 4464  -0.115   3.847   2.247  0.7857 -0.1506 -0.0333
  195DG      H3 4465   0.463   3.290   1.906  1.1088  0.4720 -1.6758
  195DG      H4 4466   0.345   3.373   1.799  0.5677 -1.8084 -0.4746
  195DG      H5 4467   0.305   3.219   1.862  1.4056  0.3197 -1.9690
  195DG      H6 4468  -0.187   3.787   2.191  1.7073 -1.7856  0.4796
  195DG      H7 4469  -0.163   3.869   2.342  0.4694 -0.1113 -0.2006
  195DG      H8 4470  -0.122   3.949   2.208  1.6742 -0.4324 -0.9875
  195DG      O9 4471   0.314   3.364   2.009  0.8039 -0.8062 -0.4410
  195DG     O10 4472   0.011   3.802   2.246 -0.9100  0.2184  0.4823
  195DG     C11 4473   0.368   3.499   2.023  0.2410  0.6804 -0.0166
  195DG     C12 4474   0.017   3.666   2.300 -0.9981  0.3615  0.4398
  195DG     H13 4475   0.327   3.552   1.938 -0.7598 -0.2923 -0.1623
  195DG     H14 4476   0.476   3.505   2.008  0.5192 -0.3799  1.3194
  195DG     H15 4477  -0.057   3.616   2.238 -1.4782  1.2247  0.2968
  195DG     H16 4478  -0.002   3.670   2.408  1.6289  1.6309  0.9325
  195DG     C17 4479   0.332   3.577   2.152 -0.3098 -0.6804  0.1234
  195DG     C18 4480   0.153   3.608   2.290  0.6438  1.0769  0.1313
  195DG     O19 4481   0.194   3.598   2.161 -0.8743  0.3656  0.4194
  195DG     H20 4482   0.386   3.672   2.141  0.7735 -1.0849  1.6161
  195DG     H21 4483   0.384   3.529   2.235  1.2482 -0.6001 -0.7546
  195DG     H22 4484   0.227   3.668   2.343  1.1509  1.2465 -0.7457
  195DG     H23 4485   0.151   3.506   2.329  0.5312 -0.4730 -3.5401
  196DG      C1 4486   3.858   1.138   4.223  0.2243 -0.2611  0.1464
  196DG      C2 4487   4.635   0.906   3.997 -0.1106  0.4356  0.4182
  196DG      H3 4488   3.813   1.120   4.125 -2.3839 -0.5328  1.3217
  196DG      H4 4489   3.879   1.245   4.227  0.9095 -0.3845 -0.0011
  196DG      H5 4490   3.805   1.098   4.309  0.6932  1.0388  1.0695
  196DG      H6 4491   4.602   0.818   3.940 -0.6942  0.7600  0.2484
  196DG      H7 4492   4.620   0.995   3.936 -0.0444  0.3580  0.2881
  196DG      H8 4493   4.741   0.899   4.020 -0.1921  0.6644  0.8714
  196DG      O9 4494   3.976   1.062   4.230  0.2672 -0.0884 -0.1249
  196DG     O10 4495   4.578   0.907   4.123  0.0180 -0.1772 -0.5381
  196DG     C11 4496   4.046   1.066   4.354  0.0722  0.1047 -0.2989
  196DG     C12 4497   4.451   0.976   4.116 -0.1108  0.0174 -0.5320
  196DG     H13 4498   3.979   1.032   4.433 -0.2311 -1.3553 -1.1632
  196DG     H14 4499   4.073   1.164   4.394  0.8076 -0.6940  1.2418
  196DG     H15 4500   4.391   0.931   4.036  0.9931  0.7154 -1.8028
  196DG     H16 4501   4.461   1.080   4.085 -0.6634 -0.1961 -1.4776
  196DG     C17 4502   4.175   0.988   4.342 -0.6926  0.0853 -0.3354
  196DG     C18 4503   4.380   0.971   4.253 -0.4850 -0.0308 -0.0097
  196DG     O19 4504   4.257   1.033   4.239 -0.5469  0.1989  0.1867
  196DG     H20 4505   4.144   0.886   4.318  0.8653 -0.2249 -1.1304
  196DG     H21 4506   4.226   0.983   4.439 -1.6363  1.4241  0.2607
  196DG     H22 4507   4.378   0.864   4.277  0.4940 -0.4918 -1.7910
  196DG     H23 4508   4.432   1.038   4.322 -1.5802  0.1597  0.6563
  197DG      C1 4509   5.270   0.452   5.357  0.2800 -0.6732 -0.7658
  197DG      C2 4510   5.905   0.485   5.480 -0.4122  0.0964 -0.3580
  197DG      H3 4511   5.209   0.512   5.289 -1.0376  1.3628  2.0321
  197DG      H4 4512   5.199   0.411   5.429 -0.2773 -0.2043 -1.0423
  197DG      H5 4513   5.319   0.360   5.325  1.1736  0.1003 -1.7223
  197DG      H6 4514   5.857   0.396   5.521 -0.7966  0.2234 -0.5240
  197DG      H7 4515   5.967   0.459   5.395 -0.6400  0.4966 -0.6501
  197DG      H8 4516   5.985   0.509   5.550  0.0676  0.3946 -1.0054
  197DG      O9 4517   5.373   0.517   5.435  0.3399 -0.0447  0.0879
  197DG     O10 4518   5.811   0.589   5.457  0.1915 -0.6175 -0.4483
  197DG     C11 4519   5.321   0.616   5.525  0.6556 -0.2466 -0.7020
  197DG     C12 4520   5.757   0.634   5.576  0.4958 -0.0855 -0.4217
  197DG     H13 4521   5.255   0.582   5.604 -1.1923  1.9755 -1.1664
  197DG     H14 4522   5.252   0.689   5.484 -1.6772 -2.0049 -0.0980
  197DG     H15 4523   5.842   0.653   5.642  2.3011  1.3168 -2.9674
  197DG     H16 4524   5.698   0.559   5.629 -2.4640  0.7221 -2.3007
  197DG     C17 4525   5.443   0.689   5.597  0.0630 -0.3137  0.1586
  197DG     C18 4526   5.668   0.755   5.562  0.2285  0.0570 -0.0018
  197DG     O19 4527   5.545   0.700   5.499  0.1018  0.3884  0.1504
  197DG     H20 4528   5.482   0.622   5.673  3.1287 -0.1251 -1.1047
  197DG     H21 4529   5.418   0.785   5.643 -2.0009 -1.6933  2.0905
  197DG     H22 4530   5.651   0.793   5.663  1.4808 -2.2392  1.1733
  197DG     H23 4531   5.723   0.828   5.502  1.0417  0.2425  0.9420
  198DG      C1 4532   2.298   0.092   3.692 -0.6654 -0.1133 -0.1684
  198DG      C2 4533   2.491  -0.478   3.927 -0.1865  0.0326 -0.5979
  198DG      H3 4534   2.245   0.187   3.696 -0.1332  0.1457  0.8903
  198DG      H4 4535   2.223   0.014   3.677  0.1885 -1.2952  1.4049
  198DG      H5 4536   2.360   0.100   3.603 -1.6822  1.7690 -0.7571
  198DG      H6 4537   2.392  -0.521   3.944 -0.1699  0.4864  0.8712
  198DG      H7 4538   2.499  -0.468   3.819  1.4005  0.9901 -0.4262
  198DG      H8 4539   2.566  -0.548   3.964 -1.7263 -0.6625  1.4303
  198DG      O9 4540   2.378   0.054   3.802 -0.0460  0.0641  0.1820
  198DG     O10 4541   2.503  -0.352   3.995  0.3785 -0.0768  0.2355
  198DG     C11 4542   2.515   0.102   3.799  0.3790  1.0378  0.0592
  198DG     C12 4543   2.635  -0.308   4.019 -0.3372  0.5814 -0.1614
  198DG     H13 4544   2.525   0.210   3.796  0.4042  1.1249  2.0843
  198DG     H14 4545   2.557   0.070   3.703 -2.2736 -1.2958 -0.4725
  198DG     H15 4546   2.702  -0.337   3.938 -0.4608  1.5580 -0.6389
  198DG     H16 4547   2.673  -0.365   4.103  0.9009  1.9044  0.2180
  198DG     C17 4548   2.584   0.041   3.929 -0.2046 -0.2201 -0.2041
  198DG     C18 4549   2.646  -0.159   4.030 -0.2155 -0.1722 -1.0519
  198DG     O19 4550   2.589  -0.101   3.913 -0.0137 -0.1586  0.0909
  198DG     H20 4551   2.518   0.062   4.012  0.9028 -0.6532  0.8118
  198DG     H21 4552   2.677   0.082   3.968 -0.8812  0.5429  0.6409
  198DG     H22 4553   2.587  -0.137   4.119  0.2502 -0.6847 -0.6062
  198DG     H23 4554   2.752  -0.136   4.044 -0.3676  0.5959 -1.1055
  199DG      C1 4555   2.202   3.895   4.305 -0.2660 -0.4551  0.0299
  199DG      C2 4556   2.530   4.485   4.223 -1.0928  0.7059 -0.5523
  199DG      H3 4557   2.124   3.888   4.380  1.5028  2.3376  2.3357
  199DG      H4 4558   2.262   3.804   4.307 -0.3323 -0.4876  0.6776
  199DG      H5 4559   2.165   3.905   4.203  0.3081  0.3632 -0.1114
  199DG      H6 4560   2.618   4.499   4.161 -1.3724  1.7380 -0.7288
  199DG      H7 4561   2.439   4.519   4.175 -1.4145 -2.5319 -2.5156
  199DG      H8 4562   2.537   4.551   4.309  4.0914  0.2988 -0.3572
  199DG      O9 4563   2.275   4.011   4.330  0.0833 -0.0642  0.2782
  199DG     O10 4564   2.523   4.346   4.264  0.2755 -0.6674  1.2074
  199DG     C11 4565   2.316   4.017   4.467  0.6792  0.4855  0.2840
  199DG     C12 4566   2.621   4.306   4.362  0.3395 -0.4880 -0.8314
  199DG     H13 4567   2.351   3.916   4.488 -0.9368  0.0701  1.1904
  199DG     H14 4568   2.239   4.045   4.539  1.1545 -1.7754  1.7997
  199DG     H15 4569   2.576   4.334   4.457  0.8548  2.0636 -1.2868
  199DG     H16 4570   2.715   4.361   4.351 -0.7251  1.4200 -0.7074
  199DG     C17 4571   2.442   4.103   4.482 -0.3837 -0.6982 -0.3032
  199DG     C18 4572   2.653   4.155   4.360  0.5009 -0.3829  0.1490
  199DG     O19 4573   2.525   4.086   4.363  0.3725  0.2883 -0.0549
  199DG     H20 4574   2.500   4.077   4.570  1.1421  0.7190 -0.8308
  199DG     H21 4575   2.412   4.205   4.507  2.5541  0.2200 -0.1456
  199DG     H22 4576   2.704   4.147   4.264 -0.0394 -0.3424 -0.1470
  199DG     H23 4577   2.711   4.131   4.449 -0.4029 -0.6115  0.6870
  200DG      C1 4578   5.383   1.229   2.880 -1.0532 -0.1579  0.2163
  200DG      C2 4579   5.867   0.727   3.121  0.3080  0.2075  0.5189
  200DG      H3 4580   5.360   1.281   2.787  1.8685 -2.4572 -1.9889
  200DG      H4 4581   5.299   1.223   2.949 -1.3694 -1.9853 -0.2828
  200DG      H5 4582   5.399   1.130   2.838  1.7851  0.6719 -0.9240
  200DG      H6 4583   5.943   0.771   3.186  1.1300  0.5029 -0.6014
  200DG      H7 4584   5.770   0.725   3.170 -0.4579  5.3230 -0.1760
  200DG      H8 4585   5.895   0.623   3.104 -0.5448 -0.0216  0.4853
  200DG      O9 4586   5.494   1.278   2.956 -0.0345  0.5592 -0.0659
  200DG     O10 4587   5.858   0.804   2.999  0.3323 -0.4813 -0.8005
  200DG     C11 4588   5.597   1.337   2.879 -1.0656 -0.0111  0.0669
  200DG     C12 4589   5.804   0.933   3.028 -0.0033  0.2905 -0.1315
  200DG     H13 4590   5.658   1.392   2.951  0.5192  0.6991 -1.7466
  200DG     H14 4591   5.568   1.413   2.806 -1.5800  1.0298  1.3092
  200DG     H15 4592   5.869   0.997   3.088  1.1397  0.7792 -1.8068
  200DG     H16 4593   5.712   0.920   3.084  0.6591 -2.0574  0.5216
  200DG     C17 4594   5.683   1.222   2.827  0.2166  0.5755  0.1661
  200DG     C18 4595   5.776   1.013   2.903 -0.1244  0.7826  0.6665
  200DG     O19 4596   5.715   1.139   2.942  0.4839  0.4226 -0.3442
  200DG     H20 4597   5.775   1.265   2.787 -0.1143  2.4237  1.2605
  200DG     H21 4598   5.629   1.166   2.752 -0.9075  0.4458  1.0399
  200DG     H22 4599   5.870   1.028   2.851 -0.3965 -0.7943 -0.3528
  200DG     H23 4600   5.709   0.960   2.836  0.8057 -0.4644  0.6945
  201DG      C1 4601   0.414   0.423   2.230 -0.4600  0.2241 -0.4285
  201DG      C2 4602   0.785   0.583   2.014 -0.0907  0.4685 -0.4035
  201DG      H3 4603   0.359   0.338   2.190 -1.0805  0.7932 -0.8055
  201DG      H4 4604   0.496   0.433   2.159 -0.2635 -0.3847 -0.2917
  201DG      H5 4605   0.336   0.500   2.227 -0.8000 -0.0977  0.1097
  201DG      H6 4606   0.844   0.574   1.923  0.4987 -1.1927  0.0952
  201DG      H7 4607   0.697   0.646   1.997 -0.1985  0.7648  1.1133
  201DG      H8 4608   0.838   0.634   2.093 -2.0403 -1.4212  2.3060
  201DG      O9 4609   0.450   0.388   2.362 -0.1827  0.2638  0.5972
  201DG     O10 4610   0.733   0.461   2.062  0.3184 -0.1102  0.1255
  201DG     C11 4611   0.529   0.496   2.423  0.0270 -0.3275 -0.4691
  201DG     C12 4612   0.835   0.388   2.124  0.1773  0.2809 -0.2515
  201DG     H13 4613   0.532   0.474   2.530 -1.9015 -0.6434 -0.4400
  201DG     H14 4614   0.473   0.589   2.412 -0.5097 -0.7650 -1.6020
  201DG     H15 4615   0.929   0.392   2.070  0.8211 -3.0620  0.4166
  201DG     H16 4616   0.805   0.284   2.107  0.1413  0.4839 -1.5211
  201DG     C17 4617   0.663   0.533   2.362  0.5994  0.1947 -0.0679
  201DG     C18 4618   0.850   0.414   2.276  0.7763 -0.1028 -0.4714
  201DG     O19 4619   0.716   0.408   2.327 -0.8939 -0.0976  0.3445
  201DG     H20 4620   0.719   0.591   2.435 -1.1967  1.0910  0.6805
  201DG     H21 4621   0.644   0.594   2.274 -0.3055  0.5393  0.3452
  201DG     H22 4622   0.903   0.327   2.314 -0.2723 -0.3728  0.4076
  201DG     H23 4623   0.899   0.507   2.303 -0.9438  0.3173  1.4248
  202DG      C1 4624   0.024   2.595   4.972  0.0709 -0.4222 -0.1040
  202DG      C2 4625   0.394   2.294   4.500  0.3047 -0.5610 -0.3612
  202DG      H3 4626  -0.057   2.646   4.919  0.3654 -0.5917 -0.7230
  202DG      H4 4627   0.036   2.633   5.073 -1.8591  0.2680 -0.0938
  202DG      H5 4628  -0.011   2.492   4.976 -0.1021 -0.5119 -2.4013
  202DG      H6 4629   0.430   2.302   4.603 -0.1417 -0.5951 -0.2040
  202DG      H7 4630   0.319   2.217   4.514  0.1844  0.0556  3.4411
  202DG      H8 4631   0.467   2.240   4.438 -0.0491 -0.1987 -1.1115
  202DG      O9 4632   0.146   2.588   4.897  0.5520 -0.8226 -0.4142
  202DG     O10 4633   0.336   2.420   4.463  0.2538 -0.3662 -0.1917
  202DG     C11 4634   0.174   2.713   4.842 -0.1864  0.6556 -0.2770
  202DG     C12 4635   0.423   2.533   4.471 -0.1095 -0.0537  0.0502
  202DG     H13 4636   0.173   2.803   4.903  2.3660  1.1201 -0.8232
  202DG     H14 4637   0.106   2.736   4.759 -1.1515 -1.1633 -0.0465
  202DG     H15 4638   0.395   2.610   4.399  2.2911  0.7136 -0.1715
  202DG     H16 4639   0.521   2.503   4.435 -0.0927  0.9695 -0.7873
  202DG     C17 4640   0.311   2.705   4.778  0.0004 -1.1482 -0.3261
  202DG     C18 4641   0.442   2.594   4.611 -0.1090  0.0948 -0.6454
  202DG     O19 4642   0.309   2.616   4.670  0.4185 -0.4133 -0.5233
  202DG     H20 4643   0.386   2.672   4.849  0.6130  1.7319  0.5082
  202DG     H21 4644   0.348   2.803   4.747 -1.0977  0.8759  3.9850
  202DG     H22 4645   0.508   2.533   4.674  1.0838  0.1182 -1.8363
  202DG     H23 4646   0.482   2.694   4.591  1.2230 -0.9000 -3.3654
  203DG      C1 4647   4.794   1.207   1.919  0.3606  0.0620 -0.5605
  203DG      C2 4648   5.516   1.530   2.060  1.0024  0.4214  0.3502
  203DG      H3 4649   4.724   1.279   1.961  0.9122 -0.2733  0.9906
  203DG      H4 4650   4.815   1.123   1.985 -2.0074 -1.0824 -1.1607
  203DG      H5 4651   4.756   1.165   1.825  3.0858  1.6425 -2.4966
  203DG      H6 4652   5.528   1.610   1.988  1.5895 -0.5997 -0.7223
  203DG      H7 4653   5.619   1.507   2.089  1.5790  0.8928 -1.2500
  203DG      H8 4654   5.486   1.454   1.988  1.5750  2.6095 -2.3564
  203DG      O9 4655   4.910   1.287   1.899 -0.4157  0.3614 -0.6344
  203DG     O10 4656   5.430   1.530   2.176  0.5981 -0.2370 -0.4710
  203DG     C11 4657   4.990   1.313   2.022  0.1928  0.0228  0.1737
  203DG     C12 4658   5.331   1.628   2.161  0.4918 -0.3924 -0.1399
  203DG     H13 4659   5.028   1.219   2.062  1.1262  0.9656  1.5700
  203DG     H14 4660   4.938   1.366   2.102 -0.7492 -0.8653  0.1681
  203DG     H15 4661   5.379   1.724   2.142 -2.4262  1.0561 -0.8233
  203DG     H16 4662   5.279   1.641   2.256  0.7807 -1.1627  0.1303
  203DG     C17 4663   5.098   1.412   1.973  0.1126 -0.1000 -0.1990
  203DG     C18 4664   5.227   1.605   2.053  0.3507 -0.2024  0.5678
  203DG     O19 4665   5.156   1.485   2.078  0.1974  0.4466 -0.4090
  203DG     H20 4666   5.050   1.479   1.901 -1.2962 -0.4625  0.3747
  203DG     H21 4667   5.180   1.358   1.925 -0.4638 -1.3446  0.1782
  203DG     H22 4668   5.152   1.684   2.062 -0.2714 -0.0827 -3.6987
  203DG     H23 4669   5.279   1.598   1.958  1.8686 -0.6276  1.3961
  204DG      C1 4670   0.299   1.689   3.476 -0.1594 -0.9854 -0.0217
  204DG      C2 4671   0.237   1.115   3.881  0.4527  0.2569  0.1003
  204DG      H3 4672   0.235   1.615   3.427  1.4829 -2.0778 -0.6255
  204DG      H4 4673   0.348   1.743   3.396 -1.3900 -0.9226 -0.7662
  204DG      H5 4674   0.231   1.759   3.524  0.4609 -2.4027  3.1980
  204DG      H6 4675   0.129   1.130   3.878  0.1407 -1.5290  1.0090
  204DG      H7 4676   0.260   1.029   3.819 -0.6708  0.5413 -0.7541
  204DG      H8 4677   0.256   1.088   3.985 -1.2485 -3.1866 -0.3622
  204DG      O9 4678   0.378   1.634   3.581 -0.0880 -0.4927  0.2781
  204DG     O10 4679   0.318   1.230   3.850 -0.2037 -0.3377  0.2631
  204DG     C11 4680   0.494   1.565   3.537 -0.4161 -0.7400  0.6630
  204DG     C12 4681   0.458   1.203   3.858 -0.0585  0.0493 -0.7110
  204DG     H13 4682   0.561   1.649   3.515 -2.3644  0.8496  0.5474
  204DG     H14 4683   0.479   1.517   3.440  0.9939  2.2647 -1.1904
  204DG     H15 4684   0.479   1.130   3.779  1.2755  0.1517 -0.4649
  204DG     H16 4685   0.495   1.169   3.954  0.6489  1.7731 -0.3246
  204DG     C17 4686   0.574   1.480   3.643 -0.2709 -0.3212  0.0357
  204DG     C18 4687   0.531   1.339   3.832  0.2895  0.4240 -0.1581
  204DG     O19 4688   0.479   1.409   3.715 -0.0415 -0.3864 -0.3936
  204DG     H20 4689   0.614   1.538   3.726 -0.4485 -0.6162  0.3274
  204DG     H21 4690   0.653   1.416   3.605  0.3846  0.5753 -0.1670
  204DG     H22 4691   0.522   1.390   3.928 -2.3514 -0.8763  0.3657
  204DG     H23 4692   0.633   1.303   3.830 -0.5078 -2.3829  2.7208
  205DG      C1 4693   1.110   3.076   5.376  0.0966  0.2445  0.0486
  205DG      C2 4694   0.946   3.436   5.187 -0.9669 -0.1254 -0.1654
  205DG      H3 4695   1.199   3.128   5.341 -0.0761  0.4660 -0.0693
  205DG      H4 4696   1.027   3.120   5.320  0.5118 -2.6086 -3.1770
  205DG      H5 4697   1.128   2.973   5.344 -0.8066 -0.4354  1.6310
  205DG      H6 4698   0.902   3.522   5.136 -1.3244  0.4545  1.0801
  205DG      H7 4699   1.050   3.425   5.153 -0.9889 -1.0066  0.0405
  205DG      H8 4700   0.898   3.342   5.161 -1.1386 -0.4208  1.1477
  205DG      O9 4701   1.101   3.101   5.510 -0.3777  0.3856  0.2889
  205DG     O10 4702   0.939   3.450   5.328  0.0038  0.4259 -0.4255
  205DG     C11 4703   0.982   3.033   5.553  0.1370 -0.4975 -0.5241
  205DG     C12 4704   0.806   3.440   5.380 -0.1573 -0.3648 -0.2249
  205DG     H13 4705   0.977   3.027   5.662  0.7148  1.0179 -0.3959
  205DG     H14 4706   0.995   2.930   5.519  0.6477 -0.1595 -1.3553
  205DG     H15 4707   0.738   3.493   5.312  0.3695  1.1868  0.4007
  205DG     H16 4708   0.817   3.491   5.475 -0.4633 -3.0754  1.3685
  205DG     C17 4709   0.853   3.094   5.503 -0.1909  0.5377 -0.6605
  205DG     C18 4710   0.768   3.298   5.415 -0.1976  0.3394  0.6468
  205DG     O19 4711   0.876   3.229   5.485 -0.1994 -0.3473  0.4367
  205DG     H20 4712   0.769   3.073   5.570 -2.6800 -1.2451 -4.0484
  205DG     H21 4713   0.834   3.046   5.407 -0.3354 -1.7515  0.4489
  205DG     H22 4714   0.676   3.307   5.473 -2.5201  1.5837 -2.8986
  205DG     H23 4715   0.739   3.243   5.326  1.4911 -0.2819  0.4341
  206DG      C1 4716   1.432   0.236   3.854  0.4239  0.5482 -0.0572
  206DG      C2 4717   1.839   0.528   4.307  0.2244  0.5551 -0.3082
  206DG      H3 4718   1.439   0.162   3.934 -4.5201  1.3002  1.4420
  206DG      H4 4719   1.391   0.186   3.766  2.0816  0.1141 -0.6277
  206DG      H5 4720   1.352   0.296   3.896 -0.0538 -0.2080  0.1292
  206DG      H6 4721   1.736   0.563   4.320 -0.0136 -0.7219  1.7508
  206DG      H7 4722   1.855   0.440   4.370 -0.9147  0.3169 -0.3336
  206DG      H8 4723   1.905   0.603   4.349 -1.2385  1.8371 -0.2077
  206DG      O9 4724   1.554   0.306   3.838  0.1203  0.3649  0.1391
  206DG     O10 4725   1.866   0.497   4.168 -0.1803 -0.1553  0.2633
  206DG     C11 4726   1.539   0.429   3.773 -0.2260  0.0723  0.2152
  206DG     C12 4727   1.841   0.612   4.079 -0.6617  0.2718 -0.5933
  206DG     H13 4728   1.457   0.482   3.822 -1.0013 -2.5591  1.9867
  206DG     H14 4729   1.510   0.415   3.669 -0.0805 -0.7357  0.2777
  206DG     H15 4730   1.915   0.691   4.092  0.4210 -0.6525 -1.0802
  206DG     H16 4731   1.746   0.656   4.111 -1.2219 -1.1182 -0.2460
  206DG     C17 4732   1.662   0.509   3.777  0.3850  0.6236 -0.4176
  206DG     C18 4733   1.825   0.587   3.927  0.0785  0.0197 -0.0785
  206DG     O19 4734   1.702   0.511   3.910 -0.7159  0.3851 -0.7969
  206DG     H20 4735   1.655   0.605   3.726  0.3076  0.5693 -0.5105
  206DG     H21 4736   1.742   0.453   3.727  0.5553 -1.5203  2.0339
  206DG     H22 4737   1.827   0.685   3.880  1.1604  0.0632  0.0442
  206DG     H23 4738   1.915   0.541   3.887 -0.5680 -0.7063 -0.7123
  207DG      C1 4739   1.425   3.436   2.413 -0.0177  0.8893 -0.2864
  207DG      C2 4740   1.829   4.031   2.657  0.0222  0.4261  0.4031
  207DG      H3 4741   1.434   3.395   2.313  1.0470 -0.9937  0.5162
  207DG      H4 4742   1.322   3.409   2.440  0.3242  0.1102  0.2822
  207DG      H5 4743   1.487   3.383   2.486  2.5530  2.3022 -1.3255
  207DG      H6 4744   1.930   4.072   2.651  1.6509 -2.9886  1.6766
  207DG      H7 4745   1.746   4.101   2.653 -1.2627 -1.0776 -0.3610
  207DG      H8 4746   1.832   3.972   2.749  0.8177 -0.3403 -0.0948
  207DG      O9 4747   1.452   3.571   2.423 -0.2673 -0.2259 -0.2811
  207DG     O10 4748   1.814   3.942   2.550 -0.0404 -0.4951  0.3574
  207DG     C11 4749   1.590   3.594   2.405 -0.4137 -0.3792 -0.2409
  207DG     C12 4750   1.752   4.000   2.428  0.1047  0.7304 -0.1396
  207DG     H13 4751   1.626   3.530   2.324  1.5194  0.4403 -0.0853
  207DG     H14 4752   1.640   3.561   2.496 -1.1627 -3.2122 -0.7651
  207DG     H15 4753   1.788   4.102   2.410 -1.6556  1.4257  0.0829
  207DG     H16 4754   1.644   4.014   2.434  0.3387  2.0763  2.0398
  207DG     C17 4755   1.615   3.737   2.349 -0.9794  0.1796  0.2664
  207DG     C18 4756   1.784   3.895   2.317 -0.5677 -0.0567 -0.2955
  207DG     O19 4757   1.751   3.771   2.367 -0.2850  0.1263 -0.0411
  207DG     H20 4758   1.540   3.793   2.405 -2.1200  0.4644 -1.4745
  207DG     H21 4759   1.587   3.727   2.244 -1.1248 -0.8072  0.3870
  207DG     H22 4760   1.728   3.920   2.227  0.0062  1.4886 -0.2607
  207DG     H23 4761   1.887   3.884   2.284 -1.0692 -0.6262 -1.7253
  208DG      C1 4762   1.034   3.515   4.775 -0.3562  0.2311  0.5567
  208DG      C2 4763   1.034   2.683   5.083 -0.1221  0.7019  0.0954
  208DG      H3 4764   1.100   3.575   4.712 -0.8124 -0.0929 -0.2390
  208DG      H4 4765   1.090   3.498   4.867  2.6314 -1.3605 -1.4010
  208DG      H5 4766   0.944   3.573   4.794  0.2398  2.5278 -2.8347
  208DG      H6 4767   0.945   2.645   5.031  1.0844 -2.3122  0.0296
  208DG      H7 4768   1.123   2.633   5.046  0.2342  1.4937 -0.1464
  208DG      H8 4769   1.016   2.659   5.187  2.0272 -0.8505  0.1668
  208DG      O9 4770   1.005   3.391   4.723  0.2093 -0.1044  0.0873
  208DG     O10 4771   1.060   2.822   5.076  0.7072  0.5659  0.1064
  208DG     C11 4772   0.954   3.299   4.819 -0.2574 -0.1639  0.6586
  208DG     C12 4773   1.120   2.863   4.947 -0.2255 -0.0956 -0.2284
  208DG     H13 4774   0.899   3.225   4.762  1.5331 -2.1562  1.3859
  208DG     H14 4775   0.883   3.335   4.894  0.4659 -0.1652  1.3606
  208DG     H15 4776   1.059   2.841   4.860 -1.4545  0.9347  0.3370
  208DG     H16 4777   1.213   2.807   4.944 -0.2044 -0.0195 -1.2540
  208DG     C17 4778   1.067   3.224   4.882 -0.7568 -0.0016  0.1636
  208DG     C18 4779   1.150   3.013   4.944 -1.1639  0.1997 -0.1402
  208DG     O19 4780   1.045   3.089   4.894 -0.0468 -0.3510 -0.3123
  208DG     H20 4781   1.076   3.251   4.987 -0.3470  1.5627 -0.2503
  208DG     H21 4782   1.159   3.246   4.828 -0.7254  1.0468  0.6240
  208DG     H22 4783   1.171   3.049   5.045  0.3090  2.7120 -1.2570
  208DG     H23 4784   1.238   3.032   4.883 -1.8764 -2.2572 -2.0760
  209DG      C1 4785   0.087   3.768   4.515  1.0766  0.7866  0.6402
  209DG      C2 4786   0.101   3.467   3.904  1.1603  0.0325  0.2267
  209DG      H3 4787   0.053   3.685   4.575 -2.4786  0.9263 -0.8988
  209DG      H4 4788   0.176   3.814   4.558  1.9073 -0.8474  0.7066
  209DG      H5 4789   0.119   3.724   4.420 -0.2599 -0.5415  0.7622
  209DG      H6 4790   0.153   3.476   3.808 -1.1995 -2.0542 -1.3706
  209DG      H7 4791   0.168   3.420   3.976  1.5326  0.6387  0.2906
  209DG      H8 4792   0.017   3.403   3.881 -1.5071  3.8510 -1.8518
  209DG      O9 4793  -0.020   3.867   4.505  0.7042  0.0695 -0.2026
  209DG     O10 4794   0.057   3.602   3.945  0.2621  0.3915 -0.1120
  209DG     C11 4795  -0.153   3.824   4.459  0.7637 -0.4152 -0.3856
  209DG     C12 4796   0.060   3.639   4.084 -0.3543  0.2049 -0.0071
  209DG     H13 4797  -0.231   3.885   4.503 -0.5014 -1.6768 -0.8027
  209DG     H14 4798  -0.166   3.728   4.509  0.7359  0.1072  0.6294
  209DG     H15 4799   0.155   3.692   4.089  0.6258 -1.4452 -0.3037
  209DG     H16 4800   0.058   3.554   4.152 -0.9958 -1.4709 -1.9949
  209DG     C17 4801  -0.165   3.820   4.315 -0.2582 -0.3241  0.6008
  209DG     C18 4802  -0.056   3.732   4.118  0.0419 -0.0738  0.1475
  209DG     O19 4803  -0.051   3.760   4.254  0.1233 -0.1011  0.1804
  209DG     H20 4804  -0.167   3.922   4.279 -1.1677 -0.1600  1.0772
  209DG     H21 4805  -0.262   3.781   4.284  0.5924 -1.5870 -0.6270
  209DG     H22 4806  -0.054   3.825   4.060 -0.8452  0.6257  1.2047
  209DG     H23 4807  -0.149   3.678   4.103  0.8753 -2.5190  2.7759
  210DG      C1 4808   3.979   5.138   3.783 -0.5750 -0.1305 -0.5200
  210DG      C2 4809   3.627   4.519   3.725 -0.6741 -0.0804 -0.0827
  210DG      H3 4810   3.911   5.215   3.747 -1.0962  0.0367  0.7597
  210DG      H4 4811   4.083   5.170   3.778 -0.0743 -1.5895 -0.0806
  210DG      H5 4812   3.947   5.129   3.887  2.8424 -0.3159  0.6656
  210DG      H6 4813   3.605   4.415   3.698  2.0644  0.0624 -3.5843
  210DG      H7 4814   3.593   4.529   3.828  1.9019 -1.3594  0.9990
  210DG      H8 4815   3.571   4.594   3.670  1.3519  1.8928  0.4401
  210DG      O9 4816   3.960   5.024   3.708 -0.2749 -0.7441 -0.6014
  210DG     O10 4817   3.766   4.557   3.725 -0.0926  0.0153  0.4897
  210DG     C11 4818   4.078   4.940   3.689 -0.4038 -0.1807  0.1116
  210DG     C12 4819   3.820   4.553   3.588 -0.2971  0.1277 -0.1412
  210DG     H13 4820   4.101   4.888   3.782  4.4048 -1.0753 -1.3073
  210DG     H14 4821   4.168   4.998   3.671 -1.3109  1.6962  1.2393
  210DG     H15 4822   3.751   4.616   3.533 -1.4290  0.1575  1.2509
  210DG     H16 4823   3.826   4.452   3.548 -0.4939  0.2226 -0.4081
  210DG     C17 4824   4.053   4.835   3.583  0.3191  0.2861 -0.6314
  210DG     C18 4825   3.958   4.613   3.580  0.2777 -0.0496 -0.2511
  210DG     O19 4826   3.944   4.744   3.625 -0.4387 -0.1754  0.3181
  210DG     H20 4827   4.141   4.772   3.568  3.7168  4.2945  0.5161
  210DG     H21 4828   4.019   4.878   3.490 -0.2938  0.0963 -0.4967
  210DG     H22 4829   4.028   4.551   3.636 -0.7464  0.4061  1.6055
  210DG     H23 4830   3.988   4.609   3.475 -1.0248 -0.9689 -0.6103
  211DG      C1 4831   3.152   4.989   5.249  0.2744 -0.4126  0.6391
  211DG      C2 4832   3.554   4.747   5.722 -0.1179 -0.6414  0.2747
  211DG      H3 4833   3.191   4.997   5.350  1.8754  1.4767 -0.0550
  211DG      H4 4834   3.138   4.882   5.237  1.9041 -0.5133 -0.8005
  211DG      H5 4835   3.062   5.049   5.240  0.7637  0.1647 -0.8457
  211DG      H6 4836   3.455   4.725   5.762 -0.7653  1.8985  0.2910
  211DG      H7 4837   3.610   4.658   5.696  2.1875  0.7929  0.0814
  211DG      H8 4838   3.603   4.802   5.803 -1.7618 -0.1651  0.9897
  211DG      O9 4839   3.250   5.040   5.158 -0.1921 -0.0669  0.8567
  211DG     O10 4840   3.545   4.831   5.608 -0.5676 -0.2008 -0.1160
  211DG     C11 4841   3.385   4.991   5.165  0.0131 -0.3003  0.1007
  211DG     C12 4842   3.470   4.950   5.634  0.1444  0.3083 -0.2232
  211DG     H13 4843   3.433   5.008   5.069 -1.9867 -3.0234 -1.5641
  211DG     H14 4844   3.386   4.882   5.169 -3.7168 -0.4653  0.1598
  211DG     H15 4845   3.502   5.005   5.722  2.0161 -1.8169  0.5271
  211DG     H16 4846   3.367   4.919   5.647  0.6956 -1.0284  1.2689
  211DG     C17 4847   3.473   5.050   5.278 -1.2339  0.0452 -1.4268
  211DG     C18 4848   3.498   5.039   5.513  0.0554 -0.3450  0.1416
  211DG     O19 4849   3.441   4.979   5.396  0.1557  0.1295 -0.0064
  211DG     H20 4850   3.438   5.150   5.303  0.1318 -0.0461  1.2148
  211DG     H21 4851   3.577   5.060   5.249 -0.5517  2.9138  1.4869
  211DG     H22 4852   3.460   5.140   5.526  0.0144 -0.3913  0.3983
  211DG     H23 4853   3.606   5.051   5.507  0.4321 -0.6422  3.8596
  212DG      C1 4854   0.497   0.875   4.573 -0.8603 -0.5601  0.0820
  212DG      C2 4855  -0.021   0.605   4.611 -0.1912  0.0416  0.1037
  212DG      H3 4856   0.400   0.838   4.538 -0.4699 -1.5096 -0.0042
  212DG      H4 4857   0.542   0.804   4.642 -0.2311  1.1069  1.4662
  212DG      H5 4858   0.557   0.862   4.483 -1.0965 -0.1236 -0.1429
  212DG      H6 4859  -0.071   0.549   4.691 -0.6974 -0.5152 -0.5853
  212DG      H7 4860  -0.092   0.629   4.532  2.6542  2.2866 -1.9525
  212DG      H8 4861   0.057   0.549   4.559 -1.3213 -1.8401  0.3261
  212DG      O9 4862   0.503   1.005   4.619 -0.0384 -0.2958 -0.0723
  212DG     O10 4863   0.024   0.728   4.661  0.2497 -0.5125  0.3725
  212DG     C11 4864   0.441   1.019   4.747 -0.0869 -0.4836  0.4855
  212DG     C12 4865   0.142   0.716   4.730  0.5738 -0.5178 -0.0506
  212DG     H13 4866   0.482   1.113   4.786  1.9650 -0.6464 -1.1459
  212DG     H14 4867   0.461   0.943   4.823 -2.6176  0.7788  2.5928
  212DG     H15 4868   0.208   0.682   4.650  1.8966 -1.8750  1.5418
  212DG     H16 4869   0.127   0.638   4.804 -0.3159 -1.3281 -1.0546
  212DG     C17 4870   0.293   1.052   4.727 -0.7937  0.1775 -0.6461
  212DG     C18 4871   0.192   0.841   4.800 -0.2169 -0.5326 -0.6539
  212DG     O19 4872   0.211   0.937   4.692  0.2933  0.1701 -0.4834
  212DG     H20 4873   0.298   1.126   4.647  2.7896  2.3470  1.3020
  212DG     H21 4874   0.258   1.109   4.813  1.3215 -0.7730  0.9448
  212DG     H22 4875   0.123   0.884   4.872 -0.2860 -0.7434 -0.5945
  212DG     H23 4876   0.288   0.819   4.847 -0.8625 -0.3267  0.8026
  213DG      C1 4877   2.777   3.477   0.569  0.0427 -0.1855 -0.2681
  213DG      C2 4878   3.338   3.636   0.081  0.0585  0.3338  0.0665
  213DG      H3 4879   2.825   3.474   0.667 -0.3740  3.9408  0.2418
  213DG      H4 4880   2.806   3.392   0.508  0.7311  0.6236 -1.1034
  213DG      H5 4881   2.671   3.488   0.591  0.4260  1.2946  1.0404
  213DG      H6 4882   3.347   3.583  -0.013 -0.5947  2.2682 -1.1477
  213DG      H7 4883   3.398   3.725   0.059  1.9808 -1.0942 -0.7326
  213DG      H8 4884   3.383   3.574   0.159  0.7247 -0.9037 -1.2676
  213DG      O9 4885   2.835   3.598   0.509  0.2307  0.2316 -0.6231
  213DG     O10 4886   3.199   3.660   0.110 -0.0855  0.2287 -0.2722
  213DG     C11 4887   2.977   3.580   0.498  1.2013  0.1726 -0.5059
  213DG     C12 4888   3.174   3.785   0.170  0.4262 -0.5831 -0.9750
  213DG     H13 4889   3.015   3.498   0.438  1.4721  0.9648 -1.4482
  213DG     H14 4890   3.019   3.572   0.598  2.0569 -0.0362 -0.8762
  213DG     H15 4891   3.190   3.867   0.100 -0.0595  0.4078  0.0334
  213DG     H16 4892   3.231   3.794   0.262 -1.8769 -1.0751  0.5888
  213DG     C17 4893   3.017   3.711   0.436  0.5773 -0.2650  0.2914
  213DG     C18 4894   3.020   3.793   0.214  0.1129  0.2033 -0.0744
  213DG     O19 4895   2.985   3.692   0.304 -0.0353 -0.0771  0.2680
  213DG     H20 4896   3.120   3.738   0.458  0.3718  0.1637  0.7614
  213DG     H21 4897   2.958   3.794   0.476 -2.7298 -1.5545 -1.4824
  213DG     H22 4898   2.993   3.890   0.254 -1.1517  0.1705 -0.7913
  213DG     H23 4899   2.967   3.773   0.121 -2.5416  2.3347  0.8604
  214DG      C1 4900   4.619   4.359   1.703 -0.2288  0.7912  0.4020
  214DG      C2 4901   4.780   4.817   1.304 -0.3412 -0.2176  0.3830
  214DG      H3 4902   4.540   4.284   1.706 -0.9530  1.5137 -0.3323
  214DG      H4 4903   4.615   4.444   1.770 -0.3137  1.7078 -0.7390
  214DG      H5 4904   4.709   4.307   1.737  0.3709  0.8401 -1.0145
  214DG      H6 4905   4.819   4.877   1.222 -0.9433  1.3316  1.2054
  214DG      H7 4906   4.692   4.766   1.265 -1.1018  1.0678  0.4012
  214DG      H8 4907   4.757   4.884   1.387  0.2803  0.2591  0.1743
  214DG      O9 4908   4.623   4.396   1.563 -0.1122  0.6437  0.2230
  214DG     O10 4909   4.873   4.721   1.361 -0.2460 -0.0339 -0.1703
  214DG     C11 4910   4.672   4.296   1.477  0.4200  0.3564 -0.3029
  214DG     C12 4911   4.921   4.636   1.267  0.6532  0.7266 -0.3123
  214DG     H13 4912   4.586   4.229   1.471 -0.2695  1.3195 -2.2485
  214DG     H14 4913   4.757   4.234   1.506  0.6935  1.0749  0.4861
  214DG     H15 4914   5.018   4.590   1.285  0.4779  0.3102 -0.4094
  214DG     H16 4915   4.958   4.690   1.180  1.1008  2.0824  0.6949
  214DG     C17 4916   4.707   4.343   1.332  0.3006  0.5822  0.6305
  214DG     C18 4917   4.831   4.513   1.230 -0.5175 -0.5173  0.1778
  214DG     O19 4918   4.783   4.456   1.351  0.4865  0.5349 -0.4081
  214DG     H20 4919   4.624   4.372   1.268  0.3272  0.8341  0.7120
  214DG     H21 4920   4.770   4.271   1.280 -0.9907 -0.4582  0.4543
  214DG     H22 4921   4.746   4.551   1.172  0.2109  3.2555  1.3613
  214DG     H23 4922   4.892   4.435   1.184 -0.1587  0.4554 -1.0666
  215DG      C1 4923   3.337   2.985   4.075  0.3225 -0.3941  1.5968
  215DG      C2 4924   3.185   3.524   3.816 -0.2822 -0.0325  0.2497
  215DG      H3 4925   3.255   2.983   4.003  0.3565  2.3456  1.3968
  215DG      H4 4926   3.293   2.948   4.168  1.1474 -0.4766  1.9562
  215DG      H5 4927   3.416   2.923   4.031 -0.0678  0.4240 -0.3840
  215DG      H6 4928   3.117   3.597   3.859 -0.2928  1.4459 -2.1205
  215DG      H7 4929   3.227   3.562   3.723 -0.7433 -2.0967 -0.8658
  215DG      H8 4930   3.117   3.443   3.790 -2.9384  1.4572  2.1238
  215DG      O9 4931   3.368   3.119   4.085 -0.2361  0.2746  0.2919
  215DG     O10 4932   3.267   3.476   3.923 -0.0424 -0.2736 -0.4538
  215DG     C11 4933   3.448   3.158   4.196 -0.3325  0.3976  0.4781
  215DG     C12 4934   3.340   3.569   4.001 -0.4914  0.7437  0.4031
  215DG     H13 4935   3.528   3.092   4.228  0.4308  0.7933 -0.5658
  215DG     H14 4936   3.388   3.165   4.287 -0.0197 -0.2685  0.7405
  215DG     H15 4937   3.272   3.623   4.067 -1.3969  0.7670 -0.5135
  215DG     H16 4938   3.380   3.640   3.928 -1.4599  0.9137  0.0320
  215DG     C17 4939   3.511   3.292   4.168  0.1220  0.1099  0.3283
  215DG     C18 4940   3.455   3.497   4.070 -0.6231  0.5313 -0.7028
  215DG     O19 4941   3.407   3.377   4.133 -0.0451 -0.3894 -0.1474
  215DG     H20 4942   3.570   3.282   4.077 -0.6410  0.4799 -0.2198
  215DG     H21 4943   3.570   3.318   4.256 -0.0118 -1.4973  0.9314
  215DG     H22 4944   3.522   3.467   3.989 -0.5729  0.7993 -0.7618
  215DG     H23 4945   3.499   3.566   4.141 -1.0674  1.3125 -1.1758
  216DG      C1 4946   3.428   2.651   3.715 -0.1267 -0.5783  0.4019
  216DG      C2 4947   3.687   2.647   4.495 -0.1895  0.5873  0.3484
  216DG      H3 4948   3.327   2.623   3.685  0.7221 -1.9645 -1.3404
  216DG      H4 4949   3.463   2.726   3.645 -1.4510 -1.2626 -1.0521
  216DG      H5 4950   3.416   2.716   3.803  3.7530  3.5682 -1.7032
  216DG      H6 4951   3.665   2.541   4.503  1.9811 -0.3057 -3.2955
  216DG      H7 4952   3.791   2.660   4.465 -0.0738  1.0724  0.9492
  216DG      H8 4953   3.682   2.689   4.595  0.9241 -0.5922  0.9195
  216DG      O9 4954   3.506   2.544   3.739 -0.0241  0.2518 -0.2342
  216DG     O10 4955   3.605   2.702   4.394 -0.3451  0.3870  0.3969
  216DG     C11 4956   3.619   2.557   3.827  0.2518  0.5321 -0.7373
  216DG     C12 4957   3.649   2.669   4.252  0.3591 -0.0122 -0.2855
  216DG     H13 4958   3.686   2.642   3.813 -1.2639  2.1950  1.5836
  216DG     H14 4959   3.676   2.467   3.802  0.0395  0.6560 -1.7109
  216DG     H15 4960   3.701   2.574   4.255  1.1087  0.3913 -0.2581
  216DG     H16 4961   3.713   2.751   4.221 -1.3941  0.7247 -2.1945
  216DG     C17 4962   3.574   2.547   3.976  0.1846 -0.2180  0.3903
  216DG     C18 4963   3.519   2.673   4.170 -0.1975 -0.3732 -0.1132
  216DG     O19 4964   3.534   2.673   4.033  0.3655 -0.6946  0.0066
  216DG     H20 4965   3.655   2.505   4.036  1.6942 -0.4468 -1.7067
  216DG     H21 4966   3.490   2.478   3.985 -0.1458  0.3342  1.9395
  216DG     H22 4967   3.459   2.587   4.201  0.6601 -0.9109  0.0724
  216DG     H23 4968   3.462   2.761   4.198 -3.0391 -1.6472 -1.4713
  217DG      C1 4969   0.149   4.589   1.403  0.8136  0.1027  0.4561
  217DG      C2 4970  -0.035   3.969   1.922  0.1293 -0.2731  0.1788
  217DG      H3 4971   0.173   4.635   1.307  0.6888  0.7698  0.7391
  217DG      H4 4972   0.215   4.641   1.473 -0.9174  0.1642  2.1352
  217DG      H5 4973   0.052   4.628   1.436  0.8715 -0.5979  1.5242
  217DG      H6 4974  -0.061   3.863   1.920 -0.7825 -0.0697  0.4225
  217DG      H7 4975   0.035   4.001   1.999  0.8257  1.0497 -0.9481
  217DG      H8 4976  -0.127   4.028   1.925  1.5800  2.0696  0.9449
  217DG      O9 4977   0.149   4.447   1.388 -0.1954  0.0265 -0.4429
  217DG     O10 4978   0.029   4.004   1.799 -0.1956 -0.3084 -0.2745
  217DG     C11 4979   0.106   4.380   1.506  0.0100  0.6194  0.5149
  217DG     C12 4980  -0.029   3.948   1.686  0.1634 -0.8906  0.4370
  217DG     H13 4981   0.017   4.424   1.551 -0.2856  0.5766 -0.0268
  217DG     H14 4982   0.179   4.400   1.585  1.2051  0.9500 -0.6279
  217DG     H15 4983  -0.137   3.964   1.680  0.5196  1.8736 -0.1631
  217DG     H16 4984  -0.010   3.841   1.684  1.3273 -0.7049  0.5766
  217DG     C17 4985   0.101   4.232   1.472 -0.5214  0.3381  0.0887
  217DG     C18 4986   0.037   4.015   1.570  0.4341 -0.0334 -1.3556
  217DG     O19 4987   0.044   4.163   1.588  0.1469 -0.4525 -0.3880
  217DG     H20 4988   0.196   4.185   1.446 -0.4088  0.6121 -0.0010
  217DG     H21 4989   0.035   4.203   1.391 -1.0249  0.7943  0.3263
  217DG     H22 4990   0.137   3.972   1.571  0.5310  0.1458 -2.1949
  217DG     H23 4991  -0.007   3.979   1.477  0.1487 -0.1598 -1.1747
  218DG      C1 4992   4.887   1.560   4.656 -0.1190  0.9860  0.7253
  218DG      C2 4993   5.218   0.900   4.580 -0.4227  0.4174  0.0260
  218DG      H3 4994   4.900   1.665   4.633  2.5373  0.7490  0.8355
  218DG      H4 4995   4.865   1.548   4.762 -0.5122  2.4948  0.8249
  218DG      H5 4996   4.799   1.522   4.603 -0.9104  2.3139  1.0518
  218DG      H6 4997   5.294   0.855   4.516 -0.9629  1.0685 -1.0764
  218DG      H7 4998   5.224   0.833   4.667 -0.4694 -2.6977 -2.2044
  218DG      H8 4999   5.124   0.890   4.526 -0.7034  0.8618  0.4329
  218DG      O9 5000   5.007   1.481   4.621 -0.1077  0.1873 -0.0785
  218DG     O10 5001   5.248   1.040   4.591 -0.2460 -0.2445 -0.0706
  218DG     C11 5002   5.107   1.499   4.718 -0.0993  0.5356  0.2116
  218DG     C12 5003   5.325   1.068   4.707 -0.1134 -0.0941  0.8506
  218DG     H13 5004   5.070   1.471   4.817  2.0552 -0.9574  0.6782
  218DG     H14 5005   5.135   1.603   4.732  0.8643  0.3338 -0.1048
  218DG     H15 5006   5.424   1.026   4.695  0.1636  0.7827 -0.0832
  218DG     H16 5007   5.274   1.028   4.795 -1.6874 -0.0821 -0.0179
  218DG     C17 5008   5.238   1.430   4.685  0.4159 -0.0063  0.2664
  218DG     C18 5009   5.338   1.222   4.719  0.3650 -0.4828 -0.7464
  218DG     O19 5010   5.223   1.289   4.671  0.2445  0.4081 -0.2439
  218DG     H20 5011   5.312   1.450   4.762  0.9988 -4.8072  1.3021
  218DG     H21 5012   5.283   1.461   4.590  2.3616 -2.4600  0.2961
  218DG     H22 5013   5.362   1.246   4.823  0.6415  0.2703 -0.9774
  218DG     H23 5014   5.427   1.259   4.669  0.6522 -1.1781 -0.7664
  219DG      C1 5015   1.083   3.294   2.231 -0.4463 -0.3548  0.1552
  219DG      C2 5016   1.495   3.465   1.806 -0.1336 -0.4384  0.0658
  219DG      H3 5017   1.105   3.223   2.310  0.0826  0.2808  0.5944
  219DG      H4 5018   1.183   3.323   2.197 -0.7768  0.2997 -0.2919
  219DG      H5 5019   1.035   3.254   2.141 -2.1834  2.3069 -0.2201
  219DG      H6 5020   1.533   3.403   1.887  0.4354  0.4795  0.5202
  219DG      H7 5021   1.500   3.412   1.711 -0.5798  2.3287 -1.6218
  219DG      H8 5022   1.546   3.561   1.795 -0.2692  0.2484  3.8615
  219DG      O9 5023   0.998   3.396   2.278 -0.1982 -0.1305  0.5702
  219DG     O10 5024   1.357   3.482   1.840 -0.3275 -0.3389  0.3602
  219DG     C11 5025   0.939   3.474   2.177  0.1466 -0.0672  0.2020
  219DG     C12 5026   1.340   3.524   1.971  0.1273  0.1346 -0.3819
  219DG     H13 5027   0.836   3.493   2.204 -0.1262  2.6900 -2.2680
  219DG     H14 5028   0.933   3.422   2.081  1.9617  1.1653 -0.6496
  219DG     H15 5029   1.386   3.621   1.988 -1.8760  1.0761 -0.0130
  219DG     H16 5030   1.372   3.458   2.051  2.2109  2.1571  0.5793
  219DG     C17 5031   1.022   3.601   2.159  0.7186 -0.0892 -0.5304
  219DG     C18 5032   1.186   3.542   1.996  0.2670  0.0046  0.5789
  219DG     O19 5033   1.165   3.583   2.131 -0.0157 -0.2613 -0.1586
  219DG     H20 5034   1.011   3.664   2.247 -0.9853  1.1998 -1.6174
  219DG     H21 5035   0.976   3.658   2.079 -1.3900  0.4710  1.0115
  219DG     H22 5036   1.160   3.629   1.935 -1.5495  0.3831  1.7978
  219DG     H23 5037   1.131   3.455   1.961 -0.5639  1.3593 -1.7410
  220DG      C1 5038   1.134   4.146   2.410  0.5525 -0.9174 -0.3556
  220DG      C2 5039   0.737   3.611   1.891  0.1138  0.2485 -0.2426
  220DG      H3 5040   1.129   4.233   2.344  1.7783 -0.4201  0.1783
  220DG      H4 5041   1.205   4.074   2.369 -0.9402 -2.1270 -0.9263
  220DG      H5 5042   1.176   4.169   2.507  0.4468  1.6846 -0.8717
  220DG      H6 5043   0.808   3.530   1.905 -1.0447 -0.8596 -0.6398
  220DG      H7 5044   0.639   3.570   1.868  0.5914  0.3710 -2.8046
  220DG      H8 5045   0.777   3.685   1.822 -1.8392  0.4734 -1.1964
  220DG      O9 5046   1.008   4.083   2.413 -0.3500 -0.4904  0.3286
  220DG     O10 5047   0.726   3.675   2.015  0.7567  0.3122 -0.2215
  220DG     C11 5048   0.974   4.024   2.285 -0.1200  0.2007 -0.6355
  220DG     C12 5049   0.652   3.801   2.018 -0.3960 -0.7920 -0.2772
  220DG     H13 5050   1.049   3.960   2.237  0.1384  0.2299 -0.2741
  220DG     H14 5051   0.955   4.109   2.220 -0.5800  1.8874  1.6065
  220DG     H15 5052   0.547   3.778   1.998 -1.1267 -0.3294  2.6027
  220DG     H16 5053   0.684   3.872   1.942 -0.4528  0.1727  0.5783
  220DG     C17 5054   0.841   3.960   2.306  0.7324  0.0363 -0.0623
  220DG     C18 5055   0.680   3.858   2.160  0.7965  0.7697  0.7485
  220DG     O19 5056   0.808   3.912   2.173  0.0118 -0.1393  0.3276
  220DG     H20 5057   0.767   4.034   2.336  1.3967  1.2909 -1.3760
  220DG     H21 5058   0.863   3.880   2.376  1.8844  0.6478  0.2818
  220DG     H22 5059   0.606   3.937   2.174  1.4828  1.6405 -0.3750
  220DG     H23 5060   0.649   3.784   2.234 -1.8415  1.6284  0.6061
  221DG      C1 5061   1.711   3.755   4.734 -0.2000 -0.5872  0.2681
  221DG      C2 5062   1.896   4.369   4.363  0.3314  0.4153  0.2687
  221DG      H3 5063   1.725   3.828   4.814 -1.8681  0.4739 -0.3564
  221DG      H4 5064   1.693   3.666   4.794 -2.7230  0.4928  1.2535
  221DG      H5 5065   1.612   3.791   4.706 -0.5546  0.4522  2.5630
  221DG      H6 5066   1.942   4.468   4.362 -0.5850  0.8858  1.7192
  221DG      H7 5067   1.921   4.327   4.265 -0.5384  2.5734 -0.9767
  221DG      H8 5068   1.791   4.391   4.379  0.5236 -0.2182  2.6676
  221DG      O9 5069   1.810   3.741   4.633  0.7741 -0.4220 -0.9030
  221DG     O10 5070   1.944   4.296   4.473 -0.5638 -0.3184 -0.0160
  221DG     C11 5071   1.941   3.745   4.690  0.2417  0.2822  0.0808
  221DG     C12 5072   1.908   4.158   4.477  0.1792  0.0473  0.0178
  221DG     H13 5073   2.002   3.687   4.622 -1.0007 -1.1560  0.1426
  221DG     H14 5074   1.956   3.688   4.781  1.0476  0.2809 -0.0462
  221DG     H15 5075   1.955   4.106   4.394 -0.9978  1.4641 -1.6243
  221DG     H16 5076   1.802   4.148   4.452  0.3920  0.4265 -1.0586
  221DG     C17 5077   1.993   3.887   4.695  0.2817 -0.1215 -0.5435
  221DG     C18 5078   1.947   4.097   4.605 -0.3398 -0.2098 -0.0917
  221DG     O19 5079   1.961   3.959   4.580 -0.0989 -0.3416 -0.1101
  221DG     H20 5080   2.100   3.881   4.715 -0.1186 -0.5622  1.7897
  221DG     H21 5081   1.955   3.940   4.783 -0.4787 -1.6459  0.0790
  221DG     H22 5082   2.047   4.122   4.642  0.6025 -0.1627 -2.4896
  221DG     H23 5083   1.874   4.118   4.683 -1.2305 -1.9341 -0.4043
  222DG      C1 5084   3.881   4.846   0.177 -0.3207 -0.2375 -0.2681
  222DG      C2 5085   4.275   5.312  -0.133 -0.5031 -0.5456  0.6300
  222DG      H3 5086   3.959   4.772   0.162 -1.1150 -1.0172 -0.6757
  222DG      H4 5087   3.801   4.846   0.103 -1.9277 -1.6350  1.3608
  222DG      H5 5088   3.846   4.802   0.271  0.3611 -2.7691 -1.1426
  222DG      H6 5089   4.302   5.216  -0.175 -0.4525 -0.6849  0.9783
  222DG      H7 5090   4.222   5.353  -0.219 -0.0178 -1.8220 -0.3083
  222DG      H8 5091   4.365   5.370  -0.112 -1.8122  2.3798 -1.0772
  222DG      O9 5092   3.937   4.979   0.193 -0.4510  0.6803 -0.4502
  222DG     O10 5093   4.186   5.288  -0.029  0.4092 -0.0120  0.0087
  222DG     C11 5094   3.838   5.072   0.226 -0.7678  0.7168  0.0079
  222DG     C12 5095   4.097   5.398   0.002  0.9420  0.2525  0.0688
  222DG     H13 5096   3.802   5.035   0.322  2.2154 -0.8738  0.6173
  222DG     H14 5097   3.752   5.087   0.161 -0.6850  0.5971 -0.1301
  222DG     H15 5098   4.036   5.405  -0.088  0.9580  1.3703  0.1235
  222DG     H16 5099   4.152   5.493   0.009  0.5336  0.3968  1.7620
  222DG     C17 5100   3.903   5.209   0.244  0.0798  0.1928  0.1899
  222DG     C18 5101   4.009   5.383   0.129 -0.3036 -0.5733  0.9960
  222DG     O19 5102   3.966   5.248   0.123  0.0972  0.4418  0.4044
  222DG     H20 5103   3.982   5.209   0.320  3.3739  0.4294 -2.9644
  222DG     H21 5104   3.829   5.282   0.278  0.4361  1.2845 -1.2583
  222DG     H22 5105   4.073   5.406   0.215  2.6279  2.2048 -1.6652
  222DG     H23 5106   3.930   5.458   0.124 -0.3402 -0.6752 -0.0636
  223DG      C1 5107   3.125   1.658   3.391  0.4592 -0.3884  0.5769
  223DG      C2 5108   3.163   2.253   3.661 -0.9421  0.4114 -0.0868
  223DG      H3 5109   3.114   1.550   3.404 -1.2861 -0.4135 -0.6770
  223DG      H4 5110   3.192   1.682   3.309 -1.8615 -0.7046 -1.5127
  223DG      H5 5111   3.029   1.687   3.347  0.1152 -1.8848  0.2985
  223DG      H6 5112   3.237   2.291   3.732 -1.1701 -1.3424  1.1620
  223DG      H7 5113   3.176   2.277   3.556 -1.1300  0.8300 -0.0194
  223DG      H8 5114   3.065   2.293   3.690 -0.3295  1.2676  0.9106
  223DG      O9 5115   3.150   1.735   3.507 -0.6917  0.5031 -0.6121
  223DG     O10 5116   3.166   2.106   3.675  0.0503  0.0690  0.3536
  223DG     C11 5117   3.048   1.705   3.603  0.8475  0.7981  0.0697
  223DG     C12 5118   3.135   2.071   3.809  0.5412  0.7372 -0.3056
  223DG     H13 5119   3.004   1.606   3.593  0.3784  1.0707 -0.6713
  223DG     H14 5120   2.967   1.777   3.590  1.2794  1.8303  2.5408
  223DG     H15 5121   3.077   2.138   3.872 -0.0166  2.1132 -2.1714
  223DG     H16 5122   3.229   2.047   3.859  1.2973 -2.6738 -2.9616
  223DG     C17 5123   3.116   1.713   3.738 -0.1778 -0.5729 -0.7221
  223DG     C18 5124   3.063   1.938   3.805 -0.2255 -0.0479  0.4272
  223DG     O19 5125   3.162   1.851   3.750 -0.2122  0.1558 -0.0372
  223DG     H20 5126   3.209   1.659   3.754 -0.0235  0.2256  1.3696
  223DG     H21 5127   3.042   1.684   3.813 -1.6006 -0.7262 -2.1241
  223DG     H22 5128   3.030   1.915   3.907  1.1803  1.6726  1.3310
  223DG     H23 5129   2.976   1.952   3.740  0.3517  0.9849 -0.1554
  224DG      C1 5130   2.274   1.675   0.253 -0.1681  0.4112  0.0631
  224DG      C2 5131   2.551   2.461   0.006  0.3392 -0.3446  0.3656
  224DG      H3 5132   2.207   1.731   0.319 -0.0306  0.2453  0.3437
  224DG      H4 5133   2.312   1.598   0.320 -2.9353 -0.0862  1.2039
  224DG      H5 5134   2.221   1.608   0.187 -1.9997 -0.6007  2.4236
  224DG      H6 5135   2.461   2.496   0.057  0.5893 -0.6784  1.0439
  224DG      H7 5136   2.624   2.541   0.007  1.0167 -0.9486  0.1771
  224DG      H8 5137   2.516   2.440  -0.095 -0.3340 -0.0278  0.5269
  224DG      O9 5138   2.381   1.756   0.194 -0.4035  0.2825  0.6407
  224DG     O10 5139   2.605   2.340   0.059 -0.0678 -0.0074 -0.2242
  224DG     C11 5140   2.325   1.842   0.091 -0.0113 -0.0538  0.4442
  224DG     C12 5141   2.522   2.226   0.050  0.4838  0.2672 -0.4175
  224DG     H13 5142   2.247   1.909   0.127 -0.7491  0.3942 -1.8290
  224DG     H14 5143   2.272   1.783   0.017 -0.8592  2.4668 -1.0877
  224DG     H15 5144   2.506   2.193  -0.052  0.8708 -2.2059  0.2548
  224DG     H16 5145   2.429   2.237   0.106  1.7183  0.5756  1.6946
  224DG     C17 5146   2.429   1.938   0.034 -0.6711  0.0070  0.0128
  224DG     C18 5147   2.588   2.105   0.117 -0.2105 -0.1537 -0.9067
  224DG     O19 5148   2.487   2.006   0.144  0.7814 -0.6215 -0.1355
  224DG     H20 5149   2.387   2.010  -0.036 -0.9325 -1.1303 -1.0417
  224DG     H21 5150   2.509   1.886  -0.019 -0.1995  1.1834 -0.4731
  224DG     H22 5151   2.680   2.061   0.077  0.9764  0.5702  0.9021
  224DG     H23 5152   2.620   2.146   0.213  2.6308  1.5600 -2.4332
  225DG      C1 5153   5.065   0.094   1.182 -0.6050  0.2064 -0.1598
  225DG      C2 5154   4.948  -0.563   0.963 -0.3636 -0.5605  0.3565
  225DG      H3 5155   5.107   0.123   1.277  0.1784 -2.5907  0.4556
  225DG      H4 5156   5.060   0.182   1.118 -0.5134  0.7189  0.5317
  225DG      H5 5157   5.147   0.041   1.133 -1.3994  0.0803 -1.4023
  225DG      H6 5158   5.052  -0.579   0.936 -0.9123 -1.3841 -1.4679
  225DG      H7 5159   4.959  -0.539   1.068  1.5867 -0.2953  0.1295
  225DG      H8 5160   4.887  -0.653   0.952 -2.5078  0.7585  0.7619
  225DG      O9 5161   4.950   0.013   1.185 -0.1586  0.4826 -0.0480
  225DG     O10 5162   4.899  -0.447   0.902 -0.6102  0.1955  0.0803
  225DG     C11 5163   4.984  -0.103   1.261  0.0036  0.2413  0.1893
  225DG     C12 5164   4.774  -0.408   0.961  0.3260 -0.5482  0.5209
  225DG     H13 5165   5.020  -0.077   1.360  1.9144 -0.3848 -0.2855
  225DG     H14 5166   5.068  -0.147   1.207  0.0825 -0.4737  0.8760
  225DG     H15 5167   4.723  -0.489   1.013 -1.0342 -0.2970 -0.3724
  225DG     H16 5168   4.714  -0.394   0.871  0.7063 -0.4831  0.2713
  225DG     C17 5169   4.861  -0.195   1.258 -0.3379  0.4815  0.2860
  225DG     C18 5170   4.783  -0.277   1.041  0.0403 -0.3758  0.0942
  225DG     O19 5171   4.874  -0.293   1.151  0.0978  0.5078 -0.0593
  225DG     H20 5172   4.769  -0.137   1.255 -1.3403 -1.0795 -1.9614
  225DG     H21 5173   4.848  -0.253   1.350 -0.6061  0.4233  0.2141
  225DG     H22 5174   4.832  -0.210   0.971  2.0063 -0.9550  0.8715
  225DG     H23 5175   4.684  -0.239   1.066  0.7624  0.8243  1.1859
  226DG      C1 5176   5.147   2.619   1.102  0.1363  0.3081 -0.4238
  226DG      C2 5177   5.482   2.942   1.821  0.4302 -0.2584  0.1558
  226DG      H3 5178   5.153   2.638   0.995 -1.3800 -0.0642 -0.6099
  226DG      H4 5179   5.040   2.599   1.115  0.3481 -1.1367 -0.7257
  226DG      H5 5180   5.197   2.530   1.141  0.6940  1.6231  2.0947
  226DG      H6 5181   5.568   3.004   1.848  0.9073 -0.0918 -1.6528
  226DG      H7 5182   5.397   2.975   1.881  1.3211 -0.1348  1.3888
  226DG      H8 5183   5.505   2.838   1.844 -0.9275 -0.4251  0.8465
  226DG      O9 5184   5.183   2.732   1.182 -0.4363  0.4883  0.0952
  226DG     O10 5185   5.467   2.963   1.678 -0.2733 -0.4907  0.0573
  226DG     C11 5186   5.313   2.762   1.152 -0.0483  0.4563 -0.0039
  226DG     C12 5187   5.385   2.868   1.612 -0.4289 -0.5811  0.8066
  226DG     H13 5188   5.335   2.789   1.048  1.1046  0.8688  0.3328
  226DG     H14 5189   5.381   2.684   1.185 -0.8248  0.2317  1.0945
  226DG     H15 5190   5.304   2.824   1.670 -1.1760 -1.3639 -0.7696
  226DG     H16 5191   5.446   2.780   1.590  0.1109 -0.1909  0.7014
  226DG     C17 5192   5.349   2.887   1.238  0.2476 -0.2477  0.1823
  226DG     C18 5193   5.358   2.935   1.471 -0.6289  0.0860 -0.5361
  226DG     O19 5194   5.329   2.840   1.371  0.2026  0.0683  0.0596
  226DG     H20 5195   5.292   2.978   1.216 -2.8776 -1.8325  1.0827
  226DG     H21 5196   5.457   2.898   1.230  0.6248 -1.0013  3.1989
  226DG     H22 5197   5.270   2.994   1.497  0.1389  0.1754  2.1778
  226DG     H23 5198   5.449   2.989   1.443  1.4040 -2.1427  1.3711
  227DG      C1 5199   0.753   1.393   2.979  0.2588  0.1604 -1.0497
  227DG      C2 5200   0.836   1.066   3.651  0.3765  0.2319 -0.2565
  227DG      H3 5201   0.664   1.424   2.925 -1.3081 -2.1409  0.0412
  227DG      H4 5202   0.835   1.458   2.949  0.0257  1.3307  0.6896
  227DG      H5 5203   0.739   1.415   3.085 -0.7996 -0.5998 -1.0241
  227DG      H6 5204   0.897   1.155   3.660 -0.8812  1.4169 -2.6820
  227DG      H7 5205   0.802   1.043   3.753  0.7084 -1.8872 -0.5746
  227DG      H8 5206   0.897   0.983   3.614 -0.2897 -0.1677 -0.4726
  227DG      O9 5207   0.791   1.257   2.957  0.1019 -0.1217 -0.3773
  227DG     O10 5208   0.722   1.103   3.566  0.2374  0.3854 -0.2306
  227DG     C11 5209   0.678   1.168   2.992  0.0075 -0.7341 -0.5892
  227DG     C12 5210   0.767   1.124   3.434  0.9551 -0.6900  0.0095
  227DG     H13 5211   0.687   1.086   2.921  0.8614 -0.5364 -0.7171
  227DG     H14 5212   0.581   1.211   2.964  0.8226  1.6112 -0.0315
  227DG     H15 5213   0.817   1.038   3.389  3.9254  1.0163 -0.1694
  227DG     H16 5214   0.820   1.218   3.426 -1.1762  0.6389  0.6268
  227DG     C17 5215   0.693   1.104   3.129 -0.1980  0.6568 -0.1884
  227DG     C18 5216   0.640   1.141   3.356  0.0937 -0.5569  0.3236
  227DG     O19 5217   0.653   1.193   3.229  0.0646 -0.2581  0.0465
  227DG     H20 5218   0.794   1.070   3.150 -0.4813 -0.2715 -0.2581
  227DG     H21 5219   0.628   1.016   3.137 -0.0890  0.5820 -0.1173
  227DG     H22 5220   0.588   1.046   3.349 -1.2815  0.1466  0.6528
  227DG     H23 5221   0.580   1.212   3.412  2.5082  1.3412  0.6682
  228DG      C1 5222   3.061   3.758   0.913  0.8018 -0.1010 -0.6904
  228DG      C2 5223   3.484   3.262   1.067 -0.0894  0.5512  0.0146
  228DG      H3 5224   3.048   3.672   0.847  1.6229  1.6895 -3.3465
  228DG      H4 5225   3.046   3.845   0.849  0.8189  0.2153 -0.2646
  228DG      H5 5226   3.001   3.752   1.003  1.7189 -1.0318 -0.1192
  228DG      H6 5227   3.580   3.306   1.042  1.7843 -2.6423  0.9222
  228DG      H7 5228   3.498   3.179   1.137 -0.5712  1.8134  1.6597
  228DG      H8 5229   3.435   3.222   0.978  1.0470 -1.6935  0.3015
  228DG      O9 5230   3.197   3.740   0.954  0.2731 -0.4794  0.1715
  228DG     O10 5231   3.401   3.354   1.142  0.0479 -0.1307 -0.1373
  228DG     C11 5232   3.234   3.812   1.075 -0.0187 -0.6062  0.4061
  228DG     C12 5233   3.469   3.431   1.244  0.6125 -0.1766 -0.3691
  228DG     H13 5234   3.170   3.899   1.087 -0.2007 -0.7998  0.8819
  228DG     H14 5235   3.331   3.855   1.050 -0.4784  1.4210  1.8554
  228DG     H15 5236   3.552   3.485   1.198  0.7943  0.9539  1.2091
  228DG     H16 5237   3.506   3.363   1.320 -1.2418  0.0051  0.7705
  228DG     C17 5238   3.235   3.719   1.202 -0.5514  0.0383  0.5607
  228DG     C18 5239   3.367   3.533   1.289  1.1529 -0.2680 -0.2963
  228DG     O19 5240   3.319   3.605   1.173  0.3233  0.4459  0.0371
  228DG     H20 5241   3.131   3.698   1.228 -1.5127  1.0779 -2.0673
  228DG     H21 5242   3.281   3.768   1.287 -0.3878  0.2852  0.3337
  228DG     H22 5243   3.283   3.481   1.335  1.1676 -1.4495 -1.5432
  228DG     H23 5244   3.414   3.595   1.366  1.1035 -1.6055  0.8455
  229DG      C1 5245   5.061   4.241   3.444 -0.0744 -0.0269  0.7727
  229DG      C2 5246   4.582   3.716   3.340  0.0970 -0.1202  0.2206
  229DG      H3 5247   5.017   4.283   3.352  1.6907  1.0422  0.3678
  229DG      H4 5248   5.167   4.229   3.425 -0.2915 -1.6408  0.4132
  229DG      H5 5249   5.037   4.316   3.520 -0.9555  0.9519 -0.4218
  229DG      H6 5250   4.549   3.772   3.252  1.9271  0.4181 -0.1628
  229DG      H7 5251   4.578   3.612   3.310 -1.3649  0.0512 -0.2901
  229DG      H8 5252   4.506   3.722   3.418  0.8521  0.3773  0.9359
  229DG      O9 5253   4.997   4.121   3.476  0.0910 -0.5302  0.6495
  229DG     O10 5254   4.702   3.765   3.396 -0.4455  0.3429 -0.6016
  229DG     C11 5255   5.034   4.081   3.604  0.7014  0.5424  0.2755
  229DG     C12 5256   4.747   3.684   3.514  0.5284  0.3481 -0.2188
  229DG     H13 5257   4.984   4.129   3.688 -0.7517 -0.7788  0.2244
  229DG     H14 5258   5.139   4.106   3.616  1.0013 -0.2497 -0.5605
  229DG     H15 5259   4.739   3.580   3.484  1.3267  0.2277 -0.0157
  229DG     H16 5260   4.680   3.701   3.598 -0.4753 -0.3475 -0.8508
  229DG     C17 5261   5.027   3.920   3.611  1.2910 -0.5696  0.1839
  229DG     C18 5262   4.887   3.721   3.560  0.2079  0.3303  0.2682
  229DG     O19 5263   4.903   3.867   3.554  0.4171  0.3841  0.8314
  229DG     H20 5264   5.050   3.879   3.709 -0.4722 -2.8466 -0.2555
  229DG     H21 5265   5.110   3.888   3.548 -0.9120 -0.7736 -2.9090
  229DG     H22 5266   4.896   3.673   3.658  0.0950 -2.8037 -1.1354
  229DG     H23 5267   4.965   3.671   3.503  0.4248  0.0139  0.8330
  230DG      C1 5268   2.965   1.074   2.747 -0.1180  0.2762 -0.6635
  230DG      C2 5269   2.477   1.318   3.245  0.2672  0.1405  0.1662
  230DG      H3 5270   3.024   1.146   2.804 -1.7146  2.0893 -1.2080
  230DG      H4 5271   2.990   1.098   2.643  0.4740 -0.1473 -0.6281
  230DG      H5 5272   2.995   0.974   2.780 -3.3376  0.6246  4.3895
  230DG      H6 5273   2.478   1.263   3.339 -0.0950 -1.6455 -0.8336
  230DG      H7 5274   2.575   1.358   3.220 -0.0458  0.9379  0.1829
  230DG      H8 5275   2.404   1.398   3.242  0.7861  0.6382  0.5194
  230DG      O9 5276   2.835   1.094   2.769 -0.3122  0.3538 -0.1514
  230DG     O10 5277   2.440   1.214   3.153 -0.3956  0.1404  0.1581
  230DG     C11 5278   2.796   1.023   2.884  0.6638 -0.0393  1.3312
  230DG     C12 5279   2.422   1.257   3.018 -0.0622 -0.4052  0.1148
  230DG     H13 5280   2.815   1.081   2.974 -0.9775 -0.1391  1.7688
  230DG     H14 5281   2.844   0.926   2.894  1.1643  0.0904  0.3626
  230DG     H15 5282   2.502   1.329   3.002  1.3823 -1.9752  0.0087
  230DG     H16 5283   2.324   1.302   3.003  0.7396  1.8295  1.1400
  230DG     C17 5284   2.643   1.010   2.879 -0.2801 -0.7966  0.2018
  230DG     C18 5285   2.446   1.134   2.926 -0.1154 -0.3005 -0.3384
  230DG     O19 5286   2.594   1.126   2.931 -0.2168 -0.0136  0.3753
  230DG     H20 5287   2.619   0.920   2.935 -1.9584 -2.4619 -2.8779
  230DG     H21 5288   2.608   0.992   2.777 -0.8327  0.8638  0.0629
  230DG     H22 5289   2.395   1.048   2.968  1.4513 -0.5816  1.1064
  230DG     H23 5290   2.400   1.146   2.828 -3.3343  0.0335  1.0988
  231DG      C1 5291   3.075   1.297   4.450 -0.5736  0.4740 -0.3946
  231DG      C2 5292   2.829   0.705   5.064  0.4807  0.0732  0.7123
  231DG      H3 5293   3.035   1.255   4.358  0.1984  0.2604 -0.6365
  231DG      H4 5294   3.178   1.327   4.431  0.0484 -0.5681  1.1559
  231DG      H5 5295   3.011   1.383   4.474 -0.5787 -0.0975  1.8905
  231DG      H6 5296   2.824   0.597   5.070 -2.8709  0.0664  0.0920
  231DG      H7 5297   2.872   0.739   5.158  0.3961 -0.3384  0.8980
  231DG      H8 5298   2.728   0.747   5.062  0.2011 -0.5963  0.5269
  231DG      O9 5299   3.073   1.197   4.550  0.0883  0.2879 -0.9407
  231DG     O10 5300   2.920   0.743   4.958  0.3674  0.0523  0.3563
  231DG     C11 5301   3.141   1.235   4.668  0.1220 -0.5684  0.2837
  231DG     C12 5302   2.927   0.882   4.940 -0.5223 -0.0668 -0.3870
  231DG     H13 5303   3.084   1.308   4.725 -0.6880 -1.5469  0.7406
  231DG     H14 5304   3.244   1.264   4.647  0.3041 -0.9831  0.5974
  231DG     H15 5305   2.964   0.920   5.035 -0.8695 -0.8463  0.0736
  231DG     H16 5306   2.835   0.938   4.924  0.0981  2.0993  2.7448
  231DG     C17 5307   3.156   1.107   4.753  0.3256  0.7393  0.1694
  231DG     C18 5308   3.044   0.910   4.847 -0.1494  0.3735  0.6909
  231DG     O19 5309   3.037   1.051   4.815  0.0250 -0.0905 -0.4107
  231DG     H20 5310   3.231   1.122   4.831  0.3614 -0.4207  0.3668
  231DG     H21 5311   3.199   1.025   4.696 -0.5255  0.2707  0.1856
  231DG     H22 5312   3.136   0.876   4.894 -1.1649 -0.9316  1.8287
  231DG     H23 5313   3.036   0.863   4.749 -0.9775  1.8976  0.0040
  232DG      C1 5314   5.212   4.769   2.936 -0.0307 -0.2905  0.0294
  232DG      C2 5315   5.437   4.214   2.359  0.1693 -0.3503  0.2234
  232DG      H3 5316   5.247   4.836   2.857  0.4469 -1.5615 -0.8587
  232DG      H4 5317   5.265   4.772   3.031 -0.8282 -0.8681  0.5052
  232DG      H5 5318   5.107   4.790   2.960 -0.1387 -2.1123  1.3023
  232DG      H6 5319   5.443   4.284   2.276  2.4369 -0.4363  0.2642
  232DG      H7 5320   5.530   4.159   2.369 -1.0886 -2.5065  0.6857
  232DG      H8 5321   5.355   4.143   2.342 -1.0939  1.0869  0.0493
  232DG      O9 5322   5.215   4.640   2.871 -0.3487 -0.7963 -0.3208
  232DG     O10 5323   5.398   4.276   2.479 -0.5888  0.8816 -0.0220
  232DG     C11 5324   5.329   4.564   2.899 -0.0162  0.4997  0.1396
  232DG     C12 5325   5.486   4.378   2.514 -0.1600 -0.1586 -0.6472
  232DG     H13 5326   5.326   4.554   3.008 -1.3318  0.1408  0.0930
  232DG     H14 5327   5.418   4.622   2.875  0.4715  0.6895  2.1801
  232DG     H15 5328   5.461   4.477   2.477  0.0475  0.1336  0.0016
  232DG     H16 5329   5.590   4.365   2.483  0.1231 -0.9607  0.5702
  232DG     C17 5330   5.314   4.420   2.844  0.1469 -0.3197 -0.1235
  232DG     C18 5331   5.476   4.388   2.667  0.9805  0.0886 -0.2935
  232DG     O19 5332   5.339   4.411   2.702 -0.0867  0.6908 -0.3956
  232DG     H20 5333   5.211   4.391   2.864 -0.0950 -1.2676 -2.4404
  232DG     H21 5334   5.370   4.345   2.898 -0.8668 -0.2253  1.0935
  232DG     H22 5335   5.515   4.297   2.713  0.3466  0.3328  0.7730
  232DG     H23 5336   5.533   4.474   2.702 -1.2982  0.6282  2.5171
  233DG      C1 5337   4.527   0.293   3.100 -0.7723 -0.2602 -0.1296
  233DG      C2 5338   3.789   0.041   2.734 -0.0494  0.0745 -1.2135
  233DG      H3 5339   4.597   0.242   3.166  1.4508  2.8795  0.1117
  233DG      H4 5340   4.494   0.384   3.150  1.6273  0.5746  0.0696
  233DG      H5 5341   4.585   0.312   3.010  0.6820 -0.5281  0.7209
  233DG      H6 5342   3.739  -0.021   2.660 -0.6560 -2.4120  1.0939
  233DG      H7 5343   3.720   0.079   2.809  1.1653 -1.2977  0.7036
  233DG      H8 5344   3.837   0.117   2.674  0.3018  0.7283 -0.1395
  233DG      O9 5345   4.411   0.218   3.077 -0.1658 -0.6186  0.1849
  233DG     O10 5346   3.891  -0.020   2.811  0.1185  0.6872 -0.5402
  233DG     C11 5347   4.444   0.098   3.014  0.3969  0.0939  0.0957
  233DG     C12 5348   4.005   0.068   2.836 -0.1803 -0.2202 -0.4839
  233DG     H13 5349   4.523   0.046   3.069 -0.3261 -1.6231 -0.4346
  233DG     H14 5350   4.499   0.116   2.921  4.1748  0.0212  2.1333
  233DG     H15 5351   3.967   0.132   2.916  0.9833 -1.4420  1.1174
  233DG     H16 5352   4.047   0.113   2.747 -0.3901 -0.2115 -0.5801
  233DG     C17 5353   4.324   0.006   3.010  0.9218 -0.1705 -0.2670
  233DG     C18 5354   4.112  -0.019   2.911 -0.6129 -0.0974  0.2542
  233DG     O19 5355   4.232   0.063   2.916 -0.1407 -0.0387 -0.9656
  233DG     H20 5356   4.281   0.003   3.111  1.2236 -3.4238 -0.1124
  233DG     H21 5357   4.349  -0.097   2.984 -1.1414 -0.5129 -1.0169
  233DG     H22 5358   4.080  -0.048   3.012 -0.6281 -0.7062  0.0807
  233DG     H23 5359   4.134  -0.111   2.856  0.6097 -0.6877  1.6465
  234DG      C1 5360   2.013   0.575   1.050 -0.1982 -0.2016 -0.0015
  234DG      C2 5361   1.859  -0.138   1.333  0.6981  0.6305 -0.2710
  234DG      H3 5362   1.915   0.572   1.003  1.0738 -0.0137 -2.8412
  234DG      H4 5363   2.075   0.620   0.972 -2.1044  2.2248 -0.2505
  234DG      H5 5364   2.007   0.642   1.137 -0.5327 -1.1109  0.6893
  234DG      H6 5365   1.884  -0.123   1.438 -0.8827  1.3146  0.0380
  234DG      H7 5366   1.751  -0.146   1.322  0.8546  1.5004 -3.4586
  234DG      H8 5367   1.889  -0.236   1.297 -1.0456  0.7589 -2.2625
  234DG      O9 5368   2.057   0.441   1.090 -0.1198 -0.3192  0.3482
  234DG     O10 5369   1.907  -0.031   1.259 -0.9476 -0.0788  0.0453
  234DG     C11 5370   2.059   0.353   0.971 -0.2647 -0.5981 -0.6596
  234DG     C12 5371   2.050  -0.017   1.277  0.3895 -0.0344 -0.2666
  234DG     H13 5372   2.099   0.409   0.886 -0.7283  0.9125  0.0900
  234DG     H14 5373   1.958   0.316   0.956 -0.0187 -0.9553 -1.4873
  234DG     H15 5374   2.079  -0.120   1.293 -1.4316 -0.3457  1.5901
  234DG     H16 5375   2.073   0.025   1.376  2.6227 -1.0072 -0.3233
  234DG     C17 5376   2.155   0.236   1.012  0.4011 -0.3471 -0.0963
  234DG     C18 5377   2.123   0.043   1.155  0.9572 -0.1374 -1.0634
  234DG     O19 5378   2.088   0.180   1.130  0.7160  0.1385 -0.1424
  234DG     H20 5379   2.253   0.273   1.043 -0.1644  1.3905 -0.2666
  234DG     H21 5380   2.159   0.169   0.926  2.1921 -3.0282  1.9166
  234DG     H22 5381   2.230   0.040   1.170  0.5114  0.0717  3.3641
  234DG     H23 5382   2.102  -0.013   1.063  2.0142 -1.3726 -0.5808
  235DG      C1 5383   2.564   5.186   3.533 -0.1445 -0.0338  0.5117
  235DG      C2 5384   2.261   4.537   3.832  0.0923 -0.6813 -0.0557
  235DG      H3 5385   2.461   5.216   3.512 -0.6159 -1.6681  0.2927
  235DG      H4 5386   2.626   5.222   3.451  0.0280  0.1530  0.7227
  235DG      H5 5387   2.588   5.251   3.617 -0.9534  0.9600 -0.0007
  235DG      H6 5388   2.198   4.456   3.796 -3.2054  2.1169 -1.2423
  235DG      H7 5389   2.294   4.505   3.931 -2.0405 -1.4517  0.4633
  235DG      H8 5390   2.198   4.625   3.849  1.4684  0.3272 -0.0397
  235DG      O9 5391   2.579   5.039   3.548 -0.0653  0.0917 -0.1953
  235DG     O10 5392   2.365   4.549   3.744 -0.0507 -0.0020  0.1259
  235DG     C11 5393   2.706   4.985   3.569 -0.8184 -0.0637 -0.0289
  235DG     C12 5394   2.445   4.659   3.769  0.0919 -0.1538  0.5208
  235DG     H13 5395   2.745   5.015   3.667  0.5484 -2.3139  0.1833
  235DG     H14 5396   2.769   5.025   3.489 -0.8043 -0.2146 -0.0926
  235DG     H15 5397   2.510   4.631   3.851 -0.0230  0.0748  0.6914
  235DG     H16 5398   2.394   4.752   3.797  0.1121 -0.0755  0.3017
  235DG     C17 5399   2.694   4.830   3.557  0.4336 -0.3651  0.0354
  235DG     C18 5400   2.536   4.672   3.643  0.3727  0.7226 -0.5262
  235DG     O19 5401   2.618   4.788   3.670  0.6305  0.0617  0.1884
  235DG     H20 5402   2.797   4.796   3.565  1.5030  2.4348 -0.5115
  235DG     H21 5403   2.654   4.806   3.459  1.9113 -0.3684 -0.5989
  235DG     H22 5404   2.590   4.581   3.617  0.5821  1.1933 -1.8420
  235DG     H23 5405   2.459   4.686   3.567 -2.5037 -0.5530  1.9448
  236DG      C1 5406   5.416   1.468   3.231  0.6477  0.0753  0.2209
  236DG      C2 5407   5.362   1.084   3.770  0.6022 -0.2225 -0.7248
  236DG      H3 5408   5.371   1.495   3.136 -0.1244  1.5644  0.9893
  236DG      H4 5409   5.497   1.401   3.200 -0.6769 -1.3270 -0.3569
  236DG      H5 5410   5.457   1.565   3.259 -1.5924  1.8028 -2.0874
  236DG      H6 5411   5.300   1.001   3.804  1.5881 -0.3488  0.8865
  236DG      H7 5412   5.444   1.030   3.722 -0.2006 -2.6758  0.5079
  236DG      H8 5413   5.397   1.135   3.860 -0.1669 -0.2853 -0.3879
  236DG      O9 5414   5.315   1.406   3.306  0.0172 -0.2097  0.0807
  236DG     O10 5415   5.299   1.184   3.685  0.2761 -0.1644  0.9113
  236DG     C11 5416   5.214   1.500   3.349 -0.9416 -0.0657 -0.1621
  236DG     C12 5417   5.192   1.252   3.749  0.0259  0.4019  0.7501
  236DG     H13 5418   5.167   1.555   3.268  0.2964 -0.3298 -1.0901
  236DG     H14 5419   5.269   1.579   3.400  0.4062  0.4346 -2.2762
  236DG     H15 5420   5.240   1.322   3.816 -1.1935  0.3862  1.6802
  236DG     H16 5421   5.124   1.189   3.807  2.2455 -1.0352  1.9174
  236DG     C17 5422   5.109   1.425   3.432  0.1752 -0.1519 -0.2413
  236DG     C18 5423   5.097   1.333   3.649  0.3003  0.0879  0.1483
  236DG     O19 5424   5.183   1.384   3.546  0.6068 -0.7784 -0.1658
  236DG     H20 5425   5.080   1.340   3.370  1.3100  0.6572 -1.9462
  236DG     H21 5426   5.020   1.484   3.450  1.4176  1.8991 -0.5151
  236DG     H22 5427   5.024   1.266   3.604  2.4150 -2.9226  0.9017
  236DG     H23 5428   5.054   1.417   3.704 -1.3704 -1.3436  1.1104
  237DG      C1 5429   0.040   3.282   1.283  1.2709 -0.1430  0.4940
  237DG      C2 5430   0.048   2.796   0.814  0.2368 -0.1009 -0.1065
  237DG      H3 5431   0.023   3.330   1.379 -0.0402  0.1540  0.1387
  237DG      H4 5432  -0.030   3.202   1.262  1.6253  0.3905 -3.5635
  237DG      H5 5433   0.008   3.346   1.200 -2.9950 -2.5353 -0.0236
  237DG      H6 5434   0.093   2.712   0.762  0.7146 -0.6034  1.0711
  237DG      H7 5435  -0.044   2.764   0.863 -0.6599  1.7554 -0.4932
  237DG      H8 5436   0.024   2.875   0.743 -1.5286 -0.7063 -0.2229
  237DG      O9 5437   0.172   3.234   1.256 -0.2723  0.5155  0.5777
  237DG     O10 5438   0.131   2.857   0.908  0.1928 -0.5912 -0.4310
  237DG     C11 5439   0.214   3.131   1.342 -0.1313  0.3387  0.0289
  237DG     C12 5440   0.170   2.776   1.018  0.0466 -0.0429 -0.6868
  237DG     H13 5441   0.136   3.091   1.407  0.7023 -2.0458 -0.3339
  237DG     H14 5442   0.270   3.179   1.423 -0.8654  0.4983  0.4544
  237DG     H15 5443   0.214   2.681   0.987 -0.0398 -0.3670  0.1729
  237DG     H16 5444   0.082   2.752   1.077  0.5812 -2.2856 -0.7086
  237DG     C17 5445   0.294   3.024   1.271 -0.4867  0.0908  0.0082
  237DG     C18 5446   0.273   2.853   1.105 -0.1167  0.5004  1.1029
  237DG     O19 5447   0.212   2.963   1.173  0.2217  0.5826  0.1187
  237DG     H20 5448   0.337   2.954   1.343 -3.2187 -1.2677  0.4414
  237DG     H21 5449   0.375   3.082   1.226 -0.8090  1.8129  1.5491
  237DG     H22 5450   0.334   2.790   1.170 -0.6946 -2.6547 -1.1495
  237DG     H23 5451   0.351   2.890   1.038 -0.5185  0.3711  0.5469
  238DG      C1 5452   3.728   4.992   1.274 -0.1818 -0.1224  0.1258
  238DG      C2 5453   3.161   4.453   1.368  0.3281 -0.2110  0.4265
  238DG      H3 5454   3.759   5.066   1.348 -1.9202 -0.4771  1.2748
  238DG      H4 5455   3.652   5.042   1.213 -2.3832 -1.1028  1.9305
  238DG      H5 5456   3.817   4.962   1.218  2.0528  1.3763  2.6540
  238DG      H6 5457   3.141   4.439   1.262  0.4350 -0.5306  0.4453
  238DG      H7 5458   3.198   4.361   1.415  0.4598  0.2091  1.1522
  238DG      H8 5459   3.077   4.478   1.433  1.9036  0.2098  2.3978
  238DG      O9 5460   3.667   4.882   1.333 -0.2064  0.1441  0.2409
  238DG     O10 5461   3.261   4.559   1.374 -0.2727 -0.2160 -0.0151
  238DG     C11 5462   3.630   4.775   1.247  0.1732 -0.1540  0.0828
  238DG     C12 5463   3.202   4.692   1.353  0.9438  0.2798 -0.0154
  238DG     H13 5464   3.710   4.702   1.235 -1.3173 -1.9938  0.9580
  238DG     H14 5465   3.630   4.824   1.150  3.4006  0.0189  0.0686
  238DG     H15 5466   3.102   4.702   1.394  0.7174 -0.9082 -0.2197
  238DG     H16 5467   3.182   4.701   1.246  2.2610  1.0984 -0.2196
  238DG     C17 5468   3.499   4.721   1.301  1.0849  0.1678 -0.1484
  238DG     C18 5469   3.294   4.803   1.403  0.8560  0.2616 -0.7024
  238DG     O19 5470   3.401   4.822   1.313  0.0134 -0.0800  0.7043
  238DG     H20 5471   3.524   4.677   1.398  1.8827  0.5629 -0.1707
  238DG     H21 5472   3.463   4.655   1.223  2.9273  0.6991 -1.5292
  238DG     H22 5473   3.247   4.901   1.417 -0.6045 -0.3457 -1.1731
  238DG     H23 5474   3.345   4.786   1.497  3.0907  2.5109 -1.3883
  239DG      C1 5475   4.139   0.900   2.150 -0.3870  0.0461 -0.8377
  239DG      C2 5476   4.664   1.491   2.338 -0.7046  0.3625 -0.5048
  239DG      H3 5477   4.060   0.887   2.076  0.0158 -1.3487 -1.0713
  239DG      H4 5478   4.106   0.866   2.248  0.0018  0.3420 -0.6014
  239DG      H5 5479   4.221   0.832   2.126  2.1331  2.3752  0.6251
  239DG      H6 5480   4.690   1.596   2.320 -0.2174  0.1328 -1.2164
  239DG      H7 5481   4.631   1.468   2.439  0.2096 -1.0773 -0.5044
  239DG      H8 5482   4.762   1.449   2.313  0.2517  2.3777 -0.3706
  239DG      O9 5483   4.197   1.026   2.157  0.1516  0.3944  0.7327
  239DG     O10 5484   4.570   1.438   2.247 -0.1918  0.6542  0.0239
  239DG     C11 5485   4.133   1.127   2.234 -0.0082 -0.7900 -0.6841
  239DG     C12 5486   4.443   1.493   2.264 -0.1252  0.4007 -0.6861
  239DG     H13 5487   4.170   1.113   2.335 -0.1515 -1.1119 -0.6738
  239DG     H14 5488   4.025   1.126   2.249  0.0202 -1.3948 -0.4953
  239DG     H15 5489   4.457   1.600   2.246 -0.1600  0.2462 -1.6810
  239DG     H16 5490   4.410   1.477   2.366 -0.0289 -0.7967 -0.8366
  239DG     C17 5491   4.168   1.263   2.189 -0.3736 -0.0811 -0.0700
  239DG     C18 5492   4.329   1.434   2.177  0.1041 -0.2673  0.2442
  239DG     O19 5493   4.296   1.306   2.225 -0.5448  0.7792 -0.1309
  239DG     H20 5494   4.100   1.335   2.234  1.6316  2.5383 -0.9419
  239DG     H21 5495   4.165   1.260   2.080 -1.4913  1.2496 -0.1025
  239DG     H22 5496   4.244   1.502   2.180 -1.6167 -2.1230 -2.2630
  239DG     H23 5497   4.368   1.425   2.076  1.8586 -0.4250  0.8901
  240DG      C1 5498   1.613   3.946   1.164 -0.3069  0.1900 -0.5634
  240DG      C2 5499   1.094   3.613   1.425 -0.2730  0.4854 -0.1437
  240DG      H3 5500   1.622   3.976   1.268 -1.0724  1.2029 -0.7769
  240DG      H4 5501   1.564   4.034   1.123  0.6787  1.6130  1.2048
  240DG      H5 5502   1.712   3.933   1.118 -0.0274 -0.3411  0.1726
  240DG      H6 5503   1.052   3.534   1.486 -0.2343 -0.5908 -1.4449
  240DG      H7 5504   1.016   3.679   1.388 -0.4375  1.3054  1.5666
  240DG      H8 5505   1.122   3.556   1.336 -1.1234 -2.6628  1.4499
  240DG      O9 5506   1.532   3.826   1.145 -0.5710 -0.5421 -0.1309
  240DG     O10 5507   1.205   3.678   1.483  0.5502 -0.0352  0.1922
  240DG     C11 5508   1.611   3.709   1.185 -0.4928  0.0424  0.1319
  240DG     C12 5509   1.303   3.590   1.531 -0.3717 -0.2895  0.5898
  240DG     H13 5510   1.686   3.730   1.262  0.9597  0.8006 -1.3966
  240DG     H14 5511   1.660   3.676   1.093 -0.4154  0.2510  0.0977
  240DG     H15 5512   1.267   3.523   1.609  2.7685  0.0821  2.5611
  240DG     H16 5513   1.368   3.661   1.583 -1.3199  1.0448  0.0137
  240DG     C17 5514   1.525   3.592   1.232  0.2439 -0.0478 -0.0549
  240DG     C18 5515   1.391   3.524   1.423 -0.1900 -0.3041 -0.1684
  240DG     O19 5516   1.470   3.626   1.357  0.4410  0.0966 -0.3890
  240DG     H20 5517   1.591   3.511   1.264 -0.7612 -0.4233  1.1408
  240DG     H21 5518   1.450   3.556   1.162 -0.7882  2.0867 -0.1214
  240DG     H22 5519   1.456   3.451   1.471 -1.4429 -0.5438  1.2351
  240DG     H23 5520   1.329   3.467   1.354  0.3514  0.1124 -1.0189
  241DG      C1 5521   0.662   1.708   1.189 -1.0979  0.2302  0.1377
  241DG      C2 5522   0.648   1.705   0.526 -0.2553 -0.1451  0.4020
  241DG      H3 5523   0.673   1.806   1.144 -2.5982  0.8178  0.9749
  241DG      H4 5524   0.763   1.673   1.214 -0.8151  1.0907  0.2206
  241DG      H5 5525   0.598   1.715   1.278 -0.4645 -1.1767  0.7364
  241DG      H6 5526   0.583   1.678   0.443 -3.2042  3.0212  1.4417
  241DG      H7 5527   0.628   1.812   0.525 -1.1947 -0.3167 -0.7886
  241DG      H8 5528   0.752   1.691   0.500  0.0681  0.6658  1.1895
  241DG      O9 5529   0.598   1.632   1.089  0.5190 -0.0249 -0.0375
  241DG     O10 5530   0.601   1.636   0.641 -0.2856 -0.7004 -0.4134
  241DG     C11 5531   0.457   1.635   1.090 -0.6002 -0.6905  0.3973
  241DG     C12 5532   0.468   1.581   0.624  0.0941  0.0463 -0.9485
  241DG     H13 5533   0.429   1.737   1.064  3.3435  0.2773 -0.6134
  241DG     H14 5534   0.433   1.600   1.191  1.2304 -0.1336  1.0761
  241DG     H15 5535   0.455   1.524   0.533 -1.8432 -0.7760 -0.2292
  241DG     H16 5536   0.400   1.666   0.619  0.8983  0.7965  0.1542
  241DG     C17 5537   0.409   1.542   0.987  0.6814  0.4138  0.6157
  241DG     C18 5538   0.432   1.493   0.757 -0.0951 -0.0536 -0.1220
  241DG     O19 5539   0.466   1.576   0.866  0.1654 -0.3447  0.0075
  241DG     H20 5540   0.301   1.530   0.975  1.1200 -1.7424 -2.1580
  241DG     H21 5541   0.446   1.444   1.016  0.6365  0.4806  0.8959
  241DG     H22 5542   0.331   1.453   0.764  0.6978 -1.9203  1.4993
  241DG     H23 5543   0.501   1.409   0.767  1.5585  0.9929 -1.9932
  242DG      C1 5544   1.106   2.353   0.252  0.0919  0.6587  0.3439
  242DG      C2 5545   1.685   2.049   0.323  0.5599 -0.3646  0.8460
  242DG      H3 5546   1.004   2.375   0.220  0.0286 -0.4851 -0.2945
  242DG      H4 5547   1.173   2.336   0.168 -1.1496  0.3184 -0.6082
  242DG      H5 5548   1.130   2.451   0.293  1.5265 -0.2840  1.8671
  242DG      H6 5549   1.643   1.949   0.312  0.4400 -0.2598  0.3476
  242DG      H7 5550   1.704   2.087   0.223 -1.0274 -1.5865  0.0294
  242DG      H8 5551   1.782   2.052   0.374  1.3075 -0.1230 -0.5346
  242DG      O9 5552   1.096   2.246   0.343  0.9932 -0.0068  0.2008
  242DG     O10 5553   1.578   2.115   0.394 -0.6435  0.6975 -0.1862
  242DG     C11 5554   1.222   2.190   0.364 -0.0048  0.0873 -0.2190
  242DG     C12 5555   1.558   2.080   0.532  0.7777  0.0439  0.2873
  242DG     H13 5556   1.301   2.258   0.397  0.5412 -0.8241  0.4119
  242DG     H14 5557   1.266   2.140   0.277 -1.7699 -1.8962 -0.0535
  242DG     H15 5558   1.627   2.144   0.587  1.1866  2.0594 -2.3594
  242DG     H16 5559   1.597   1.982   0.560  1.8538  1.4437  4.5065
  242DG     C17 5560   1.203   2.074   0.463  0.3144 -0.4864  0.4509
  242DG     C18 5561   1.415   2.105   0.579  1.0421  0.1790  0.1377
  242DG     O19 5562   1.326   2.021   0.497  0.1062 -0.5576 -0.9697
  242DG     H20 5563   1.156   1.986   0.418  1.8852 -1.7995  1.2880
  242DG     H21 5564   1.142   2.117   0.543  2.8310  2.1717  1.1073
  242DG     H22 5565   1.404   2.074   0.683 -2.6167 -0.7444 -0.3984
  242DG     H23 5566   1.399   2.213   0.580  2.0124  0.3334 -0.0862
  243DG      C1 5567   1.435   2.553   0.345 -0.3331 -0.6553 -0.1165
  243DG      C2 5568   1.593   1.823  -0.074 -0.7221 -0.0702 -0.1381
  243DG      H3 5569   1.349   2.564   0.279  0.0585 -0.2236 -0.5580
  243DG      H4 5570   1.475   2.647   0.383 -2.4891  0.4512 -0.3824
  243DG      H5 5571   1.420   2.480   0.425 -0.2668 -0.4233  0.1088
  243DG      H6 5572   1.673   1.805  -0.145 -0.4828 -0.4657  0.2196
  243DG      H7 5573   1.619   1.769   0.018  1.0950  2.2183  0.7951
  243DG      H8 5574   1.494   1.788  -0.104 -0.2966 -1.0124 -0.5005
  243DG      O9 5575   1.537   2.507   0.264  0.5285  0.1476 -0.4768
  243DG     O10 5576   1.592   1.958  -0.035  0.7735  0.1962  0.6550
  243DG     C11 5577   1.517   2.383   0.203  0.1436 -0.3614  0.0033
  243DG     C12 5578   1.613   2.063  -0.131 -0.0342  0.9882 -0.0861
  243DG     H13 5579   1.415   2.372   0.164 -0.3237  0.6772  0.8912
  243DG     H14 5580   1.519   2.300   0.275  0.1145 -0.4462 -0.0927
  243DG     H15 5581   1.529   2.086  -0.197  0.1118 -0.4017 -0.8079
  243DG     H16 5582   1.687   2.027  -0.203 -1.2151  0.3362 -1.0032
  243DG     C17 5583   1.607   2.357   0.090 -0.1989 -0.0709  0.1239
  243DG     C18 5584   1.662   2.188  -0.059 -0.8730 -0.5949 -0.1516
  243DG     O19 5585   1.574   2.233   0.045  0.2563  0.3508 -0.1026
  243DG     H20 5586   1.708   2.368   0.129 -0.8462  0.3365  1.7557
  243DG     H21 5587   1.587   2.435   0.016 -1.0655 -0.1455  0.2747
  243DG     H22 5588   1.754   2.154  -0.013 -0.9714 -0.5416  0.0861
  243DG     H23 5589   1.700   2.269  -0.122  0.4525 -0.1399  1.1762
  244DG      C1 5590   2.411   5.281   1.271  0.4610  0.5685  0.4259
  244DG      C2 5591   1.798   4.816   1.297 -0.3727 -0.4314 -0.0319
  244DG      H3 5592   2.431   5.388   1.282 -0.6253  0.6458  2.0989
  244DG      H4 5593   2.374   5.267   1.170 -0.1792 -0.4153  0.7784
  244DG      H5 5594   2.510   5.236   1.279  0.1057 -0.1183  1.1792
  244DG      H6 5595   1.711   4.852   1.243 -0.9684 -1.3230  0.3179
  244DG      H7 5596   1.859   4.750   1.235 -1.5805  0.0348 -1.8017
  244DG      H8 5597   1.745   4.749   1.365 -1.4336  1.3546  0.9687
  244DG      O9 5598   2.307   5.240   1.371 -0.5400 -0.5840 -0.6683
  244DG     O10 5599   1.878   4.921   1.349 -0.3973  0.2204  0.6168
  244DG     C11 5600   2.265   5.109   1.350  0.3640 -0.1830  0.2148
  244DG     C12 5601   1.915   4.895   1.488 -0.2742 -0.5201 -0.1355
  244DG     H13 5602   2.353   5.045   1.353 -0.7584 -1.7409  1.1460
  244DG     H14 5603   2.214   5.092   1.254  0.2364  0.1774  0.2172
  244DG     H15 5604   1.981   4.808   1.491  2.5924  1.5761  1.4454
  244DG     H16 5605   1.829   4.864   1.548 -0.7592  2.4434  0.8369
  244DG     C17 5606   2.174   5.062   1.457 -0.3987 -0.0655 -0.4277
  244DG     C18 5607   1.963   5.026   1.553 -0.4021 -0.4667  0.3266
  244DG     O19 5608   2.045   5.111   1.467  0.4537 -0.4285  0.3417
  244DG     H20 5609   2.218   5.089   1.553  1.1391 -0.0778 -1.1024
  244DG     H21 5610   2.169   4.953   1.452 -2.5632 -0.0825  0.7349
  244DG     H22 5611   1.874   5.089   1.561  0.0323  0.1127  0.6620
  244DG     H23 5612   2.006   5.010   1.652  1.4950  1.6832 -0.0497
  245DG      C1 5613   3.437   0.627   4.573  0.2188 -0.4334 -0.6240
  245DG      C2 5614   3.907   0.426   4.497  0.7307 -0.1945  0.0277
  245DG      H3 5615   3.468   0.573   4.663  1.4634 -1.0327 -1.3926
  245DG      H4 5616   3.463   0.581   4.478  0.3893  1.0606 -1.3259
  245DG      H5 5617   3.330   0.634   4.595  0.6941  1.0649  1.6312
  245DG      H6 5618   4.015   0.425   4.506  0.6691 -2.1601  0.9849
  245DG      H7 5619   3.862   0.391   4.590 -0.4656 -0.2606 -0.5500
  245DG      H8 5620   3.870   0.356   4.422 -1.7921 -1.0606  1.9052
  245DG      O9 5621   3.486   0.764   4.579  0.6431  0.3134 -0.1389
  245DG     O10 5622   3.868   0.563   4.474  0.0811  0.4538  0.7462
  245DG     C11 5623   3.465   0.838   4.457  0.2322 -0.2441 -0.5292
  245DG     C12 5624   3.873   0.605   4.336 -0.9765  0.0649 -0.0943
  245DG     H13 5625   3.435   0.936   4.494 -0.6392 -1.0770  1.0857
  245DG     H14 5626   3.380   0.808   4.395 -0.5950  1.8523 -0.5245
  245DG     H15 5627   3.815   0.547   4.264 -2.0833  2.6280 -1.3870
  245DG     H16 5628   3.979   0.601   4.313 -0.6653 -1.0878  1.3785
  245DG     C17 5629   3.600   0.854   4.372  0.3414  0.3985 -0.4054
  245DG     C18 5630   3.808   0.740   4.334 -0.4805 -0.4121 -0.3859
  245DG     O19 5631   3.671   0.729   4.377 -0.4346  0.2917  0.1877
  245DG     H20 5632   3.665   0.927   4.419 -1.0461  0.7987  0.9653
  245DG     H21 5633   3.576   0.888   4.272  1.1381 -0.2301 -0.8229
  245DG     H22 5634   3.860   0.809   4.400 -0.8025 -0.2177 -0.3327
  245DG     H23 5635   3.806   0.787   4.236 -0.4518  0.4224  0.0066
  246DG      C1 5636   3.015   3.572   5.328 -0.2799 -0.0736 -0.3134
  246DG      C2 5637   3.122   3.230   4.813 -0.1105 -0.6222  0.7139
  246DG      H3 5638   2.993   3.606   5.429  1.2002  1.8381 -0.5750
  246DG      H4 5639   2.945   3.617   5.257 -1.7773 -2.2164 -0.2756
  246DG      H5 5640   3.112   3.618   5.313  0.1961 -1.0997 -0.4460
  246DG      H6 5641   3.138   3.151   4.740 -0.5588 -0.1023  0.0318
  246DG      H7 5642   3.054   3.302   4.768 -3.3118 -2.9910  1.4145
  246DG      H8 5643   3.222   3.269   4.835  0.1141  0.4626 -1.8518
  246DG      O9 5644   3.014   3.436   5.309  0.0853  0.4267 -0.1281
  246DG     O10 5645   3.072   3.182   4.942  0.5038 -0.1420  0.3369
  246DG     C11 5646   3.104   3.363   5.387  0.2266  0.1857  0.6106
  246DG     C12 5647   3.155   3.084   4.998  0.5213  0.0811 -0.1754
  246DG     H13 5648   3.085   3.377   5.493  1.9763 -1.7984  1.2584
  246DG     H14 5649   3.207   3.394   5.369  0.3421 -0.8939 -0.8698
  246DG     H15 5650   3.260   3.110   4.986  0.2203  1.9149  0.8602
  246DG     H16 5651   3.127   2.990   4.950 -1.2858  0.8201 -0.6750
  246DG     C17 5652   3.086   3.215   5.347  0.1520  0.4004  0.4082
  246DG     C18 5653   3.114   3.074   5.144  0.2274  0.7550  0.0404
  246DG     O19 5654   3.106   3.207   5.199 -0.2712  0.4491 -0.2604
  246DG     H20 5655   2.993   3.171   5.384 -0.8539  1.4818 -0.7342
  246DG     H21 5656   3.162   3.147   5.385 -0.2983  0.3553  1.2433
  246DG     H22 5657   3.013   3.033   5.156  0.6038 -0.4374 -0.6702
  246DG     H23 5658   3.186   3.018   5.204  1.2219  2.0841  0.1403
  247DG      C1 5659   0.942   3.007   3.143  0.2808  0.6569 -0.1467
  247DG      C2 5660   1.709   3.214   2.957  0.0744  0.2518 -0.0473
  247DG      H3 5661   0.919   3.065   3.054 -0.1505 -0.6831 -0.9274
  247DG      H4 5662   0.912   3.062   3.233  1.0636  2.6266 -1.0214
  247DG      H5 5663   0.897   2.908   3.134  0.3457  0.8115 -3.2764
  247DG      H6 5664   1.798   3.181   2.903  1.3371  0.5008  1.7765
  247DG      H7 5665   1.681   3.300   2.897 -0.5775 -0.1279 -0.3049
  247DG      H8 5666   1.755   3.249   3.050 -1.6218  0.2594  0.8286
  247DG      O9 5667   1.085   2.980   3.154  0.0389  0.2671 -0.1835
  247DG     O10 5668   1.602   3.118   2.974 -0.9523  0.3498  0.5096
  247DG     C11 5669   1.139   2.890   3.053  0.0757  0.3374  0.0558
  247DG     C12 5670   1.629   3.009   3.066 -0.2070 -0.2722  0.3687
  247DG     H13 5671   1.124   2.937   2.956  0.0770 -1.3061 -0.7819
  247DG     H14 5672   1.074   2.803   3.052  1.3091 -0.6401  1.0466
  247DG     H15 5673   1.641   3.056   3.163 -0.3874 -1.0479  0.7741
  247DG     H16 5674   1.726   2.971   3.032 -0.0638  1.4124 -1.2348
  247DG     C17 5675   1.284   2.854   3.090 -0.5987  0.9213  0.1877
  247DG     C18 5676   1.517   2.905   3.068 -0.3658 -0.6350  0.1130
  247DG     O19 5677   1.382   2.954   3.071  0.6179 -0.0726 -0.0754
  247DG     H20 5678   1.315   2.761   3.042  1.4563  1.1702  0.9458
  247DG     H21 5679   1.282   2.817   3.192  1.2185 -0.1914 -0.1462
  247DG     H22 5680   1.534   2.846   2.978  2.2970 -0.2749  0.3106
  247DG     H23 5681   1.527   2.836   3.152  0.7700 -0.7707 -0.1181
  248DG      C1 5682   2.352   4.986   4.850 -0.4014  0.4916  0.6106
  248DG      C2 5683   2.807   4.939   5.372  0.4233 -0.2440  0.7657
  248DG      H3 5684   2.385   5.090   4.843 -1.3144  0.7081 -0.8042
  248DG      H4 5685   2.269   4.991   4.920  0.6889 -3.6922  2.4651
  248DG      H5 5686   2.313   4.941   4.759 -2.0775  1.3188  0.8916
  248DG      H6 5687   2.858   4.872   5.441  2.2749 -2.7101 -2.6869
  248DG      H7 5688   2.876   4.996   5.310 -1.8377  0.1267 -1.6069
  248DG      H8 5689   2.740   5.012   5.419 -1.3968  0.7569 -2.9520
  248DG      O9 5690   2.444   4.907   4.926 -0.3612 -0.2824  0.0402
  248DG     O10 5691   2.724   4.863   5.281  0.0993  0.5161 -0.0517
  248DG     C11 5692   2.392   4.774   4.940 -0.1008 -0.4150 -0.3867
  248DG     C12 5693   2.639   4.763   5.345  0.0082  0.3820  0.5796
  248DG     H13 5694   2.375   4.723   4.846 -1.0845  1.1770 -1.1264
  248DG     H14 5695   2.303   4.782   5.002 -0.5920  1.7607 -1.2569
  248DG     H15 5696   2.552   4.806   5.394  1.0690  3.1649  0.2022
  248DG     H16 5697   2.701   4.703   5.411 -1.7361 -0.1185  1.8304
  248DG     C17 5698   2.483   4.684   5.019 -0.1260  0.5440 -0.3620
  248DG     C18 5699   2.600   4.681   5.221 -0.0642  0.3083  0.1022
  248DG     O19 5700   2.530   4.758   5.129 -0.0478  0.0436  0.4662
  248DG     H20 5701   2.563   4.667   4.947  0.2998  0.6095  0.0991
  248DG     H21 5702   2.432   4.592   5.049 -0.4592 -0.5482 -3.7885
  248DG     H22 5703   2.688   4.629   5.182  0.5290  0.8552  0.7025
  248DG     H23 5704   2.533   4.602   5.253  0.8184 -1.5937 -2.4254
  249DG      C1 5705   5.448   2.826   2.247  0.3813 -0.1642  0.7440
  249DG      C2 5706   5.374   3.279   2.515 -0.3080 -0.1951 -0.6461
  249DG      H3 5707   5.392   2.770   2.320 -1.0689  0.4795  0.1619
  249DG      H4 5708   5.457   2.778   2.149  1.2852  0.7957  0.3276
  249DG      H5 5709   5.399   2.923   2.233  0.7798 -0.0088  0.3732
  249DG      H6 5710   5.273   3.242   2.500 -0.0219 -1.9843  1.4080
  249DG      H7 5711   5.401   3.276   2.620  0.4955 -0.5969 -0.8563
  249DG      H8 5712   5.365   3.387   2.502  3.1231  0.5869  1.9159
  249DG      O9 5713   5.579   2.840   2.297  0.1597 -0.2097 -0.3952
  249DG     O10 5714   5.464   3.209   2.440  0.0341 -0.1943 -0.3537
  249DG     C11 5715   5.675   2.865   2.197 -0.2544 -0.2585  0.6680
  249DG     C12 5716   5.457   3.238   2.299 -0.1848 -0.1481  0.1997
  249DG     H13 5717   5.665   2.803   2.109 -0.9648 -0.0087  0.5646
  249DG     H14 5718   5.774   2.840   2.236 -0.2920 -1.3914  0.0757
  249DG     H15 5719   5.430   3.342   2.282 -0.2272  0.1477  1.8801
  249DG     H16 5720   5.387   3.168   2.252  0.9728 -1.7266  0.7311
  249DG     C17 5721   5.662   3.010   2.151 -0.5243  0.1823 -0.7578
  249DG     C18 5722   5.599   3.226   2.243  0.2981  0.4707  0.3989
  249DG     O19 5723   5.632   3.091   2.270  0.4948  0.3381  0.0671
  249DG     H20 5724   5.589   3.031   2.073  1.1742  0.9294 -2.2232
  249DG     H21 5725   5.753   3.044   2.101 -1.3041  3.0835 -0.4003
  249DG     H22 5726   5.595   3.239   2.134 -0.4148 -1.0936  0.2116
  249DG     H23 5727   5.672   3.291   2.291  1.9058 -1.3326  0.4796
  250DG      C1 5728   5.129   4.159   1.539 -0.1893  0.4972  0.8025
  250DG      C2 5729   4.495   4.203   2.149 -0.2220  0.0089  0.1529
  250DG      H3 5730   5.220   4.217   1.520  0.2134 -0.8467 -1.6892
  250DG      H4 5731   5.068   4.165   1.449  0.6797  2.7682  0.2992
  250DG      H5 5732   5.159   4.055   1.538 -0.6731  0.2743 -2.6706
  250DG      H6 5733   4.425   4.268   2.201  2.3714  0.7505  3.0152
  250DG      H7 5734   4.456   4.161   2.057 -0.7346 -0.6951  0.6785
  250DG      H8 5735   4.524   4.122   2.216  0.3745 -0.7696 -1.0094
  250DG      O9 5736   5.044   4.200   1.642 -0.5988 -0.5050 -0.0620
  250DG     O10 5737   4.610   4.271   2.115 -0.2200  0.3026 -0.3533
  250DG     C11 5738   5.112   4.217   1.768 -0.3038 -0.2975  0.5273
  250DG     C12 5739   4.698   4.191   2.033  0.7416  0.5956  0.0232
  250DG     H13 5740   5.189   4.290   1.743  0.5712 -1.5354 -0.5817
  250DG     H14 5741   5.158   4.133   1.820 -0.1863 -0.4368  0.2035
  250DG     H15 5742   4.641   4.158   1.946  1.8988 -0.0508 -0.5156
  250DG     H16 5743   4.731   4.107   2.094 -0.6067  1.0263  1.4172
  250DG     C17 5744   5.014   4.286   1.865 -0.5415  0.6581  0.6676
  250DG     C18 5745   4.811   4.282   1.994  0.6122 -0.1586 -0.1576
  250DG     O19 5746   4.898   4.210   1.904  0.0731  0.1148  0.1252
  250DG     H20 5747   4.987   4.383   1.823 -0.8352  0.6930  0.9310
  250DG     H21 5748   5.070   4.310   1.955  1.5004 -0.0715 -0.3353
  250DG     H22 5749   4.770   4.376   1.957  1.5237  1.2060  2.1281
  250DG     H23 5750   4.869   4.300   2.084  1.4072  0.0800 -0.7115
  251DG      C1 5751   4.376   1.785   4.856  0.6690  0.3858 -0.0954
  251DG      C2 5752   5.103   1.956   4.720  0.6456  0.0984  0.3034
  251DG      H3 5753   4.376   1.789   4.965  0.4787 -1.8009  0.0308
  251DG      H4 5754   4.383   1.678   4.834  0.8294  0.3180  0.2787
  251DG      H5 5755   4.276   1.814   4.822  0.6533  0.6661  0.1897
  251DG      H6 5756   5.171   2.041   4.713  0.9873 -0.2417 -0.8058
  251DG      H7 5757   5.119   1.897   4.810 -1.2689 -0.6587  0.1858
  251DG      H8 5758   5.121   1.889   4.636 -1.5245 -1.2012  0.8121
  251DG      O9 5759   4.476   1.858   4.786  0.0206 -0.0468 -0.4136
  251DG     O10 5760   4.966   2.005   4.724  0.4423 -0.5005  0.0668
  251DG     C11 5761   4.462   1.996   4.811  0.5377  0.3033  0.1565
  251DG     C12 5762   4.938   2.084   4.835  0.2868  0.5925  0.2074
  251DG     H13 5763   4.456   2.009   4.919 -0.5780 -2.1773  0.4596
  251DG     H14 5764   4.367   2.028   4.770 -0.4013 -1.7827  0.5753
  251DG     H15 5765   5.010   2.165   4.833  1.2832 -0.2479  0.6420
  251DG     H16 5766   4.952   2.024   4.925 -0.3515 -1.5970 -1.0780
  251DG     C17 5767   4.581   2.074   4.763 -0.1014  0.3068 -0.2933
  251DG     C18 5768   4.801   2.137   4.814  0.1882 -0.0441 -0.0629
  251DG     O19 5769   4.708   2.030   4.810  0.1818  0.3334 -1.3235
  251DG     H20 5770   4.554   2.178   4.783  1.9119  1.5076 -3.1567
  251DG     H21 5771   4.584   2.078   4.654  0.8002  2.7488 -0.2269
  251DG     H22 5772   4.772   2.209   4.891  2.4808 -0.0785  0.9130
  251DG     H23 5773   4.791   2.187   4.718 -1.2567 -0.2992 -0.0775
  252DG      C1 5774   3.096   2.011   2.032 -0.8549  0.1945  0.7269
  252DG      C2 5775   2.696   2.542   2.548  0.8914  0.0976 -0.0094
  252DG      H3 5776   3.155   1.970   1.950  0.5032  1.9020  0.7961
  252DG      H4 5777   2.995   1.987   1.999 -1.2614  1.7896  0.7164
  252DG      H5 5778   3.123   1.952   2.120 -0.7797 -2.8935 -1.1936
  252DG      H6 5779   2.613   2.565   2.481 -0.8561 -3.8777  0.5471
  252DG      H7 5780   2.662   2.445   2.582 -1.6946  1.2779  1.0586
  252DG      H8 5781   2.686   2.617   2.627 -0.6942  0.1193 -0.2114
  252DG      O9 5782   3.108   2.153   2.054 -0.3847 -0.0518  0.1808
  252DG     O10 5783   2.823   2.537   2.479  0.0274  0.5445 -0.0651
  252DG     C11 5784   3.011   2.189   2.147 -0.2478  0.3708 -0.3526
  252DG     C12 5785   2.926   2.451   2.536  0.4034 -0.3728 -0.7587
  252DG     H13 5786   3.010   2.118   2.230  1.2218  1.5935  0.7831
  252DG     H14 5787   2.914   2.198   2.098 -0.8747  0.4956  0.8729
  252DG     H15 5788   2.876   2.360   2.569  0.9743 -0.0396  1.1213
  252DG     H16 5789   2.980   2.486   2.624 -2.0076  1.2014  0.1996
  252DG     C17 5790   3.060   2.315   2.220 -0.3335 -0.6602 -0.6895
  252DG     C18 5791   3.031   2.420   2.435 -0.0680 -0.7170 -0.4985
  252DG     O19 5792   2.976   2.329   2.340 -0.5382 -0.2184 -0.6317
  252DG     H20 5793   3.044   2.401   2.155  1.7824  1.2783  1.1902
  252DG     H21 5794   3.168   2.316   2.235 -0.1913 -0.7546 -1.6691
  252DG     H22 5795   3.062   2.508   2.379 -3.0018 -1.1944 -3.1344
  252DG     H23 5796   3.124   2.384   2.479 -1.6004 -3.0874  1.0174
  253DG      C1 5797   1.829   5.179   3.175 -0.2647 -0.2121 -0.0485
  253DG      C2 5798   2.545   5.282   3.150 -0.1584  0.4554  0.2254
  253DG      H3 5799   1.823   5.076   3.210  3.4972 -0.5824 -0.0911
  253DG      H4 5800   1.811   5.182   3.068  0.2913  0.0308 -0.1436
  253DG      H5 5801   1.748   5.241   3.214  0.4625  1.6783 -1.3732
  253DG      H6 5802   2.559   5.179   3.118 -0.1099  0.9792 -1.5566
  253DG      H7 5803   2.557   5.349   3.065  0.7787 -0.0993 -0.0883
  253DG      H8 5804   2.624   5.291   3.224 -0.8127 -1.7651  1.2560
  253DG      O9 5805   1.954   5.229   3.223 -0.1603  0.1870  0.7800
  253DG     O10 5806   2.417   5.303   3.218  0.4352 -1.1177 -0.4326
  253DG     C11 5807   1.939   5.278   3.362 -0.6847 -0.1272  0.8016
  253DG     C12 5808   2.401   5.423   3.285  1.1804  0.5382 -0.5336
  253DG     H13 5809   1.951   5.206   3.443  0.8147 -0.0375  0.6784
  253DG     H14 5810   1.842   5.326   3.374 -0.4630  0.3686  0.6144
  253DG     H15 5811   2.437   5.509   3.229  0.7567  0.4540 -0.9387
  253DG     H16 5812   2.469   5.420   3.370  1.4216 -0.1299 -0.7471
  253DG     C17 5813   2.046   5.383   3.379 -0.2624  0.2011 -0.1063
  253DG     C18 5814   2.259   5.456   3.325 -1.3035  0.3175  0.3577
  253DG     O19 5815   2.176   5.342   3.334  0.2200  0.3914  0.1254
  253DG     H20 5816   2.039   5.422   3.480 -3.6573 -1.0931  0.2727
  253DG     H21 5817   2.018   5.471   3.320 -2.2354 -0.2359  0.1206
  253DG     H22 5818   2.258   5.497   3.426 -0.1074 -0.5610  0.7536
  253DG     H23 5819   2.215   5.530   3.258 -1.4799 -0.8769 -0.8779
  254DG      C1 5820   3.845   0.375   3.123 -0.0530 -0.5076 -0.8049
  254DG      C2 5821   4.552   0.759   2.911  0.3655  0.1602  0.0753
  254DG      H3 5822   3.768   0.443   3.088  0.2510  0.4387  0.2813
  254DG      H4 5823   3.818   0.328   3.218 -1.7256  2.9964  0.6124
  254DG      H5 5824   3.869   0.296   3.052 -0.5768 -1.1449 -0.2822
  254DG      H6 5825   4.592   0.844   2.968  2.2566 -0.0187 -0.9011
  254DG      H7 5826   4.640   0.700   2.885 -0.3498 -1.9581  2.1394
  254DG      H8 5827   4.498   0.797   2.824  1.9276  1.1148 -0.5381
  254DG      O9 5828   3.964   0.449   3.136  0.4708  0.4281  0.3776
  254DG     O10 5829   4.484   0.668   2.994  0.2332 -0.8073 -0.0617
  254DG     C11 5830   4.071   0.366   3.193  0.1768  0.6377 -0.8791
  254DG     C12 5831   4.368   0.726   3.058 -0.4608  0.2367 -0.0886
  254DG     H13 5832   4.102   0.291   3.121  1.2289 -0.5774  0.7666
  254DG     H14 5833   4.034   0.310   3.279  0.7235 -1.7258 -2.0995
  254DG     H15 5834   4.291   0.737   2.981 -2.2616  0.6840  1.6945
  254DG     H16 5835   4.393   0.821   3.104  3.1472 -0.3871 -0.4508
  254DG     C17 5836   4.186   0.454   3.237  0.7318 -0.1718  0.2274
  254DG     C18 5837   4.306   0.647   3.179  0.1269 -0.0391 -0.3166
  254DG     O19 5838   4.222   0.539   3.133 -0.0951  0.2202 -0.3616
  254DG     H20 5839   4.276   0.412   3.280  1.4176  0.4697 -0.5454
  254DG     H21 5840   4.152   0.523   3.314  0.9486 -1.9572  1.9927
  254DG     H22 5841   4.384   0.616   3.248  0.7607  0.1708 -0.9208
  254DG     H23 5842   4.252   0.712   3.247 -0.6836 -0.3781 -0.6187
  255DG      C1 5843   0.533   5.324   1.504 -0.2412  0.0079 -0.4096
  255DG      C2 5844   0.902   5.895   1.568 -0.3937  0.2785  0.3062
  255DG      H3 5845   0.439   5.344   1.453 -0.0365 -0.3268 -0.9145
  255DG      H4 5846   0.513   5.224   1.542  2.5884 -0.9785 -1.2828
  255DG      H5 5847   0.617   5.317   1.435 -0.5162 -0.2349 -0.7190
  255DG      H6 5848   0.956   5.861   1.479  1.9300  0.4592  1.5585
  255DG      H7 5849   0.806   5.940   1.547  1.0134  2.2515 -2.5688
  255DG      H8 5850   0.964   5.967   1.621  0.7973 -1.3431  1.2275
  255DG      O9 5851   0.553   5.411   1.611 -0.5921  0.6221 -0.4071
  255DG     O10 5852   0.884   5.775   1.643  0.2337 -0.2566 -0.6961
  255DG     C11 5853   0.632   5.352   1.717  0.4600  1.1205  0.6416
  255DG     C12 5854   0.799   5.794   1.753 -0.1370 -0.2954 -0.0394
  255DG     H13 5855   0.719   5.302   1.673  1.2653  2.9084  0.1266
  255DG     H14 5856   0.576   5.272   1.766  0.2139  1.5025  0.9926
  255DG     H15 5857   0.701   5.823   1.716 -1.0583 -1.5849  1.2374
  255DG     H16 5858   0.834   5.875   1.818  0.8969 -0.2707 -0.5990
  255DG     C17 5859   0.687   5.452   1.816  0.2004 -0.0961 -0.4704
  255DG     C18 5860   0.783   5.671   1.840 -0.8129 -0.5701 -0.1949
  255DG     O19 5861   0.742   5.568   1.756  0.4810 -0.1695 -0.4571
  255DG     H20 5862   0.761   5.401   1.877 -0.9956 -0.4417  0.7331
  255DG     H21 5863   0.606   5.483   1.882 -0.0598  0.8029 -1.1764
  255DG     H22 5864   0.878   5.643   1.886 -0.8152 -0.2435  0.0163
  255DG     H23 5865   0.712   5.697   1.918 -0.6567  0.5917 -0.4160
  256DG      C1 5866   3.629   3.632   1.622  0.1615 -0.0437 -0.5035
  256DG      C2 5867   3.886   2.949   1.260  0.1790  0.0177 -0.3927
  256DG      H3 5868   3.733   3.632   1.589  0.0221 -1.9882 -1.1153
  256DG      H4 5869   3.631   3.678   1.721 -1.6557  0.0903 -0.5060
  256DG      H5 5870   3.574   3.707   1.566 -0.3833 -0.2247 -0.2191
  256DG      H6 5871   3.919   2.848   1.238  3.7308  1.1312 -0.8345
  256DG      H7 5872   3.839   2.986   1.169 -0.8600 -0.8093 -0.2057
  256DG      H8 5873   3.974   3.008   1.290 -0.3348  0.2644  0.6637
  256DG      O9 5874   3.568   3.503   1.626 -0.2089 -0.8080  0.1233
  256DG     O10 5875   3.788   2.965   1.358  0.1817 -0.6962  0.0924
  256DG     C11 5876   3.618   3.419   1.731  0.1860 -0.6702 -0.1382
  256DG     C12 5877   3.756   3.102   1.376 -0.6166 -0.1241 -0.0624
  256DG     H13 5878   3.553   3.411   1.818  0.1423 -0.2946 -0.1335
  256DG     H14 5879   3.712   3.459   1.770  0.6414 -1.2957 -0.5860
  256DG     H15 5880   3.685   3.139   1.302 -0.2543  0.7721  0.0224
  256DG     H16 5881   3.845   3.165   1.367 -0.6814  0.0222  0.3176
  256DG     C17 5882   3.639   3.273   1.685 -0.1386 -0.0277 -0.2681
  256DG     C18 5883   3.708   3.121   1.518  0.1442 -0.1067  0.1517
  256DG     O19 5884   3.685   3.259   1.547 -0.0798  0.7198  0.0724
  256DG     H20 5885   3.542   3.224   1.683  0.4187 -1.1788  0.0756
  256DG     H21 5886   3.697   3.221   1.761 -0.3624 -1.5077 -1.0718
  256DG     H22 5887   3.613   3.069   1.525  0.5939 -1.1472 -1.1334
  256DG     H23 5888   3.772   3.075   1.594 -0.8394  0.3031  1.2457
  257DG      C1 5889   4.018   0.344   4.100 -0.3787  0.1280  0.4464
  257DG      C2 5890   3.881   0.867   3.675  0.7188 -0.4319  0.2844
  257DG      H3 5891   3.957   0.405   4.034  0.4597  1.4646  0.8673
  257DG      H4 5892   3.950   0.288   4.164 -0.9149  2.2849  1.8626
  257DG      H5 5893   4.078   0.273   4.043 -0.8106  1.3728 -1.6789
  257DG      H6 5894   3.773   0.871   3.686  0.5250 -1.7468 -0.8147
  257DG      H7 5895   3.918   0.965   3.646 -0.2983 -0.4063 -1.0056
  257DG      H8 5896   3.906   0.797   3.595  0.8476 -1.3722  1.1193
  257DG      O9 5897   4.103   0.429   4.175 -0.1557  0.4485 -0.1893
  257DG     O10 5898   3.956   0.815   3.785  0.4769 -0.1305  0.3007
  257DG     C11 5899   4.201   0.492   4.095  0.5252  0.2778  0.4600
  257DG     C12 5900   3.915   0.863   3.912  0.1036  0.0043  0.2026
  257DG     H13 5901   4.224   0.445   4.000  0.1507  0.0782  0.4645
  257DG     H14 5902   4.289   0.473   4.155 -0.2614 -1.3983  1.1505
  257DG     H15 5903   3.821   0.809   3.921 -1.0478  1.4465 -2.2564
  257DG     H16 5904   3.909   0.972   3.911  0.7386  0.1149  2.4711
  257DG     C17 5905   4.167   0.641   4.083 -1.0946  0.0736 -0.1019
  257DG     C18 5906   4.025   0.819   4.011  0.2519 -0.0989  0.2792
  257DG     O19 5907   4.059   0.677   4.004 -0.0374 -0.0231 -0.1386
  257DG     H20 5908   4.259   0.689   4.048 -1.7857  1.5845  0.1006
  257DG     H21 5909   4.154   0.683   4.182  0.7756  1.1013 -0.2508
  257DG     H22 5910   4.117   0.876   3.994 -0.0173 -0.2293 -1.9438
  257DG     H23 5911   4.004   0.846   4.114  0.2059 -1.0870  0.5397
  258DG      C1 5912   0.681   4.145   4.973 -0.3794 -0.2111 -0.1231
  258DG      C2 5913   0.276   3.953   4.246 -0.1827 -0.3860 -0.7743
  258DG      H3 5914   0.723   4.044   4.974 -1.6281 -0.7613 -0.9308
  258DG      H4 5915   0.608   4.158   5.053 -2.8907 -0.5506 -2.2177
  258DG      H5 5916   0.768   4.208   4.992 -0.5954  0.1658 -0.3728
  258DG      H6 5917   0.314   4.036   4.186  1.3307  0.0757  0.7432
  258DG      H7 5918   0.344   3.870   4.226  1.4827  0.8980 -0.6597
  258DG      H8 5919   0.176   3.925   4.212 -0.3009  0.6091 -1.2795
  258DG      O9 5920   0.618   4.198   4.855  0.3141  0.1374  0.1124
  258DG     O10 5921   0.267   3.982   4.387 -0.1610 -0.7222  0.1555
  258DG     C11 5922   0.705   4.230   4.740  0.4780 -0.6237 -0.2970
  258DG     C12 5923   0.389   3.976   4.466  0.0131  0.1802  0.4451
  258DG     H13 5924   0.779   4.151   4.727  0.5844 -0.7564  0.9757
  258DG     H14 5925   0.761   4.323   4.745 -0.2734 -0.2283  1.2370
  258DG     H15 5926   0.476   3.945   4.408  0.2386  1.0050  0.3219
  258DG     H16 5927   0.380   3.910   4.552 -0.0019  0.7950  0.9236
  258DG     C17 5928   0.617   4.223   4.613 -0.2477 -0.4242 -0.2926
  258DG     C18 5929   0.441   4.115   4.507 -0.2497  0.2825  0.4782
  258DG     O19 5930   0.547   4.105   4.608 -0.0497  0.3661 -0.0801
  258DG     H20 5931   0.684   4.229   4.527 -1.8219  0.1613 -1.5377
  258DG     H21 5932   0.555   4.312   4.602  0.4594  0.0707 -0.3530
  258DG     H22 5933   0.473   4.169   4.418 -1.3286  1.5755  0.8382
  258DG     H23 5934   0.354   4.174   4.538 -0.0170  0.4110  0.8931
  259DG      C1 5935   3.489   4.158   3.416  0.5003 -0.1982  0.2708
  259DG      C2 5936   3.893   4.200   2.860 -0.0682 -0.8957 -0.1797
  259DG      H3 5937   3.485   4.121   3.518 -0.6189  1.8432  1.0162
  259DG      H4 5938   3.399   4.136   3.358  2.4067 -1.6324 -2.3411
  259DG      H5 5939   3.480   4.266   3.413  1.8440 -0.0798 -1.5786
  259DG      H6 5940   3.834   4.110   2.878  0.2147 -0.7821  1.3859
  259DG      H7 5941   3.829   4.270   2.805 -0.6672  0.8965  2.6176
  259DG      H8 5942   3.974   4.167   2.796 -0.8542  0.1210 -1.7726
  259DG      O9 5943   3.608   4.122   3.347  0.2266 -0.2263  0.4803
  259DG     O10 5944   3.932   4.267   2.980 -0.3417  0.9683 -0.2277
  259DG     C11 5945   3.728   4.115   3.417 -0.2181 -0.0040 -0.1382
  259DG     C12 5946   4.026   4.208   3.062 -0.1417  0.0248  0.1421
  259DG     H13 5947   3.720   4.048   3.503 -1.6581 -0.6463 -0.7386
  259DG     H14 5948   3.754   4.213   3.457 -1.8474  0.7158 -0.7839
  259DG     H15 5949   4.068   4.277   3.135  1.1326  1.1166 -1.5663
  259DG     H16 5950   4.116   4.178   3.009  0.7798 -1.9649  2.6326
  259DG     C17 5951   3.848   4.070   3.330 -0.3482  0.0154  0.3164
  259DG     C18 5952   3.968   4.100   3.139  0.4816 -0.0737 -0.1029
  259DG     O19 5953   3.864   4.162   3.225 -0.6360  0.0327  0.1493
  259DG     H20 5954   3.841   3.964   3.304  1.2248 -0.0616  0.1113
  259DG     H21 5955   3.941   4.082   3.385 -1.0157 -1.4469  1.8707
  259DG     H22 5956   3.915   4.020   3.087  1.4414 -2.3879  2.2779
  259DG     H23 5957   4.049   4.052   3.192 -0.9155 -1.3208  0.9906
  260DG      C1 5958   1.983   3.070   2.644 -0.0329 -0.5960 -0.7398
  260DG      C2 5959   1.969   3.751   2.973  0.3973  0.2454  0.6096
  260DG      H3 5960   2.088   3.066   2.672 -0.4440 -2.7073  0.7880
  260DG      H4 5961   1.980   3.046   2.538 -1.3929 -0.7860 -0.6686
  260DG      H5 5962   1.911   3.013   2.703  0.2880 -0.4006 -0.1500
  260DG      H6 5963   2.001   3.664   3.029 -0.2828 -1.1768 -1.1087
  260DG      H7 5964   2.054   3.818   2.979  1.0742 -0.6801  1.6527
  260DG      H8 5965   1.878   3.801   3.006 -0.7980 -0.7902 -0.9625
  260DG      O9 5966   1.936   3.197   2.670  0.1044 -0.1927  0.1269
  260DG     O10 5967   1.944   3.686   2.849 -0.4640  0.0322 -0.7950
  260DG     C11 5968   2.009   3.296   2.609 -0.1139 -0.7647  0.0138
  260DG     C12 5969   2.025   3.735   2.743  0.0581 -0.0584  0.2149
  260DG     H13 5970   2.006   3.280   2.501 -1.1997 -0.0115 -0.0777
  260DG     H14 5971   2.114   3.291   2.638  0.5889 -0.2404 -2.2290
  260DG     H15 5972   2.129   3.712   2.767  0.3462 -0.6445 -1.4262
  260DG     H16 5973   2.023   3.844   2.734 -0.5626 -0.1572 -1.1061
  260DG     C17 5974   1.961   3.440   2.649 -0.3628  0.3541  0.1810
  260DG     C18 5975   1.990   3.676   2.608  0.3265  0.0124  0.1501
  260DG     O19 5976   2.039   3.540   2.594 -0.0941 -0.3220  0.5011
  260DG     H20 5977   1.945   3.449   2.757 -0.4335  1.7506  0.0721
  260DG     H21 5978   1.865   3.461   2.602 -0.2488  0.9802  0.2199
  260DG     H22 5979   1.882   3.680   2.597  0.3785  0.2178 -0.2736
  260DG     H23 5980   2.031   3.742   2.532 -1.0674  0.3586 -0.3218
  261DG      C1 5981   0.708   2.387   1.777 -0.2552  0.6063 -0.4783
  261DG      C2 5982   0.137   2.694   1.388  0.3800 -0.1952  0.5096
  261DG      H3 5983   0.754   2.291   1.755 -1.5559 -0.2453  0.3718
  261DG      H4 5984   0.648   2.373   1.867  0.7544 -1.0360 -0.0086
  261DG      H5 5985   0.788   2.455   1.806 -0.1097  0.0637  0.4160
  261DG      H6 5986   0.073   2.643   1.461 -1.3991 -0.2030 -0.9707
  261DG      H7 5987   0.138   2.802   1.402  0.9729  0.0642 -1.3153
  261DG      H8 5988   0.092   2.678   1.290  2.4672 -1.2125 -0.3545
  261DG      O9 5989   0.632   2.430   1.669 -0.3355  0.0229  0.1323
  261DG     O10 5990   0.270   2.653   1.378  0.2998  0.1957 -0.1437
  261DG     C11 5991   0.692   2.484   1.555 -0.6372 -0.6850 -0.2784
  261DG     C12 5992   0.279   2.517   1.341  0.0682 -0.1413  0.0782
  261DG     H13 5993   0.797   2.456   1.547  0.2838  2.1081  1.0444
  261DG     H14 5994   0.691   2.592   1.564  0.3200 -0.7444  0.7712
  261DG     H15 5995   0.223   2.487   1.252  1.4830 -0.5242 -0.7087
  261DG     H16 5996   0.231   2.458   1.419 -0.4975 -2.5059 -1.9333
  261DG     C17 5997   0.627   2.460   1.415 -0.1228  0.7230 -0.2032
  261DG     C18 5998   0.420   2.458   1.317  0.2579 -0.4770 -1.2597
  261DG     O19 5999   0.495   2.504   1.423 -0.3990 -0.7892  0.0376
  261DG     H20 6000   0.637   2.352   1.413 -0.9713  0.6346 -0.3145
  261DG     H21 6001   0.682   2.500   1.331 -0.6910  1.7670 -0.1031
  261DG     H22 6002   0.417   2.349   1.308  1.3505 -0.4626 -2.1341
  261DG     H23 6003   0.461   2.476   1.217  0.4966 -1.5583 -1.3663
  262DG      C1 6004   2.482   0.721   0.865  0.3876  0.4214 -0.0111
  262DG      C2 6005   2.457  -0.028   0.644 -0.3463  0.4620  0.0699
  262DG      H3 6006   2.498   0.758   0.764  0.8290 -0.3169 -0.2178
  262DG      H4 6007   2.579   0.695   0.908 -0.0197  1.4109  1.6028
  262DG      H5 6008   2.437   0.797   0.930 -0.4115  0.7945 -0.9780
  262DG      H6 6009   2.450  -0.090   0.733  1.2336  0.7087  0.3925
  262DG      H7 6010   2.367   0.026   0.615  1.3698  1.6815 -3.7519
  262DG      H8 6011   2.483  -0.089   0.557  2.0550 -1.1225  1.7812
  262DG      O9 6012   2.393   0.608   0.884 -0.0724 -0.0012 -0.4784
  262DG     O10 6013   2.561   0.073   0.667 -0.4938  0.1128  0.2953
  262DG     C11 6014   2.453   0.483   0.865 -0.1293  0.0849  0.4649
  262DG     C12 6015   2.587   0.167   0.564 -0.9409 -0.1210  0.5281
  262DG     H13 6016   2.396   0.399   0.906 -2.4951  0.4489 -1.8343
  262DG     H14 6017   2.560   0.481   0.886 -0.1691 -0.4412  0.6311
  262DG     H15 6018   2.577   0.116   0.468  0.4732  0.0346  0.2762
  262DG     H16 6019   2.688   0.206   0.582 -1.0225  0.3416 -0.0025
  262DG     C17 6020   2.454   0.451   0.718 -0.4960 -0.5137  0.3158
  262DG     C18 6021   2.496   0.282   0.578  0.2762 -0.3925  0.7042
  262DG     O19 6022   2.518   0.328   0.708  0.6340 -0.0283 -0.2713
  262DG     H20 6023   2.491   0.527   0.650 -3.1748 -0.6023 -1.4107
  262DG     H21 6024   2.357   0.442   0.669  0.6753  1.0519 -2.4805
  262DG     H22 6025   2.530   0.347   0.497 -1.0554 -0.3120  0.1952
  262DG     H23 6026   2.393   0.252   0.558  0.1912  0.0769  0.4276
  263DG      C1 6027   4.638   3.557   1.406 -0.8191  0.5229  0.0732
  263DG      C2 6028   4.037   3.325   1.545  0.0084 -0.1424 -0.3651
  263DG      H3 6029   4.701   3.587   1.323 -1.2920  0.8756 -0.1625
  263DG      H4 6030   4.697   3.490   1.469 -2.6747  1.1782  2.6847
  263DG      H5 6031   4.614   3.643   1.469  0.3819  1.0814 -0.1914
  263DG      H6 6032   4.031   3.418   1.601 -1.4683 -0.0117 -0.6888
  263DG      H7 6033   3.951   3.261   1.563 -0.9104  1.0876 -0.2506
  263DG      H8 6034   4.113   3.272   1.602 -0.5310 -1.6070 -0.9464
  263DG      O9 6035   4.522   3.500   1.352 -0.0300  0.0646 -0.0342
  263DG     O10 6036   4.087   3.329   1.413  0.6403 -0.1346 -0.2566
  263DG     C11 6037   4.455   3.591   1.262 -0.1662 -0.3346 -1.0410
  263DG     C12 6038   4.035   3.420   1.327 -0.3133  0.4212  0.2250
  263DG     H13 6039   4.524   3.634   1.191  0.2336 -0.4875 -0.7483
  263DG     H14 6040   4.405   3.668   1.320  0.4922 -0.5576 -0.1578
  263DG     H15 6041   4.014   3.513   1.381 -2.6049 -1.7830  3.5686
  263DG     H16 6042   3.938   3.385   1.292 -0.5358 -0.1139  1.3030
  263DG     C17 6043   4.346   3.515   1.181 -0.0815 -0.0235  0.3779
  263DG     C18 6044   4.129   3.429   1.209 -0.3483  0.1375  0.0344
  263DG     O19 6045   4.251   3.473   1.270  0.3857 -0.4015 -0.1452
  263DG     H20 6046   4.398   3.432   1.133 -1.6275 -0.2437 -0.9655
  263DG     H21 6047   4.305   3.577   1.102  0.0493 -1.7044 -1.0551
  263DG     H22 6048   4.153   3.338   1.153 -2.4004  1.5473 -3.4799
  263DG     H23 6049   4.089   3.513   1.153 -0.8865  1.8681  2.8134
  264DG      C1 6050   4.589   3.612   4.522 -0.0716  0.9438 -0.0945
  264DG      C2 6051   4.974   4.102   4.194  0.8434  0.0565 -0.2857
  264DG      H3 6052   4.542   3.578   4.614 -0.6459 -0.0019 -0.7161
  264DG      H4 6053   4.668   3.540   4.502  0.0235  0.9995  0.0887
  264DG      H5 6054   4.524   3.588   4.437 -0.2745  0.4746  0.1909
  264DG      H6 6055   5.051   4.072   4.265  2.0106  0.0783 -1.5032
  264DG      H7 6056   4.995   4.037   4.109 -4.3202 -1.2259 -0.9159
  264DG      H8 6057   4.984   4.205   4.159 -1.7686 -0.3875 -2.7034
  264DG      O9 6058   4.631   3.744   4.521 -0.3675  0.2418  0.1684
  264DG     O10 6059   4.845   4.064   4.249  0.2384  0.2262 -0.0470
  264DG     C11 6060   4.522   3.832   4.551 -0.1878 -0.0840 -0.2684
  264DG     C12 6061   4.784   4.161   4.336  0.1451  0.1240  0.3450
  264DG     H13 6062   4.470   3.804   4.643  0.5057 -0.4396  0.0225
  264DG     H14 6063   4.456   3.815   4.466 -0.0687 -0.9788 -0.1929
  264DG     H15 6064   4.776   4.254   4.280 -0.3346 -0.5973 -0.8377
  264DG     H16 6065   4.849   4.185   4.419 -1.4655  1.6456  1.2261
  264DG     C17 6066   4.566   3.978   4.561  0.1202 -0.1881  0.0631
  264DG     C18 6067   4.646   4.127   4.393 -0.7024  0.6649  0.7232
  264DG     O19 6068   4.658   3.997   4.460 -0.3714  0.0389  0.6946
  264DG     H20 6069   4.615   4.006   4.654  0.0846 -0.6898  0.2373
  264DG     H21 6070   4.475   4.033   4.537  0.4036  0.1222 -0.2896
  264DG     H22 6071   4.601   4.209   4.449 -2.2995  1.1626 -1.1534
  264DG     H23 6072   4.572   4.110   4.314 -0.0428  1.1733 -0.0138
  265DG      C1 6073   4.721   2.133   4.389 -0.1475 -0.5176 -0.3621
  265DG      C2 6074   5.254   2.034   3.973 -0.4357 -0.1809 -0.5250
  265DG      H3 6075   4.662   2.083   4.312 -3.8015  2.5441  0.1869
  265DG      H4 6076   4.673   2.220   4.434  1.1760 -0.6901  1.4739
  265DG      H5 6077   4.718   2.069   4.477  0.2821 -1.1367 -0.7913
  265DG      H6 6078   5.331   2.076   3.907  0.8285 -1.2911  0.2114
  265DG      H7 6079   5.299   1.965   4.043 -2.3717  0.2433  1.2259
  265DG      H8 6080   5.185   1.979   3.910  1.7636  0.0052 -3.3168
  265DG      O9 6081   4.853   2.160   4.354  0.4097 -0.3370 -0.3883
  265DG     O10 6082   5.192   2.132   4.049  0.5011  0.9020 -0.1204
  265DG     C11 6083   4.937   2.218   4.454 -0.2269  0.3752  0.1002
  265DG     C12 6084   5.272   2.224   4.119 -0.2646 -0.1785  0.2393
  265DG     H13 6085   4.992   2.132   4.491  0.9523  0.6603 -0.8994
  265DG     H14 6086   4.902   2.266   4.546  2.5218 -0.4418  1.6900
  265DG     H15 6087   5.339   2.283   4.056 -0.7248  0.7623  0.6124
  265DG     H16 6088   5.342   2.172   4.183 -0.8024  0.7315  1.6131
  265DG     C17 6089   5.029   2.315   4.374  0.3472 -0.0578 -0.4051
  265DG     C18 6090   5.188   2.322   4.206 -0.4862 -0.0686 -0.5009
  265DG     O19 6091   5.104   2.239   4.285  0.0396  0.0290  0.6493
  265DG     H20 6092   5.093   2.358   4.451  0.1145 -0.8953  0.2700
  265DG     H21 6093   4.966   2.387   4.321 -0.0548 -0.1765 -0.0978
  265DG     H22 6094   5.244   2.389   4.271  1.2306 -1.5336 -0.4088
  265DG     H23 6095   5.124   2.385   4.144 -0.4229  0.9116  0.4165
  266DG      C1 6096   2.083   4.126   2.966 -0.8245 -0.1910 -0.1079
  266DG      C2 6097   2.970   3.950   2.947  1.3065 -0.1671 -0.4208
  266DG      H3 6098   2.040   4.039   3.015  0.4760 -0.1734  1.1612
  266DG      H4 6099   2.064   4.111   2.860  2.0269 -0.8374 -0.6270
  266DG      H5 6100   2.028   4.206   3.015 -0.6231 -0.7057  0.9955
  266DG      H6 6101   3.065   3.987   2.985  0.6987  0.9149  0.0827
  266DG      H7 6102   2.946   3.848   2.977  0.7075 -0.2968 -1.3090
  266DG      H8 6103   2.986   3.930   2.841  1.3652 -0.9484 -0.2704
  266DG      O9 6104   2.225   4.131   2.967  0.0873 -0.0798  0.3168
  266DG     O10 6105   2.872   4.051   2.979 -0.4478  0.2207 -0.0900
  266DG     C11 6106   2.286   4.111   3.092  0.3142 -0.1980  0.4181
  266DG     C12 6107   2.740   4.019   2.959 -0.5402  0.1883 -0.0784
  266DG     H13 6108   2.275   4.004   3.112 -3.5525  0.1099  0.6549
  266DG     H14 6109   2.228   4.168   3.164  0.2227  2.7576 -1.8169
  266DG     H15 6110   2.723   3.913   2.982 -1.1463  0.2892 -0.0443
  266DG     H16 6111   2.720   4.035   2.853 -0.7435 -0.6978 -0.1888
  266DG     C17 6112   2.426   4.169   3.096  0.1770 -0.7552 -0.1328
  266DG     C18 6113   2.653   4.117   3.038 -0.4551  0.0667  0.0065
  266DG     O19 6114   2.514   4.093   3.016  0.1191  0.2221  0.2730
  266DG     H20 6115   2.467   4.171   3.197  0.3649 -0.0348 -0.2224
  266DG     H21 6116   2.420   4.270   3.057  1.3668 -0.6638 -0.1317
  266DG     H22 6117   2.675   4.116   3.145 -0.8019 -2.1872  0.0850
  266DG     H23 6118   2.675   4.218   3.003  0.4852  0.5302  1.7643
  267DG      C1 6119   3.096   0.084   3.074 -0.0622  0.3854 -0.0569
  267DG      C2 6120   3.094   0.720   2.994  0.6188  0.4588 -0.8525
  267DG      H3 6121   3.125   0.066   2.970  0.3249 -1.1592  0.2841
  267DG      H4 6122   2.995   0.051   3.098 -0.6789  2.5645  0.5195
  267DG      H5 6123   3.171   0.031   3.133  0.7831 -0.9688 -2.2026
  267DG      H6 6124   3.089   0.679   2.893 -0.1377  2.1866 -1.5496
  267DG      H7 6125   3.009   0.780   3.024  1.3593  0.4599  1.4175
  267DG      H8 6126   3.171   0.798   2.988  0.9205  0.1330 -1.2866
  267DG      O9 6127   3.111   0.219   3.112 -0.4506 -0.2871  1.0835
  267DG     O10 6128   3.133   0.620   3.082 -0.0247 -0.0813 -0.4832
  267DG     C11 6129   3.062   0.242   3.243  0.0368 -0.2975  0.4782
  267DG     C12 6130   3.135   0.671   3.215 -0.2559  0.0789 -0.6621
  267DG     H13 6131   3.123   0.187   3.315  0.0362 -2.1156 -0.8421
  267DG     H14 6132   2.957   0.214   3.249  0.3658 -1.3854  1.4049
  267DG     H15 6133   3.034   0.667   3.257  0.3746  0.7856  1.0007
  267DG     H16 6134   3.166   0.775   3.224 -1.7080  0.6399 -1.7000
  267DG     C17 6135   3.066   0.385   3.294 -0.1018 -0.0801 -0.2074
  267DG     C18 6136   3.215   0.571   3.297  0.2660 -0.5472 -0.3141
  267DG     O19 6137   3.195   0.440   3.248 -0.2972  0.4438  0.0790
  267DG     H20 6138   3.051   0.397   3.401 -1.1624 -0.6923 -0.2752
  267DG     H21 6139   2.991   0.441   3.240 -1.0576 -0.4383  0.7080
  267DG     H22 6140   3.322   0.590   3.300 -0.2338  3.1090 -0.5876
  267DG     H23 6141   3.190   0.583   3.402 -1.5976 -0.9479 -0.6647
  268DG      C1 6142   4.183   3.371   2.476 -0.0549 -0.4712 -0.2117
  268DG      C2 6143   4.259   3.901   2.034 -0.5460  1.1194 -0.0417
  268DG      H3 6144   4.136   3.359   2.574 -0.5308  1.1472 -0.2102
  268DG      H4 6145   4.267   3.304   2.461  0.0236 -0.4714  0.2246
  268DG      H5 6146   4.109   3.344   2.401 -2.1811  0.3115  1.5019
  268DG      H6 6147   4.172   3.857   1.985  0.6699  0.7093 -1.9178
  268DG      H7 6148   4.243   4.008   2.023 -0.8018  0.9067 -1.9423
  268DG      H8 6149   4.345   3.863   1.980 -0.3785 -0.6788  1.3801
  268DG      O9 6150   4.212   3.510   2.464 -0.3556 -0.0883 -0.5074
  268DG     O10 6151   4.290   3.861   2.166 -0.4849  0.5535 -0.4963
  268DG     C11 6152   4.321   3.560   2.543 -0.1855  1.3871 -0.0149
  268DG     C12 6153   4.199   3.910   2.260 -1.0029  0.2686  0.0705
  268DG     H13 6154   4.422   3.541   2.506  0.0670  1.3100  0.6893
  268DG     H14 6155   4.317   3.512   2.641  0.3238 -0.3928 -0.8168
  268DG     H15 6156   4.106   3.858   2.239 -0.1874 -1.0248 -0.4000
  268DG     H16 6157   4.179   4.017   2.245  0.3150  0.1170 -3.8371
  268DG     C17 6158   4.311   3.716   2.549 -0.1017  0.2405 -0.6312
  268DG     C18 6159   4.263   3.895   2.394  0.2812  0.0428 -0.2992
  268DG     O19 6160   4.288   3.755   2.414  0.0678  0.3412  0.0445
  268DG     H20 6161   4.393   3.757   2.607 -0.7508  0.8413 -0.1255
  268DG     H21 6162   4.225   3.737   2.613  0.9738 -1.5485  1.5388
  268DG     H22 6163   4.357   3.948   2.410  0.0010  0.6156 -0.5240
  268DG     H23 6164   4.199   3.936   2.473  0.5815  1.9437 -0.9928
  269DG      C1 6165   3.525   4.390   0.015  0.3893 -0.3100 -0.1370
  269DG      C2 6166   2.938   4.575  -0.273 -0.5075 -0.3497  1.0436
  269DG      H3 6167   3.449   4.372   0.091 -0.4123 -0.2123 -0.8896
  269DG      H4 6168   3.555   4.493   0.035  1.0683 -0.4864 -0.2149
  269DG      H5 6169   3.603   4.314   0.019  0.5727 -0.0805  0.8079
  269DG      H6 6170   2.872   4.524  -0.202 -2.7895  0.8312 -0.1113
  269DG      H7 6171   2.955   4.673  -0.229 -1.1578  0.9184 -1.3535
  269DG      H8 6172   2.886   4.592  -0.367 -0.5503 -1.1203  0.9205
  269DG      O9 6173   3.453   4.383  -0.107  0.3306 -0.3406 -0.5446
  269DG     O10 6174   3.056   4.500  -0.313  0.1945  0.3813 -0.0767
  269DG     C11 6175   3.527   4.428  -0.215  0.1477 -0.2192 -0.1303
  269DG     C12 6176   3.117   4.548  -0.423  0.6784  0.0330  0.9085
  269DG     H13 6177   3.621   4.373  -0.220  0.8853  1.0994 -1.4963
  269DG     H14 6178   3.559   4.531  -0.203  1.2895 -0.6787  1.0007
  269DG     H15 6179   3.153   4.648  -0.400 -0.9060  0.4636  1.6816
  269DG     H16 6180   3.041   4.568  -0.499  0.9804 -0.3725  0.4959
  269DG     C17 6181   3.448   4.415  -0.346 -0.5482 -0.0020 -0.0652
  269DG     C18 6182   3.238   4.461  -0.452 -0.2640 -0.6158 -0.1091
  269DG     O19 6183   3.326   4.490  -0.337 -0.2310 -0.1356 -0.4636
  269DG     H20 6184   3.424   4.313  -0.376  1.2182  0.1817 -2.4257
  269DG     H21 6185   3.511   4.453  -0.427  0.1692 -0.3522  0.3139
  269DG     H22 6186   3.216   4.355  -0.451  3.5948 -1.5594 -0.2732
  269DG     H23 6187   3.293   4.484  -0.544  0.3458  1.5499  0.7145
  270DG      C1 6188   3.919   2.363   4.929 -0.6960 -0.3139  0.5704
  270DG      C2 6189   3.338   2.797   5.354  0.1018 -0.2675 -0.5156
  270DG      H3 6190   3.994   2.384   5.004 -0.3785 -1.6639  0.6619
  270DG      H4 6191   3.957   2.378   4.828  1.7867  0.2939  1.5276
  270DG      H5 6192   3.905   2.256   4.944 -0.8852 -0.0907  2.1496
  270DG      H6 6193   3.423   2.845   5.402 -0.2757  0.0523 -0.1619
  270DG      H7 6194   3.252   2.849   5.396  0.6475  0.3060 -0.0943
  270DG      H8 6195   3.343   2.690   5.370  2.5483 -0.7776 -3.6719
  270DG      O9 6196   3.806   2.439   4.960  0.0284  0.7388  0.0700
  270DG     O10 6197   3.357   2.790   5.218 -0.6716 -0.4679 -0.1286
  270DG     C11 6198   3.722   2.475   4.856 -0.1720 -0.5100 -0.3584
  270DG     C12 6199   3.482   2.721   5.187  0.7460  0.1134  0.0853
  270DG     H13 6200   3.658   2.389   4.834 -0.1876  0.1564 -3.3351
  270DG     H14 6201   3.770   2.501   4.762  0.4200  2.3671  0.6491
  270DG     H15 6202   3.492   2.625   5.237 -0.2036 -0.1513 -0.2180
  270DG     H16 6203   3.568   2.763   5.240  1.3903 -0.9263 -0.1051
  270DG     C17 6204   3.648   2.606   4.879 -0.1050  0.5022  0.2463
  270DG     C18 6205   3.507   2.715   5.039 -0.6684  0.5075 -0.3342
  270DG     O19 6206   3.589   2.600   5.010  0.0930 -0.6310 -0.3364
  270DG     H20 6207   3.583   2.607   4.792  0.0592 -1.6234  0.0602
  270DG     H21 6208   3.708   2.698   4.876  0.8275  0.1102  3.2636
  270DG     H22 6209   3.420   2.727   4.974 -0.9710 -0.1515 -0.0615
  270DG     H23 6210   3.571   2.802   5.026  0.2045  0.3244  2.1922
  271DG      C1 6211   5.292   2.251   5.129 -0.2955  0.2056 -0.0208
  271DG      C2 6212   5.906   1.879   5.454  0.0458 -0.0509  0.1912
  271DG      H3 6213   5.314   2.273   5.025  2.7605 -0.9529  0.2636
  271DG      H4 6214   5.305   2.340   5.190 -0.1240  1.1759 -1.4456
  271DG      H5 6215   5.193   2.207   5.142 -0.1152 -0.1582  0.1520
  271DG      H6 6216   5.938   1.974   5.411  0.1010  0.3516  1.0914
  271DG      H7 6217   5.947   1.876   5.555 -0.4819  1.1145  0.4645
  271DG      H8 6218   5.954   1.802   5.393 -1.0892 -0.4784 -0.1966
  271DG      O9 6219   5.389   2.164   5.185 -0.2222 -0.3644  0.1190
  271DG     O10 6220   5.766   1.860   5.464 -0.3886 -0.2192 -0.3091
  271DG     C11 6221   5.521   2.196   5.144 -0.3440  0.8874 -0.1626
  271DG     C12 6222   5.701   1.973   5.508 -0.5509 -1.1936  0.4458
  271DG     H13 6223   5.575   2.272   5.201  0.9074 -0.2651  0.2242
  271DG     H14 6224   5.533   2.232   5.042 -0.2100  3.3470  0.6375
  271DG     H15 6225   5.756   2.020   5.589  0.6727 -1.4836 -0.1879
  271DG     H16 6226   5.604   1.950   5.552 -0.1870  1.5229  3.0048
  271DG     C17 6227   5.615   2.068   5.159 -0.9170 -0.5770  0.0010
  271DG     C18 6228   5.664   2.078   5.401  0.1408  0.3361  0.1046
  271DG     O19 6229   5.615   2.002   5.289  0.2495 -0.3956  0.5329
  271DG     H20 6230   5.720   2.082   5.136 -1.3631  0.0856 -1.8396
  271DG     H21 6231   5.562   1.992   5.101 -1.4478  1.0826 -1.7800
  271DG     H22 6232   5.595   2.152   5.443 -0.8392 -1.5260  1.9632
  271DG     H23 6233   5.760   2.127   5.387 -0.2698  0.7004 -1.7362
  272DG      C1 6234   1.528   4.075   5.351  0.1376  0.2592  0.1888
  272DG      C2 6235   0.874   4.313   5.234  0.2170  0.0189 -0.0781
  272DG      H3 6236   1.624   4.088   5.399  0.6937  0.9922 -1.0659
  272DG      H4 6237   1.554   4.096   5.247 -3.9261 -0.3207 -1.1703
  272DG      H5 6238   1.495   3.973   5.371 -0.4510  0.6179  1.1163
  272DG      H6 6239   0.792   4.369   5.279  1.3484  1.9397 -0.3289
  272DG      H7 6240   0.902   4.365   5.143  2.3987  0.0769  0.5781
  272DG      H8 6241   0.831   4.218   5.201 -0.1966  0.3032 -0.3622
  272DG      O9 6242   1.442   4.179   5.394  0.2508 -0.2851 -0.1069
  272DG     O10 6243   0.986   4.304   5.323 -0.4655 -0.2499 -0.1838
  272DG     C11 6244   1.412   4.178   5.535 -0.6422 -0.2666  0.1305
  272DG     C12 6245   0.957   4.233   5.443  0.2980 -0.6303 -0.0906
  272DG     H13 6246   1.504   4.199   5.590 -0.5319  0.3507 -0.2775
  272DG     H14 6247   1.368   4.081   5.557 -3.6365  0.5893 -1.5218
  272DG     H15 6248   0.937   4.128   5.425 -0.6605 -0.2121 -1.6810
  272DG     H16 6249   0.864   4.274   5.483 -0.8635 -1.2467 -2.0792
  272DG     C17 6250   1.296   4.265   5.564 -0.0726  0.2231  1.3697
  272DG     C18 6251   1.066   4.258   5.550  0.4989 -0.5555 -0.5122
  272DG     O19 6252   1.187   4.216   5.490  0.0340  0.3037 -0.6657
  272DG     H20 6253   1.322   4.369   5.543 -1.9658  0.6910  1.1596
  272DG     H21 6254   1.272   4.255   5.669 -2.5494 -0.4461  0.8069
  272DG     H22 6255   1.072   4.363   5.579  2.8331 -0.6153 -0.5747
  272DG     H23 6256   1.056   4.193   5.637 -0.0334 -0.2196 -0.3209
  273DG      C1 6257   4.311   4.582   2.967  0.1024  0.3545  0.0242
  273DG      C2 6258   3.980   5.154   2.650  0.4483  0.2624  0.2810
  273DG      H3 6259   4.313   4.475   2.985  0.7870  0.0408 -1.7421
  273DG      H4 6260   4.252   4.630   3.045 -0.3024 -0.4550  0.2263
  273DG      H5 6261   4.414   4.618   2.964  1.2787 -2.6586  0.5564
  273DG      H6 6262   3.919   5.171   2.739  3.8396  1.0328  2.6500
  273DG      H7 6263   4.073   5.198   2.687  1.6861 -0.1452 -2.1210
  273DG      H8 6264   3.947   5.199   2.557 -1.3383  0.3818  0.9417
  273DG      O9 6265   4.261   4.608   2.831 -0.3825  0.1722  0.2811
  273DG     O10 6266   3.985   5.006   2.630 -0.2581  0.1009  0.4151
  273DG     C11 6267   4.132   4.542   2.805  0.5147  0.7586  0.1449
  273DG     C12 6268   4.080   4.959   2.533  0.8373  0.1425  0.1930
  273DG     H13 6269   4.048   4.559   2.873 -3.2453 -4.5707 -2.4258
  273DG     H14 6270   4.149   4.435   2.810  2.9519  0.9575 -1.8691
  273DG     H15 6271   4.175   4.994   2.574  2.1941 -2.5215 -0.4421
  273DG     H16 6272   4.068   5.006   2.436 -2.0991  1.3346  1.0424
  273DG     C17 6273   4.083   4.591   2.659  0.5395 -0.5212 -0.2274
  273DG     C18 6274   4.067   4.804   2.527  0.2011 -0.2068  0.4717
  273DG     O19 6275   4.084   4.738   2.656 -0.0457 -0.5655  0.0497
  273DG     H20 6276   3.981   4.553   2.644  0.4887 -0.8853  0.9246
  273DG     H21 6277   4.138   4.547   2.577 -0.2290  0.6607 -1.4089
  273DG     H22 6278   3.968   4.775   2.492  0.5978 -1.1027  0.0523
  273DG     H23 6279   4.131   4.763   2.448 -0.2081 -0.7339  0.4087
  274DG      C1 6280   4.370   0.147   4.357  0.0784  0.5075  0.0794
  274DG      C2 6281   3.548   0.184   4.427 -0.8494 -0.4345 -0.5290
  274DG      H3 6282   4.332   0.088   4.274  1.9232  0.0862 -0.5115
  274DG      H4 6283   4.476   0.125   4.367 -0.6050 -2.7995  0.9392
  274DG      H5 6284   4.368   0.254   4.332 -1.6233 -0.0390 -2.6644
  274DG      H6 6285   3.483   0.115   4.374  0.3566 -1.7845 -0.3232
  274DG      H7 6286   3.484   0.245   4.490 -1.7911 -1.4439 -0.4884
  274DG      H8 6287   3.603   0.242   4.352  1.9168 -0.7820  1.0793
  274DG      O9 6288   4.313   0.111   4.487  0.4155 -0.0635 -0.5208
  274DG     O10 6289   3.651   0.108   4.493  0.0101 -0.4602 -0.0061
  274DG     C11 6290   4.181   0.152   4.503 -0.1614 -0.4320 -0.7671
  274DG     C12 6291   3.727   0.025   4.402  0.2496 -0.0812 -0.0895
  274DG     H13 6292   4.144   0.227   4.433 -0.4690  0.1605  0.0255
  274DG     H14 6293   4.178   0.201   4.600 -2.8841 -0.2623 -0.8670
  274DG     H15 6294   3.754   0.071   4.307 -1.2733 -0.6800 -0.8466
  274DG     H16 6295   3.676  -0.061   4.360  1.2424  0.2821 -2.1715
  274DG     C17 6296   4.086   0.037   4.494  0.0478 -0.2937  0.1446
  274DG     C18 6297   3.863  -0.027   4.459  0.5636 -0.3352 -0.8125
  274DG     O19 6298   3.952   0.088   4.478 -0.1389 -0.1327  0.5709
  274DG     H20 6299   4.103  -0.020   4.585 -1.1856  0.1723  0.6923
  274DG     H21 6300   4.115  -0.021   4.406  0.1056  1.6669 -1.2050
  274DG     H22 6301   3.833  -0.074   4.553  0.3642  1.9348  0.3072
  274DG     H23 6302   3.894  -0.107   4.391  0.0552 -2.8972  1.7507
  275DG      C1 6303   1.864   2.893   0.413 -0.1635  0.1218  0.3162
  275DG      C2 6304   2.270   2.547   0.771 -0.2632  0.0435 -0.3755
  275DG      H3 6305   1.834   2.950   0.325  0.1792  1.0460  0.7836
  275DG      H4 6306   1.816   2.942   0.498 -0.9639 -1.1964  0.6538
  275DG      H5 6307   1.812   2.798   0.399  0.1016  0.1257 -0.7917
  275DG      H6 6308   2.168   2.508   0.780  0.3832 -1.3275  1.7652
  275DG      H7 6309   2.324   2.478   0.706  1.5569  0.8091  0.2557
  275DG      H8 6310   2.305   2.542   0.874 -1.0721  3.1042  0.1228
  275DG      O9 6311   2.004   2.876   0.423 -0.4347 -0.5464 -0.6604
  275DG     O10 6312   2.258   2.676   0.713  0.2326 -0.3848 -0.4084
  275DG     C11 6313   2.077   2.994   0.448 -0.8210 -0.4540 -0.0109
  275DG     C12 6314   2.362   2.763   0.701  0.2627  0.5056 -0.1807
  275DG     H13 6315   2.051   3.043   0.542 -0.3730 -1.5410  0.7024
  275DG     H14 6316   2.055   3.075   0.379  1.5358  0.0135 -0.2788
  275DG     H15 6317   2.441   2.707   0.652 -2.5145 -1.9397 -2.2188
  275DG     H16 6318   2.389   2.792   0.803  0.7763  0.8639 -0.4168
  275DG     C17 6319   2.224   2.978   0.444  0.3703 -0.1886 -0.5692
  275DG     C18 6320   2.318   2.893   0.640  0.3810 -0.3607  0.4255
  275DG     O19 6321   2.258   2.866   0.512 -0.5741  0.6054 -0.1668
  275DG     H20 6322   2.278   3.071   0.466  0.9687 -0.6695  0.0424
  275DG     H21 6323   2.247   2.956   0.340 -0.2128  0.5054 -0.8553
  275DG     H22 6324   2.257   2.961   0.699  0.6196 -0.7341  1.1134
  275DG     H23 6325   2.414   2.940   0.619 -0.2439  0.8654  0.2083
  276DG      C1 6326   3.201   0.540   5.433  0.2947 -0.7996  0.4488
  276DG      C2 6327   3.078  -0.184   5.071 -0.1359 -0.4673 -0.2551
  276DG      H3 6328   3.295   0.567   5.384 -0.2325  1.6970  0.6499
  276DG      H4 6329   3.211   0.581   5.534 -0.6861  0.0478  0.2229
  276DG      H5 6330   3.117   0.593   5.389  0.3380 -1.6451 -0.6847
  276DG      H6 6331   3.010  -0.185   4.986 -1.9523  0.8445  1.0831
  276DG      H7 6332   3.167  -0.233   5.032  0.1429  0.2958 -0.5837
  276DG      H8 6333   3.033  -0.253   5.143 -2.0369 -1.3224 -2.1581
  276DG      O9 6334   3.178   0.403   5.447 -0.3337 -0.4792 -0.4013
  276DG     O10 6335   3.105  -0.049   5.118 -0.0731  0.2121 -0.3700
  276DG     C11 6336   3.117   0.346   5.332 -0.9772  0.1142  0.2227
  276DG     C12 6337   3.238  -0.028   5.159  0.2311  0.7535  0.0229
  276DG     H13 6338   3.163   0.369   5.236 -0.0281 -0.2296  0.5772
  276DG     H14 6339   3.016   0.385   5.319 -1.5666 -1.5238 -0.5179
  276DG     H15 6340   3.272  -0.045   5.057 -1.7545 -0.2645 -0.5237
  276DG     H16 6341   3.271  -0.113   5.219 -0.3014  0.8573  0.4723
  276DG     C17 6342   3.093   0.193   5.356  0.7901 -0.3739 -0.1458
  276DG     C18 6343   3.274   0.101   5.229  0.2278 -0.3806 -0.3659
  276DG     O19 6344   3.214   0.117   5.358  0.0105  0.3864  0.2899
  276DG     H20 6345   3.016   0.154   5.290  0.9817  0.8019 -1.1069
  276DG     H21 6346   3.045   0.185   5.454 -2.0228 -0.3409 -1.4287
  276DG     H22 6347   3.380   0.100   5.252  0.0169  3.1284  1.4655
  276DG     H23 6348   3.257   0.198   5.182 -1.3471 -0.4688 -0.0483
  277DG      C1 6349   2.352   2.619   3.471 -0.5190 -0.9678 -0.2705
  277DG      C2 6350   2.085   2.026   3.192 -0.4302  0.2397 -0.2252
  277DG      H3 6351   2.251   2.647   3.501 -0.1234 -0.9585  1.0824
  277DG      H4 6352   2.400   2.710   3.435  1.0314 -0.4512  2.7881
  277DG      H5 6353   2.403   2.601   3.565  1.5769  4.8253  0.0584
  277DG      H6 6354   2.073   1.967   3.283 -0.7292 -0.1450 -0.5112
  277DG      H7 6355   2.006   2.100   3.180 -2.0593 -1.6142 -1.6463
  277DG      H8 6356   2.073   1.951   3.114 -2.1088 -0.6713  0.8510
  277DG      O9 6357   2.376   2.510   3.377 -0.1320  0.6933 -0.5487
  277DG     O10 6358   2.203   2.101   3.191 -0.2652 -0.1739  0.7493
  277DG     C11 6359   2.506   2.447   3.388  0.6040 -0.5942 -0.7428
  277DG     C12 6360   2.328   2.031   3.185  0.3735 -0.1691 -0.3306
  277DG     H13 6361   2.524   2.412   3.490  1.3155  0.1442 -0.6082
  277DG     H14 6362   2.581   2.519   3.357 -0.1540  0.5871  0.0895
  277DG     H15 6363   2.340   1.976   3.092  0.5131 -1.0325  0.1894
  277DG     H16 6364   2.332   1.945   3.252 -0.7319  1.5372  2.0848
  277DG     C17 6365   2.522   2.328   3.291 -0.2961 -1.3637  0.3951
  277DG     C18 6366   2.439   2.128   3.198 -0.4771  0.3251 -0.6117
  277DG     O19 6367   2.420   2.227   3.303  0.1525  0.4345  0.7814
  277DG     H20 6368   2.621   2.286   3.301  0.5498 -0.2952 -2.3669
  277DG     H21 6369   2.517   2.376   3.193 -1.3365  0.1634  1.1431
  277DG     H22 6370   2.538   2.085   3.214 -0.9380  0.0756  1.9254
  277DG     H23 6371   2.450   2.177   3.101  0.0119  0.0966 -0.6725
  278DG      C1 6372   4.116   2.842   0.004 -0.0121  0.4666 -0.3718
  278DG      C2 6373   3.969   3.391   0.173  0.4680  0.0327 -0.3333
  278DG      H3 6374   4.213   2.892  -0.004  0.2528  0.3505  1.6692
  278DG      H4 6375   4.126   2.740  -0.031  1.5375  0.7623 -0.8785
  278DG      H5 6376   4.094   2.842   0.111 -0.8470  1.0305 -0.5365
  278DG      H6 6377   4.016   3.381   0.271  1.0078 -1.9073 -0.7620
  278DG      H7 6378   4.024   3.315   0.118 -2.7118 -1.3782 -1.8184
  278DG      H8 6379   3.993   3.483   0.120 -1.7221  1.2250  0.5894
  278DG      O9 6380   4.018   2.910  -0.071 -0.1491 -0.0109 -0.3804
  278DG     O10 6381   3.834   3.360   0.189  0.5630 -0.2944  0.1226
  278DG     C11 6382   3.989   3.044  -0.032  0.1371 -0.1031  0.2083
  278DG     C12 6383   3.753   3.373   0.075  0.4717  0.0594  0.0520
  278DG     H13 6384   4.082   3.098  -0.013  0.6040 -1.5851  2.4563
  278DG     H14 6385   3.932   3.034   0.060 -0.4769  1.6494  0.0627
  278DG     H15 6386   3.787   3.455   0.011  1.3089  1.1232  1.7861
  278DG     H16 6387   3.655   3.399   0.113  1.1430  1.7377  0.7340
  278DG     C17 6388   3.892   3.109  -0.135 -0.2848  0.7198 -0.4421
  278DG     C18 6389   3.754   3.240   0.009  0.3928  0.0852 -0.6544
  278DG     O19 6390   3.862   3.235  -0.092  0.0658  0.8379 -0.1275
  278DG     H20 6391   3.797   3.058  -0.153 -1.3548  2.9472 -1.4520
  278DG     H21 6392   3.936   3.111  -0.234 -3.8108 -0.4607 -2.2122
  278DG     H22 6393   3.750   3.162   0.086  2.0418  0.9354  0.3381
  278DG     H23 6394   3.659   3.219  -0.040 -0.2969  2.9714 -0.7339
  279DG      C1 6395   1.561   3.936   1.639  0.0267 -0.3499 -0.4113
  279DG      C2 6396   1.231   3.834   1.040  0.1793 -0.4718  0.2237
  279DG      H3 6397   1.641   3.919   1.567  0.0124 -0.1991 -0.4641
  279DG      H4 6398   1.528   3.842   1.683 -2.6027  1.0221  0.8172
  279DG      H5 6399   1.595   3.994   1.725 -1.0537 -1.4692  0.8122
  279DG      H6 6400   1.313   3.838   0.969  1.0418  2.4931  1.2494
  279DG      H7 6401   1.253   3.749   1.105  0.5761  0.6617  1.6251
  279DG      H8 6402   1.135   3.829   0.988  0.2752  0.5800 -0.0828
  279DG      O9 6403   1.436   3.972   1.572  0.3173  0.1474  0.1615
  279DG     O10 6404   1.231   3.947   1.118 -0.1101 -0.1289  0.2291
  279DG     C11 6405   1.425   4.106   1.534 -0.0160  0.4838 -0.1416
  279DG     C12 6406   1.121   3.954   1.208 -1.1270 -0.1377 -0.0714
  279DG     H13 6407   1.495   4.145   1.461  0.1750  0.7991  0.2045
  279DG     H14 6408   1.451   4.162   1.624  0.2803 -0.0560  0.1172
  279DG     H15 6409   1.111   3.864   1.269  1.5351 -1.7757 -1.8606
  279DG     H16 6410   1.024   3.945   1.158 -1.0493 -1.0436 -0.0721
  279DG     C17 6411   1.279   4.130   1.490 -0.2717  0.1481 -0.3053
  279DG     C18 6412   1.139   4.068   1.307  0.4409 -0.0303  0.7157
  279DG     O19 6413   1.260   4.044   1.377 -0.1329 -0.2927 -0.5848
  279DG     H20 6414   1.258   4.235   1.471 -0.1248  0.6195  1.8633
  279DG     H21 6415   1.212   4.114   1.574  0.3134  1.0031  0.3510
  279DG     H22 6416   1.140   4.165   1.257  0.0770  0.2585  1.2477
  279DG     H23 6417   1.062   4.069   1.384  1.1911 -1.3613  1.5136
  280DG      C1 6418   2.201   4.045   2.428  0.2780 -0.2863 -0.4802
  280DG      C2 6419   2.753   4.330   2.432 -0.5431  0.2424  0.5507
  280DG      H3 6420   2.287   4.005   2.375  0.8317  1.0982 -0.6543
  280DG      H4 6421   2.141   4.103   2.358  0.6589  0.2430 -0.3662
  280DG      H5 6422   2.127   3.971   2.462  0.3050  0.7391  2.0277
  280DG      H6 6423   2.758   4.317   2.324 -0.8295 -0.2147  0.5888
  280DG      H7 6424   2.847   4.377   2.461 -0.6895  0.8769  0.0351
  280DG      H8 6425   2.753   4.232   2.480  4.0550  0.3841  1.3118
  280DG      O9 6426   2.243   4.135   2.533  0.6132 -0.2631  0.2641
  280DG     O10 6427   2.652   4.422   2.474  0.3544  0.7323  0.5816
  280DG     C11 6428   2.355   4.086   2.604 -0.2691  0.2782  0.2822
  280DG     C12 6429   2.656   4.462   2.616 -0.0807 -0.3807  0.2630
  280DG     H13 6430   2.437   4.054   2.539 -0.0359 -0.2302  0.8211
  280DG     H14 6431   2.323   3.997   2.659  1.6146 -0.5899  0.0514
  280DG     H15 6432   2.595   4.552   2.626  0.2595 -0.1682  0.4267
  280DG     H16 6433   2.758   4.474   2.651 -0.4327 -0.6981  1.4284
  280DG     C17 6434   2.412   4.188   2.692 -0.1110 -0.6091 -0.3948
  280DG     C18 6435   2.582   4.357   2.697  0.2589 -0.6029 -0.0846
  280DG     O19 6436   2.476   4.298   2.620  0.6074  0.4588 -0.5609
  280DG     H20 6437   2.476   4.146   2.770 -0.1235 -0.9133 -0.5469
  280DG     H21 6438   2.337   4.224   2.762 -0.1064 -0.0502 -0.6758
  280DG     H22 6439   2.644   4.279   2.740 -0.8447 -0.9452  0.9385
  280DG     H23 6440   2.542   4.404   2.787  0.1113  2.1003 -1.4542
  281DG      C1 6441   4.039   2.525   3.072  0.2208  0.2565  0.1661
  281DG      C2 6442   3.884   2.021   3.428  0.9812  0.5178  0.6221
  281DG      H3 6443   3.941   2.562   3.041 -0.0613 -0.3293  0.3511
  281DG      H4 6444   4.036   2.429   3.020 -0.5928 -0.4819  1.5086
  281DG      H5 6445   4.113   2.584   3.018 -0.4381 -0.1636 -1.2549
  281DG      H6 6446   3.899   1.991   3.325 -0.9698  1.6048 -0.0276
  281DG      H7 6447   3.899   1.933   3.491  0.8867  0.3964  0.4765
  281DG      H8 6448   3.777   2.041   3.427  0.9041  0.1264  0.6686
  281DG      O9 6449   4.060   2.494   3.201  0.4579  0.3592 -0.1862
  281DG     O10 6450   3.954   2.142   3.462  0.1370 -0.2878  0.1492
  281DG     C11 6451   4.198   2.474   3.236  0.0231 -0.5094  0.9139
  281DG     C12 6452   4.091   2.106   3.491  0.7208 -0.0021 -0.1879
  281DG     H13 6453   4.258   2.564   3.221 -1.3464  0.5261  1.5101
  281DG     H14 6454   4.240   2.400   3.168 -0.4862  0.2222 -0.2239
  281DG     H15 6455   4.126   2.051   3.404  0.8867  0.0992 -0.1844
  281DG     H16 6456   4.089   2.050   3.585 -1.1927  0.3877  0.0589
  281DG     C17 6457   4.213   2.427   3.380 -0.4276  0.0114 -0.6084
  281DG     C18 6458   4.172   2.233   3.504 -0.0381  0.8156 -0.6688
  281DG     O19 6459   4.146   2.306   3.384 -0.2940 -0.1061 -0.3027
  281DG     H20 6460   4.154   2.501   3.434  0.6751 -0.1049  0.8072
  281DG     H21 6461   4.313   2.406   3.416 -0.3602 -0.4843 -1.0650
  281DG     H22 6462   4.139   2.283   3.596 -1.7066  0.2220 -0.9108
  281DG     H23 6463   4.276   2.202   3.516  0.2571  2.3673  1.3760
  282DG      C1 6464   2.812   1.483   4.866  0.0871 -1.0751  0.1948
  282DG      C2 6465   2.408   0.823   5.295  0.5202 -0.5906 -0.4829
  282DG      H3 6466   2.919   1.499   4.884 -0.1083 -0.7307  1.1406
  282DG      H4 6467   2.767   1.582   4.875 -4.2215 -2.9053  1.0638
  282DG      H5 6468   2.806   1.436   4.768 -0.7864  0.3636 -0.4853
  282DG      H6 6469   2.494   0.786   5.351  0.7467 -1.5162 -1.4275
  282DG      H7 6470   2.317   0.812   5.353  0.1459  2.2707 -0.3875
  282DG      H8 6471   2.404   0.753   5.212 -3.7654  0.1337 -1.1138
  282DG      O9 6472   2.742   1.395   4.952 -0.4649  0.1939  0.3039
  282DG     O10 6473   2.414   0.957   5.258 -0.3251 -0.3803  0.3673
  282DG     C11 6474   2.831   1.294   5.005  0.0573 -0.3082 -0.1818
  282DG     C12 6475   2.531   0.990   5.185  0.7024 -0.3762  0.4167
  282DG     H13 6476   2.926   1.331   5.044  0.1398 -0.2317 -0.4546
  282DG     H14 6477   2.863   1.230   4.923 -1.5532 -3.4301  1.4504
  282DG     H15 6478   2.538   0.941   5.088  0.6678 -0.9630  0.7066
  282DG     H16 6479   2.620   0.955   5.238  0.0272  0.4006  2.1554
  282DG     C17 6480   2.773   1.203   5.115 -0.0648  0.1066  0.1251
  282DG     C18 6481   2.542   1.142   5.168 -0.2535  0.1272 -0.2136
  282DG     O19 6482   2.639   1.184   5.070  0.3490  0.1526 -0.2369
  282DG     H20 6483   2.789   1.250   5.212  1.6820 -1.2890  0.5660
  282DG     H21 6484   2.825   1.107   5.121 -1.6574 -0.7615  1.2763
  282DG     H22 6485   2.439   1.168   5.143 -0.4392  0.3211  0.7189
  282DG     H23 6486   2.552   1.189   5.266 -1.6351 -0.2391  0.1236
  283DG      C1 6487   3.631   1.803   5.160  0.8684  0.3463  0.0259
  283DG      C2 6488   3.356   2.378   5.253  0.4989  0.1190  0.2171
  283DG      H3 6489   3.624   1.825   5.054 -0.3643 -2.0456 -0.4747
  283DG      H4 6490   3.565   1.723   5.196  1.5107 -0.3917 -0.3951
  283DG      H5 6491   3.734   1.769   5.169  1.7157  2.6526 -0.2954
  283DG      H6 6492   3.304   2.473   5.265 -0.4431  0.1304 -2.8602
  283DG      H7 6493   3.434   2.405   5.181 -0.7369 -0.4140 -1.3839
  283DG      H8 6494   3.286   2.321   5.192  2.2109 -0.1031 -1.6515
  283DG      O9 6495   3.626   1.917   5.240  0.4091 -0.3932 -0.5570
  283DG     O10 6496   3.378   2.311   5.371  0.2536 -0.1639 -0.4053
  283DG     C11 6497   3.713   2.019   5.191  0.2870  0.6009 -0.3795
  283DG     C12 6498   3.485   2.369   5.440 -0.2829 -0.1977 -0.4237
  283DG     H13 6499   3.689   2.055   5.091 -1.4416 -1.0041 -0.5885
  283DG     H14 6500   3.809   1.967   5.192 -0.4005 -0.6972 -0.2782
  283DG     H15 6501   3.488   2.340   5.545  2.9768  0.7667 -0.1408
  283DG     H16 6502   3.478   2.477   5.453  0.0292 -0.3956  1.9651
  283DG     C17 6503   3.732   2.130   5.291 -0.0894  0.2918  0.0571
  283DG     C18 6504   3.617   2.326   5.370 -0.1360  0.0880  0.3152
  283DG     O19 6505   3.603   2.191   5.314  0.1866  0.6816 -0.4808
  283DG     H20 6506   3.804   2.198   5.245  0.3740 -0.7361 -0.7958
  283DG     H21 6507   3.779   2.087   5.380 -1.1784  0.2834  0.6408
  283DG     H22 6508   3.647   2.391   5.288 -0.1862 -0.5209 -0.1880
  283DG     H23 6509   3.705   2.327   5.436  0.5555  0.6436 -0.5905
  284DG      C1 6510   1.582   2.332   0.864  0.1809  0.1779 -0.1232
  284DG      C2 6511   1.253   2.820   1.119  0.4670  0.1327 -0.1584
  284DG      H3 6512   1.559   2.247   0.799 -0.7124  1.0300 -0.9621
  284DG      H4 6513   1.547   2.316   0.966 -0.5995 -1.3601 -0.6033
  284DG      H5 6514   1.687   2.358   0.866 -0.2759  2.1526  0.4386
  284DG      H6 6515   1.338   2.790   1.180 -0.7813 -0.5100  1.3637
  284DG      H7 6516   1.225   2.924   1.131  1.2059  0.7749 -3.2874
  284DG      H8 6517   1.159   2.773   1.151  1.1981 -1.4565 -0.2564
  284DG      O9 6518   1.510   2.449   0.824  0.2792  0.4723  0.3728
  284DG     O10 6519   1.271   2.791   0.979 -0.2212  0.0450  0.0644
  284DG     C11 6520   1.564   2.513   0.704 -0.2937  0.7902  0.9051
  284DG     C12 6521   1.367   2.869   0.917 -0.2655 -0.7373  0.1400
  284DG     H13 6522   1.567   2.449   0.616 -0.5819  2.9646 -0.7521
  284DG     H14 6523   1.664   2.555   0.720 -0.2185  0.6767  0.7349
  284DG     H15 6524   1.455   2.886   0.979 -0.3477 -0.4498  0.1809
  284DG     H16 6525   1.321   2.968   0.911 -0.0659 -0.7290 -2.1900
  284DG     C17 6526   1.473   2.630   0.682 -0.7840  0.6399  0.6894
  284DG     C18 6527   1.406   2.828   0.777  0.4637 -0.1931 -0.2757
  284DG     O19 6528   1.451   2.697   0.797 -0.2326 -0.1397 -0.4264
  284DG     H20 6529   1.373   2.601   0.648  0.7813 -1.8955 -2.1306
  284DG     H21 6530   1.508   2.684   0.594 -1.4505 -0.9137 -0.5781
  284DG     H22 6531   1.321   2.835   0.710 -0.9530 -0.1663  1.4361
  284DG     H23 6532   1.489   2.890   0.743  0.2146 -0.0960 -0.7004
  285DG      C1 6533   2.724   2.260   3.657 -0.5615 -0.2809  0.2893
  285DG      C2 6534   2.644   1.691   4.094  0.0937 -0.0875  0.1712
  285DG      H3 6535   2.681   2.342   3.714 -0.9640 -0.5125  0.3277
  285DG      H4 6536   2.709   2.305   3.559 -0.6765  1.1907  0.9603
  285DG      H5 6537   2.832   2.262   3.667 -0.3067  3.2849 -1.5345
  285DG      H6 6538   2.735   1.716   4.148  0.2600 -0.3081 -0.0058
  285DG      H7 6539   2.572   1.633   4.152 -2.5302  0.0044 -2.7301
  285DG      H8 6540   2.682   1.626   4.015 -0.0754 -1.9182  1.5150
  285DG      O9 6541   2.644   2.143   3.685 -0.2339 -0.7049  0.2491
  285DG     O10 6542   2.587   1.817   4.061 -0.4114 -0.4916  0.8230
  285DG     C11 6543   2.683   2.024   3.618 -0.3369 -0.1134  0.0682
  285DG     C12 6544   2.467   1.818   3.994 -0.5665  0.2390 -0.1832
  285DG     H13 6545   2.790   2.007   3.627  0.1278  0.4752 -3.2076
  285DG     H14 6546   2.668   2.043   3.512  1.1871 -2.8494 -0.7384
  285DG     H15 6547   2.422   1.917   3.995 -0.8490  0.1564  2.6713
  285DG     H16 6548   2.399   1.739   4.025  0.2299 -0.8018 -0.9922
  285DG     C17 6549   2.594   1.907   3.659  0.0101  0.5218 -0.0434
  285DG     C18 6550   2.487   1.800   3.847 -0.0376  0.2673 -0.0347
  285DG     O19 6551   2.583   1.898   3.798  0.3277  0.3287 -0.2071
  285DG     H20 6552   2.633   1.815   3.617 -1.7609 -0.0665 -0.4589
  285DG     H21 6553   2.498   1.929   3.612 -0.4209 -0.3363  0.4157
  285DG     H22 6554   2.515   1.698   3.823 -1.8135 -0.1156 -0.6254
  285DG     H23 6555   2.389   1.805   3.800  0.7310 -1.4107 -1.9523
  286DG      C1 6556   2.910   0.851   4.357 -0.0114 -0.0709  0.6647
  286DG      C2 6557   2.853   0.207   4.282  0.1580  0.3640  0.6969
  286DG      H3 6558   2.998   0.857   4.420  1.8832 -2.0326 -1.6018
  286DG      H4 6559   2.826   0.823   4.422 -0.0895 -0.1232  0.5416
  286DG      H5 6560   2.891   0.954   4.327  0.1470  0.3053  1.8020
  286DG      H6 6561   2.789   0.149   4.216  1.3450 -0.3490  0.1333
  286DG      H7 6562   2.950   0.158   4.288 -0.0355 -0.3724 -1.4172
  286DG      H8 6563   2.805   0.209   4.380 -2.5092 -0.6157 -0.4905
  286DG      O9 6564   2.919   0.749   4.258  0.5546  0.3622  0.4354
  286DG     O10 6565   2.857   0.335   4.218 -0.1230  0.4298  0.3705
  286DG     C11 6566   3.021   0.769   4.163  0.2082  1.0130  0.2424
  286DG     C12 6567   2.914   0.319   4.087 -0.3013  0.4007  0.1067
  286DG     H13 6568   3.115   0.763   4.218  0.1454 -0.6173  0.2235
  286DG     H14 6569   3.023   0.868   4.117 -0.4367  1.3056  0.8244
  286DG     H15 6570   2.862   0.246   4.025  1.1164  1.0192 -1.9039
  286DG     H16 6571   3.018   0.286   4.086 -0.4426 -0.0423 -0.2443
  286DG     C17 6572   3.013   0.656   4.053  0.8518  0.1550 -0.5592
  286DG     C18 6573   2.901   0.450   4.009  0.2199 -0.6216 -0.3994
  286DG     O19 6574   2.962   0.533   4.107  0.3102 -0.1385  0.7948
  286DG     H20 6575   3.103   0.636   3.995  1.2824  1.2551 -0.3014
  286DG     H21 6576   2.929   0.694   3.995 -1.8389  1.5278  3.7811
  286DG     H22 6577   2.960   0.454   3.918 -0.9971 -1.7360 -1.2670
  286DG     H23 6578   2.802   0.491   3.991  1.3556  3.0894  0.7194
  287DG      C1 6579   4.951   3.739   3.208 -0.4119  0.2380 -0.0141
  287DG      C2 6580   5.115   4.077   2.659 -0.6758 -0.0934  0.2158
  287DG      H3 6581   4.983   3.713   3.107  0.0663  0.4499  0.0843
  287DG      H4 6582   4.843   3.726   3.213 -0.1794 -1.8894  0.4378
  287DG      H5 6583   4.998   3.667   3.275 -1.4690 -0.6166 -0.1449
  287DG      H6 6584   5.103   4.183   2.680 -1.5707 -0.5339  2.1755
  287DG      H7 6585   5.199   4.073   2.590 -2.0722 -1.7150 -1.4916
  287DG      H8 6586   5.038   4.028   2.600  0.1027 -1.5467  0.3485
  287DG      O9 6587   4.981   3.872   3.254  0.0104  0.0604  0.1155
  287DG     O10 6588   5.142   3.993   2.774  0.2724  0.0883 -0.1313
  287DG     C11 6589   5.122   3.889   3.283 -0.1641  0.6055 -0.3312
  287DG     C12 6590   5.256   4.048   2.841 -0.2530 -0.2243  0.5668
  287DG     H13 6591   5.163   3.822   3.358 -0.6499  0.1707 -0.4521
  287DG     H14 6592   5.142   3.991   3.317 -3.0209  0.9905  0.4405
  287DG     H15 6593   5.231   4.152   2.862  4.3234  1.8382 -2.6541
  287DG     H16 6594   5.337   4.048   2.768 -1.0191 -0.5129 -0.2980
  287DG     C17 6595   5.221   3.888   3.163 -0.3050  0.1704  0.5816
  287DG     C18 6596   5.291   3.970   2.969 -0.8383  0.4169  0.0439
  287DG     O19 6597   5.183   3.968   3.059  0.1049 -0.5730  0.4219
  287DG     H20 6598   5.230   3.789   3.119 -0.2079 -0.8490  2.7910
  287DG     H21 6599   5.319   3.914   3.203 -0.0467  0.5066 -0.2329
  287DG     H22 6600   5.314   3.866   2.946 -0.0953 -0.0149  2.4720
  287DG     H23 6601   5.384   4.012   3.008  0.8672 -0.8344 -2.4131
  288DG      C1 6602   2.845   4.490   0.491 -0.7124  0.8506  0.1067
  288DG      C2 6603   3.524   4.022   0.357  0.2857  1.0579  0.6142
  288DG      H3 6604   2.878   4.537   0.583  0.8202 -0.9300  0.5276
  288DG      H4 6605   2.738   4.468   0.491 -0.5371 -0.7704 -3.6334
  288DG      H5 6606   2.873   4.562   0.413  0.9853  0.1673  0.0411
  288DG      H6 6607   3.515   4.114   0.299 -1.7387  0.6385  0.1772
  288DG      H7 6608   3.587   4.027   0.445  1.2845 -0.0265 -0.0092
  288DG      H8 6609   3.556   3.943   0.289 -2.4353 -0.4629  0.9288
  288DG      O9 6610   2.912   4.367   0.468  0.5259 -0.0285  0.0614
  288DG     O10 6611   3.393   3.993   0.403 -0.2754 -0.2782 -0.6329
  288DG     C11 6612   2.899   4.281   0.581 -0.2119 -0.2069  0.4492
  288DG     C12 6613   3.336   4.102   0.484  0.4190  0.7451  0.1002
  288DG     H13 6614   2.793   4.258   0.595 -0.4012 -2.8283 -3.5606
  288DG     H14 6615   2.931   4.324   0.675 -0.5593 -0.8442  0.8699
  288DG     H15 6616   3.323   4.195   0.428  1.8974  0.3051 -1.0459
  288DG     H16 6617   3.392   4.117   0.576  0.7930  0.9344 -0.1521
  288DG     C17 6618   2.976   4.149   0.568 -0.0769  0.2446  0.4110
  288DG     C18 6619   3.191   4.064   0.519  0.5239 -0.2987  0.5391
  288DG     O19 6620   3.120   4.180   0.547  0.6888  0.0242  0.8976
  288DG     H20 6621   2.943   4.093   0.481 -0.0455 -1.9275  1.7139
  288DG     H21 6622   2.969   4.083   0.654  0.3106  0.4568  0.6120
  288DG     H22 6623   3.143   3.999   0.447 -0.6748 -0.1540  1.1923
  288DG     H23 6624   3.193   3.999   0.606 -2.3784 -1.3901 -0.1323
  289DG      C1 6625   4.832   1.222   1.031 -0.5219  0.2406  0.2045
  289DG      C2 6626   5.104   1.184   1.654 -0.4905  0.3577  0.3837
  289DG      H3 6627   4.783   1.163   0.953  1.5253  0.7574 -1.6009
  289DG      H4 6628   4.915   1.273   0.981  0.7536 -1.9077  0.0024
  289DG      H5 6629   4.775   1.291   1.092 -1.0572 -0.5698  0.6293
  289DG      H6 6630   5.001   1.205   1.684 -0.2598  1.7325  0.2814
  289DG      H7 6631   5.156   1.133   1.735 -0.7184  0.9458  0.9060
  289DG      H8 6632   5.144   1.285   1.647 -0.5966  0.5289  1.8829
  289DG      O9 6633   4.900   1.133   1.114  0.2047 -0.2160 -0.4002
  289DG     O10 6634   5.087   1.112   1.532  0.0695  0.4255 -0.3915
  289DG     C11 6635   4.977   1.035   1.046 -0.0939 -0.4686 -0.2469
  289DG     C12 6636   5.211   1.090   1.460 -1.1450 -0.1636 -0.1625
  289DG     H13 6637   5.036   1.088   0.970 -1.4136  1.8919  0.2686
  289DG     H14 6638   4.920   0.958   0.995 -1.3749 -0.9148  1.7802
  289DG     H15 6639   5.288   1.040   1.518 -1.5328  1.5849  2.0047
  289DG     H16 6640   5.250   1.182   1.416 -1.0175  0.2113  0.7157
  289DG     C17 6641   5.061   0.959   1.145  0.2312  0.1356 -0.7422
  289DG     C18 6642   5.187   0.985   1.350 -0.4246  0.3219 -0.2921
  289DG     O19 6643   5.087   1.036   1.265 -0.2530  0.0423  0.1669
  289DG     H20 6644   5.152   0.911   1.107  1.4999  1.9947 -0.1912
  289DG     H21 6645   5.009   0.875   1.190 -0.2078  0.3166 -0.9100
  289DG     H22 6646   5.280   0.972   1.296 -0.3562  0.5846 -0.2373
  289DG     H23 6647   5.156   0.892   1.398 -0.7168  1.4141  1.7872
  290DG      C1 6648   1.128   3.635   3.942 -0.5526 -0.1042 -0.4613
  290DG      C2 6649   0.548   3.740   3.217 -0.0001 -1.5275 -0.7289
  290DG      H3 6650   1.084   3.535   3.936 -0.9222 -0.0179  0.5501
  290DG      H4 6651   1.087   3.708   4.012  1.5583  1.5101 -0.8086
  290DG      H5 6652   1.231   3.620   3.973 -1.0484  0.7209  1.8233
  290DG      H6 6653   0.532   3.635   3.242 -2.8014 -0.4876  2.8220
  290DG      H7 6654   0.473   3.800   3.269  0.3838 -1.0421 -0.7231
  290DG      H8 6655   0.543   3.767   3.112  0.6495  2.8946  0.1555
  290DG      O9 6656   1.126   3.698   3.816 -0.0299  0.1803 -0.8219
  290DG     O10 6657   0.666   3.789   3.270 -0.8754  0.4770  0.1014
  290DG     C11 6658   0.998   3.705   3.763  0.5305 -0.5966  0.7704
  290DG     C12 6659   0.685   3.777   3.414  0.4114 -0.4133  0.1088
  290DG     H13 6660   0.931   3.754   3.834  1.4678 -0.5366  1.6396
  290DG     H14 6661   0.955   3.605   3.754 -0.5831 -0.1340  0.7432
  290DG     H15 6662   0.674   3.673   3.442 -1.6261 -0.5767 -1.0596
  290DG     H16 6663   0.605   3.833   3.463 -0.5700 -1.8210  0.1733
  290DG     C17 6664   0.989   3.764   3.625  0.0849 -0.1680  0.6890
  290DG     C18 6665   0.830   3.810   3.456 -0.3798 -0.1843  0.1665
  290DG     O19 6666   0.850   3.760   3.587  1.1017 -0.5491 -0.2727
  290DG     H20 6667   1.040   3.690   3.563  1.1698 -0.2427  1.6487
  290DG     H21 6668   1.038   3.861   3.617 -0.4666  0.0458 -0.2772
  290DG     H22 6669   0.911   3.768   3.397 -0.2132  2.6546 -1.8108
  290DG     H23 6670   0.830   3.919   3.454 -1.2835 -0.1757  0.3842
  291DG      C1 6671   1.201   5.051   0.093  1.1751  0.3717 -0.0003
  291DG      C2 6672   1.832   5.537   0.152  0.1129 -0.1305 -0.2322
  291DG      H3 6673   1.114   4.988   0.073  0.9491  0.0631  1.7247
  291DG      H4 6674   1.211   5.067   0.201  2.9888  0.2193 -0.1192
  291DG      H5 6675   1.295   4.998   0.076  0.6039 -0.2078 -1.4748
  291DG      H6 6676   1.924   5.539   0.095  0.0907 -3.8720 -0.6534
  291DG      H7 6677   1.804   5.632   0.196  0.2783  0.1560 -0.7455
  291DG      H8 6678   1.856   5.470   0.234 -1.3840  0.4952  0.7626
  291DG      O9 6679   1.203   5.181   0.032  0.4427  0.2323  0.4622
  291DG     O10 6680   1.723   5.474   0.082  0.2433 -0.6438  0.0042
  291DG     C11 6681   1.323   5.257   0.056  0.6048 -0.5041 -0.4470
  291DG     C12 6682   1.675   5.546  -0.032 -0.0785 -0.4508  0.5904
  291DG     H13 6683   1.408   5.191   0.075 -0.4683 -1.6344  0.6013
  291DG     H14 6684   1.309   5.306   0.152  0.7877  1.7606 -1.5277
  291DG     H15 6685   1.747   5.559  -0.113 -1.1224  0.4767 -0.2281
  291DG     H16 6686   1.650   5.649  -0.004  1.4961  0.1277  0.0306
  291DG     C17 6687   1.360   5.344  -0.067  0.6036  0.1027 -0.3072
  291DG     C18 6688   1.567   5.456  -0.104  0.0568  0.5485 -0.3765
  291DG     O19 6689   1.460   5.431  -0.014  0.4558  0.4643  0.8953
  291DG     H20 6690   1.277   5.397  -0.112  1.0754 -0.1858 -1.5351
  291DG     H21 6691   1.400   5.284  -0.149 -0.9325 -3.2639  1.1977
  291DG     H22 6692   1.518   5.514  -0.182  2.3717  1.4890 -1.2245
  291DG     H23 6693   1.611   5.361  -0.133  0.0077  0.6443 -0.7657
  292DG      C1 6694   0.937   4.007   0.745  0.7493  0.6979  0.1899
  292DG      C2 6695   0.712   4.554   0.940  0.4218 -0.1812 -0.2080
  292DG      H3 6696   1.027   4.014   0.806 -1.0288  0.6934  2.9451
  292DG      H4 6697   0.966   4.059   0.653  3.9072 -0.9852  0.1013
  292DG      H5 6698   0.934   3.899   0.730 -0.9205  0.7879 -0.3470
  292DG      H6 6699   0.681   4.656   0.915  0.0478 -0.6062 -1.5641
  292DG      H7 6700   0.699   4.536   1.046 -1.9283  1.4559 -0.1211
  292DG      H8 6701   0.820   4.568   0.934  0.8522 -1.1173  3.5061
  292DG      O9 6702   0.821   4.064   0.808  0.1037  0.2333 -0.1468
  292DG     O10 6703   0.663   4.461   0.845  0.4321  0.2784 -0.1145
  292DG     C11 6704   0.707   4.029   0.725  0.1005  0.0256  0.1527
  292DG     C12 6705   0.539   4.409   0.886  0.2025 -0.1664 -0.7738
  292DG     H13 6706   0.700   3.921   0.733  0.1006  0.1633  3.8108
  292DG     H14 6707   0.723   4.062   0.622 -0.4577 -1.1034 -0.3076
  292DG     H15 6708   0.473   4.495   0.898 -0.5545 -0.7674 -0.5716
  292DG     H16 6709   0.558   4.357   0.979  1.5378 -0.9779 -1.4622
  292DG     C17 6710   0.586   4.092   0.789  0.0110 -0.4928  0.3631
  292DG     C18 6711   0.499   4.312   0.779  0.3287 -0.5581  0.4584
  292DG     O19 6712   0.610   4.228   0.749  0.3616  0.4912  0.0728
  292DG     H20 6713   0.573   4.076   0.896 -0.6062  0.6632  0.4675
  292DG     H21 6714   0.501   4.053   0.734 -0.5629  1.7299 -0.4073
  292DG     H22 6715   0.410   4.254   0.805 -0.9039 -0.0256 -2.1542
  292DG     H23 6716   0.466   4.378   0.698  0.2505 -0.7406  0.3415
  293DG      C1 6717   3.615   1.814   1.617 -0.2920  0.0738 -0.1164
  293DG      C2 6718   2.880   1.920   1.646  0.0326 -0.0420  0.0152
  293DG      H3 6719   3.618   1.918   1.650 -1.5205 -0.7202  2.8189
  293DG      H4 6720   3.670   1.796   1.525 -2.0235 -1.1291 -0.9675
  293DG      H5 6721   3.653   1.747   1.694  1.1005 -0.6531 -1.3886
  293DG      H6 6722   2.848   1.817   1.631 -3.6287  0.9832 -0.1733
  293DG      H7 6723   2.888   1.938   1.754  0.9859  0.9699 -0.2026
  293DG      H8 6724   2.797   1.980   1.608  0.9616  0.3509 -1.4453
  293DG      O9 6725   3.480   1.780   1.596  0.0158  0.1968  0.2747
  293DG     O10 6726   3.007   1.950   1.592 -0.0719  0.0915 -0.0898
  293DG     C11 6727   3.398   1.795   1.711  0.0878  0.1286 -0.2405
  293DG     C12 6728   3.059   2.070   1.637  0.2786 -0.3441 -0.2093
  293DG     H13 6729   3.448   1.844   1.794  1.9440 -3.3041  0.8957
  293DG     H14 6730   3.383   1.693   1.746  4.2114 -1.4964 -2.4392
  293DG     H15 6731   3.044   2.085   1.744  1.3700  1.8483 -0.3188
  293DG     H16 6732   3.002   2.144   1.581  2.0982 -0.8228 -2.9226
  293DG     C17 6733   3.274   1.866   1.676  0.0988  0.0312  0.4037
  293DG     C18 6734   3.208   2.089   1.605  0.4435 -0.2461 -0.6841
  293DG     O19 6735   3.295   2.009   1.678  0.1860  0.2056  0.3431
  293DG     H20 6736   3.200   1.840   1.751 -0.0417 -0.9225 -0.0451
  293DG     H21 6737   3.242   1.820   1.582 -0.4068 -0.9591  1.0587
  293DG     H22 6738   3.228   2.065   1.501 -1.2454 -3.5578 -0.3815
  293DG     H23 6739   3.245   2.190   1.624  2.3620 -1.1564  0.7523
  294DG      C1 6740   1.225   0.251   1.164  0.1083 -0.0067  0.2554
  294DG      C2 6741   1.548   0.738   0.920 -0.9711 -0.1058 -0.6419
  294DG      H3 6742   1.271   0.194   1.083 -0.3360  2.1554 -1.6297
  294DG      H4 6743   1.133   0.292   1.123  0.1587 -1.0670 -0.9972
  294DG      H5 6744   1.211   0.182   1.247  0.5819 -0.9818 -0.4506
  294DG      H6 6745   1.642   0.768   0.874 -1.4095 -1.2717 -2.4122
  294DG      H7 6746   1.502   0.667   0.851  0.0248 -0.7293 -0.6871
  294DG      H8 6747   1.471   0.813   0.936  0.7480  1.4415  0.8628
  294DG      O9 6748   1.317   0.355   1.208  0.2632 -0.3962  0.3846
  294DG     O10 6749   1.571   0.670   1.042  0.1982 -0.6882 -0.3220
  294DG     C11 6750   1.279   0.426   1.326 -0.2552  0.1195  0.4124
  294DG     C12 6751   1.585   0.757   1.157  0.3428  0.5953 -0.1194
  294DG     H13 6752   1.251   0.357   1.406 -1.4171  2.7581  2.4373
  294DG     H14 6753   1.190   0.487   1.311 -2.4244 -2.8876  0.0131
  294DG     H15 6754   1.526   0.847   1.147 -2.8598 -1.2146  0.9729
  294DG     H16 6755   1.691   0.778   1.170  0.3060  0.0805  1.2181
  294DG     C17 6756   1.397   0.513   1.365 -0.8536  0.4417 -0.0387
  294DG     C18 6757   1.550   0.669   1.276  0.1701 -0.5193 -0.3391
  294DG     O19 6758   1.426   0.603   1.255 -0.4407  0.8865 -0.4491
  294DG     H20 6759   1.483   0.447   1.370  0.0029  1.4162 -1.1841
  294DG     H21 6760   1.369   0.569   1.455 -1.3018 -2.3868  1.7106
  294DG     H22 6761   1.634   0.600   1.285 -0.8254 -1.5704  1.5005
  294DG     H23 6762   1.543   0.734   1.364  2.0143 -0.5185 -0.1478
  295DG      C1 6763   4.242   1.788   2.394  0.0735 -0.5162  0.1235
  295DG      C2 6764   3.916   2.055   1.803 -0.4435 -0.5120  1.3965
  295DG      H3 6765   4.240   1.733   2.488 -1.2158 -3.4497 -1.4884
  295DG      H4 6766   4.216   1.894   2.399 -0.4539 -0.7088  2.1765
  295DG      H5 6767   4.344   1.795   2.356  0.0812  1.0228  0.3402
  295DG      H6 6768   3.890   2.032   1.700  2.7899  3.9122 -0.7365
  295DG      H7 6769   3.873   2.151   1.831 -0.4687  0.5353 -1.8751
  295DG      H8 6770   4.024   2.062   1.799 -0.4794  2.4097  2.9899
  295DG      O9 6771   4.159   1.736   2.296  0.0231  0.1051  0.9877
  295DG     O10 6772   3.876   1.962   1.903  0.2796  0.7372  0.2517
  295DG     C11 6773   4.016   1.743   2.335  0.4580  0.2047  0.4602
  295DG     C12 6774   3.923   1.833   1.864 -0.7542  0.5260 -0.4539
  295DG     H13 6775   3.997   1.846   2.363 -0.0222  0.7079 -1.5629
  295DG     H14 6776   3.995   1.685   2.425 -2.4233  0.7399  0.2209
  295DG     H15 6777   4.029   1.847   1.844 -1.1295  2.2293 -1.4706
  295DG     H16 6778   3.870   1.795   1.777 -0.4297 -1.6403  0.2435
  295DG     C17 6779   3.932   1.704   2.216 -0.1270 -0.0097  0.4481
  295DG     C18 6780   3.920   1.734   1.978 -0.9092 -0.3367  0.1657
  295DG     O19 6781   3.963   1.787   2.104  0.3560 -0.6989  0.0669
  295DG     H20 6782   3.830   1.737   2.238 -0.3885 -1.1651  1.0500
  295DG     H21 6783   3.932   1.597   2.198 -1.6820 -0.4009  2.3567
  295DG     H22 6784   3.820   1.691   1.982 -0.6293 -0.9550  1.0659
  295DG     H23 6785   3.995   1.655   1.968  2.6997  2.6208  1.7032
  296DG      C1 6786   3.657   1.890   0.095 -0.4006 -0.6022  0.1762
  296DG      C2 6787   4.141   2.071   0.546  0.7519 -0.3740 -0.4928
  296DG      H3 6788   3.628   1.864  -0.007 -0.5631 -1.0475  0.3348
  296DG      H4 6789   3.659   1.999   0.101  0.8081 -0.6727  1.4193
  296DG      H5 6790   3.572   1.861   0.157 -0.6193  1.5661  0.9615
  296DG      H6 6791   4.248   2.081   0.560  0.8777  0.0747 -1.7369
  296DG      H7 6792   4.099   2.172   0.549 -0.4648 -0.8657 -0.2536
  296DG      H8 6793   4.111   2.018   0.637  0.9503 -0.9971 -0.7898
  296DG      O9 6794   3.780   1.840   0.145  0.3933 -0.2381  0.3704
  296DG     O10 6795   4.097   1.992   0.436 -0.3349  0.2071  0.3729
  296DG     C11 6796   3.883   1.848   0.049 -0.4215  0.2364 -0.4642
  296DG     C12 6797   4.140   1.860   0.444 -0.0110 -0.2179 -0.6726
  296DG     H13 6798   3.914   1.953   0.053  0.7548 -0.1273  1.9455
  296DG     H14 6799   3.857   1.823  -0.053 -0.1639  1.2711 -0.7999
  296DG     H15 6800   4.072   1.812   0.514 -0.5297 -0.0123 -1.0296
  296DG     H16 6801   4.241   1.833   0.475  0.6557 -0.5676 -2.9974
  296DG     C17 6802   3.997   1.759   0.107 -0.2745 -0.1233 -1.0408
  296DG     C18 6803   4.124   1.794   0.304  0.5264 -0.1227 -0.7592
  296DG     O19 6804   4.003   1.813   0.242 -0.6101 -0.5190  0.0158
  296DG     H20 6805   4.094   1.769   0.058  0.9298  0.4441  1.3285
  296DG     H21 6806   3.959   1.657   0.107 -1.1179  0.1808 -0.4612
  296DG     H22 6807   4.210   1.818   0.242  0.6786  1.6309  0.0490
  296DG     H23 6808   4.144   1.689   0.323 -2.5494 -0.1045  4.8753
  297DG      C1 6809   0.276   1.745   0.258  0.3291 -0.4438 -0.0449
  297DG      C2 6810   0.230   1.826   0.821 -0.6403  0.2491 -0.0303
  297DG      H3 6811   0.358   1.816   0.274 -0.6196  0.5704  0.4305
  297DG      H4 6812   0.183   1.801   0.253  0.2775 -0.4155  0.9819
  297DG      H5 6813   0.297   1.682   0.172  1.5595 -1.4706  0.9660
  297DG      H6 6814   0.205   1.760   0.904  1.4469  1.5340  1.7601
  297DG      H7 6815   0.339   1.833   0.824 -0.6511  0.4272 -0.0092
  297DG      H8 6816   0.202   1.931   0.831  0.0942  0.4269  0.2569
  297DG      O9 6817   0.286   1.646   0.360 -0.4578 -0.3699  0.0524
  297DG     O10 6818   0.185   1.767   0.702  0.5339  0.3302 -0.0753
  297DG     C11 6819   0.204   1.536   0.337 -0.6394  0.2384  0.5976
  297DG     C12 6820   0.044   1.738   0.722 -0.0986  0.1358  0.7673
  297DG     H13 6821   0.238   1.453   0.399 -0.7673  1.0600  1.7894
  297DG     H14 6822   0.191   1.499   0.235 -2.3884 -0.3225  0.9833
  297DG     H15 6823  -0.013   1.827   0.748 -1.3480 -0.5443  0.3947
  297DG     H16 6824   0.022   1.654   0.787  0.6139 -0.1987  0.5935
  297DG     C17 6825   0.067   1.555   0.397 -0.2007  0.1827 -1.1180
  297DG     C18 6826  -0.008   1.686   0.588 -0.7596  0.2831  1.1476
  297DG     O19 6827   0.082   1.589   0.533 -0.4130 -0.6426 -0.2581
  297DG     H20 6828   0.010   1.462   0.389 -1.6724  1.0600 -1.0063
  297DG     H21 6829   0.018   1.628   0.334 -2.5515 -1.1882 -1.0206
  297DG     H22 6830  -0.113   1.657   0.595 -0.7818 -0.0668 -0.3695
  297DG     H23 6831  -0.013   1.768   0.517 -1.3604 -0.3859  0.3839
  298DG      C1 6832   1.524   3.554   4.120 -0.0733 -0.0479 -0.4338
  298DG      C2 6833   1.110   2.917   4.563 -0.2581 -0.4919  0.3253
  298DG      H3 6834   1.515   3.521   4.016 -2.2129  1.0005 -0.6480
  298DG      H4 6835   1.592   3.639   4.116  0.4497 -0.4804 -1.0914
  298DG      H5 6836   1.419   3.576   4.141  0.0194  1.5113 -1.4453
  298DG      H6 6837   1.067   2.836   4.505  0.5192  0.7635 -2.1910
  298DG      H7 6838   1.176   2.877   4.640  0.1883 -1.3755 -0.4933
  298DG      H8 6839   1.018   2.953   4.608 -1.2065 -1.7802 -0.5158
  298DG      O9 6840   1.584   3.455   4.205  0.1052 -0.4292  0.8488
  298DG     O10 6841   1.167   3.017   4.474 -0.4357 -0.3783 -0.4003
  298DG     C11 6842   1.514   3.337   4.215  0.1423  0.0173 -0.8933
  298DG     C12 6843   1.231   3.125   4.541 -0.2477  0.4437  0.5325
  298DG     H13 6844   1.584   3.265   4.256 -0.9675 -0.2837  0.5469
  298DG     H14 6845   1.482   3.288   4.123 -0.9588 -1.0132  0.0012
  298DG     H15 6846   1.328   3.087   4.574 -0.9188 -1.4314  0.4642
  298DG     H16 6847   1.157   3.154   4.615 -0.0955 -1.6694  1.5755
  298DG     C17 6848   1.381   3.355   4.304 -0.3628  0.6728 -0.2830
  298DG     C18 6849   1.241   3.239   4.442  0.3931 -0.0190 -0.1493
  298DG     O19 6850   1.341   3.229   4.355 -0.3877  0.3742 -0.2750
  298DG     H20 6851   1.305   3.394   4.236 -0.4371 -0.1501 -0.6863
  298DG     H21 6852   1.391   3.430   4.382 -1.7814 -0.5282  1.1255
  298DG     H22 6853   1.150   3.250   4.383 -0.3615  1.4930  1.2041
  298DG     H23 6854   1.253   3.324   4.509  1.3722  0.9403 -1.4929
  299DG      C1 6855   3.187   1.137   2.272 -1.7796  0.4443  0.7159
  299DG      C2 6856   3.730   0.819   2.038  0.7194  0.2090  0.1575
  299DG      H3 6857   3.163   1.078   2.361 -2.7701  1.8878  1.4416
  299DG      H4 6858   3.106   1.208   2.254  0.2190  2.1300 -2.3954
  299DG      H5 6859   3.274   1.193   2.305 -0.7189 -0.2105 -0.8538
  299DG      H6 6860   3.738   0.720   1.994  0.7255  0.0375  0.5416
  299DG      H7 6861   3.810   0.886   2.004  0.2957 -0.6990 -2.9042
  299DG      H8 6862   3.735   0.810   2.147 -0.0189 -0.9509  0.1070
  299DG      O9 6863   3.207   1.059   2.152 -0.4729 -0.3143  0.2796
  299DG     O10 6864   3.604   0.876   2.006 -0.1490 -0.2136  0.0151
  299DG     C11 6865   3.241   1.141   2.033  0.3979 -0.8338  0.0243
  299DG     C12 6866   3.578   0.893   1.864 -0.6071  0.7227  0.3293
  299DG     H13 6867   3.331   1.201   2.044  0.5169 -0.6133 -1.8167
  299DG     H14 6868   3.157   1.208   2.015 -1.7879 -3.7508 -1.4772
  299DG     H15 6869   3.570   0.792   1.823  1.6656  0.9752 -0.9151
  299DG     H16 6870   3.669   0.927   1.814 -0.7044 -0.5367 -0.7533
  299DG     C17 6871   3.254   1.049   1.912 -0.3538 -0.3544 -0.1763
  299DG     C18 6872   3.458   0.979   1.830  0.1444  0.2260 -0.4873
  299DG     O19 6873   3.369   0.968   1.935  0.0747 -0.0280 -0.0948
  299DG     H20 6874   3.266   1.116   1.827 -0.1081 -0.6437 -0.3689
  299DG     H21 6875   3.164   0.988   1.905 -1.4380  1.2740 -0.8973
  299DG     H22 6876   3.498   1.081   1.831  0.7560 -0.0065 -0.8344
  299DG     H23 6877   3.413   0.950   1.735 -2.1870 -2.9178  1.3763
  300DG      C1 6878   0.232   0.956   1.337 -0.0153  0.4156  0.1709
  300DG      C2 6879   0.410   0.377   0.909 -0.7850  0.7748  0.2490
  300DG      H3 6880   0.125   0.955   1.314  0.5319 -0.9511 -2.8184
  300DG      H4 6881   0.299   1.002   1.264 -1.3331  1.1961 -0.5954
  300DG      H5 6882   0.248   1.013   1.428 -0.4889  1.7746 -0.5688
  300DG      H6 6883   0.462   0.472   0.892 -1.0380  1.1887  1.6909
  300DG      H7 6884   0.475   0.290   0.918  0.1480  1.3431 -0.6924
  300DG      H8 6885   0.346   0.372   0.820 -1.6188  3.6794  0.5855
  300DG      O9 6886   0.279   0.824   1.339 -0.1515  0.8164 -0.5928
  300DG     O10 6887   0.326   0.392   1.031  0.0890  0.2882  0.3894
  300DG     C11 6888   0.183   0.748   1.411 -0.2720  0.0737  0.1018
  300DG     C12 6889   0.389   0.383   1.157  0.0010 -0.6350  0.0739
  300DG     H13 6890   0.085   0.749   1.363 -0.5708 -1.9716  0.5614
  300DG     H14 6891   0.170   0.788   1.511  1.1417 -0.7585  0.6427
  300DG     H15 6892   0.472   0.453   1.165 -0.4376 -0.3313  3.1328
  300DG     H16 6893   0.427   0.281   1.163 -0.5088 -0.8652 -0.4667
  300DG     C17 6894   0.228   0.596   1.404 -0.2491 -0.3690  0.4549
  300DG     C18 6895   0.292   0.419   1.266 -0.0537  0.8844 -0.5734
  300DG     O19 6896   0.262   0.553   1.277  0.3373  0.2697  0.5324
  300DG     H20 6897   0.144   0.535   1.436  0.3188 -1.2454  0.3055
  300DG     H21 6898   0.300   0.586   1.485  0.0331  0.8625  0.3785
  300DG     H22 6899   0.204   0.357   1.251 -1.0784  2.1034  0.2070
  300DG     H23 6900   0.345   0.385   1.356 -2.7406 -3.6980 -0.3723
  301DG      C1 6901   4.061   0.127   1.493  0.9902 -0.1611 -0.5896
  301DG      C2 6902   3.681  -0.098   2.121 -0.4000  0.3197  0.4373
  301DG      H3 6903   4.052   0.188   1.403  0.0416 -0.5839 -0.7832
  301DG      H4 6904   4.055   0.024   1.459  0.5064 -0.4164  0.2682
  301DG      H5 6905   4.160   0.152   1.533 -0.2608  2.9337  0.8883
  301DG      H6 6906   3.755  -0.068   2.195 -0.3140  0.4902  0.2845
  301DG      H7 6907   3.582  -0.068   2.156  0.1252  2.1011  0.4967
  301DG      H8 6908   3.690  -0.206   2.117  2.3937  0.5011 -0.3482
  301DG      O9 6909   3.959   0.147   1.594 -0.5554 -0.2779 -0.2712
  301DG     O10 6910   3.711  -0.043   1.995  0.1001  0.0295 -0.0673
  301DG     C11 6911   3.833   0.107   1.540  0.0733  0.0959 -1.2714
  301DG     C12 6912   3.702   0.098   1.998 -0.4226  0.3301  0.0183
  301DG     H13 6913   3.828   0.001   1.515 -2.2908 -0.4519  1.1618
  301DG     H14 6914   3.804   0.157   1.447 -0.2558  2.0098 -0.1848
  301DG     H15 6915   3.799   0.134   2.033 -0.8367 -1.1889  3.0663
  301DG     H16 6916   3.626   0.128   2.069  0.0977  0.5640  0.4876
  301DG     C17 6917   3.731   0.152   1.637 -0.6221 -0.5003 -0.6788
  301DG     C18 6918   3.667   0.156   1.858  0.8762 -0.2552  0.2943
  301DG     O19 6919   3.752   0.092   1.763 -0.1562  0.1342  0.0614
  301DG     H20 6920   3.633   0.112   1.608  0.0760 -0.9395 -2.6120
  301DG     H21 6921   3.746   0.259   1.640 -0.1755 -0.5763  2.5502
  301DG     H22 6922   3.565   0.130   1.827  1.2982  0.2132 -1.6345
  301DG     H23 6923   3.682   0.264   1.866  0.1308 -0.1595  0.4912
  302DG      C1 6924   1.769   2.001   3.567  0.6702  0.3831  0.0045
  302DG      C2 6925   1.107   1.877   3.882 -0.1137 -0.2598  0.2174
  302DG      H3 6926   1.825   1.991   3.474  1.5503 -3.4256  0.8066
  302DG      H4 6927   1.822   1.930   3.630  0.3289 -0.7426 -0.9367
  302DG      H5 6928   1.786   2.101   3.608 -2.4417  1.3368 -0.7149
  302DG      H6 6929   1.086   1.984   3.895 -1.8562 -0.7428  1.7222
  302DG      H7 6930   1.010   1.828   3.882 -1.4784  2.0481  3.8240
  302DG      H8 6931   1.158   1.841   3.971 -2.3681  0.7109  1.9993
  302DG      O9 6932   1.626   1.973   3.559  0.0051  0.0483 -0.7391
  302DG     O10 6933   1.190   1.863   3.763  0.2131  0.3348  0.1836
  302DG     C11 6934   1.545   2.064   3.492 -0.4996 -0.5983  0.4822
  302DG     C12 6935   1.129   1.901   3.637  0.5985  0.1208  0.1132
  302DG     H13 6936   1.599   2.102   3.405 -3.1236 -0.6224 -1.2536
  302DG     H14 6937   1.529   2.148   3.560 -0.8374  0.9932 -1.4571
  302DG     H15 6938   1.075   1.995   3.649 -3.0767 -1.8874  0.7832
  302DG     H16 6939   1.051   1.828   3.617  1.8175 -0.8857 -1.1625
  302DG     C17 6940   1.426   1.990   3.436 -0.6600 -0.1682  1.1951
  302DG     C18 6941   1.229   1.889   3.523 -0.2662 -0.4863  0.0499
  302DG     O19 6942   1.344   1.971   3.548  0.2273 -0.2666  0.2454
  302DG     H20 6943   1.461   1.899   3.387 -0.5133  0.1972  0.6135
  302DG     H21 6944   1.380   2.046   3.355  0.7228 -0.6945 -0.0052
  302DG     H22 6945   1.256   1.788   3.493  1.0998  0.1150 -0.8383
  302DG     H23 6946   1.183   1.918   3.429  0.0037  0.0381  0.0751
  303DG      C1 6947   3.936   1.650   3.109  0.1168  0.1459 -0.1878
  303DG      C2 6948   4.042   0.963   3.168  0.3743  0.2576 -0.1493
  303DG      H3 6949   4.024   1.689   3.056  0.4197  0.9912  0.9089
  303DG      H4 6950   3.959   1.621   3.211  2.1441  1.3329 -0.2538
  303DG      H5 6951   3.855   1.723   3.110  1.9596  2.3657 -1.4658
  303DG      H6 6952   4.007   0.940   3.268 -1.8041 -0.9489 -1.1163
  303DG      H7 6953   4.047   0.871   3.111 -0.8344 -0.1577  0.3896
  303DG      H8 6954   4.142   1.006   3.177 -0.4492  2.1981  0.2888
  303DG      O9 6955   3.886   1.532   3.049 -0.0156  1.0341  0.2248
  303DG     O10 6956   3.962   1.053   3.091 -0.1877  0.2330 -0.0501
  303DG     C11 6957   3.759   1.496   3.087  0.7283  0.1026  0.3245
  303DG     C12 6958   3.822   1.031   3.109  0.3753 -0.5197  0.3104
  303DG     H13 6959   3.684   1.574   3.082  1.0703  0.4752  0.9639
  303DG     H14 6960   3.754   1.470   3.192  1.1387  0.0117  0.3254
  303DG     H15 6961   3.799   0.980   3.203 -1.3596  0.7946  0.6401
  303DG     H16 6962   3.780   0.976   3.025  2.2924 -1.2683 -0.2021
  303DG     C17 6963   3.703   1.376   3.001  0.5890 -0.0979 -0.0465
  303DG     C18 6964   3.743   1.164   3.118 -0.4737 -0.2457  0.5477
  303DG     O19 6965   3.775   1.250   3.008 -0.4556  0.2736  0.1460
  303DG     H20 6966   3.703   1.403   2.895  3.1164  0.5978  0.0751
  303DG     H21 6967   3.599   1.352   3.021  0.0732  0.8434 -1.4638
  303DG     H22 6968   3.641   1.127   3.110  0.2590 -2.0150 -1.2575
  303DG     H23 6969   3.759   1.220   3.211  2.1535 -0.0424  0.0538
  304DG      C1 6970   4.780   2.312   3.999 -0.5449 -0.3527  0.1018
  304DG      C2 6971   4.938   1.794   4.344 -0.2454  0.2812  0.1443
  304DG      H3 6972   4.756   2.367   3.908  1.3594  0.0711 -0.1813
  304DG      H4 6973   4.874   2.364   4.015 -1.0696  1.0490 -1.1209
  304DG      H5 6974   4.708   2.342   4.075  1.0843  1.7846  0.9011
  304DG      H6 6975   5.045   1.794   4.326 -0.2761  3.9038 -0.6949
  304DG      H7 6976   4.915   1.873   4.415  0.7443  3.2486 -2.6204
  304DG      H8 6977   4.920   1.695   4.388  2.2948 -0.2365  0.1251
  304DG      O9 6978   4.803   2.172   3.987  0.0356  1.0925 -0.3660
  304DG     O10 6979   4.884   1.821   4.215  0.5531 -0.4782  0.5604
  304DG     C11 6980   4.885   2.139   3.875  0.3329 -0.1399 -0.4281
  304DG     C12 6981   4.934   1.736   4.109 -0.8864  0.3826 -0.6014
  304DG     H13 6982   4.987   2.173   3.889 -0.1206  1.9065 -1.7130
  304DG     H14 6983   4.837   2.187   3.789 -1.1964  1.2270  1.1195
  304DG     H15 6984   4.904   1.634   4.131  0.9029  0.2005  1.3629
  304DG     H16 6985   5.043   1.745   4.102 -0.7721 -0.1708  0.2262
  304DG     C17 6986   4.875   1.988   3.848 -0.0738  0.5912  0.1886
  304DG     C18 6987   4.891   1.792   3.971 -0.5034 -0.1743  0.0188
  304DG     O19 6988   4.919   1.929   3.963 -1.0744 -0.1376 -0.2589
  304DG     H20 6989   4.923   1.957   3.755 -2.1967 -0.7453 -0.5419
  304DG     H21 6990   4.769   1.962   3.837  0.2039 -0.5467  0.1257
  304DG     H22 6991   4.942   1.740   3.890 -0.6810  0.2692 -0.3755
  304DG     H23 6992   4.783   1.782   3.971 -0.6625  1.3173 -0.8614
  305DG      C1 6993   3.726   2.243   4.276  0.2351  0.2347  0.8277
  305DG      C2 6994   3.992   1.698   5.010 -0.8603 -0.0605 -0.0342
  305DG      H3 6995   3.638   2.284   4.226 -0.9913  0.5427  3.0901
  305DG      H4 6996   3.781   2.179   4.208  1.1260  0.0913  1.6555
  305DG      H5 6997   3.800   2.323   4.283  1.6324 -0.8283 -0.8817
  305DG      H6 6998   3.950   1.649   5.098  0.8211 -0.6649  0.4711
  305DG      H7 6999   4.046   1.624   4.951 -2.0020 -0.1184 -1.0516
  305DG      H8 7000   4.061   1.775   5.042 -2.6478  1.9732 -0.8149
  305DG      O9 7001   3.697   2.179   4.401 -0.2418  0.2363  0.1397
  305DG     O10 7002   3.894   1.753   4.933 -0.0114 -0.5985  0.9812
  305DG     C11 7003   3.818   2.131   4.458 -0.6797  0.3536  0.4862
  305DG     C12 7004   3.936   1.859   4.845 -0.4630  0.6306 -0.8448
  305DG     H13 7005   3.885   2.217   4.465  0.8229 -0.9096  2.9045
  305DG     H14 7006   3.872   2.052   4.406 -1.5085 -1.4301  2.1993
  305DG     H15 7007   4.028   1.827   4.796 -1.3832  1.2925 -3.1480
  305DG     H16 7008   3.964   1.954   4.891 -0.4976  0.7341 -1.0341
  305DG     C17 7009   3.780   2.070   4.591  0.2940 -0.4340  0.0185
  305DG     C18 7010   3.823   1.884   4.747 -0.1632 -0.3483  0.5715
  305DG     O19 7011   3.874   1.979   4.651  0.4178 -0.3125 -0.5205
  305DG     H20 7012   3.694   2.011   4.560 -0.4776  1.0278 -0.7184
  305DG     H21 7013   3.744   2.149   4.657 -0.9324  1.3221 -2.5887
  305DG     H22 7014   3.808   1.796   4.684 -0.5407  0.0662  0.0822
  305DG     H23 7015   3.723   1.909   4.782 -1.0166 -2.0067 -0.5340
  306DG      C1 7016   3.005   2.086   4.803  0.1213 -0.8931  0.1057
  306DG      C2 7017   2.509   2.520   4.720 -0.5190 -0.5744  0.7571
  306DG      H3 7018   2.985   2.102   4.697 -0.6786  3.0265  0.6889
  306DG      H4 7019   3.009   1.979   4.822  0.8591 -0.9395 -0.2900
  306DG      H5 7020   3.100   2.132   4.829  1.1211 -1.9458 -1.5646
  306DG      H6 7021   2.528   2.468   4.626  0.4108 -1.1085  1.2219
  306DG      H7 7022   2.403   2.545   4.721 -0.6382 -1.0826  1.4273
  306DG      H8 7023   2.557   2.618   4.718 -0.7125 -0.4827 -1.3559
  306DG      O9 7024   2.895   2.146   4.872  0.3886  0.7602 -0.2878
  306DG     O10 7025   2.554   2.440   4.835 -0.3327  0.0834 -0.7919
  306DG     C11 7026   2.898   2.131   5.011  0.1285 -0.1484  0.1746
  306DG     C12 7027   2.584   2.508   4.958 -0.0773 -0.1199 -0.1802
  306DG     H13 7028   2.987   2.184   5.046 -0.2791  1.8822 -1.6769
  306DG     H14 7029   2.900   2.029   5.050 -1.0747  0.3714  1.7377
  306DG     H15 7030   2.497   2.563   4.994 -0.4983 -1.3253  0.7274
  306DG     H16 7031   2.664   2.582   4.947  0.8522 -1.2756 -1.5817
  306DG     C17 7032   2.775   2.205   5.071  0.6559  0.4338  0.5279
  306DG     C18 7033   2.633   2.402   5.064 -0.1787  0.6170  0.1335
  306DG     O19 7034   2.750   2.337   5.014 -0.3839  0.4603  0.1815
  306DG     H20 7035   2.776   2.210   5.180 -0.1780  2.0981  0.5009
  306DG     H21 7036   2.692   2.144   5.036  0.3290 -1.2664  3.9105
  306DG     H22 7037   2.672   2.460   5.148  0.2942 -0.6125  0.7724
  306DG     H23 7038   2.549   2.337   5.087 -0.1932  0.5329 -0.1508
  307DG      C1 7039   0.574   5.192   5.174  0.0432  0.8428  0.0550
  307DG      C2 7040   0.916   5.535   4.678  0.5296 -0.2302  0.8272
  307DG      H3 7041   0.648   5.245   5.235 -0.0319  0.6137  0.3443
  307DG      H4 7042   0.573   5.096   5.226  1.6579  0.5243 -0.4291
  307DG      H5 7043   0.484   5.249   5.197 -0.5576  0.3195 -0.9371
  307DG      H6 7044   1.003   5.548   4.743  1.1461  1.9840 -0.3310
  307DG      H7 7045   0.943   5.543   4.573 -1.4538 -0.7539  0.2461
  307DG      H8 7046   0.852   5.623   4.689 -1.4594 -0.8342 -3.7793
  307DG      O9 7047   0.614   5.186   5.034 -0.3722 -0.8608  0.6235
  307DG     O10 7048   0.845   5.410   4.694  0.2359 -0.0792 -0.5292
  307DG     C11 7049   0.499   5.165   4.948 -0.2818  0.1346  0.0652
  307DG     C12 7050   0.748   5.382   4.597 -0.0564 -0.0693  0.1855
  307DG     H13 7051   0.437   5.255   4.956  1.7468  1.5682  0.3404
  307DG     H14 7052   0.432   5.083   4.977 -0.7198  0.4609 -0.0023
  307DG     H15 7053   0.788   5.378   4.496 -1.7729 -0.7891 -0.4993
  307DG     H16 7054   0.659   5.445   4.591 -0.4491 -0.7562 -4.0857
  307DG     C17 7055   0.555   5.153   4.804  0.0969  0.0359 -0.1467
  307DG     C18 7056   0.697   5.247   4.644 -0.0348  0.0679 -0.5510
  307DG     O19 7057   0.637   5.264   4.770 -0.5663  0.4009  0.4122
  307DG     H20 7058   0.473   5.140   4.734 -0.7994  1.7218  0.5442
  307DG     H21 7059   0.627   5.071   4.801  1.2497  1.0601 -1.2989
  307DG     H22 7060   0.623   5.213   4.572 -2.1077  0.1113  1.4743
  307DG     H23 7061   0.779   5.176   4.655 -0.6040 -0.5861 -0.5255
  308DG      C1 7062   5.084   1.439   1.217  0.3774 -0.0815  0.0196
  308DG      C2 7063   4.777   0.967   1.567 -0.6730  0.2554 -0.1533
  308DG      H3 7064   5.146   1.461   1.304 -0.7578 -1.7234  1.3175
  308DG      H4 7065   5.083   1.520   1.143  2.2553 -0.9390 -1.0135
  308DG      H5 7066   5.122   1.346   1.175  1.1911 -0.1306  0.8475
  308DG      H6 7067   4.882   0.940   1.578 -0.8271 -1.2814 -1.9668
  308DG      H7 7068   4.740   0.993   1.666  0.4521 -0.5597  0.5099
  308DG      H8 7069   4.738   0.870   1.537 -0.6543 -0.0222  0.7103
  308DG      O9 7070   4.955   1.412   1.255 -0.7782 -0.4520 -0.1048
  308DG     O10 7071   4.769   1.072   1.478  0.0313 -0.1186  0.1625
  308DG     C11 7072   4.902   1.521   1.326 -0.0730 -0.2671  0.0123
  308DG     C12 7073   4.655   1.154   1.504  0.4261 -0.5077 -0.6105
  308DG     H13 7074   4.909   1.616   1.272  0.2194  0.1343  0.7304
  308DG     H14 7075   4.951   1.538   1.422 -0.2408  0.6036 -0.0502
  308DG     H15 7076   4.651   1.191   1.606 -0.9748  0.2556 -0.9208
  308DG     H16 7077   4.560   1.103   1.485  1.0480 -1.1914 -1.9864
  308DG     C17 7078   4.756   1.482   1.358  0.2839  0.2989 -0.0026
  308DG     C18 7079   4.641   1.273   1.408 -0.8827 -0.4515 -0.0294
  308DG     O19 7080   4.761   1.355   1.427  0.3362  0.1584 -0.0388
  308DG     H20 7081   4.698   1.479   1.266  1.6524  1.4608 -0.9499
  308DG     H21 7082   4.699   1.549   1.423  1.2483  1.8870 -0.7285
  308DG     H22 7083   4.653   1.232   1.307  0.6674 -0.7839  0.2766
  308DG     H23 7084   4.549   1.331   1.412 -0.9566 -0.4876 -1.0147
  309DG      C1 7085   1.487   0.800   1.680  0.8679  0.1083  0.6885
  309DG      C2 7086   1.700   0.243   1.211 -0.1652 -0.6002  0.0221
  309DG      H3 7087   1.409   0.830   1.610  0.7071 -2.1319 -0.1731
  309DG      H4 7088   1.529   0.892   1.719  0.7475 -0.0731  1.2494
  309DG      H5 7089   1.436   0.751   1.762 -0.9533  0.9750  0.1231
  309DG      H6 7090   1.683   0.150   1.265 -0.4803 -0.2280  0.5778
  309DG      H7 7091   1.604   0.273   1.168 -0.6778  1.0458  2.1233
  309DG      H8 7092   1.774   0.226   1.133 -0.6110  1.8275 -1.0482
  309DG      O9 7093   1.588   0.710   1.623  0.4641 -0.5568  0.2667
  309DG     O10 7094   1.738   0.358   1.297  0.3152 -0.0867 -0.4298
  309DG     C11 7095   1.696   0.669   1.706  0.5287 -0.1841 -0.5647
  309DG     C12 7096   1.856   0.334   1.374  0.3802 -0.6717 -0.3721
  309DG     H13 7097   1.670   0.589   1.775  0.1001  0.2080 -0.2665
  309DG     H14 7098   1.730   0.746   1.776  1.7730 -0.5314 -0.7635
  309DG     H15 7099   1.942   0.324   1.308  1.2822  1.2610  0.4227
  309DG     H16 7100   1.852   0.250   1.443  3.2140 -0.2424  0.4390
  309DG     C17 7101   1.813   0.629   1.618 -0.3415  0.2167  0.2318
  309DG     C18 7102   1.887   0.464   1.451 -0.7512  0.5731 -0.0884
  309DG     O19 7103   1.779   0.515   1.530 -0.4035 -0.4138  0.2014
  309DG     H20 7104   1.898   0.593   1.675 -0.5401 -0.1046  0.3245
  309DG     H21 7105   1.843   0.708   1.549  1.0406 -1.4244 -1.1265
  309DG     H22 7106   1.970   0.437   1.517 -2.5088 -0.9055  1.6135
  309DG     H23 7107   1.916   0.547   1.386  0.7954 -1.1079 -1.6450
  310DG      C1 7108   3.690   4.137   0.769 -0.4755  0.1223 -0.8732
  310DG      C2 7109   3.563   4.141   1.509  0.6984  0.5416  0.4593
  310DG      H3 7110   3.595   4.181   0.797 -0.1194 -0.0786  0.7405
  310DG      H4 7111   3.674   4.071   0.684 -2.7039  0.2715 -0.6303
  310DG      H5 7112   3.758   4.219   0.744  0.3027 -0.2649 -0.0750
  310DG      H6 7113   3.633   4.224   1.499  1.2347  0.1427  0.8715
  310DG      H7 7114   3.465   4.188   1.515  0.0503 -0.9244  2.1932
  310DG      H8 7115   3.573   4.087   1.603 -0.0234 -2.3469 -1.0073
  310DG      O9 7116   3.741   4.065   0.875 -0.2257  0.0279  0.0146
  310DG     O10 7117   3.573   4.046   1.395  0.6268  0.2069 -0.3391
  310DG     C11 7118   3.662   3.950   0.902 -0.7932  0.3429 -0.1120
  310DG     C12 7119   3.695   3.972   1.394 -0.3802 -0.5059 -0.6738
  310DG     H13 7120   3.677   3.881   0.820  0.9567 -1.2444  1.4561
  310DG     H14 7121   3.555   3.970   0.916 -0.9655  1.3020 -2.4085
  310DG     H15 7122   3.691   3.906   1.481 -0.8645 -0.4072 -0.6148
  310DG     H16 7123   3.777   4.043   1.400 -2.9274  2.7517 -1.2995
  310DG     C17 7124   3.714   3.879   1.029  0.6967  0.5072 -1.1219
  310DG     C18 7125   3.701   3.889   1.269 -0.8470  0.6208 -0.3170
  310DG     O19 7126   3.685   3.959   1.151 -0.9852  0.2156  0.6705
  310DG     H20 7127   3.817   3.856   1.002  0.2686 -0.5469 -1.9452
  310DG     H21 7128   3.654   3.789   1.038 -0.1514  1.1062 -0.5313
  310DG     H22 7129   3.805   3.857   1.264 -0.7711  1.1271 -3.0697
  310DG     H23 7130   3.637   3.800   1.268  1.5508 -1.3450  2.3719
  311DG      C1 7131   1.779   1.028   1.015 -0.1881 -0.4085  0.5962
  311DG      C2 7132   1.476   1.537   1.292 -0.4893 -0.1041  0.7696
  311DG      H3 7133   1.792   0.984   1.113 -1.0083  0.5553  1.1570
  311DG      H4 7134   1.860   1.100   1.005 -0.9368  0.3179 -0.6081
  311DG      H5 7135   1.788   0.951   0.938 -0.0890  0.8328 -0.6909
  311DG      H6 7136   1.392   1.593   1.332 -0.9568  0.9419 -1.4934
  311DG      H7 7137   1.545   1.501   1.369  0.6722 -1.2506 -0.7318
  311DG      H8 7138   1.547   1.599   1.237 -0.9075 -0.6172 -0.3922
  311DG      O9 7139   1.656   1.099   1.005  0.0467 -0.4041 -0.0226
  311DG     O10 7140   1.436   1.423   1.209 -0.7116 -0.8063  0.4612
  311DG     C11 7141   1.629   1.143   0.872  0.0374 -0.4356  0.1440
  311DG     C12 7142   1.379   1.477   1.090 -0.8783  0.0382 -0.4526
  311DG     H13 7143   1.639   1.062   0.800  0.5465 -0.5705  0.3629
  311DG     H14 7144   1.703   1.213   0.831  1.3391 -1.7147  0.2264
  311DG     H15 7145   1.445   1.552   1.045 -2.1025  1.7834  0.5459
  311DG     H16 7146   1.286   1.529   1.113 -0.8835  0.3432 -1.1265
  311DG     C17 7147   1.484   1.193   0.883  0.2821  0.0189 -0.5930
  311DG     C18 7148   1.360   1.372   0.976 -0.1665  0.3914  0.2703
  311DG     O19 7149   1.477   1.297   0.975 -0.1625 -0.2164 -0.2503
  311DG     H20 7150   1.429   1.102   0.908  0.0972  0.4808  0.7755
  311DG     H21 7151   1.456   1.217   0.781 -0.1807  1.0014 -0.2444
  311DG     H22 7152   1.276   1.308   1.007  1.4480 -0.6254  2.8953
  311DG     H23 7153   1.331   1.414   0.880  0.6888  1.1514  0.3425
  312DG      C1 7154   2.737   3.202   5.171  0.1726  0.6475 -0.0376
  312DG      C2 7155   3.273   3.637   4.941 -0.1070  0.0771  0.3045
  312DG      H3 7156   2.759   3.103   5.131  0.0715  1.3234 -1.8726
  312DG      H4 7157   2.628   3.203   5.179  0.2597  1.2687  1.4695
  312DG      H5 7158   2.774   3.210   5.274 -0.9229  1.7153  0.2967
  312DG      H6 7159   3.322   3.586   4.858  1.0752  2.0537 -0.2648
  312DG      H7 7160   3.280   3.744   4.922 -0.7497 -0.0205 -0.5523
  312DG      H8 7161   3.320   3.624   5.038 -0.8950  0.6340  0.7708
  312DG      O9 7162   2.791   3.303   5.086 -0.5773 -0.7064  0.2073
  312DG     O10 7163   3.133   3.597   4.967  0.1051 -0.4178  0.0437
  312DG     C11 7164   2.734   3.303   4.959 -0.6907  0.0464 -0.8205
  312DG     C12 7165   3.054   3.633   4.851  0.2474 -0.7355 -0.2904
  312DG     H13 7166   2.627   3.283   4.966 -0.4105 -0.8342  2.1157
  312DG     H14 7167   2.790   3.241   4.889 -0.8317 -1.6769  0.5277
  312DG     H15 7168   3.080   3.569   4.768  0.3292  0.9362 -1.6121
  312DG     H16 7169   3.081   3.736   4.827  1.9906 -1.0507  0.1477
  312DG     C17 7170   2.742   3.453   4.912 -0.3943 -0.1151 -0.1561
  312DG     C18 7171   2.902   3.611   4.871 -0.6435 -0.3359  0.0584
  312DG     O19 7172   2.879   3.478   4.902  0.3005 -0.1855 -0.3863
  312DG     H20 7173   2.699   3.519   4.988 -0.2024 -1.5447  1.2463
  312DG     H21 7174   2.703   3.473   4.812 -0.5354  0.2426 -0.0333
  312DG     H22 7175   2.860   3.679   4.946  2.5756  2.6140 -0.5612
  312DG     H23 7176   2.852   3.634   4.777 -2.2376 -1.9909  0.4428
  313DG      C1 7177   0.852   4.262   1.093  0.6775  0.0299  0.0344
  313DG      C2 7178   0.702   4.501   0.539 -0.2194  0.4350 -0.6329
  313DG      H3 7179   0.889   4.175   1.147  0.6265 -0.5393 -0.8257
  313DG      H4 7180   0.746   4.254   1.066  0.7835 -0.1869 -0.3181
  313DG      H5 7181   0.851   4.351   1.156 -2.4594 -1.3602  2.2299
  313DG      H6 7182   0.693   4.561   0.448  0.4603  0.7711 -0.4834
  313DG      H7 7183   0.636   4.414   0.534 -0.2610  0.4848 -1.0153
  313DG      H8 7184   0.662   4.582   0.599  0.8024  0.8577 -0.5141
  313DG      O9 7185   0.922   4.293   0.972 -0.0104 -0.4344  0.3073
  313DG     O10 7186   0.832   4.461   0.570 -0.1880 -0.3612 -0.7826
  313DG     C11 7187   1.066   4.301   0.976  0.5760  0.3082 -0.3906
  313DG     C12 7188   0.915   4.570   0.606 -0.0145 -0.7121 -0.3399
  313DG     H13 7189   1.113   4.203   0.989 -0.4541 -0.5497 -2.5983
  313DG     H14 7190   1.083   4.355   1.069  1.0859 -1.5288  0.6540
  313DG     H15 7191   0.867   4.627   0.686 -1.8409 -1.6592 -0.7034
  313DG     H16 7192   0.942   4.627   0.517  0.4771  1.7645  1.3175
  313DG     C17 7193   1.116   4.372   0.844  0.3707  0.7678  0.2889
  313DG     C18 7194   1.043   4.521   0.670 -0.0707  0.6148 -0.6105
  313DG     O19 7195   1.005   4.455   0.792  0.1705 -0.0996 -0.0115
  313DG     H20 7196   1.114   4.291   0.771 -0.7706  0.1116  1.0189
  313DG     H21 7197   1.206   4.431   0.862 -0.2134  2.5564 -2.2194
  313DG     H22 7198   1.087   4.451   0.599 -0.8568 -1.4416  0.8237
  313DG     H23 7199   1.118   4.595   0.696 -0.8765  1.6829 -1.2451
  314DG      C1 7200   5.341   2.449   1.371 -0.6249 -0.1832  0.3553
  314DG      C2 7201   5.623   2.324   0.703  0.7123  0.0945  0.1937
  314DG      H3 7202   5.249   2.397   1.344 -0.2796 -0.7175  0.1756
  314DG      H4 7203   5.325   2.556   1.379  0.2890 -0.1390  1.9878
  314DG      H5 7204   5.359   2.414   1.473  0.7651  2.4003  1.0865
  314DG      H6 7205   5.609   2.432   0.708 -1.8058 -0.1413 -0.1897
  314DG      H7 7206   5.681   2.285   0.619  1.3238  0.4619  0.4388
  314DG      H8 7207   5.520   2.296   0.682  0.6215  1.3959 -1.3784
  314DG      O9 7208   5.448   2.410   1.286  0.1818 -0.0103 -0.0273
  314DG     O10 7209   5.648   2.263   0.827  0.6480  0.2984  0.3480
  314DG     C11 7210   5.466   2.267   1.287  0.5543 -0.7034  0.2014
  314DG     C12 7211   5.767   2.306   0.890  0.3592  0.7258 -0.3282
  314DG     H13 7212   5.386   2.209   1.240  0.8183 -1.2881  0.4554
  314DG     H14 7213   5.455   2.227   1.388  2.1268 -2.8041 -0.3918
  314DG     H15 7214   5.760   2.415   0.898  0.8327  0.6328  2.2039
  314DG     H16 7215   5.863   2.273   0.852 -1.1735  0.1990 -4.1682
  314DG     C17 7216   5.606   2.221   1.226  0.7182  0.6943 -0.3188
  314DG     C18 7217   5.749   2.252   1.033  0.8113 -0.3642 -0.1134
  314DG     O19 7218   5.620   2.279   1.096 -0.0924  0.3132 -0.2494
  314DG     H20 7219   5.613   2.112   1.224 -1.1550  0.5125  1.0125
  314DG     H21 7220   5.682   2.250   1.299 -0.2403 -2.2802  2.0898
  314DG     H22 7221   5.772   2.146   1.043  0.4295 -0.6004 -1.5693
  314DG     H23 7222   5.823   2.317   1.080  0.8007 -0.1331 -0.4129
  315DG      C1 7223   0.801   5.354   5.445  0.1730 -0.3053 -0.4032
  315DG      C2 7224   0.253   4.974   5.188 -0.0778 -0.4545 -0.2616
  315DG      H3 7225   0.895   5.342   5.500  0.5513 -1.3555 -1.2441
  315DG      H4 7226   0.784   5.461   5.433 -0.8456 -0.4469 -0.3120
  315DG      H5 7227   0.813   5.309   5.347  0.3261  0.3988 -0.7086
  315DG      H6 7228   0.181   4.892   5.195  0.7237 -1.2874 -1.4347
  315DG      H7 7229   0.204   5.068   5.164  0.1345 -0.1389  0.4826
  315DG      H8 7230   0.312   4.948   5.100  3.1534  2.3673  0.8362
  315DG      O9 7231   0.697   5.288   5.520  0.4326 -0.2719  0.0946
  315DG     O10 7232   0.339   4.987   5.307  0.3513  0.2989  0.3335
  315DG     C11 7233   0.716   5.152   5.546  0.5595  0.3426  0.3861
  315DG     C12 7234   0.269   5.064   5.407  0.1875 -0.1911 -0.1764
  315DG     H13 7235   0.792   5.142   5.624  0.8982  0.3293  0.0557
  315DG     H14 7236   0.744   5.096   5.457  0.2481  2.1962 -0.9297
  315DG     H15 7237   0.178   5.010   5.431 -0.0262  0.3705  0.3059
  315DG     H16 7238   0.245   5.167   5.380 -0.2866 -0.0054  0.9146
  315DG     C17 7239   0.581   5.091   5.598  0.6199  0.3724  0.5969
  315DG     C18 7240   0.347   5.074   5.533  0.5430  0.4237 -0.2670
  315DG     O19 7241   0.479   5.122   5.502 -0.6326 -0.0333 -0.0730
  315DG     H20 7242   0.549   5.136   5.692 -0.1757 -0.0102  0.5146
  315DG     H21 7243   0.584   4.983   5.615 -0.4891  0.3863  0.9947
  315DG     H22 7244   0.298   5.147   5.597 -0.1175 -2.2937  2.6111
  315DG     H23 7245   0.347   4.981   5.591 -0.5879  0.5932  0.0164
  316DG      C1 7246   2.446   2.097   4.843 -0.1633 -0.4388  0.1567
  316DG      C2 7247   2.879   2.536   4.597  0.6843  0.0873 -0.1842
  316DG      H3 7248   2.405   2.003   4.880  0.0062 -1.4381 -2.0336
  316DG      H4 7249   2.389   2.163   4.777  1.2524  2.6175  1.7698
  316DG      H5 7250   2.452   2.172   4.923  0.3739 -0.7084  0.3699
  316DG      H6 7251   2.983   2.510   4.577 -0.2539 -3.6307 -1.0255
  316DG      H7 7252   2.855   2.620   4.532 -4.1235  0.4944  1.7278
  316DG      H8 7253   2.873   2.583   4.695 -0.2874 -3.1530  1.4655
  316DG      O9 7254   2.573   2.083   4.784 -0.3639 -0.4839  0.1804
  316DG     O10 7255   2.791   2.428   4.582  0.2728 -0.2978  0.0574
  316DG     C11 7256   2.563   2.003   4.664 -1.0498 -0.6076  0.1397
  316DG     C12 7257   2.766   2.392   4.449  0.1260  0.1723  0.1312
  316DG     H13 7258   2.463   2.016   4.622  0.6197  2.8022 -3.3905
  316DG     H14 7259   2.583   1.902   4.699 -1.9815 -0.3248  1.6101
  316DG     H15 7260   2.832   2.443   4.379 -0.8261  1.0131 -0.1801
  316DG     H16 7261   2.668   2.432   4.426 -0.7660 -0.4100  2.5928
  316DG     C17 7262   2.675   2.035   4.562  0.4461 -0.3611  0.2713
  316DG     C18 7263   2.766   2.237   4.442 -0.6179  0.0208  0.2044
  316DG     O19 7264   2.677   2.180   4.545 -0.2957  0.0401  0.2728
  316DG     H20 7265   2.665   1.997   4.461 -1.4340  3.4756 -1.1490
  316DG     H21 7266   2.776   2.009   4.596  0.2199 -1.4035  0.1843
  316DG     H22 7267   2.719   2.199   4.352 -2.4325  1.5019  0.4618
  316DG     H23 7268   2.868   2.199   4.451 -0.2910  0.8102 -0.0055
  317DG      C1 7269   0.568   1.035   1.567  0.6177  0.6014 -0.2790
  317DG      C2 7270   0.826   0.977   0.977 -0.5690 -0.0503  0.1999
  317DG      H3 7271   0.467   1.042   1.605  0.0298 -0.2948 -1.6034
  317DG      H4 7272   0.609   1.135   1.551  1.2990  0.0942 -1.9266
  317DG      H5 7273   0.631   0.983   1.639 -2.0056 -1.0519  0.9291
  317DG      H6 7274   0.868   1.064   1.029 -1.0556  0.4116 -0.1724
  317DG      H7 7275   0.893   0.951   0.896 -1.0147 -0.5320 -0.0160
  317DG      H8 7276   0.729   1.006   0.935 -1.0142  1.4108  2.0559
  317DG      O9 7277   0.586   0.953   1.447  0.3566  0.1090 -0.4712
  317DG     O10 7278   0.813   0.876   1.072 -0.5127  0.0149 -0.1841
  317DG     C11 7279   0.554   0.822   1.465  0.5311 -0.0899  0.3470
  317DG     C12 7280   0.738   0.764   1.039 -0.4628  0.1024 -0.3270
  317DG     H13 7281   0.455   0.818   1.511  0.4633 -1.9665  0.0824
  317DG     H14 7282   0.630   0.782   1.532 -0.1574  0.3078  1.4051
  317DG     H15 7283   0.781   0.708   0.956 -0.6929  2.3395 -2.0353
  317DG     H16 7284   0.642   0.810   1.014 -1.8656 -0.4395  3.4250
  317DG     C17 7285   0.565   0.746   1.338 -0.1103  0.2064 -0.2070
  317DG     C18 7286   0.709   0.677   1.165  0.0958 -0.3957  0.4863
  317DG     O19 7287   0.697   0.754   1.286  0.5213 -0.1130 -0.1165
  317DG     H20 7288   0.514   0.797   1.256  2.6098  2.0127 -0.8942
  317DG     H21 7289   0.525   0.644   1.340 -1.2350  0.5682 -2.0263
  317DG     H22 7290   0.618   0.624   1.136  0.5180  1.2056 -4.7062
  317DG     H23 7291   0.786   0.600   1.168  0.2088 -0.2894  0.3025
  318DG      C1 7292   2.470   0.087   1.628  0.2170 -0.2813  0.3374
  318DG      C2 7293   2.149   0.657   1.847  0.4258 -0.4964 -0.0055
  318DG      H3 7294   2.448  -0.009   1.582  0.5256  0.1563 -0.7501
  318DG      H4 7295   2.458   0.075   1.736 -3.1879 -0.6367  0.0332
  318DG      H5 7296   2.569   0.129   1.610  0.0071  0.1850  0.2430
  318DG      H6 7297   2.218   0.618   1.922  0.5880  1.4310  0.9047
  318DG      H7 7298   2.172   0.761   1.823  0.8612 -1.1405 -2.6569
  318DG      H8 7299   2.050   0.650   1.891  0.3103 -0.2387 -0.2234
  318DG      O9 7300   2.355   0.175   1.605  0.0837 -0.0600 -0.0188
  318DG     O10 7301   2.157   0.581   1.728  0.2234 -0.0794 -0.8052
  318DG     C11 7302   2.341   0.209   1.467  0.5411  0.0428  0.3067
  318DG     C12 7303   2.290   0.599   1.678  0.0309 -0.7019  0.0165
  318DG     H13 7304   2.319   0.122   1.404 -2.6737  0.1706  1.0726
  318DG     H14 7305   2.424   0.260   1.417  1.7366 -0.9262  1.2508
  318DG     H15 7306   2.371   0.572   1.745 -1.0463  0.3140  1.7953
  318DG     H16 7307   2.309   0.704   1.655  1.5036 -0.5934  1.5079
  318DG     C17 7308   2.215   0.290   1.479 -0.5672 -1.0041  0.0030
  318DG     C18 7309   2.295   0.510   1.556 -0.5632 -0.5419  0.3434
  318DG     O19 7310   2.233   0.389   1.583 -0.2019 -0.1860  0.3442
  318DG     H20 7311   2.139   0.220   1.513 -1.2347  0.6155  2.0472
  318DG     H21 7312   2.183   0.328   1.382 -0.0672  0.9856  0.5896
  318DG     H22 7313   2.244   0.566   1.477  0.7015  1.0409  0.5905
  318DG     H23 7314   2.394   0.496   1.514 -1.0286 -0.2529 -0.9029
  319DG      C1 7315   0.315   2.114   3.203  0.1029  0.3220 -0.8601
  319DG      C2 7316   0.586   2.935   3.474 -0.1403  0.1812  0.1592
  319DG      H3 7317   0.213   2.143   3.180 -0.7274 -0.3802  1.6391
  319DG      H4 7318   0.326   2.087   3.308  1.1425 -2.4371 -1.5761
  319DG      H5 7319   0.331   2.023   3.145  0.0555  0.5195 -1.1870
  319DG      H6 7320   0.596   2.923   3.582  0.4260 -1.9046 -0.0804
  319DG      H7 7321   0.674   2.978   3.427 -0.8599  1.5971  0.0431
  319DG      H8 7322   0.505   2.999   3.438 -0.2019 -0.7621 -1.4921
  319DG      O9 7323   0.409   2.214   3.176 -0.5071 -0.2441  0.0454
  319DG     O10 7324   0.561   2.805   3.419 -0.0191 -0.7003 -0.1119
  319DG     C11 7325   0.410   2.312   3.280  0.0291  0.0873  0.2889
  319DG     C12 7326   0.665   2.716   3.441  0.0111 -1.2971 -0.0392
  319DG     H13 7327   0.432   2.269   3.377 -0.1494 -0.3265  0.1463
  319DG     H14 7328   0.312   2.359   3.289  0.6511  1.2817  1.0352
  319DG     H15 7329   0.677   2.688   3.546  1.5075 -1.2973 -0.1963
  319DG     H16 7330   0.758   2.762   3.408 -0.5079 -1.3775 -1.7255
  319DG     C17 7331   0.515   2.426   3.256  1.1580 -0.0735 -0.2777
  319DG     C18 7332   0.651   2.596   3.341 -0.2576 -0.4587  0.1925
  319DG     O19 7333   0.527   2.519   3.359 -0.5794 -0.0430 -0.5324
  319DG     H20 7334   0.481   2.483   3.169 -1.1924  1.1426  1.3334
  319DG     H21 7335   0.608   2.372   3.239 -0.4621 -3.1623 -0.1677
  319DG     H22 7336   0.666   2.628   3.238 -1.0009 -0.7522 -0.0105
  319DG     H23 7337   0.735   2.527   3.351  0.6256  0.3160 -1.4333
  320DG      C1 7338   5.267   4.484   2.101 -0.3897  0.5012  0.3792
  320DG      C2 7339   5.789   4.755   2.210  0.0730 -0.3342 -0.1448
  320DG      H3 7340   5.293   4.589   2.086 -0.7227  0.4629 -0.4879
  320DG      H4 7341   5.322   4.457   2.192  1.8616 -0.8365 -1.2846
  320DG      H5 7342   5.160   4.482   2.123 -0.2693  1.6099  1.1665
  320DG      H6 7343   5.825   4.765   2.107  1.4228  0.3932  0.3713
  320DG      H7 7344   5.742   4.849   2.237 -1.5776 -0.5922 -1.9057
  320DG      H8 7345   5.881   4.737   2.265  1.9621 -0.6568 -3.1562
  320DG      O9 7346   5.288   4.391   2.001  0.0244 -0.4449 -0.2328
  320DG     O10 7347   5.708   4.628   2.221 -0.5379  0.0307 -0.0053
  320DG     C11 7348   5.406   4.407   1.928  0.6193 -0.7972 -0.2413
  320DG     C12 7349   5.780   4.507   2.184  0.6089  0.2182 -0.3501
  320DG     H13 7350   5.419   4.506   1.885  1.2800 -0.3644  0.9201
  320DG     H14 7351   5.411   4.347   1.836 -2.4138  0.4147 -1.3158
  320DG     H15 7352   5.861   4.500   2.257 -0.7285  1.4910  1.3711
  320DG     H16 7353   5.820   4.515   2.084  0.3616  1.6864 -0.3536
  320DG     C17 7354   5.532   4.361   1.994 -0.8580  0.2014 -0.2848
  320DG     C18 7355   5.683   4.392   2.175  0.3884  0.3181  0.0876
  320DG     O19 7356   5.564   4.428   2.109 -0.5125  0.4542 -0.0850
  320DG     H20 7357   5.611   4.380   1.921 -1.1945  0.7936 -0.5018
  320DG     H21 7358   5.543   4.254   2.010  2.8971  0.5564  0.5483
  320DG     H22 7359   5.729   4.301   2.135 -0.5252 -0.5124  0.8715
  320DG     H23 7360   5.657   4.352   2.273 -2.1188  1.7652  0.0814
  321DG      C1 7361   4.905   3.607   1.003 -0.2117 -0.0520  0.2867
  321DG      C2 7362   4.670   3.770   0.407 -0.2201 -0.2834  0.0493
  321DG      H3 7363   4.915   3.690   1.073  0.1293  0.3252 -0.2000
  321DG      H4 7364   4.933   3.515   1.054  2.2077  0.4500 -0.0350
  321DG      H5 7365   4.800   3.598   0.975 -0.4038  0.3161  0.8682
  321DG      H6 7366   4.606   3.682   0.414  1.8154 -1.7663  0.8303
  321DG      H7 7367   4.623   3.848   0.346 -0.2454 -0.3193  0.0222
  321DG      H8 7368   4.754   3.734   0.349  0.1478  0.9148 -0.1934
  321DG      O9 7369   4.988   3.633   0.894 -0.3265  0.4569 -0.2393
  321DG     O10 7370   4.714   3.816   0.535  0.1566  0.1341 -0.4847
  321DG     C11 7371   4.976   3.551   0.784 -0.1372 -0.2747 -0.2149
  321DG     C12 7372   4.824   3.903   0.538  0.0102 -0.3471  0.1327
  321DG     H13 7373   4.929   3.455   0.808 -0.2867 -0.7725 -2.3501
  321DG     H14 7374   5.072   3.523   0.740 -0.5744 -1.8183 -0.2568
  321DG     H15 7375   4.808   3.958   0.631 -1.4818  1.0560 -0.8861
  321DG     H16 7376   4.816   3.978   0.459 -0.3491  1.4567  1.7771
  321DG     C17 7377   4.912   3.630   0.670  0.1014  0.2632  0.8920
  321DG     C18 7378   4.956   3.819   0.539 -0.0679 -0.6735 -0.1750
  321DG     O19 7379   4.985   3.750   0.662  0.3842  0.4681  0.1497
  321DG     H20 7380   4.810   3.641   0.705 -0.4172  0.7089 -0.6899
  321DG     H21 7381   4.907   3.567   0.580 -0.3754 -1.5377  2.1309
  321DG     H22 7382   4.972   3.760   0.449  0.4017  0.6224 -0.9605
  321DG     H23 7383   5.044   3.882   0.529  0.3377 -1.1516  0.3122
  322DG      C1 7384   0.906   5.073   1.526 -0.3694  0.4350 -0.0543
  322DG      C2 7385   1.484   5.255   1.913 -0.7467  0.0301 -0.7866
  322DG      H3 7386   0.857   5.000   1.462 -0.7106 -0.3864  1.1035
  322DG      H4 7387   0.899   5.175   1.487  2.1822  0.0549 -1.6889
  322DG      H5 7388   0.849   5.082   1.619 -0.8392 -1.7020 -0.0825
  322DG      H6 7389   1.430   5.262   2.008  1.4786  1.0121  0.4811
  322DG      H7 7390   1.586   5.226   1.937 -0.4798  0.3969 -1.4574
  322DG      H8 7391   1.491   5.352   1.866  2.3657  0.8082  0.9899
  322DG      O9 7392   1.040   5.027   1.562  0.3772 -0.0309 -0.6105
  322DG     O10 7393   1.442   5.158   1.814 -0.3573  0.2218  0.3705
  322DG     C11 7394   1.042   4.898   1.625 -0.1733 -0.5636  0.3682
  322DG     C12 7395   1.458   5.019   1.853 -0.0792  1.0804 -0.0112
  322DG     H13 7396   0.993   4.822   1.564  3.3525 -1.3164 -1.7948
  322DG     H14 7397   0.999   4.894   1.726  0.8813  0.8281  0.9125
  322DG     H15 7398   1.415   5.009   1.953  0.2984  0.7864  0.1223
  322DG     H16 7399   1.560   4.984   1.869 -0.8339 -1.8091 -0.9160
  322DG     C17 7400   1.185   4.862   1.637 -0.2605 -0.3158 -0.1470
  322DG     C18 7401   1.391   4.915   1.755 -0.1394 -0.7032  0.6601
  322DG     O19 7402   1.258   4.962   1.716  0.2492  0.6448 -0.3928
  322DG     H20 7403   1.227   4.844   1.538  1.2600  2.2997 -0.0723
  322DG     H21 7404   1.205   4.769   1.689 -0.4898  0.7486  1.9566
  322DG     H22 7405   1.459   4.894   1.672 -0.0745  0.2240  0.4663
  322DG     H23 7406   1.380   4.823   1.813 -1.1164 -2.0228 -1.4566
  323DG      C1 7407   4.867   2.627   3.456 -0.2341 -0.2720 -0.6337
  323DG      C2 7408   5.394   2.542   3.871 -0.0252  0.4272 -0.1534
  323DG      H3 7409   4.790   2.619   3.533  1.1976 -0.9336  0.7817
  323DG      H4 7410   4.814   2.604   3.364 -1.5618 -0.4727  0.1486
  323DG      H5 7411   4.883   2.735   3.461 -2.9314  0.1823 -0.0611
  323DG      H6 7412   5.369   2.515   3.973  0.8768  3.3704  0.9631
  323DG      H7 7413   5.497   2.516   3.849  1.1421  2.0809  2.8270
  323DG      H8 7414   5.370   2.648   3.865 -0.5587  0.4032  1.2480
  323DG      O9 7415   4.974   2.542   3.477 -0.3685  0.5063 -0.3973
  323DG     O10 7416   5.319   2.492   3.761 -0.0971  0.1582 -0.1697
  323DG     C11 7417   4.930   2.408   3.487  0.4169 -0.6885 -0.1160
  323DG     C12 7418   5.304   2.353   3.771 -1.1566  0.1386  0.0251
  323DG     H13 7419   4.893   2.363   3.394  2.6242 -1.2473 -0.7918
  323DG     H14 7420   4.852   2.392   3.561  0.8490  0.2577  0.5612
  323DG     H15 7421   5.240   2.340   3.859 -2.9802 -0.8665 -1.3691
  323DG     H16 7422   5.399   2.301   3.784 -0.2452  1.4496 -1.1331
  323DG     C17 7423   5.045   2.317   3.522 -0.0229 -0.4322  0.3604
  323DG     C18 7424   5.230   2.304   3.650  0.1797 -0.2496  0.1449
  323DG     O19 7425   5.112   2.378   3.634  0.9829 -0.1021 -0.5744
  323DG     H20 7426   5.105   2.301   3.433  0.3363 -0.5970  0.6311
  323DG     H21 7427   4.998   2.223   3.551 -1.2829  0.0472 -0.0605
  323DG     H22 7428   5.284   2.309   3.556  1.4949 -0.6838  0.8372
  323DG     H23 7429   5.205   2.198   3.664  1.6245 -0.6951 -0.4038
  324DG      C1 7430   1.457   2.399   4.936 -0.4566  0.5213 -1.2914
  324DG      C2 7431   1.949   2.399   4.487  0.0435 -0.4286  0.2466
  324DG      H3 7432   1.451   2.391   5.045  2.3022  0.9429 -1.0301
  324DG      H4 7433   1.367   2.355   4.894 -1.4828  0.4328  0.8678
  324DG      H5 7434   1.461   2.507   4.922  1.4858  0.9012  1.3075
  324DG      H6 7435   2.038   2.359   4.438  1.6945  2.7800  0.3590
  324DG      H7 7436   1.859   2.399   4.425  0.4101 -0.1061 -0.2984
  324DG      H8 7437   1.989   2.500   4.496  0.3654 -0.6384  1.3370
  324DG      O9 7438   1.578   2.334   4.888  0.4663  0.8203  0.1897
  324DG     O10 7439   1.920   2.326   4.605  0.4089  1.0425  0.0444
  324DG     C11 7440   1.594   2.203   4.940  0.3343 -0.2069  0.7707
  324DG     C12 7441   1.907   2.185   4.584 -0.7314 -0.5448  0.1755
  324DG     H13 7442   1.529   2.133   4.888  1.0107  2.0159 -3.5433
  324DG     H14 7443   1.578   2.191   5.047 -0.7834 -0.1990  0.6202
  324DG     H15 7444   1.998   2.136   4.550  0.0006  0.0719  1.1820
  324DG     H16 7445   1.825   2.171   4.515 -0.4521 -1.0559 -0.0593
  324DG     C17 7446   1.733   2.159   4.910 -0.4392  0.2138 -0.0961
  324DG     C18 7447   1.877   2.120   4.717 -0.2318  0.3289  0.2550
  324DG     O19 7448   1.767   2.186   4.772  0.3183  0.0414 -0.2692
  324DG     H20 7449   1.743   2.052   4.932  1.2668  0.6647  1.5511
  324DG     H21 7450   1.796   2.207   4.985  0.3316 -0.5605 -0.2308
  324DG     H22 7451   1.852   2.018   4.686  1.4285 -0.0901  0.1625
  324DG     H23 7452   1.961   2.124   4.786 -1.2545  1.7782  1.4663
  325DG      C1 7453   2.719   2.399   1.940 -0.4338  0.6497 -0.1946
  325DG      C2 7454   2.219   2.037   2.206 -0.0812  0.0078 -0.4577
  325DG      H3 7455   2.771   2.394   2.036 -0.7921  1.4048  0.0547
  325DG      H4 7456   2.696   2.504   1.920 -0.0427  0.8862  0.5333
  325DG      H5 7457   2.805   2.371   1.880 -0.8416  0.4708 -0.6941
  325DG      H6 7458   2.145   1.960   2.185  0.4671 -0.3798 -1.0354
  325DG      H7 7459   2.295   1.993   2.272  0.7103  0.0685 -1.2987
  325DG      H8 7460   2.183   2.123   2.262  3.0261  0.9231  0.3245
  325DG      O9 7461   2.610   2.310   1.920 -0.2192  0.5685  0.2017
  325DG     O10 7462   2.287   2.084   2.087 -0.3444 -0.1769 -0.0815
  325DG     C11 7463   2.580   2.309   1.785  0.2998 -1.0476  0.1854
  325DG     C12 7464   2.196   2.136   1.988  0.1957 -0.1822  0.2469
  325DG     H13 7465   2.660   2.264   1.727 -0.4981 -1.5052 -0.5720
  325DG     H14 7466   2.566   2.413   1.756 -1.2544 -1.0731  0.7097
  325DG     H15 7467   2.166   2.236   2.019  1.3453  0.1471  0.3476
  325DG     H16 7468   2.107   2.073   1.987 -0.0766  0.0595 -3.3879
  325DG     C17 7469   2.450   2.230   1.757  0.3401 -0.3896 -0.0493
  325DG     C18 7470   2.261   2.143   1.849 -0.1195 -0.2474 -0.7854
  325DG     O19 7471   2.380   2.218   1.878  0.1366  0.6053 -0.0006
  325DG     H20 7472   2.464   2.130   1.717  0.3510 -0.5154  0.2600
  325DG     H21 7473   2.390   2.279   1.681  0.4579  2.1564  1.3638
  325DG     H22 7474   2.284   2.043   1.813  1.1852  0.0005 -0.6709
  325DG     H23 7475   2.198   2.188   1.772 -1.2239  0.3132  0.4138
  326DG      C1 7476   1.124   4.431   4.892  0.1218  0.1458  0.3561
  326DG      C2 7477   1.129   4.608   5.283 -0.3115  0.1403  0.5634
  326DG      H3 7478   1.028   4.393   4.925  0.3389  0.6426  1.6162
  326DG      H4 7479   1.155   4.379   4.801 -0.9857  0.4758 -0.2325
  326DG      H5 7480   1.112   4.537   4.868  0.4170  0.2030  0.4516
  326DG      H6 7481   1.055   4.532   5.308  0.3017 -0.4776  0.5553
  326DG      H7 7482   1.096   4.708   5.312  0.1882 -0.1859  2.3900
  326DG      H8 7483   1.162   4.612   5.179 -1.7047 -2.6786 -0.0957
  326DG      O9 7484   1.221   4.433   5.002 -0.0430 -0.8243  0.0531
  326DG     O10 7485   1.227   4.565   5.379 -0.0213  0.5442  0.1719
  326DG     C11 7486   1.345   4.496   4.965 -0.1451  0.3041 -0.6963
  326DG     C12 7487   1.356   4.634   5.378 -0.4330  0.4616  0.7062
  326DG     H13 7488   1.326   4.603   4.951  0.3896  0.3034 -1.4663
  326DG     H14 7489   1.385   4.462   4.870 -0.7592 -2.3247 -0.0972
  326DG     H15 7490   1.421   4.578   5.445 -0.8477 -0.1815  0.5842
  326DG     H16 7491   1.346   4.735   5.416  0.2305  0.1640  1.7055
  326DG     C17 7492   1.457   4.463   5.069 -0.7547 -0.1581 -0.2854
  326DG     C18 7493   1.429   4.633   5.243  0.0952 -0.4769 -0.7815
  326DG     O19 7494   1.423   4.498   5.200 -0.4383  0.2441  0.2117
  326DG     H20 7495   1.553   4.497   5.030 -0.6774  0.6162  0.5291
  326DG     H21 7496   1.457   4.355   5.074  0.2019 -0.1497  0.2067
  326DG     H22 7497   1.386   4.703   5.173  0.3123  0.9893  0.4989
  326DG     H23 7498   1.530   4.674   5.250  0.2282 -1.0202  1.5271
  327DG      C1 7499   2.173   2.434   3.105  0.7524  0.0330  0.4441
  327DG      C2 7500   2.319   2.265   3.673 -0.4118 -0.3734  0.2136
  327DG      H3 7501   2.241   2.357   3.069  1.0188  0.4934 -0.0543
  327DG      H4 7502   2.244   2.500   3.156 -0.2632  0.9183  0.7538
  327DG      H5 7503   2.136   2.472   3.010  0.0474  0.1898  0.7698
  327DG      H6 7504   2.365   2.354   3.715  0.4265 -0.4671 -0.4826
  327DG      H7 7505   2.302   2.185   3.746  1.3648 -0.8948  0.0906
  327DG      H8 7506   2.388   2.226   3.599 -1.2433  0.8414 -1.2583
  327DG      O9 7507   2.072   2.383   3.180 -0.2809 -0.2717  0.4606
  327DG     O10 7508   2.198   2.295   3.599 -0.2580 -0.0050  0.3001
  327DG     C11 7509   1.983   2.488   3.212 -0.6146  0.4210 -0.6532
  327DG     C12 7510   2.102   2.368   3.670  0.4201 -0.0336 -0.0565
  327DG     H13 7511   1.892   2.479   3.153 -1.0492 -0.0104  0.0627
  327DG     H14 7512   2.027   2.588   3.211 -0.8285  0.5176 -0.4205
  327DG     H15 7513   2.140   2.467   3.694  1.4670 -0.3734 -0.2820
  327DG     H16 7514   2.073   2.327   3.767 -0.9001  0.6388 -0.1379
  327DG     C17 7515   1.922   2.458   3.351  0.4265 -0.1244  0.0838
  327DG     C18 7516   1.983   2.384   3.574 -0.1384 -0.1769  1.0021
  327DG     O19 7517   2.028   2.434   3.447  0.7781 -0.0898  0.1995
  327DG     H20 7518   1.861   2.367   3.348 -0.9669  0.7316  1.3110
  327DG     H21 7519   1.864   2.544   3.383 -0.6135 -0.1004 -1.7201
  327DG     H22 7520   1.940   2.285   3.564 -0.3268  0.0303 -0.3968
  327DG     H23 7521   1.904   2.441   3.623 -0.0658 -1.5047  2.7822
  328DG      C1 7522   1.356   4.617   0.592 -1.0465  0.0649 -0.5300
  328DG      C2 7523   1.405   4.102   0.794  0.5327 -0.2558  0.3461
  328DG      H3 7524   1.353   4.523   0.647 -2.6855 -1.1918 -2.6182
  328DG      H4 7525   1.316   4.705   0.643  2.0824  1.6638 -0.6033
  328DG      H5 7526   1.459   4.649   0.580 -1.1342  0.1141 -1.2188
  328DG      H6 7527   1.385   4.124   0.899 -0.8715  0.5652 -0.0638
  328DG      H7 7528   1.425   3.995   0.789 -0.6058 -0.6104  2.2668
  328DG      H8 7529   1.496   4.153   0.762  1.0638 -1.9420 -0.9450
  328DG      O9 7530   1.294   4.605   0.471 -0.1340  0.0344  0.6207
  328DG     O10 7531   1.297   4.144   0.715 -0.3458 -0.7709  0.8803
  328DG     C11 7532   1.353   4.514   0.376 -0.0961  0.4363 -0.1138
  328DG     C12 7533   1.324   4.104   0.579 -0.2596 -0.2811 -0.8382
  328DG     H13 7534   1.451   4.549   0.344 -1.2246  2.5347 -1.5296
  328DG     H14 7535   1.291   4.516   0.287 -0.6744 -0.5437  0.2491
  328DG     H15 7536   1.328   3.995   0.574 -3.2679 -0.4864 -0.5214
  328DG     H16 7537   1.426   4.129   0.550  0.2915 -2.8062 -1.3026
  328DG     C17 7538   1.362   4.368   0.425  0.5120 -0.0370  0.6272
  328DG     C18 7539   1.221   4.171   0.484 -0.0295 -0.5118  0.0513
  328DG     O19 7540   1.234   4.314   0.474 -0.6586  0.1992  0.6442
  328DG     H20 7541   1.437   4.352   0.503  0.9921 -3.3469 -0.3365
  328DG     H21 7542   1.395   4.304   0.343 -0.7143  0.0213  0.0810
  328DG     H22 7543   1.228   4.132   0.382  0.4728 -2.5351  0.8076
  328DG     H23 7544   1.123   4.143   0.522 -0.0696 -0.6580 -0.1585
  329DG      C1 7545   3.983   2.989   2.979 -0.2353  0.3997  0.1037
  329DG      C2 7546   4.340   3.315   3.407  0.6922  0.4712  0.4803
  329DG      H3 7547   3.939   2.908   2.921 -0.9216  1.5195 -1.0043
  329DG      H4 7548   3.982   3.079   2.918 -3.0456 -0.0667 -0.6994
  329DG      H5 7549   3.927   3.030   3.063  1.8722 -0.9807  2.3207
  329DG      H6 7550   4.239   3.314   3.449 -0.1921 -0.0893 -1.5204
  329DG      H7 7551   4.409   3.305   3.490  0.6315 -1.1906  0.3573
  329DG      H8 7552   4.352   3.411   3.357 -0.5440  1.4552  1.9698
  329DG      O9 7553   4.113   2.958   3.032  0.2471 -0.5642  0.3873
  329DG     O10 7554   4.354   3.214   3.300 -0.0995 -0.1138 -0.0451
  329DG     C11 7555   4.209   2.929   2.936 -0.4431 -0.7286 -0.0594
  329DG     C12 7556   4.474   3.204   3.236 -0.0368  0.3234  0.2352
  329DG     H13 7557   4.202   2.996   2.851 -1.5299 -1.8303 -0.8744
  329DG     H14 7558   4.195   2.831   2.892  1.0313 -1.3925  0.8638
  329DG     H15 7559   4.553   3.219   3.310  1.0474 -1.3992 -0.5317
  329DG     H16 7560   4.493   3.280   3.160 -0.6318 -0.4571 -0.7210
  329DG     C17 7561   4.348   2.929   3.011  0.1089 -0.0618  0.4259
  329DG     C18 7562   4.470   3.063   3.172 -0.7980  0.3272 -0.3705
  329DG     O19 7563   4.361   3.047   3.090 -0.2211  0.2056 -0.7996
  329DG     H20 7564   4.429   2.914   2.940  0.0576 -0.4248  0.4407
  329DG     H21 7565   4.352   2.843   3.079  0.2018  0.5371  1.1967
  329DG     H22 7566   4.563   3.038   3.120 -0.9134  2.3951 -1.7046
  329DG     H23 7567   4.471   2.987   3.250  2.1047  0.6052 -0.0092
  330DG      C1 7568   3.316   2.049   0.191 -0.0988  0.9191 -0.0908
  330DG      C2 7569   3.383   2.109  -0.535 -0.0623 -0.1773 -0.2961
  330DG      H3 7570   3.388   2.128   0.209  0.7506 -0.1020  1.2617
  330DG      H4 7571   3.335   1.974   0.268 -2.0933  0.2355 -0.2107
  330DG      H5 7572   3.218   2.090   0.214 -1.7706 -1.7776 -1.7395
  330DG      H6 7573   3.437   2.065  -0.619 -0.9942 -3.4786  0.6926
  330DG      H7 7574   3.288   2.145  -0.575 -0.3579 -1.9838 -1.3787
  330DG      H8 7575   3.443   2.195  -0.507 -0.3658 -0.2321  0.5418
  330DG      O9 7576   3.332   1.996   0.058 -0.4599 -0.1848 -0.3389
  330DG     O10 7577   3.366   2.016  -0.427  0.2043 -0.0619 -0.1299
  330DG     C11 7578   3.233   1.898   0.033  0.1990  0.4390 -0.3410
  330DG     C12 7579   3.277   1.910  -0.447 -0.6924 -0.5573  0.0507
  330DG     H13 7580   3.134   1.944   0.026 -0.6368 -1.0621  0.9189
  330DG     H14 7581   3.221   1.828   0.115 -1.0106 -0.0312 -0.8894
  330DG     H15 7582   3.302   1.853  -0.536 -0.8768 -1.7072  0.7032
  330DG     H16 7583   3.176   1.949  -0.460 -0.9665 -1.0761  0.5635
  330DG     C17 7584   3.262   1.807  -0.096  0.4189  0.3125  0.2243
  330DG     C18 7585   3.259   1.821  -0.326  0.3733  0.1472 -0.8061
  330DG     O19 7586   3.255   1.896  -0.209 -0.4703  0.0767 -0.5265
  330DG     H20 7587   3.193   1.725  -0.114  1.3645 -1.1117  2.6062
  330DG     H21 7588   3.364   1.771  -0.094 -0.3171 -1.9025  0.7237
  330DG     H22 7589   3.169   1.761  -0.336 -0.9893  1.7498  1.0072
  330DG     H23 7590   3.342   1.751  -0.323 -1.2690 -1.8533  0.3021
  331DG      C1 7591   0.401   0.087   5.207 -0.3285 -0.0380  0.2912
  331DG      C2 7592  -0.052  -0.194   5.934  0.6908  0.3320  0.5929
  331DG      H3 7593   0.351   0.171   5.158  1.0233  1.7904  1.8514
  331DG      H4 7594   0.375  -0.004   5.154 -0.5122 -0.5762  1.2719
  331DG      H5 7595   0.508   0.101   5.190  0.2875 -0.9335  2.9163
  331DG      H6 7596  -0.084  -0.170   6.036 -1.5533 -3.7791  1.1084
  331DG      H7 7597  -0.135  -0.192   5.864  1.2303 -0.1894 -0.0777
  331DG      H8 7598  -0.013  -0.295   5.922  0.4293  0.5110 -2.5656
  331DG      O9 7599   0.372   0.083   5.348  0.0301  0.3944 -0.3446
  331DG     O10 7600   0.049  -0.101   5.895 -0.2357  0.3394  0.2880
  331DG     C11 7601   0.442  -0.023   5.417 -0.4000  0.0308  0.3443
  331DG     C12 7602   0.105  -0.129   5.765 -0.4329  0.4387 -0.2454
  331DG     H13 7603   0.546   0.004   5.402 -0.0483 -1.2579  0.2694
  331DG     H14 7604   0.432  -0.121   5.370 -2.2628  0.0632  0.6118
  331DG     H15 7605   0.028  -0.139   5.689  0.3903  1.4701 -1.2540
  331DG     H16 7606   0.145  -0.230   5.762 -1.8263 -0.1484  0.2295
  331DG     C17 7607   0.396  -0.014   5.559 -0.1610 -0.7172 -0.4446
  331DG     C18 7608   0.216  -0.030   5.715  0.0290 -0.2489  0.3607
  331DG     O19 7609   0.266  -0.069   5.585 -0.0897  0.1223  0.1906
  331DG     H20 7610   0.402   0.088   5.598 -0.4582 -1.2674  1.0851
  331DG     H21 7611   0.470  -0.061   5.623 -2.0227 -2.5270  0.4686
  331DG     H22 7612   0.175   0.070   5.716 -0.9830 -0.6530  0.4745
  331DG     H23 7613   0.297  -0.016   5.788  1.2690 -0.4286 -0.9418
  332DG      C1 7614   4.538   1.074   0.843  0.3922 -0.4628 -0.3005
  332DG      C2 7615   4.132   1.683   1.073  0.0873 -0.6758 -0.1911
  332DG      H3 7616   4.456   1.010   0.813 -0.2017  0.3967 -0.5443
  332DG      H4 7617   4.585   1.027   0.930 -0.8608  0.7803  1.1092
  332DG      H5 7618   4.609   1.072   0.760 -0.9472 -1.6618 -1.4580
  332DG      H6 7619   4.045   1.625   1.102  0.6142 -2.0405 -1.2570
  332DG      H7 7620   4.130   1.783   1.116 -0.7647 -0.3775 -0.8885
  332DG      H8 7621   4.135   1.691   0.964  0.5195  0.6259 -0.1088
  332DG      O9 7622   4.501   1.204   0.886  0.5900  0.0869 -0.0474
  332DG     O10 7623   4.254   1.620   1.110 -0.2696  0.3503 -0.3436
  332DG     C11 7624   4.427   1.200   1.003 -0.3697  0.1637 -0.4341
  332DG     C12 7625   4.261   1.566   1.243  0.3747 -0.4771  0.5977
  332DG     H13 7626   4.470   1.140   1.083 -0.8349  0.7030  0.2426
  332DG     H14 7627   4.325   1.168   0.981 -0.4660 -0.6611  1.0708
  332DG     H15 7628   4.173   1.510   1.275 -0.6193  0.2721 -0.7364
  332DG     H16 7629   4.269   1.651   1.311  0.2962 -0.4197  0.5355
  332DG     C17 7630   4.418   1.349   1.048 -0.3621  0.9248 -0.1269
  332DG     C18 7631   4.376   1.467   1.261  0.0436 -0.2962 -0.6009
  332DG     O19 7632   4.362   1.349   1.183  0.1778 -0.4733  0.0613
  332DG     H20 7633   4.376   1.415   0.972 -1.0232 -1.3324 -1.8321
  332DG     H21 7634   4.525   1.369   1.056 -0.1001 -0.2358 -0.5180
  332DG     H22 7635   4.475   1.505   1.235 -0.1514 -1.2397 -2.9639
  332DG     H23 7636   4.378   1.449   1.369  0.6733  2.2601 -0.1042
  333DG      C1 7637   2.781   0.320   1.561  0.3019  0.1215 -0.1928
  333DG      C2 7638   3.039  -0.224   1.983  0.7487  0.5696 -0.0501
  333DG      H3 7639   2.713   0.258   1.502 -0.1877  0.3331  0.1499
  333DG      H4 7640   2.801   0.408   1.499  1.2286  0.6075  0.7607
  333DG      H5 7641   2.730   0.367   1.645  1.4186  1.7911 -0.3928
  333DG      H6 7642   2.934  -0.196   1.996  0.1337 -0.7954 -1.6791
  333DG      H7 7643   3.046  -0.314   1.923 -0.0691  1.1243 -1.0135
  333DG      H8 7644   3.097  -0.254   2.071 -0.1012 -0.4975  0.1748
  333DG      O9 7645   2.897   0.244   1.607 -0.7841  0.3424 -0.3402
  333DG     O10 7646   3.098  -0.127   1.899 -0.8102 -0.0906 -0.0054
  333DG     C11 7647   2.995   0.328   1.661 -0.2041 -0.1400 -0.1372
  333DG     C12 7648   3.136  -0.015   1.973 -0.0216 -0.6359  0.2432
  333DG     H13 7649   2.952   0.390   1.739 -2.4996 -0.9896 -0.6441
  333DG     H14 7650   3.014   0.407   1.588 -2.1530 -0.1886 -0.7564
  333DG     H15 7651   3.217  -0.040   2.042  2.1052  4.2908 -0.0432
  333DG     H16 7652   3.055   0.018   2.037  1.9686  1.8029  1.7008
  333DG     C17 7653   3.125   0.262   1.718 -0.0427 -0.1498 -0.1423
  333DG     C18 7654   3.183   0.096   1.883  0.3965 -0.4536  0.7048
  333DG     O19 7655   3.089   0.145   1.784  0.7468 -0.3940 -0.1824
  333DG     H20 7656   3.167   0.325   1.795 -2.1174 -0.4945  1.3563
  333DG     H21 7657   3.200   0.256   1.639  0.1404  2.8477 -0.2970
  333DG     H22 7658   3.226   0.177   1.942  1.1689  0.9114 -1.6404
  333DG     H23 7659   3.273   0.066   1.829  0.6994 -0.1367  1.0302
  334DG      C1 7660   3.974   4.024   0.297  1.0918 -0.3618  0.8289
  334DG      C2 7661   4.474   4.089  -0.117  0.2698  0.5398  0.6971
  334DG      H3 7662   3.868   4.011   0.321  0.9780 -0.2859  0.3751
  334DG      H4 7663   4.019   4.095   0.366  0.4127  0.2298  0.6736
  334DG      H5 7664   4.021   3.926   0.304  0.7800 -0.5321  0.5571
  334DG      H6 7665   4.503   3.987  -0.089  1.1223  0.8711  1.0771
  334DG      H7 7666   4.492   4.097  -0.224  0.5275  0.2684  0.7177
  334DG      H8 7667   4.551   4.159  -0.083  0.2099  1.5080 -1.0728
  334DG      O9 7668   4.003   4.069   0.164  0.3361 -0.2170 -0.4453
  334DG     O10 7669   4.345   4.134  -0.086  0.1320 -0.6995 -0.3640
  334DG     C11 7670   3.952   4.201   0.148  0.3191 -0.0371 -0.1055
  334DG     C12 7671   4.308   4.264  -0.137  0.0282  0.0286 -0.4803
  334DG     H13 7672   4.004   4.268   0.216  0.7557 -0.7891  0.3161
  334DG     H14 7673   3.845   4.207   0.169  0.4097 -0.0490  0.3676
  334DG     H15 7674   4.343   4.281  -0.238 -1.5270 -1.6045 -1.3437
  334DG     H16 7675   4.346   4.339  -0.067 -1.2867  3.4487 -3.1165
  334DG     C17 7676   3.973   4.238   0.007  0.0860  0.5550 -0.1923
  334DG     C18 7677   4.156   4.273  -0.136  0.2945 -0.1035 -0.8088
  334DG     O19 7678   4.114   4.234  -0.009  0.3682 -0.5307  0.2575
  334DG     H20 7679   3.933   4.339  -0.008 -0.9703  0.0743 -0.7313
  334DG     H21 7680   3.930   4.170  -0.066  2.9825 -1.7090  0.0333
  334DG     H22 7681   4.116   4.373  -0.152 -1.6197 -0.4582  1.2479
  334DG     H23 7682   4.120   4.199  -0.207 -1.8408  0.0586  0.0393
  335DG      C1 7683   1.032   2.219   5.448  0.4730 -0.3712  0.0740
  335DG      C2 7684   1.272   2.833   5.766 -0.1800  0.1078 -0.6005
  335DG      H3 7685   0.926   2.234   5.473 -0.0476  0.5309 -2.3959
  335DG      H4 7686   1.079   2.192   5.543  1.3019 -0.9094 -0.4846
  335DG      H5 7687   1.052   2.144   5.372  0.7845  0.7159 -0.9322
  335DG      H6 7688   1.374   2.833   5.806 -0.5876 -1.4863  0.5189
  335DG      H7 7689   1.245   2.935   5.740 -0.6793  1.0226  2.9733
  335DG      H8 7690   1.196   2.806   5.839  0.1982  0.2762 -0.1380
  335DG      O9 7691   1.089   2.342   5.401 -0.1205  0.2433 -0.2509
  335DG     O10 7692   1.247   2.737   5.655  0.3626 -0.0359 -0.0909
  335DG     C11 7693   1.232   2.333   5.374  0.4828 -0.0427  0.2487
  335DG     C12 7694   1.327   2.773   5.547 -0.4523  0.0802 -0.1696
  335DG     H13 7695   1.241   2.254   5.298  1.7769  0.6369 -0.3298
  335DG     H14 7696   1.267   2.296   5.470 -1.1429 -0.3751  0.7420
  335DG     H15 7697   1.424   2.745   5.588 -0.6438 -1.2012 -0.5491
  335DG     H16 7698   1.322   2.878   5.516 -1.2591 -0.4738 -2.0837
  335DG     C17 7699   1.294   2.469   5.341  0.4411  0.0972  1.1119
  335DG     C18 7700   1.292   2.692   5.419 -0.1296  0.1978  0.0020
  335DG     O19 7701   1.277   2.553   5.452  0.5396  0.1351  0.3869
  335DG     H20 7702   1.243   2.506   5.252  1.8180 -3.0271 -1.2045
  335DG     H21 7703   1.399   2.456   5.314  0.4352 -0.2552  1.2446
  335DG     H22 7704   1.197   2.724   5.377 -1.2487 -0.7002  1.7183
  335DG     H23 7705   1.371   2.700   5.345  0.9049  1.4235  1.1743
  336DG      C1 7706   0.947   1.675   5.108  0.6426  0.6069  0.0423
  336DG      C2 7707   0.760   2.033   4.636  1.0326 -0.2517  0.1063
  336DG      H3 7708   1.055   1.682   5.105  0.5865  1.2618 -1.3899
  336DG      H4 7709   0.926   1.595   5.179  0.2045  0.9334  0.2842
  336DG      H5 7710   0.902   1.760   5.159 -0.2456  0.0738  0.1828
  336DG      H6 7711   0.837   2.074   4.570 -0.5115 -0.2791 -1.7766
  336DG      H7 7712   0.663   2.062   4.597  1.2656  2.0093  1.0481
  336DG      H8 7713   0.774   2.099   4.722 -0.7318 -0.2847  0.4479
  336DG      O9 7714   0.893   1.649   4.975 -0.0107 -0.0760 -0.6556
  336DG     O10 7715   0.778   1.893   4.664  0.4158 -0.2124  0.2073
  336DG     C11 7716   0.960   1.537   4.916 -0.3313 -0.7115 -0.1664
  336DG     C12 7717   0.780   1.800   4.561 -0.1987  0.4912  0.0587
  336DG     H13 7718   0.956   1.451   4.982  0.1408  0.4712  1.4470
  336DG     H14 7719   1.063   1.566   4.895 -0.4018 -0.1618  0.2289
  336DG     H15 7720   0.874   1.811   4.508  0.7485 -0.9134  1.3491
  336DG     H16 7721   0.696   1.821   4.495  0.6575 -0.1497 -1.2845
  336DG     C17 7722   0.883   1.521   4.782 -0.9143 -0.0340  0.4966
  336DG     C18 7723   0.775   1.661   4.621  0.2965 -0.4026  0.5654
  336DG     O19 7724   0.878   1.645   4.710  0.1487  0.4820 -0.2753
  336DG     H20 7725   0.781   1.497   4.814 -1.2822  0.2175 -0.4492
  336DG     H21 7726   0.926   1.433   4.734 -0.4778 -0.5460  1.7861
  336DG     H22 7727   0.683   1.641   4.676 -0.0059 -1.8594 -0.4266
  336DG     H23 7728   0.765   1.579   4.550 -0.7130 -1.1343  1.5099
  337DG      C1 7729   1.389   5.005   2.448 -0.4139 -0.1283  0.4199
  337DG      C2 7730   0.889   4.588   2.399  0.4793  0.7091  0.3775
  337DG      H3 7731   1.349   5.017   2.348 -2.2458  1.3833  1.2792
  337DG      H4 7732   1.484   4.952   2.438  0.1581  0.9727 -0.1346
  337DG      H5 7733   1.407   5.107   2.482  0.9059  0.0051 -0.5953
  337DG      H6 7734   0.831   4.496   2.407 -0.9183  1.6109  1.3619
  337DG      H7 7735   0.827   4.671   2.434 -0.1987 -0.4069  1.9156
  337DG      H8 7736   0.904   4.598   2.292 -0.9560  1.3054  0.2032
  337DG      O9 7737   1.301   4.925   2.519  0.1734  0.3349  0.2040
  337DG     O10 7738   1.026   4.569   2.437  0.2910  0.6058  0.1857
  337DG     C11 7739   1.347   4.887   2.647 -0.2314  0.0455 -0.2711
  337DG     C12 7740   1.036   4.541   2.575  0.0872  0.1422  0.7838
  337DG     H13 7741   1.375   4.971   2.712  1.5821  1.3592 -2.5944
  337DG     H14 7742   1.438   4.828   2.645 -2.0590 -3.2694  2.6876
  337DG     H15 7743   1.122   4.475   2.589  0.6250  0.4157 -0.9905
  337DG     H16 7744   0.946   4.498   2.619  1.0631 -2.5524  0.3390
  337DG     C17 7745   1.230   4.815   2.713  0.1097  0.3062 -0.1210
  337DG     C18 7746   1.062   4.666   2.662  0.1242 -0.0300  0.0882
  337DG     O19 7747   1.178   4.728   2.614 -0.3074  0.1204 -0.5489
  337DG     H20 7748   1.155   4.894   2.727 -1.9544 -1.5976  0.1428
  337DG     H21 7749   1.274   4.776   2.804 -0.6248 -1.5103 -0.5080
  337DG     H22 7750   0.984   4.742   2.659 -1.3535 -1.4223  1.2116
  337DG     H23 7751   1.064   4.640   2.768  1.3601  4.2834  1.3201
  338DG      C1 7752   2.194   2.357   4.837  0.3086 -0.2694  0.2619
  338DG      C2 7753   1.544   2.659   4.687  0.4037  0.9409 -0.4693
  338DG      H3 7754   2.255   2.361   4.747  0.8103 -0.8876  0.5631
  338DG      H4 7755   2.149   2.257   4.830 -1.1930  0.4881 -2.7295
  338DG      H5 7756   2.261   2.368   4.922 -2.1878  0.5601  2.2459
  338DG      H6 7757   1.503   2.562   4.660 -2.1032  2.0075 -0.8781
  338DG      H7 7758   1.507   2.659   4.790 -1.7945 -0.2592 -1.1866
  338DG      H8 7759   1.491   2.738   4.632  0.2268  0.1011 -1.5376
  338DG      O9 7760   2.087   2.458   4.835  0.3122 -0.0869  0.2026
  338DG     O10 7761   1.682   2.653   4.669 -0.2187 -0.1465 -0.0898
  338DG     C11 7762   2.139   2.583   4.871  0.0014  0.4326  0.6747
  338DG     C12 7763   1.748   2.775   4.715  0.2868  0.4874  0.3837
  338DG     H13 7764   2.248   2.585   4.873  0.2557  2.0688 -3.6983
  338DG     H14 7765   2.089   2.611   4.963 -2.5929 -1.0488 -0.1723
  338DG     H15 7766   1.755   2.780   4.823  1.5623  0.0363  0.3387
  338DG     H16 7767   1.692   2.858   4.672  1.0678  0.0078 -1.6903
  338DG     C17 7768   2.094   2.670   4.753 -0.1629  0.5877 -0.6715
  338DG     C18 7769   1.895   2.773   4.667 -0.7907  0.2046 -0.2638
  338DG     O19 7770   1.957   2.665   4.738  1.1413  0.1092  0.0548
  338DG     H20 7771   2.149   2.635   4.666 -0.2714  0.2945 -0.6238
  338DG     H21 7772   2.116   2.771   4.784  2.7573  0.2424 -1.3876
  338DG     H22 7773   1.899   2.757   4.559 -0.9435 -0.4780 -0.1768
  338DG     H23 7774   1.944   2.866   4.693 -1.2821  1.1864 -2.6456
  339DG      C1 7775   2.945   1.833   2.484  0.0214  0.1310  0.7356
  339DG      C2 7776   2.787   1.404   2.934  0.1215 -0.0810 -0.0830
  339DG      H3 7777   3.018   1.808   2.406 -0.7277  1.7324 -0.5207
  339DG      H4 7778   2.958   1.940   2.494 -1.0557  0.2736  0.7116
  339DG      H5 7779   2.848   1.793   2.454  1.0976 -3.1354  1.1352
  339DG      H6 7780   2.786   1.368   3.037  0.2781  0.8717  0.2634
  339DG      H7 7781   2.684   1.439   2.930  0.2839  0.4421  0.1741
  339DG      H8 7782   2.787   1.323   2.861 -2.8394 -0.3023  0.0378
  339DG      O9 7783   2.983   1.763   2.603  0.6016 -0.4006 -0.7670
  339DG     O10 7784   2.872   1.515   2.928  0.0387  0.2334 -0.3008
  339DG     C11 7785   3.124   1.769   2.646  0.0282 -0.4024  0.6335
  339DG     C12 7786   3.010   1.485   2.960 -0.1330  0.3446  0.1177
  339DG     H13 7787   3.163   1.864   2.683  4.3151 -1.1378 -1.3606
  339DG     H14 7788   3.176   1.754   2.552 -2.5812  1.1489 -1.1992
  339DG     H15 7789   3.046   1.405   2.896 -0.7552 -0.4540  0.7439
  339DG     H16 7790   3.019   1.425   3.050  0.3972  1.2581  0.6862
  339DG     C17 7791   3.151   1.665   2.757  0.6509  0.1576 -0.3519
  339DG     C18 7792   3.081   1.615   2.984  0.3267 -0.3963 -0.3612
  339DG     O19 7793   3.067   1.702   2.871 -0.0414  0.1631  0.1888
  339DG     H20 7794   3.258   1.657   2.771  0.5392 -2.4886 -0.5107
  339DG     H21 7795   3.120   1.568   2.718 -1.7111  0.6050  0.2178
  339DG     H22 7796   3.040   1.648   3.079  2.3612 -1.0932  0.8247
  339DG     H23 7797   3.187   1.601   3.006  0.9627  1.3265 -2.0037
  340DG      C1 7798   3.686   1.412   2.353 -0.0741  0.0211  0.1443
  340DG      C2 7799   3.301   1.012   2.775 -0.5339  0.0764  0.0299
  340DG      H3 7800   3.676   1.340   2.272  0.4590  0.6108 -0.4561
  340DG      H4 7801   3.779   1.386   2.404  0.8644  3.0252  0.1720
  340DG      H5 7802   3.689   1.518   2.326  0.6729 -0.4671 -1.9107
  340DG      H6 7803   3.295   0.967   2.874  0.5076 -2.5592 -1.0159
  340DG      H7 7804   3.225   0.968   2.710 -1.1553  0.5189  0.4475
  340DG      H8 7805   3.398   0.979   2.738 -0.7991 -0.1612 -0.4649
  340DG      O9 7806   3.596   1.385   2.455 -0.0780 -0.0352  0.4061
  340DG     O10 7807   3.287   1.156   2.771 -0.3284 -0.4176  0.1081
  340DG     C11 7808   3.465   1.444   2.445  0.2264 -0.6139  0.5527
  340DG     C12 7809   3.396   1.231   2.824 -0.4368  0.4819  0.2735
  340DG     H13 7810   3.429   1.418   2.345 -0.3923  0.1240  0.5752
  340DG     H14 7811   3.471   1.552   2.439  0.3270 -0.4950  2.3810
  340DG     H15 7812   3.498   1.204   2.800 -0.3978  2.2650 -1.8914
  340DG     H16 7813   3.383   1.208   2.930  2.1660 -3.3045 -0.0471
  340DG     C17 7814   3.376   1.391   2.564  0.2939 -0.5753  0.4521
  340DG     C18 7815   3.368   1.384   2.803  0.2422 -0.7629 -0.3043
  340DG     O19 7816   3.436   1.438   2.691  0.1992  0.0043  0.4439
  340DG     H20 7817   3.369   1.282   2.552  1.6364 -0.6986  0.7151
  340DG     H21 7818   3.272   1.425   2.566 -0.0370 -1.5088  0.0595
  340DG     H22 7819   3.260   1.401   2.796  0.4751  1.0783  0.0562
  340DG     H23 7820   3.398   1.425   2.900 -1.1145 -2.6485  0.9903
  341DG      C1 7821   0.118   5.302   1.190 -0.3929  0.0673  0.5319
  341DG      C2 7822   0.611   5.480   0.746  0.1739 -0.4216 -0.3328
  341DG      H3 7823   0.195   5.258   1.254 -0.1414  1.9264  1.5656
  341DG      H4 7824   0.043   5.223   1.203  0.7934 -1.1277  0.3959
  341DG      H5 7825   0.085   5.402   1.217  0.3786  0.6336 -0.5558
  341DG      H6 7826   0.694   5.411   0.753  0.1859 -0.3773 -0.0461
  341DG      H7 7827   0.627   5.538   0.655  0.6693  1.3348  0.8362
  341DG      H8 7828   0.606   5.548   0.830  0.1219 -1.0955  0.2154
  341DG      O9 7829   0.163   5.287   1.056  0.4100  0.0331  0.0747
  341DG     O10 7830   0.481   5.426   0.749 -0.0311 -0.3593 -0.0868
  341DG     C11 7831   0.063   5.313   0.955  0.0685 -0.0098 -0.0703
  341DG     C12 7832   0.386   5.512   0.695  0.1434 -0.0072 -0.1792
  341DG     H13 7833   0.026   5.415   0.966  0.7461  0.0874  1.4619
  341DG     H14 7834  -0.020   5.251   0.989  0.0536  1.4150  2.7131
  341DG     H15 7835   0.418   5.567   0.606 -0.4774  1.8841  0.7244
  341DG     H16 7836   0.367   5.587   0.772  3.1776  0.9604 -0.2432
  341DG     C17 7837   0.114   5.285   0.811  0.1430 -0.0189 -0.3953
  341DG     C18 7838   0.253   5.437   0.675  0.3667 -0.5161 -0.4563
  341DG     O19 7839   0.232   5.366   0.793  0.1957 -0.4091  0.0012
  341DG     H20 7840   0.041   5.329   0.743 -0.8340  1.3538  1.4516
  341DG     H21 7841   0.131   5.180   0.785 -0.4668 -0.0424 -0.7239
  341DG     H22 7842   0.177   5.515   0.682 -0.3118 -1.3221  1.9817
  341DG     H23 7843   0.239   5.373   0.588  0.5173  0.8789 -1.5611
  342DG      C1 7844   1.365   3.049   2.167  0.3966  0.3960 -0.1725
  342DG      C2 7845   1.956   2.451   2.118  0.3290  0.0226  0.7157
  342DG      H3 7846   1.434   3.133   2.171 -0.2472  0.8923  1.4348
  342DG      H4 7847   1.325   3.033   2.267  0.4605  0.5080 -0.1282
  342DG      H5 7848   1.275   3.076   2.112  0.7012  0.3174 -0.7130
  342DG      H6 7849   2.011   2.491   2.032  1.4698 -1.9241  0.4847
  342DG      H7 7850   1.987   2.504   2.208 -1.0724 -1.0883  1.8971
  342DG      H8 7851   1.992   2.349   2.133 -1.0562 -0.1074  3.7218
  342DG      O9 7852   1.426   2.931   2.118  0.0850  0.2894  0.2139
  342DG     O10 7853   1.817   2.444   2.102  0.3414  0.4384  0.4765
  342DG     C11 7854   1.342   2.813   2.118  0.1985  0.1095  0.3646
  342DG     C12 7855   1.759   2.576   2.121 -0.0377  0.5275 -1.3881
  342DG     H13 7856   1.247   2.822   2.066  0.3573  1.6584  0.2975
  342DG     H14 7857   1.327   2.792   2.224  1.6358  1.6376  0.9332
  342DG     H15 7858   1.799   2.650   2.052 -0.7598  2.6411  0.3329
  342DG     H16 7859   1.774   2.602   2.226 -0.7623  1.5708 -1.5235
  342DG     C17 7860   1.425   2.695   2.054  0.2544 -0.4196 -0.0127
  342DG     C18 7861   1.610   2.561   2.102 -0.0938 -0.5445  0.6070
  342DG     O19 7862   1.548   2.683   2.123 -0.3010 -0.5389 -0.1271
  342DG     H20 7863   1.442   2.718   1.949 -1.6761  0.3053 -0.2113
  342DG     H21 7864   1.368   2.602   2.050 -0.2201 -0.2149  1.2879
  342DG     H22 7865   1.594   2.540   1.997  2.7478  0.6207 -0.1633
  342DG     H23 7866   1.559   2.492   2.169 -0.5139 -1.4286 -0.6139
  343DG      C1 7867   3.136   1.267   1.079  0.0152  0.6257 -0.1424
  343DG      C2 7868   3.533   1.276   1.597 -1.3140 -0.2718 -0.4968
  343DG      H3 7869   3.187   1.172   1.094 -2.3517 -1.0474 -1.9091
  343DG      H4 7870   3.184   1.286   0.983  0.6007  2.1130  0.4202
  343DG      H5 7871   3.031   1.241   1.075 -0.1497  0.8220  1.8688
  343DG      H6 7872   3.530   1.289   1.489  0.0516  2.0999 -0.3244
  343DG      H7 7873   3.595   1.355   1.640 -0.0588 -0.6435 -1.5207
  343DG      H8 7874   3.578   1.177   1.606  0.7974  0.7144  0.4771
  343DG      O9 7875   3.170   1.350   1.195 -0.1327  0.0135 -0.1524
  343DG     O10 7876   3.400   1.274   1.655 -0.7633  0.7091 -0.2517
  343DG     C11 7877   3.102   1.300   1.309 -0.6235  0.9598  1.2889
  343DG     C12 7878   3.340   1.406   1.682 -0.0159 -0.2434  0.0907
  343DG     H13 7879   3.143   1.200   1.327 -1.9785 -0.0465 -0.8453
  343DG     H14 7880   2.997   1.276   1.296 -0.1772 -1.0275  0.9069
  343DG     H15 7881   3.400   1.456   1.758 -1.5508  0.0400  1.1620
  343DG     H16 7882   3.244   1.375   1.724 -0.8556  3.1653  1.0101
  343DG     C17 7883   3.132   1.379   1.439  0.4909  0.5906  0.9460
  343DG     C18 7884   3.316   1.478   1.555  0.0793  0.5013 -0.2726
  343DG     O19 7885   3.272   1.400   1.444  0.2951 -0.1573  0.2678
  343DG     H20 7886   3.098   1.315   1.520  0.1503 -0.6615 -0.1409
  343DG     H21 7887   3.076   1.472   1.447  0.5609  0.7531 -0.2035
  343DG     H22 7888   3.250   1.562   1.578 -0.2810 -0.3977  2.1624
  343DG     H23 7889   3.398   1.535   1.510 -0.1333  0.7544 -0.3476
  344DG      C1 7890   0.602   0.197   1.462 -1.0381  0.0908 -0.1401
  344DG      C2 7891   1.002  -0.113   0.800  0.6035 -0.0601  0.8369
  344DG      H3 7892   0.629   0.292   1.510  0.3025 -0.4233  0.1664
  344DG      H4 7893   0.650   0.115   1.515 -0.0777  0.2451 -0.7496
  344DG      H5 7894   0.496   0.174   1.476 -0.9967 -1.2632 -1.7203
  344DG      H6 7895   0.964  -0.210   0.832  0.5746  0.0216  1.0573
  344DG      H7 7896   0.969  -0.093   0.698 -0.4064 -1.6474  0.8228
  344DG      H8 7897   1.110  -0.122   0.810  0.9049  1.4203 -0.6752
  344DG      O9 7898   0.605   0.198   1.323  0.6655  0.3019 -0.3907
  344DG     O10 7899   0.938  -0.027   0.884  0.6429 -0.6595 -0.0355
  344DG     C11 7900   0.733   0.226   1.264  0.2943  0.5690 -0.7461
  344DG     C12 7901   1.006   0.100   0.895  0.8642  1.0357 -0.6554
  344DG     H13 7902   0.801   0.153   1.309  1.3724  1.8572 -0.2206
  344DG     H14 7903   0.771   0.323   1.297 -0.2723  0.3663  0.5498
  344DG     H15 7904   1.035   0.137   0.797 -1.4196  3.4775 -0.5428
  344DG     H16 7905   1.094   0.112   0.958  0.6449  1.2676 -0.3865
  344DG     C17 7906   0.735   0.218   1.108  0.1519 -0.0028 -1.2124
  344DG     C18 7907   0.889   0.200   0.937 -0.4492  0.3927 -0.0535
  344DG     O19 7908   0.867   0.172   1.077  0.7587  0.3535  0.1972
  344DG     H20 7909   0.722   0.321   1.073 -0.2884 -0.3243 -2.0250
  344DG     H21 7910   0.658   0.151   1.071  2.2572 -2.4945 -1.3358
  344DG     H22 7911   0.919   0.304   0.926  2.7901 -0.6180 -2.6718
  344DG     H23 7912   0.796   0.184   0.883  0.8098 -1.4269 -1.8367
  345DG      C1 7913   5.196   4.649   1.577 -0.2136 -0.7537  0.1787
  345DG      C2 7914   4.461   4.732   1.497  0.3731 -0.3992  0.0991
  345DG      H3 7915   5.192   4.716   1.491  0.7084 -0.4920  0.3229
  345DG      H4 7916   5.225   4.547   1.552 -0.7495 -1.1897  1.2617
  345DG      H5 7917   5.280   4.689   1.634  0.2699 -0.1524 -0.9342
  345DG      H6 7918   4.459   4.668   1.409  0.8027 -1.2890  0.7281
  345DG      H7 7919   4.391   4.688   1.568  0.1028  0.1275  0.1619
  345DG      H8 7920   4.425   4.831   1.470 -1.1777 -0.3575  2.1219
  345DG      O9 7921   5.075   4.636   1.644 -0.0517  0.7244 -0.6874
  345DG     O10 7922   4.585   4.735   1.564 -0.4355 -0.1884  0.0255
  345DG     C11 7923   5.064   4.754   1.725 -0.1494 -0.8882  0.7372
  345DG     C12 7924   4.588   4.823   1.675 -0.3703  0.1212  0.2307
  345DG     H13 7925   5.067   4.839   1.658 -3.3582  0.2685  1.8700
  345DG     H14 7926   5.145   4.759   1.798  0.9639  0.1517 -0.5282
  345DG     H15 7927   4.497   4.812   1.735  0.4244 -2.3950  1.0758
  345DG     H16 7928   4.603   4.931   1.665 -1.9624  0.4208  0.6372
  345DG     C17 7929   4.930   4.763   1.797  0.2194 -0.4654  0.5897
  345DG     C18 7930   4.703   4.766   1.761 -0.5013 -0.6537  0.3959
  345DG     O19 7931   4.834   4.772   1.695  0.0385 -0.0358 -0.0196
  345DG     H20 7932   4.937   4.852   1.859 -1.7972  0.6909 -0.7374
  345DG     H21 7933   4.924   4.674   1.860  0.5235 -0.1501  1.0684
  345DG     H22 7934   4.705   4.822   1.854  1.3214 -0.0803  0.0559
  345DG     H23 7935   4.678   4.662   1.779 -0.3032 -1.4095 -2.9288
  346DG      C1 7936   5.311   3.679   3.788  0.8370  0.2108 -0.1493
  346DG      C2 7937   4.580   3.367   3.881  0.2549 -0.2891  0.3478
  346DG      H3 7938   5.343   3.747   3.867  0.9363  1.1209 -0.9490
  346DG      H4 7939   5.283   3.753   3.713 -1.0852  0.5993  0.8870
  346DG      H5 7940   5.388   3.616   3.743  2.0804  2.2960 -1.1168
  346DG      H6 7941   4.550   3.384   3.984 -0.9778 -0.2487 -0.0053
  346DG      H7 7942   4.564   3.460   3.827  0.4376 -0.7615 -0.5439
  346DG      H8 7943   4.512   3.289   3.848 -0.6373  0.6117  0.0083
  346DG      O9 7944   5.182   3.615   3.821 -0.5965  0.2042  0.1008
  346DG     O10 7945   4.716   3.338   3.873 -0.0295 -0.6981  0.4261
  346DG     C11 7946   5.191   3.505   3.910  0.1815  0.5653  0.3316
  346DG     C12 7947   4.769   3.333   3.744  0.3890  0.4962  0.3528
  346DG     H13 7948   5.174   3.526   4.015  0.7020  1.9688  0.1572
  346DG     H14 7949   5.291   3.462   3.910  0.0551  0.2514  1.2665
  346DG     H15 7950   4.761   3.427   3.689  1.0097  0.8985  0.9410
  346DG     H16 7951   4.743   3.243   3.688  0.2932 -0.5952  2.0914
  346DG     C17 7952   5.111   3.383   3.855 -0.3230 -0.0748 -0.5067
  346DG     C18 7953   4.912   3.304   3.770  0.2737 -0.4110 -0.1287
  346DG     O19 7954   4.973   3.408   3.840  0.3395 -0.3768  0.3999
  346DG     H20 7955   5.121   3.306   3.931  0.6168  2.1469  1.7264
  346DG     H21 7956   5.155   3.331   3.770 -1.0778  0.3465 -1.1733
  346DG     H22 7957   4.933   3.213   3.826 -0.4238 -2.8481 -3.5248
  346DG     H23 7958   4.972   3.301   3.679  1.7987 -4.0491  0.8185
  347DG      C1 7959   5.032   5.233   0.393 -0.3168 -0.3361  0.2159
  347DG      C2 7960   5.368   4.932  -0.341  0.7741 -0.1113  0.3401
  347DG      H3 7961   4.964   5.186   0.465 -3.0208  3.5961  0.5511
  347DG      H4 7962   4.982   5.322   0.355  1.3147  1.1160  1.3173
  347DG      H5 7963   5.116   5.271   0.451  0.7482  0.4268 -1.7414
  347DG      H6 7964   5.353   5.034  -0.377 -1.3595 -0.9106 -1.3062
  347DG      H7 7965   5.455   4.933  -0.277  0.7562 -1.7594  0.4234
  347DG      H8 7966   5.385   4.875  -0.432  0.8181 -0.1995  0.4041
  347DG      O9 7967   5.077   5.161   0.285  0.0419  0.0887  0.1181
  347DG     O10 7968   5.245   4.889  -0.280 -0.1359 -0.3232  0.2032
  347DG     C11 7969   5.153   5.048   0.312 -0.3156 -0.2373  0.3933
  347DG     C12 7970   5.209   4.975  -0.171 -0.3517  0.3254 -0.7776
  347DG     H13 7971   5.075   4.976   0.337 -1.2930  0.9709  0.9334
  347DG     H14 7972   5.220   5.053   0.398  1.5521  0.6136 -1.0398
  347DG     H15 7973   5.103   4.952  -0.157 -0.3310  1.1013  0.8199
  347DG     H16 7974   5.202   5.081  -0.196 -2.4139  0.4270  0.0308
  347DG     C17 7975   5.242   5.010   0.195 -0.1486 -0.4804 -0.0597
  347DG     C18 7976   5.279   4.956  -0.031 -0.1083  0.3876 -0.2107
  347DG     O19 7977   5.183   5.000   0.069  0.5864 -0.3992  0.3352
  347DG     H20 7978   5.281   4.911   0.219 -0.1144 -0.4787 -0.1065
  347DG     H21 7979   5.321   5.084   0.184 -2.0330  1.8156  0.8770
  347DG     H22 7980   5.301   4.850  -0.019  2.2375  0.8043 -0.3358
  347DG     H23 7981   5.376   5.005  -0.029 -0.6495  1.4998 -0.4854
  348DG      C1 7982   2.864   3.273   0.183 -0.5135  0.1005  0.4213
  348DG      C2 7983   2.380   3.869  -0.130 -0.0198 -0.0582  0.2271
  348DG      H3 7984   2.941   3.311   0.249  0.0324 -0.1093 -0.0834
  348DG      H4 7985   2.900   3.293   0.082  1.6902 -0.5003  1.0396
  348DG      H5 7986   2.865   3.166   0.202  2.5000 -0.1068 -0.4599
  348DG      H6 7987   2.379   3.860  -0.239  0.4158 -0.8570  0.2766
  348DG      H7 7988   2.281   3.838  -0.095 -0.5227  1.8957  0.6496
  348DG      H8 7989   2.391   3.970  -0.093 -0.6967 -1.1454  3.7355
  348DG      O9 7990   2.731   3.319   0.204  0.1088 -0.1440 -0.5650
  348DG     O10 7991   2.469   3.782  -0.062 -0.1679  0.0858  0.2340
  348DG     C11 7992   2.707   3.448   0.149 -0.4581  0.8459 -0.0100
  348DG     C12 7993   2.596   3.788  -0.119  0.5991 -0.1203  0.1819
  348DG     H13 7994   2.779   3.522   0.184 -0.2326  0.2084  0.9420
  348DG     H14 7995   2.614   3.475   0.200 -0.2119 -2.3216  2.5024
  348DG     H15 7996   2.637   3.889  -0.112 -0.3141  0.3120 -0.4487
  348DG     H16 7997   2.588   3.772  -0.227 -2.1110  1.1207  0.1198
  348DG     C17 7998   2.683   3.443  -0.001 -0.1086 -0.0368  0.3989
  348DG     C18 7999   2.678   3.686  -0.044 -0.2670  0.1219  0.3991
  348DG     O19 8000   2.621   3.558  -0.052 -0.1194 -0.1450 -0.1028
  348DG     H20 8001   2.614   3.365  -0.033 -1.6556  1.5480 -0.3080
  348DG     H21 8002   2.778   3.422  -0.049  1.4945  1.4255  2.7152
  348DG     H22 8003   2.777   3.677  -0.088 -0.7600 -1.7874 -0.4234
  348DG     H23 8004   2.674   3.715   0.061 -1.7735 -0.9403  0.6684
  349DG      C1 8005   4.306   4.382   1.398 -0.6480  0.4328  0.2897
  349DG      C2 8006   3.908   3.764   1.824  0.6486  0.0814 -0.2789
  349DG      H3 8007   4.316   4.427   1.299 -2.0551  2.3248  0.9346
  349DG      H4 8008   4.373   4.297   1.383  0.5849  1.6728 -1.7675
  349DG      H5 8009   4.356   4.456   1.460 -0.5652  1.4615 -0.9461
  349DG      H6 8010   3.995   3.786   1.885  0.6277 -1.0765  0.1906
  349DG      H7 8011   3.818   3.769   1.885  0.4473  0.5472 -0.6121
  349DG      H8 8012   3.926   3.669   1.773 -0.8636 -0.1751 -0.3980
  349DG      O9 8013   4.168   4.342   1.411 -0.2890  0.1350 -0.0483
  349DG     O10 8014   3.899   3.871   1.735  0.2208 -0.6837  0.7339
  349DG     C11 8015   4.156   4.243   1.510  0.0850 -0.4027 -0.0155
  349DG     C12 8016   3.880   3.992   1.811 -0.3944  0.3382 -0.2042
  349DG     H13 8017   4.205   4.284   1.598 -1.4444  0.0171  0.6813
  349DG     H14 8018   4.199   4.147   1.481 -1.3099 -0.2279 -2.9958
  349DG     H15 8019   3.957   3.998   1.888 -1.0817 -2.8595  0.8926
  349DG     H16 8020   3.788   3.985   1.869  1.2086  1.0205  2.6079
  349DG     C17 8021   4.013   4.215   1.539  0.6398 -0.3951  0.1917
  349DG     C18 8022   3.892   4.108   1.715 -0.2577 -0.7004  0.2701
  349DG     O19 8023   4.012   4.113   1.636 -0.6507 -0.4011  0.1527
  349DG     H20 8024   3.963   4.177   1.450 -2.0310 -1.2966  1.9562
  349DG     H21 8025   3.975   4.309   1.579 -0.8829 -0.7240 -0.3897
  349DG     H22 8026   3.811   4.118   1.643  0.4146 -2.3252 -0.7588
  349DG     H23 8027   3.889   4.195   1.780 -1.2698 -0.8376  0.4209
  350DG      C1 8028   5.394   2.440   2.899  0.5009 -0.0867  0.1147
  350DG      C2 8029   5.494   2.016   2.406  0.5064 -0.4847 -0.5068
  350DG      H3 8030   5.420   2.528   2.840 -0.7451 -0.7660 -1.5621
  350DG      H4 8031   5.376   2.467   3.003  1.0750 -1.7996  0.6940
  350DG      H5 8032   5.293   2.414   2.866  0.1086 -0.7209  1.7367
  350DG      H6 8033   5.395   1.971   2.414  1.6285 -2.9224  0.6300
  350DG      H7 8034   5.481   2.111   2.354 -0.4126 -0.0492  0.4799
  350DG      H8 8035   5.564   1.950   2.356 -0.9571 -3.2081  0.8447
  350DG      O9 8036   5.482   2.332   2.889  0.4411 -0.2424  0.2063
  350DG     O10 8037   5.540   2.050   2.537  0.6112 -0.9733  0.3084
  350DG     C11 8038   5.450   2.219   2.979  0.2188 -0.3185  0.4623
  350DG     C12 8039   5.538   1.937   2.620 -0.3202  0.3964 -0.2986
  350DG     H13 8040   5.345   2.190   2.984  0.6213 -1.6200  2.6043
  350DG     H14 8041   5.465   2.255   3.081 -2.4941  0.4881  0.6553
  350DG     H15 8042   5.599   1.854   2.583  1.3442  1.0411  0.8688
  350DG     H16 8043   5.439   1.894   2.634 -0.0593 -0.4434 -0.8847
  350DG     C17 8044   5.539   2.098   2.954 -0.0006  0.2810 -0.4596
  350DG     C18 8045   5.597   1.969   2.761 -0.3306 -0.2836 -0.1319
  350DG     O19 8046   5.516   2.071   2.817 -0.5884 -0.4294  0.1954
  350DG     H20 8047   5.519   2.013   3.019  0.1753  0.7439  0.2151
  350DG     H21 8048   5.647   2.114   2.959  0.5646 -2.5309 -1.4446
  350DG     H22 8049   5.597   1.879   2.823  2.0164  0.6691  1.4069
  350DG     H23 8050   5.702   1.999   2.763 -0.6661  0.9169 -0.1814
  351DG      C1 8051   3.494   1.901   3.860 -0.4986  0.0451 -0.0512
  351DG      C2 8052   3.190   2.004   3.245 -0.2550 -0.0458  0.7108
  351DG      H3 8053   3.548   1.942   3.946  1.3607  0.3242 -1.2933
  351DG      H4 8054   3.533   1.813   3.809 -1.8337 -0.8292  0.3659
  351DG      H5 8055   3.395   1.869   3.895 -0.0669 -1.4206 -0.1045
  351DG      H6 8056   3.163   2.076   3.167 -2.1558 -0.9542  0.4700
  351DG      H7 8057   3.236   1.918   3.197 -1.0220  1.2839 -2.7435
  351DG      H8 8058   3.098   1.971   3.293 -1.2154 -0.2864 -1.1704
  351DG      O9 8059   3.470   2.011   3.774  0.4551  0.4072  0.0980
  351DG     O10 8060   3.272   2.071   3.342  0.1703  0.0647 -0.0141
  351DG     C11 8061   3.584   2.065   3.722  0.0241 -0.3314  0.2443
  351DG     C12 8062   3.376   2.150   3.297  0.3033 -0.1614  0.1283
  351DG     H13 8063   3.649   1.996   3.667  3.5504  2.3391  0.6938
  351DG     H14 8064   3.642   2.098   3.808  1.5853 -0.1066 -0.8332
  351DG     H15 8065   3.333   2.209   3.216 -3.6239 -1.4937  1.0391
  351DG     H16 8066   3.451   2.089   3.246  0.6753  2.3187 -2.5774
  351DG     C17 8067   3.547   2.177   3.622 -0.0212  0.0962  0.3370
  351DG     C18 8068   3.437   2.222   3.415 -0.4250 -0.2158  0.8535
  351DG     O19 8069   3.477   2.119   3.510 -0.7741 -0.1267  0.4353
  351DG     H20 8070   3.635   2.237   3.598  0.3393  0.2721  1.9848
  351DG     H21 8071   3.480   2.242   3.678  0.9028 -1.2086  3.1109
  351DG     H22 8072   3.526   2.277   3.385 -1.1045  1.1076  1.1901
  351DG     H23 8073   3.358   2.289   3.448 -1.8084 -0.1156 -2.3151
  352DG      C1 8074   3.179   4.767   2.116 -0.1160 -0.8647 -0.1923
  352DG      C2 8075   3.612   4.702   2.587 -0.5428 -0.0167  0.1692
  352DG      H3 8076   3.096   4.730   2.055 -1.3515  1.0638  0.2233
  352DG      H4 8077   3.251   4.807   2.045 -0.9614  0.7791 -0.1616
  352DG      H5 8078   3.149   4.862   2.160 -1.1290 -0.6041 -1.3758
  352DG      H6 8079   3.604   4.656   2.685 -1.8317 -0.0005  0.0914
  352DG      H7 8080   3.711   4.695   2.542 -1.1877 -0.7095 -1.2020
  352DG      H8 8081   3.583   4.807   2.598  0.5597  0.2016  1.2164
  352DG      O9 8082   3.234   4.670   2.194 -0.3613 -0.0634  0.3528
  352DG     O10 8083   3.524   4.626   2.512 -0.8530  0.7124  0.0096
  352DG     C11 8084   3.244   4.545   2.132 -0.5307  0.1678  0.0002
  352DG     C12 8085   3.557   4.491   2.483  0.0364 -0.3481 -0.1899
  352DG     H13 8086   3.308   4.551   2.044  0.6953  0.8957  0.9131
  352DG     H14 8087   3.148   4.509   2.094 -0.5944 -2.2413  2.1893
  352DG     H15 8088   3.595   4.440   2.572 -0.6308 -1.4360 -0.4955
  352DG     H16 8089   3.642   4.501   2.415  0.2096  0.4548  0.1447
  352DG     C17 8090   3.290   4.437   2.235  0.5028 -0.3641 -0.6674
  352DG     C18 8091   3.448   4.412   2.415  0.1783 -0.0978  0.7473
  352DG     O19 8092   3.395   4.490   2.305 -0.4461 -0.2692  0.0991
  352DG     H20 8093   3.330   4.350   2.182  0.7085 -0.3088 -0.6059
  352DG     H21 8094   3.207   4.418   2.303  1.5571  1.0217  1.1073
  352DG     H22 8095   3.472   4.317   2.367 -1.5712 -0.5801  0.7529
  352DG     H23 8096   3.370   4.387   2.487  0.2859 -2.4321  0.1186
  353DG      C1 8097   3.077   4.016   4.746 -0.0825 -0.7973 -1.0470
  353DG      C2 8098   3.824   3.551   4.655  0.1910  0.1172 -0.5432
  353DG      H3 8099   3.076   4.032   4.638 -1.0302  0.7488 -0.8500
  353DG      H4 8100   3.071   4.122   4.770 -1.9701 -0.9341 -0.7597
  353DG      H5 8101   2.978   3.985   4.778 -0.4368  1.3976  0.1921
  353DG      H6 8102   3.745   3.478   4.642 -0.5564  0.2246  2.6927
  353DG      H7 8103   3.851   3.591   4.557 -1.7256  1.3632 -0.6082
  353DG      H8 8104   3.912   3.510   4.706 -1.2830 -0.7357  1.4171
  353DG      O9 8105   3.193   3.961   4.804  0.0422 -0.0091  0.7338
  353DG     O10 8106   3.760   3.646   4.737 -0.3736 -0.5296  0.3120
  353DG     C11 8107   3.306   4.043   4.784 -0.0620  0.3083 -0.4569
  353DG     C12 8108   3.655   3.723   4.692 -0.1474 -0.1895  0.4221
  353DG     H13 8109   3.299   4.127   4.854 -1.4242 -1.7875  2.1122
  353DG     H14 8110   3.315   4.084   4.684 -0.1532 -1.1222 -1.0734
  353DG     H15 8111   3.590   3.667   4.625  0.2900  0.6068 -0.7041
  353DG     H16 8112   3.700   3.802   4.633 -2.0453  0.0549 -0.8092
  353DG     C17 8113   3.436   3.977   4.837 -0.1894 -0.1867  0.3116
  353DG     C18 8114   3.576   3.789   4.807  0.1451 -0.0338  0.3912
  353DG     O19 8115   3.477   3.872   4.755 -0.3606 -1.1052  0.5837
  353DG     H20 8116   3.417   3.942   4.939  1.5839  1.7009  1.3724
  353DG     H21 8117   3.519   4.047   4.849 -1.0341  0.5185  2.4537
  353DG     H22 8118   3.534   3.715   4.874 -1.4056 -0.6813 -1.2176
  353DG     H23 8119   3.649   3.838   4.871  0.5899 -0.7108  0.4230
  354DG      C1 8120   1.864   0.110   2.099  0.7185  0.8358 -0.1843
  354DG      C2 8121   1.505   0.367   2.577  0.5313 -0.3123  0.2382
  354DG      H3 8122   1.768   0.128   2.049  1.5394  0.9578 -1.7727
  354DG      H4 8123   1.927   0.039   2.045  0.2398  0.2697 -0.0152
  354DG      H5 8124   1.904   0.210   2.114  0.3029  1.3068 -1.9839
  354DG      H6 8125   1.542   0.465   2.606 -1.8025  0.3350  1.2216
  354DG      H7 8126   1.442   0.368   2.488 -1.8013 -3.0937  1.6977
  354DG      H8 8127   1.442   0.342   2.663  0.1828 -0.5462 -0.0814
  354DG      O9 8128   1.824   0.065   2.228  0.8047 -0.5655 -0.0783
  354DG     O10 8129   1.605   0.262   2.552 -0.5769 -0.0482 -0.4015
  354DG     C11 8130   1.933   0.022   2.305 -0.2808  0.1571  1.0261
  354DG     C12 8131   1.689   0.238   2.664  1.0390  0.3286  0.5930
  354DG     H13 8132   2.018   0.090   2.297 -0.8894  0.7681 -0.5800
  354DG     H14 8133   1.957  -0.077   2.268 -2.3821 -0.4093  1.0849
  354DG     H15 8134   1.635   0.217   2.756 -1.2635 -1.6938 -1.0685
  354DG     H16 8135   1.758   0.319   2.684  0.8780  0.5285  0.3467
  354DG     C17 8136   1.899   0.014   2.454  0.1400  0.2023  0.0015
  354DG     C18 8137   1.760   0.109   2.616 -0.1773 -0.0667  0.5930
  354DG     O19 8138   1.814   0.127   2.480  0.3317  0.3547 -0.1009
  354DG     H20 8139   1.987   0.030   2.515  0.3229 -0.6302 -0.0340
  354DG     H21 8140   1.857  -0.085   2.475  0.3701 -0.1776 -1.1999
  354DG     H22 8141   1.840   0.098   2.689 -1.7156 -1.1042  2.2267
  354DG     H23 8142   1.692   0.024   2.616  1.8121 -1.7811 -1.6375
  355DG      C1 8143   4.450   0.015   3.466 -0.1010  0.5033  0.6652
  355DG      C2 8144   5.139  -0.145   3.145 -0.2355  0.4910  0.2549
  355DG      H3 8145   4.447  -0.067   3.537  0.3233  0.9063  1.1588
  355DG      H4 8146   4.347   0.034   3.439  0.5254  0.6109 -1.8961
  355DG      H5 8147   4.493   0.109   3.501  1.1552 -0.3987  1.6139
  355DG      H6 8148   5.161  -0.248   3.174 -0.7214  0.2087 -0.3478
  355DG      H7 8149   5.226  -0.121   3.084  1.2908 -1.4478  1.5278
  355DG      H8 8150   5.125  -0.087   3.236 -1.7494  1.4507 -0.5516
  355DG      O9 8151   4.525  -0.020   3.346  0.0272  0.4890  0.1325
  355DG     O10 8152   5.008  -0.147   3.082 -0.1976 -0.6980 -0.1718
  355DG     C11 8153   4.654  -0.077   3.369 -0.1028  0.7327 -0.7250
  355DG     C12 8154   4.971  -0.017   3.022 -0.3210  1.0739  0.3535
  355DG     H13 8155   4.643  -0.170   3.423  0.2593  1.4058  0.5424
  355DG     H14 8156   4.717  -0.009   3.427 -0.3740  1.1258 -0.8877
  355DG     H15 8157   4.977  -0.021   2.913 -1.7953  0.4995  0.2734
  355DG     H16 8158   5.037   0.059   3.062  0.6234 -0.0625  1.0198
  355DG     C17 8159   4.727  -0.111   3.237  0.2511 -0.7207 -0.2080
  355DG     C18 8160   4.820   0.004   3.046  0.2557  0.0881  0.0196
  355DG     O19 8161   4.771   0.015   3.180 -0.1374  0.3828  0.1385
  355DG     H20 8162   4.662  -0.165   3.168 -2.5799  2.9748 -0.7072
  355DG     H21 8163   4.818  -0.165   3.263 -0.0683 -0.4142  1.7368
  355DG     H22 8164   4.800   0.103   3.006  1.0936  0.7218  1.1244
  355DG     H23 8165   4.761  -0.057   2.977 -1.1579  1.3439  0.0738
  356DG      C1 8166   0.976   3.375   2.729 -0.1708 -0.8738 -0.2386
  356DG      C2 8167   1.541   3.771   2.844  0.1133  0.8085  0.5061
  356DG      H3 8168   0.962   3.351   2.835  1.3874 -2.1490 -0.2872
  356DG      H4 8169   1.067   3.323   2.700  0.3992 -0.6747  1.0777
  356DG      H5 8170   0.893   3.338   2.669 -0.8229 -1.3848  0.9389
  356DG      H6 8171   1.546   3.869   2.892  1.0119  0.8989  0.2291
  356DG      H7 8172   1.575   3.704   2.923  0.5964  0.4587  0.0014
  356DG      H8 8173   1.600   3.750   2.755 -0.3185 -1.2252  0.6557
  356DG      O9 8174   0.988   3.517   2.710  0.1903 -0.2196  0.7281
  356DG     O10 8175   1.406   3.745   2.797 -0.1023  0.4395  0.5266
  356DG     C11 8176   1.032   3.551   2.583  0.2718 -0.5278 -0.4646
  356DG     C12 8177   1.381   3.857   2.700  0.7630  0.2908  0.2979
  356DG     H13 8178   0.950   3.517   2.520 -0.0531 -0.9217  0.1741
  356DG     H14 8179   1.122   3.496   2.557  0.5676 -0.5083  0.4793
  356DG     H15 8180   1.436   3.861   2.607 -2.0305  0.6069 -1.4459
  356DG     H16 8181   1.401   3.954   2.746 -0.1250  0.2662  0.7730
  356DG     C17 8182   1.067   3.697   2.578 -0.0993  0.4270 -0.1891
  356DG     C18 8183   1.238   3.845   2.642  0.3956  0.2032  0.1877
  356DG     O19 8184   1.174   3.718   2.666  0.1664  0.4118 -0.4061
  356DG     H20 8185   0.989   3.764   2.615  0.8288  2.0419 -1.0401
  356DG     H21 8186   1.072   3.734   2.475 -0.2819 -0.1725 -0.4201
  356DG     H22 8187   1.174   3.923   2.683  1.0859  0.3558  1.0124
  356DG     H23 8188   1.237   3.871   2.536 -1.1912  1.1201  0.3924
  357DG      C1 8189   0.337   4.257   5.151  0.3286  0.4637 -0.3552
  357DG      C2 8190  -0.097   3.827   4.853  0.2128  0.5056  0.7485
  357DG      H3 8191   0.434   4.208   5.151 -0.7918 -1.9517 -1.8872
  357DG      H4 8192   0.285   4.225   5.242  3.1818 -2.7921  0.3634
  357DG      H5 8193   0.335   4.365   5.155 -0.9771  0.4306  1.1138
  357DG      H6 8194   0.011   3.815   4.851  0.3013  1.3078  0.3944
  357DG      H7 8195  -0.146   3.758   4.922 -0.6647  0.1487 -0.2030
  357DG      H8 8196  -0.116   3.790   4.752  0.9723  0.4163  0.6321
  357DG      O9 8197   0.256   4.222   5.037 -0.7190  0.2035 -0.0068
  357DG     O10 8198  -0.131   3.961   4.880  0.2180 -0.3246 -0.4167
  357DG     C11 8199   0.280   4.302   4.928 -0.1811 -0.4022  0.4660
  357DG     C12 8200  -0.120   4.057   4.774  0.8409  0.3691  0.4354
  357DG     H13 8201   0.388   4.314   4.917 -0.2895  1.0082  0.7605
  357DG     H14 8202   0.238   4.401   4.946  1.3094  0.5061 -0.7902
  357DG     H15 8203  -0.176   4.147   4.795  2.7790  1.0970  3.1077
  357DG     H16 8204  -0.168   4.018   4.685 -1.0585  1.1890  1.0554
  357DG     C17 8205   0.206   4.240   4.813  0.3752  0.6197 -0.4485
  357DG     C18 8206   0.026   4.103   4.744 -0.1183 -0.1764  0.3178
  357DG     O19 8207   0.077   4.179   4.849 -0.1858  0.0601 -0.3790
  357DG     H20 8208   0.272   4.168   4.763 -0.3869 -0.0019 -0.5935
  357DG     H21 8209   0.184   4.313   4.735 -0.3285  0.5668 -0.3103
  357DG     H22 8210   0.086   4.012   4.732 -0.0904 -0.1712  0.4155
  357DG     H23 8211   0.021   4.151   4.647 -2.7282 -0.5414  0.2111
  358DG      C1 8212   4.412   2.568   2.908 -0.1687 -0.0071  0.8506
  358DG      C2 8213   4.959   2.743   2.635  0.7179  0.2591  0.4537
  358DG      H3 8214   4.445   2.468   2.879 -2.9502 -0.5971 -0.6151
  358DG      H4 8215   4.478   2.645   2.866 -0.5907  0.2714  0.6984
  358DG      H5 8216   4.306   2.578   2.887 -0.1177 -0.2235  0.4726
  358DG      H6 8217   4.955   2.649   2.580 -0.1361  2.1343 -2.9972
  358DG      H7 8218   4.895   2.811   2.578  0.9771  0.2563  0.1559
  358DG      H8 8219   5.052   2.798   2.650 -0.4484  1.3369  5.2782
  358DG      O9 8220   4.425   2.585   3.046  0.2969  0.1325 -0.6398
  358DG     O10 8221   4.907   2.715   2.765  0.4182 -0.5226 -0.0098
  358DG     C11 8222   4.555   2.555   3.107  0.0729 -0.7779  0.2858
  358DG     C12 8223   4.861   2.836   2.833 -0.2470 -0.2930  0.5364
  358DG     H13 8224   4.602   2.466   3.065 -0.0574 -0.0461 -1.4964
  358DG     H14 8225   4.532   2.524   3.209  1.1161  2.9678  1.7955
  358DG     H15 8226   4.785   2.886   2.773 -1.5742 -1.3237  1.3013
  358DG     H16 8227   4.938   2.913   2.843 -2.4848  1.9781  1.3170
  358DG     C17 8228   4.633   2.689   3.100  0.0669 -0.0392  0.3180
  358DG     C18 8229   4.808   2.800   2.974  0.2455 -0.5839 -0.6059
  358DG     O19 8230   4.708   2.696   2.976  0.1174 -0.0080  0.1350
  358DG     H20 8231   4.704   2.689   3.182 -1.1731  0.9190  1.4293
  358DG     H21 8232   4.578   2.780   3.122  0.8259  0.1871  1.3486
  358DG     H22 8233   4.888   2.771   3.041 -0.9669 -1.4236  0.5321
  358DG     H23 8234   4.773   2.896   3.012 -0.0670  0.0323 -2.3483
  359DG      C1 8235   5.362   0.860   1.702  0.1936  0.3352 -0.5043
  359DG      C2 8236   5.884   1.208   2.187 -0.5480  0.1157 -0.2432
  359DG      H3 8237   5.330   0.789   1.626  1.2302  0.9363 -1.5452
  359DG      H4 8238   5.277   0.927   1.717 -0.8742 -1.4020  1.6989
  359DG      H5 8239   5.380   0.804   1.793 -1.8300 -0.3479 -0.4838
  359DG      H6 8240   5.792   1.230   2.240 -1.7031 -3.2122 -0.6195
  359DG      H7 8241   5.919   1.110   2.220  0.9854  1.0591  1.1154
  359DG      H8 8242   5.966   1.277   2.206 -1.2094  0.4816  1.4463
  359DG      O9 8243   5.479   0.942   1.675 -0.2576  0.0893 -0.3178
  359DG     O10 8244   5.858   1.191   2.046  0.2499  0.0071  0.2618
  359DG     C11 8245   5.499   1.045   1.771  0.4856  0.6543 -0.7074
  359DG     C12 8246   5.838   1.310   1.978  0.3436  0.1265  0.2261
  359DG     H13 8247   5.511   1.005   1.872 -0.1944  1.5385 -0.2607
  359DG     H14 8248   5.413   1.112   1.777  1.3393  1.6180  3.1121
  359DG     H15 8249   5.926   1.374   1.983  0.6801  0.0547 -2.8552
  359DG     H16 8250   5.764   1.377   2.022  1.1899 -0.5131  2.7851
  359DG     C17 8251   5.626   1.125   1.745 -0.5108 -0.2110 -0.1840
  359DG     C18 8252   5.786   1.275   1.835 -0.0022 -0.7936 -0.5546
  359DG     O19 8253   5.679   1.189   1.856 -0.1219 -0.2902  0.2547
  359DG     H20 8254   5.605   1.202   1.670 -1.4291  0.8148  1.0986
  359DG     H21 8255   5.702   1.060   1.700  0.9740  0.5884  1.0605
  359DG     H22 8256   5.757   1.366   1.783 -2.1098  0.4442  2.4715
  359DG     H23 8257   5.863   1.223   1.778 -0.4501 -2.6420  0.4371
  360DG      C1 8258   1.130   0.664   0.332  0.1841  0.5907  0.3085
  360DG      C2 8259   1.697   0.631  -0.083  0.3140 -0.0217 -0.0861
  360DG      H3 8260   1.130   0.652   0.441  1.0757  2.9691  0.6375
  360DG      H4 8261   1.049   0.606   0.288  0.5464 -0.1869  0.6467
  360DG      H5 8262   1.119   0.766   0.295 -2.8301  0.4995  0.6709
  360DG      H6 8263   1.623   0.631  -0.163 -0.7771  1.3857  0.8718
  360DG      H7 8264   1.717   0.738  -0.073 -1.0240  0.5344 -2.5549
  360DG      H8 8265   1.786   0.583  -0.126  1.7439  0.3416  2.3034
  360DG      O9 8266   1.245   0.604   0.284 -0.2529 -0.3456 -0.0742
  360DG     O10 8267   1.656   0.572   0.035  0.0975 -0.3091  0.1002
  360DG     C11 8268   1.254   0.464   0.317  0.0312 -0.0883 -0.3874
  360DG     C12 8269   1.630   0.434   0.018 -0.0278  0.3096  1.1535
  360DG     H13 8270   1.193   0.401   0.253 -0.2796 -0.4296  0.2355
  360DG     H14 8271   1.223   0.443   0.420  0.5733 -0.0790 -0.2169
  360DG     H15 8272   1.712   0.370  -0.015 -0.2757  1.0900 -1.2229
  360DG     H16 8273   1.563   0.418  -0.067  0.3158 -0.5330  1.0284
  360DG     C17 8274   1.397   0.414   0.298  0.0330 -0.8949 -0.0888
  360DG     C18 8275   1.567   0.383   0.146 -0.1284 -0.6067 -0.2149
  360DG     O19 8276   1.433   0.442   0.163 -0.3038 -0.3581 -0.3942
  360DG     H20 8277   1.392   0.305   0.300 -1.3464 -0.8822 -1.2610
  360DG     H21 8278   1.460   0.455   0.377 -0.6460  0.0784 -0.0323
  360DG     H22 8279   1.564   0.275   0.137  0.1473 -0.5769 -0.7714
  360DG     H23 8280   1.626   0.417   0.230  0.2128 -0.0619 -0.6661
  361DG      C1 8281   0.388   1.408   3.141  0.5827 -0.2411 -0.5059
  361DG      C2 8282   0.953   1.887   2.977 -0.1868  0.3121  0.4183
  361DG      H3 8283   0.295   1.453   3.177  0.6975  0.0692 -0.5965
  361DG      H4 8284   0.442   1.357   3.221 -1.4165 -1.2889  0.2652
  361DG      H5 8285   0.366   1.330   3.067 -0.6217  0.6010 -1.0754
  361DG      H6 8286   1.012   1.867   3.066 -0.2094 -0.4163  0.2744
  361DG      H7 8287   1.016   1.949   2.914 -1.4867  1.5399  0.2726
  361DG      H8 8288   0.859   1.936   3.002 -0.4060 -0.8380  1.9933
  361DG      O9 8289   0.471   1.508   3.086 -0.3315  0.1953  0.4116
  361DG     O10 8290   0.945   1.760   2.920 -0.4179  0.3494  0.6894
  361DG     C11 8291   0.483   1.634   3.148  0.3156  0.5643  0.3905
  361DG     C12 8292   0.845   1.740   2.824 -0.7534  0.2616  0.1675
  361DG     H13 8293   0.560   1.629   3.225 -1.4810  1.3447  2.3612
  361DG     H14 8294   0.385   1.664   3.188 -0.0423  0.8166 -0.6531
  361DG     H15 8295   0.846   1.632   2.807 -1.4971  0.6037 -2.5404
  361DG     H16 8296   0.872   1.791   2.732 -0.1998 -1.8620 -0.9057
  361DG     C17 8297   0.526   1.732   3.035  0.9302  0.2121 -0.7409
  361DG     C18 8298   0.702   1.772   2.864  0.3278  0.1588  0.1193
  361DG     O19 8299   0.668   1.716   2.994  0.0622 -0.1696 -0.6316
  361DG     H20 8300   0.523   1.834   3.075 -0.1225 -0.5113  1.1371
  361DG     H21 8301   0.451   1.736   2.956 -0.0193  1.5892  0.1825
  361DG     H22 8302   0.690   1.880   2.860  1.4315  0.2662 -1.0925
  361DG     H23 8303   0.619   1.735   2.803 -1.5905  0.0120  2.6563
  362DG      C1 8304   0.510   0.437   4.702 -0.2377 -0.4433  0.3420
  362DG      C2 8305   0.894   0.480   5.239 -0.7093 -0.2000  0.6125
  362DG      H3 8306   0.579   0.356   4.725  1.4259  0.6398 -0.6205
  362DG      H4 8307   0.505   0.454   4.595 -1.3544 -0.4254  0.3879
  362DG      H5 8308   0.409   0.415   4.736 -0.2304  1.0353  1.4555
  362DG      H6 8309   0.913   0.373   5.235  2.0300  0.2172  0.2075
  362DG      H7 8310   0.957   0.536   5.170 -0.5843 -0.3560  0.6001
  362DG      H8 8311   0.912   0.518   5.340  0.3018 -1.0771  0.7797
  362DG      O9 8312   0.554   0.548   4.765 -0.0720 -0.3386 -0.5869
  362DG     O10 8313   0.757   0.496   5.203 -0.5445 -0.4812 -0.3748
  362DG     C11 8314   0.693   0.568   4.731  0.0318 -0.8786  0.3406
  362DG     C12 8315   0.706   0.628   5.198 -0.4262  0.1714 -0.0539
  362DG     H13 8316   0.702   0.589   4.624  1.7534 -0.5367  0.5111
  362DG     H14 8317   0.746   0.476   4.756  0.1175 -1.2481 -1.1072
  362DG     H15 8318   0.720   0.688   5.288  2.2186  0.3416 -0.4876
  362DG     H16 8319   0.598   0.623   5.183 -0.1858 -4.1118 -1.5524
  362DG     C17 8320   0.749   0.661   4.832 -0.1636 -0.5748 -0.7956
  362DG     C18 8321   0.743   0.711   5.069 -0.1045  0.5267  0.4752
  362DG     O19 8322   0.726   0.614   4.969 -0.0726 -0.6023  0.1732
  362DG     H20 8323   0.701   0.757   4.813  0.1450  0.3534  2.3964
  362DG     H21 8324   0.856   0.674   4.822 -0.0357  0.0874  0.9080
  362DG     H22 8325   0.670   0.790   5.054 -1.7884 -0.6329  2.0748
  362DG     H23 8326   0.845   0.749   5.060  1.5799 -3.6549 -0.3988
  363DG      C1 8327   0.304   0.762   5.186  0.1588 -0.5051  0.0666
  363DG      C2 8328   0.065   0.241   5.492 -0.0824  1.3194 -0.6353
  363DG      H3 8329   0.365   0.738   5.273  1.2594 -1.3219 -0.8902
  363DG      H4 8330   0.225   0.821   5.231  1.7390  1.0446  0.9468
  363DG      H5 8331   0.366   0.818   5.115  1.1276 -1.0446  0.4623
  363DG      H6 8332   0.160   0.191   5.512 -1.2729 -0.9486 -0.2598
  363DG      H7 8333   0.047   0.308   5.576 -1.2360 -0.6027  0.7256
  363DG      H8 8334  -0.007   0.160   5.492  1.1851  0.1520 -1.1358
  363DG      O9 8335   0.240   0.649   5.146 -0.3908  0.4985 -0.0222
  363DG     O10 8336   0.057   0.318   5.371  0.9778  0.3108 -0.2424
  363DG     C11 8337   0.319   0.569   5.056  0.3046  0.5418 -0.4078
  363DG     C12 8338   0.065   0.231   5.261 -0.2322 -0.0220 -0.3327
  363DG     H13 8339   0.412   0.541   5.105  0.6849 -0.9363 -1.8770
  363DG     H14 8340   0.352   0.618   4.965 -2.0778  1.6623 -0.7544
  363DG     H15 8341  -0.029   0.176   5.271  0.1451 -0.4925  0.8284
  363DG     H16 8342   0.145   0.160   5.281 -0.4969 -0.4528 -0.7789
  363DG     C17 8343   0.229   0.445   5.018 -0.3997  0.5788 -0.4162
  363DG     C18 8344   0.092   0.304   5.132 -0.0734 -0.2436  0.0854
  363DG     O19 8345   0.207   0.381   5.141  0.0096  0.3935 -0.2052
  363DG     H20 8346   0.283   0.377   4.951 -2.3252 -0.5734 -0.8752
  363DG     H21 8347   0.137   0.475   4.967 -0.5948 -0.0407 -0.4420
  363DG     H22 8348   0.110   0.232   5.052  1.4451  1.0876 -0.8275
  363DG     H23 8349   0.004   0.357   5.095  2.1120  2.0933 -2.1827
  364DG      C1 8350   0.473   3.627   0.214 -0.0060  0.9391  0.3073
  364DG      C2 8351   0.310   3.006  -0.347 -0.0821 -0.1829  0.4422
  364DG      H3 8352   0.496   3.556   0.294  0.6233  1.2371  0.3926
  364DG      H4 8353   0.365   3.630   0.197 -0.1836  0.4494  1.2787
  364DG      H5 8354   0.511   3.721   0.253  1.2852  0.6028 -0.1115
  364DG      H6 8355   0.375   3.048  -0.423  0.2170  0.9190  1.2897
  364DG      H7 8356   0.365   2.920  -0.308  0.0979  0.5805  1.9489
  364DG      H8 8357   0.215   2.972  -0.390  0.1384  0.3708 -0.5145
  364DG      O9 8358   0.538   3.582   0.087 -0.9132 -0.1680 -0.5354
  364DG     O10 8359   0.287   3.090  -0.239  0.7034  0.5704  0.0170
  364DG     C11 8360   0.478   3.636  -0.028  0.9652 -0.4806  0.6103
  364DG     C12 8361   0.389   3.180  -0.193 -0.4364 -0.0968  0.0790
  364DG     H13 8362   0.563   3.640  -0.097  1.2957  0.7807  1.0745
  364DG     H14 8363   0.442   3.737  -0.014  0.1053 -0.9857  2.2333
  364DG     H15 8364   0.442   3.216  -0.281 -1.4959  1.6369  0.1099
  364DG     H16 8365   0.458   3.122  -0.132  0.5935  0.2093 -0.7534
  364DG     C17 8366   0.371   3.537  -0.081 -0.0673 -0.0227  0.0861
  364DG     C18 8367   0.332   3.306  -0.117 -0.0509  0.1453 -0.4756
  364DG     O19 8368   0.429   3.409  -0.097 -0.0301 -0.1652 -0.2647
  364DG     H20 8369   0.355   3.562  -0.186 -0.2992 -1.2983 -0.2057
  364DG     H21 8370   0.289   3.541  -0.011 -1.5709  1.6085 -1.6568
  364DG     H22 8371   0.247   3.337  -0.178 -1.2934 -0.9697  0.6011
  364DG     H23 8372   0.284   3.271  -0.025 -0.4285 -0.0920 -0.7620
  365DG      C1 8373   4.783   1.327   0.546  0.5822 -0.3856  0.4898
  365DG      C2 8374   5.362   1.089   0.203  0.3822 -0.2733  0.3633
  365DG      H3 8375   4.755   1.243   0.610  0.2566 -2.4365 -2.1679
  365DG      H4 8376   4.691   1.380   0.521  0.1341 -1.5413 -0.4217
  365DG      H5 8377   4.856   1.396   0.588 -0.7756  0.2289  1.9691
  365DG      H6 8378   5.414   1.090   0.107  0.9240 -0.4410  0.6511
  365DG      H7 8379   5.422   1.167   0.249 -0.0875  1.2200 -1.4205
  365DG      H8 8380   5.385   0.994   0.251  0.6369  0.0672  0.9194
  365DG      O9 8381   4.831   1.270   0.422  0.3186 -0.2613 -0.4939
  365DG     O10 8382   5.222   1.128   0.199  0.0433 -0.1561 -0.2603
  365DG     C11 8383   4.744   1.191   0.349 -0.0918  0.0015 -0.3661
  365DG     C12 8384   5.141   1.023   0.147 -0.5259 -0.3025  0.1645
  365DG     H13 8385   4.647   1.240   0.335  0.3695  0.8668 -0.5464
  365DG     H14 8386   4.732   1.098   0.406  1.5304  0.7506  1.3055
  365DG     H15 8387   5.144   0.935   0.210 -0.9127 -0.4852 -0.0710
  365DG     H16 8388   5.180   0.988   0.052 -0.3693  1.7567 -0.5948
  365DG     C17 8389   4.810   1.152   0.213  0.2040 -0.6207  0.3078
  365DG     C18 8390   4.997   1.059   0.120 -0.5453 -0.2095  0.4886
  365DG     O19 8391   4.941   1.103   0.235 -0.0110  0.0613 -0.2599
  365DG     H20 8392   4.822   1.244   0.156 -0.3918 -1.1773 -0.7337
  365DG     H21 8393   4.741   1.098   0.149  0.4179  1.4411 -1.7869
  365DG     H22 8394   4.997   1.123   0.032 -1.9734 -0.7758  0.0519
  365DG     H23 8395   4.946   0.970   0.083 -3.0315  1.7239 -1.1411
  366DG      C1 8396   1.750   0.641   2.761  0.3487 -0.2309  0.0428
  366DG      C2 8397   1.141   0.990   2.886  0.2550  0.0240  0.0793
  366DG      H3 8398   1.789   0.540   2.768  1.4376  0.1884  0.2624
  366DG      H4 8399   1.842   0.701   2.756  1.7246 -2.2840 -0.8085
  366DG      H5 8400   1.691   0.649   2.670  0.5067 -0.0566 -0.0456
  366DG      H6 8401   1.129   0.881   2.885  1.9482 -0.2309  1.6371
  366DG      H7 8402   1.062   1.031   2.950  2.1260 -0.6950  3.0524
  366DG      H8 8403   1.123   1.026   2.785  1.9789 -1.6747 -0.8982
  366DG      O9 8404   1.678   0.683   2.881 -0.2355 -0.9583  0.3261
  366DG     O10 8405   1.263   1.014   2.947  0.2132 -0.7259  0.4898
  366DG     C11 8406   1.665   0.824   2.887 -0.3087 -0.4523 -0.1206
  366DG     C12 8407   1.285   0.975   3.087  0.3419  0.1469  0.1329
  366DG     H13 8408   1.644   0.872   2.791 -0.7440 -1.9974 -0.8223
  366DG     H14 8409   1.765   0.849   2.920 -0.1990 -2.0140  0.7887
  366DG     H15 8410   1.266   0.867   3.091  0.6075  0.0992  0.1104
  366DG     H16 8411   1.214   1.026   3.152  0.0113 -1.3224  0.9655
  366DG     C17 8412   1.565   0.852   2.997  0.2379 -0.1821 -0.2321
  366DG     C18 8413   1.431   1.009   3.116  0.7936  0.0339  0.1247
  366DG     O19 8414   1.525   0.994   3.007  0.5702 -0.2809 -0.2936
  366DG     H20 8415   1.603   0.815   3.092  0.1938  0.2430 -0.0465
  366DG     H21 8416   1.484   0.784   2.971 -1.4426  0.8523  1.9263
  366DG     H22 8417   1.431   1.116   3.134 -0.1537  0.2528 -1.0956
  366DG     H23 8418   1.469   0.965   3.208  3.0685  1.1525 -0.2035
  367DG      C1 8419   1.681   0.055   1.782 -0.4592 -0.1959  0.1409
  367DG      C2 8420   1.200   0.495   2.104  0.4697  0.2591 -0.0610
  367DG      H3 8421   1.786   0.083   1.781 -0.8936  1.5946  1.0670
  367DG      H4 8422   1.665  -0.011   1.697  0.7451  2.6774 -2.5024
  367DG      H5 8423   1.661   0.010   1.879  1.5605 -0.0907  0.6502
  367DG      H6 8424   1.295   0.546   2.122  1.4923 -1.5131 -0.2365
  367DG      H7 8425   1.120   0.569   2.101  0.4150  0.2288  0.6895
  367DG      H8 8426   1.173   0.437   2.192  1.3473 -0.0202  0.0358
  367DG      O9 8427   1.587   0.162   1.781 -0.2426  0.5466  0.1674
  367DG     O10 8428   1.199   0.427   1.975  0.0140 -0.7840  0.3429
  367DG     C11 8429   1.607   0.265   1.686 -0.0767 -0.7318 -0.7037
  367DG     C12 8430   1.222   0.515   1.866  0.4850  0.5824  0.1144
  367DG     H13 8431   1.631   0.222   1.589 -1.0750  0.2950 -1.4388
  367DG     H14 8432   1.690   0.325   1.724  0.5915 -3.1661  2.0595
  367DG     H15 8433   1.291   0.597   1.885 -1.1273  1.6050  1.9074
  367DG     H16 8434   1.128   0.564   1.844 -0.6153 -1.0781  0.8874
  367DG     C17 8435   1.472   0.343   1.661  0.0049  0.0678 -0.7145
  367DG     C18 8436   1.280   0.445   1.741  0.5584  0.0798 -0.0469
  367DG     O19 8437   1.395   0.368   1.773  0.7706 -0.4986 -0.5272
  367DG     H20 8438   1.408   0.280   1.599  1.5384 -0.5055 -1.7582
  367DG     H21 8439   1.491   0.437   1.608 -3.2241  2.0784  1.3255
  367DG     H22 8440   1.203   0.389   1.688 -0.5926  1.1515  0.4489
  367DG     H23 8441   1.306   0.521   1.667 -2.3976  0.2786 -1.0115
  368DG      C1 8442   2.449   4.281   2.152 -0.7086 -0.2707 -0.3446
  368DG      C2 8443   2.286   4.631   2.721  0.3994 -0.0506 -0.5484
  368DG      H3 8444   2.519   4.264   2.070 -0.3426 -1.3730  0.1767
  368DG      H4 8445   2.353   4.293   2.101 -0.7343  3.1065  0.2918
  368DG      H5 8446   2.444   4.191   2.212  0.9965 -0.3985 -0.3356
  368DG      H6 8447   2.295   4.530   2.762  1.1194 -0.7434 -2.3478
  368DG      H7 8448   2.302   4.707   2.797  0.8628 -0.8043  0.1269
  368DG      H8 8449   2.186   4.655   2.686 -0.1798  1.7348  2.0158
  368DG      O9 8450   2.474   4.393   2.244  0.4330  0.1828 -0.3082
  368DG     O10 8451   2.383   4.642   2.614  1.1351 -0.2749 -0.5353
  368DG     C11 8452   2.476   4.514   2.173 -0.2564  0.7621  0.8301
  368DG     C12 8453   2.386   4.772   2.554  0.7311  0.9964  0.0211
  368DG     H13 8454   2.378   4.537   2.132 -0.8808 -1.3943  1.0013
  368DG     H14 8455   2.543   4.497   2.089 -3.0195 -1.4717 -1.1376
  368DG     H15 8456   2.411   4.840   2.635  0.4482 -1.2054  2.0507
  368DG     H16 8457   2.290   4.803   2.513  0.6899  0.6891 -0.1175
  368DG     C17 8458   2.532   4.629   2.256  0.1385 -0.3164 -0.2550
  368DG     C18 8459   2.474   4.767   2.438 -0.2903 -0.1200  0.1639
  368DG     O19 8460   2.437   4.656   2.357  0.2242 -0.2734 -0.2696
  368DG     H20 8461   2.550   4.705   2.180 -0.2825 -0.2260 -0.2645
  368DG     H21 8462   2.630   4.604   2.299 -0.0141  1.2006  1.0607
  368DG     H22 8463   2.468   4.858   2.378 -0.0470 -0.5884 -0.5756
  368DG     H23 8464   2.577   4.759   2.475 -1.2950  0.2264  3.3211
  369DG      C1 8465   2.238   4.853   5.365  0.1432  0.3602 -0.4537
  369DG      C2 8466   2.624   5.242   4.972  0.6397 -0.2649 -0.4657
  369DG      H3 8467   2.285   4.847   5.463 -0.1282  0.9829 -0.2822
  369DG      H4 8468   2.266   4.761   5.313 -0.0875 -0.0762  0.1784
  369DG      H5 8469   2.131   4.859   5.381  0.4524  0.4268  1.8346
  369DG      H6 8470   2.617   5.175   4.886  1.9876 -0.6158 -0.3139
  369DG      H7 8471   2.521   5.267   4.998  0.2018  0.6142 -2.8450
  369DG      H8 8472   2.685   5.330   4.956 -1.8028  1.4921 -0.6780
  369DG      O9 8473   2.293   4.971   5.311 -0.0883 -0.3370 -0.3685
  369DG     O10 8474   2.687   5.169   5.074  0.4183  0.5087  0.0539
  369DG     C11 8475   2.279   5.086   5.399  1.0451 -0.0570  0.2169
  369DG     C12 8476   2.697   5.244   5.194 -0.3512 -1.2028 -0.3397
  369DG     H13 8477   2.325   5.059   5.494  0.3331  1.6148  1.0767
  369DG     H14 8478   2.171   5.100   5.403  0.7953 -1.8614  1.3865
  369DG     H15 8479   2.749   5.335   5.166  0.6119 -1.7601 -0.4199
  369DG     H16 8480   2.759   5.189   5.266 -0.9228 -0.5715  0.6475
  369DG     C17 8481   2.354   5.211   5.347 -0.3054 -0.7602  0.1267
  369DG     C18 8482   2.571   5.284   5.272 -0.4382  0.5892  0.3353
  369DG     O19 8483   2.477   5.172   5.288  0.3943  0.5720  0.1494
  369DG     H20 8484   2.360   5.285   5.426  0.0332  0.3487 -0.9140
  369DG     H21 8485   2.296   5.251   5.264 -0.6578 -1.1840  0.1618
  369DG     H22 8486   2.599   5.316   5.373  0.8453 -1.2596  0.6065
  369DG     H23 8487   2.518   5.365   5.222 -0.8979  0.7685  1.0877
  370DG      C1 8488   4.537   0.145   5.256  0.0396 -0.4855 -0.3885
  370DG      C2 8489   4.359   0.475   4.688  0.1535  0.1319  0.5387
  370DG      H3 8490   4.520   0.061   5.189  1.8710 -0.8481 -0.4502
  370DG      H4 8491   4.473   0.135   5.344  1.2477 -1.0149  0.4538
  370DG      H5 8492   4.643   0.141   5.281 -0.1821 -0.3986  0.6299
  370DG      H6 8493   4.290   0.542   4.637 -0.9711 -2.4249 -1.5428
  370DG      H7 8494   4.463   0.492   4.660 -0.6292  2.1601 -1.3523
  370DG      H8 8495   4.321   0.380   4.651  0.6004 -1.4006  3.7034
  370DG      O9 8496   4.527   0.274   5.192  0.0643  0.0026  0.2921
  370DG     O10 8497   4.339   0.483   4.823  0.2789  0.5908  0.0959
  370DG     C11 8498   4.546   0.390   5.277  0.8466  0.3964  0.5493
  370DG     C12 8499   4.387   0.609   4.878  0.2072 -0.7706  0.3604
  370DG     H13 8500   4.653   0.410   5.267  1.2997 -1.9141  0.2609
  370DG     H14 8501   4.525   0.373   5.382 -0.1892 -0.3985  0.2279
  370DG     H15 8502   4.325   0.689   4.836  1.4288 -0.7349 -1.4900
  370DG     H16 8503   4.493   0.626   4.862  0.4538 -1.9260  0.6896
  370DG     C17 8504   4.466   0.506   5.221 -0.1949  0.2356  0.0945
  370DG     C18 8505   4.370   0.597   5.033 -0.0702 -0.3310  0.2974
  370DG     O19 8506   4.454   0.495   5.077 -0.0554 -0.4720 -0.7453
  370DG     H20 8507   4.509   0.599   5.258 -0.8674  0.7588 -0.4283
  370DG     H21 8508   4.365   0.482   5.254 -0.4864 -1.2334 -1.7068
  370DG     H22 8509   4.404   0.694   5.070  0.4279 -0.2217 -0.4187
  370DG     H23 8510   4.264   0.587   5.054 -0.5176 -0.8236 -1.9413
  371DG      C1 8511   3.142   4.955   1.742  0.0685 -0.0264 -0.9032
  371DG      C2 8512   2.803   4.939   2.278  0.1514  0.0648  0.1537
  371DG      H3 8513   3.155   5.058   1.775  0.9690  0.4972 -2.7478
  371DG      H4 8514   3.168   4.969   1.637  1.1673 -0.0881 -0.6459
  371DG      H5 8515   3.217   4.890   1.787 -1.0699 -0.4835  0.3847
  371DG      H6 8516   2.818   5.037   2.324 -0.8548  0.0539  0.5257
  371DG      H7 8517   2.774   4.868   2.355  0.9727  0.2975  0.6851
  371DG      H8 8518   2.894   4.907   2.228 -0.1777 -0.4012 -0.1497
  371DG      O9 8519   3.005   4.910   1.764 -0.6065 -0.0821 -0.3826
  371DG     O10 8520   2.690   4.951   2.196  0.5669 -0.0223 -0.2163
  371DG     C11 8521   2.980   4.765   1.787 -0.0324 -0.2046  0.3019
  371DG     C12 8522   2.712   5.014   2.072  0.4532  0.5645  0.0038
  371DG     H13 8523   3.045   4.730   1.867 -0.9964 -0.0968  1.1456
  371DG     H14 8524   3.004   4.709   1.696 -2.7449  1.9654 -1.9235
  371DG     H15 8525   2.811   5.059   2.063 -0.0074  1.2817 -2.1753
  371DG     H16 8526   2.632   5.085   2.052 -1.5847 -1.2845  1.1897
  371DG     C17 8527   2.840   4.752   1.841 -0.6874 -0.3764 -0.3720
  371DG     C18 8528   2.699   4.911   1.958  0.4190  0.3532  0.7547
  371DG     O19 8529   2.823   4.844   1.948 -0.4727  0.0164 -0.3411
  371DG     H20 8530   2.825   4.653   1.885 -0.7155 -0.3349 -0.2876
  371DG     H21 8531   2.771   4.765   1.757 -0.1222 -2.5847 -1.2469
  371DG     H22 8532   2.620   4.839   1.985  0.7738 -0.7483 -0.9863
  371DG     H23 8533   2.673   4.958   1.863 -0.3945  2.4677  1.9562
  372DG      C1 8534   0.986   5.024   3.855 -0.3827 -0.6164  0.4097
  372DG      C2 8535   0.550   5.237   4.308  0.1088  0.0063  0.0353
  372DG      H3 8536   0.925   5.062   3.937 -2.3719 -0.3962 -1.0913
  372DG      H4 8537   0.929   4.940   3.814  0.7809 -1.1117 -0.2259
  372DG      H5 8538   0.985   5.108   3.785 -1.4321 -0.9383  0.0101
  372DG      H6 8539   0.530   5.331   4.360  1.9036 -0.6798  2.1059
  372DG      H7 8540   0.522   5.245   4.203 -1.4809  0.6640  0.4685
  372DG      H8 8541   0.493   5.156   4.354  0.2908 -0.4396 -0.5121
  372DG      O9 8542   1.114   4.979   3.900 -0.0414 -0.1939  0.1192
  372DG     O10 8543   0.689   5.208   4.315  0.3945  0.1757  0.2728
  372DG     C11 8544   1.099   4.894   4.009 -0.4605  0.0601 -0.8901
  372DG     C12 8545   0.731   5.090   4.250 -0.1888 -0.8309 -0.1440
  372DG     H13 8546   1.190   4.842   4.039 -0.4779  2.0464  3.2869
  372DG     H14 8547   1.027   4.813   3.994 -0.2660 -0.5463  1.1498
  372DG     H15 8548   0.710   5.100   4.143  1.1871 -2.2961 -0.6039
  372DG     H16 8549   0.682   5.003   4.294  0.7034 -1.4943 -0.4259
  372DG     C17 8550   1.058   4.964   4.145 -0.2673  0.2690 -0.5759
  372DG     C18 8551   0.877   5.060   4.264  0.0409 -0.8020  0.1716
  372DG     O19 8552   0.915   4.981   4.156 -0.4846 -0.4674  0.5551
  372DG     H20 8553   1.117   5.054   4.165  0.2437 -0.0232 -0.7595
  372DG     H21 8554   1.078   4.895   4.227  0.6315  0.4692 -0.6215
  372DG     H22 8555   0.932   5.154   4.272  0.1173 -0.9395  1.6919
  372DG     H23 8556   0.898   4.999   4.352 -2.9292 -1.3223  0.6269
  373DG      C1 8557   0.156   2.414   2.617 -0.5648 -0.2517 -0.5371
  373DG      C2 8558  -0.352   2.038   2.724 -0.3023  0.0896 -0.1640
  373DG      H3 8559   0.183   2.372   2.713  0.3258 -1.3116 -1.2271
  373DG      H4 8560   0.238   2.483   2.597  0.8940 -1.4761  0.9483
  373DG      H5 8561   0.164   2.346   2.532  1.0124 -0.0286 -0.6056
  373DG      H6 8562  -0.347   1.991   2.625  1.5459  2.0090 -1.0497
  373DG      H7 8563  -0.278   1.999   2.794 -0.9857 -0.4628  0.2769
  373DG      H8 8564  -0.458   2.035   2.749 -0.6765 -1.3108 -1.7004
  373DG      O9 8565   0.020   2.459   2.627 -0.9296  0.3070 -0.2788
  373DG     O10 8566  -0.320   2.170   2.706 -0.0675 -0.1782  0.7958
  373DG     C11 8567  -0.037   2.516   2.507 -0.3495 -0.0213 -0.0747
  373DG     C12 8568  -0.416   2.234   2.612 -0.6787  0.1068 -0.0182
  373DG     H13 8569   0.003   2.445   2.435  1.8679  0.3309  0.7266
  373DG     H14 8570   0.009   2.613   2.489  0.6026 -0.5091 -0.3255
  373DG     H15 8571  -0.513   2.234   2.661 -0.2851 -0.0520  0.7726
  373DG     H16 8572  -0.432   2.185   2.516 -2.4394  2.6014 -1.1078
  373DG     C17 8573  -0.189   2.515   2.523  0.3087 -0.5318 -0.2294
  373DG     C18 8574  -0.365   2.381   2.597 -0.0300  0.0199  0.5211
  373DG     O19 8575  -0.231   2.381   2.538 -1.0147 -0.1642 -0.0804
  373DG     H20 8576  -0.231   2.559   2.433 -1.8793 -0.0946  0.9570
  373DG     H21 8577  -0.225   2.579   2.603  0.4364 -0.8752  0.1091
  373DG     H22 8578  -0.433   2.423   2.524  0.0814  0.8569  0.8867
  373DG     H23 8579  -0.377   2.432   2.693 -1.4743 -0.1241  0.4421
  374DG      C1 8580   2.900   2.022   0.306  0.4583  0.1469  0.2989
  374DG      C2 8581   2.622   1.371   0.272  0.3763  0.8405  0.1376
  374DG      H3 8582   3.001   2.059   0.286  0.1880  0.5923 -0.2811
  374DG      H4 8583   2.878   2.035   0.412  1.7001 -0.9594  0.7170
  374DG      H5 8584   2.836   2.096   0.257 -0.8526 -0.4349  1.0944
  374DG      H6 8585   2.687   1.313   0.207 -0.9088 -0.6174  0.1004
  374DG      H7 8586   2.581   1.301   0.345  3.4711 -0.7563  0.4881
  374DG      H8 8587   2.534   1.405   0.217 -0.9080 -0.5610  1.2318
  374DG      O9 8588   2.890   1.887   0.267  0.1768 -0.5910 -0.6307
  374DG     O10 8589   2.695   1.482   0.313 -0.0322  0.3267 -0.7106
  374DG     C11 8590   2.974   1.808   0.347 -0.2653 -0.1713  0.8289
  374DG     C12 8591   2.608   1.577   0.380 -0.7817 -0.5302 -0.3314
  374DG     H13 8592   3.004   1.860   0.438 -1.2399  1.4829  0.2649
  374DG     H14 8593   3.057   1.772   0.286 -2.1674 -3.3315 -0.1306
  374DG     H15 8594   2.566   1.521   0.464  0.3583  0.6804  1.0919
  374DG     H16 8595   2.527   1.603   0.311 -2.1125 -1.4770  0.8164
  374DG     C17 8596   2.907   1.679   0.382  0.5985  0.5916  0.2590
  374DG     C18 8597   2.680   1.703   0.424 -0.1901 -0.7292  0.4467
  374DG     O19 8598   2.807   1.692   0.480  0.1359 -0.0593  0.1214
  374DG     H20 8599   2.975   1.614   0.436 -0.2518 -1.3683 -0.9407
  374DG     H21 8600   2.882   1.629   0.289 -0.7482  2.0198 -0.2033
  374DG     H22 8601   2.679   1.778   0.346  0.6106 -0.9274  0.2390
  374DG     H23 8602   2.620   1.737   0.509  0.5486 -0.0757  0.7203
  375DG      C1 8603   0.780   3.583   0.979 -0.2036 -0.3343 -0.1638
  375DG      C2 8604   1.557   3.710   0.690 -0.0381 -0.8147  0.5723
  375DG      H3 8605   0.687   3.535   1.012 -0.1225  0.4327  1.2443
  375DG      H4 8606   0.758   3.663   0.909 -1.4378 -0.9323 -0.4893
  375DG      H5 8607   0.824   3.630   1.067 -0.6395  0.4994 -0.3835
  375DG      H6 8608   1.552   3.805   0.637 -0.5072 -0.8556  0.5406
  375DG      H7 8609   1.598   3.739   0.786 -0.0320  1.7557 -0.1261
  375DG      H8 8610   1.616   3.641   0.629 -1.4173 -1.5979  0.0874
  375DG      O9 8611   0.869   3.489   0.926 -0.2193 -0.3762  0.5480
  375DG     O10 8612   1.436   3.649   0.714 -0.3527  0.1053 -0.2334
  375DG     C11 8613   0.987   3.551   0.877  0.0016 -1.2673 -0.0164
  375DG     C12 8614   1.450   3.531   0.789  1.0210  1.0985  0.2463
  375DG     H13 8615   1.035   3.599   0.962  0.2002 -1.1724 -0.1816
  375DG     H14 8616   0.970   3.615   0.791  0.4442 -1.0809  0.0312
  375DG     H15 8617   1.483   3.555   0.890  0.2765 -0.4955  0.8976
  375DG     H16 8618   1.525   3.463   0.749  0.3347 -0.5790  1.6981
  375DG     C17 8619   1.096   3.454   0.841  1.0935  0.1257  0.6534
  375DG     C18 8620   1.323   3.447   0.798 -0.2565 -0.0798  0.4522
  375DG     O19 8621   1.219   3.530   0.848  0.2474 -0.0479  0.3589
  375DG     H20 8622   1.086   3.401   0.747  0.4941 -0.0918  0.8336
  375DG     H21 8623   1.104   3.383   0.924  0.1778 -1.6860 -0.7577
  375DG     H22 8624   1.298   3.402   0.702  0.0796 -1.8060  1.1423
  375DG     H23 8625   1.340   3.363   0.865 -2.4210 -0.2453  0.8556
  376DG      C1 8626   3.557   2.122   0.948 -1.0213 -0.3432  0.8938
  376DG      C2 8627   3.803   2.356   1.613 -0.2184 -0.3387 -0.3735
  376DG      H3 8628   3.660   2.097   0.923  0.0398  1.5818  2.9378
  376DG      H4 8629   3.533   2.209   0.886 -0.4592 -0.4717  0.4782
  376DG      H5 8630   3.507   2.028   0.924 -1.1155 -0.2003  0.5199
  376DG      H6 8631   3.830   2.251   1.612  0.0415 -0.2714 -1.3502
  376DG      H7 8632   3.888   2.422   1.598 -0.1429  0.3926  2.5889
  376DG      H8 8633   3.758   2.391   1.706  0.2124 -1.0937  0.1240
  376DG      O9 8634   3.556   2.152   1.090  0.2921 -0.2636  0.7800
  376DG     O10 8635   3.705   2.386   1.509 -0.0906  0.3469  0.2263
  376DG     C11 8636   3.592   2.039   1.170 -0.0081 -0.2521  0.0317
  376DG     C12 8637   3.575   2.344   1.540  0.1189  0.0294 -0.1744
  376DG     H13 8638   3.700   2.025   1.174  0.2733  1.9759  1.4140
  376DG     H14 8639   3.539   1.954   1.127 -0.0431  0.5382 -1.5692
  376DG     H15 8640   3.507   2.393   1.470  1.3234  2.4529  0.2822
  376DG     H16 8641   3.529   2.369   1.636 -0.3243 -0.0393 -0.3658
  376DG     C17 8642   3.527   2.055   1.304 -0.0426 -0.5383  0.4008
  376DG     C18 8643   3.553   2.201   1.498 -0.0253 -0.5084 -0.1402
  376DG     O19 8644   3.569   2.187   1.356  0.0701  0.0278 -0.2049
  376DG     H20 8645   3.541   1.966   1.366 -1.0099 -0.9299  0.0794
  376DG     H21 8646   3.422   2.068   1.278  0.6992  1.8635 -1.6917
  376DG     H22 8647   3.618   2.136   1.556 -0.4159 -0.0014  0.8957
  376DG     H23 8648   3.447   2.174   1.507 -0.5096  0.7423 -1.7311
  377DG      C1 8649   3.424   5.391   4.027 -0.1672 -0.5280  0.0977
  377DG      C2 8650   3.639   5.743   3.532  0.4877 -0.9204 -0.1056
  377DG      H3 8651   3.467   5.401   4.126  2.7058 -1.8380 -0.8924
  377DG      H4 8652   3.332   5.334   4.035 -1.1129  0.2802 -3.2512
  377DG      H5 8653   3.390   5.489   3.993 -0.9650  0.2663  2.9073
  377DG      H6 8654   3.715   5.809   3.574  0.2217 -0.0743 -0.9286
  377DG      H7 8655   3.572   5.790   3.461 -0.5743  0.3220  1.6368
  377DG      H8 8656   3.579   5.704   3.614  0.6318  0.8748  0.9152
  377DG      O9 8657   3.522   5.322   3.946 -0.5561 -0.0029  0.3086
  377DG     O10 8658   3.702   5.643   3.460 -0.3002 -0.5193  0.3045
  377DG     C11 8659   3.472   5.326   3.814 -0.7842  0.1269 -0.3020
  377DG     C12 8660   3.803   5.577   3.530 -0.2038 -0.1217 -0.4478
  377DG     H13 8661   3.412   5.412   3.782 -0.3780 -0.1213 -1.8319
  377DG     H14 8662   3.403   5.244   3.794 -1.2427  0.4753 -0.1891
  377DG     H15 8663   3.836   5.624   3.622 -1.8805 -0.6437  0.4644
  377DG     H16 8664   3.888   5.544   3.470 -1.5853 -1.5244 -1.7004
  377DG     C17 8665   3.602   5.330   3.721 -0.0465  0.1019  0.6603
  377DG     C18 8666   3.745   5.435   3.568  0.1341  0.4497 -0.4537
  377DG     O19 8667   3.641   5.450   3.664  0.2827 -0.3979 -0.2884
  377DG     H20 8668   3.582   5.281   3.626  2.0508  0.0215  0.2137
  377DG     H21 8669   3.682   5.274   3.770  0.9443  1.6982  0.9286
  377DG     H22 8670   3.709   5.379   3.482  1.5256 -2.4394  0.7124
  377DG     H23 8671   3.822   5.370   3.608  0.6851  3.2934  3.7661
  378DG      C1 8672   0.539   0.745   0.707 -0.3975  0.2319  0.2331
  378DG      C2 8673   0.650   1.374   0.278 -0.2984 -0.0422  0.1266
  378DG      H3 8674   0.496   0.695   0.620  0.4340  1.5873 -1.0118
  378DG      H4 8675   0.460   0.767   0.779  1.1769  2.3972  1.4118
  378DG      H5 8676   0.611   0.673   0.748  0.5936  1.3496  0.5170
  378DG      H6 8677   0.654   1.481   0.293 -0.7815  0.1285 -0.9003
  378DG      H7 8678   0.753   1.341   0.263  0.2686  0.9443  1.5959
  378DG      H8 8679   0.594   1.345   0.189  0.8836 -0.7546 -0.4149
  378DG      O9 8680   0.616   0.864   0.676 -0.6952 -0.1067  0.4659
  378DG     O10 8681   0.584   1.306   0.382  0.0304 -0.0091  0.2528
  378DG     C11 8682   0.725   0.844   0.580  0.1837  0.5775  0.2207
  378DG     C12 8683   0.658   1.317   0.500  0.9537  0.3632 -1.0819
  378DG     H13 8684   0.697   0.810   0.480  0.5946 -1.6300  0.7845
  378DG     H14 8685   0.799   0.770   0.613  1.0114  0.6253 -1.4194
  378DG     H15 8686   0.583   1.311   0.579  0.4843  2.3037 -1.3384
  378DG     H16 8687   0.685   1.422   0.513 -0.5066  0.7245 -0.7237
  378DG     C17 8688   0.794   0.978   0.566 -0.1767  0.0216  0.1137
  378DG     C18 8689   0.756   1.200   0.530  0.3502 -1.0436  0.4153
  378DG     O19 8690   0.693   1.074   0.532  0.1464 -0.0403 -0.1431
  378DG     H20 8691   0.882   0.970   0.502  1.8376 -0.5662  2.7923
  378DG     H21 8692   0.831   0.998   0.666 -1.5864 -0.8420  0.8473
  378DG     H22 8693   0.829   1.193   0.449 -0.8488  0.8374 -0.9178
  378DG     H23 8694   0.805   1.217   0.625 -0.1364  0.4319  0.4318
  379DG      C1 8695   3.977   2.484   0.556  0.6471  0.0508  0.0485
  379DG      C2 8696   4.070   2.613   1.375  0.3404  0.0667 -0.4251
  379DG      H3 8697   4.029   2.576   0.531 -0.2212  0.6049  0.2632
  379DG      H4 8698   3.876   2.513   0.529  0.7479  0.3588  0.0007
  379DG      H5 8699   4.013   2.405   0.489  0.7251  1.4003 -1.5623
  379DG      H6 8700   4.098   2.585   1.476  0.1561  0.3637 -0.2887
  379DG      H7 8701   4.148   2.676   1.331  1.8977 -1.5239 -0.0478
  379DG      H8 8702   3.983   2.676   1.394  0.5730  0.8486 -1.7611
  379DG      O9 8703   3.989   2.436   0.695 -0.5858 -0.0643 -0.5270
  379DG     O10 8704   4.039   2.499   1.289  0.1354 -0.5014 -0.0889
  379DG     C11 8705   3.911   2.324   0.731  1.0364  0.2064  0.4923
  379DG     C12 8706   3.976   2.525   1.160  0.6484  0.0695  0.1181
  379DG     H13 8707   3.951   2.240   0.673  2.8979  1.2050  0.2360
  379DG     H14 8708   3.807   2.334   0.701  0.8127 -0.5251  1.0170
  379DG     H15 8709   4.044   2.595   1.113  0.5833 -1.1168 -1.8550
  379DG     H16 8710   3.888   2.588   1.171 -0.1743 -0.9436 -0.4475
  379DG     C17 8711   3.924   2.299   0.883 -0.1829  0.1876  0.6802
  379DG     C18 8712   3.937   2.394   1.092  0.1914  0.1370  0.0435
  379DG     O19 8713   3.920   2.418   0.955  0.0358  0.0953 -0.4253
  379DG     H20 8714   4.022   2.253   0.896  0.6490  1.7238  0.0887
  379DG     H21 8715   3.839   2.235   0.909 -0.6227 -0.5269 -2.1060
  379DG     H22 8716   4.018   2.323   1.110 -0.6825 -0.4235  2.0396
  379DG     H23 8717   3.847   2.354   1.138  1.6642 -1.0335  2.0471
  380DG      C1 8718   0.640   3.330   2.950  0.3285 -0.3047 -0.7100
  380DG      C2 8719   1.093   3.336   3.682 -0.0030 -0.1539  0.2446
  380DG      H3 8720   0.587   3.404   3.010 -0.0661 -1.2526  0.1374
  380DG      H4 8721   0.570   3.286   2.878  1.2326 -1.2158 -1.0589
  380DG      H5 8722   0.716   3.385   2.894  1.5743 -0.6879  0.5396
  380DG      H6 8723   1.069   3.347   3.788 -2.3877  0.0992 -0.2818
  380DG      H7 8724   1.103   3.234   3.646 -2.7823 -0.4043 -0.0199
  380DG      H8 8725   1.170   3.404   3.643  0.8561 -0.2856  1.6125
  380DG      O9 8726   0.704   3.230   3.036  0.6178  0.3236 -0.4518
  380DG     O10 8727   0.956   3.356   3.635 -0.4548  0.1842  0.1795
  380DG     C11 8728   0.625   3.213   3.152  0.4926  0.0479  0.4673
  380DG     C12 8729   0.925   3.322   3.498 -0.3686 -0.0283  0.1643
  380DG     H13 8730   0.644   3.108   3.177 -1.8899 -1.3052 -2.7202
  380DG     H14 8731   0.519   3.218   3.127  0.3855  0.5012  1.0097
  380DG     H15 8732   0.946   3.215   3.495 -1.2612 -0.3343  2.5209
  380DG     H16 8733   0.976   3.373   3.417 -0.0679 -3.2385 -1.8711
  380DG     C17 8734   0.658   3.307   3.275 -0.1048 -0.3935  0.3983
  380DG     C18 8735   0.786   3.340   3.464  0.0165 -0.3924 -0.9674
  380DG     O19 8736   0.773   3.263   3.344 -0.1503 -0.4261 -0.1637
  380DG     H20 8737   0.566   3.304   3.334 -0.7632 -1.4497 -0.6240
  380DG     H21 8738   0.669   3.410   3.243  1.9177 -0.1649  1.6751
  380DG     H22 8739   0.722   3.298   3.542 -1.9012  0.4096 -2.0265
  380DG     H23 8740   0.759   3.445   3.452  0.7969  0.3745  2.7762
  381DG      C1 8741   2.212   4.328   4.240 -0.0145 -0.2816  0.2795
  381DG      C2 8742   2.123   3.639   4.007  0.1809 -0.1155  0.0789
  381DG      H3 8743   2.146   4.412   4.221 -0.0725  0.3391  2.8785
  381DG      H4 8744   2.297   4.369   4.295 -0.6088 -0.1269  1.0923
  381DG      H5 8745   2.159   4.266   4.312  0.2588 -1.2316 -0.3157
  381DG      H6 8746   2.026   3.635   4.058  0.0434  1.6318 -0.0093
  381DG      H7 8747   2.105   3.579   3.918 -2.0367  0.6200 -0.0270
  381DG      H8 8748   2.215   3.607   4.056  1.2185  0.5230 -1.3791
  381DG      O9 8749   2.256   4.259   4.126 -0.6905  0.3828 -0.0457
  381DG     O10 8750   2.135   3.772   3.957  0.4985 -0.0287 -0.4396
  381DG     C11 8751   2.145   4.220   4.047 -0.0792 -0.5091  0.3946
  381DG     C12 8752   2.235   3.795   3.868  0.1400 -0.2905 -0.0256
  381DG     H13 8753   2.088   4.311   4.026 -0.0265  0.0633  2.5650
  381DG     H14 8754   2.079   4.154   4.104  0.8263 -0.0280  2.0600
  381DG     H15 8755   2.234   3.725   3.785  0.2051 -1.5135  0.9814
  381DG     H16 8756   2.325   3.773   3.925 -0.7661 -0.8921  1.2110
  381DG     C17 8757   2.196   4.155   3.915 -0.0184  0.2046 -0.1801
  381DG     C18 8758   2.230   3.940   3.820 -0.4649 -0.0482 -0.1564
  381DG     O19 8759   2.229   4.020   3.940  0.4172  1.2022  0.1402
  381DG     H20 8760   2.271   4.210   3.858  0.8435  0.1303  0.8532
  381DG     H21 8761   2.108   4.159   3.850  0.4307  0.6573 -0.7763
  381DG     H22 8762   2.312   3.965   3.753 -1.5588  0.6254 -1.2818
  381DG     H23 8763   2.150   3.950   3.747 -0.5145 -1.5117 -0.3226
  382DG      C1 8764   2.221   0.727   3.848 -0.6993 -0.5990  0.4156
  382DG      C2 8765   1.527   0.851   3.813  0.1868  0.3597  0.3658
  382DG      H3 8766   2.184   0.642   3.790 -0.6987  0.1272 -0.6959
  382DG      H4 8767   2.262   0.690   3.942 -0.3238  0.8119  0.8339
  382DG      H5 8768   2.287   0.789   3.788 -1.9132  0.6057  0.2603
  382DG      H6 8769   1.530   0.819   3.709  2.8297  1.2814  0.0714
  382DG      H7 8770   1.506   0.776   3.889  0.2546  0.3644  0.3895
  382DG      H8 8771   1.448   0.925   3.828 -0.3743 -0.0158 -0.6113
  382DG      O9 8772   2.104   0.815   3.866 -0.1386  0.3761 -0.2761
  382DG     O10 8773   1.648   0.909   3.847 -0.7091  0.6838  0.3014
  382DG     C11 8774   2.123   0.912   3.972  0.6662  1.0011  0.2494
  382DG     C12 8775   1.654   0.952   3.979  0.0329 -0.0380 -0.2557
  382DG     H13 8776   2.228   0.943   3.972  1.4363 -1.3319  1.6771
  382DG     H14 8777   2.111   0.859   4.067  2.1281  3.8345  2.1604
  382DG     H15 8778   1.670   0.861   4.036  1.0245  1.1712  1.4993
  382DG     H16 8779   1.566   1.011   4.005 -0.1857  0.0995 -1.2588
  382DG     C17 8780   2.020   1.025   3.970 -0.1142 -0.6363 -0.0033
  382DG     C18 8781   1.783   1.038   4.000  0.2149 -0.2639 -0.2907
  382DG     O19 8782   1.894   0.953   3.973  0.1628  0.0643  0.5205
  382DG     H20 8783   2.030   1.084   3.879 -1.3483 -0.2519  0.0915
  382DG     H21 8784   2.046   1.096   4.049 -3.5276  0.5642  0.2139
  382DG     H22 8785   1.787   1.121   3.930  1.9655  0.9873  1.1984
  382DG     H23 8786   1.783   1.068   4.105 -0.4268 -0.7151 -0.1546
  383DG      C1 8787   4.745   1.693   5.021  0.2134  0.2761 -0.2508
  383DG      C2 8788   4.665   1.599   5.695 -0.2373  0.1663 -0.5082
  383DG      H3 8789   4.753   1.585   5.030  1.6384  0.4598  1.0041
  383DG      H4 8790   4.846   1.731   5.007  0.2308  0.8254  1.2284
  383DG      H5 8791   4.696   1.711   4.925 -1.0671  1.4954  0.5831
  383DG      H6 8792   4.598   1.577   5.779  0.9659  0.6955  0.6229
  383DG      H7 8793   4.680   1.498   5.656 -2.1673 -0.4169  0.1002
  383DG      H8 8794   4.763   1.640   5.721 -0.1767 -0.7669  0.8282
  383DG      O9 8795   4.663   1.742   5.128 -0.2338 -0.5764 -0.0067
  383DG     O10 8796   4.604   1.681   5.591  0.4504 -0.2915 -0.2279
  383DG     C11 8797   4.640   1.882   5.145 -0.1188  0.0057  0.2431
  383DG     C12 8798   4.597   1.817   5.626 -0.3712  0.1817  0.5585
  383DG     H13 8799   4.591   1.920   5.055  0.7279 -0.4016 -0.4041
  383DG     H14 8800   4.735   1.933   5.158 -0.2948  0.1177  1.1634
  383DG     H15 8801   4.695   1.864   5.631 -0.9044  1.8764 -2.5588
  383DG     H16 8802   4.536   1.828   5.716 -1.5600  1.3574 -0.3538
  383DG     C17 8803   4.550   1.907   5.268  0.2357 -0.1577 -0.0875
  383DG     C18 8804   4.535   1.884   5.504  0.3529  0.1269  0.0135
  383DG     O19 8805   4.604   1.857   5.387 -0.2343 -0.0934 -0.6403
  383DG     H20 8806   4.451   1.863   5.253 -0.0741  0.8990 -1.3018
  383DG     H21 8807   4.520   2.011   5.277 -1.6356 -0.6194 -0.6185
  383DG     H22 8808   4.428   1.863   5.499  0.5321 -0.8523  0.0848
  383DG     H23 8809   4.549   1.993   5.507 -0.1706  0.2584 -1.6255
  384DG      C1 8810   1.634   4.695   4.796  0.1047 -0.1747 -0.8068
  384DG      C2 8811   0.813   4.849   4.617  0.1371 -0.6833  0.2432
  384DG      H3 8812   1.688   4.726   4.707  0.6112  0.9490 -0.1201
  384DG      H4 8813   1.610   4.589   4.780 -0.1444 -0.0394 -1.3579
  384DG      H5 8814   1.686   4.702   4.891 -0.4582  2.2267 -0.6363
  384DG      H6 8815   0.729   4.917   4.619  0.8996  0.2862  2.3579
  384DG      H7 8816   0.851   4.836   4.516  1.9663  0.5315  0.7101
  384DG      H8 8817   0.772   4.756   4.657  0.7972 -0.7668  0.7528
  384DG      O9 8818   1.517   4.770   4.809 -0.2616 -0.0953 -0.1874
  384DG     O10 8819   0.909   4.896   4.712 -0.4876 -0.0883  0.1224
  384DG     C11 8820   1.427   4.763   4.697  1.2805 -0.1985 -0.7692
  384DG     C12 8821   1.020   4.816   4.734 -0.4005 -0.0871  0.1032
  384DG     H13 8822   1.383   4.664   4.700  1.1462 -0.1177  1.0183
  384DG     H14 8823   1.475   4.780   4.601 -0.5267 -1.2630 -1.9204
  384DG     H15 8824   1.076   4.814   4.641 -2.2403  2.8397 -1.2112
  384DG     H16 8825   0.995   4.713   4.761 -0.7937 -0.1156 -0.3516
  384DG     C17 8826   1.325   4.869   4.730 -0.2801  0.2303 -0.0148
  384DG     C18 8827   1.110   4.874   4.844 -0.1135  0.0304 -0.1335
  384DG     O19 8828   1.239   4.821   4.838 -0.5738 -0.0087  0.3585
  384DG     H20 8829   1.278   4.884   4.633  1.4378 -1.7059 -1.2390
  384DG     H21 8830   1.381   4.958   4.759  0.0998  0.4125 -1.2517
  384DG     H22 8831   1.122   4.982   4.831  2.2225  0.3393  3.2292
  384DG     H23 8832   1.059   4.871   4.941 -0.5867 -2.7414 -0.3810
  385DG      C1 8833   3.339   4.780   2.846 -0.2127  0.0513  0.4626
  385DG      C2 8834   3.026   5.314   2.454 -0.0632  0.0857  0.5601
  385DG      H3 8835   3.240   4.738   2.828 -1.3657  2.1443  1.5355
  385DG      H4 8836   3.359   4.759   2.951  1.2307 -0.7623  0.0444
  385DG      H5 8837   3.415   4.730   2.786  0.7416  2.6948 -0.6933
  385DG      H6 8838   2.946   5.240   2.446 -1.4036  1.5702 -0.2666
  385DG      H7 8839   2.980   5.411   2.435  0.0505 -0.0094 -0.2209
  385DG      H8 8840   3.107   5.297   2.383 -1.2363 -0.3029 -0.7249
  385DG      O9 8841   3.349   4.920   2.842  0.1948 -1.0435 -0.3714
  385DG     O10 8842   3.058   5.294   2.595  0.6948  0.8497  1.0742
  385DG     C11 8843   3.250   4.983   2.921  0.7435 -0.1702 -0.7601
  385DG     C12 8844   3.150   5.385   2.642  0.4286 -0.2856 -0.4142
  385DG     H13 8845   3.256   4.958   3.027 -0.7792  0.3443 -0.5154
  385DG     H14 8846   3.147   4.954   2.896  0.4089  1.7279 -1.7567
  385DG     H15 8847   3.096   5.479   2.657  2.5524  0.9929 -0.2720
  385DG     H16 8848   3.244   5.392   2.587  1.2419 -0.6277  0.8839
  385DG     C17 8849   3.256   5.142   2.902  0.5243  0.4575  0.0848
  385DG     C18 8850   3.185   5.334   2.782  0.1740  0.0032  0.1184
  385DG     O19 8851   3.215   5.195   2.776 -0.2001  0.0296  0.5715
  385DG     H20 8852   3.355   5.180   2.926  0.8934  0.7247 -1.7175
  385DG     H21 8853   3.189   5.183   2.978 -1.0477  1.4119 -1.7348
  385DG     H22 8854   3.270   5.389   2.822  0.7549 -0.9355  0.1901
  385DG     H23 8855   3.095   5.342   2.844  0.0185 -0.7414 -0.0004
  386DG      C1 8856   0.032   5.336   5.217 -0.1207 -0.2161  0.6448
  386DG      C2 8857   0.217   4.705   4.919 -0.1244  0.1109 -0.0731
  386DG      H3 8858  -0.052   5.308   5.281 -0.8043 -1.2781 -0.6717
  386DG      H4 8859   0.023   5.443   5.194  2.2287 -0.0890 -0.0050
  386DG      H5 8860   0.125   5.323   5.274  0.3844  0.2793 -0.0466
  386DG      H6 8861   0.304   4.716   4.983  0.0952  0.1692 -0.3839
  386DG      H7 8862   0.147   4.640   4.973  0.8175 -1.1119 -0.2819
  386DG      H8 8863   0.245   4.650   4.830 -0.5514  1.4460 -1.0613
  386DG      O9 8864   0.036   5.267   5.093 -0.9057  0.4673 -0.2450
  386DG     O10 8865   0.157   4.833   4.885 -0.6130 -0.1480 -0.0102
  386DG     C11 8866   0.129   5.324   4.999 -0.9625  0.2217  0.0558
  386DG     C12 8867   0.229   4.901   4.774  0.4451 -0.6771 -0.0903
  386DG     H13 8868   0.226   5.334   5.047 -0.2835  0.9848 -1.3956
  386DG     H14 8869   0.108   5.428   4.978  1.6557  0.6901 -0.6064
  386DG     H15 8870   0.215   4.851   4.678  0.9874 -1.2809  0.1414
  386DG     H16 8871   0.336   4.902   4.796  0.1545  0.7119  1.4625
  386DG     C17 8872   0.155   5.252   4.864 -0.6128 -0.5873 -0.1434
  386DG     C18 8873   0.177   5.040   4.765  0.2235  0.2792  0.3063
  386DG     O19 8874   0.201   5.119   4.884  0.2310 -0.0287 -0.3982
  386DG     H20 8875   0.227   5.315   4.812 -0.9590  0.7397  0.9337
  386DG     H21 8876   0.060   5.257   4.811 -0.6769  0.8754  0.0698
  386DG     H22 8877   0.237   5.095   4.693 -0.9379 -0.1699 -1.0678
  386DG     H23 8878   0.073   5.039   4.732  0.7799 -1.4362 -1.5906
  387DG      C1 8879   1.152   5.207   1.975  0.7249 -0.3204  0.0951
  387DG      C2 8880   1.403   5.440   1.316  0.1361 -0.2624  0.0986
  387DG      H3 8881   1.202   5.302   1.992  0.6170 -0.1790 -0.3612
  387DG      H4 8882   1.209   5.121   2.009 -3.6449 -3.1891  1.0613
  387DG      H5 8883   1.052   5.199   2.018  0.3516  0.5130 -0.5908
  387DG      H6 8884   1.512   5.437   1.308  0.0806 -1.3940 -0.3456
  387DG      H7 8885   1.370   5.364   1.246 -0.4240  0.0110  0.0599
  387DG      H8 8886   1.373   5.537   1.275  0.6822 -0.1407 -0.0202
  387DG      O9 8887   1.127   5.205   1.834 -0.0030 -0.0517  0.8640
  387DG     O10 8888   1.355   5.416   1.441  0.7465  0.3270  0.0056
  387DG     C11 8889   1.028   5.299   1.782  0.0304 -0.0044  0.5597
  387DG     C12 8890   1.386   5.506   1.543 -0.2913 -0.4342  0.2818
  387DG     H13 8891   0.938   5.305   1.843  0.4810  2.5126  1.0745
  387DG     H14 8892   0.998   5.266   1.682  1.2664  3.6193 -1.1737
  387DG     H15 8893   1.436   5.595   1.506 -0.9179 -1.0152 -2.1060
  387DG     H16 8894   1.456   5.452   1.607  1.5576  0.6757 -0.7360
  387DG     C17 8895   1.094   5.438   1.756  1.1026 -0.4435  0.1118
  387DG     C18 8896   1.268   5.546   1.639 -0.1638  0.0068 -0.2193
  387DG     O19 8897   1.198   5.426   1.667 -0.5907 -0.0302  0.2881
  387DG     H20 8898   1.139   5.470   1.850  0.6465  1.5640 -0.3019
  387DG     H21 8899   1.017   5.508   1.723 -0.4949  0.2165  4.5226
  387DG     H22 8900   1.300   5.600   1.728 -2.0367  1.8609 -0.5878
  387DG     H23 8901   1.201   5.613   1.586 -0.6913  0.6007  1.1468
  388DG      C1 8902   3.041   3.376   1.140 -0.1600  0.4472 -0.1475
  388DG      C2 8903   3.457   3.639   0.779 -0.4404  0.2836 -0.5143
  388DG      H3 8904   2.957   3.308   1.146  1.5225 -1.6191  2.5633
  388DG      H4 8905   3.013   3.482   1.144 -0.1609  0.5174 -1.5362
  388DG      H5 8906   3.117   3.356   1.216  1.2938  2.5285 -0.9696
  388DG      H6 8907   3.499   3.665   0.876 -0.1455 -1.0503 -0.2664
  388DG      H7 8908   3.523   3.676   0.701  2.0946  0.6223  1.6594
  388DG      H8 8909   3.356   3.680   0.769 -1.2208 -1.1005  1.1408
  388DG      O9 8910   3.100   3.344   1.009  0.4828 -0.1965 -0.2002
  388DG     O10 8911   3.445   3.495   0.780  0.0222  0.0549  0.3926
  388DG     C11 8912   3.007   3.326   0.905  0.0210  0.3458  0.4921
  388DG     C12 8913   3.386   3.453   0.653 -0.4058 -0.2278 -0.6951
  388DG     H13 8914   2.963   3.422   0.882  0.8554 -0.0817 -3.6311
  388DG     H14 8915   2.927   3.253   0.924 -1.1397  1.4735  0.0733
  388DG     H15 8916   3.469   3.434   0.585  0.1281 -1.1611  0.1752
  388DG     H16 8917   3.334   3.531   0.599 -0.5471 -0.6917 -1.2428
  388DG     C17 8918   3.086   3.293   0.775  0.1486 -0.0297  0.1843
  388DG     C18 8919   3.292   3.328   0.669 -0.5226 -0.1515  0.7344
  388DG     O19 8920   3.198   3.381   0.759  0.6119  0.0057  0.1122
  388DG     H20 8921   3.020   3.294   0.688 -0.8742 -2.9798  0.8150
  388DG     H21 8922   3.124   3.192   0.789 -1.0349 -0.6053 -0.6014
  388DG     H22 8923   3.247   3.295   0.576 -0.7468 -0.4893  0.9598
  388DG     H23 8924   3.334   3.242   0.722  1.6032  0.0556 -0.5370
  389DG      C1 8925   4.896   0.181   4.473  1.1157 -0.0722  0.4868
  389DG      C2 8926   4.448   0.800   4.562 -0.7144  0.2995  0.1315
  389DG      H3 8927   4.948   0.126   4.394  1.7659 -0.2645  1.0389
  389DG      H4 8928   4.800   0.136   4.499  0.0170  2.1302  0.5140
  389DG      H5 8929   4.948   0.160   4.566  1.2329  0.1471  0.4718
  389DG      H6 8930   4.496   0.818   4.658 -0.0002  1.9964 -0.5002
  389DG      H7 8931   4.414   0.898   4.528 -0.8379 -0.0449 -0.7486
  389DG      H8 8932   4.354   0.750   4.586 -0.1799 -0.0091  1.6882
  389DG      O9 8933   4.863   0.318   4.426 -0.2720  0.0211 -0.5969
  389DG     O10 8934   4.512   0.713   4.470 -0.3012  0.4089 -0.3504
  389DG     C11 8935   4.764   0.311   4.319 -0.0950 -0.5737  0.0215
  389DG     C12 8936   4.631   0.763   4.414  0.7406 -0.3992  0.2989
  389DG     H13 8937   4.664   0.280   4.350 -0.4010  2.4825  2.4887
  389DG     H14 8938   4.802   0.244   4.242 -0.8926 -0.0492 -0.8479
  389DG     H15 8939   4.715   0.785   4.480  1.8328 -1.3569 -0.7187
  389DG     H16 8940   4.622   0.857   4.359  0.8518 -1.9040 -2.4376
  389DG     C17 8941   4.754   0.451   4.255 -0.1780 -0.2045  0.0928
  389DG     C18 8942   4.682   0.672   4.303 -0.2171 -0.6391  1.0451
  389DG     O19 8943   4.692   0.533   4.348 -0.2194 -0.2942 -0.9045
  389DG     H20 8944   4.699   0.455   4.162  1.5553 -0.9937 -1.0223
  389DG     H21 8945   4.852   0.491   4.230  0.9432 -1.2176  2.4717
  389DG     H22 8946   4.624   0.681   4.211 -0.3075 -0.4931  1.1162
  389DG     H23 8947   4.781   0.703   4.269 -0.8590  1.1560  0.6920
  390DG      C1 8948   2.004   1.200   2.146  0.4050  0.5354 -0.0151
  390DG      C2 8949   1.643   1.253   2.831  0.2943 -0.2124  0.4161
  390DG      H3 8950   2.070   1.286   2.137  0.1685  0.6200 -1.0960
  390DG      H4 8951   1.905   1.237   2.119 -1.3860 -3.8057 -0.1364
  390DG      H5 8952   2.018   1.123   2.070 -0.6160  1.4751 -1.1970
  390DG      H6 8953   1.541   1.232   2.863  0.4095 -2.0561 -0.3136
  390DG      H7 8954   1.685   1.158   2.864  0.0252 -0.8435 -0.9846
  390DG      H8 8955   1.694   1.337   2.878  1.2120 -0.5561  0.0649
  390DG      O9 8956   2.003   1.133   2.270 -0.1805  0.1598  0.1953
  390DG     O10 8957   1.644   1.265   2.687  0.0929  0.3113  0.6239
  390DG     C11 8958   1.980   1.218   2.382 -0.1394 -0.5344  0.2462
  390DG     C12 8959   1.580   1.155   2.616 -0.2420  0.5362 -0.2610
  390DG     H13 8960   2.040   1.308   2.371 -1.0475  0.4785  2.8516
  390DG     H14 8961   2.027   1.176   2.471  0.4702 -1.4854 -0.5072
  390DG     H15 8962   1.472   1.163   2.618 -0.3725 -1.1022  1.2209
  390DG     H16 8963   1.610   1.061   2.662 -0.4683 -0.1092 -1.3977
  390DG     C17 8964   1.834   1.254   2.404 -1.0382  0.3505  0.3645
  390DG     C18 8965   1.632   1.145   2.471  0.4505 -0.8474 -0.6151
  390DG     O19 8966   1.775   1.130   2.460  0.4204 -0.4478 -0.0682
  390DG     H20 8967   1.792   1.281   2.307  0.3834  3.3078  0.4887
  390DG     H21 8968   1.829   1.339   2.471 -1.6614  2.1978 -1.8881
  390DG     H22 8969   1.586   1.051   2.440 -1.5705  0.4621 -1.7773
  390DG     H23 8970   1.593   1.219   2.402 -0.7671 -0.4396  0.4586
  391DG      C1 8971   4.907   4.792   5.146 -0.1162  0.5281  0.1209
  391DG      C2 8972   4.777   4.565   5.732  0.5379 -0.2594  0.0151
  391DG      H3 8973   5.013   4.814   5.159  0.2330 -0.2152 -1.2811
  391DG      H4 8974   4.866   4.825   5.051  1.8511  1.3112 -0.5020
  391DG      H5 8975   4.899   4.683   5.144 -2.1734  0.5779  1.6183
  391DG      H6 8976   4.883   4.588   5.747  0.3971  1.7344 -1.4916
  391DG      H7 8977   4.734   4.546   5.830  0.4647 -1.1728 -0.1917
  391DG      H8 8978   4.772   4.470   5.679 -0.4132  0.8394 -1.9691
  391DG      O9 8979   4.826   4.818   5.256  0.4662 -0.2134  0.5640
  391DG     O10 8980   4.718   4.667   5.653  0.0424  0.1838 -0.4910
  391DG     C11 8981   4.784   4.957   5.258 -0.8614  0.0531  0.5766
  391DG     C12 8982   4.754   4.799   5.697 -0.5446  0.1457  0.0130
  391DG     H13 8983   4.740   4.987   5.163  0.7866  0.0487 -0.2300
  391DG     H14 8984   4.876   5.014   5.270  0.4297 -2.1775  1.9289
  391DG     H15 8985   4.862   4.810   5.701 -0.6732  1.6431 -0.0589
  391DG     H16 8986   4.701   4.812   5.791 -3.3833  0.7379 -1.5361
  391DG     C17 8987   4.694   4.963   5.375  0.1849 -0.2555  0.6368
  391DG     C18 8988   4.689   4.909   5.605 -0.3214  0.2685 -0.4835
  391DG     O19 8989   4.755   4.893   5.483  0.2954 -0.4307  0.3745
  391DG     H20 8990   4.596   4.920   5.358  0.6141 -1.2553  0.6076
  391DG     H21 8991   4.682   5.070   5.393  0.0677 -0.4873  2.0392
  391DG     H22 8992   4.584   4.883   5.594 -0.0574 -1.2906  0.2865
  391DG     H23 8993   4.699   5.013   5.634  0.1132 -0.0818  0.6940
  392DG      C1 8994   3.577   3.743   2.009  0.0445  0.3507 -0.3094
  392DG      C2 8995   3.004   3.377   1.826  0.0364 -0.8089 -0.5991
  392DG      H3 8996   3.543   3.813   1.932  1.9201  0.6804 -0.8873
  392DG      H4 8997   3.643   3.670   1.962  0.8717  1.2080 -0.5017
  392DG      H5 8998   3.611   3.786   2.103 -0.9114  1.2528 -0.3556
  392DG      H6 8999   3.108   3.369   1.797  1.1013  2.1660  1.8968
  392DG      H7 9000   2.958   3.278   1.820  1.1260 -1.3060 -0.9904
  392DG      H8 9001   2.951   3.432   1.748 -2.0096  0.3893  1.5106
  392DG      O9 9002   3.455   3.674   2.044 -0.0720 -0.3438  0.7073
  392DG     O10 9003   3.013   3.439   1.958 -0.4775 -0.4233  0.3248
  392DG     C11 9004   3.453   3.578   2.146 -0.9385 -0.0388  0.2512
  392DG     C12 9005   3.047   3.346   2.063  0.6550  0.2342 -0.3612
  392DG     H13 9006   3.526   3.590   2.226 -1.5183  1.0791  0.6249
  392DG     H14 9007   3.500   3.489   2.103 -3.3176 -0.9524 -0.5831
  392DG     H15 9008   3.125   3.280   2.025  0.9746  0.5129 -0.1864
  392DG     H16 9009   2.964   3.277   2.082  1.0571 -0.3617 -0.7077
  392DG     C17 9010   3.317   3.550   2.202  0.3476 -0.8312 -0.5696
  392DG     C18 9011   3.118   3.413   2.178  0.0357  1.7068  0.6878
  392DG     O19 9012   3.229   3.467   2.114 -0.5514  0.3670 -0.0912
  392DG     H20 9013   3.274   3.646   2.228  0.0768 -1.6832  2.5905
  392DG     H21 9014   3.324   3.486   2.290 -2.0014  1.7285  1.6394
  392DG     H22 9015   3.050   3.487   2.220 -3.7859 -1.5766  0.9164
  392DG     H23 9016   3.143   3.347   2.261 -0.1724  1.2202  0.3670
  393DG      C1 9017   1.148   1.788   4.693 -0.0482 -0.5485  0.0545
  393DG      C2 9018   0.767   2.044   5.256 -0.3291  0.5719 -0.8387
  393DG      H3 9019   1.087   1.718   4.636 -0.0153  0.0295 -0.6915
  393DG      H4 9020   1.183   1.722   4.773  0.5472 -0.0201  0.2377
  393DG      H5 9021   1.220   1.822   4.619 -0.7310 -0.3859 -0.5469
  393DG      H6 9022   0.777   2.133   5.318  0.2163 -0.1323  0.0996
  393DG      H7 9023   0.664   2.026   5.223 -1.7264  2.0794  2.3175
  393DG      H8 9024   0.794   1.960   5.319  0.0688  0.5042 -1.0948
  393DG      O9 9025   1.078   1.909   4.730  0.6042 -0.7304  0.3345
  393DG     O10 9026   0.861   2.054   5.150 -0.4123 -0.7145 -0.4451
  393DG     C11 9027   1.162   1.997   4.804  0.1104  1.1931  0.2343
  393DG     C12 9028   0.832   2.181   5.091  0.5409 -0.1394 -1.1189
  393DG     H13 9029   1.253   2.016   4.748  0.1651 -0.7766 -0.4403
  393DG     H14 9030   1.196   1.945   4.894  2.2278 -0.4134 -1.4086
  393DG     H15 9031   0.809   2.265   5.156 -1.0614 -0.6449 -0.9893
  393DG     H16 9032   0.740   2.170   5.033 -0.2830  0.7803 -0.0244
  393DG     C17 9033   1.087   2.124   4.836  0.1419 -0.8206 -0.2366
  393DG     C18 9034   0.947   2.204   4.999 -0.5095  0.2182  0.3732
  393DG     O19 9035   0.975   2.091   4.913 -0.0116 -0.1490  0.6860
  393DG     H20 9036   1.044   2.170   4.747  0.0568  1.0744  0.7358
  393DG     H21 9037   1.152   2.193   4.890  1.2086 -1.9663 -0.0151
  393DG     H22 9038   0.944   2.300   4.947 -0.3994  0.6073  1.0714
  393DG     H23 9039   1.028   2.203   5.072  0.7052 -2.0877 -0.8928
  394DG      C1 9040   1.321   3.232   1.143 -0.2119 -0.8144  0.7384
  394DG      C2 9041   2.173   3.439   1.255  0.5728 -0.7158  0.3206
  394DG      H3 9042   1.336   3.149   1.211  1.9928 -1.1300 -0.0385
  394DG      H4 9043   1.266   3.186   1.061  1.4643 -1.9292  0.1873
  394DG      H5 9044   1.262   3.319   1.171  1.8326  2.1950 -3.2873
  394DG      H6 9045   2.220   3.346   1.287  0.2233 -1.5677 -1.5081
  394DG      H7 9046   2.255   3.501   1.219 -1.0117 -0.0860 -2.5578
  394DG      H8 9047   2.128   3.480   1.345  0.5896  1.2150 -0.5150
  394DG      O9 9048   1.442   3.290   1.093 -0.3318 -0.1398 -0.0987
  394DG     O10 9049   2.080   3.432   1.148  0.0248  0.0382 -0.0629
  394DG     C11 9050   1.535   3.199   1.044 -0.2501 -0.0637 -0.3814
  394DG     C12 9051   1.965   3.356   1.182 -0.5855 -0.4713  0.0969
  394DG     H13 9052   1.486   3.141   0.965 -1.0987 -0.6166  0.5203
  394DG     H14 9053   1.567   3.120   1.112 -0.5978  0.2134  0.1103
  394DG     H15 9054   1.916   3.407   1.264 -0.4056  1.1695 -0.7597
  394DG     H16 9055   1.990   3.252   1.202  3.5136 -0.1478 -2.1303
  394DG     C17 9056   1.665   3.271   0.993  1.0371  0.0266  1.0348
  394DG     C18 9057   1.866   3.361   1.070 -0.2390 -0.3587  0.0221
  394DG     O19 9058   1.746   3.290   1.106 -0.3573 -0.5424 -0.3996
  394DG     H20 9059   1.633   3.362   0.943 -0.0050  0.2022  2.0086
  394DG     H21 9060   1.709   3.202   0.920 -0.2355  0.2964 -0.0154
  394DG     H22 9061   1.835   3.463   1.048  2.4640  0.7418  0.9248
  394DG     H23 9062   1.904   3.301   0.987 -0.8394 -0.6163 -0.0723
  395DG      C1 9063   2.513   5.085   0.952 -0.2682 -0.0073  0.1318
  395DG      C2 9064   2.033   4.588   0.836 -0.6144 -0.2332  0.2945
  395DG      H3 9065   2.473   5.185   0.938  1.8353  1.0130  0.9103
  395DG      H4 9066   2.619   5.111   0.949  0.1149 -1.5570 -0.8563
  395DG      H5 9067   2.488   5.058   1.054 -0.8086  1.3754  0.3890
  395DG      H6 9068   2.065   4.485   0.854  1.2394  0.0272 -1.2165
  395DG      H7 9069   1.999   4.622   0.934 -0.5535  1.2199 -0.1605
  395DG      H8 9070   1.952   4.586   0.763  0.1304  1.9183 -0.6653
  395DG      O9 9071   2.473   5.002   0.839 -0.2381  0.8399 -0.2631
  395DG     O10 9072   2.152   4.656   0.794 -0.1727  0.4983  0.1255
  395DG     C11 9073   2.561   4.889   0.828  0.0687  0.7960  0.4083
  395DG     C12 9074   2.198   4.612   0.668  0.5418 -0.4817 -0.1478
  395DG     H13 9075   2.570   4.825   0.916  2.5687  1.9501  1.0681
  395DG     H14 9076   2.660   4.933   0.824 -0.1584  1.3973  1.1335
  395DG     H15 9077   2.120   4.631   0.595  1.1198  0.5480 -0.5193
  395DG     H16 9078   2.205   4.503   0.676  0.0626 -0.4673  0.6589
  395DG     C17 9079   2.522   4.805   0.703  0.6051  0.2757 -0.0407
  395DG     C18 9080   2.334   4.679   0.629 -0.3068  0.0751 -0.4460
  395DG     O19 9081   2.390   4.761   0.738 -0.1745  0.0830 -0.1365
  395DG     H20 9082   2.596   4.725   0.701 -0.1932 -0.4925  0.4343
  395DG     H21 9083   2.516   4.862   0.610  1.2698 -0.0418 -0.2848
  395DG     H22 9084   2.403   4.603   0.592 -0.8584 -0.4754 -0.3623
  395DG     H23 9085   2.309   4.737   0.540 -0.5509 -0.1573 -0.5304
  396DG      C1 9086   3.720   3.796   2.336 -0.0828 -0.0052 -0.0744
  396DG      C2 9087   3.659   3.516   2.935 -0.1044  0.0131 -0.1672
  396DG      H3 9088   3.774   3.875   2.284 -0.6253  0.5652  0.2171
  396DG      H4 9089   3.614   3.821   2.348 -0.1760 -0.2190 -0.4270
  396DG      H5 9090   3.743   3.706   2.279  0.9030  1.7352 -2.6043
  396DG      H6 9091   3.675   3.501   3.042 -1.4077 -0.4398 -0.0119
  396DG      H7 9092   3.569   3.458   2.915 -1.0466  0.9180  1.2314
  396DG      H8 9093   3.751   3.474   2.895  0.3584 -1.0416  1.8918
  396DG      O9 9094   3.769   3.777   2.474  0.0549  0.1622  0.0036
  396DG     O10 9095   3.647   3.653   2.902  0.1303 -0.4351  0.0741
  396DG     C11 9096   3.909   3.743   2.497  0.8373  0.0612  0.3793
  396DG     C12 9097   3.750   3.743   2.952  0.3108 -0.0235  0.0616
  396DG     H13 9098   3.966   3.808   2.429  0.1908  2.0506  1.6521
  396DG     H14 9099   3.949   3.647   2.465  2.3908  0.1615  1.8979
  396DG     H15 9100   3.778   3.726   3.056  1.2026  1.3425  0.0800
  396DG     H16 9101   3.716   3.846   2.960  0.9037  0.1728  0.1164
  396DG     C17 9102   3.949   3.768   2.643 -0.2383 -0.0998  0.1591
  396DG     C18 9103   3.868   3.741   2.859  0.7349  0.1098  0.0973
  396DG     O19 9104   3.830   3.761   2.725  0.0340  0.0800  0.1369
  396DG     H20 9105   4.007   3.859   2.656  1.3074 -0.7559 -1.5916
  396DG     H21 9106   4.012   3.685   2.677 -0.5119 -0.9129 -1.2505
  396DG     H22 9107   3.940   3.818   2.886  0.6339  0.5208 -0.8050
  396DG     H23 9108   3.926   3.649   2.869  1.1481  0.4690  1.2743
  397DG      C1 9109   1.179   2.482   4.027 -0.7159  0.1809  0.2126
  397DG      C2 9110   1.389   3.009   3.850  0.4217 -0.3060 -0.7861
  397DG      H3 9111   1.139   2.518   3.932 -0.8526  0.8526  0.5162
  397DG      H4 9112   1.131   2.393   4.067 -0.5581 -0.4038 -0.8916
  397DG      H5 9113   1.275   2.434   4.011 -1.9561 -1.5539 -2.9154
  397DG      H6 9114   1.400   3.117   3.848 -1.3410 -0.0886 -0.5644
  397DG      H7 9115   1.484   2.957   3.840  0.0999 -1.1581  0.3174
  397DG      H8 9116   1.326   2.979   3.766  0.0883 -1.8378 -0.0218
  397DG      O9 9117   1.196   2.589   4.115 -0.4346  0.1525 -0.1773
  397DG     O10 9118   1.330   2.982   3.980 -0.3978 -0.3320  0.4783
  397DG     C11 9119   1.081   2.621   4.182 -0.4155 -0.3611  0.1287
  397DG     C12 9120   1.213   3.063   4.009  0.2276  0.4190 -0.0347
  397DG     H13 9121   1.050   2.576   4.276 -1.1807  1.4367  0.7828
  397DG     H14 9122   0.991   2.608   4.122  0.8268 -0.8991 -1.7294
  397DG     H15 9123   1.142   3.072   3.927  0.4954 -0.6958 -0.4061
  397DG     H16 9124   1.232   3.163   4.047 -0.3600  1.1502 -1.5686
  397DG     C17 9125   1.101   2.770   4.206 -0.2123 -0.7826  0.5457
  397DG     C18 9126   1.136   2.989   4.119  0.0629 -0.1326  0.0726
  397DG     O19 9127   1.115   2.852   4.088 -0.2988 -0.0948 -0.0425
  397DG     H20 9128   1.191   2.784   4.265  0.9107  2.2308 -1.6133
  397DG     H21 9129   1.017   2.802   4.267 -2.4821 -1.4876 -2.0032
  397DG     H22 9130   1.213   2.995   4.197  1.3821  1.7753 -1.2851
  397DG     H23 9131   1.040   3.023   4.158  1.3021 -0.5203  3.9726
  398DG      C1 9132   5.439   5.071   3.235  0.2374  0.2105  0.4031
  398DG      C2 9133   6.086   5.141   3.061  0.4605 -0.3264  0.0362
  398DG      H3 9134   5.495   5.027   3.318 -0.0538 -0.2964  0.3325
  398DG      H4 9135   5.352   5.009   3.212  0.5379  0.7763 -2.6891
  398DG      H5 9136   5.407   5.169   3.271 -0.0711  0.7600 -1.2750
  398DG      H6 9137   6.170   5.141   2.991  0.7281  0.6239  0.3443
  398DG      H7 9138   6.083   5.231   3.122 -0.0008 -0.0398 -0.4093
  398DG      H8 9139   6.098   5.053   3.124 -0.8619 -2.0023 -1.9475
  398DG      O9 9140   5.516   5.095   3.125 -0.0079 -0.0978 -0.0106
  398DG     O10 9141   5.960   5.127   3.002  0.0159 -0.4523 -0.1943
  398DG     C11 9142   5.467   5.198   3.037 -0.0912  0.8461  1.1144
  398DG     C12 9143   5.932   5.234   2.910 -0.4416  0.5983 -0.0448
  398DG     H13 9144   5.440   5.291   3.087 -2.0318  0.7629  0.3319
  398DG     H14 9145   5.372   5.158   3.000  1.9356 -1.3728 -2.2401
  398DG     H15 9146   6.005   5.222   2.830  0.9757 -2.4257  1.5286
  398DG     H16 9147   5.934   5.330   2.962 -1.0251 -1.0575  3.3555
  398DG     C17 9148   5.557   5.211   2.912 -0.5370 -0.5579 -0.1010
  398DG     C18 9149   5.788   5.221   2.847 -0.0577  0.4681  0.1454
  398DG     O19 9150   5.698   5.221   2.956  0.9551 -0.1311  0.0867
  398DG     H20 9151   5.522   5.296   2.854 -2.0376 -0.3817  1.0245
  398DG     H21 9152   5.559   5.120   2.853  1.1789  0.1000 -1.1341
  398DG     H22 9153   5.772   5.320   2.803  2.3607  0.8953  0.0897
  398DG     H23 9154   5.777   5.136   2.780 -0.1254  0.9726 -0.4949
  399DG      C1 9155   1.975   3.351   0.590 -0.0199  0.6661 -0.0210
  399DG      C2 9156   1.995   3.645  -0.004 -0.0732 -0.1181 -0.1122
  399DG      H3 9157   1.958   3.267   0.524 -0.0705  1.5406 -1.1434
  399DG      H4 9158   1.891   3.342   0.658 -0.7187 -1.6861 -1.1011
  399DG      H5 9159   2.060   3.326   0.654 -1.3363  0.4185  1.7199
  399DG      H6 9160   2.022   3.550  -0.050 -2.7593 -1.8103  1.5303
  399DG      H7 9161   1.888   3.663  -0.016 -0.8006 -2.6074  1.8931
  399DG      H8 9162   2.043   3.717  -0.071  0.7440 -1.0533 -0.5589
  399DG      O9 9163   1.986   3.471   0.507  0.0674  0.4795 -0.3599
  399DG     O10 9164   2.045   3.661   0.126  0.0300  0.1480 -0.1488
  399DG     C11 9165   2.012   3.582   0.582 -0.0025  0.4176 -1.1351
  399DG     C12 9166   2.013   3.793   0.175  0.3154  0.5820 -0.3854
  399DG     H13 9167   2.113   3.566   0.618 -0.2422 -0.5083 -0.8439
  399DG     H14 9168   1.941   3.592   0.664  0.6935  0.7757 -0.5724
  399DG     H15 9169   1.906   3.786   0.196  0.7368  0.3943  1.9138
  399DG     H16 9170   2.030   3.879   0.110  2.0817  0.2174 -0.4553
  399DG     C17 9171   1.990   3.707   0.502 -0.1817  0.0538 -0.3037
  399DG     C18 9172   2.076   3.813   0.314  0.2640 -0.1929  0.0756
  399DG     O19 9173   2.074   3.695   0.390 -0.3156 -0.2847 -0.1124
  399DG     H20 9174   2.014   3.795   0.563  0.8332  0.4420 -1.2351
  399DG     H21 9175   1.890   3.721   0.462  0.4919 -0.9439 -2.4996
  399DG     H22 9176   2.176   3.841   0.281  0.3714 -1.4807 -0.7853
  399DG     H23 9177   2.027   3.900   0.357 -0.9127  0.2215 -1.9448
  400DG      C1 9178   2.376   1.083   4.692  0.7578  0.4413 -0.7480
  400DG      C2 9179   2.474   1.635   4.489 -0.4095 -0.8442  0.4579
  400DG      H3 9180   2.285   1.142   4.686  0.2067 -0.3956 -0.7282
  400DG      H4 9181   2.417   1.097   4.792 -1.2033  0.0938  0.1521
  400DG      H5 9182   2.339   0.981   4.682 -1.7190  1.0667  0.9879
  400DG      H6 9183   2.367   1.620   4.505 -0.6952 -0.5369 -1.0142
  400DG      H7 9184   2.503   1.667   4.589  1.5128  0.5979 -0.4952
  400DG      H8 9185   2.495   1.715   4.418  0.2199 -1.2664  0.1658
  400DG      O9 9186   2.464   1.123   4.587 -0.5493 -0.1510  0.0930
  400DG     O10 9187   2.533   1.517   4.431 -0.2037 -0.6813  0.5415
  400DG     C11 9188   2.600   1.154   4.638  0.8492  0.0267 -0.0059
  400DG     C12 9189   2.666   1.508   4.426 -0.4418 -0.3927 -0.2865
  400DG     H13 9190   2.652   1.067   4.679 -0.7297 -1.2735 -0.6315
  400DG     H14 9191   2.590   1.220   4.723  0.5967  0.8695 -0.6808
  400DG     H15 9192   2.685   1.516   4.533 -1.4536  0.6310 -0.1623
  400DG     H16 9193   2.710   1.583   4.360  0.3194 -1.6541 -1.2560
  400DG     C17 9194   2.696   1.217   4.537 -0.0589 -0.6245  0.2875
  400DG     C18 9195   2.696   1.370   4.360 -0.3185 -0.2889  0.4420
  400DG     O19 9196   2.616   1.275   4.431 -0.4988  0.0246 -0.2135
  400DG     H20 9197   2.755   1.132   4.501 -0.7531 -1.1426  0.3388
  400DG     H21 9198   2.767   1.282   4.588 -1.0027  0.2190  0.5618
  400DG     H22 9199   2.654   1.367   4.259 -1.6932 -0.3858  0.9863
  400DG     H23 9200   2.803   1.361   4.341 -0.4731  2.1368 -2.2676
  401DG      C1 9201   1.446   1.083   1.340  0.1568 -0.0175 -0.1482
  401DG      C2 9202   1.895   1.446   1.015 -0.1536 -0.2977 -1.0555
  401DG      H3 9203   1.362   1.112   1.404 -0.1668  1.4200 -1.1868
  401DG      H4 9204   1.472   0.978   1.357 -1.2846 -0.6151 -1.3472
  401DG      H5 9205   1.413   1.088   1.236  0.2721 -2.2054 -0.3295
  401DG      H6 9206   1.968   1.380   0.967 -0.7467 -1.0739 -0.9179
  401DG      H7 9207   1.811   1.443   0.946  0.1056 -1.5144 -1.3567
  401DG      H8 9208   1.945   1.542   1.004  0.3437 -0.5566 -1.0719
  401DG      O9 9209   1.557   1.170   1.358 -0.4226  0.0448 -0.7435
  401DG     O10 9210   1.855   1.419   1.151 -0.2748  0.3347 -0.1439
  401DG     C11 9211   1.600   1.173   1.499 -0.5501  0.0498  0.5839
  401DG     C12 9212   1.956   1.395   1.250  0.3264 -0.3186  0.1590
  401DG     H13 9213   1.646   1.076   1.521  2.8225  1.7576  1.7588
  401DG     H14 9214   1.508   1.182   1.557 -1.3794 -0.6736 -0.5834
  401DG     H15 9215   2.029   1.476   1.243  0.8368 -0.8291 -0.5507
  401DG     H16 9216   2.003   1.299   1.234  0.5561 -0.2198  0.2432
  401DG     C17 9217   1.704   1.285   1.508  0.0830 -0.5559 -0.8101
  401DG     C18 9218   1.887   1.389   1.390 -0.4558  0.3246 -0.1792
  401DG     O19 9219   1.764   1.311   1.381  0.4330 -0.3966  0.0281
  401DG     H20 9220   1.777   1.263   1.586  2.1934  2.0492 -1.8664
  401DG     H21 9221   1.654   1.375   1.546 -0.5178 -0.6729 -1.3223
  401DG     H22 9222   1.953   1.340   1.462 -0.1591 -2.7776 -2.3736
  401DG     H23 9223   1.869   1.487   1.436 -0.3556  0.4046 -0.3091
  402DG      C1 9224   2.106   0.736   3.508 -0.5136  0.1433 -0.3034
  402DG      C2 9225   1.798   1.216   3.197  0.6184  0.4614  0.3748
  402DG      H3 9226   2.055   0.674   3.434 -3.7246  1.1929  0.8759
  402DG      H4 9227   2.045   0.738   3.598  0.7400 -0.0373  0.5760
  402DG      H5 9228   2.201   0.690   3.536 -1.9204 -1.2534  2.7107
  402DG      H6 9229   1.744   1.121   3.205  2.0783 -0.4966 -0.5801
  402DG      H7 9230   1.750   1.284   3.268  1.8578  0.2785  1.4267
  402DG      H8 9231   1.787   1.259   3.098  0.5994 -1.6699 -0.6146
  402DG      O9 9232   2.115   0.867   3.455  0.0788  0.0200 -0.3099
  402DG     O10 9233   1.934   1.179   3.213  0.1109  1.0956 -0.6137
  402DG     C11 9234   2.195   0.951   3.531 -0.6449 -0.0662 -0.1864
  402DG     C12 9235   2.014   1.290   3.273  0.0004  0.4576 -0.4444
  402DG     H13 9236   2.287   0.902   3.562  0.0937  1.7299  0.6365
  402DG     H14 9237   2.151   0.983   3.626  1.4701 -0.4245  0.9786
  402DG     H15 9238   1.963   1.327   3.361  0.1355 -0.3802 -0.0009
  402DG     H16 9239   2.033   1.367   3.198  0.2509 -1.1288 -2.0713
  402DG     C17 9240   2.243   1.078   3.453  0.7033 -0.5451 -0.4885
  402DG     C18 9241   2.149   1.238   3.314  0.2865  0.4345  0.2615
  402DG     O19 9242   2.125   1.132   3.405 -0.1475  0.4773  0.0400
  402DG     H20 9243   2.320   1.052   3.380  2.2502 -1.1846  1.2840
  402DG     H21 9244   2.293   1.143   3.525  2.2790 -0.9875 -1.1431
  402DG     H22 9245   2.213   1.210   3.231  2.3254 -0.1014  1.9446
  402DG     H23 9246   2.207   1.316   3.363  0.8884  0.0523  0.1595
  403DG      C1 9247   2.111   5.437   2.838  0.5273 -0.1539 -0.1573
  403DG      C2 9248   2.272   4.923   3.328  0.0388 -0.5530  0.8050
  403DG      H3 9249   2.202   5.470   2.788  0.5821  1.5347  0.9828
  403DG      H4 9250   2.103   5.512   2.916  1.7137 -0.1297 -0.0291
  403DG      H5 9251   2.035   5.447   2.760 -1.0055  0.8201  1.4132
  403DG      H6 9252   2.329   5.004   3.374  1.5385 -0.5455 -0.9361
  403DG      H7 9253   2.234   4.859   3.408  0.2457 -1.4110  0.2361
  403DG      H8 9254   2.351   4.866   3.279  1.1816  0.1378  1.7803
  403DG      O9 9255   2.118   5.302   2.889  0.6914 -0.5071 -0.2564
  403DG     O10 9256   2.187   4.970   3.225  0.3276 -0.2898 -0.1011
  403DG     C11 9257   2.127   5.204   2.787  0.0502  0.0015 -0.6427
  403DG     C12 9258   2.161   4.871   3.130  0.6694 -0.5670 -0.1639
  403DG     H13 9259   2.231   5.212   2.755 -0.3138  0.2779 -1.7985
  403DG     H14 9260   2.071   5.236   2.700  0.1984 -1.1076 -1.1603
  403DG     H15 9261   2.096   4.795   3.174  0.7687  0.3258  1.6151
  403DG     H16 9262   2.253   4.832   3.087  1.7829 -0.5761  2.0624
  403DG     C17 9263   2.096   5.061   2.833  0.3813  0.2779  0.0048
  403DG     C18 9264   2.084   4.924   3.018 -0.2876  0.0444 -0.5936
  403DG     O19 9265   2.145   5.031   2.961 -0.9109 -0.5874  0.4806
  403DG     H20 9266   2.134   4.983   2.767 -1.3208 -0.7340  0.1487
  403DG     H21 9267   1.989   5.043   2.825  0.3281  0.2607  0.6789
  403DG     H22 9268   2.065   4.837   2.955  3.2859 -2.8870  1.9573
  403DG     H23 9269   1.991   4.957   3.064 -0.1819 -0.9423  0.3484
  404DG      C1 9270   0.241   5.057   2.011 -0.5964 -0.4825 -0.3313
  404DG      C2 9271  -0.064   5.479   2.072  0.1672  0.1689 -0.3280
  404DG      H3 9272   0.319   5.000   1.961  0.6908  1.3142 -0.4421
  404DG      H4 9273   0.155   4.994   2.033  0.2507 -1.0395  1.6657
  404DG      H5 9274   0.277   5.101   2.104 -1.1977  1.9065 -1.1637
  404DG      H6 9275  -0.115   5.477   2.168  1.1532  0.2018  0.2076
  404DG      H7 9276  -0.141   5.478   1.995 -0.0081 -0.4527 -0.1455
  404DG      H8 9277  -0.012   5.385   2.055  0.8611  0.6382 -0.9060
  404DG      O9 9278   0.206   5.166   1.925  0.1653 -0.3172 -0.4144
  404DG     O10 9279   0.018   5.598   2.075  0.1096  0.1592  0.7949
  404DG     C11 9280   0.306   5.258   1.902  0.1191  0.1412  0.0290
  404DG     C12 9281   0.072   5.633   1.952  0.7350 -0.0629  0.5557
  404DG     H13 9282   0.402   5.206   1.899 -0.3312 -0.7602  0.9140
  404DG     H14 9283   0.308   5.319   1.993 -1.8444 -1.5692  1.2814
  404DG     H15 9284   0.097   5.739   1.946 -2.7821  0.8171 -1.7357
  404DG     H16 9285  -0.003   5.632   1.873 -1.0595  0.1322  2.1679
  404DG     C17 9286   0.255   5.357   1.793 -0.4336  0.4279 -0.5640
  404DG     C18 9287   0.191   5.539   1.909  0.4344 -0.2933 -0.5608
  404DG     O19 9288   0.145   5.436   1.836 -0.3291  0.1031  0.1756
  404DG     H20 9289   0.239   5.296   1.705  0.6140 -2.1869  0.9278
  404DG     H21 9290   0.337   5.424   1.768  0.5130 -0.4739  0.0310
  404DG     H22 9291   0.252   5.605   1.848  1.2081 -1.4820 -1.1242
  404DG     H23 9292   0.241   5.516   2.003 -1.4543 -0.5317  0.4309
  405DG      C1 9293   0.511   0.084   4.861 -1.0067 -0.1849  0.9488
  405DG      C2 9294   0.969  -0.345   5.118  0.3077  0.2123 -0.8577
  405DG      H3 9295   0.539   0.109   4.759 -1.0857 -0.2301  0.9159
  405DG      H4 9296   0.440   0.159   4.897 -1.7954 -0.5266  0.1434
  405DG      H5 9297   0.455  -0.009   4.866  1.9366 -2.1765 -0.4064
  405DG      H6 9298   1.010  -0.352   5.219 -0.1242  0.0847 -0.6897
  405DG      H7 9299   0.879  -0.406   5.118  0.3937  0.0813 -0.2550
  405DG      H8 9300   1.034  -0.377   5.036  0.9907 -3.2498  0.8602
  405DG      O9 9301   0.616   0.073   4.952  0.3200  0.1602  0.0127
  405DG     O10 9302   0.934  -0.210   5.094 -0.5317  0.0204 -0.1978
  405DG     C11 9303   0.694   0.190   4.970 -0.0416  0.0516 -0.0816
  405DG     C12 9304   1.040  -0.116   5.090 -0.9079  0.5223  0.2788
  405DG     H13 9305   0.620   0.264   5.000  2.4840  2.5185  0.5191
  405DG     H14 9306   0.740   0.225   4.877  0.5270 -2.3708 -0.7823
  405DG     H15 9307   1.087  -0.122   4.992 -1.5703 -0.3427 -0.0020
  405DG     H16 9308   1.116  -0.139   5.164 -1.0482  1.2223  0.6522
  405DG     C17 9309   0.812   0.173   5.069  0.6833 -0.2991  0.1477
  405DG     C18 9310   0.991   0.027   5.126 -0.0146  0.5100 -0.4295
  405DG     O19 9311   0.887   0.061   5.035  0.0418 -0.2216  0.2971
  405DG     H20 9312   0.778   0.161   5.172 -0.7405 -0.5225 -0.3312
  405DG     H21 9313   0.885   0.251   5.048 -1.1195  0.9766 -1.6874
  405DG     H22 9314   0.948   0.018   5.226  1.2644  0.9142  0.1768
  405DG     H23 9315   1.069   0.103   5.127  0.4854 -0.0020 -0.2747
  406DG      C1 9316   4.658   4.565   2.200  0.1702 -0.1296 -0.3197
  406DG      C2 9317   4.832   4.519   2.838 -0.0667 -0.4713 -0.0935
  406DG      H3 9318   4.743   4.500   2.176 -0.0366  0.0811 -1.7197
  406DG      H4 9319   4.687   4.661   2.157 -0.7685  0.2229 -0.1983
  406DG      H5 9320   4.579   4.528   2.134  0.5404  0.5358 -1.1471
  406DG      H6 9321   4.923   4.474   2.798  0.6208 -1.6135  2.5589
  406DG      H7 9322   4.850   4.560   2.937  1.5831  0.1821 -0.6283
  406DG      H8 9323   4.772   4.429   2.846 -0.1257 -0.3120  1.6882
  406DG      O9 9324   4.617   4.571   2.333  0.4154  0.1110 -0.0729
  406DG     O10 9325   4.774   4.606   2.747 -0.1248 -0.7186 -0.0386
  406DG     C11 9326   4.507   4.658   2.355  0.0291 -0.3408  0.1865
  406DG     C12 9327   4.636   4.628   2.788 -0.2222 -0.0214  0.0550
  406DG     H13 9328   4.414   4.632   2.304 -0.8102  2.2000  0.3239
  406DG     H14 9329   4.521   4.763   2.331 -1.2376  0.2060  1.6766
  406DG     H15 9330   4.626   4.656   2.893  0.8461 -0.4440  0.2841
  406DG     H16 9331   4.576   4.539   2.774 -0.1070 -0.3081  1.3293
  406DG     C17 9332   4.470   4.659   2.506  1.0548  0.6834  0.3413
  406DG     C18 9333   4.566   4.738   2.710 -0.3542  0.5648 -0.1613
  406DG     O19 9334   4.581   4.707   2.571 -0.0945  0.0250  0.4275
  406DG     H20 9335   4.447   4.559   2.542  1.1404 -0.0100 -1.4335
  406DG     H21 9336   4.388   4.728   2.527  1.8351  2.0461 -0.8809
  406DG     H22 9337   4.461   4.736   2.742 -0.4046 -0.0221 -0.3389
  406DG     H23 9338   4.613   4.832   2.739 -0.4434  0.4765  0.2806
  407DG      C1 9339   4.111   3.402   5.203  0.4212  0.0840  0.4367
  407DG      C2 9340   3.678   3.911   5.496  1.0737  0.4747 -0.4630
  407DG      H3 9341   4.112   3.393   5.312  0.7049 -0.0195  0.4265
  407DG      H4 9342   4.216   3.395   5.174 -0.1859 -1.3828 -1.6197
  407DG      H5 9343   4.063   3.318   5.153  2.0095 -0.8329  0.3817
  407DG      H6 9344   3.641   4.013   5.487  0.0383  0.0670 -0.8735
  407DG      H7 9345   3.692   3.886   5.601  1.5420 -1.8066 -1.0174
  407DG      H8 9346   3.780   3.898   5.460  1.5826 -2.5003  1.7072
  407DG      O9 9347   4.060   3.532   5.176 -0.5191  0.3729 -0.0679
  407DG     O10 9348   3.588   3.817   5.438  0.7786 -0.0965  0.5180
  407DG     C11 9349   3.934   3.559   5.236  0.3457 -0.4110  0.4367
  407DG     C12 9350   3.553   3.848   5.304  0.2954  0.2941  0.4438
  407DG     H13 9351   3.923   3.562   5.344 -1.7039 -0.3976  0.2596
  407DG     H14 9352   3.858   3.483   5.216  1.0272 -1.2558  0.9847
  407DG     H15 9353   3.524   3.951   5.282  2.7065  0.7242 -1.0727
  407DG     H16 9354   3.465   3.790   5.277 -1.3542  1.9461  2.0140
  407DG     C17 9355   3.874   3.705   5.190 -0.2830  0.0626  0.6914
  407DG     C18 9356   3.673   3.829   5.211  0.3065  0.9712 -0.2438
  407DG     O19 9357   3.757   3.726   5.264  0.4195 -0.1127  0.0650
  407DG     H20 9358   3.845   3.704   5.085  0.2732  0.6971  0.5324
  407DG     H21 9359   3.954   3.777   5.208  1.0104 -0.8003 -1.2512
  407DG     H22 9360   3.646   3.795   5.111  2.1775  1.3073 -0.9123
  407DG     H23 9361   3.738   3.916   5.205 -1.6183  2.6596  1.9738
  408DG      C1 9362   1.419   2.156   1.476 -0.2555  0.1765  0.3009
  408DG      C2 9363   1.810   1.920   1.989 -0.0400 -0.4682  0.2463
  408DG      H3 9364   1.487   2.150   1.391 -0.1144 -0.8458  0.4717
  408DG      H4 9365   1.331   2.214   1.451 -0.1676  0.1660 -0.0409
  408DG      H5 9366   1.394   2.050   1.487 -2.5207  0.8376  2.1319
  408DG      H6 9367   1.838   1.850   1.911 -0.6416 -1.0128  0.5037
  408DG      H7 9368   1.897   1.970   2.030  1.1142 -0.7684 -1.7040
  408DG      H8 9369   1.748   1.864   2.060 -0.6128  0.4348  0.4799
  408DG      O9 9370   1.493   2.201   1.588 -0.1778 -0.1437  0.6809
  408DG     O10 9371   1.722   2.016   1.935 -0.2216 -0.1413 -0.0576
  408DG     C11 9372   1.431   2.309   1.653  0.6949 -0.5092 -0.3422
  408DG     C12 9373   1.683   2.116   2.023  0.7206  0.3649  0.1988
  408DG     H13 9374   1.336   2.267   1.687  0.6190  0.0524  0.1514
  408DG     H14 9375   1.413   2.390   1.583 -1.8514 -0.0968  0.6778
  408DG     H15 9376   1.759   2.130   2.101  3.1855  0.9070 -2.1423
  408DG     H16 9377   1.599   2.094   2.089 -1.0076  2.7151 -1.0737
  408DG     C17 9378   1.498   2.341   1.786 -0.2094  0.1900  0.4110
  408DG     C18 9379   1.641   2.244   1.953  0.5723  0.3222  0.2892
  408DG     O19 9380   1.554   2.221   1.845  0.4379 -0.1366 -0.1146
  408DG     H20 9381   1.437   2.395   1.860 -1.3211 -0.1870 -0.1985
  408DG     H21 9382   1.581   2.410   1.771  0.8963 -0.5780  2.5975
  408DG     H22 9383   1.595   2.310   2.026 -0.8657 -0.0244 -0.2818
  408DG     H23 9384   1.733   2.292   1.917  1.1040  0.6429  1.9570
  409DG      C1 9385   3.833   2.857   0.441  0.0445  0.0773  0.5047
  409DG      C2 9386   4.199   3.055   0.967 -0.1632 -0.1058 -0.3564
  409DG      H3 9387   3.742   2.834   0.498 -0.6937 -0.6772 -0.9183
  409DG      H4 9388   3.877   2.758   0.426  1.8320  0.9001  0.1125
  409DG      H5 9389   3.811   2.883   0.338  0.7111  0.9084  0.5665
  409DG      H6 9390   4.138   2.985   1.024  0.6109 -0.6646 -0.1967
  409DG      H7 9391   4.276   2.994   0.921 -1.2872 -0.3935 -1.9331
  409DG      H8 9392   4.254   3.121   1.034 -1.5113 -0.3114  1.0047
  409DG      O9 9393   3.926   2.944   0.495 -0.0702  0.1542 -0.3071
  409DG     O10 9394   4.117   3.133   0.877 -0.0091 -0.2377  0.3472
  409DG     C11 9395   4.009   3.014   0.406  0.5592 -0.0141 -0.4705
  409DG     C12 9396   4.188   3.214   0.785 -0.0956 -0.2239 -0.4790
  409DG     H13 9397   3.959   3.106   0.377  0.6089  0.3692  0.5918
  409DG     H14 9398   4.029   2.958   0.315  1.5698 -0.9442  0.2942
  409DG     H15 9399   4.273   3.254   0.839  0.5222 -0.8450 -0.9791
  409DG     H16 9400   4.134   3.307   0.768  0.5110  0.2208  0.0126
  409DG     C17 9401   4.145   3.045   0.458  1.1365 -0.4950 -0.9901
  409DG     C18 9402   4.234   3.142   0.655 -0.0522 -0.7381  0.2475
  409DG     O19 9403   4.119   3.100   0.586  0.0595  0.1692  0.2254
  409DG     H20 9404   4.202   3.109   0.390  2.0501 -1.3771 -1.0684
  409DG     H21 9405   4.199   2.953   0.480 -0.3938 -1.3668 -0.6993
  409DG     H22 9406   4.286   3.215   0.594  1.6772 -2.2578 -0.2161
  409DG     H23 9407   4.305   3.061   0.676  0.1649 -0.3596  1.0363
  410DG      C1 9408   2.728   3.818   4.457 -0.1517 -0.2291  0.7422
  410DG      C2 9409   2.593   4.311   3.961 -0.3491  0.1450 -0.6661
  410DG      H3 9410   2.806   3.743   4.446  1.1792  1.1674  0.3454
  410DG      H4 9411   2.647   3.782   4.520 -1.2662  0.7994 -0.0519
  410DG      H5 9412   2.776   3.899   4.512  0.7073 -0.6339  0.5994
  410DG      H6 9413   2.623   4.338   3.860  0.4322  0.4165 -0.3682
  410DG      H7 9414   2.504   4.370   3.984 -0.7990 -1.0449  0.8169
  410DG      H8 9415   2.680   4.343   4.019  0.3595 -0.5093 -1.3493
  410DG      O9 9416   2.691   3.859   4.324  0.3713  0.2275 -0.0003
  410DG     O10 9417   2.556   4.176   3.962 -0.2538  0.1566 -0.3288
  410DG     C11 9418   2.613   3.759   4.264  0.0318 -0.6686  0.2023
  410DG     C12 9419   2.649   4.085   3.909  0.0171  0.1800 -0.0454
  410DG     H13 9420   2.518   3.772   4.314  0.4297 -0.6545  0.9694
  410DG     H14 9421   2.655   3.661   4.286 -2.5876 -1.7057  0.9839
  410DG     H15 9422   2.746   4.108   3.953  1.0488  0.3657 -2.3071
  410DG     H16 9423   2.659   4.114   3.804 -2.7735 -2.3786 -1.1663
  410DG     C17 9424   2.615   3.775   4.108  0.4202  0.3761 -0.0241
  410DG     C18 9425   2.608   3.937   3.930 -0.0754  0.3867 -0.4087
  410DG     O19 9426   2.600   3.909   4.071  0.3499 -0.1695  0.4537
  410DG     H20 9427   2.543   3.709   4.062 -0.2775 -1.2001  3.0444
  410DG     H21 9428   2.716   3.748   4.077  0.3859  1.1002 -0.8046
  410DG     H22 9429   2.513   3.906   3.886 -0.6502  0.0848  0.9735
  410DG     H23 9430   2.687   3.881   3.880 -1.0588 -0.6880 -0.8030
  411DG      C1 9431   4.857   2.356   0.496 -0.1148 -0.4395 -0.8120
  411DG      C2 9432   4.601   1.584   0.753  0.2091 -0.1996  0.7485
  411DG      H3 9433   4.835   2.409   0.403 -2.2473 -0.3915 -0.3306
  411DG      H4 9434   4.963   2.377   0.504  0.0050 -1.2657 -0.1670
  411DG      H5 9435   4.811   2.408   0.580 -2.3886 -0.2520 -2.0777
  411DG      H6 9436   4.542   1.593   0.844 -0.2563  1.6350  0.3015
  411DG      H7 9437   4.571   1.487   0.713 -2.3758  0.9360 -0.2872
  411DG      H8 9438   4.706   1.593   0.782 -0.4249  0.0739  3.1541
  411DG      O9 9439   4.820   2.220   0.486  0.5583  0.1475 -0.7063
  411DG     O10 9440   4.557   1.674   0.654 -0.3936 -0.1049  0.4667
  411DG     C11 9441   4.697   2.196   0.421  0.0076  0.0185  0.1488
  411DG     C12 9442   4.618   1.800   0.667 -0.1606  0.3623  0.0616
  411DG     H13 9443   4.718   2.232   0.320 -0.4733 -0.3388 -0.0828
  411DG     H14 9444   4.618   2.255   0.469  0.5503  0.2268  0.8055
  411DG     H15 9445   4.726   1.800   0.680 -0.1506 -2.2961  0.4426
  411DG     H16 9446   4.586   1.859   0.754 -0.2654 -1.5664  1.3899
  411DG     C17 9447   4.656   2.053   0.405  0.3577 -0.4761 -0.1915
  411DG     C18 9448   4.594   1.861   0.526  0.6793  0.4922  0.0181
  411DG     O19 9449   4.645   1.988   0.532 -0.7219  0.1039 -0.7621
  411DG     H20 9450   4.728   1.999   0.344  0.9535 -0.6814  0.6717
  411DG     H21 9451   4.563   2.053   0.347  0.3930  2.4210 -0.3734
  411DG     H22 9452   4.622   1.799   0.441 -2.7149 -0.7353 -0.3588
  411DG     H23 9453   4.486   1.871   0.511  0.5095  0.8646  1.4003
  412DG      C1 9454   3.943   1.311   1.005 -0.3135  0.7288  0.2182
  412DG      C2 9455   3.747   0.931   1.472 -0.5258 -0.2227 -0.2533
  412DG      H3 9456   3.982   1.394   1.063  1.4665  0.9736 -1.2225
  412DG      H4 9457   3.941   1.338   0.899 -1.0722  1.4618  0.4093
  412DG      H5 9458   4.017   1.233   1.018  2.2348  3.0962  0.6899
  412DG      H6 9459   3.812   0.970   1.550 -1.2103  0.4875 -0.0268
  412DG      H7 9460   3.671   0.871   1.523 -1.8073  0.3678 -1.4227
  412DG      H8 9461   3.798   0.857   1.410 -3.4152 -2.4645 -0.2043
  412DG      O9 9462   3.821   1.265   1.045  0.4774  0.2937 -0.7182
  412DG     O10 9463   3.682   1.030   1.397  0.5551 -0.3764  0.0797
  412DG     C11 9464   3.754   1.182   0.956 -0.1472 -0.7900  0.5292
  412DG     C12 9465   3.561   0.981   1.340  0.1450 -0.6754 -0.1782
  412DG     H13 9466   3.819   1.094   0.953 -0.6732 -1.4754  4.0927
  412DG     H14 9467   3.730   1.230   0.861  1.3753 -0.6786  0.1732
  412DG     H15 9468   3.483   0.982   1.416 -0.6687  1.0427 -0.9664
  412DG     H16 9469   3.583   0.888   1.288  1.6235 -0.5363  0.1502
  412DG     C17 9470   3.620   1.155   1.026 -0.1995 -0.3030 -0.5306
  412DG     C18 9471   3.527   1.080   1.227 -0.8462  0.4027 -0.1186
  412DG     O19 9472   3.643   1.094   1.149  0.4087 -0.1699 -0.0666
  412DG     H20 9473   3.560   1.080   0.974 -2.6956  0.7993  0.6056
  412DG     H21 9474   3.555   1.242   1.035 -0.7293 -0.3798 -2.9668
  412DG     H22 9475   3.449   1.050   1.157  0.2484  1.4336 -1.8560
  412DG     H23 9476   3.514   1.181   1.265 -0.4517  1.0592 -1.6615
  413DG      C1 9477   4.150   0.954   1.790 -0.7280 -0.6924  0.1753
  413DG      C2 9478   4.552   0.426   1.854 -0.7145  0.1737 -0.2003
  413DG      H3 9479   4.091   0.902   1.715  0.4833 -1.1473 -0.4944
  413DG      H4 9480   4.094   1.029   1.847  0.5671  1.4941 -1.2746
  413DG      H5 9481   4.184   0.878   1.860 -1.4475  0.5311  1.9419
  413DG      H6 9482   4.532   0.394   1.752  3.2075 -0.0031 -1.0754
  413DG      H7 9483   4.583   0.336   1.909 -0.9115  1.1095  1.5160
  413DG      H8 9484   4.458   0.460   1.896  0.0115  0.6213  1.1481
  413DG      O9 9485   4.264   1.008   1.722  0.1512  0.2737  0.3136
  413DG     O10 9486   4.661   0.514   1.879 -0.0850 -0.0879  0.1890
  413DG     C11 9487   4.371   1.049   1.800  0.3768  0.8320  0.1814
  413DG     C12 9488   4.636   0.629   1.810  0.0086 -0.1983  0.1929
  413DG     H13 9489   4.341   1.136   1.859  1.4070  1.5756 -0.3765
  413DG     H14 9490   4.439   1.091   1.726  1.3271 -0.8442  0.0623
  413DG     H15 9491   4.586   0.605   1.716 -0.5842 -1.7223  0.8596
  413DG     H16 9492   4.723   0.694   1.797  0.0436 -0.2598  0.1144
  413DG     C17 9493   4.449   0.949   1.885 -0.2179 -0.6668 -0.3806
  413DG     C18 9494   4.542   0.725   1.895  0.0597  0.4970 -0.7917
  413DG     O19 9495   4.479   0.829   1.819  0.1183  0.0031  0.7915
  413DG     H20 9496   4.394   0.907   1.969 -0.0693  0.1026  0.1130
  413DG     H21 9497   4.546   0.987   1.917 -0.7339  0.2158  0.1760
  413DG     H22 9498   4.453   0.688   1.948 -0.0983  2.5441  0.5099
  413DG     H23 9499   4.602   0.769   1.974  1.2724 -1.8594 -0.3074
  414DG      C1 9500   1.369   0.125   4.904 -0.1918 -0.4646 -0.0587
  414DG      C2 9501   1.394   0.795   5.170  0.2776 -0.2996 -0.0065
  414DG      H3 9502   1.387   0.075   4.809 -3.0145  1.1207 -1.5381
  414DG      H4 9503   1.295   0.077   4.968 -2.5510  0.2816 -2.0891
  414DG      H5 9504   1.467   0.128   4.951  0.2718  2.4355 -0.9712
  414DG      H6 9505   1.412   0.738   5.261 -0.3937 -0.2187  0.1749
  414DG      H7 9506   1.493   0.819   5.130  1.2389 -0.9265  1.8740
  414DG      H8 9507   1.343   0.889   5.185  0.4290 -0.0640 -0.8885
  414DG      O9 9508   1.321   0.262   4.894  0.3043 -0.1092  0.0089
  414DG     O10 9509   1.337   0.716   5.066  0.0339  0.0434  0.1698
  414DG     C11 9510   1.192   0.269   4.826  0.2079  1.3600  0.1727
  414DG     C12 9511   1.190   0.707   5.071 -0.2024  0.4312  0.8336
  414DG     H13 9512   1.126   0.201   4.879  1.5693  1.3951  2.0289
  414DG     H14 9513   1.200   0.221   4.729  0.8543 -0.5298  1.1176
  414DG     H15 9514   1.138   0.803   5.072 -0.0878  0.5130  2.5640
  414DG     H16 9515   1.159   0.666   5.167  0.6096  2.1685  1.9026
  414DG     C17 9516   1.151   0.426   4.827 -0.1939 -0.0944 -0.0129
  414DG     C18 9517   1.138   0.628   4.952  0.4353  0.8840 -0.3100
  414DG     O19 9518   1.182   0.491   4.953  0.3994 -0.1170 -0.1651
  414DG     H20 9519   1.043   0.431   4.811  0.0308 -0.2564 -1.7998
  414DG     H21 9520   1.212   0.471   4.748  0.5201 -2.3697 -0.8494
  414DG     H22 9521   1.030   0.637   4.944  0.1293 -1.9595 -0.5818
  414DG     H23 9522   1.192   0.676   4.870  1.8724 -0.2139 -0.0422
  415DG      C1 9523   0.215   1.181   5.110  0.4509 -0.5391  0.0161
  415DG      C2 9524   0.791   1.705   5.473 -0.6195 -0.3679  0.2773
  415DG      H3 9525   0.141   1.197   5.188 -0.0858 -1.0974 -0.3676
  415DG      H4 9526   0.162   1.145   5.022 -0.6813  2.7529 -0.7956
  415DG      H5 9527   0.240   1.284   5.084  0.1568  0.1287  2.1430
  415DG      H6 9528   0.788   1.813   5.486 -0.6719 -0.5068  1.6155
  415DG      H7 9529   0.777   1.657   5.570 -1.9623 -0.3111  0.1314
  415DG      H8 9530   0.885   1.674   5.428 -0.7670  0.4511 -0.6149
  415DG      O9 9531   0.316   1.097   5.157  0.0264  0.3377 -0.0238
  415DG     O10 9532   0.696   1.641   5.385  0.0417  0.2851 -0.3591
  415DG     C11 9533   0.394   1.151   5.262  0.5179 -0.0500  0.2470
  415DG     C12 9534   0.682   1.503   5.408  0.2334  0.9193 -0.7801
  415DG     H13 9535   0.446   1.069   5.312 -1.3163 -0.6911  1.2294
  415DG     H14 9536   0.336   1.183   5.349  0.9104 -1.3528  1.0193
  415DG     H15 9537   0.628   1.491   5.502 -1.6431  1.1851 -1.7792
  415DG     H16 9538   0.779   1.454   5.421 -1.0189 -1.6858 -0.6749
  415DG     C17 9539   0.481   1.262   5.206 -0.4394  0.2563  0.2617
  415DG     C18 9540   0.613   1.436   5.289  0.9057 -0.1318  0.1437
  415DG     O19 9541   0.572   1.303   5.307 -0.1604 -0.0456  0.6105
  415DG     H20 9542   0.426   1.351   5.175  1.6310  1.6691  0.4836
  415DG     H21 9543   0.527   1.223   5.116  0.2281 -2.1206  1.5483
  415DG     H22 9544   0.526   1.500   5.276  1.2739  0.3178 -0.1397
  415DG     H23 9545   0.663   1.443   5.192 -0.8332 -0.4550 -0.8097
  416DG      C1 9546   4.287   0.132   3.839  0.1685 -0.3926 -0.6430
  416DG      C2 9547   3.677   0.707   3.385 -0.7731 -0.4829  0.8137
  416DG      H3 9548   4.326   0.134   3.941  1.1149 -0.9687 -0.9857
  416DG      H4 9549   4.378   0.134   3.780 -0.5905  0.4757 -1.8523
  416DG      H5 9550   4.242   0.033   3.833 -1.0464 -0.0396  1.5226
  416DG      H6 9551   3.621   0.645   3.316 -1.8343  2.0528 -0.7341
  416DG      H7 9552   3.599   0.771   3.426  0.4302  1.2815  0.4638
  416DG      H8 9553   3.752   0.769   3.336  1.0368 -1.7765  1.7883
  416DG      O9 9554   4.198   0.238   3.826  0.1588  0.2709  0.0936
  416DG     O10 9555   3.736   0.627   3.484  0.0573 -0.6895  0.1120
  416DG     C11 9556   4.133   0.246   3.696 -0.0971  0.2416  0.7942
  416DG     C12 9557   3.855   0.555   3.450  0.4459 -0.3162  0.4070
  416DG     H13 9558   4.073   0.157   3.679 -0.1339  0.6124 -1.3734
  416DG     H14 9559   4.198   0.262   3.609 -0.2251 -0.2957  0.5911
  416DG     H15 9560   3.932   0.611   3.395 -0.8046  1.4221  0.3506
  416DG     H16 9561   3.820   0.466   3.398 -1.4970  0.7740 -0.2830
  416DG     C17 9562   4.045   0.367   3.706  0.1949  1.6215  0.1950
  416DG     C18 9563   3.915   0.517   3.585  0.1979  0.3786  0.3564
  416DG     O19 9564   3.992   0.394   3.576  0.5380 -0.1719  0.1399
  416DG     H20 9565   4.111   0.452   3.724  3.3548 -0.6397  0.2327
  416DG     H21 9566   3.965   0.354   3.779  0.0718  2.4071  0.2029
  416DG     H22 9567   3.966   0.598   3.638  0.7906  0.0346  0.3302
  416DG     H23 9568   3.831   0.489   3.649 -0.4389  1.0179 -0.1868
  417DG      C1 9569   3.080   0.460   4.481 -0.6128 -0.3288  0.1897
  417DG      C2 9570   2.544   0.683   4.177 -0.6747  0.3537 -0.3825
  417DG      H3 9571   3.147   0.425   4.559 -0.7217 -2.0542 -0.4306
  417DG      H4 9572   3.140   0.541   4.439 -0.2102 -0.5022  0.4318
  417DG      H5 9573   3.061   0.382   4.407 -3.3340 -0.1803  0.6334
  417DG      H6 9574   2.467   0.612   4.150  2.5828 -3.1054 -1.3459
  417DG      H7 9575   2.503   0.784   4.178  0.0998  0.8925  4.4172
  417DG      H8 9576   2.619   0.676   4.098  1.1546  0.7648  1.2346
  417DG      O9 9577   2.956   0.522   4.519 -0.2007  0.0401 -0.0835
  417DG     O10 9578   2.610   0.658   4.298 -0.4072 -0.1662 -0.0341
  417DG     C11 9579   2.889   0.440   4.618  0.0398  0.2136 -0.3217
  417DG     C12 9580   2.527   0.654   4.412  1.0640 -0.2935 -1.2973
  417DG     H13 9581   2.940   0.422   4.712 -1.5482 -0.3189  0.4876
  417DG     H14 9582   2.863   0.345   4.570 -1.2784 -0.0898  0.9022
  417DG     H15 9583   2.465   0.564   4.413  1.5588 -0.6546  0.1382
  417DG     H16 9584   2.449   0.729   4.422  0.9143 -0.6656  0.8476
  417DG     C17 9585   2.762   0.503   4.662 -0.0959 -0.2317  0.5718
  417DG     C18 9586   2.609   0.643   4.541 -0.3216 -0.2543 -0.0226
  417DG     O19 9587   2.711   0.546   4.533  0.0187 -0.0867 -0.3003
  417DG     H20 9588   2.786   0.583   4.732 -0.7337 -1.0982  1.8189
  417DG     H21 9589   2.691   0.429   4.700  0.6921 -3.3360 -3.3853
  417DG     H22 9590   2.656   0.735   4.575  0.4460 -1.3088  1.9299
  417DG     H23 9591   2.540   0.622   4.623 -0.5831 -1.0430 -0.4343
  418DG      C1 9592   0.782   1.892   2.476 -0.3594 -0.0627  1.1256
  418DG      C2 9593   0.553   2.410   2.686  0.1177 -0.0384 -0.7472
  418DG      H3 9594   0.729   1.833   2.401  0.0213 -0.6109  1.2804
  418DG      H4 9595   0.863   1.833   2.520 -1.5289 -1.5461  1.3582
  418DG      H5 9596   0.827   1.980   2.430 -0.0742  0.7380  2.8558
  418DG      H6 9597   0.514   2.393   2.586 -2.7242 -1.3263  0.4890
  418DG      H7 9598   0.536   2.511   2.724  1.0680 -0.2049  0.1593
  418DG      H8 9599   0.656   2.374   2.685 -0.0103 -0.4712  0.3144
  418DG      O9 9600   0.702   1.940   2.582 -0.6357  0.0958  0.4742
  418DG     O10 9601   0.474   2.337   2.782 -0.5384 -0.0585  0.0091
  418DG     C11 9602   0.595   2.027   2.546  0.3598 -0.1307  0.3031
  418DG     C12 9603   0.562   2.295   2.890 -0.0908 -0.3797  0.2149
  418DG     H13 9604   0.516   1.983   2.486  2.1781 -3.3261  0.0010
  418DG     H14 9605   0.633   2.122   2.509  0.5597  0.1067  1.0942
  418DG     H15 9606   0.517   2.330   2.983 -0.5129 -0.4075  0.0244
  418DG     H16 9607   0.660   2.340   2.906 -1.0542  1.3451  1.5578
  418DG     C17 9608   0.522   2.062   2.676 -0.2886 -0.3924  0.2296
  418DG     C18 9609   0.567   2.143   2.894 -0.0158  0.7027  0.1808
  418DG     O19 9610   0.621   2.110   2.768 -0.1849  0.4076  1.0442
  418DG     H20 9611   0.476   1.970   2.713 -0.2118 -0.9396 -0.9923
  418DG     H21 9612   0.445   2.131   2.643 -0.2284  0.4961  1.8365
  418DG     H22 9613   0.641   2.109   2.967 -2.3000 -0.8341  1.8946
  418DG     H23 9614   0.470   2.104   2.924 -0.6974  1.4782 -0.9310
  419DG      C1 9615   4.959   1.823   3.317 -0.1082 -0.3179  0.8472
  419DG      C2 9616   4.666   1.343   3.182  0.3026  0.7287 -0.0188
  419DG      H3 9617   4.929   1.928   3.322 -1.0898 -0.4493 -1.1790
  419DG      H4 9618   4.964   1.822   3.208  2.2076 -2.7179  0.8869
  419DG      H5 9619   5.065   1.817   3.343 -0.2000 -0.9436  1.0954
  419DG      H6 9620   4.631   1.427   3.122  0.3882  1.1687  0.5378
  419DG      H7 9621   4.765   1.310   3.151 -0.3448 -2.0298  0.6321
  419DG      H8 9622   4.617   1.247   3.167 -0.8087  0.8921  2.1588
  419DG      O9 9623   4.869   1.731   3.375 -0.2980  0.3207 -0.2195
  419DG     O10 9624   4.690   1.403   3.307  0.2454 -0.4792  0.0432
  419DG     C11 9625   4.861   1.766   3.515  0.5986  0.9442 -0.1460
  419DG     C12 9626   4.564   1.436   3.366  0.2985  0.3160 -0.7462
  419DG     H13 9627   4.813   1.861   3.540 -0.0010  0.6042  0.0402
  419DG     H14 9628   4.962   1.764   3.556  1.0411  1.6575 -1.1657
  419DG     H15 9629   4.508   1.345   3.388 -0.1849  0.8059  0.1035
  419DG     H16 9630   4.490   1.495   3.313 -0.7962  0.2207  0.6051
  419DG     C17 9631   4.773   1.650   3.566  0.1612 -0.2868 -0.0088
  419DG     C18 9632   4.586   1.514   3.495 -0.8004  0.3028 -0.7052
  419DG     O19 9633   4.655   1.638   3.487 -0.0630 -0.1197  0.5703
  419DG     H20 9634   4.721   1.667   3.661 -2.3294 -2.2823 -0.9004
  419DG     H21 9635   4.839   1.564   3.568  0.8004  0.1720 -1.0864
  419DG     H22 9636   4.495   1.524   3.553 -0.8811 -2.6892 -0.1271
  419DG     H23 9637   4.653   1.452   3.555  0.9938  1.7540 -1.1346
  420DG      C1 9638   1.648   1.856   1.441 -0.4886  0.2689  0.1463
  420DG      C2 9639   1.110   1.704   1.857  0.0150 -0.2156 -0.0346
  420DG      H3 9640   1.615   1.931   1.369  0.7745 -0.1673 -0.9278
  420DG      H4 9641   1.678   1.761   1.396  0.8918  0.3860  0.7843
  420DG      H5 9642   1.740   1.898   1.481 -1.2197  1.2505  0.8306
  420DG      H6 9643   1.099   1.601   1.821  1.9835  0.2587 -2.3222
  420DG      H7 9644   1.175   1.681   1.941  0.4855  1.9680  0.2566
  420DG      H8 9645   1.020   1.731   1.912 -0.2559 -0.1352 -0.5147
  420DG      O9 9646   1.549   1.837   1.537  0.3858 -0.2431 -0.0352
  420DG     O10 9647   1.168   1.790   1.769  0.6602 -0.0123 -0.2151
  420DG     C11 9648   1.581   1.734   1.631 -0.1434  0.4618 -0.4566
  420DG     C12 9649   1.219   1.914   1.821 -0.2651  0.8541  0.4145
  420DG     H13 9650   1.679   1.759   1.671 -0.9157 -0.2375  2.1072
  420DG     H14 9651   1.574   1.641   1.575 -1.4043 -0.1928  0.7362
  420DG     H15 9652   1.144   1.942   1.895 -0.9152 -2.3769  1.1118
  420DG     H16 9653   1.211   1.986   1.739 -0.3170 -3.0395 -3.3357
  420DG     C17 9654   1.488   1.738   1.747  0.1776 -1.2160  0.6491
  420DG     C18 9655   1.360   1.897   1.882  1.4229  0.2702 -0.3240
  420DG     O19 9656   1.460   1.876   1.788 -0.3746 -0.1065  0.0824
  420DG     H20 9657   1.525   1.695   1.840 -1.4792 -0.3185  1.7947
  420DG     H21 9658   1.404   1.675   1.720 -0.6517  0.1421 -0.0585
  420DG     H22 9659   1.360   1.992   1.935  2.1512  0.4617 -0.6515
  420DG     H23 9660   1.355   1.815   1.954  0.6894  0.8103  0.2519
  421DG      C1 9661   0.530   0.042   2.148  0.1911  0.1010  0.1407
  421DG      C2 9662   0.741   0.321   2.737  0.1720  0.2904 -0.8154
  421DG      H3 9663   0.480  -0.023   2.076  1.5064 -1.4841  0.6121
  421DG      H4 9664   0.632   0.012   2.125 -0.1835 -1.1827  0.0690
  421DG      H5 9665   0.516   0.147   2.122 -0.1764 -0.0418 -0.2481
  421DG      H6 9666   0.687   0.411   2.769  1.0718  0.5565  0.0062
  421DG      H7 9667   0.780   0.271   2.826  1.1146  2.2451 -0.0719
  421DG      H8 9668   0.832   0.344   2.681  0.7082 -0.6073 -0.3336
  421DG      O9 9669   0.505   0.012   2.290 -0.0680 -0.5770  0.3243
  421DG     O10 9670   0.656   0.219   2.679  0.1982 -0.1124  0.0564
  421DG     C11 9671   0.371   0.036   2.335 -0.5548 -0.2702  0.0217
  421DG     C12 9672   0.534   0.202   2.748 -0.4102 -0.3756 -0.3666
  421DG     H13 9673   0.306  -0.037   2.287 -1.5160  0.2679  0.4725
  421DG     H14 9674   0.340   0.137   2.311  0.3993  0.4954  1.7607
  421DG     H15 9675   0.471   0.290   2.740  1.7390  1.1776 -0.9370
  421DG     H16 9676   0.549   0.177   2.853  2.0913  2.2938  0.0100
  421DG     C17 9677   0.364   0.011   2.484 -0.4614  0.1321  0.2024
  421DG     C18 9678   0.451   0.092   2.687 -0.1069 -0.5101 -0.0886
  421DG     O19 9679   0.428   0.118   2.549 -0.5965  0.2777  0.8358
  421DG     H20 9680   0.414  -0.084   2.503  1.7339  0.8795 -1.3981
  421DG     H21 9681   0.256   0.001   2.496 -1.0232  1.3229 -2.8679
  421DG     H22 9682   0.520   0.008   2.694  1.0786  0.4456 -0.0810
  421DG     H23 9683   0.364   0.062   2.746 -0.1094  1.2236  0.8349
  422DG      C1 9684   2.613   4.660   4.574 -0.3081  0.5947  0.1590
  422DG      C2 9685   2.891   4.541   3.862 -0.4555 -0.1224 -0.7381
  422DG      H3 9686   2.614   4.553   4.554  0.6523  0.7075 -0.4947
  422DG      H4 9687   2.509   4.680   4.599  0.0180 -0.7302  2.9651
  422DG      H5 9688   2.678   4.677   4.660  0.1258  1.1058 -0.2625
  422DG      H6 9689   2.928   4.441   3.886  1.3869  1.1117  2.0647
  422DG      H7 9690   2.783   4.544   3.850 -0.7128  0.1630  1.2704
  422DG      H8 9691   2.943   4.573   3.772  1.7585 -0.6727  0.2644
  422DG      O9 9692   2.669   4.720   4.454  0.5996  0.2379 -0.3443
  422DG     O10 9693   2.927   4.632   3.962  0.1573 -0.7765  0.2020
  422DG     C11 9694   2.807   4.692   4.440  0.4136  1.1802 -0.1112
  422DG     C12 9695   2.856   4.751   3.962  0.3130 -0.2139 -0.7598
  422DG     H13 9696   2.843   4.591   4.423  0.3746  0.5440  2.9350
  422DG     H14 9697   2.868   4.737   4.519 -0.0822  0.1768  0.8768
  422DG     H15 9698   2.751   4.723   3.952  0.3016 -0.2464 -0.5614
  422DG     H16 9699   2.890   4.818   3.883  1.0501  0.3557  0.0144
  422DG     C17 9700   2.861   4.779   4.328  0.2512  0.1061 -0.4774
  422DG     C18 9701   2.876   4.820   4.098 -0.4430  0.2860  0.5466
  422DG     O19 9702   2.828   4.735   4.198  0.1304  0.2693 -0.1772
  422DG     H20 9703   2.970   4.778   4.337  0.4507  1.2435 -2.1879
  422DG     H21 9704   2.830   4.883   4.343  0.3651 -0.0236  0.7814
  422DG     H22 9705   2.980   4.846   4.117  0.3189 -1.8566 -0.2849
  422DG     H23 9706   2.823   4.915   4.098  0.5542  0.9210  2.8319
  423DG      C1 9707   4.184   5.252   1.474  0.7015  0.2058 -0.4838
  423DG      C2 9708   4.471   5.268   0.737  0.2004 -0.7095 -0.5203
  423DG      H3 9709   4.233   5.155   1.480  1.7151  0.7193 -0.3030
  423DG      H4 9710   4.077   5.236   1.461  0.8887  0.1713 -2.2068
  423DG      H5 9711   4.194   5.304   1.569  3.2760 -1.1161  0.0712
  423DG      H6 9712   4.445   5.332   0.653  1.2089 -1.0794 -1.1295
  423DG      H7 9713   4.560   5.233   0.685  0.5587  0.6405 -0.8446
  423DG      H8 9714   4.400   5.189   0.763  1.0610 -1.8958 -1.6369
  423DG      O9 9715   4.240   5.325   1.357  0.1953 -1.1206 -0.1016
  423DG     O10 9716   4.510   5.340   0.855  0.2422 -0.1175 -0.3760
  423DG     C11 9717   4.373   5.355   1.375  0.1108  0.1217 -0.6599
  423DG     C12 9718   4.402   5.425   0.894 -0.6617 -0.0652  0.4235
  423DG     H13 9719   4.443   5.272   1.379 -0.6532 -0.6163 -1.8233
  423DG     H14 9720   4.388   5.402   1.472 -0.7717  0.5134 -0.6999
  423DG     H15 9721   4.304   5.376   0.901 -2.1892  2.8144  0.5932
  423DG     H16 9722   4.384   5.510   0.828 -2.2543 -1.9194 -1.6855
  423DG     C17 9723   4.405   5.453   1.271  0.4126 -0.0179  0.3710
  423DG     C18 9724   4.425   5.484   1.031  0.1951 -0.1525  0.1127
  423DG     O19 9725   4.410   5.394   1.138  0.3907 -0.3259  0.7133
  423DG     H20 9726   4.499   5.497   1.303 -0.0211  0.2174  1.3479
  423DG     H21 9727   4.322   5.523   1.277  2.5361  2.5367  2.2067
  423DG     H22 9728   4.520   5.536   1.038  0.2095 -0.1547 -0.0478
  423DG     H23 9729   4.347   5.556   1.057  1.4153  2.1056 -2.0112
  424DG      C1 9730   2.506   2.710   0.367  0.5596 -0.2932  0.2346
  424DG      C2 9731   1.855   2.482   0.392 -0.3049  0.0108 -0.0872
  424DG      H3 9732   2.460   2.808   0.365  2.5281  0.7077  1.0988
  424DG      H4 9733   2.558   2.704   0.271  0.1648  1.2045 -0.1015
  424DG      H5 9734   2.577   2.727   0.448  0.4011  0.4571  0.2207
  424DG      H6 9735   1.768   2.435   0.437 -0.7800 -0.7190 -1.7012
  424DG      H7 9736   1.836   2.584   0.360  0.9014  0.2361 -0.1429
  424DG      H8 9737   1.880   2.423   0.304  1.4465 -2.1876  1.7656
  424DG      O9 9738   2.393   2.620   0.386  1.1625  0.4426 -0.0365
  424DG     O10 9739   1.956   2.488   0.489 -0.8465  0.4780  0.0604
  424DG     C11 9740   2.439   2.483   0.393 -0.2957  0.1535  0.6735
  424DG     C12 9741   2.002   2.355   0.530 -0.7326 -0.3154 -0.5454
  424DG     H13 9742   2.484   2.462   0.489 -1.2157 -0.8397  0.9053
  424DG     H14 9743   2.518   2.468   0.320  2.0097 -1.3253  3.2920
  424DG     H15 9744   1.916   2.289   0.520 -1.8781  1.3493 -2.5235
  424DG     H16 9745   2.049   2.351   0.628  0.3828 -1.5967 -1.0912
  424DG     C17 9746   2.319   2.386   0.362 -0.6221 -0.8986 -0.3219
  424DG     C18 9747   2.116   2.305   0.436  0.7461  0.1587 -0.0204
  424DG     O19 9748   2.208   2.408   0.447  0.0074 -0.0336 -0.2432
  424DG     H20 9749   2.357   2.284   0.361  2.4325  0.1185 -1.2328
  424DG     H21 9750   2.284   2.394   0.259 -0.6981 -2.1208 -0.4004
  424DG     H22 9751   2.160   2.213   0.475  2.0076  1.1643  0.9800
  424DG     H23 9752   2.071   2.302   0.336  0.3182  0.1598  0.1688
  425DG      C1 9753   1.022   4.421   1.915 -0.3977 -1.0171  0.9474
  425DG      C2 9754   1.361   4.444   1.189  0.2910 -0.3059 -0.0689
  425DG      H3 9755   0.939   4.492   1.909  1.8230  1.6803  0.0534
  425DG      H4 9756   1.028   4.396   2.021 -0.3563 -0.8378  0.9887
  425DG      H5 9757   1.004   4.328   1.862 -0.6302 -0.9128  0.8395
  425DG      H6 9758   1.273   4.491   1.145 -0.5994 -0.7176  1.2134
  425DG      H7 9759   1.439   4.512   1.154 -0.5736  0.2355 -1.0226
  425DG      H8 9760   1.376   4.350   1.136 -1.5763  0.3217 -1.8520
  425DG      O9 9761   1.135   4.482   1.852  0.3332  0.0469  0.0631
  425DG     O10 9762   1.361   4.440   1.335 -0.0675 -0.9072  0.0220
  425DG     C11 9763   1.239   4.386   1.833  0.5690  0.3594  0.1361
  425DG     C12 9764   1.356   4.569   1.397  0.2835 -0.0116 -0.2864
  425DG     H13 9765   1.201   4.301   1.776  0.1654  0.8341 -0.3116
  425DG     H14 9766   1.276   4.350   1.929 -0.5757  0.1211  0.4981
  425DG     H15 9767   1.257   4.612   1.379  0.4637  0.1153 -1.0128
  425DG     H16 9768   1.418   4.641   1.344 -1.3374 -0.1417 -2.4874
  425DG     C17 9769   1.355   4.450   1.756  0.4863 -0.7960  0.5690
  425DG     C18 9770   1.399   4.560   1.547  0.6640  0.0814 -0.3669
  425DG     O19 9771   1.303   4.507   1.635  0.4141 -0.5634 -0.0321
  425DG     H20 9772   1.424   4.368   1.736  0.4447 -0.9254  0.9563
  425DG     H21 9773   1.409   4.522   1.818  0.5324 -0.7130  0.4339
  425DG     H22 9774   1.485   4.494   1.542 -1.2245 -2.6070  0.6751
  425DG     H23 9775   1.426   4.660   1.581  0.1836 -0.0958  0.5577
  426DG      C1 9776   0.541   2.418   0.614 -0.7621 -0.2760 -0.1543
  426DG      C2 9777   0.844   2.605  -0.095  0.2472 -0.3864 -0.1543
  426DG      H3 9778   0.519   2.327   0.558  1.7838 -1.0966  0.0625
  426DG      H4 9779   0.446   2.464   0.642 -0.1881  0.8537 -0.0033
  426DG      H5 9780   0.592   2.393   0.707  0.6878  0.3858 -0.7321
  426DG      H6 9781   0.941   2.557  -0.101  0.4004 -0.2524  1.0803
  426DG      H7 9782   0.780   2.535  -0.150  0.2445 -1.2379  0.9120
  426DG      H8 9783   0.856   2.700  -0.148  0.5647 -0.5319 -0.3420
  426DG      O9 9784   0.624   2.504   0.544  0.7005  0.0123 -0.0875
  426DG     O10 9785   0.806   2.642   0.033  0.0704  0.2023 -0.1276
  426DG     C11 9786   0.546   2.575   0.451  0.4970  0.0284  0.3167
  426DG     C12 9787   0.901   2.668   0.128  0.4166 -0.0034 -0.1914
  426DG     H13 9788   0.485   2.640   0.514  1.0836 -2.3862  3.6681
  426DG     H14 9789   0.486   2.523   0.376 -0.0796 -0.0418  0.8241
  426DG     H15 9790   0.974   2.745   0.101 -1.0367  1.4212 -0.2207
  426DG     H16 9791   0.968   2.583   0.138  1.1816  0.3571 -1.9144
  426DG     C17 9792   0.630   2.674   0.368 -0.1478 -0.1841 -0.3182
  426DG     C18 9793   0.825   2.697   0.256 -0.0702  0.0968 -0.0925
  426DG     O19 9794   0.708   2.610   0.265 -0.6914 -0.3232  0.4032
  426DG     H20 9795   0.689   2.708   0.453  1.2990 -1.7670 -0.6411
  426DG     H21 9796   0.581   2.763   0.328 -1.4370 -0.6254  0.2585
  426DG     H22 9797   0.892   2.686   0.341 -1.5470 -1.2807  0.9709
  426DG     H23 9798   0.796   2.802   0.260  0.9385  0.4153 -0.7524
  427DG      C1 9799   4.925   2.689   0.749  0.5408  0.1881  0.1596
  427DG      C2 9800   5.144   2.575   0.020 -0.1712 -0.1965  0.0717
  427DG      H3 9801   4.933   2.646   0.849  1.2304  1.3431  0.6148
  427DG      H4 9802   4.820   2.693   0.718  0.8461  1.7211 -0.7784
  427DG      H5 9803   4.949   2.795   0.751  2.0451 -0.1251  2.9547
  427DG      H6 9804   5.197   2.480   0.009 -0.8497 -0.7142  1.0944
  427DG      H7 9805   5.038   2.550   0.008 -0.0929  0.1030 -1.5611
  427DG      H8 9806   5.178   2.640  -0.061  0.7913 -0.6526  0.0954
  427DG      O9 9807   4.997   2.622   0.648 -1.1102  0.1321  0.3051
  427DG     O10 9808   5.172   2.646   0.145  0.6172 -0.5064 -0.3855
  427DG     C11 9809   5.136   2.651   0.636 -0.3178 -0.4302 -0.3357
  427DG     C12 9810   5.081   2.754   0.177 -0.3391  0.2239 -0.4847
  427DG     H13 9811   5.193   2.569   0.592 -0.7307 -0.6789 -0.4146
  427DG     H14 9812   5.177   2.674   0.734  0.0562  1.6206 -0.9220
  427DG     H15 9813   4.977   2.721   0.177 -1.1193  2.4374  0.9941
  427DG     H16 9814   5.095   2.832   0.103 -1.7754  0.8495 -0.1313
  427DG     C17 9815   5.143   2.771   0.543 -0.0181  0.4232  0.7385
  427DG     C18 9816   5.114   2.812   0.317 -0.1654  0.0797 -0.0945
  427DG     O19 9817   5.129   2.714   0.413 -0.2550  0.4950 -0.5756
  427DG     H20 9818   5.239   2.820   0.558 -1.0392  2.6549  0.3887
  427DG     H21 9819   5.073   2.852   0.562  0.3739  0.9892 -0.1765
  427DG     H22 9820   5.207   2.867   0.314  1.8342 -3.0750 -1.4387
  427DG     H23 9821   5.021   2.866   0.337  0.3367  0.4548  1.2972
  428DG      C1 9822   0.707   3.794   1.293  0.6406 -1.1987 -0.3754
  428DG      C2 9823   1.029   4.440   1.463  0.2503  0.1671 -0.7231
  428DG      H3 9824   0.610   3.749   1.308  0.0893 -1.2330 -3.4081
  428DG      H4 9825   0.769   3.727   1.353 -1.2622 -2.3841  0.3386
  428DG      H5 9826   0.750   3.796   1.193  2.9312 -0.5093  0.5464
  428DG      H6 9827   0.999   4.541   1.493 -0.0661 -0.3366  0.7373
  428DG      H7 9828   1.043   4.384   1.555  0.2535  1.1381 -0.1155
  428DG      H8 9829   1.111   4.430   1.391 -0.0120 -1.3574 -0.8341
  428DG      O9 9830   0.697   3.926   1.352  0.7332  0.2642  0.0644
  428DG     O10 9831   0.918   4.397   1.395 -0.0197  0.7412 -0.1411
  428DG     C11 9832   0.630   4.015   1.264  0.3175  0.5965  0.8422
  428DG     C12 9833   0.802   4.393   1.484 -1.1404 -0.1201  0.1744
  428DG     H13 9834   0.544   3.970   1.216 -0.0943  2.2295 -0.0209
  428DG     H14 9835   0.699   4.042   1.184 -1.5095  0.8907 -0.6797
  428DG     H15 9836   0.788   4.497   1.513  0.0140  0.1300 -0.0853
  428DG     H16 9837   0.806   4.335   1.576 -1.1797 -2.2055 -1.0684
  428DG     C17 9838   0.578   4.129   1.332 -0.7879 -0.1441 -0.9297
  428DG     C18 9839   0.679   4.347   1.399 -0.4018 -0.6027  0.1545
  428DG     O19 9840   0.693   4.215   1.356 -0.5006  0.5362  0.6571
  428DG     H20 9841   0.528   4.117   1.428  0.3514 -4.0837 -0.6452
  428DG     H21 9842   0.508   4.191   1.276 -1.1240  0.0889 -0.2656
  428DG     H22 9843   0.596   4.344   1.469  0.1929  1.2673  1.0079
  428DG     H23 9844   0.634   4.415   1.327 -1.0098  0.4980  1.5461
  429DG      C1 9845   3.052   3.992   3.288  0.2138  0.1519  0.3937
  429DG      C2 9846   3.389   3.409   3.436 -0.6968 -0.2981 -0.2296
  429DG      H3 9847   3.146   4.027   3.246 -1.2157  1.9924 -1.5042
  429DG      H4 9848   3.062   4.014   3.394  0.4794  0.1549  0.3691
  429DG      H5 9849   2.966   4.039   3.241 -0.2712 -2.0823 -1.1237
  429DG      H6 9850   3.424   3.374   3.533  0.2730 -1.5629 -1.0165
  429DG      H7 9851   3.380   3.328   3.364  0.2180  0.2686 -1.0231
  429DG      H8 9852   3.471   3.471   3.399 -1.3691  0.3036 -0.7315
  429DG      O9 9853   3.051   3.848   3.261  0.6699 -0.1795  0.6195
  429DG     O10 9854   3.271   3.492   3.460  0.0520  0.5859  0.1000
  429DG     C11 9855   2.930   3.789   3.310 -0.7595 -0.1502 -0.4478
  429DG     C12 9856   3.145   3.421   3.459  0.7846  0.2559 -0.6722
  429DG     H13 9857   2.845   3.852   3.282 -0.0705  2.0225  1.9620
  429DG     H14 9858   2.928   3.783   3.418  1.5948 -1.7384 -0.4143
  429DG     H15 9859   3.131   3.357   3.546 -1.2737  0.1382 -1.0244
  429DG     H16 9860   3.146   3.349   3.377 -1.2101  2.1974 -2.5539
  429DG     C17 9861   2.917   3.649   3.265 -0.0771  0.1826 -0.0020
  429DG     C18 9862   3.019   3.518   3.440 -0.7024  0.1894 -0.4561
  429DG     O19 9863   3.024   3.567   3.304  0.3512  0.1487  0.4157
  429DG     H20 9864   2.901   3.640   3.157  1.3028 -0.2428 -0.1884
  429DG     H21 9865   2.819   3.625   3.307 -0.9074  1.1598 -1.2824
  429DG     H22 9866   2.928   3.466   3.469  0.7009 -2.2454 -0.1105
  429DG     H23 9867   3.023   3.594   3.518  2.0927 -0.3141  0.0173
  430DG      C1 9868   3.484   4.800   3.210 -0.2515 -0.0559 -0.2327
  430DG      C2 9869   2.960   5.298   3.174 -0.7281 -0.7763 -0.0016
  430DG      H3 9870   3.528   4.724   3.274 -2.2127 -1.4882 -0.4885
  430DG      H4 9871   3.537   4.892   3.236  2.8271 -1.1019 -2.2654
  430DG      H5 9872   3.526   4.785   3.110  3.1419 -0.5481  1.1678
  430DG      H6 9873   2.862   5.314   3.131  0.0329 -2.0979 -2.3801
  430DG      H7 9874   2.984   5.378   3.245 -0.2610 -1.6081  0.8103
  430DG      H8 9875   3.028   5.307   3.090 -0.4022  1.2336  0.4303
  430DG      O9 9876   3.345   4.815   3.220 -0.1423  0.1155  0.0794
  430DG     O10 9877   2.970   5.166   3.232 -0.0354 -0.6599 -0.2084
  430DG     C11 9878   3.308   4.847   3.358 -0.1642  0.3308 -0.3105
  430DG     C12 9879   2.934   5.056   3.150 -0.1339 -0.3772  0.2437
  430DG     H13 9880   3.354   4.938   3.398  0.8382 -1.2469  2.3556
  430DG     H14 9881   3.352   4.775   3.427  3.2923  2.1189 -0.4211
  430DG     H15 9882   2.982   5.051   3.052 -2.2781  0.4892 -0.9254
  430DG     H16 9883   2.828   5.052   3.126  0.2042 -1.2208 -1.2600
  430DG     C17 9884   3.154   4.852   3.364  0.2053  0.0552 -0.0044
  430DG     C18 9885   2.960   4.936   3.245 -0.4524 -0.5461  1.3035
  430DG     O19 9886   3.100   4.928   3.255 -0.8161 -0.3025 -0.2701
  430DG     H20 9887   3.118   4.900   3.455  0.0448  1.1698 -0.6344
  430DG     H21 9888   3.108   4.754   3.354 -0.2575  0.1812  0.8068
  430DG     H22 9889   2.915   4.948   3.343 -1.2203 -0.3026  0.9331
  430DG     H23 9890   2.925   4.842   3.203 -1.7592  0.2132  0.6421
  431DG      C1 9891   4.406   5.358   0.225  0.3018 -0.4108 -0.8249
  431DG      C2 9892   4.011   5.136   0.666 -0.8475  0.1057  0.0786
  431DG      H3 9893   4.447   5.428   0.152 -2.9636  0.2641 -2.1716
  431DG      H4 9894   4.298   5.355   0.235  0.4024 -2.0278  0.2542
  431DG      H5 9895   4.425   5.254   0.199 -0.0692 -0.7557  0.2389
  431DG      H6 9896   3.926   5.129   0.735 -1.6754  0.6263 -0.8578
  431DG      H7 9897   3.988   5.053   0.599  0.4081 -1.5001  1.5603
  431DG      H8 9898   4.105   5.112   0.714 -0.1613 -0.0418 -1.2884
  431DG      O9 9899   4.468   5.382   0.356  0.3244 -0.3345  0.1950
  431DG     O10 9900   4.019   5.262   0.593  0.0120 -0.3362 -0.0944
  431DG     C11 9901   4.445   5.512   0.412  0.0988 -0.2657  0.4595
  431DG     C12 9902   4.056   5.369   0.678  0.1920 -0.1925  0.7496
  431DG     H13 9903   4.475   5.594   0.347 -2.9231  0.1132 -0.6014
  431DG     H14 9904   4.504   5.539   0.500 -0.9196  0.2269  1.0184
  431DG     H15 9905   4.132   5.343   0.752  0.3133  2.7847  1.8139
  431DG     H16 9906   3.971   5.389   0.743 -0.0507 -2.0891  1.0683
  431DG     C17 9907   4.294   5.542   0.448 -0.3312 -0.2359  0.0929
  431DG     C18 9908   4.106   5.482   0.590  0.2356 -0.1695  0.0417
  431DG     O19 9909   4.235   5.451   0.540 -0.3344 -0.0527 -0.5942
  431DG     H20 9910   4.235   5.539   0.357 -0.0838 -0.7256 -0.0526
  431DG     H21 9911   4.296   5.646   0.481  1.1351  0.4358 -1.9072
  431DG     H22 9912   4.037   5.512   0.512 -1.2811  0.0213  1.4004
  431DG     H23 9913   4.109   5.574   0.649 -1.7329  0.6586 -1.0751
  432DG      C1 9914   1.806   1.104   3.554 -0.5055  0.2109 -0.0790
  432DG      C2 9915   2.198   0.760   3.129  0.5344 -0.7158 -0.7694
  432DG      H3 9916   1.855   1.060   3.641 -0.0600 -1.0181 -0.9108
  432DG      H4 9917   1.718   1.156   3.591 -0.3856 -0.2488  0.8978
  432DG      H5 9918   1.887   1.168   3.519 -1.4295  2.0043  0.9072
  432DG      H6 9919   2.277   0.822   3.172 -0.8003  0.3640  0.2333
  432DG      H7 9920   2.231   0.656   3.134 -0.4216 -1.0578 -1.3248
  432DG      H8 9921   2.190   0.786   3.024  1.2944 -1.4016 -1.0017
  432DG      O9 9922   1.778   1.018   3.454 -0.2377 -0.5249  0.9299
  432DG     O10 9923   2.068   0.776   3.192 -0.4940 -0.4396 -0.0827
  432DG     C11 9924   1.748   0.886   3.497 -0.1831 -0.9775 -0.1420
  432DG     C12 9925   1.972   0.703   3.116  0.2913 -0.1679  0.3232
  432DG     H13 9926   1.656   0.889   3.554 -0.0498  0.8944  0.0356
  432DG     H14 9927   1.833   0.861   3.560  1.6589  0.7037 -1.8300
  432DG     H15 9928   2.003   0.607   3.074 -0.2945  0.1981 -1.0015
  432DG     H16 9929   1.921   0.754   3.034 -0.3294  1.1804  1.5101
  432DG     C17 9930   1.736   0.777   3.392 -0.2352  0.1824  0.2544
  432DG     C18 9931   1.861   0.672   3.216  0.0955  0.0273 -0.0334
  432DG     O19 9932   1.845   0.785   3.303 -0.8260 -0.1143  0.3386
  432DG     H20 9933   1.648   0.790   3.330 -0.6218  0.0480  0.7728
  432DG     H21 9934   1.715   0.686   3.448 -3.4395  1.2583  0.9765
  432DG     H22 9935   1.775   0.663   3.150 -0.8720  2.4915  0.7837
  432DG     H23 9936   1.870   0.583   3.279 -1.3850  0.5209  0.9207
  433DG      C1 9937   1.420   5.439   2.388 -0.1207 -1.0052  0.4812
  433DG      C2 9938   1.806   5.966   2.343  0.1089  0.1660 -1.1165
  433DG      H3 9939   1.486   5.363   2.429 -2.5080 -3.3130  0.2913
  433DG      H4 9940   1.332   5.380   2.363  0.0902 -0.2814 -2.4409
  433DG      H5 9941   1.402   5.512   2.466 -0.1173 -0.9586  0.4384
  433DG      H6 9942   1.838   5.920   2.436 -1.6818  0.3022 -0.3854
  433DG      H7 9943   1.900   5.986   2.293  0.8991 -0.2793  0.1476
  433DG      H8 9944   1.761   6.061   2.372  0.9546 -0.0740  1.1474
  433DG      O9 9945   1.457   5.503   2.264  0.1438  0.3596 -0.2415
  433DG     O10 9946   1.703   5.886   2.276 -0.3238  0.0705  0.4452
  433DG     C11 9947   1.354   5.584   2.206  0.1803 -0.2951 -0.4228
  433DG     C12 9948   1.655   5.946   2.155  0.2633 -0.8862 -1.2425
  433DG     H13 9949   1.321   5.652   2.284  0.5868 -0.8871  0.2827
  433DG     H14 9950   1.272   5.531   2.159  1.1116 -0.8828 -1.4307
  433DG     H15 9951   1.735   5.995   2.100  1.0573  3.0820  2.7687
  433DG     H16 9952   1.604   6.040   2.179  2.4397 -0.1394  0.8350
  433DG     C17 9953   1.418   5.673   2.106 -0.1478 -0.6421  0.6527
  433DG     C18 9954   1.566   5.854   2.070  0.2984 -0.1585 -0.0786
  433DG     O19 9955   1.480   5.783   2.159 -0.4413  1.0484  0.3529
  433DG     H20 9956   1.340   5.707   2.039  1.5939  0.6376 -0.8415
  433DG     H21 9957   1.487   5.613   2.047  0.9976  0.9228  0.3145
  433DG     H22 9958   1.508   5.905   1.994 -0.9650 -0.5505  0.5937
  433DG     H23 9959   1.631   5.783   2.019 -1.0994 -1.3572 -0.2812
  434DG      C1 9960   2.910   0.439   2.837 -0.5042  0.2895 -0.0877
  434DG      C2 9961   3.474   0.225   3.186  0.2077  0.0894 -0.5195
  434DG      H3 9962   2.841   0.426   2.754 -0.8758 -2.7824  0.6074
  434DG      H4 9963   2.893   0.544   2.859 -0.9849  0.2325 -0.1839
  434DG      H5 9964   2.884   0.372   2.919  1.2592  0.0898  0.3469
  434DG      H6 9965   3.445   0.299   3.260  0.9704 -0.8356  0.7515
  434DG      H7 9966   3.428   0.132   3.219  2.8429 -0.7800  1.0039
  434DG      H8 9967   3.583   0.218   3.192  0.4342  2.8699 -0.2034
  434DG      O9 9968   3.052   0.424   2.809 -0.0481  0.3972 -0.0436
  434DG     O10 9969   3.429   0.260   3.054  0.6518 -0.4673  0.1726
  434DG     C11 9970   3.062   0.300   2.729 -0.1922 -0.3773 -0.2862
  434DG     C12 9971   3.458   0.156   2.958  0.5301  0.4479  0.2989
  434DG     H13 9972   3.009   0.325   2.638 -0.5297  1.9404  0.4957
  434DG     H14 9973   3.020   0.211   2.777 -0.1526 -0.7491 -0.9325
  434DG     H15 9974   3.412   0.062   2.989  0.4577  0.4040  0.0586
  434DG     H16 9975   3.564   0.133   2.947  0.3720 -1.9028  2.5235
  434DG     C17 9976   3.205   0.254   2.713 -0.5923 -0.2247  0.4254
  434DG     C18 9977   3.396   0.204   2.828 -0.1595  0.2183 -0.0915
  434DG     O19 9978   3.257   0.223   2.841 -0.4570  0.2566 -0.1671
  434DG     H20 9979   3.257   0.337   2.666  0.7490 -0.9909  0.4935
  434DG     H21 9980   3.223   0.169   2.647 -0.4718 -0.7199  1.0868
  434DG     H22 9981   3.448   0.291   2.787  0.6457 -0.3187 -0.2349
  434DG     H23 9982   3.423   0.126   2.756  0.8768  0.9969 -0.5719
  435DG      C1 9983   0.257   3.022   3.662  0.1241 -0.0230 -0.1662
  435DG      C2 9984   0.720   2.716   4.251  0.6621 -0.4890  0.5637
  435DG      H3 9985   0.217   3.122   3.644  1.0090  0.1467 -1.3127
  435DG      H4 9986   0.181   2.944   3.664 -0.1619  0.2110 -1.2807
  435DG      H5 9987   0.323   2.999   3.578 -0.8175  0.6852 -1.1213
  435DG      H6 9988   0.700   2.700   4.357  1.4633 -0.6488  0.6972
  435DG      H7 9989   0.656   2.646   4.196 -0.5065  0.9998 -0.0372
  435DG      H8 9990   0.825   2.700   4.226  1.0077  0.4510  1.3716
  435DG      O9 9991   0.320   2.998   3.785 -0.4362 -0.0723  0.0015
  435DG     O10 9992   0.687   2.851   4.215  0.2439  0.2485  0.1530
  435DG     C11 9993   0.422   3.087   3.814  0.1671 -0.0914  0.2672
  435DG     C12 9994   0.538   2.866   4.226 -0.0516 -0.1512  0.1448
  435DG     H13 9995   0.396   3.184   3.772 -0.1848 -0.3379 -0.0894
  435DG     H14 9996   0.508   3.050   3.759 -1.9093 -1.2575 -2.5047
  435DG     H15 9997   0.510   2.868   4.332 -0.8882  0.7762 -0.0739
  435DG     H16 9998   0.484   2.782   4.184 -1.4860  0.8562 -0.1117
  435DG     C17 9999   0.444   3.112   3.969 -0.2688 -0.3168  0.1322
  435DG     C1810000   0.488   2.998   4.171  0.5771 -0.1872  0.7562
  435DG     O1910001   0.497   2.996   4.026  0.1963  0.5963 -0.5074
  435DG     H2010002   0.355   3.144   4.022  0.4343  1.8030  0.1231
  435DG     H2110003   0.514   3.196   3.976  0.0376 -0.5185 -0.4249
  435DG     H2210004   0.383   3.002   4.201  0.4353  0.0032  0.2445
  435DG     H2310005   0.541   3.082   4.217 -1.1992  0.6086  1.4271
  436DG      C110006   1.899   2.734   4.236  0.0720 -0.3194 -0.2999
  436DG      C210007   2.447   3.019   4.715 -0.4339  0.1508  0.3126
  436DG      H310008   1.994   2.707   4.192  1.5786  1.0858  1.8804
  436DG      H410009   1.828   2.758   4.157  0.9077  1.1453 -0.6506
  436DG      H510010   1.854   2.649   4.287 -1.7975  0.8329  0.0873
  436DG      H610011   2.449   2.911   4.730 -0.3389  0.0163 -0.6051
  436DG      H710012   2.543   3.061   4.686 -0.9819  0.9139 -0.4300
  436DG      H810013   2.442   3.060   4.816  0.1991  0.4520  0.2284
  436DG      O910014   1.920   2.859   4.304  0.5655 -0.4029 -0.8537
  436DG     O1010015   2.356   3.068   4.615  0.0714  0.6876  0.3611
  436DG     C1110016   2.025   2.947   4.268 -0.6421 -0.1413 -0.3850
  436DG     C1210017   2.225   3.093   4.670 -0.3963  0.0567 -0.1170
  436DG     H1310018   2.016   2.979   4.164  1.5994  0.8775 -0.3057
  436DG     H1410019   2.119   2.893   4.283 -0.8127 -0.4657 -0.4757
  436DG     H1510020   2.217   3.164   4.753 -0.5698  0.6200 -0.6090
  436DG     H1610021   2.192   3.002   4.719  1.7452 -0.7089  0.0315
  436DG     C1710022   2.032   3.078   4.358 -0.0178  0.0295 -0.6174
  436DG     C1810023   2.124   3.146   4.568 -0.3376  0.8578 -0.2727
  436DG     O1910024   2.100   3.039   4.473  0.6999 -0.5951 -0.2915
  436DG     H2010025   1.938   3.130   4.382  1.1603  2.1733 -0.3651
  436DG     H2110026   2.103   3.149   4.314  3.4618 -2.8495 -0.0538
  436DG     H2210027   2.026   3.176   4.606 -0.4138 -0.3908  0.5853
  436DG     H2310028   2.167   3.229   4.513  1.1651  0.2241 -0.1003
  437DG      C110029   0.451   3.139   0.266 -0.3557  0.3311  0.4493
  437DG      C210030   0.521   2.658   0.931 -0.5820 -0.7439 -0.8326
  437DG      H310031   0.522   3.216   0.298 -0.4417  0.0213  1.4126
  437DG      H410032   0.370   3.186   0.210  0.3131  0.7735 -0.1637
  437DG      H510033   0.508   3.075   0.199  0.7926  1.8190 -0.0441
  437DG      H610034   0.597   2.587   0.899  0.5501 -0.2955  0.7302
  437DG      H710035   0.507   2.641   1.037  1.8012 -0.5004 -0.4152
  437DG      H810036   0.431   2.635   0.874 -0.8700 -0.7312 -0.3840
  437DG      O910037   0.412   3.087   0.393  0.0471 -0.3868  0.4531
  437DG     O1010038   0.549   2.790   0.894 -0.1681  0.4487 -0.6222
  437DG     C1110039   0.325   2.979   0.381 -0.1864 -0.2115  0.1096
  437DG     C1210040   0.554   2.812   0.758 -0.0153  0.0410  1.0231
  437DG     H1310041   0.369   2.899   0.321 -1.5954 -1.5593  0.7866
  437DG     H1410042   0.234   3.007   0.328  0.0181  1.9994  0.8338
  437DG     H1510043   0.597   2.726   0.707  0.7852  1.9448 -1.7579
  437DG     H1610044   0.618   2.896   0.730 -0.0109 -0.0214  0.8430
  437DG     C1710045   0.301   2.924   0.524 -0.2503 -0.1614  0.6869
  437DG     C1810046   0.413   2.833   0.703  0.1077  0.4799  0.0522
  437DG     O1910047   0.420   2.881   0.572  0.1927  0.4176 -0.2207
  437DG     H2010048   0.233   2.840   0.538 -0.2370 -0.4483 -0.8519
  437DG     H2110049   0.256   3.007   0.579 -1.2296 -0.0909 -0.1942
  437DG     H2210050   0.356   2.740   0.704  1.1489 -0.1862  1.4120
  437DG     H2310051   0.376   2.917   0.762  1.3676  0.0249  1.5682
  438DG      C110052   2.685   3.433   4.517 -0.2022 -0.3632  0.6760
  438DG      C210053   2.475   3.988   4.923 -1.0216  0.4449  0.7203
  438DG      H310054   2.676   3.357   4.440  2.3858 -0.7366  0.6667
  438DG      H410055   2.731   3.384   4.603  2.9524 -1.9678 -1.7409
  438DG      H510056   2.768   3.501   4.496  0.8505 -1.5993  0.7260
  438DG      H610057   2.445   4.085   4.884 -0.5456  0.3767  0.1678
  438DG      H710058   2.431   3.979   5.022 -3.4394 -0.7716 -0.3981
  438DG      H810059   2.582   3.964   4.923 -1.1985 -0.5000 -0.7096
  438DG      O910060   2.559   3.495   4.546  0.5188 -0.3038 -0.3503
  438DG     O1010061   2.423   3.911   4.822  0.3834  0.4191  0.0879
  438DG     C1110062   2.473   3.406   4.623  0.0118 -0.2587  0.1177
  438DG     C1210063   2.403   3.775   4.861  1.2769 -0.0987 -0.6511
  438DG     H1310064   2.523   3.370   4.713 -0.3416 -1.1841 -0.0507
  438DG     H1410065   2.459   3.315   4.565  0.2282  0.4909 -1.1617
  438DG     H1510066   2.331   3.766   4.942  3.2407 -2.0031  1.0072
  438DG     H1610067   2.494   3.733   4.905  1.0943 -0.6911 -0.8311
  438DG     C1710068   2.336   3.480   4.655  0.2659 -0.1023  0.2577
  438DG     C1810069   2.353   3.695   4.740 -0.0355 -0.0195 -0.0031
  438DG     O1910070   2.352   3.558   4.767 -0.3548  0.5858  0.0892
  438DG     H2010071   2.269   3.405   4.696 -1.2961  1.7937  1.3291
  438DG     H2110072   2.291   3.529   4.568 -0.1654  1.6829  1.4418
  438DG     H2210073   2.263   3.742   4.700  0.3909  2.9352  2.0978
  438DG     H2310074   2.426   3.713   4.661  1.7585 -1.5885  1.1898
  439DG      C110075   3.707   5.037   3.501  0.6601  0.7693 -0.1587
  439DG      C210076   3.352   4.541   3.990  0.0984  0.3607 -0.9922
  439DG      H310077   3.784   5.065   3.573  1.4867  1.6766 -1.3721
  439DG      H410078   3.692   5.120   3.432 -2.8124  1.0481  0.7801
  439DG      H510079   3.731   4.949   3.441 -0.6083 -0.6552  1.3315
  439DG      H610080   3.434   4.486   4.036 -2.1176 -0.1705  2.7142
  439DG      H710081   3.259   4.504   4.033  0.9716 -0.1477  0.5215
  439DG      H810082   3.349   4.494   3.892  0.2867  0.6435 -1.1369
  439DG      O910083   3.589   5.036   3.573  0.3290  0.8120 -0.1538
  439DG     O1010084   3.373   4.680   3.997 -0.0453 -0.1207 -0.0518
  439DG     C1110085   3.558   4.909   3.620  0.2685 -0.1271  0.2794
  439DG     C1210086   3.267   4.759   3.954 -0.4032  0.7686 -0.2312
  439DG     H1310087   3.630   4.868   3.691  0.5972 -0.2572 -0.1261
  439DG     H1410088   3.558   4.834   3.541 -1.2013 -0.7357  0.8330
  439DG     H1510089   3.292   4.859   3.989  1.6425 -0.4624  2.0996
  439DG     H1610090   3.166   4.721   3.973  0.5354 -1.0863  1.3185
  439DG     C1710091   3.430   4.911   3.688  0.0614  0.5036 -0.0939
  439DG     C1810092   3.266   4.777   3.803 -0.0749 -0.3080  0.0400
  439DG     O1910093   3.399   4.779   3.742  0.5360  0.1122  0.1527
  439DG     H2010094   3.353   4.933   3.612  0.5872 -0.2018 -0.8473
  439DG     H2110095   3.417   4.986   3.766 -1.0372  0.5138 -0.2582
  439DG     H2210096   3.201   4.702   3.758 -0.6964  0.9054 -1.1979
  439DG     H2310097   3.208   4.866   3.777 -1.2383 -0.2906  2.4561
  440DG      C110098   4.018   5.388   1.800 -0.2200  0.4377 -0.4685
  440DG      C210099   4.446   4.882   2.052 -0.3450 -0.1301 -0.0199
  440DG      H310100   4.044   5.493   1.786 -0.5830  1.1217  3.1067
  440DG      H410101   3.909   5.382   1.809 -0.2043 -1.4813 -1.1290
  440DG      H510102   4.045   5.330   1.711 -1.4464 -0.1487 -0.4820
  440DG      H610103   4.478   4.986   2.042  1.5867 -0.7757 -1.2113
  440DG      H710104   4.536   4.834   2.090  0.8667  0.2446 -2.2417
  440DG      H810105   4.425   4.847   1.950  0.3806 -1.8945  0.3907
  440DG      O910106   4.078   5.332   1.917 -0.2748 -0.3932 -0.1862
  440DG     O1010107   4.341   4.882   2.147 -0.8095 -0.1005  0.1619
  440DG     C1110108   4.011   5.361   2.041 -0.0235 -0.4294 -0.0373
  440DG     C1210109   4.222   4.946   2.112  0.2815 -0.4097 -0.4818
  440DG     H1310110   3.907   5.329   2.045  0.2405 -1.2822  0.4957
  440DG     H1410111   4.028   5.467   2.056  0.8089 -0.6833  0.9641
  440DG     H1510112   4.133   4.896   2.152 -0.5727  0.6406 -1.0175
  440DG     H1610113   4.219   4.939   2.003  0.3314  0.5876 -0.5544
  440DG     C1710114   4.099   5.301   2.152  0.6739  0.0389  0.2184
  440DG     C1810115   4.225   5.097   2.158 -0.5631  0.1682 -0.1996
  440DG     O1910116   4.105   5.157   2.133  0.3870 -0.3423  0.1757
  440DG     H2010117   4.064   5.330   2.251 -1.1910  1.9106 -0.9000
  440DG     H2110118   4.193   5.356   2.149  1.3163 -1.0757 -0.9565
  440DG     H2210119   4.243   5.110   2.265 -0.8012  0.9983 -0.2511
  440DG     H2310120   4.303   5.154   2.107 -2.0035  0.8666 -1.7178
  441DG      C110121   1.084   5.114   4.519  0.5958 -0.3366  0.5770
  441DG      C210122   1.266   5.010   5.235  0.2428  0.3399  0.9235
  441DG      H310123   1.085   5.192   4.443  0.2876  0.2000  1.1239
  441DG      H410124   0.981   5.107   4.552  0.5641  0.2920  0.6158
  441DG      H510125   1.117   5.022   4.471  1.7843 -0.0904  0.8863
  441DG      H610126   1.182   5.037   5.299 -1.7577  0.5062 -1.5951
  441DG      H710127   1.264   4.909   5.195 -0.6674  1.0734 -1.0390
  441DG      H810128   1.352   5.034   5.298  2.1582  4.3848 -2.7077
  441DG      O910129   1.163   5.136   4.632  0.5003  0.7694 -0.3074
  441DG     O1010130   1.271   5.107   5.136  0.0332  0.1149  0.3368
  441DG     C1110131   1.143   5.258   4.699 -0.7675  0.1790  0.1569
  441DG     C1210132   1.400   5.105   5.065 -0.0357 -1.0924 -0.1068
  441DG     H1310133   1.050   5.257   4.756 -0.6875  0.4138  0.2937
  441DG     H1410134   1.132   5.339   4.627 -3.3993  0.5972  0.9167
  441DG     H1510135   1.418   5.010   5.014 -1.1423  0.4681 -3.7704
  441DG     H1610136   1.483   5.118   5.134  1.0741 -0.0984 -1.5802
  441DG     C1710137   1.263   5.297   4.785 -0.0247  0.8572  0.0147
  441DG     C1810138   1.408   5.214   4.956  0.4860  0.0493  1.0915
  441DG     O1910139   1.300   5.191   4.869 -0.4264 -0.2683  0.0730
  441DG     H2010140   1.241   5.384   4.848  2.4561  1.0393  0.7625
  441DG     H2110141   1.343   5.332   4.720 -1.6427  2.6223 -1.1430
  441DG     H2210142   1.407   5.313   5.000  1.4872 -0.3344  2.0231
  441DG     H2310143   1.489   5.207   4.884 -1.7312  1.1429 -1.6670
  442DG      C110144   2.836   1.568   1.221  0.0914  0.0603  0.5993
  442DG      C210145   3.284   1.882   0.843 -0.1044 -0.3596 -0.1742
  442DG      H310146   2.783   1.474   1.237 -1.2337  0.1376 -2.6283
  442DG      H410147   2.772   1.639   1.272 -1.8586 -1.4877  0.4275
  442DG      H510148   2.936   1.553   1.264  0.2056 -0.8061  0.0642
  442DG      H610149   3.348   1.834   0.916  0.5047  1.9206  0.8752
  442DG      H710150   3.327   1.895   0.744  0.6554  1.3042  0.3404
  442DG      H810151   3.258   1.982   0.877 -1.1098  0.0612 -2.0375
  442DG      O910152   2.843   1.597   1.078 -0.1534 -0.2511  0.1860
  442DG     O1010153   3.154   1.822   0.843  0.3059 -0.0440  0.3778
  442DG     C1110154   2.736   1.675   1.038 -0.5969  0.5179  0.0539
  442DG     C1210155   3.069   1.880   0.748  0.4315 -0.0803  0.3206
  442DG     H1310156   2.719   1.768   1.093 -0.7023  0.8478 -0.5294
  442DG     H1410157   2.646   1.614   1.046  0.1461 -0.5846  0.2250
  442DG     H1510158   3.103   1.875   0.645  0.0029  0.6840  0.1358
  442DG     H1610159   3.064   1.987   0.769 -2.0867  0.4700 -2.4621
  442DG     C1710160   2.758   1.715   0.889  0.3756  0.5785 -0.6997
  442DG     C1810161   2.935   1.806   0.746 -0.4097  0.4127 -0.0657
  442DG     O1910162   2.891   1.781   0.882  0.0340  0.6248 -0.2246
  442DG     H2010163   2.689   1.787   0.844  1.5197  1.2491 -1.4526
  442DG     H2110164   2.760   1.629   0.822 -1.8676  0.9009 -1.2561
  442DG     H2210165   2.861   1.864   0.692  0.9823  2.2437 -0.1217
  442DG     H2310166   2.956   1.713   0.693  3.9199  1.4974 -0.6578
  443DG      C110167   1.710   3.846   4.359 -0.2373  0.2096  0.4212
  443DG      C210168   1.453   3.819   3.763  0.6094 -0.2703 -0.1146
  443DG      H310169   1.722   3.934   4.422  2.7318  0.2535 -0.1035
  443DG      H410170   1.789   3.777   4.385 -0.2526  0.5674  1.4615
  443DG      H510171   1.615   3.794   4.373  0.0961 -0.8963 -1.1867
  443DG      H610172   1.462   3.816   3.654  2.1832 -0.2070  0.0000
  443DG      H710173   1.349   3.821   3.797  0.4515  1.3051 -0.6125
  443DG      H810174   1.495   3.908   3.808 -0.3325 -0.3508  0.9631
  443DG      O910175   1.709   3.872   4.221  0.0840 -0.1410  0.4570
  443DG     O1010176   1.511   3.700   3.819 -0.6430 -0.0497 -0.6341
  443DG     C1110177   1.830   3.889   4.162 -0.0813  0.0690  0.7381
  443DG     C1210178   1.646   3.674   3.790 -0.5396  0.1756  0.2848
  443DG     H1310179   1.883   3.796   4.185  3.4004  1.5078 -0.6930
  443DG     H1410180   1.867   3.983   4.204 -1.5937  1.8635 -1.6549
  443DG     H1510181   1.656   3.634   3.689  2.3688  1.5399 -0.0893
  443DG     H1610182   1.668   3.589   3.854 -1.0135 -0.0402  0.1628
  443DG     C1710183   1.822   3.913   4.006 -0.4762 -0.0519 -0.5696
  443DG     C1810184   1.748   3.786   3.827  0.0841  0.1311  0.0801
  443DG     O1910185   1.730   3.825   3.964  0.1261  0.9501 -0.2463
  443DG     H2010186   1.920   3.895   3.963 -1.4128 -1.3962 -2.2155
  443DG     H2110187   1.805   4.019   3.986  1.4068  0.5876  0.8342
  443DG     H2210188   1.848   3.748   3.805  0.3491  0.1146  1.2490
  443DG     H2310189   1.720   3.864   3.757 -0.8899  0.6527  1.0221
  444DG      C110190   3.961   0.230   2.368  0.5628  0.2053 -0.2186
  444DG      C210191   4.359   0.719   2.475 -0.3299 -0.4071  0.3807
  444DG      H310192   3.978   0.128   2.336  0.4350 -0.0992  0.6593
  444DG      H410193   3.871   0.252   2.310  1.4133  0.2885 -1.5396
  444DG      H510194   3.947   0.237   2.476  1.3315  1.7644 -0.1842
  444DG      H610195   4.445   0.698   2.538  1.0578  1.2781 -0.8303
  444DG      H710196   4.380   0.815   2.428 -0.4130 -0.8598 -0.6083
  444DG      H810197   4.264   0.722   2.527 -1.0826  0.0608 -0.9647
  444DG      O910198   4.072   0.307   2.340 -0.1592  0.2155  0.0467
  444DG     O1010199   4.350   0.625   2.368 -0.3085 -0.1008  0.4048
  444DG     C1110200   4.097   0.321   2.193  0.4467  0.0374 -0.7175
  444DG     C1210201   4.469   0.601   2.295  0.0557 -1.1527 -0.0184
  444DG     H1310202   4.051   0.415   2.160 -0.6839 -0.1506  0.2494
  444DG     H1410203   4.053   0.234   2.145  0.4572 -0.8581  0.8224
  444DG     H1510204   4.542   0.573   2.371  0.1480 -1.4693 -0.2218
  444DG     H1610205   4.509   0.690   2.246 -1.1022  0.9913  2.6484
  444DG     C1710206   4.247   0.328   2.164  0.0804  0.5569 -0.7455
  444DG     C1810207   4.436   0.481   2.201  0.0664 -0.0371 -0.1454
  444DG     O1910208   4.301   0.443   2.236  0.0079  0.0348 -0.5216
  444DG     H2010209   4.278   0.318   2.060  0.4251 -0.6910 -0.5359
  444DG     H2110210   4.286   0.234   2.202  0.6145  1.0161 -0.1503
  444DG     H2210211   4.449   0.508   2.096  1.5365 -0.3928 -0.0788
  444DG     H2310212   4.500   0.395   2.223  0.4100 -0.1420 -1.4632
  445DG      C110213   0.097   3.841   3.056  0.5805  0.8037  0.6274
  445DG      C210214   0.286   4.029   2.180 -0.5212 -0.5453  0.2411
  445DG      H310215   0.043   3.774   2.989  3.3656 -0.2818 -0.6966
  445DG      H410216   0.041   3.868   3.145 -0.5004  1.4937 -0.2309
  445DG      H510217   0.189   3.789   3.083 -0.0571 -0.0644  1.1928
  445DG      H610218   0.299   4.104   2.102  2.2229  1.1001  2.1235
  445DG      H710219   0.342   3.939   2.157  0.4429 -0.0197  0.4804
  445DG      H810220   0.182   3.996   2.181 -0.2835 -1.4943 -1.5006
  445DG      O910221   0.115   3.948   2.961  0.7702  0.5509  0.3635
  445DG     O1010222   0.340   4.091   2.295 -0.5084 -0.0422 -0.8525
  445DG     C1110223   0.198   3.909   2.848 -0.2183 -0.5944 -0.5025
  445DG     C1210224   0.334   3.999   2.406 -0.1824  0.0313  0.7779
  445DG     H1310225   0.154   3.820   2.803  0.4405 -1.9333  1.3955
  445DG     H1410226   0.292   3.869   2.885 -0.2211 -0.4457 -0.3359
  445DG     H1510227   0.420   3.932   2.401 -0.2258  0.0538 -1.0040
  445DG     H1610228   0.249   3.933   2.397  1.6203 -2.1444 -2.3322
  445DG     C1710229   0.221   4.017   2.749  0.1991  0.2155 -0.1542
  445DG     C1810230   0.334   4.063   2.544  0.4080 -0.0095 -0.0098
  445DG     O1910231   0.306   3.966   2.639  0.3807 -0.3249 -0.3299
  445DG     H2010232   0.263   4.100   2.806 -0.4370  0.8227 -0.5465
  445DG     H2110233   0.126   4.062   2.720  0.2431  1.3140  1.2729
  445DG     H2210234   0.429   4.114   2.561  0.9165 -1.2455  0.9744
  445DG     H2310235   0.256   4.140   2.544 -0.4937 -0.7750 -3.1988
  446DG      C110236   0.642   2.848   1.309 -0.4742 -0.6662 -0.5360
  446DG      C210237   1.020   2.223   1.533 -0.5675  0.2059 -0.0353
  446DG      H310238   0.553   2.811   1.361  0.2194  0.7059  1.7441
  446DG      H410239   0.627   2.837   1.202 -2.3292 -2.3804 -0.1603
  446DG      H510240   0.641   2.955   1.328 -0.0861 -0.9543  1.4212
  446DG      H610241   1.119   2.180   1.547 -0.5525 -0.8361 -2.7984
  446DG      H710242   0.953   2.203   1.616 -0.1554  0.8708  0.4654
  446DG      H810243   0.993   2.158   1.450 -0.9662  0.7271 -0.3180
  446DG      O910244   0.768   2.795   1.335 -0.2474 -0.1389 -0.3179
  446DG     O1010245   1.028   2.361   1.502  0.4906 -0.4890 -0.2600
  446DG     C1110246   0.826   2.828   1.458  0.5999 -0.0158 -0.1551
  446DG     C1210247   1.071   2.445   1.602 -0.0413 -0.9286  0.0468
  446DG     H1310248   0.760   2.795   1.538 -1.4190  0.2883 -1.6457
  446DG     H1410249   0.819   2.936   1.464 -0.9635 -0.1605  1.3459
  446DG     H1510250   1.167   2.407   1.636  0.5539 -0.4941 -1.1025
  446DG     H1610251   1.005   2.433   1.688  0.5079  0.6156  0.7113
  446DG     C1710252   0.977   2.778   1.468  0.1060  0.4230 -0.3713
  446DG     C1810253   1.094   2.588   1.554 -0.2716 -0.4794 -0.3806
  446DG     O1910254   0.972   2.646   1.508  0.1881 -0.0858 -0.3134
  446DG     H2010255   1.034   2.831   1.544 -0.5279  1.2990 -0.4824
  446DG     H2110256   1.028   2.792   1.373 -0.2937  2.6971 -0.3056
  446DG     H2210257   1.133   2.647   1.637  0.2395 -2.0252  0.5241
  446DG     H2310258   1.176   2.604   1.485 -0.9432  0.7219 -0.9375
  447DG      C110259   1.595   1.080   4.879 -0.4136 -0.0790  0.2222
  447DG      C210260   1.331   1.095   4.213 -0.8925  0.4429 -0.1072
  447DG      H310261   1.494   1.051   4.907 -0.8093  1.8574  0.9901
  447DG      H410262   1.622   1.180   4.912  1.7834 -0.1358 -1.2201
  447DG      H510263   1.671   1.024   4.933  1.3516  0.6046 -1.4583
  447DG      H610264   1.376   1.066   4.118  0.4288 -0.5431  0.7929
  447DG      H710265   1.240   1.035   4.218 -0.3770 -0.3589 -0.2883
  447DG      H810266   1.316   1.203   4.207  0.7771  0.6456 -1.3916
  447DG      O910267   1.617   1.081   4.733  0.1872 -0.1967  0.1259
  447DG     O1010268   1.417   1.057   4.320 -0.2015 -0.2022 -0.2640
  447DG     C1110269   1.723   0.992   4.693 -0.2758 -1.1627 -0.0989
  447DG     C1210270   1.442   0.919   4.325  0.9824  0.3139 -0.5748
  447DG     H1310271   1.711   0.898   4.746 -3.1440 -0.2320  1.1278
  447DG     H1410272   1.810   1.045   4.732 -1.1763  1.3113 -1.2107
  447DG     H1510273   1.437   0.879   4.223  2.8805  1.4347 -1.1582
  447DG     H1610274   1.366   0.874   4.390 -1.0593  2.7551 -1.1377
  447DG     C1710275   1.735   0.980   4.540 -0.7515  0.0741  0.6944
  447DG     C1810276   1.595   0.906   4.367  0.5735  0.4793 -0.2485
  447DG     O1910277   1.601   0.940   4.510  0.3255 -0.4227 -0.4710
  447DG     H2010278   1.814   0.916   4.501  0.5097  2.1263 -0.3125
  447DG     H2110279   1.755   1.072   4.486 -1.2669 -1.1071 -1.6555
  447DG     H2210280   1.625   0.802   4.362  1.4703  0.5808  1.8041
  447DG     H2310281   1.650   0.969   4.297  0.3221  0.0507 -0.8299
  448DG      C110282   2.530   1.823   1.886 -0.1793 -0.1826  0.0285
  448DG      C210283   2.463   2.365   2.243 -0.2076  0.8106  0.2842
  448DG      H310284   2.424   1.831   1.862 -0.3206  0.2028  0.7438
  448DG      H410285   2.549   1.716   1.890 -1.9304 -0.5197  0.2345
  448DG      H510286   2.597   1.863   1.810  0.6216 -2.7531 -0.7137
  448DG      H610287   2.381   2.368   2.171 -1.0981  1.5612  1.3007
  448DG      H710288   2.415   2.365   2.341 -0.3076  0.4764  0.2391
  448DG      H810289   2.531   2.446   2.218  0.7515 -0.6033 -2.0435
  448DG      O910290   2.573   1.873   2.011  0.6276 -0.5169 -0.1667
  448DG     O1010291   2.525   2.243   2.230 -0.1137  0.2559 -0.4532
  448DG     C1110292   2.698   1.839   2.053 -0.6708  0.4167 -0.0074
  448DG     C1210293   2.644   2.228   2.311  0.4994  0.1096 -0.1647
  448DG     H1310294   2.771   1.891   1.991 -2.4039  2.8589 -0.1338
  448DG     H1410295   2.726   1.734   2.053  2.5812  1.1619 -0.6394
  448DG     H1510296   2.628   2.284   2.403 -0.0952  0.3963 -0.4362
  448DG     H1610297   2.731   2.270   2.261 -0.1532  0.8777 -0.6686
  448DG     C1710298   2.715   1.887   2.201 -0.4927 -0.3532  0.3381
  448DG     C1810299   2.657   2.077   2.339  0.6545 -0.7271  0.1702
  448DG     O1910300   2.658   2.020   2.209 -0.7729  0.0926  0.5774
  448DG     H2010301   2.816   1.897   2.241  0.4765 -1.8082 -1.6067
  448DG     H2110302   2.664   1.819   2.270 -3.1867  1.5607  0.3736
  448DG     H2210303   2.759   2.063   2.377  1.3361 -0.0309 -1.3272
  448DG     H2310304   2.586   2.014   2.392  0.1656 -0.4864 -0.1899
  449DG      C110305   4.428   4.897   1.098 -0.1919 -0.0514 -0.3193
  449DG      C210306   3.854   4.803   0.554  0.0456  0.1920  0.5413
  449DG      H310307   4.466   4.797   1.078  0.7681  0.3331 -0.4806
  449DG      H410308   4.494   4.943   1.171 -1.3069  0.4874  0.3769
  449DG      H510309   4.430   4.944   0.999 -0.6664 -2.7666 -1.6939
  449DG      H610310   3.908   4.718   0.512  3.3111  2.9917 -1.4054
  449DG      H710311   3.746   4.788   0.554  0.2094 -1.1525  0.2079
  449DG      H810312   3.866   4.885   0.483 -1.5324 -0.6644 -0.7787
  449DG      O910313   4.285   4.886   1.132 -0.0365 -0.8381  0.3401
  449DG     O1010314   3.885   4.840   0.682  0.2856 -0.5158 -0.0628
  449DG     C1110315   4.217   4.848   1.012  0.6153  0.3814 -0.2899
  449DG     C1210316   3.821   4.758   0.777 -0.3178  0.1207  0.0988
  449DG     H1310317   4.245   4.745   0.991 -0.5985 -0.2952  1.2515
  449DG     H1410318   4.240   4.921   0.934  0.4455  0.2902 -0.4246
  449DG     H1510319   3.858   4.662   0.742 -0.4979 -0.8731  2.4371
  449DG     H1610320   3.715   4.783   0.766 -0.2121  1.8328  2.1044
  449DG     C1710321   4.062   4.851   1.035 -0.5873  0.4846  0.6123
  449DG     C1810322   3.861   4.795   0.921 -0.0633  0.6153  0.5019
  449DG     O1910323   4.002   4.800   0.924 -0.0925 -0.1804  0.1721
  449DG     H2010324   4.032   4.955   1.052 -1.8304  0.6887 -2.2026
  449DG     H2110325   4.032   4.784   1.115 -3.2793  1.7439  0.7728
  449DG     H2210326   3.812   4.888   0.951  1.3372  1.3503  0.6417
  449DG     H2310327   3.838   4.717   0.993 -1.2504  0.5610  0.0809
  450DG      C110328   3.049   0.471   1.282  0.5084  0.2463 -0.4568
  450DG      C210329   3.270   0.988   0.826 -0.2148  0.4189  0.3823
  450DG      H310330   3.132   0.429   1.339  0.9086  2.3278  0.5698
  450DG      H410331   2.956   0.414   1.290  0.5599  0.4666  3.1287
  450DG      H510332   3.027   0.570   1.322 -2.4505  0.1783 -1.6150
  450DG      H610333   3.231   1.070   0.765 -0.5374  1.5123  2.0032
  450DG      H710334   3.325   1.019   0.914  1.3805 -1.8257  0.2457
  450DG      H810335   3.352   0.950   0.765 -0.5068  1.9950 -1.0851
  450DG      O910336   3.085   0.462   1.147 -0.1755 -0.2076  0.1444
  450DG     O1010337   3.179   0.889   0.862  0.0836  0.7619 -0.1566
  450DG     C1110338   3.205   0.536   1.113  0.0888  0.0235  0.0800
  450DG     C1210339   3.139   0.798   0.758 -0.9016  0.1998 -0.7701
  450DG     H1310340   3.276   0.468   1.065 -0.2305 -1.1324  1.1541
  450DG     H1410341   3.256   0.582   1.198 -0.1659  0.2507  0.1093
  450DG     H1510342   3.230   0.754   0.716 -0.5397  0.7093 -0.5230
  450DG     H1610343   3.093   0.848   0.673  1.3419 -0.7061 -2.6421
  450DG     C1710344   3.160   0.647   1.018 -0.5942  0.3155  0.0312
  450DG     C1810345   3.050   0.680   0.812  0.3526 -0.0583 -0.6216
  450DG     O1910346   3.128   0.599   0.890 -0.2744 -0.0930  0.3529
  450DG     H2010347   3.252   0.704   1.010  0.5237 -1.5620 -1.1772
  450DG     H2110348   3.079   0.708   1.058  1.7501  1.6160  3.1922
  450DG     H2210349   2.966   0.719   0.870  1.1600  0.2927  0.3475
  450DG     H2310350   3.008   0.629   0.726  2.9307  0.6864 -2.4661
  451DG      C110351   3.341   4.188   1.102 -0.4924  0.3116  0.0883
  451DG      C210352   2.657   4.471   0.946 -0.3533 -0.5650 -0.6545
  451DG      H310353   3.408   4.102   1.090 -3.0524 -1.7440 -0.4415
  451DG      H410354   3.317   4.199   1.208 -0.7735 -1.1002  0.1998
  451DG      H510355   3.394   4.278   1.073  0.0919  0.6285  1.9616
  451DG      H610356   2.622   4.572   0.921  1.4609  1.5235  4.0659
  451DG      H710357   2.585   4.404   0.899  1.1057 -3.2567  0.7241
  451DG      H810358   2.647   4.463   1.054  0.7742 -0.1761 -0.5097
  451DG      O910359   3.229   4.157   1.027 -0.5993  0.0017  0.6901
  451DG     O1010360   2.792   4.447   0.898  0.4155  0.1449 -0.1650
  451DG     C1110361   3.231   4.190   0.890 -0.1478  0.0826  0.0424
  451DG     C1210362   2.887   4.499   0.983 -0.4650 -0.3558  0.2993
  451DG     H1310363   3.162   4.121   0.842  0.3723 -0.0137 -0.5828
  451DG     H1410364   3.329   4.170   0.848 -0.2459 -1.5311  0.5459
  451DG     H1510365   2.874   4.453   1.081  0.8836 -0.2203  0.5584
  451DG     H1610366   2.871   4.607   0.983 -0.9710 -0.4106 -0.9193
  451DG     C1710367   3.184   4.332   0.850 -0.1874 -0.3742 -0.1353
  451DG     C1810368   3.027   4.493   0.921 -0.1843  0.5421  0.5361
  451DG     O1910369   3.063   4.357   0.916 -0.2157 -0.9655  0.1418
  451DG     H2010370   3.167   4.351   0.744 -0.8410 -0.8096 -0.1159
  451DG     H2110371   3.247   4.412   0.888  1.7563 -2.3413  0.9952
  451DG     H2210372   3.025   4.537   0.822 -0.2650  0.1164  0.3485
  451DG     H2310373   3.106   4.544   0.977  1.8871 -2.4063  0.5874
  452DG      C110374   4.679   2.336   0.836  0.2478 -0.3008  0.1722
  452DG      C210375   4.296   2.256   1.238  0.1403  0.6771 -0.0403
  452DG      H310376   4.753   2.258   0.821  1.4752  1.0507 -1.2069
  452DG      H410377   4.713   2.420   0.898 -0.0993  0.9683 -1.2952
  452DG      H510378   4.656   2.390   0.744 -0.3582 -0.0193  0.4791
  452DG      H610379   4.193   2.256   1.273 -0.3166 -0.8765 -1.2406
  452DG      H710380   4.363   2.309   1.305  0.4961  0.7463 -0.4425
  452DG      H810381   4.313   2.309   1.144 -0.1175  1.6004  0.4280
  452DG      O910382   4.556   2.286   0.886  0.2253  0.6727  0.2768
  452DG     O1010383   4.351   2.128   1.236 -0.1480  0.2007 -0.0616
  452DG     C1110384   4.508   2.189   0.787 -0.0771  0.0041  0.1563
  452DG     C1210385   4.271   2.034   1.163  0.5848  0.0008 -0.4997
  452DG     H1310386   4.582   2.110   0.772 -0.1473 -0.2875  1.2038
  452DG     H1410387   4.505   2.242   0.692  3.9108 -0.8548 -0.6590
  452DG     H1510388   4.173   2.011   1.204  0.2997 -0.4444 -1.3796
  452DG     H1610389   4.321   1.941   1.192  1.3498  0.2624 -0.9478
  452DG     C1710390   4.373   2.141   0.830 -0.2279  0.0359 -0.2059
  452DG     C1810391   4.254   2.055   1.016 -0.1317 -0.2207  0.2103
  452DG     O1910392   4.381   2.092   0.963  0.0090  0.0483  0.4934
  452DG     H2010393   4.348   2.060   0.762  2.7036 -0.6051 -0.6606
  452DG     H2110394   4.313   2.232   0.827  0.1820  0.2823 -1.1304
  452DG     H2210395   4.230   1.959   0.970 -1.8380  0.0872  0.3947
  452DG     H2310396   4.175   2.130   1.008 -0.9051 -1.1199 -0.9687
  453DG      C110397   2.229   1.034   4.353  0.0784  0.3421 -0.2220
  453DG      C210398   2.452   1.496   4.810 -0.0822  0.3259  0.3298
  453DG      H310399   2.236   0.953   4.424  0.6549 -0.2919 -0.9847
  453DG      H410400   2.324   1.047   4.301  1.6020 -0.4950  2.1937
  453DG      H510401   2.159   0.987   4.284  0.7792  0.8809 -1.3291
  453DG      H610402   2.536   1.505   4.741  0.8543  0.6575  1.4807
  453DG      H710403   2.432   1.587   4.866 -2.5585 -0.9800  1.7160
  453DG      H810404   2.474   1.413   4.877  0.2224 -0.9261 -1.2624
  453DG      O910405   2.182   1.157   4.416 -0.5101 -0.3038 -0.5722
  453DG     O1010406   2.333   1.463   4.733  1.1524 -0.6110  0.2327
  453DG     C1110407   2.066   1.138   4.504  0.5057 -0.0297  0.1682
  453DG     C1210408   2.211   1.452   4.811  0.2041  0.6629  0.4819
  453DG     H1310409   2.089   1.067   4.583 -0.8405  0.0180  0.6265
  453DG     H1410410   1.981   1.092   4.455 -0.4062  1.3072  0.4327
  453DG     H1510411   2.180   1.536   4.872  0.1328  1.2716 -0.3739
  453DG     H1610412   2.224   1.372   4.884  2.0953  1.5689  1.1755
  453DG     C1710413   2.012   1.271   4.552  0.0475  0.5787 -0.4531
  453DG     C1810414   2.094   1.428   4.713 -0.1638  0.1008  0.2452
  453DG     O1910415   2.124   1.320   4.626  0.7638  0.7579 -0.3259
  453DG     H2010416   1.921   1.257   4.609 -0.0874 -0.0011 -0.8078
  453DG     H2110417   1.990   1.336   4.467  0.6435  1.1956 -0.1499
  453DG     H2210418   2.002   1.407   4.769  1.6167  1.1778  3.9490
  453DG     H2310419   2.082   1.517   4.651  1.8289  1.1034  1.1991
  454DG      C110420   1.722   4.427   5.305  0.1779  0.1892  0.4399
  454DG      C210421   2.378   4.252   5.857 -0.7082 -0.5631  0.4408
  454DG      H310422   1.643   4.433   5.381 -1.5401  2.5090 -1.3607
  454DG      H410423   1.677   4.391   5.213  2.1056 -0.4058 -0.3133
  454DG      H510424   1.763   4.522   5.270  0.7528 -0.3894 -0.4951
  454DG      H610425   2.463   4.294   5.804 -1.2196 -1.1246 -0.8618
  454DG      H710426   2.358   4.319   5.941 -1.6004  0.0381 -0.2320
  454DG      H810427   2.405   4.150   5.885  0.4407 -0.8569 -1.5445
  454DG      O910428   1.811   4.316   5.317  0.1346  0.1175 -0.5077
  454DG     O1010429   2.264   4.255   5.770  0.5657  0.3814 -0.1644
  454DG     C1110430   1.912   4.343   5.410 -0.3440  0.0423  0.2551
  454DG     C1210431   2.276   4.143   5.675  0.2291 -0.4227 -0.4288
  454DG     H1310432   1.882   4.395   5.501  1.1391  0.4847  0.5310
  454DG     H1410433   1.990   4.389   5.350  0.7834 -1.1778  0.7319
  454DG     H1510434   2.292   4.046   5.722 -0.9266 -1.1739 -1.5357
  454DG     H1610435   2.350   4.163   5.598 -0.5481  0.6673 -0.9130
  454DG     C1710436   1.969   4.215   5.461  0.0434 -0.5398 -0.8382
  454DG     C1810437   2.138   4.133   5.606  0.1972  0.1046 -0.7071
  454DG     O1910438   2.077   4.246   5.550  0.0344 -0.1766 -0.5764
  454DG     H2010439   2.012   4.161   5.377 -0.2056 -1.4195 -0.4183
  454DG     H2110440   1.895   4.148   5.505 -0.8101  0.3954 -0.8175
  454DG     H2210441   2.164   4.062   5.528  1.5433 -1.1877  0.8409
  454DG     H2310442   2.061   4.089   5.669  1.6482 -3.8310 -1.4108
  455DG      C110443   4.630   2.447   1.229 -0.4051  0.1483  0.4536
  455DG      C210444   4.563   1.761   1.111 -0.4288  0.7448 -0.2017
  455DG      H310445   4.543   2.477   1.172  1.4134  1.0661 -2.0129
  455DG      H410446   4.684   2.542   1.230  0.2952 -0.1834 -1.6579
  455DG      H510447   4.601   2.424   1.332 -0.6796  0.8180  0.5289
  455DG      H610448   4.455   1.776   1.105 -0.5977  0.6161  1.7294
  455DG      H710449   4.584   1.670   1.056  0.3031 -1.1139  2.8711
  455DG      H810450   4.602   1.742   1.211  0.3523  0.8908 -0.4730
  455DG      O910451   4.687   2.337   1.166  0.3797 -0.6681  0.0274
  455DG     O1010452   4.633   1.876   1.079  0.3098  0.2108 -0.1380
  455DG     C1110453   4.835   2.332   1.164  0.8197 -0.1272  0.0314
  455DG     C1210454   4.772   1.863   1.066  0.1503 -0.0353  0.5038
  455DG     H1310455   4.870   2.310   1.265  1.5966 -2.8295 -0.7531
  455DG     H1410456   4.874   2.424   1.119  0.7088 -0.4560 -0.7418
  455DG     H1510457   4.788   1.781   0.995 -0.7529  0.2620 -0.0516
  455DG     H1610458   4.816   1.834   1.161  1.8203 -0.6189 -0.3933
  455DG     C1710459   4.888   2.218   1.075  0.7453  0.3879  0.3977
  455DG     C1810460   4.831   1.989   1.004 -0.5031  0.5439  0.1301
  455DG     O1910461   4.801   2.101   1.086  0.1247 -0.0953  0.6832
  455DG     H2010462   4.989   2.185   1.099  0.7073  0.1900  0.2876
  455DG     H2110463   4.906   2.240   0.970  2.6947 -2.5357 -0.0217
  455DG     H2210464   4.939   1.979   1.008 -0.5775  0.0805  1.4383
  455DG     H2310465   4.805   2.003   0.899 -0.2599 -1.3700 -0.2222
  456DG      C110466   2.638   0.532   1.225 -0.3013  0.3795 -0.0760
  456DG      C210467   2.711   0.689   1.794 -0.3994 -0.0114 -0.1774
  456DG      H310468   2.540   0.486   1.234 -0.0174  0.0343  1.5052
  456DG      H410469   2.714   0.465   1.265 -1.1437 -2.0503 -2.3237
  456DG      H510470   2.643   0.557   1.119  0.4987  1.3681  0.1763
  456DG      H610471   2.751   0.763   1.863 -0.1910 -2.6085  2.6564
  456DG      H710472   2.737   0.587   1.823 -1.1703  0.1817  1.2858
  456DG      H810473   2.760   0.714   1.700  0.8054 -1.2068  0.1009
  456DG      O910474   2.652   0.642   1.313  0.4937  0.1384  0.5597
  456DG     O1010475   2.574   0.709   1.810  0.1158  0.0928  0.0989
  456DG     C1110476   2.554   0.744   1.302 -0.3011 -0.2308 -0.2242
  456DG     C1210477   2.514   0.838   1.785  0.0109  0.1989 -0.6164
  456DG     H1310478   2.461   0.694   1.330 -0.4666  1.3281  2.3194
  456DG     H1410479   2.552   0.791   1.204  2.0122  2.0811  0.7184
  456DG     H1510480   2.542   0.913   1.859  0.4420 -0.3905 -0.1713
  456DG     H1610481   2.407   0.828   1.804  0.4608  0.0712  2.3422
  456DG     C1710482   2.583   0.852   1.416 -0.6019 -0.9524  0.6530
  456DG     C1810483   2.550   0.904   1.648 -0.0116  0.6123  0.3664
  456DG     O1910484   2.555   0.804   1.547  0.1419  0.0108 -0.2514
  456DG     H2010485   2.522   0.940   1.398 -1.8360 -1.6025  1.4782
  456DG     H2110486   2.691   0.864   1.416 -0.5299 -0.7188 -2.5561
  456DG     H2210487   2.473   0.978   1.623  0.3171  0.3216 -1.7185
  456DG     H2310488   2.649   0.948   1.648 -0.0992  0.8154  0.2088
  457DG      C110489   2.050   3.468   4.320 -0.2471  0.0656 -0.5594
  457DG      C210490   1.946   3.026   4.948  0.4373  0.3451 -0.3108
  457DG      H310491   2.149   3.422   4.322  0.2646  1.1259 -0.5453
  457DG      H410492   2.050   3.575   4.344 -1.0851 -0.4762  2.1282
  457DG      H510493   2.002   3.469   4.222 -0.2125  0.1190 -0.5763
  457DG      H610494   1.971   3.086   5.036 -0.1053  2.2185 -1.3915
  457DG      H710495   1.926   2.923   4.979  2.7359 -0.0026  0.1619
  457DG      H810496   2.041   3.026   4.894  1.7390 -0.9018  1.8389
  457DG      O910497   1.963   3.396   4.409  0.2505  0.5179 -0.2939
  457DG     O1010498   1.843   3.077   4.866  0.0841 -0.2637  0.3342
  457DG     C1110499   1.839   3.459   4.431  0.3250  0.6173  0.1729
  457DG     C1210500   1.843   3.220   4.834 -0.5989 -0.1892 -0.4115
  457DG     H1310501   1.782   3.479   4.340 -2.2220 -1.8375  1.0629
  457DG     H1410502   1.862   3.554   4.477 -0.9136  0.0532  2.0692
  457DG     H1510503   1.947   3.251   4.821 -0.7523  0.4606 -0.1204
  457DG     H1610504   1.814   3.281   4.919  0.7832  0.5532 -0.4441
  457DG     C1710505   1.747   3.378   4.518  0.2025 -0.6331 -0.9660
  457DG     C1810506   1.754   3.253   4.718 -0.9420  0.6695  0.5595
  457DG     O1910507   1.818   3.347   4.640 -0.2382 -0.3446  0.9901
  457DG     H2010508   1.718   3.289   4.462 -0.1055 -1.0939 -0.0978
  457DG     H2110509   1.664   3.444   4.542  0.5099 -0.5097 -0.2155
  457DG     H2210510   1.730   3.160   4.666  0.8044  0.4377  0.1028
  457DG     H2310511   1.657   3.295   4.746 -3.5734 -2.4502 -2.7982
  458DG      C110512   0.077   3.223   0.819 -0.2472  0.3892 -0.1449
  458DG      C210513   0.684   3.622   0.542  0.6954 -0.0839 -0.1534
  458DG      H310514   0.022   3.255   0.730  2.5709 -0.2856 -2.2717
  458DG      H410515   0.022   3.234   0.912  0.6857 -0.0053  0.4643
  458DG      H510516   0.088   3.114   0.813  0.7606  0.4473  0.4020
  458DG      H610517   0.596   3.636   0.479  1.7085 -1.9643 -2.1291
  458DG      H710518   0.720   3.719   0.574 -3.5391  2.5047 -2.3320
  458DG      H810519   0.758   3.579   0.474 -0.7547 -1.2984 -1.0468
  458DG      O910520   0.210   3.276   0.822  0.1501  0.1569 -0.0435
  458DG     O1010521   0.665   3.530   0.642  0.1867  0.3534 -0.3398
  458DG     C1110522   0.281   3.230   0.930 -0.4069 -0.2077 -0.3709
  458DG     C1210523   0.618   3.402   0.596 -0.0655  0.0550 -0.0933
  458DG     H1310524   0.250   3.126   0.946 -1.6037  0.3479  1.1392
  458DG     H1410525   0.260   3.287   1.020 -0.5152 -0.9009  0.0549
  458DG     H1510526   0.698   3.362   0.534 -1.0856 -2.7029  0.2354
  458DG     H1610527   0.528   3.409   0.536  0.3770 -0.8511 -0.8856
  458DG     C1710528   0.437   3.236   0.883  0.3705  0.2143 -0.3350
  458DG     C1810529   0.601   3.315   0.725 -0.1375 -0.1822  0.6418
  458DG     O1910530   0.465   3.316   0.768  0.2531 -0.3761  0.4880
  458DG     H2010531   0.473   3.134   0.873 -1.4025 -0.5044  0.1123
  458DG     H2110532   0.498   3.275   0.965 -0.2891  0.4593  0.0509
  458DG     H2210533   0.630   3.211   0.714 -0.6063 -0.4310  1.6386
  458DG     H2310534   0.668   3.348   0.804  2.2512 -0.7615 -1.0102
  459DG      C110535   2.798   1.218   1.984  0.2052  0.1608  0.4228
  459DG      C210536   3.038   0.600   2.487  0.2165  0.4764  0.1106
  459DG      H310537   2.740   1.285   1.920 -1.0239  1.3815  2.6802
  459DG      H410538   2.902   1.218   1.953  0.6736 -0.8359  1.8642
  459DG      H510539   2.790   1.261   2.084 -0.5286  1.4067 -0.1410
  459DG      H610540   3.047   0.574   2.593  1.6155  1.0592  0.1612
  459DG      H710541   3.045   0.514   2.420  0.6057  1.3126 -0.9525
  459DG      H810542   3.125   0.664   2.478 -0.3632  1.5597  1.7426
  459DG      O910543   2.756   1.083   1.979  0.2986 -0.3105  0.1530
  459DG     O1010544   2.925   0.677   2.443 -0.1497  0.2792 -0.8306
  459DG     C1110545   2.847   1.008   2.062  0.5499 -0.2211 -0.4175
  459DG     C1210546   2.926   0.817   2.488  0.1849  0.0108 -0.4251
  459DG     H1310547   2.953   1.029   2.066  0.5790 -0.2394  3.3599
  459DG     H1410548   2.846   0.903   2.031 -3.1743  0.3901 -3.0357
  459DG     H1510549   3.018   0.866   2.456  1.3085 -2.0789 -0.5680
  459DG     H1610550   2.919   0.822   2.597 -0.0242  1.0109 -0.4758
  459DG     C1710551   2.781   0.994   2.196 -0.3942  0.1682 -0.1027
  459DG     C1810552   2.824   0.897   2.412  0.9999 -0.6521  0.0130
  459DG     O1910553   2.875   0.926   2.281  0.2879 -0.4996  0.0129
  459DG     H2010554   2.689   0.936   2.191  1.1478 -2.3460 -1.6014
  459DG     H2110555   2.781   1.096   2.235 -0.8916 -0.0889  0.5715
  459DG     H2210556   2.724   0.854   2.419  1.5168 -1.5704  3.4684
  459DG     H2310557   2.816   0.991   2.467  1.9947 -0.6320  0.1288
  460DG      C110558   0.437   2.262   3.731  0.4763  0.5010 -0.2697
  460DG      C210559   0.391   2.181   4.136  0.3097 -0.4063 -0.4126
  460DG      H310560   0.499   2.172   3.739 -0.8083 -0.4583 -0.8481
  460DG      H410561   0.398   2.292   3.828  0.1249  0.9461 -0.5472
  460DG      H510562   0.507   2.338   3.696  1.9662 -0.2861  0.8439
  460DG      H610563   0.472   2.137   4.193 -0.1116 -0.6456  0.0097
  460DG      H710564   0.411   2.153   4.033 -2.3939  2.0883 -1.7736
  460DG      H810565   0.418   2.286   4.123 -0.4602  0.0437  1.2446
  460DG      O910566   0.344   2.225   3.632 -0.0676 -0.4766 -0.2909
  460DG     O1010567   0.252   2.161   4.165  0.3407 -0.3873 -0.4885
  460DG     C1110568   0.259   2.114   3.640 -0.0120 -0.4527  0.4573
  460DG     C1210569   0.185   2.049   4.116  0.7088  0.2060 -0.1917
  460DG     H1310570   0.321   2.025   3.649  1.1909  0.4485  1.4860
  460DG     H1410571   0.208   2.110   3.544  0.5603 -1.3663  0.1710
  460DG     H1510572   0.101   2.023   4.181 -0.3549  2.7017 -0.4658
  460DG     H1610573   0.251   1.963   4.110  0.1725 -0.1616 -1.1215
  460DG     C1710574   0.150   2.124   3.751  0.1423 -0.0035  0.0260
  460DG     C1810575   0.116   2.074   3.980  0.0034  0.3397  0.4293
  460DG     O1910576   0.206   2.105   3.879  0.3726 -0.9022  0.8238
  460DG     H2010577   0.072   2.052   3.726 -0.0657  1.2835 -3.6321
  460DG     H2110578   0.099   2.220   3.746  0.0412  0.0868  2.0442
  460DG     H2210579   0.053   1.991   3.950  0.9283  0.2189 -1.3465
  460DG     H2310580   0.052   2.162   3.985 -0.1107  0.3135 -0.4425
  461DG      C110581   0.814   3.313   1.634  0.7987 -0.4721 -0.4634
  461DG      C210582   0.307   3.852   1.828 -0.1304  0.0717 -0.4944
  461DG      H310583   0.818   3.229   1.565 -0.5887 -2.0486  1.2447
  461DG      H410584   0.778   3.278   1.731  1.3130  0.3967  0.0581
  461DG      H510585   0.907   3.370   1.639  1.0303 -0.8258 -0.7133
  461DG      H610586   0.299   3.828   1.934  2.5645  2.5035  0.3944
  461DG      H710587   0.310   3.961   1.829  2.8892  0.0818  0.4457
  461DG      H810588   0.216   3.820   1.777 -1.1442  0.7612  0.8278
  461DG      O910589   0.724   3.409   1.588 -0.6399  0.2916 -0.4505
  461DG     O1010590   0.422   3.796   1.766  0.5246 -0.2443  0.2527
  461DG     C1110591   0.588   3.366   1.596 -0.4768  0.7145 -0.3974
  461DG     C1210592   0.430   3.821   1.624 -0.0554 -0.2100  0.7639
  461DG     H1310593   0.543   3.350   1.694  2.4914 -0.4615  0.8826
  461DG     H1410594   0.591   3.273   1.540 -3.4421  0.1573  0.1738
  461DG     H1510595   0.523   3.877   1.610 -0.4060  0.4926  1.1711
  461DG     H1610596   0.365   3.901   1.587 -0.4254 -0.0181  1.8051
  461DG     C1710597   0.509   3.461   1.512 -0.3090 -0.9431  0.3225
  461DG     C1810598   0.423   3.696   1.535 -0.4780  0.5760  0.0545
  461DG     O1910599   0.514   3.592   1.578  0.1313  0.0222  0.2240
  461DG     H2010600   0.408   3.422   1.499 -0.7882  0.7746 -1.6409
  461DG     H2110601   0.563   3.465   1.418  0.0362  0.3976  0.5544
  461DG     H2210602   0.323   3.658   1.556 -1.2780  3.1574  1.4052
  461DG     H2310603   0.431   3.722   1.430  0.0282  1.1251  0.2267
  462DG      C110604   4.920   1.754   5.436  0.0282  1.0475  0.2913
  462DG      C210605   4.477   1.450   5.043 -0.6607  0.0663 -0.1020
  462DG      H310606   4.871   1.748   5.533 -0.2461 -0.1315  0.0956
  462DG      H410607   4.883   1.841   5.381 -1.1969  0.7288  0.5830
  462DG      H510608   5.029   1.758   5.441  0.2948 -2.5167  0.2670
  462DG      H610609   4.451   1.358   4.989 -1.2401  1.6331 -2.6867
  462DG      H710610   4.380   1.499   5.036 -0.8379 -0.3975 -1.1380
  462DG      H810611   4.545   1.509   4.981  0.5762  0.2276  1.3636
  462DG      O910612   4.893   1.634   5.363  0.8177 -0.2172 -0.6197
  462DG     O1010613   4.531   1.427   5.169  0.0858 -0.5537 -0.1603
  462DG     C1110614   4.938   1.509   5.417 -0.4406  0.0942  0.6691
  462DG     C1210615   4.628   1.322   5.167  0.4422  0.2520  0.6576
  462DG     H1310616   4.925   1.504   5.525 -1.3333 -0.8313  0.5392
  462DG     H1410617   5.044   1.498   5.396 -0.6625 -1.1171  0.0422
  462DG     H1510618   4.708   1.365   5.106 -0.1929  0.4090 -0.0823
  462DG     H1610619   4.596   1.227   5.125 -2.6392  1.8284 -0.8763
  462DG     C1710620   4.873   1.384   5.351 -0.7247 -0.0463  0.0593
  462DG     C1810621   4.665   1.282   5.307  0.8149  0.0046  0.5155
  462DG     O1910622   4.729   1.388   5.371  0.5763  0.6464  0.2633
  462DG     H2010623   4.914   1.291   5.391 -0.8693 -0.5423 -0.9139
  462DG     H2110624   4.893   1.385   5.244  1.4163  1.2207  0.4017
  462DG     H2210625   4.579   1.254   5.368  0.3892 -2.1574 -0.9540
  462DG     H2310626   4.720   1.188   5.300 -0.9299 -1.0119 -0.6745
  463DG      C110627   5.008   4.259   3.093  0.1201 -0.3568  0.4610
  463DG      C210628   4.566   4.047   3.639 -0.0791 -0.4326  0.3024
  463DG      H310629   5.062   4.179   3.144 -0.2173 -0.2234  1.0256
  463DG      H410630   5.037   4.352   3.141  2.5429  0.1838 -1.7444
  463DG      H510631   5.040   4.265   2.989  0.5077  1.3927  0.6448
  463DG      H610632   4.645   4.005   3.701 -1.1661  0.1397  2.1587
  463DG      H710633   4.557   4.149   3.676  1.9834  0.5692 -1.7092
  463DG      H810634   4.472   4.000   3.667 -0.4862  0.1084 -0.1265
  463DG      O910635   4.868   4.247   3.116  0.2029 -0.0530  0.0684
  463DG     O1010636   4.588   4.045   3.498 -0.0355 -0.7397  0.1354
  463DG     C1110637   4.809   4.126   3.069 -0.1067 -0.6211  0.3026
  463DG     C1210638   4.486   4.119   3.433  1.0327 -0.0431  0.5025
  463DG     H1310639   4.857   4.045   3.124  0.3686 -0.2849  0.3883
  463DG     H1410640   4.807   4.110   2.961 -1.1211 -2.1500  0.5144
  463DG     H1510641   4.482   4.222   3.468  0.4639 -0.7190  2.5868
  463DG     H1610642   4.390   4.075   3.458  0.9053 -0.0388  0.0274
  463DG     C1710643   4.658   4.130   3.102 -0.7400 -0.2787 -0.4463
  463DG     C1810644   4.501   4.111   3.277  0.3727 -0.0392 -0.9431
  463DG     O1910645   4.630   4.143   3.246 -0.1077  0.2782 -1.2060
  463DG     H2010646   4.621   4.041   3.052 -0.3127 -0.1064 -1.0754
  463DG     H2110647   4.611   4.222   3.066 -0.5324  0.1680  0.3850
  463DG     H2210648   4.472   4.008   3.254 -1.1655 -0.0104  0.5867
  463DG     H2310649   4.422   4.171   3.231 -0.7088 -1.4191 -0.9530
  464DG      C110650   3.203   3.059   1.175 -0.0251 -0.0871  0.0435
  464DG      C210651   2.693   2.748   0.991 -0.2231 -0.7145  0.2034
  464DG      H310652   3.304   3.100   1.184  0.5414 -1.2836 -0.7047
  464DG      H410653   3.141   3.111   1.248 -1.6940 -1.3484 -0.4164
  464DG      H510654   3.163   3.075   1.074  0.5159 -0.2554 -0.1976
  464DG      H610655   2.648   2.735   0.893 -0.4490 -1.3157  0.3827
  464DG      H710656   2.667   2.664   1.055 -0.0143 -0.7562  0.2347
  464DG      H810657   2.642   2.826   1.049  1.1244 -0.5508  1.2305
  464DG      O910658   3.182   2.921   1.212 -0.6100  0.0519 -0.3184
  464DG     O1010659   2.833   2.750   0.984  0.1099 -0.2128 -0.2441
  464DG     C1110660   3.277   2.836   1.147  0.2863  0.5014  0.1377
  464DG     C1210661   2.897   2.628   0.948  0.1403  0.0366  0.1019
  464DG     H1310662   3.284   2.755   1.220 -2.5499 -2.1088 -2.2282
  464DG     H1410663   3.375   2.882   1.140 -0.9392  3.0916 -1.5065
  464DG     H1510664   2.848   2.590   0.858  1.2200 -0.1386 -0.4244
  464DG     H1610665   2.882   2.554   1.027 -0.1818  0.1061  0.1095
  464DG     C1710666   3.228   2.757   1.023 -0.4909  0.7521  0.3385
  464DG     C1810667   3.047   2.647   0.933 -0.6351 -0.3926  0.0108
  464DG     O1910668   3.092   2.722   1.042 -0.2075  0.1712  0.3449
  464DG     H2010669   3.287   2.668   1.002 -0.9695  1.0426 -2.6626
  464DG     H2110670   3.245   2.829   0.943 -0.8602 -0.7740 -1.1573
  464DG     H2210671   3.105   2.559   0.905  1.0890  0.8185 -0.3665
  464DG     H2310672   3.047   2.717   0.850 -0.0219  0.1948  0.5006
  465DG      C110673   3.310   4.651   5.460 -0.4141  0.2919 -0.1657
  465DG      C210674   3.312   4.082   5.494 -0.1385  0.6011 -0.1901
  465DG      H310675   3.373   4.645   5.372 -0.7843  2.7783 -0.6592
  465DG      H410676   3.360   4.608   5.546 -0.1722 -0.5345 -0.7056
  465DG      H510677   3.306   4.758   5.479 -1.3463 -0.0604  1.9744
  465DG      H610678   3.362   4.029   5.576  1.0279  2.3994  0.3360
  465DG      H710679   3.232   4.024   5.448 -1.1009  1.2330  0.6298
  465DG      H810680   3.381   4.084   5.410  1.6631  0.2435  1.2145
  465DG      O910681   3.179   4.608   5.434 -0.3831 -0.1024  0.5655
  465DG     O1010682   3.256   4.204   5.539 -0.2600 -0.4281 -0.2559
  465DG     C1110683   3.078   4.638   5.536 -0.3548 -0.2108 -0.1788
  465DG     C1210684   3.164   4.183   5.642  0.0487  0.0628 -0.2965
  465DG     H1310685   2.981   4.620   5.489 -0.0283 -0.1509 -0.8710
  465DG     H1410686   3.078   4.744   5.560 -1.4368  0.1380 -1.5858
  465DG     H1510687   3.193   4.109   5.717 -1.6008 -0.9855 -0.6426
  465DG     H1610688   3.067   4.148   5.607 -0.2680  0.6457 -0.0294
  465DG     C1710689   3.083   4.537   5.650  0.4049 -1.3965  0.0735
  465DG     C1810690   3.140   4.319   5.705 -0.2412 -0.2341  0.0748
  465DG     O1910691   3.114   4.410   5.597 -0.0111  0.1332  0.0999
  465DG     H2010692   2.981   4.537   5.688  0.3599  0.4117  0.0235
  465DG     H2110693   3.159   4.566   5.723 -0.4994  0.8810  0.1771
  465DG     H2210694   3.057   4.319   5.776  2.2761 -0.3453  3.2611
  465DG     H2310695   3.234   4.335   5.758 -0.1225  0.7175 -0.4151
  466DG      C110696   0.713   4.093   3.663  0.4112 -0.3383  0.1433
  466DG      C210697   0.162   4.417   3.631 -0.3622  0.3949 -0.4796
  466DG      H310698   0.719   4.197   3.697  0.4056  0.3220 -1.7227
  466DG      H410699   0.817   4.061   3.657  0.5078  0.1567 -1.3651
  466DG      H510700   0.668   4.030   3.739 -1.0349  2.5194  1.8458
  466DG      H610701   0.194   4.518   3.654 -1.5641  0.6944 -0.0296
  466DG      H710702   0.055   4.422   3.610 -1.0766 -0.6388  2.3759
  466DG      H810703   0.171   4.372   3.730 -1.5099  1.7841  0.2833
  466DG      O910704   0.626   4.090   3.545  1.0887  0.0864 -0.7074
  466DG     O1010705   0.245   4.342   3.546  0.2425 -0.0069  0.8209
  466DG     C1110706   0.668   4.154   3.427 -0.0908 -0.0600  0.3033
  466DG     C1210707   0.273   4.408   3.423 -0.1661  0.6398 -0.4266
  466DG     H1310708   0.748   4.101   3.375 -0.0460  1.9705 -1.9075
  466DG     H1410709   0.720   4.249   3.442  0.0595 -0.1508  0.3563
  466DG     H1510710   0.337   4.494   3.445 -1.0295  1.1754  0.0787
  466DG     H1610711   0.183   4.451   3.379 -0.5877 -0.9739 -1.2123
  466DG     C1710712   0.545   4.174   3.340 -0.2534 -0.1396 -0.2471
  466DG     C1810713   0.355   4.309   3.334  0.7699  0.8352 -0.2927
  466DG     O1910714   0.452   4.243   3.422  0.3105  0.2298 -0.2560
  466DG     H2010715   0.499   4.083   3.301 -1.9003  0.5850 -0.0464
  466DG     H2110716   0.574   4.230   3.251  3.0341 -0.7494  0.2986
  466DG     H2210717   0.294   4.227   3.295  3.1662 -0.7210 -0.9620
  466DG     H2310718   0.399   4.363   3.250  2.0457  0.6377  0.2303
  467DG      C110719   4.645   3.383   0.625  0.1475 -0.2049 -0.3832
  467DG      C210720   4.259   3.002   1.301 -0.4676 -0.2341 -0.7559
  467DG      H310721   4.711   3.435   0.556  0.0908 -0.5124 -0.6715
  467DG      H410722   4.548   3.428   0.604  0.1942 -0.3383 -0.8911
  467DG      H510723   4.634   3.285   0.579 -1.9752 -0.3695  0.3807
  467DG      H610724   4.269   2.994   1.409 -2.1301  3.0641 -0.1951
  467DG      H710725   4.186   3.083   1.288  1.4747  1.4867 -1.6102
  467DG      H810726   4.217   2.912   1.256 -1.2182 -0.1994 -0.1467
  467DG      O910727   4.682   3.366   0.759  0.1358  0.2686 -0.4650
  467DG     O1010728   4.382   3.035   1.234 -0.0446 -0.2716 -0.4047
  467DG     C1110729   4.583   3.304   0.844  0.2684 -0.0774  0.1418
  467DG     C1210730   4.443   3.159   1.276 -0.7680 -1.3123 -0.0905
  467DG     H1310731   4.549   3.211   0.799  2.0576 -0.5644 -0.2455
  467DG     H1410732   4.487   3.356   0.856  0.9020  1.0872  0.3720
  467DG     H1510733   4.477   3.151   1.379 -3.1911  0.3216  0.9380
  467DG     H1610734   4.367   3.238   1.279 -0.5418 -1.0564 -0.8370
  467DG     C1710735   4.637   3.272   0.975  0.5433  0.0823 -0.8231
  467DG     C1810736   4.558   3.200   1.185  0.3023 -1.2351 -0.3539
  467DG     O1910737   4.529   3.202   1.048 -0.2630  0.3264  0.6250
  467DG     H2010738   4.650   3.369   1.023 -1.0213 -0.6338  1.2018
  467DG     H2110739   4.730   3.217   0.966  2.0594  2.3627  0.0377
  467DG     H2210740   4.582   3.299   1.224 -0.3474 -1.5598  0.9227
  467DG     H2310741   4.643   3.136   1.208  0.0793 -1.2005  0.5930
  468DG      C110742   3.993   1.693   3.641  0.3939 -0.6147 -0.1566
  468DG      C210743   4.478   1.632   2.896  0.3017  0.1096  0.1971
  468DG      H310744   4.048   1.634   3.714  0.9406 -0.2074 -0.2274
  468DG      H410745   3.933   1.630   3.577 -0.6970  2.6623 -2.6728
  468DG      H510746   3.920   1.755   3.693 -1.4459  0.4583 -3.6997
  468DG      H610747   4.426   1.658   2.804  0.4798  0.3277  0.1560
  468DG      H710748   4.585   1.652   2.891 -0.0014  2.1731  1.2225
  468DG      H810749   4.473   1.523   2.890  1.4527  0.0640 -0.3408
  468DG      O910750   4.079   1.772   3.559 -0.6194  0.1411  0.0089
  468DG     O1010751   4.417   1.713   2.995  0.1057  0.4531 -0.4542
  468DG     C1110752   4.154   1.692   3.466  0.0363  0.0906 -0.0242
  468DG     C1210753   4.508   1.730   3.109  0.7928 -0.2633  0.5222
  468DG     H1310754   4.085   1.650   3.393  0.4574 -1.8198  0.6236
  468DG     H1410755   4.209   1.615   3.519  2.4538  0.5805 -1.6425
  468DG     H1510756   4.580   1.806   3.081 -1.3651  1.6576 -0.0943
  468DG     H1610757   4.544   1.630   3.136 -1.0527 -0.9966  0.4100
  468DG     C1710758   4.248   1.783   3.372  0.4164 -0.0679  0.1170
  468DG     C1810759   4.441   1.788   3.235 -0.1349 -0.2712 -0.0417
  468DG     O1910760   4.322   1.708   3.271 -0.2497 -0.2981  0.2434
  468DG     H2010761   4.319   1.834   3.437  2.4738 -2.4251 -0.1469
  468DG     H2110762   4.187   1.851   3.313  1.2452 -0.0271 -0.7051
  468DG     H2210763   4.514   1.794   3.316 -2.2407  1.1603  1.8683
  468DG     H2310764   4.404   1.888   3.213  3.6642  1.2103 -0.4786
  469DG      C110765   4.976   3.909   1.933  0.2228  0.1386  0.2646
  469DG      C210766   5.287   3.719   2.614 -0.3429 -0.0055  0.3386
  469DG      H310767   4.968   3.874   1.831  0.1635  1.9757 -0.3986
  469DG      H410768   5.071   3.963   1.942  0.2196 -0.0536  1.7221
  469DG      H510769   4.887   3.967   1.955  0.1979 -0.5679  2.2769
  469DG      H610770   5.394   3.702   2.628 -0.6779  0.0735  3.9276
  469DG      H710771   5.270   3.827   2.609  1.3183  0.2346 -3.2750
  469DG      H810772   5.239   3.677   2.703 -0.5208  1.9073  1.2026
  469DG      O910773   4.977   3.804   2.027 -0.2373  0.4069  0.4020
  469DG     O1010774   5.241   3.660   2.493  0.8986  0.3090  0.2166
  469DG     C1110775   5.082   3.704   2.009  0.2091 -0.6249 -0.3016
  469DG     C1210776   5.096   3.654   2.488 -0.0907  1.1487  0.0171
  469DG     H1310777   5.181   3.748   2.003  0.2799 -0.7900 -0.3612
  469DG     H1410778   5.055   3.646   1.921 -0.4505 -0.3025 -0.3156
  469DG     H1510779   5.067   3.758   2.503  0.9336  1.3753  0.6057
  469DG     H1610780   5.056   3.596   2.571  1.3380  1.9432  1.3240
  469DG     C1710781   5.073   3.605   2.120  0.5077 -0.0073  0.4273
  469DG     C1810782   5.053   3.587   2.361 -0.2781 -0.1097 -0.4940
  469DG     O1910783   5.085   3.670   2.249  0.1686 -0.9057 -0.3575
  469DG     H2010784   5.154   3.532   2.106 -1.4784 -2.5264  1.2510
  469DG     H2110785   4.979   3.550   2.111  1.3616 -1.5324  0.4199
  469DG     H2210786   5.101   3.490   2.344 -0.9687 -0.6336  0.4271
  469DG     H2310787   4.944   3.578   2.361 -0.3532  0.5418  0.8428
  470DG      C110788   3.476   2.296   2.558  0.0954  0.2841  0.3394
  470DG      C210789   3.494   1.611   2.041 -0.1131 -0.1887 -0.2361
  470DG      H310790   3.407   2.371   2.598  0.3982 -0.1525  1.7157
  470DG      H410791   3.559   2.351   2.513  1.1876 -1.7226 -0.1993
  470DG      H510792   3.513   2.236   2.641 -1.9094 -0.9581  0.4266
  470DG      H610793   3.546   1.570   1.955  0.8550  1.5045 -0.5086
  470DG      H710794   3.537   1.549   2.119 -3.1149  0.3484  2.0472
  470DG      H810795   3.387   1.595   2.028  0.0874 -0.7776 -1.2791
  470DG      O910796   3.421   2.209   2.459  0.3239  0.0453 -0.1987
  470DG     O1010797   3.523   1.754   2.051 -0.7264  0.2628 -0.5839
  470DG     C1110798   3.328   2.109   2.508 -0.7027 -0.4295 -0.0393
  470DG     C1210799   3.541   1.795   2.189 -1.4478 -0.0025  0.0561
  470DG     H1310800   3.237   2.161   2.537 -0.8901 -0.5874 -0.3431
  470DG     H1410801   3.378   2.061   2.593  0.7674  1.2459  0.1053
  470DG     H1510802   3.600   1.885   2.171 -0.2564 -0.6339  0.7201
  470DG     H1610803   3.593   1.719   2.246  0.7547  0.0677 -1.7144
  470DG     C1710804   3.306   2.000   2.401  1.4853 -0.1082 -0.1358
  470DG     C1810805   3.414   1.846   2.248  1.0694  0.5489  0.6143
  470DG     O1910806   3.427   1.953   2.341  0.2525 -0.2328 -0.5343
  470DG     H2010807   3.244   2.043   2.322  0.5580 -3.3633 -1.3123
  470DG     H2110808   3.248   1.919   2.444 -0.1683 -0.6357 -3.0689
  470DG     H2210809   3.351   1.885   2.167  0.6125  1.1473  1.2461
  470DG     H2310810   3.359   1.766   2.298  1.4919  1.3672  2.4565
  471DG      C110811   0.387   0.361   1.763 -0.0003  0.0534 -0.1600
  471DG      C210812   0.667   0.891   2.195 -0.4842 -0.3474  0.2241
  471DG      H310813   0.455   0.308   1.696  0.3436  0.8203 -0.4246
  471DG      H410814   0.284   0.331   1.746 -0.5867  1.2912  1.0859
  471DG      H510815   0.420   0.330   1.862  3.8215  0.7903 -1.0307
  471DG      H610816   0.761   0.878   2.141 -1.6414  1.1497 -2.3072
  471DG      H710817   0.660   0.996   2.224 -1.0425  0.5575 -2.8246
  471DG      H810818   0.685   0.832   2.285 -0.2974  0.4620  0.7294
  471DG      O910819   0.402   0.502   1.746 -0.4141 -0.6210  0.4849
  471DG     O1010820   0.550   0.856   2.112 -0.9532 -0.2554 -0.2707
  471DG     C1110821   0.316   0.570   1.839 -0.2825  0.5849 -0.0457
  471DG     C1210822   0.555   0.934   1.993 -1.1446 -0.4877  0.0661
  471DG     H1310823   0.339   0.560   1.945 -1.8487  0.3026  0.3006
  471DG     H1410824   0.211   0.541   1.833 -0.3646  1.0313 -0.9987
  471DG     H1510825   0.647   0.903   1.945 -0.8373 -2.4165  1.7341
  471DG     H1610826   0.571   1.040   2.011 -0.9980 -0.2417 -1.4312
  471DG     C1710827   0.323   0.718   1.806  0.0186 -0.3015 -0.2468
  471DG     C1810828   0.434   0.908   1.898 -0.1787 -0.3646  0.1301
  471DG     O1910829   0.426   0.768   1.897  0.0446  0.3479 -0.0755
  471DG     H2010830   0.223   0.754   1.827 -0.2659  2.0148 -4.4949
  471DG     H2110831   0.347   0.744   1.703 -2.0098  1.6737 -0.2814
  471DG     H2210832   0.338   0.932   1.943 -1.6312 -0.6112 -2.6252
  471DG     H2310833   0.437   0.966   1.806  1.6998 -1.4328 -0.5444
  472DG      C110834   4.882   4.011   0.911 -0.5948  0.1497  0.3349
  472DG      C210835   5.429   3.622   0.680  0.1895 -0.2452  0.0769
  472DG      H310836   4.904   3.993   1.016 -0.7317 -1.7973  0.0651
  472DG      H410837   4.827   3.921   0.886 -0.8955 -0.4514  2.9270
  472DG      H510838   4.823   4.103   0.902 -2.0782 -0.9223 -1.4415
  472DG      H610839   5.351   3.556   0.642 -0.2962 -0.8577  2.0002
  472DG      H710840   5.514   3.611   0.613 -0.1757  0.5593 -0.5242
  472DG      H810841   5.466   3.597   0.780  1.5228  0.7765 -0.1346
  472DG      O910842   5.007   4.026   0.836  0.1502  0.3800  0.3422
  472DG     O1010843   5.377   3.756   0.676  0.2097  0.0306  0.0181
  472DG     C1110844   5.093   4.126   0.872  0.2564 -0.1445  0.7068
  472DG     C1210845   5.460   3.857   0.744  0.2594 -0.0773 -0.3835
  472DG     H1310846   5.120   4.124   0.978 -1.2406  1.4558  1.1695
  472DG     H1410847   5.035   4.215   0.848 -1.4401 -1.3644  0.0413
  472DG     H1510848   5.563   3.841   0.713  0.7338  0.1572  0.9748
  472DG     H1610849   5.464   3.824   0.848  0.3427  1.6683  0.2015
  472DG     C1710850   5.213   4.132   0.775  0.0056  0.0117  0.5917
  472DG     C1810851   5.415   4.002   0.738 -0.2856 -0.1768 -0.0021
  472DG     O1910852   5.272   4.004   0.765 -0.0764 -0.0134  0.6829
  472DG     H2010853   5.282   4.212   0.800  1.2946 -0.6454 -0.7416
  472DG     H2110854   5.183   4.153   0.672  1.8169  0.8807  0.2057
  472DG     H2210855   5.471   4.056   0.814  0.4196 -1.5552  0.5019
  472DG     H2310856   5.434   4.043   0.639 -0.3402  0.1193  0.1098
  473DG      C110857   2.217   0.968   0.321  0.2610 -0.3876 -1.0582
  473DG      C210858   1.611   1.410  -0.142  0.1169  0.4619 -0.1242
  473DG      H310859   2.135   0.912   0.368  1.2242  1.0024  2.6234
  473DG      H410860   2.301   0.968   0.390  1.1667 -2.8918 -2.0178
  473DG      H510861   2.244   0.913   0.231 -1.8849 -1.1727 -1.2967
  473DG      H610862   1.582   1.515  -0.155 -0.0752  0.2936 -1.1147
  473DG      H710863   1.674   1.367  -0.220  1.0666 -1.1152  1.4433
  473DG      H810864   1.519   1.352  -0.149 -0.4574  0.7446  3.1465
  473DG      O910865   2.187   1.106   0.301  0.2559  0.8503  0.1669
  473DG     O1010866   1.678   1.389  -0.019  0.2396  0.2917  0.5886
  473DG     C1110867   2.080   1.116   0.205 -0.5211  0.6192  0.4462
  473DG     C1210868   1.801   1.454   0.003 -0.2716  0.6587  0.3591
  473DG     H1310869   2.003   1.040   0.206 -1.4704  1.5302 -0.2762
  473DG     H1410870   2.106   1.115   0.099 -0.1787  0.1504  0.5355
  473DG     H1510871   1.793   1.563  -0.003  1.0250  0.6922 -2.9367
  473DG     H1610872   1.865   1.432  -0.082 -0.9579  0.7142 -0.1803
  473DG     C1710873   2.009   1.248   0.226  0.7010 -0.1180 -0.9009
  473DG     C1810874   1.876   1.416   0.135  0.2415  0.1765 -0.8220
  473DG     O1910875   1.922   1.282   0.126 -0.0790  0.0912  0.4411
  473DG     H2010876   2.080   1.328   0.247 -0.3129  1.0025 -1.5905
  473DG     H2110877   1.956   1.240   0.321 -1.4758  1.9901 -1.8244
  473DG     H2210878   1.959   1.482   0.159 -0.1617  0.7419 -0.9693
  473DG     H2310879   1.806   1.405   0.217  0.3958 -0.9880 -0.8233
  474DG      C110880   3.965   2.469   5.293  0.1688 -0.1382 -0.4729
  474DG      C210881   3.357   2.476   5.800  0.1531 -0.3731  0.5197
  474DG      H310882   4.041   2.533   5.248  0.0548 -2.5123 -4.5152
  474DG      H410883   3.905   2.439   5.207 -0.6926  0.4160 -0.0899
  474DG      H510884   4.008   2.379   5.337  1.7137  0.6499 -0.3185
  474DG      H610885   3.333   2.509   5.901  0.3705 -0.7531  0.6957
  474DG      H710886   3.273   2.512   5.740 -1.2454 -1.7621  1.5483
  474DG      H810887   3.360   2.367   5.805  1.4805 -0.3507  0.5088
  474DG      O910888   3.874   2.516   5.385  0.1873 -0.0306 -0.5980
  474DG     O1010889   3.476   2.534   5.753 -0.2722 -0.8810  0.4329
  474DG     C1110890   3.817   2.646   5.350 -0.1961  1.0379  0.9728
  474DG     C1210891   3.467   2.672   5.710 -0.3506  0.4134  0.2962
  474DG     H1310892   3.739   2.635   5.275  0.2945 -3.4433  0.8600
  474DG     H1410893   3.890   2.719   5.314 -0.6119  0.2094 -1.7705
  474DG     H1510894   3.440   2.726   5.800 -1.3530 -1.4393  1.1688
  474DG     H1610895   3.392   2.674   5.631 -0.0731  0.1051  0.0185
  474DG     C1710896   3.763   2.713   5.482  0.3052 -0.2950 -0.7143
  474DG     C1810897   3.606   2.717   5.658  0.3607 -0.3827 -0.0922
  474DG     O1910898   3.641   2.654   5.531 -0.6601  0.7294  0.4930
  474DG     H2010899   3.739   2.817   5.461 -3.3702 -0.2911  2.3825
  474DG     H2110900   3.845   2.718   5.554  0.1756 -0.6882 -0.5371
  474DG     H2210901   3.609   2.824   5.638  0.5892 -0.2463  0.6229
  474DG     H2310902   3.691   2.702   5.725 -1.9657 -1.7237  2.7913
  475DG      C110903   0.190   4.286   0.077 -0.0865  0.2997  0.2926
  475DG      C210904   0.768   3.821  -0.324  0.2680  0.5008 -0.0294
  475DG      H310905   0.131   4.326  -0.006  1.7598  2.7918  0.0868
  475DG      H410906   0.251   4.368   0.114  0.6031 -0.0924  0.0441
  475DG      H510907   0.114   4.250   0.146 -2.6972  0.1068 -2.4800
  475DG      H610908   0.868   3.845  -0.287  0.5708 -0.0048 -0.5159
  475DG      H710909   0.739   3.716  -0.312 -2.4881  1.1447 -0.3158
  475DG      H810910   0.787   3.832  -0.430 -0.2267  3.3766  0.0934
  475DG      O910911   0.272   4.191   0.020  0.1163  0.0424 -0.5411
  475DG     O1010912   0.664   3.907  -0.281 -0.0084  0.2953  0.4144
  475DG     C1110913   0.370   4.139   0.109  0.4876 -0.5908 -0.5010
  475DG     C1210914   0.677   3.938  -0.142 -0.6639 -0.8171  1.3759
  475DG     H1310915   0.323   4.117   0.205  0.0833  0.1748 -0.5197
  475DG     H1410916   0.452   4.207   0.132  2.6056 -3.5367  1.5263
  475DG     H1510917   0.773   3.985  -0.122 -0.4832 -0.2287 -0.6308
  475DG     H1610918   0.669   3.847  -0.082  2.5560 -0.7925  2.0427
  475DG     C1710919   0.400   4.000   0.061 -0.8786  0.9795  0.9573
  475DG     C1810920   0.587   4.049  -0.089 -0.4808  0.0079  0.0726
  475DG     O1910921   0.454   4.003  -0.072  0.4901 -0.0819 -0.1558
  475DG     H2010922   0.306   3.947   0.073 -0.6851  0.5577  0.6204
  475DG     H2110923   0.473   3.950   0.125 -1.4656  0.9475  1.6107
  475DG     H2210924   0.624   4.082   0.008 -0.1760 -2.4676  0.8836
  475DG     H2310925   0.602   4.136  -0.152  0.4479 -2.0036 -2.6603
  476DG      C110926   3.636   5.127   2.776  0.9861  0.5450  0.1076
  476DG      C210927   3.746   4.468   3.225  0.1511  0.2239  0.1780
  476DG      H310928   3.634   5.229   2.738 -0.1653  0.7775  0.7366
  476DG      H410929   3.534   5.090   2.787  1.7982 -1.7117  0.7006
  476DG      H510930   3.683   5.062   2.702  1.2862  1.4907 -0.5551
  476DG      H610931   3.742   4.430   3.123  0.2751 -0.4110  0.4080
  476DG      H710932   3.822   4.406   3.272 -0.6047  0.0811  1.2502
  476DG      H810933   3.652   4.452   3.278 -0.7346  1.0253 -1.0739
  476DG      O910934   3.709   5.119   2.893 -0.1295 -0.5314  0.7083
  476DG     O1010935   3.784   4.604   3.221 -0.6242  0.2400  0.2290
  476DG     C1110936   3.694   4.997   2.964 -0.0649  0.2074 -0.2724
  476DG     C1210937   3.916   4.621   3.163 -0.3799  0.1233  0.1075
  476DG     H1310938   3.640   4.921   2.908  2.8382 -0.2370 -2.6844
  476DG     H1410939   3.641   5.018   3.057 -0.8506  1.7197 -1.0218
  476DG     H1510940   3.908   4.597   3.057  0.6887  0.8585 -0.1575
  476DG     H1610941   4.001   4.565   3.202 -1.7356 -1.4044  1.0197
  476DG     C1710942   3.826   4.938   3.004  0.2045 -1.0260  0.3960
  476DG     C1810943   3.931   4.772   3.147  0.5924  0.3252  0.1823
  476DG     O1910944   3.816   4.820   3.079 -0.0685  0.0307  0.3212
  476DG     H2010945   3.878   5.014   3.063 -2.5406  0.4325  1.0917
  476DG     H2110946   3.901   4.914   2.929  1.6334  1.6984  0.8469
  476DG     H2210947   3.953   4.829   3.238 -0.3387 -0.6009  1.0097
  476DG     H2310948   4.021   4.786   3.087  1.9283 -3.0079  1.1724
  477DG      C110949   0.829   2.629   2.465  0.4346 -0.3452  0.9770
  477DG      C210950   0.229   2.763   2.708 -0.2476 -0.6813  0.3893
  477DG      H310951   0.864   2.651   2.566 -0.4319 -1.1928  1.4831
  477DG      H410952   0.867   2.710   2.404 -2.2451 -0.7483 -1.4255
  477DG      H510953   0.865   2.531   2.432  2.0398  1.1425 -2.1201
  477DG      H610954   0.135   2.723   2.670 -0.2610 -0.7251  0.4695
  477DG      H710955   0.299   2.683   2.729  2.8480  1.8472  0.4760
  477DG      H810956   0.206   2.818   2.799 -0.2209  3.7145 -1.9840
  477DG      O910957   0.690   2.627   2.480 -0.2212  0.8704  0.0812
  477DG     O1010958   0.270   2.859   2.603  0.4514  0.0799  0.0009
  477DG     C1110959   0.632   2.648   2.353 -0.1276  0.3349  0.3700
  477DG     C1210960   0.404   2.900   2.620 -0.1330  0.6893  0.1554
  477DG     H1310961   0.658   2.573   2.277 -0.8269  1.5310 -1.1097
  477DG     H1410962   0.644   2.746   2.308 -1.4215  1.6830  2.7775
  477DG     H1510963   0.422   2.915   2.727  0.6218  0.1251  0.1169
  477DG     H1610964   0.410   2.996   2.568  0.9028 -0.7580 -2.5671
  477DG     C1710965   0.480   2.645   2.383 -0.3760 -0.7430  0.4854
  477DG     C1810966   0.501   2.807   2.553 -0.1332  0.4644  0.4768
  477DG     O1910967   0.427   2.762   2.446  0.4104  0.3594 -0.6239
  477DG     H2010968   0.451   2.552   2.433  3.5013 -3.6393 -2.0516
  477DG     H2110969   0.436   2.645   2.283 -1.0108  0.9763  0.7343
  477DG     H2210970   0.593   2.854   2.519 -0.5492  0.8519 -0.1434
  477DG     H2310971   0.522   2.720   2.616  0.6644 -0.9600 -1.6332
  478DG      C110972   4.808   4.466   0.861  1.0929  0.5462  0.0734
  478DG      C210973   5.354   4.155   1.122  0.0463  0.3596 -0.1477
  478DG      H310974   4.723   4.435   0.922  0.0725 -0.4634 -1.7475
  478DG      H410975   4.834   4.370   0.814 -0.9880  0.0946 -0.2662
  478DG      H510976   4.770   4.537   0.788 -1.3315  0.6415  1.3438
  478DG      H610977   5.449   4.156   1.175  0.2813 -0.4433 -0.5222
  478DG      H710978   5.276   4.119   1.189 -1.3843  1.1035 -1.3516
  478DG      H810979   5.361   4.081   1.041  0.7097  0.9144 -0.6034
  478DG      O910980   4.914   4.516   0.946 -0.0303 -0.5747 -0.0264
  478DG     O1010981   5.319   4.287   1.077 -0.0774  0.5478 -0.2208
  478DG     C1110982   5.020   4.593   0.884 -0.1284 -0.3234 -0.3861
  478DG     C1210983   5.301   4.382   1.184 -0.3057 -0.4224  0.8637
  478DG     H1310984   4.990   4.677   0.822 -0.3903  0.2524  0.4943
  478DG     H1410985   5.065   4.524   0.813 -2.5850 -2.5477  0.0512
  478DG     H1510986   5.397   4.384   1.236 -0.1425  0.5867  0.5276
  478DG     H1610987   5.229   4.354   1.261 -1.3825  2.4913  1.0089
  478DG     C1710988   5.136   4.634   0.987 -0.0607 -0.0951  0.4900
  478DG     C1810989   5.276   4.520   1.131 -0.2708  0.3077  0.0530
  478DG     O1910990   5.154   4.521   1.066  0.1584  0.9312 -0.6043
  478DG     H2010991   5.110   4.718   1.051 -0.7176 -1.4702  2.1146
  478DG     H2110992   5.224   4.662   0.930 -1.1026 -3.8444 -3.4688
  478DG     H2210993   5.272   4.610   1.193  1.8561  1.8126 -1.8554
  478DG     H2310994   5.346   4.541   1.051 -1.9770 -1.2396 -1.9557
  479DG      C110995   1.865   1.453   3.738  0.2614 -0.0552 -0.6747
  479DG      C210996   2.156   1.612   3.143 -0.7447  0.5473 -0.0423
  479DG      H310997   1.830   1.555   3.753  0.2017 -0.2978  1.0671
  479DG      H410998   1.871   1.396   3.831 -0.0447  0.6825 -0.1874
  479DG      H510999   1.795   1.387   3.685  0.1395 -1.4307  1.1048
  479DG      H611000   2.108   1.545   3.072  2.3668  0.2835 -2.1228
  479DG      H711001   2.114   1.712   3.158  1.2711  1.3517  0.5517
  479DG      H811002   2.249   1.643   3.094 -0.8825 -0.8210 -1.2135
  479DG      O911003   1.984   1.457   3.661  0.2972  0.3596  0.2657
  479DG     O1011004   2.182   1.567   3.282  0.1266 -0.3473  1.0581
  479DG     C1111005   2.087   1.494   3.748 -0.2649 -0.3817  0.1533
  479DG     C1211006   2.267   1.652   3.354  0.2297  0.0505  0.2140
  479DG     H1311007   2.096   1.433   3.837  1.0952  0.8090  0.8811
  479DG     H1411008   2.068   1.592   3.792 -0.7705 -0.4461  0.0859
  479DG     H1511009   2.226   1.753   3.364  0.8308  0.4531 -1.1003
  479DG     H1611010   2.362   1.665   3.303  0.0822 -0.6991 -0.2687
  479DG     C1711011   2.221   1.501   3.674 -0.6006  0.0986 -0.6689
  479DG     C1811012   2.313   1.589   3.482 -0.0565 -0.0015  0.1029
  479DG     O1911013   2.196   1.562   3.551 -0.2021  0.0028 -0.1205
  479DG     H2011014   2.269   1.405   3.658  0.8171  1.0415 -2.4699
  479DG     H2111015   2.294   1.549   3.740  0.2278 -2.8643  0.7357
  479DG     H2211016   2.361   1.495   3.455 -0.1520  0.1258 -0.5392
  479DG     H2311017   2.382   1.654   3.536 -0.4963  0.0395  0.6152
  480DG      C111018   3.182   1.522   0.718 -0.2579 -0.4212 -0.1163
  480DG      C211019   3.026   1.904   1.225  0.3920  0.0066 -0.1884
  480DG      H311020   3.217   1.598   0.648  0.3038  0.4948  1.1091
  480DG      H411021   3.074   1.508   0.719 -0.6082  1.7152  1.5803
  480DG      H511022   3.229   1.434   0.674  0.0971 -0.1654 -0.2500
  480DG      H611023   2.944   1.889   1.155  1.3622  0.9806 -1.5939
  480DG      H711024   2.995   1.914   1.329 -1.7436  1.8312 -0.9304
  480DG      H811025   3.066   2.002   1.199  1.0106  0.4389  2.1515
  480DG      O911026   3.221   1.546   0.852  0.4818 -0.2279 -0.1885
  480DG     O1011027   3.116   1.800   1.189  0.0144 -0.5905  0.3638
  480DG     C1111028   3.357   1.552   0.880  0.3179  0.1455  0.4949
  480DG     C1211029   3.229   1.792   1.278  0.0626  0.4666  0.2951
  480DG     H1311030   3.402   1.640   0.835 -0.7505  0.6025  0.3057
  480DG     H1411031   3.412   1.467   0.840  1.9443  0.2928  2.2708
  480DG     H1511032   3.199   1.777   1.381  0.3543 -0.6830  0.2261
  480DG     H1611033   3.278   1.889   1.263  1.2732 -0.5505 -3.6376
  480DG     C1711034   3.382   1.557   1.035 -0.7332 -0.2674  0.2730
  480DG     C1811035   3.321   1.676   1.228 -0.2043  0.7379  0.0735
  480DG     O1911036   3.311   1.664   1.083 -0.8094  0.0313  0.3054
  480DG     H2011037   3.485   1.570   1.070 -0.8308 -1.0025  0.8413
  480DG     H2111038   3.342   1.468   1.083 -0.8160 -0.3864 -0.0177
  480DG     H2211039   3.419   1.704   1.267 -1.1826  1.7645  1.8894
  480DG     H2311040   3.298   1.577   1.268  1.6351 -0.0703 -0.7314
  481DG      C111041   1.577   3.714   0.084  0.3169  0.2194 -0.5950
  481DG      C211042   0.960   3.444   0.238  0.0178 -0.3412  0.1956
  481DG      H311043   1.585   3.638   0.007  0.6660  0.3176 -0.6578
  481DG      H411044   1.680   3.722   0.119  0.5445 -0.0890 -1.1862
  481DG      H511045   1.544   3.809   0.045 -0.5250 -0.5619 -1.8423
  481DG      H611046   0.898   3.384   0.306 -0.8940 -0.1444 -0.4459
  481DG      H711047   0.927   3.532   0.184 -0.9190 -0.5293  0.4421
  481DG      H811048   0.986   3.370   0.162 -2.3161 -1.3054  0.2523
  481DG      O911049   1.488   3.660   0.178 -0.2295 -0.1580 -0.1056
  481DG     O1011050   1.072   3.494   0.299  0.5430  0.0970 -0.0589
  481DG     C1111051   1.478   3.745   0.292 -0.2085 -0.0717  0.0003
  481DG     C1211052   1.052   3.573   0.418  0.4497 -0.5762 -0.1327
  481DG     H1311053   1.438   3.843   0.265 -0.4726  0.3609  1.8455
  481DG     H1411054   1.580   3.761   0.325  0.1700 -1.2247 -0.5634
  481DG     H1511055   0.984   3.521   0.485 -0.2919 -1.5361 -1.5661
  481DG     H1611056   1.001   3.666   0.393 -1.6375 -1.7728 -0.5290
  481DG     C1711057   1.395   3.694   0.414 -0.2378  0.4373  0.0118
  481DG     C1811058   1.185   3.613   0.477  0.2131  0.3025  0.9431
  481DG     O1911059   1.264   3.672   0.373 -0.2565  0.2094 -0.9326
  481DG     H2011060   1.386   3.771   0.491  0.3853  2.4448 -1.8235
  481DG     H2111061   1.446   3.604   0.445 -0.8350 -0.2207 -0.8554
  481DG     H2211062   1.182   3.673   0.568 -1.9738 -0.2047  1.2517
  481DG     H2311063   1.233   3.522   0.513 -1.1223 -0.0990  1.7954
  482DG      C111064   1.999   5.106   4.283  0.4934  0.1052 -0.4060
  482DG      C211065   2.561   5.015   4.586  0.6710 -0.1995  0.0062
  482DG      H311066   1.946   5.118   4.189 -2.2228  1.1266  1.1240
  482DG      H411067   1.960   5.179   4.355 -3.2395 -0.7061 -1.3842
  482DG      H511068   1.981   5.009   4.329 -3.2219 -0.2175 -2.1356
  482DG      H611069   2.524   4.913   4.571 -1.7431  0.3655  1.5877
  482DG      H711070   2.634   5.042   4.509 -0.1280  1.4678 -0.1958
  482DG      H811071   2.626   5.004   4.673 -0.9303 -1.3579  1.1121
  482DG      O911072   2.141   5.131   4.273 -0.1742 -0.2452 -0.0679
  482DG     O1011073   2.466   5.127   4.601  0.0282  0.1978 -0.2434
  482DG     C1111074   2.172   5.266   4.239 -0.5362  0.5375  0.3300
  482DG     C1211075   2.527   5.255   4.577 -0.0944  0.0599  0.0998
  482DG     H1311076   2.101   5.329   4.290  0.6338  2.9843 -0.9036
  482DG     H1411077   2.154   5.278   4.132  2.3069 -1.5044 -0.5144
  482DG     H1511078   2.633   5.241   4.596  0.0799 -2.4391 -2.1934
  482DG     H1611079   2.469   5.318   4.646 -1.3115 -0.3542 -0.5221
  482DG     C1711080   2.324   5.292   4.275 -0.2828  0.1228 -0.3865
  482DG     C1811081   2.496   5.288   4.433 -0.3811 -1.0513 -0.8538
  482DG     O1911082   2.352   5.261   4.411  0.1076 -0.5693 -0.1009
  482DG     H2011083   2.350   5.398   4.266  0.7003 -0.2290 -2.1636
  482DG     H2111084   2.371   5.217   4.211 -1.1402 -0.9238  0.1674
  482DG     H2211085   2.507   5.394   4.408  1.5628 -1.3142 -1.1996
  482DG     H2311086   2.565   5.231   4.371  1.2621 -0.0298 -0.0375
  483DG      C111087   2.275   0.581   0.438 -0.4468 -0.1601  0.2611
  483DG      C211088   2.084   1.064   0.755  0.0893  0.5481 -0.0181
  483DG      H311089   2.239   0.479   0.453 -0.6057  0.1182  1.9493
  483DG      H411090   2.349   0.595   0.516  0.1102 -2.2194  0.1698
  483DG      H511091   2.301   0.598   0.334  0.4657 -0.2092  0.4772
  483DG      H611092   2.065   0.968   0.803  2.1772 -0.3446 -0.8353
  483DG      H711093   2.143   1.036   0.667 -2.3155 -0.4352 -1.4176
  483DG      H811094   2.136   1.120   0.832 -0.5132  0.0005  0.8016
  483DG      O911095   2.166   0.663   0.468  0.4861  0.1868 -0.5022
  483DG     O1011096   1.962   1.131   0.721 -0.0824 -0.2220  0.9523
  483DG     C1111097   2.100   0.637   0.595  0.3869 -0.6309 -0.3431
  483DG     C1211098   1.893   1.076   0.606 -0.0382 -0.6801 -0.0321
  483DG     H1311099   2.157   0.674   0.681  1.1974  1.4449 -1.7083
  483DG     H1411100   2.084   0.530   0.609 -1.5216 -0.2004  1.2533
  483DG     H1511101   1.963   1.093   0.525  0.1580  1.2056  0.4961
  483DG     H1611102   1.800   1.130   0.589 -0.4716 -0.7092  2.0239
  483DG     C1711103   1.957   0.707   0.608 -0.2967  1.1132  0.3065
  483DG     C1811104   1.869   0.926   0.609  0.4342 -0.0249 -0.3189
  483DG     O1911105   1.985   0.849   0.601  0.4338 -0.0823 -0.4366
  483DG     H2011106   1.905   0.665   0.694 -0.3401 -2.2596 -1.2531
  483DG     H2111107   1.918   0.674   0.513  0.6036  0.2344  0.2259
  483DG     H2211108   1.816   0.904   0.702  0.7688  0.5727  0.0242
  483DG     H2311109   1.808   0.902   0.523  0.2466  1.9506 -0.7744
  484DG      C111110   4.914   4.987   3.006  0.3965 -0.4956 -0.0590
  484DG      C211111   4.367   4.514   3.331  0.5452 -0.3690 -0.0918
  484DG      H311112   5.013   5.026   3.031 -0.9187  2.3439  1.0705
  484DG      H411113   4.844   5.058   3.049 -0.0421 -0.2053 -1.1997
  484DG      H511114   4.907   4.987   2.897  1.1115  1.7111 -0.1481
  484DG      H611115   4.355   4.590   3.408  3.0538 -0.5899  0.6175
  484DG      H711116   4.272   4.518   3.278 -0.5401  0.3884  1.8362
  484DG      H811117   4.372   4.420   3.387 -0.6603  0.0729  0.8004
  484DG      O911118   4.890   4.859   3.054  0.1468  0.0903 -0.5117
  484DG     O1011119   4.479   4.536   3.245  0.2779 -0.5950  0.2295
  484DG     C1111120   4.874   4.861   3.195 -0.2091 -0.2086  0.2589
  484DG     C1211121   4.597   4.535   3.328  0.0826  0.4347 -0.0041
  484DG     H1311122   4.780   4.914   3.209 -0.5476 -0.2967 -1.4115
  484DG     H1411123   4.965   4.911   3.229 -0.4229  1.2316 -1.1456
  484DG     H1511124   4.598   4.450   3.397 -3.2023 -0.0575 -0.4272
  484DG     H1611125   4.606   4.622   3.393  0.2607  1.0133 -0.7889
  484DG     C1711126   4.865   4.718   3.248 -0.2885  0.6056 -0.2558
  484DG     C1811127   4.715   4.535   3.229  0.1486  0.1438  0.2024
  484DG     O1911128   4.753   4.664   3.182  0.6155  0.1718 -0.0006
  484DG     H2011129   4.859   4.710   3.356 -0.1319 -2.6138 -0.3939
  484DG     H2111130   4.955   4.665   3.215  0.0141 -0.0597  1.5455
  484DG     H2211131   4.795   4.472   3.270 -1.8035 -2.1052  0.7569
  484DG     H2311132   4.681   4.479   3.143 -0.9371 -1.9539  1.8921
  485DG      C111133   2.512   1.075   0.127 -0.9964 -0.1143  0.2750
  485DG      C211134   3.225   0.832   0.359 -1.0926 -0.3390  0.2445
  485DG      H311135   2.457   1.032   0.210  0.4124 -3.2309 -0.2779
  485DG      H411136   2.486   1.016   0.039  2.8531 -1.9235  0.1520
  485DG      H511137   2.480   1.178   0.111 -0.1059 -0.0474 -1.2680
  485DG      H611138   3.251   0.874   0.262 -1.2401 -0.4709  0.1449
  485DG      H711139   3.227   0.907   0.437 -0.7985 -0.8500  0.7334
  485DG      H811140   3.304   0.765   0.391 -1.0951  0.2453  1.5132
  485DG      O911141   2.647   1.066   0.165 -0.1812  0.0459 -0.0543
  485DG     O1011142   3.099   0.767   0.357  0.9700 -0.2653  0.7698
  485DG     C1111143   2.732   1.093   0.056 -0.6516 -0.7343 -0.2999
  485DG     C1211144   3.006   0.850   0.301  0.2021  0.3718 -0.1426
  485DG     H1311145   2.728   1.201   0.046 -0.2270 -0.4598  2.0930
  485DG     H1411146   2.703   1.051  -0.041 -1.9775 -0.3446 -0.0884
  485DG     H1511147   3.005   0.950   0.344  0.6392 -0.7710  2.7109
  485DG     H1611148   2.914   0.801   0.334 -1.0413  2.1980 -0.7689
  485DG     C1711149   2.874   1.049   0.092 -0.5883 -0.7483 -0.2657
  485DG     C1811150   2.998   0.855   0.148  1.2092  0.4836 -0.3373
  485DG     O1911151   2.873   0.910   0.108 -0.5098 -0.1332 -0.6219
  485DG     H2011152   2.905   1.098   0.184 -0.8930 -3.1251  1.1905
  485DG     H2111153   2.938   1.073   0.007  1.0775  1.3822  1.4915
  485DG     H2211154   3.084   0.908   0.108  1.6994  0.3738  0.5419
  485DG     H2311155   3.004   0.750   0.122 -2.8766 -0.2284  0.7882
  486DG      C111156   4.703   0.317   4.873 -0.6434  0.2317  0.3469
  486DG      C211157   4.145   0.287   5.111  0.6900 -0.0976  0.2717
  486DG      H311158   4.739   0.350   4.971 -1.4130 -0.2431  0.7908
  486DG      H411159   4.647   0.394   4.820 -0.3724 -2.1847 -3.8999
  486DG      H511160   4.789   0.299   4.808  0.2290  0.7356  1.3309
  486DG      H611161   4.195   0.382   5.124  0.4874  0.2366 -1.2817
  486DG      H711162   4.052   0.312   5.061  1.0871  3.7882  1.1590
  486DG      H811163   4.120   0.246   5.210 -1.6376 -0.1313 -0.2803
  486DG      O911164   4.624   0.201   4.890 -0.1630  0.1418 -0.2159
  486DG     O1011165   4.222   0.182   5.044  0.3968  0.2577 -0.4150
  486DG     C1111166   4.580   0.148   4.762  0.0535 -0.9680 -0.3962
  486DG     C1211167   4.161   0.100   4.950 -0.1432  0.0629  0.2965
  486DG     H1311168   4.668   0.103   4.716 -0.1302 -0.9783 -0.7397
  486DG     H1411169   4.536   0.221   4.694  1.0915 -0.8122 -0.9256
  486DG     H1511170   4.116   0.164   4.875 -0.9102  0.3938  1.0222
  486DG     H1611171   4.087   0.026   4.982 -0.3457 -0.9790 -2.3685
  486DG     C1711172   4.477   0.044   4.776  0.3075 -0.1088  1.2219
  486DG     C1811173   4.267   0.009   4.885  0.2259  1.0628  0.2613
  486DG     O1911174   4.368   0.103   4.843 -0.0216 -0.0977 -0.1731
  486DG     H2011175   4.525  -0.034   4.834  2.4380 -0.0381 -0.3282
  486DG     H2111176   4.441   0.010   4.679  0.6973  0.0979  1.0022
  486DG     H2211177   4.298  -0.068   4.955  1.2019  0.3155 -0.9405
  486DG     H2311178   4.231  -0.042   4.796  0.3364 -2.6235  2.1569
  487DG      C111179   5.298   2.919   2.534 -0.4345 -0.2028  0.3557
  487DG      C211180   5.823   3.283   2.572 -0.0197  0.0798  0.4785
  487DG      H311181   5.227   2.976   2.594  1.3580 -0.9845  3.4174
  487DG      H411182   5.255   2.848   2.463 -0.3008  1.8054 -1.8434
  487DG      H511183   5.337   2.999   2.471 -0.5850 -0.6215 -0.2786
  487DG      H611184   5.766   3.376   2.574 -3.0580 -1.6403  1.0992
  487DG      H711185   5.924   3.284   2.613  0.4185 -0.8369 -0.5208
  487DG      H811186   5.831   3.248   2.469 -0.6080  1.6693 -0.1374
  487DG      O911187   5.399   2.853   2.613  0.1986  0.7141  0.1074
  487DG     O1011188   5.732   3.177   2.622  0.4605 -0.0400 -0.3667
  487DG     C1111189   5.368   2.870   2.753  0.2327  0.3066  0.4978
  487DG     C1211190   5.731   3.194   2.768  0.2779  0.5402  0.3179
  487DG     H1311191   5.430   2.806   2.816  0.0461  0.3154  0.6915
  487DG     H1411192   5.262   2.848   2.764 -0.0101  1.4397  0.5099
  487DG     H1511193   5.764   3.290   2.807  0.5747  0.6953 -0.3064
  487DG     H1611194   5.791   3.113   2.810 -0.5111  0.6397  1.7026
  487DG     C1711195   5.399   3.016   2.803 -0.4767  0.3269  0.0696
  487DG     C1811196   5.585   3.171   2.821  0.1247 -0.6831  0.4172
  487DG     O1911197   5.536   3.048   2.762 -0.4138  0.2959  0.1957
  487DG     H2011198   5.387   3.036   2.910  0.8789  0.8608  0.1386
  487DG     H2111199   5.334   3.092   2.761 -3.0370 -1.0960  1.1657
  487DG     H2211200   5.588   3.155   2.929 -0.4975 -0.4938  0.4686
  487DG     H2311201   5.518   3.254   2.802  0.0283 -1.1498 -1.4924
  488DG      C111202   5.286   0.864   2.607  0.2586 -0.0822  0.0219
  488DG      C211203   5.528   0.622   2.119 -0.3715 -0.0071  0.0311
  488DG      H311204   5.286   0.916   2.703  0.8329 -0.0911  0.0333
  488DG      H411205   5.257   0.760   2.623  2.4780 -0.6228  0.9389
  488DG      H511206   5.221   0.909   2.532 -0.0384 -1.6762 -0.7183
  488DG      H611207   5.607   0.597   2.048 -1.1060 -0.2053 -0.7453
  488DG      H711208   5.465   0.534   2.135 -0.6116  0.2833  0.6936
  488DG      H811209   5.459   0.690   2.068 -0.8019 -0.1377  0.4333
  488DG      O911210   5.411   0.848   2.538  0.0688  0.1239 -0.2995
  488DG     O1011211   5.588   0.674   2.233  0.7452  0.2159  0.7070
  488DG     C1111212   5.467   0.981   2.525  0.5608  0.0793 -0.2033
  488DG     C1211213   5.651   0.800   2.204 -0.3259  0.1963  0.4115
  488DG     H1311214   5.490   1.028   2.621 -0.8187  1.0647 -0.3175
  488DG     H1411215   5.395   1.042   2.470 -0.8018 -2.0116 -0.8674
  488DG     H1511216   5.577   0.878   2.183 -0.4470 -0.1623 -0.5574
  488DG     H1611217   5.721   0.791   2.121  0.6812  0.7037  1.1824
  488DG     C1711218   5.599   0.991   2.457  0.4415  0.1623 -0.0867
  488DG     C1811219   5.743   0.852   2.314  0.0217 -0.3979 -0.3421
  488DG     O1911220   5.661   0.863   2.434 -0.7571 -0.1922 -0.4149
  488DG     H2011221   5.670   1.046   2.518 -0.7160 -1.2180  2.6741
  488DG     H2111222   5.596   1.049   2.364 -0.9473  0.8348  0.3489
  488DG     H2211223   5.824   0.779   2.316  1.0386  0.6495 -1.4953
  488DG     H2311224   5.801   0.941   2.290 -0.1741  0.2107  1.3639
  489DG      C111225   1.593   4.736   2.285  0.2066  0.9639  0.0321
  489DG      C211226   0.950   4.957   2.324  0.0374 -0.3298  0.7845
  489DG      H311227   1.603   4.748   2.393 -1.7683  0.4332  0.3233
  489DG      H411228   1.630   4.834   2.254  0.2455  0.3871 -1.8390
  489DG      H511229   1.668   4.662   2.256  1.1696  1.2604  1.6532
  489DG      H611230   0.991   5.048   2.281  0.9020 -1.6982 -1.5035
  489DG      H711231   0.846   4.945   2.292 -0.8802  1.7349  2.7088
  489DG      H811232   0.961   4.962   2.432  2.7874 -0.7373  0.5924
  489DG      O911233   1.457   4.701   2.241 -1.0227 -0.3312 -0.0321
  489DG     O1011234   1.019   4.840   2.285 -0.1254 -0.1220  0.9504
  489DG     C1111235   1.451   4.686   2.108  0.6083 -0.2685 -0.3322
  489DG     C1211236   0.989   4.804   2.143 -0.4110 -0.5830 -0.7335
  489DG     H1311237   1.528   4.619   2.070  2.0979  0.9880  0.3416
  489DG     H1411238   1.481   4.783   2.069  0.4205  0.8075  1.9950
  489DG     H1511239   0.991   4.892   2.079  0.6188  0.7262  0.9971
  489DG     H1611240   0.886   4.770   2.134 -1.0999  1.6004 -1.6509
  489DG     C1711241   1.312   4.644   2.061  0.2694  0.5497 -0.7040
  489DG     C1811242   1.086   4.691   2.096  0.2117 -0.3655 -0.3955
  489DG     O1911243   1.218   4.725   2.133  0.5018 -0.0646  0.1062
  489DG     H2011244   1.301   4.536   2.070  0.5992  0.2842 -2.8444
  489DG     H2111245   1.299   4.671   1.956 -2.0015  1.9302 -0.1508
  489DG     H2211246   1.049   4.598   2.137 -1.0440  0.2110 -0.1698
  489DG     H2311247   1.082   4.681   1.987 -0.9885  1.2544 -0.5401
  490DG      C111248   1.995   3.798   1.343 -0.2991  0.5105  0.1003
  490DG      C211249   1.721   4.445   1.078  0.0594 -0.0309 -0.3582
  490DG      H311250   2.061   3.767   1.423 -2.2514  0.7472  1.8948
  490DG      H411251   2.048   3.820   1.251 -0.6274  0.4989 -0.0961
  490DG      H511252   1.936   3.709   1.319  2.3932 -1.0390 -1.2266
  490DG      H611253   1.811   4.480   1.028  0.4985  1.1011  1.1492
  490DG      H711254   1.660   4.373   1.023 -1.7918  0.7906  0.5354
  490DG      H811255   1.664   4.535   1.101 -1.3971 -1.4127  1.9130
  490DG      O911256   1.913   3.910   1.388  0.2302  0.0616  0.1045
  490DG     O1011257   1.770   4.387   1.193  0.3804  0.0119 -0.4963
  490DG     C1111258   1.989   4.013   1.434  0.6707 -0.5253 -0.2889
  490DG     C1211259   1.676   4.336   1.287  0.2915 -0.4214  0.1913
  490DG     H1311260   2.059   4.045   1.357  0.1876  2.3910  0.3662
  490DG     H1411261   2.043   3.993   1.526 -0.8708  2.1642  1.3145
  490DG     H1511262   1.605   4.259   1.259  2.0399 -2.6517  1.5384
  490DG     H1611263   1.613   4.420   1.316 -1.0070 -0.0180 -3.3088
  490DG     C1711264   1.895   4.121   1.480  0.4715  0.2214 -0.3208
  490DG     C1811265   1.756   4.289   1.404 -0.2934  0.1634 -0.2292
  490DG     O1911266   1.828   4.178   1.369  0.5266  0.4328  0.0823
  490DG     H2011267   1.963   4.198   1.518 -0.3095  0.2975  0.9765
  490DG     H2111268   1.826   4.086   1.557  0.1791 -1.1265 -1.1614
  490DG     H2211269   1.823   4.365   1.443  0.6927 -1.8936  2.4009
  490DG     H2311270   1.694   4.270   1.492  1.0141 -1.3582  0.4254
  491DG      C111271   4.987   1.130   4.854  0.4406  0.8512 -0.1252
  491DG      C211272   5.107   0.983   4.256 -0.6692 -0.2250 -0.1989
  491DG      H311273   4.925   1.152   4.941 -1.8306 -1.7381 -0.9666
  491DG      H411274   5.088   1.170   4.864  0.8607 -0.2943  0.2390
  491DG      H511275   4.984   1.022   4.857 -1.9497  0.8697  0.1485
  491DG      H611276   5.110   0.874   4.259  0.3538 -0.2030 -0.0997
  491DG      H711277   5.093   1.004   4.150  0.9715 -0.9038 -0.5794
  491DG      H811278   5.203   1.024   4.287 -2.4289  3.1199  1.3742
  491DG      O911279   4.918   1.186   4.741 -0.0960  0.0696  0.8717
  491DG     O1011280   5.010   1.049   4.328  0.0316  0.3395  0.4606
  491DG     C1111281   4.779   1.144   4.722  0.6290 -0.0367 -0.1047
  491DG     C1211282   4.883   1.073   4.270  0.3345  0.1241  0.4216
  491DG     H1311283   4.716   1.193   4.795 -0.1022  2.9928 -2.5420
  491DG     H1411284   4.760   1.037   4.735 -1.0475 -0.0512 -2.1476
  491DG     H1511285   4.833   0.976   4.264 -0.7393  0.5901  1.4128
  491DG     H1611286   4.890   1.110   4.168 -2.0582  0.6796  0.4046
  491DG     C1711287   4.732   1.185   4.582  0.2670 -0.1653  0.5178
  491DG     C1811288   4.799   1.176   4.351  0.3135 -0.3144  0.8759
  491DG     O1911289   4.826   1.139   4.487 -0.3788 -0.1512  0.4729
  491DG     H2011290   4.705   1.290   4.567 -0.0752 -0.3296 -0.0631
  491DG     H2111291   4.631   1.148   4.562  0.4910 -0.2689 -0.4741
  491DG     H2211292   4.835   1.276   4.327  0.3331 -0.3034  0.9500
  491DG     H2311293   4.694   1.182   4.322  0.1588  2.2283  1.7211
  492DG      C111294   4.913   0.648   4.595 -0.3502 -0.1340  0.7240
  492DG      C211295   4.978   0.253   5.332  0.1701 -0.2351  0.0349
  492DG      H311296   4.902   0.741   4.651  0.1096  0.0026  0.5918
  492DG      H411297   4.824   0.591   4.566  1.0738 -1.4354 -1.3467
  492DG      H511298   4.977   0.658   4.507 -0.3352 -3.3626  0.2486
  492DG      H611299   4.928   0.161   5.301 -2.1140  1.4189 -1.5420
  492DG      H711300   5.011   0.246   5.436  1.0776  0.3588 -0.1961
  492DG      H811301   4.894   0.322   5.335 -0.1436 -0.3658 -2.7848
  492DG      O911302   4.985   0.576   4.694  0.2250  0.0479  0.0064
  492DG     O1011303   5.074   0.279   5.230  0.4449 -0.1597 -0.7456
  492DG     C1111304   5.025   0.449   4.658  0.1200  0.3466  0.4736
  492DG     C1211305   5.004   0.325   5.116  0.0557 -0.3331  0.2143
  492DG     H1311306   5.076   0.451   4.562 -1.9354  1.1561 -0.6697
  492DG     H1411307   4.940   0.381   4.656  0.8063 -0.6862  2.5779
  492DG     H1511308   4.971   0.428   5.129 -2.1386 -0.9467 -0.0532
  492DG     H1611309   4.908   0.276   5.099 -1.6060  1.8687  2.4875
  492DG     C1711310   5.117   0.387   4.768 -0.1907 -0.1872 -0.2825
  492DG     C1811311   5.095   0.313   4.991  0.1387 -0.3365 -0.1967
  492DG     O1911312   5.035   0.329   4.869  0.0910 -0.6827  0.0101
  492DG     H2011313   5.186   0.464   4.805  0.4782 -0.4977 -0.8634
  492DG     H2111314   5.178   0.311   4.719 -0.4992 -0.9585  0.5086
  492DG     H2211315   5.169   0.392   4.997 -0.8592  0.5211  4.2063
  492DG     H2311316   5.157   0.224   5.002  1.5644  0.8618  2.5196
  493DG      C111317   4.611   1.759   4.454  0.1835  0.1243  0.4640
  493DG      C211318   4.026   1.542   4.155 -0.1735 -0.3345 -0.4272
  493DG      H311319   4.539   1.826   4.501  1.6928  3.0328 -1.0912
  493DG      H411320   4.659   1.818   4.376  0.0936 -0.3425  0.0492
  493DG      H511321   4.682   1.732   4.532  0.8300 -1.9018 -0.7639
  493DG      H611322   3.980   1.624   4.212 -0.1751  1.1319 -2.4261
  493DG      H711323   4.028   1.554   4.047 -1.9946 -3.5065 -0.9396
  493DG      H811324   3.961   1.459   4.183 -0.8636  1.1851  3.1578
  493DG      O911325   4.538   1.651   4.410  0.1421 -0.0043  0.6178
  493DG     O1011326   4.150   1.508   4.209  0.2055  0.0319 -0.5431
  493DG     C1111327   4.621   1.564   4.325 -0.3810  0.0550 -0.1941
  493DG     C1211328   4.213   1.415   4.129 -0.0125 -0.3400  0.1065
  493DG     H1311329   4.716   1.536   4.371 -0.6894  0.7846  0.9408
  493DG     H1411330   4.639   1.607   4.227  1.7446 -0.4985 -0.1019
  493DG     H1511331   4.243   1.472   4.041  0.4244  0.1210  0.5506
  493DG     H1611332   4.141   1.341   4.095 -2.5263  2.2287 -0.5494
  493DG     C1711333   4.543   1.434   4.308  0.2776 -0.1857  0.3962
  493DG     C1811334   4.340   1.358   4.205 -0.6143 -0.5092  0.2260
  493DG     O1911335   4.415   1.467   4.255 -0.4993 -0.5833 -0.3935
  493DG     H2011336   4.539   1.366   4.392  0.0554 -1.9707 -0.9983
  493DG     H2111337   4.588   1.380   4.224 -0.5458 -0.1418 -0.0924
  493DG     H2211338   4.292   1.305   4.287  1.4706 -1.9030  0.6075
  493DG     H2311339   4.390   1.300   4.127  0.4339 -1.8789  1.8623
  494DG      C111340   5.109   4.619   0.015 -0.0574  0.3366  0.3256
  494DG      C211341   4.541   4.669  -0.329 -0.0111  0.5155 -0.7018
  494DG      H311342   5.074   4.722   0.019 -0.5145  0.3484 -2.1326
  494DG      H411343   5.218   4.629   0.014  0.0433 -0.5598  1.1276
  494DG      H511344   5.076   4.573   0.107 -1.0595  1.0992  0.3622
  494DG      H611345   4.437   4.646  -0.307 -0.6524  2.0899 -1.8693
  494DG      H711346   4.533   4.778  -0.321 -0.6608  0.3469  1.7405
  494DG      H811347   4.567   4.635  -0.429 -0.6711  0.2843 -0.7999
  494DG      O911348   5.040   4.576  -0.103 -0.0301  0.0776 -0.3014
  494DG     O1011349   4.619   4.599  -0.232  0.4344  0.5754 -0.4956
  494DG     C1111350   5.056   4.438  -0.126 -0.4549  1.0742  0.1303
  494DG     C1211351   4.592   4.461  -0.238  0.4232  0.4006  0.0501
  494DG     H1311352   5.032   4.377  -0.038  0.4561  1.7160  0.8503
  494DG     H1411353   5.160   4.412  -0.142 -0.6705  0.5069 -0.3924
  494DG     H1511354   4.501   4.435  -0.292  0.3495  0.8577 -0.0489
  494DG     H1611355   4.556   4.440  -0.137  1.7299 -1.0233  0.2542
  494DG     C1711356   4.963   4.408  -0.243 -0.3568  0.0655 -0.1991
  494DG     C1811357   4.721   4.381  -0.276 -0.1947 -0.5010 -0.0761
  494DG     O1911358   4.831   4.440  -0.197  0.0895  0.2248  0.6346
  494DG     H2011359   4.962   4.300  -0.255 -0.3102  0.0854 -0.3960
  494DG     H2111360   4.988   4.465  -0.332 -0.4622  5.0960  2.6170
  494DG     H2211361   4.715   4.275  -0.251  1.3132 -1.0827 -1.9108
  494DG     H2311362   4.740   4.392  -0.382  2.0982  0.9628  0.4116
  495DG      C111363   2.492   0.346   1.917  0.4719  0.3396  0.0567
  495DG      C211364   2.690   0.319   2.504  0.0275  0.8482  0.4571
  495DG      H311365   2.461   0.298   1.825  1.2877 -1.9224  0.8742
  495DG      H411366   2.541   0.440   1.890  0.9549 -0.2538 -1.1894
  495DG      H511367   2.402   0.360   1.977  0.6465  0.0936  0.3793
  495DG      H611368   2.706   0.425   2.518 -1.3192  1.2568 -0.7482
  495DG      H711369   2.585   0.289   2.510  0.4106 -0.6506  0.1232
  495DG      H811370   2.744   0.269   2.584  0.2371  0.1146 -0.1295
  495DG      O911371   2.584   0.254   1.983  0.5140  0.2907 -0.0525
  495DG     O1011372   2.741   0.262   2.384 -0.6498  0.3341  0.1432
  495DG     C1111373   2.705   0.226   1.907  0.3343 -0.3751  0.0878
  495DG     C1211374   2.878   0.282   2.346 -0.2292  0.2803  0.9495
  495DG     H1311375   2.740   0.319   1.862  2.6766 -0.1729  2.0833
  495DG     H1411376   2.692   0.153   1.827 -1.3438  0.9410 -0.9106
  495DG     H1511377   2.958   0.244   2.410  1.5856  0.0526 -1.3100
  495DG     H1611378   2.900   0.386   2.319 -0.3441 -0.4634 -2.4022
  495DG     C1711379   2.814   0.175   2.007  0.1867 -0.0100 -0.0503
  495DG     C1811380   2.898   0.203   2.221  0.1378 -0.3396  0.6664
  495DG     O1911381   2.785   0.224   2.135 -0.3469  0.3458 -0.1977
  495DG     H2011382   2.910   0.203   1.966  0.4426 -1.8434 -0.7940
  495DG     H2111383   2.804   0.067   2.001 -0.8733 -0.0313  1.4408
  495DG     H2211384   2.993   0.230   2.174 -0.1681 -0.2111  0.1010
  495DG     H2311385   2.899   0.095   2.233  1.0421 -0.2416  1.5381
  496DG      C111386   2.850   2.801   3.785  0.3207  0.0821 -0.1790
  496DG      C211387   2.925   2.249   3.336  0.0929  0.1710 -0.5136
  496DG      H311388   2.924   2.835   3.859 -0.1187  1.2719 -0.2636
  496DG      H411389   2.795   2.718   3.829  0.9787 -0.7143 -0.8324
  496DG      H511390   2.789   2.885   3.752  0.5027 -0.1051 -1.0189
  496DG      H611391   2.993   2.227   3.254  0.8756 -0.3880  0.2689
  496DG      H711392   2.982   2.266   3.428 -1.3960 -0.0063  0.4965
  496DG      H811393   2.857   2.169   3.366  1.0971  0.1197  1.8354
  496DG      O911394   2.911   2.761   3.664  0.1507 -0.2126  0.3631
  496DG     O1011395   2.852   2.363   3.312  1.0285 -0.3432  0.7621
  496DG     C1111396   3.022   2.673   3.678 -0.1134 -0.2084 -0.3587
  496DG     C1211397   2.926   2.468   3.250  0.3135  0.1435  0.1629
  496DG     H1311398   2.993   2.575   3.717 -0.2873 -0.8181 -1.9301
  496DG     H1411399   3.110   2.710   3.732 -0.2535  0.3824 -0.5286
  496DG     H1511400   2.850   2.535   3.210 -1.2275 -1.4807  0.2405
  496DG     H1611401   2.983   2.426   3.167  1.2712  1.8961 -0.1138
  496DG     C1711402   3.076   2.636   3.541 -0.0568  0.9920  0.5174
  496DG     C1811403   3.030   2.530   3.337  0.3583 -0.0039  0.6982
  496DG     O1911404   2.974   2.574   3.462  0.0074  0.1088 -0.0536
  496DG     H2011405   3.155   2.562   3.555 -0.0792  0.8352 -0.1222
  496DG     H2111406   3.110   2.727   3.492 -0.6444  0.6711 -0.5163
  496DG     H2211407   3.111   2.461   3.362  0.9009  0.6439  0.7695
  496DG     H2311408   3.080   2.613   3.286  2.2744  1.0008  3.9085
  497DG      C111409   2.385   5.495   1.998  0.4754  0.0849 -0.1455
  497DG      C211410   2.641   6.092   2.218  0.5876 -0.2634 -0.5169
  497DG      H311411   2.461   5.520   1.924  1.3082  1.0422  0.9989
  497DG      H411412   2.301   5.479   1.930  0.2072  1.2401 -0.0979
  497DG      H511413   2.420   5.405   2.049  2.2542  0.5444 -0.4777
  497DG      H611414   2.651   6.165   2.298 -2.7526  0.4548 -0.6034
  497DG      H711415   2.743   6.053   2.209  0.7826  0.0154  0.4099
  497DG      H811416   2.602   6.152   2.136 -3.1139 -2.5725 -0.7031
  497DG      O911417   2.361   5.588   2.102 -0.2657 -0.0170  0.4023
  497DG     O1011418   2.551   5.993   2.257 -0.1852 -0.2974 -0.1322
  497DG     C1111419   2.237   5.652   2.096  0.5041  0.5410 -0.3729
  497DG     C1211420   2.420   6.052   2.266  0.3219  0.2829  0.3461
  497DG     H1311421   2.157   5.578   2.089  0.3841  0.7272 -1.0594
  497DG     H1411422   2.238   5.717   2.009  1.8482  0.9904 -0.0467
  497DG     H1511423   2.385   6.110   2.181  2.8768  0.0121 -1.0013
  497DG     H1611424   2.428   6.113   2.356  1.5787  0.0279  0.4224
  497DG     C1711425   2.228   5.736   2.219 -0.9578  0.1199 -0.0375
  497DG     C1811426   2.317   5.938   2.304  0.4068 -0.0588 -0.4877
  497DG     O1911427   2.331   5.834   2.205  0.9995 -0.1236 -0.6013
  497DG     H2011428   2.242   5.682   2.313  1.6314 -1.9668 -1.4824
  497DG     H2111429   2.137   5.796   2.212  0.3978  2.3632  0.2133
  497DG     H2211430   2.345   5.910   2.405 -0.4040 -0.4209 -0.3621
  497DG     H2311431   2.215   5.976   2.295 -0.3942 -1.6954  1.1487
  498DG      C111432   4.835   0.549   3.384 -0.2758  0.0888 -0.2524
  498DG      C211433   5.474   0.627   2.985 -0.0022 -0.3784 -0.3330
  498DG      H311434   4.820   0.468   3.456  0.6204 -0.8738 -1.1347
  498DG      H411435   4.766   0.528   3.302 -0.0228  0.3733 -0.5418
  498DG      H511436   4.814   0.645   3.431  1.0456 -0.4968  1.6509
  498DG      H611437   5.442   0.588   3.082  1.6666  0.9839  0.8265
  498DG      H711438   5.543   0.564   2.929 -0.9632 -1.6974 -0.0804
  498DG      H811439   5.537   0.714   3.002 -1.6255  1.1147 -1.6176
  498DG      O911440   4.974   0.531   3.357 -0.7396 -0.1193 -0.0804
  498DG     O1011441   5.364   0.674   2.900 -0.4010 -0.2303 -0.2963
  498DG     C1111442   5.020   0.599   3.243  0.1319 -0.0881  0.1348
  498DG     C1211443   5.282   0.566   2.855 -0.4684 -0.4051 -0.6782
  498DG     H1311444   5.079   0.680   3.287  0.0074  1.0592 -1.6969
  498DG     H1411445   4.943   0.636   3.175  2.4868 -0.5664 -3.0800
  498DG     H1511446   5.345   0.495   2.800  0.9014 -1.2021  1.7242
  498DG     H1611447   5.193   0.594   2.799 -1.5269 -2.7071 -0.2680
  498DG     C1711448   5.098   0.499   3.166 -0.4199  0.0503  0.0195
  498DG     C1811449   5.225   0.476   2.964  0.2181  0.4770  0.3060
  498DG     O1911450   5.160   0.569   3.054 -0.2264 -0.3332  0.1362
  498DG     H2011451   5.034   0.414   3.143 -2.4264  1.5158 -0.1411
  498DG     H2111452   5.186   0.460   3.217  2.1886  4.0454 -0.9135
  498DG     H2211453   5.148   0.410   2.924  0.8772 -1.2703  1.7756
  498DG     H2311454   5.292   0.404   3.011  0.5288  0.9673  0.6125
  499DG      C111455   3.270   3.130   3.765 -0.0523  0.0506 -0.1261
  499DG      C211456   3.018   3.586   4.184 -0.3703 -0.4289  0.5325
  499DG      H311457   3.357   3.153   3.825 -0.6989  2.5845 -0.0533
  499DG      H411458   3.273   3.194   3.676 -2.4959 -2.5962 -2.3332
  499DG      H511459   3.281   3.029   3.725 -0.1916  1.3811 -3.9376
  499DG      H611460   2.946   3.622   4.258 -0.6510 -2.6099  1.4124
  499DG      H711461   3.116   3.564   4.224  0.7194  1.0158 -1.1889
  499DG      H811462   3.029   3.658   4.103 -0.5780  1.1694  1.8690
  499DG      O911463   3.153   3.140   3.846  0.0674  0.6865  0.0829
  499DG     O1011464   2.969   3.468   4.113  0.1958  0.1065  0.3713
  499DG     C1111465   3.027   3.123   3.778  0.3553  0.2222 -0.0038
  499DG     C1211466   2.840   3.479   4.047 -0.0995  0.1916 -0.0013
  499DG     H1311467   3.022   3.027   3.727  0.1167  1.1136 -1.7352
  499DG     H1411468   3.032   3.192   3.694 -0.3213  0.8819  0.4813
  499DG     H1511469   2.857   3.542   3.960  0.1683  0.4427  0.2316
  499DG     H1611470   2.760   3.512   4.114 -0.0555 -1.7983  1.1375
  499DG     C1711471   2.917   3.154   3.872  0.4463 -0.3273 -0.0651
  499DG     C1811472   2.815   3.336   4.001 -0.3221 -0.0370 -0.2272
  499DG     O1911473   2.928   3.289   3.923  0.3104 -0.4625 -0.3926
  499DG     H2011474   2.912   3.084   3.955 -2.1821  0.6609  0.6918
  499DG     H2111475   2.823   3.139   3.820 -0.8703  0.0896  2.0840
  499DG     H2211476   2.796   3.272   4.087  1.4570 -1.0726 -0.5443
  499DG     H2311477   2.725   3.341   3.940 -1.5536 -1.6241  1.3557
  500DG      C111478   0.989   3.796   5.489 -0.3498 -0.0754 -0.2358
  500DG      C211479   1.385   3.282   5.637 -0.4014  0.2687  0.3237
  500DG      H311480   0.921   3.766   5.569 -2.7607  2.0369 -1.3670
  500DG      H411481   0.974   3.715   5.418 -1.1092 -1.1473  1.1094
  500DG      H511482   0.949   3.889   5.448 -1.4878 -0.7044 -0.5920
  500DG      H611483   1.493   3.295   5.638 -0.4348  0.5803  1.0262
  500DG      H711484   1.339   3.311   5.732 -1.0311  4.7486 -1.1271
  500DG      H811485   1.359   3.184   5.597  0.6865  0.3215 -0.5397
  500DG      O911486   1.118   3.815   5.549 -0.2984  0.0783  0.1037
  500DG     O1011487   1.331   3.382   5.551 -0.2509 -0.2308  0.2057
  500DG     C1111488   1.210   3.856   5.459  0.2826  0.0982 -0.1280
  500DG     C1211489   1.380   3.401   5.423 -0.2070  0.4262 -1.1481
  500DG     H1311490   1.299   3.880   5.518 -0.0358 -0.3297  0.5351
  500DG     H1411491   1.178   3.946   5.407  2.4681  0.3427 -1.1441
  500DG     H1511492   1.373   3.309   5.366 -0.7010 -0.0043 -0.4194
  500DG     H1611493   1.481   3.443   5.431 -0.0590  0.0317 -0.9297
  500DG     C1711494   1.253   3.747   5.357 -0.2731 -0.3342 -0.6261
  500DG     C1811495   1.295   3.504   5.350 -0.3301 -0.0862 -0.1317
  500DG     O1911496   1.284   3.625   5.426 -0.3651 -0.1139 -0.6840
  500DG     H2011497   1.350   3.764   5.311 -0.1367  0.6262  0.0043
  500DG     H2111498   1.181   3.729   5.277 -0.1479 -0.6263 -0.6735
  500DG     H2211499   1.331   3.532   5.251  0.0557  0.8536  0.2629
  500DG     H2311500   1.192   3.468   5.343 -0.8175  1.5282 -3.6948
  501DG      C111501   5.453   4.573   4.528  0.8103 -0.6177  0.2662
  501DG      C211502   4.831   4.593   4.098 -0.5856 -0.3651 -0.1302
  501DG      H311503   5.449   4.465   4.545 -1.8957 -0.4018  1.6699
  501DG      H411504   5.406   4.617   4.616 -0.1295 -2.0543  0.5269
  501DG      H511505   5.554   4.612   4.534 -0.1894  2.0175  0.9927
  501DG      H611506   4.857   4.521   4.021 -0.4474 -1.9605  1.3511
  501DG      H711507   4.779   4.530   4.169  0.3392  0.4719  1.3551
  501DG      H811508   4.769   4.668   4.049 -1.3233 -0.0807  1.2080
  501DG      O911509   5.394   4.614   4.402 -0.2485 -0.3462  0.0612
  501DG     O1011510   4.947   4.646   4.152  1.0263 -0.1480  0.2232
  501DG     C1111511   5.355   4.742   4.406 -0.1146 -0.5757  0.2742
  501DG     C1211512   5.028   4.713   4.056 -0.1947  0.0710  0.1135
  501DG     H1311513   5.436   4.802   4.447  0.0914 -1.0584  0.5793
  501DG     H1411514   5.270   4.768   4.470  0.6040  2.7531  0.0458
  501DG     H1511515   4.958   4.770   3.995 -0.7093 -1.8547 -1.2202
  501DG     H1611516   5.072   4.647   3.981 -0.4253 -1.0333  0.9263
  501DG     C1711517   5.316   4.790   4.271  0.8940 -0.0187 -0.1463
  501DG     C1811518   5.131   4.802   4.123 -0.5164 -0.6043  0.0775
  501DG     O1911519   5.206   4.719   4.209  0.4571  0.0378 -0.2306
  501DG     H2011520   5.401   4.793   4.203  1.5838 -3.0718  0.4489
  501DG     H2111521   5.277   4.891   4.284 -1.0758 -0.8222  0.5607
  501DG     H2211522   5.189   4.841   4.040 -2.3881 -0.2449 -1.1426
  501DG     H2311523   5.087   4.879   4.186 -0.6187 -1.3425  0.9321
  502DG      C111524   0.301   3.555   1.182 -0.4078 -0.0405 -0.5900
  502DG      C211525   0.220   3.943   1.261  0.3649  0.0001  0.6610
  502DG      H311526   0.335   3.550   1.286 -0.4667 -0.8884 -0.6017
  502DG      H411527   0.318   3.457   1.136 -0.6655 -0.9160  1.0682
  502DG      H511528   0.196   3.582   1.171 -0.4609  0.2700  0.5239
  502DG      H611529   0.112   3.953   1.251  0.0876  0.0846  3.1388
  502DG      H711530   0.240   3.852   1.203 -1.5844 -0.1747  0.2189
  502DG      H811531   0.234   3.936   1.369 -0.3381 -1.0637  0.6949
  502DG      O911532   0.383   3.653   1.111 -0.2020  0.3529  0.1601
  502DG     O1011533   0.288   4.056   1.200 -0.2718 -0.1108  0.2370
  502DG     C1111534   0.348   3.670   0.971  0.4193 -0.2891 -0.1978
  502DG     C1211535   0.271   4.095   1.068  0.3524 -0.4874  0.9114
  502DG     H1311536   0.241   3.685   0.958  0.5538  0.1610 -0.8182
  502DG     H1411537   0.360   3.579   0.912 -0.2539 -0.4598 -0.0882
  502DG     H1511538   0.335   4.182   1.053  0.6268 -0.6829  0.9500
  502DG     H1611539   0.173   4.139   1.049  0.6462 -0.3640 -0.4299
  502DG     C1711540   0.427   3.792   0.930  0.7172  0.0588 -0.0571
  502DG     C1811541   0.291   3.985   0.963  0.4896 -0.3483 -0.5841
  502DG     O1911542   0.408   3.910   0.998 -0.0310  0.2792 -0.4203
  502DG     H2011543   0.413   3.812   0.824  0.8622  2.3356  0.2901
  502DG     H2111544   0.534   3.773   0.943  0.1658 -3.0068  0.8466
  502DG     H2211545   0.204   3.923   0.941  0.8196 -0.4307 -1.7238
  502DG     H2311546   0.322   4.036   0.872 -0.2040 -1.7082 -1.6134
  503THF     O111547   3.727   3.418   3.557  0.0465  0.2054  0.5937
  503THF     C211548   3.678   3.374   3.683 -0.1629 -0.3894  0.4963
  503THF     C311549   3.823   3.513   3.589  0.5942  0.5016  0.1071
  503THF     H411550   3.624   3.279   3.676 -0.1797 -0.3932  0.6667
  503THF     H511551   3.612   3.455   3.713 -1.2967 -0.6426 -1.1736
  503THF     H611552   3.872   3.543   3.497 -1.2743  1.7402 -0.5607
  503THF     H711553   3.779   3.606   3.624 -3.6115 -0.9151 -0.8015
  503THF     C811554   3.910   3.458   3.702  0.0091 -0.2188  0.2641
  503THF     C911555   3.805   3.368   3.771  0.1840  0.0480  0.5110
  503THF    H1011556   3.956   3.541   3.756 -1.7119  0.9430  0.0471
  503THF    H1111557   3.982   3.390   3.657 -1.9343 -1.2738 -1.4479
  503THF    H1211558   3.847   3.268   3.765  2.2216  0.9148 -0.2997
  503THF    H1311559   3.796   3.399   3.876 -2.4809  2.0494 -0.1700
  504THF     O111560   1.410   3.247   3.507 -0.3275 -0.0364 -0.2065
  504THF     C211561   1.472   3.378   3.507 -0.5178 -0.2761 -0.0437
  504THF     C311562   1.440   3.185   3.379 -0.1951  0.4148 -0.4586
  504THF     H411563   1.574   3.370   3.544 -0.4440 -1.1216 -0.4000
  504THF     H511564   1.419   3.450   3.569  4.1563  1.0726  2.9573
  504THF     H611565   1.482   3.087   3.400  2.8678  1.7226  0.0491
  504THF     H711566   1.354   3.165   3.315  1.2287 -1.9645 -1.7581
  504THF     C811567   1.534   3.279   3.307  0.6032 -0.1458  0.1890
  504THF     C911568   1.479   3.411   3.358 -0.3669 -0.1176 -1.0898
  504THF    H1011569   1.531   3.269   3.198 -1.6899 -1.2633  0.2957
  504THF    H1111570   1.638   3.270   3.337  0.3279 -0.8183  0.9787
  504THF    H1211571   1.545   3.496   3.338 -0.9587  0.3336 -1.1237
  504THF    H1311572   1.381   3.436   3.319 -1.2047  1.7137  1.9644
  505THF     O111573   3.173   0.733   2.063 -0.4428 -0.1512 -0.2409
  505THF     C211574   3.134   0.709   1.929  0.1375 -0.3669 -0.4139
  505THF     C311575   3.082   0.686   2.158  0.2183 -0.3661  0.1179
  505THF     H411576   3.219   0.706   1.861  0.2112 -2.5077 -0.2884
  505THF     H511577   3.066   0.788   1.896 -2.5873 -1.6131  1.7562
  505THF     H611578   3.140   0.660   2.247  0.7904 -1.2382 -0.5004
  505THF     H711579   2.997   0.754   2.167  1.0579  0.7992 -0.4914
  505THF     C811580   3.032   0.556   2.088  0.0133 -0.3684 -0.5125
  505THF     C911581   3.075   0.575   1.948 -0.8077 -0.0373  0.2806
  505THF    H1011582   2.923   0.556   2.092  0.0352 -1.6160  2.1924
  505THF    H1111583   3.068   0.462   2.130  2.4417  1.7410  2.6653
  505THF    H1211584   3.157   0.507   1.924 -1.0757  0.0320 -0.8601
  505THF    H1311585   3.001   0.548   1.872 -0.7127 -1.6928  0.7268
  506THF     O111586   1.767   3.337   3.849  0.0584 -0.6797 -0.1675
  506THF     C211587   1.876   3.363   3.933 -0.3296  0.5575 -0.1643
  506THF     C311588   1.774   3.209   3.793  0.3835  0.4110 -0.1990
  506THF     H411589   1.849   3.414   4.025 -1.2708 -2.6994  1.5049
  506THF     H511590   1.942   3.427   3.875 -1.4280  0.6181 -1.4104
  506THF     H611591   1.673   3.176   3.767 -0.9947  1.0085  3.7114
  506THF     H711592   1.842   3.215   3.708  0.6190 -2.5897 -0.3121
  506THF     C811593   1.831   3.126   3.911 -0.5023  0.7616 -0.2835
  506THF     C911594   1.940   3.225   3.960  0.6031  0.1586  0.4360
  506THF    H1011595   1.873   3.031   3.879 -1.9640  0.0978 -0.2877
  506THF    H1111596   1.754   3.109   3.985  0.4706 -2.5055  0.1489
  506THF    H1211597   1.970   3.195   4.060 -0.3814 -1.1535  0.3695
  506THF    H1311598   2.028   3.211   3.897 -0.9803  0.2196 -1.8935
  507THF     O111599   4.119   3.355   4.229  0.5211 -0.1865 -0.5862
  507THF     C211600   3.979   3.350   4.193  0.2474 -0.4359  0.1711
  507THF     C311601   4.152   3.492   4.250  0.2558  0.3227 -0.4156
  507THF     H411602   3.922   3.295   4.269 -0.0223 -1.6246 -0.8628
  507THF     H511603   3.978   3.308   4.092  0.7822  0.8162 -0.3670
  507THF     H611604   4.229   3.492   4.327 -0.6623 -4.3432  0.8212
  507THF     H711605   4.188   3.553   4.167  0.5976  2.2872  1.0776
  507THF     C811606   4.027   3.555   4.298  0.3265 -0.6475  0.0123
  507THF     C911607   3.918   3.487   4.212 -0.9416 -0.3990  0.0148
  507THF    H1011608   4.036   3.663   4.308  1.5317 -0.3801 -3.0715
  507THF    H1111609   4.003   3.516   4.397  0.0590 -1.6568 -0.4376
  507THF    H1211610   3.821   3.495   4.261 -0.3879  0.7981  0.9593
  507THF    H1311611   3.906   3.533   4.114  0.5193 -0.9044 -0.4365
  508THF     O111612   3.574   1.966   2.976  0.3422  0.2733 -0.5903
  508THF     C211613   3.561   1.854   3.061 -0.6584 -0.4297  0.6378
  508THF     C311614   3.449   2.011   2.934 -0.5875 -0.4902  0.3060
  508THF     H411615   3.543   1.874   3.166  0.6598  2.3139  0.4294
  508THF     H511616   3.656   1.802   3.045 -0.8392 -0.5774  0.0042
  508THF     H611617   3.409   2.076   3.013  1.5924 -0.0934  1.1561
  508THF     H711618   3.463   2.073   2.846  0.3242 -1.1641 -0.0307
  508THF     C811619   3.385   1.879   2.900 -0.2488  0.5981  0.0599
  508THF     C911620   3.447   1.778   2.994  0.0310 -0.1168  0.0933
  508THF    H1011621   3.423   1.868   2.799  0.7429  1.4519  0.3257
  508THF    H1111622   3.276   1.874   2.904 -0.1701 -1.5184  1.2147
  508THF    H1211623   3.376   1.741   3.067  1.0916 -1.4384  0.4989
  508THF    H1311624   3.490   1.698   2.933 -0.2882  0.4807 -0.9242
  509THF     O111625   1.148   4.929   3.120 -0.2273 -0.8651  0.3448
  509THF     C211626   1.023   4.869   3.141 -0.0294  0.7751 -0.4495
  509THF     C311627   1.125   5.064   3.087  0.3104 -0.0616  0.2165
  509THF     H411628   0.990   4.891   3.243 -2.0179  0.2686 -0.9343
  509THF     H511629   1.026   4.761   3.125 -1.0079  0.6990 -0.1955
  509THF     H611630   1.115   5.127   3.175  0.3177 -0.8756  0.8016
  509THF     H711631   1.205   5.120   3.038  2.0632 -0.7747  2.1252
  509THF     C811632   0.995   5.063   3.005  0.1041  0.6645  0.2458
  509THF     C911633   0.930   4.927   3.032  0.4478 -0.2198 -0.4479
  509THF    H1011634   1.023   5.075   2.900 -0.3867 -2.9743 -0.4186
  509THF    H1111635   0.929   5.138   3.048 -0.0260  0.8171 -0.2130
  509THF    H1211636   0.823   4.933   3.052  0.5541  1.7663 -0.2680
  509THF    H1311637   0.939   4.872   2.938 -0.0349 -0.1876 -0.5123
  510THF     O111638   1.284   4.161   4.258 -0.0872 -0.2222 -0.0687
  510THF     C211639   1.353   4.057   4.207  0.1428  0.2390 -0.3079
  510THF     C311640   1.183   4.210   4.171  0.8554 -0.0152  0.6278
  510THF     H411641   1.365   3.971   4.274  0.7548  1.6962  1.5482
  510THF     H511642   1.453   4.093   4.182  0.1239 -0.2157 -1.0751
  510THF     H611643   1.091   4.154   4.191 -0.1651  0.8156 -1.3951
  510THF     H711644   1.164   4.316   4.184 -0.0697 -0.0857  0.0009
  510THF     C811645   1.225   4.161   4.032 -0.0491 -0.3452  0.3026
  510THF     C911646   1.290   4.031   4.071 -0.4062  0.2353  0.3622
  510THF    H1011647   1.297   4.228   3.986 -0.4228  0.1964  0.4915
  510THF    H1111648   1.144   4.153   3.960 -0.5996 -2.1401  1.0704
  510THF    H1211649   1.234   3.939   4.089  1.9346 -1.1560  0.9371
  510THF    H1311650   1.361   3.994   3.998 -0.8158  1.5957 -0.7677
  511THF     O111651   1.161   2.470   0.747 -1.1066 -0.6631  0.7357
  511THF     C211652   1.077   2.516   0.635 -0.5043 -0.3455 -0.4775
  511THF     C311653   1.137   2.331   0.764 -0.0434  0.0700 -0.1534
  511THF     H411654   1.131   2.506   0.541 -0.2691 -1.3376 -0.2425
  511THF     H511655   1.053   2.622   0.641 -1.5970 -0.5581 -0.8893
  511THF     H611656   1.194   2.281   0.685  1.1597 -0.2615  0.8874
  511THF     H711657   1.181   2.301   0.859  0.3469 -0.4026 -0.4761
  511THF     C811658   0.981   2.335   0.755 -0.2424 -0.1200  0.4835
  511THF     C911659   0.953   2.427   0.639  0.0240 -0.2674 -0.2618
  511THF    H1011660   0.937   2.361   0.851 -4.2309  1.1650 -1.4614
  511THF    H1111661   0.948   2.232   0.737 -0.5532  0.0593  0.0102
  511THF    H1211662   0.947   2.368   0.547  0.0924  0.0547 -0.4754
  511THF    H1311663   0.867   2.491   0.659  0.8108  0.8992 -0.4487
  512THF     O111664   3.544   2.292   2.038 -0.2247  0.5827 -0.4328
  512THF     C211665   3.626   2.235   1.940 -0.1076 -0.0190  0.0591
  512THF     C311666   3.474   2.188   2.102  0.0615  0.6971 -0.5778
  512THF     H411667   3.713   2.194   1.992  0.6635  0.0140 -1.1621
  512THF     H511668   3.666   2.307   1.868  2.0659 -0.4236  0.7779
  512THF     H611669   3.527   2.128   2.176 -1.6817  1.7486  1.6689
  512THF     H711670   3.390   2.235   2.155  0.9069  0.2080  1.2781
  512THF     C811671   3.445   2.095   1.987  1.0317  0.1453  0.0572
  512THF     C911672   3.539   2.131   1.873 -0.2049  0.0379  0.5297
  512THF    H1011673   3.344   2.117   1.951  1.3708 -1.7545 -2.3405
  512THF    H1111674   3.454   1.987   1.997  0.3831  0.0079 -0.7138
  512THF    H1211675   3.590   2.038   1.846  0.0132  0.3539 -0.1556
  512THF    H1311676   3.480   2.170   1.790 -0.1530 -0.1784  0.3886
  513THF     O111677   0.720   3.708   4.765  0.1614 -0.3289 -0.2873
  513THF     C211678   0.611   3.663   4.679  0.2029  0.3840  0.2170
  513THF     C311679   0.763   3.835   4.711  0.0601 -0.2678  0.0253
  513THF     H411680   0.528   3.725   4.713  1.3467  0.8388  2.3478
  513THF     H511681   0.579   3.560   4.696 -1.1653  0.5617 -1.0745
  513THF     H611682   0.704   3.913   4.758 -2.4129 -2.9111  1.6641
  513THF     H711683   0.869   3.847   4.733  0.8324 -3.3144 -1.4627
  513THF     C811684   0.736   3.831   4.564 -0.0029 -0.3836  0.0552
  513THF     C911685   0.658   3.706   4.543 -0.1602  0.5135  0.4578
  513THF    H1011686   0.838   3.831   4.526  0.3952  1.4673  0.9712
  513THF    H1111687   0.689   3.928   4.546 -1.5414 -0.6106  2.4129
  513THF    H1211688   0.579   3.724   4.470  1.5240  1.5033 -1.1936
  513THF    H1311689   0.731   3.644   4.491 -1.3997 -0.6516  0.0454
  514THF     O111690   1.000   2.879   2.079  0.1671 -0.3770  0.2134
  514THF     C211691   0.976   2.935   1.952  0.4488  0.0877  0.6047
  514THF     C311692   0.965   2.739   2.074 -0.3336  0.4523 -0.2801
  514THF     H411693   1.065   2.935   1.890 -0.0649  0.8276 -0.1578
  514THF     H511694   0.934   3.035   1.946  1.5472  0.6863  2.2293
  514THF     H611695   1.049   2.696   2.019  0.6890  1.8529  0.1382
  514THF     H711696   0.965   2.691   2.172  0.7823 -0.6054 -0.7735
  514THF     C811697   0.843   2.741   1.996  0.4327 -0.0890 -0.1933
  514THF     C911698   0.880   2.833   1.888  0.6613  0.1809 -0.0592
  514THF    H1011699   0.762   2.783   2.055  2.5251  2.8001  0.8376
  514THF    H1111700   0.817   2.651   1.939  0.8088  0.3918 -1.1550
  514THF    H1211701   0.927   2.768   1.814 -1.9418 -0.8492 -0.9293
  514THF    H1311702   0.798   2.880   1.834 -0.2171  0.7809  1.7044
  515THF     O111703   2.713   3.804   1.689  0.8071 -0.2004 -0.7635
  515THF     C211704   2.767   3.931   1.664 -0.2327  0.5179 -0.1516
  515THF     C311705   2.803   3.739   1.784  0.3207  0.0758 -0.2584
  515THF     H411706   2.682   3.998   1.652 -0.8528 -0.3733 -0.7926
  515THF     H511707   2.829   3.916   1.576  0.5181  0.1516  0.4310
  515THF     H611708   2.739   3.668   1.837 -0.3957  0.7172 -0.2446
  515THF     H711709   2.870   3.676   1.726  0.7626  0.3938 -0.0927
  515THF     C811710   2.861   3.845   1.870 -0.5534  0.4432  0.2685
  515THF     C911711   2.856   3.967   1.793 -0.5738  0.6181 -0.0510
  515THF    H1011712   2.959   3.826   1.913 -0.4020  0.4026 -0.0973
  515THF    H1111713   2.789   3.859   1.951  1.1046 -1.1476  2.1184
  515THF    H1211714   2.812   4.053   1.843  0.1661  1.0489 -0.1417
  515THF    H1311715   2.955   4.003   1.767  0.3983 -2.9755 -2.0142
  516THF     O111716   2.781   3.146   0.634  0.6804 -0.6945  0.5119
  516THF     C211717   2.768   3.055   0.741 -0.3134  0.1016  0.1934
  516THF     C311718   2.824   3.073   0.518  0.0033  0.0931 -0.0561
  516THF     H411719   2.690   3.082   0.812 -1.3186 -2.2976  0.1118
  516THF     H511720   2.862   3.056   0.795  0.0125  2.1577 -0.3293
  516THF     H611721   2.821   3.135   0.429  2.5560 -0.4338 -0.5883
  516THF     H711722   2.928   3.044   0.527 -0.2024 -0.8857 -0.6673
  516THF     C811723   2.733   2.962   0.533  0.8814 -0.1893  0.6912
  516THF     C911724   2.737   2.918   0.674 -0.1780 -0.0431  0.1939
  516THF    H1011725   2.763   2.884   0.464 -0.9174 -0.9080  0.6702
  516THF    H1111726   2.636   2.990   0.494  0.7745 -2.3609 -0.7400
  516THF    H1211727   2.642   2.869   0.695 -1.5529 -0.4776 -5.4350
  516THF    H1311728   2.812   2.839   0.679 -0.3572 -0.1673  1.4657
  517THF     O111729   1.866   3.586   1.742  0.5544 -0.0969 -0.6886
  517THF     C211730   1.986   3.597   1.670 -0.2744  0.0141 -0.6253
  517THF     C311731   1.821   3.724   1.755  0.3734  0.4023 -0.4439
  517THF     H411732   1.951   3.641   1.576 -1.2288  0.8710  0.1083
  517THF     H511733   2.043   3.508   1.640 -1.0586 -0.5921 -0.3407
  517THF     H611734   1.781   3.761   1.660  1.0739 -0.4198 -1.0831
  517THF     H711735   1.737   3.737   1.823 -0.9844 -0.0203 -1.9804
  517THF     C811736   1.951   3.789   1.800  0.3070  0.0815 -0.1972
  517THF     C911737   2.062   3.699   1.750  0.4840  0.2746  0.1357
  517THF    H1011738   1.954   3.810   1.907 -3.0820  1.1575 -0.1821
  517THF    H1111739   1.945   3.886   1.751  0.8767 -0.1026 -0.6420
  517THF    H1211740   2.143   3.751   1.699  1.4086  2.3669  3.4209
  517THF    H1311741   2.110   3.654   1.838 -0.9320 -0.7786  0.4134
  518THF     O111742   0.665   0.164   4.460  0.1816 -0.0016 -0.6253
  518THF     C211743   0.741   0.180   4.341  0.5237 -0.0552  0.2182
  518THF     C311744   0.527   0.144   4.420 -0.7180 -0.3562  0.4304
  518THF     H411745   0.758   0.082   4.295  0.2861 -0.1460  0.3221
  518THF     H511746   0.840   0.221   4.360 -0.1076  0.9603  1.5106
  518THF     H611747   0.511   0.055   4.359  2.0978 -0.3549 -0.4302
  518THF     H711748   0.467   0.139   4.511 -1.2198 -0.6741  0.0889
  518THF     C811749   0.517   0.267   4.335 -0.5749 -0.7152 -0.2060
  518THF     C911750   0.647   0.273   4.254 -0.2253  0.4931  0.1581
  518THF    H1011751   0.509   0.360   4.391  1.9872 -1.1865  1.0805
  518THF    H1111752   0.422   0.264   4.282 -0.1458  0.3847 -1.0796
  518THF    H1211753   0.634   0.232   4.154  0.6420 -2.6560  1.2342
  518THF    H1311754   0.688   0.372   4.234  1.0051 -0.1914 -0.8984
  519THF     O111755   4.963   0.060   1.544  0.3651  0.4524 -0.7473
  519THF     C211756   4.887   0.004   1.653 -0.0542  0.0174  0.1713
  519THF     C311757   5.070   0.149   1.596 -0.3102 -0.3507 -0.1045
  519THF     H411758   4.922  -0.098   1.673  0.7903 -0.3666 -2.8941
  519THF     H511759   4.782  -0.001   1.627  0.0447  1.2294 -0.4947
  519THF     H611760   5.160   0.130   1.538  1.1982 -0.0211  2.0210
  519THF     H711761   5.050   0.256   1.585  0.8801 -0.0679  0.3454
  519THF     C811762   5.078   0.118   1.742 -0.0177 -0.3762 -0.1903
  519THF     C911763   4.926   0.091   1.768 -0.4980 -0.0611 -0.1218
  519THF    H1011764   5.093   0.208   1.802 -2.1770  0.3399 -0.6289
  519THF    H1111765   5.141   0.037   1.779  0.0802 -0.0184  0.4504
  519THF    H1211766   4.910   0.039   1.862 -0.5104 -0.3703 -0.2921
  519THF    H1311767   4.883   0.191   1.764  1.6207  1.1058  2.7630
  520THF     O111768   3.849   4.483   1.118  0.1813  0.3983 -0.5449
  520THF     C211769   3.795   4.351   1.118  0.5515  0.0152 -0.2206
  520THF     C311770   3.990   4.482   1.123 -0.4775  0.4283  0.3582
  520THF     H411771   3.769   4.330   1.014 -0.1646 -0.0137 -0.0447
  520THF     H511772   3.695   4.352   1.162  0.8480  0.6457  0.4342
  520THF     H611773   4.039   4.531   1.039  0.3079 -3.6382 -1.8258
  520THF     H711774   4.043   4.516   1.212  0.2070  0.5113 -0.0729
  520THF     C811775   4.026   4.325   1.118  0.2420 -0.1135 -0.3076
  520THF     C911776   3.894   4.256   1.166 -0.5756 -0.4384 -0.1038
  520THF    H1011777   4.116   4.305   1.176  0.9368 -0.8648 -1.5946
  520THF    H1111778   4.062   4.304   1.017  3.1995  0.0520  0.6229
  520THF    H1211779   3.882   4.155   1.128 -1.7827 -0.8089  1.1782
  520THF    H1311780   3.895   4.249   1.275  1.4336 -1.5683 -0.1463
  521THF     O111781   3.169   1.688   4.038 -0.1712  0.2882 -0.0749
  521THF     C211782   3.075   1.590   4.082  0.6594  0.3994 -0.1357
  521THF     C311783   3.272   1.677   4.129 -0.2965  0.0834  0.5577
  521THF     H411784   2.999   1.573   4.006  1.5505 -1.6646 -0.6420
  521THF     H511785   3.018   1.631   4.165  0.2716 -0.9189  0.2847
  521THF     H611786   3.363   1.729   4.098 -0.0582 -0.4984  0.2592
  521THF     H711787   3.245   1.711   4.229  0.7871 -2.1227  1.6887
  521THF     C811788   3.301   1.525   4.134  1.2436  0.7479 -0.0902
  521THF     C911789   3.159   1.470   4.102  0.3475 -0.5328 -0.0418
  521THF    H1011790   3.344   1.490   4.228 -0.1373 -0.6422  0.0788
  521THF    H1111791   3.380   1.501   4.064  1.1869  0.8734 -0.1964
  521THF    H1211792   3.155   1.420   4.006  0.3545  1.1893 -0.9749
  521THF    H1311793   3.124   1.408   4.184 -1.9302  1.7411  0.8537
  522THF     O111794   4.124   2.339   4.523 -0.2011  0.3800 -0.1339
  522THF     C211795   4.097   2.423   4.407  0.1003 -0.0422 -0.5991
  522THF     C311796   4.245   2.373   4.574  0.6109  0.2102 -0.3004
  522THF     H411797   4.040   2.512   4.435 -0.0951 -0.1682 -0.6005
  522THF     H511798   4.026   2.380   4.337 -1.3875  1.5962 -0.1478
  522THF     H611799   4.229   2.450   4.650 -1.2555  0.0369 -0.4785
  522THF     H711800   4.305   2.288   4.607 -0.2131  0.8220  3.1255
  522THF     C811801   4.314   2.455   4.469 -0.1558 -0.4735  0.4831
  522THF     C911802   4.228   2.463   4.346 -0.1106  0.0975 -0.5857
  522THF    H1011803   4.408   2.404   4.446  0.6379  0.1211  2.1886
  522THF    H1111804   4.327   2.555   4.510 -2.1645  0.9263 -2.0130
  522THF    H1211805   4.247   2.563   4.306  2.4024 -0.6979 -1.5656
  522THF    H1311806   4.252   2.378   4.282  1.4326 -0.6736  0.9361
  523THF     O111807   0.699   4.061   4.010  0.4490 -0.2990  0.3486
  523THF     C211808   0.830   4.009   4.006  0.3775 -0.4417 -0.5035
  523THF     C311809   0.648   4.036   4.144 -0.2330 -0.4741 -0.0077
  523THF     H411810   0.898   4.079   4.054  2.1413 -1.3389 -1.5681
  523THF     H511811   0.869   3.993   3.905 -0.6572  1.0277 -1.1744
  523THF     H611812   0.685   4.117   4.207  4.5922  1.0005 -4.0530
  523THF     H711813   0.541   4.014   4.136  0.0937 -1.8036 -1.0016
  523THF     C811814   0.728   3.914   4.194  0.1217 -0.4325 -0.1675
  523THF     C911815   0.825   3.875   4.082  0.0907 -0.2268  0.2536
  523THF    H1011816   0.659   3.834   4.223 -0.8906  0.4000 -0.2002
  523THF    H1111817   0.799   3.937   4.273  0.9550 -2.0819 -0.4048
  523THF    H1211818   0.916   3.832   4.123  1.2412 -1.4031 -3.1712
  523THF    H1311819   0.786   3.800   4.013  2.4014 -1.6725  0.3998
  524THF     O111820   5.149   5.444   4.047 -0.4507 -0.4048 -0.0267
  524THF     C211821   5.158   5.376   3.928 -0.1371 -0.2549  0.4451
  524THF     C311822   5.246   5.388   4.133  0.3525 -0.4599  0.0906
  524THF     H411823   5.231   5.421   3.862  0.5238 -0.0248  1.3138
  524THF     H511824   5.062   5.380   3.877  0.1226 -0.8948 -0.1120
  524THF     H611825   5.331   5.457   4.126 -0.2138  0.1140 -2.5547
  524THF     H711826   5.205   5.360   4.230 -0.3995 -3.5021 -0.9953
  524THF     C811827   5.286   5.253   4.070 -0.2812 -0.5600  0.2081
  524THF     C911828   5.185   5.226   3.963 -0.0183 -0.3107  0.1359
  524THF    H1011829   5.300   5.179   4.149  3.9076 -0.2622 -0.0291
  524THF    H1111830   5.384   5.260   4.022 -1.0454  2.6537 -1.1509
  524THF    H1211831   5.223   5.170   3.877  2.1506 -0.6930  1.2988
  524THF    H1311832   5.099   5.176   4.008 -1.1272  0.7182 -0.7555
  525THF     O111833   2.609   4.304   1.595 -0.1626 -0.5901 -0.1210
  525THF     C211834   2.636   4.379   1.478 -0.3651 -0.5446  0.0298
  525THF     C311835   2.728   4.301   1.672 -0.6997 -0.1900  0.8059
  525THF     H411836   2.548   4.434   1.444 -1.2914 -1.8189  0.3180
  525THF     H511837   2.655   4.304   1.402 -1.0108 -1.7272  1.0050
  525THF     H611838   2.713   4.269   1.775  0.1154 -1.1052  0.6563
  525THF     H711839   2.794   4.224   1.632 -1.8056 -0.8426  0.1724
  525THF     C811840   2.790   4.441   1.655  0.7992 -0.4973  0.0155
  525THF     C911841   2.758   4.473   1.512 -0.4545  0.5490 -0.4005
  525THF    H1011842   2.898   4.446   1.666  0.7765  1.0839 -0.1906
  525THF    H1111843   2.745   4.515   1.722  1.8820 -0.5111  0.7792
  525THF    H1211844   2.720   4.574   1.496  0.4817  1.0112  0.1565
  525THF    H1311845   2.842   4.458   1.444  1.0774  0.4570  1.4083
  526THF     O111846   3.187   2.422   1.695  0.0272  0.1973 -0.4015
  526THF     C211847   3.265   2.544   1.699  0.6450  0.1050  0.3882
  526THF     C311848   3.192   2.366   1.827 -0.0540 -0.3294 -0.0790
  526THF     H411849   3.237   2.624   1.631  2.8039  0.0254 -0.6823
  526THF     H511850   3.372   2.524   1.686  0.5281 -0.0849 -0.2930
  526THF     H611851   3.114   2.291   1.837 -2.6125  2.3286  1.3591
  526THF     H711852   3.290   2.325   1.851  1.5157  1.7437 -2.4169
  526THF     C811853   3.168   2.488   1.912 -0.8287 -0.0561  0.5606
  526THF     C911854   3.236   2.600   1.839  0.1753  0.0288  0.8453
  526THF    H1011855   3.202   2.470   2.014 -0.4283 -1.2013  0.2387
  526THF    H1111856   3.060   2.499   1.915 -1.1947 -2.7706 -0.2270
  526THF    H1211857   3.171   2.687   1.825 -0.6832 -0.9671 -2.0986
  526THF    H1311858   3.326   2.622   1.897  0.4350 -1.8466  1.2271
  527THF     O111859   2.271   3.262   4.168  0.0474  0.1186 -0.0176
  527THF     C211860   2.323   3.242   4.034  0.0667 -0.3482 -0.3867
  527THF     C311861   2.378   3.257   4.264 -0.3374  1.3004  0.3169
  527THF     H411862   2.267   3.270   3.945 -0.3811  1.2152  0.3588
  527THF     H511863   2.320   3.134   4.019 -2.7882 -0.0889 -2.3259
  527THF     H611864   2.365   3.356   4.308 -0.5183  0.8477  1.3266
  527THF     H711865   2.358   3.174   4.332 -1.4887  0.2830 -1.1780
  527THF     C811866   2.512   3.260   4.178 -0.1983  1.1151  0.2553
  527THF     C911867   2.463   3.288   4.039  0.1564 -1.0710  0.4213
  527THF    H1011868   2.552   3.159   4.168  1.3234  1.3385  3.0830
  527THF    H1111869   2.601   3.314   4.210 -0.2187  0.3698  1.6478
  527THF    H1211870   2.470   3.395   4.019 -1.9864 -1.3609 -2.5491
  527THF    H1311871   2.529   3.239   3.967  1.7532  0.3522  0.8482
  528THF     O111872   4.596   1.233   2.772 -0.4307  0.3701 -0.1558
  528THF     C211873   4.702   1.139   2.774 -0.3201  0.2120 -0.3845
  528THF     C311874   4.570   1.277   2.642  0.0282 -0.0455  0.3471
  528THF     H411875   4.684   1.081   2.864 -0.0692  0.5384 -0.1187
  528THF     H511876   4.798   1.191   2.775  0.9585 -1.9920 -1.7413
  528THF     H611877   4.464   1.301   2.633 -0.0531 -0.6752 -0.5358
  528THF     H711878   4.630   1.360   2.606  0.7960 -1.4564 -1.8949
  528THF     C811879   4.610   1.157   2.555  0.0620  0.2518  0.1663
  528THF     C911880   4.682   1.061   2.646 -0.5398  0.4647 -0.1041
  528THF    H1011881   4.679   1.180   2.474 -0.8116 -0.3338 -0.7664
  528THF    H1111882   4.515   1.117   2.521 -0.1711 -1.2860  2.3944
  528THF    H1211883   4.628   0.966   2.655  0.4641 -0.0461  0.8463
  528THF    H1311884   4.778   1.028   2.606 -0.7262  0.6819 -0.7371
  529THF     O111885   4.922   0.123   3.590 -0.6574  0.4084 -0.1849
  529THF     C211886   4.940   0.248   3.518 -0.2713  0.2295  0.0233
  529THF     C311887   5.022   0.027   3.553  0.5165  0.2005  0.0142
  529THF     H411888   4.942   0.333   3.586 -1.7975 -0.8458  1.4895
  529THF     H511889   4.858   0.267   3.449 -0.8702  0.7291  0.8603
  529THF     H611890   5.033  -0.035   3.643  1.0588  0.0958 -0.1201
  529THF     H711891   4.995  -0.028   3.464 -0.3213  1.5151 -0.5660
  529THF     C811892   5.142   0.115   3.522 -0.1325  0.3004 -0.0885
  529THF     C911893   5.077   0.236   3.457 -0.5514 -0.0387 -0.1611
  529THF    H1011894   5.226   0.072   3.467 -1.0320  0.6840 -1.8395
  529THF    H1111895   5.180   0.136   3.622 -0.4087  1.6537 -0.2533
  529THF    H1211896   5.132   0.328   3.476 -0.2567 -0.4722  1.1497
  529THF    H1311897   5.075   0.230   3.348 -0.3837 -1.4331 -0.1030
  530THF     O111898   0.714   5.202   3.355  0.1834  0.4213  0.1777
  530THF     C211899   0.794   5.094   3.386 -0.5976  1.0439  0.2268
  530THF     C311900   0.753   5.303   3.447  0.3164  0.2139  0.8772
  530THF     H411901   0.817   5.025   3.305  1.4726  1.5827  0.3028
  530THF     H511902   0.729   5.037   3.453 -0.1910 -1.3166 -1.2455
  530THF     H611903   0.717   5.401   3.415 -0.4892 -0.6345 -0.9653
  530THF     H711904   0.709   5.281   3.544 -0.7168 -1.4592  0.0891
  530THF     C811905   0.897   5.296   3.466 -0.9383  0.2100 -0.4257
  530THF     C911906   0.925   5.147   3.450  0.4047  0.3394  0.3587
  530THF    H1011907   0.917   5.335   3.565 -2.9089  1.6655 -0.5168
  530THF    H1111908   0.949   5.355   3.390 -0.8845 -0.2365 -0.7366
  530THF    H1211909   1.010   5.125   3.386 -0.9198  1.8583 -2.0563
  530THF    H1311910   0.938   5.092   3.544  1.1976  0.5883  0.4029
  531THF     O111911   1.440   1.323   3.593  0.2717 -0.5596  0.6927
  531THF     C211912   1.463   1.259   3.720 -0.5225 -0.2677 -1.1248
  531THF     C311913   1.311   1.271   3.558  0.6401 -0.6761  0.1821
  531THF     H411914   1.556   1.283   3.771 -1.2039  1.6130 -0.6668
  531THF     H511915   1.479   1.152   3.708  1.7575  0.0187 -1.1643
  531THF     H611916   1.267   1.314   3.468 -1.2554 -0.5821  1.1081
  531THF     H711917   1.314   1.168   3.523 -1.1560 -0.5783 -0.3905
  531THF     C811918   1.230   1.292   3.683 -0.1218 -0.6067  0.8060
  531THF     C911919   1.338   1.290   3.795  0.6482  0.4553 -0.0106
  531THF    H1011920   1.144   1.227   3.700 -0.8842 -0.2821 -1.3684
  531THF    H1111921   1.185   1.391   3.689  3.4118  1.2920 -0.8361
  531THF    H1211922   1.342   1.390   3.837  2.6269  0.0654  0.8348
  531THF    H1311923   1.321   1.212   3.869  0.1458 -0.8740 -1.4601
  532THF     O111924   2.667   0.659   3.268  0.0396  0.1430 -0.9204
  532THF     C211925   2.534   0.690   3.314 -0.1858 -0.2023 -0.5620
  532THF     C311926   2.700   0.765   3.176  0.6154  0.0192 -0.0044
  532THF     H411927   2.507   0.624   3.397 -1.5456 -2.8820 -2.9307
  532THF     H511928   2.462   0.677   3.233 -0.7256  1.1991 -0.3198
  532THF     H611929   2.808   0.772   3.167  1.1194 -0.3288  3.9785
  532THF     H711930   2.644   0.730   3.089 -0.3843 -0.0693  0.6602
  532THF     C811931   2.645   0.887   3.244 -0.3794 -0.1273 -0.1897
  532THF     C911932   2.536   0.836   3.337 -0.4320 -0.8527  0.3643
  532THF    H1011933   2.621   0.969   3.175  0.3515 -0.3834 -0.7679
  532THF    H1111934   2.723   0.921   3.313  0.3635 -2.9664  0.4937
  532THF    H1211935   2.544   0.854   3.444  1.5088 -3.8449  0.8531
  532THF    H1311936   2.446   0.892   3.313  0.9282  1.6309  0.8217
  533THF     O111937   1.997   1.869   3.787  0.1874  0.7118  0.1512
  533THF     C211938   2.102   1.939   3.852  0.4900  0.3066 -0.4524
  533THF     C311939   1.895   1.847   3.880 -0.0953 -0.6140 -0.2279
  533THF     H411940   2.065   2.037   3.881 -3.0242 -0.9155 -0.2931
  533THF     H511941   2.181   1.945   3.777  0.0591  0.1580 -0.9282
  533THF     H611942   1.834   1.937   3.880 -0.1005 -0.6065  0.6594
  533THF     H711943   1.832   1.762   3.852 -0.5855 -0.1845 -0.4264
  533THF     C811944   1.978   1.826   4.013 -0.6619 -0.4563  0.4885
  533THF     C911945   2.122   1.855   3.977  0.4753  0.2151 -0.0382
  533THF    H1011946   1.976   1.724   4.053  0.5117 -0.7997 -0.2559
  533THF    H1111947   1.955   1.903   4.085 -3.3523  0.8211 -1.5747
  533THF    H1211948   2.176   1.926   4.039 -0.9145  1.0507  0.2453
  533THF    H1311949   2.184   1.769   3.949  0.6692  1.0777 -2.5022
  534THF     O111950   0.747   1.358   2.010  0.3152 -0.5396 -0.1891
  534THF     C211951   0.854   1.450   2.038 -0.3039 -0.5114 -0.0986
  534THF     C311952   0.803   1.229   2.011 -0.1066  0.2353 -0.5317
  534THF     H411953   0.856   1.462   2.146  0.7851 -0.9635 -0.0592
  534THF     H511954   0.833   1.550   2.001 -0.8353 -0.3257  0.6800
  534THF     H611955   0.775   1.180   2.104 -2.0217  0.3300 -1.0167
  534THF     H711956   0.750   1.174   1.933 -2.6905  1.5338  0.1814
  534THF     C811957   0.956   1.240   2.002  0.0092 -0.1500 -0.1958
  534THF     C911958   0.978   1.385   1.973 -0.1305 -0.2585  0.5086
  534THF    H1011959   0.990   1.181   1.916 -1.2569  0.4412 -1.1296
  534THF    H1111960   1.000   1.210   2.097 -3.9785  0.9585  2.2512
  534THF    H1211961   1.069   1.421   2.021  0.6045 -1.0659 -0.2252
  534THF    H1311962   0.980   1.406   1.867  1.3079  2.2340  0.9576
  535THF     O111963   4.295   4.918   3.008  0.2707  0.2938  0.0775
  535THF     C211964   4.220   4.988   2.908 -0.2297 -0.0405 -0.0406
  535THF     C311965   4.434   4.946   2.996 -0.0680 -0.0249  1.3270
  535THF     H411966   4.114   4.994   2.933 -0.0318 -0.4833  0.9617
  535THF     H511967   4.231   4.939   2.812  0.5943 -2.4263  1.1930
  535THF     H611968   4.485   4.949   3.092  1.7567  0.7688  0.3830
  535THF     H711969   4.486   4.885   2.922  0.0526  2.1704 -0.5092
  535THF     C811970   4.437   5.096   2.953  0.5168 -0.2692 -0.2893
  535THF     C911971   4.289   5.121   2.899 -0.2756 -1.1129 -0.3883
  535THF    H1011972   4.506   5.110   2.871 -1.1866  0.5586 -1.6595
  535THF    H1111973   4.454   5.152   3.045 -1.2941  1.0962 -0.7203
  535THF    H1211974   4.249   5.204   2.957  0.6414 -0.0819 -1.1755
  535THF    H1311975   4.283   5.154   2.796  0.1429 -2.2443 -0.7820
  536THF     O111976   4.036   0.511   1.353 -0.5626  0.3636 -0.7847
  536THF     C211977   4.017   0.499   1.211  0.2466  0.9469 -0.0396
  536THF     C311978   3.901   0.503   1.401  0.0611 -0.0391 -0.2069
  536THF     H411979   4.020   0.393   1.185 -0.6211  0.4276  1.7765
  536THF     H511980   4.091   0.546   1.145 -1.8640  0.9290 -2.5723
  536THF     H611981   3.878   0.402   1.435  2.4107 -0.6015 -0.1283
  536THF     H711982   3.895   0.576   1.482  1.8427 -0.7585  0.6165
  536THF     C811983   3.804   0.537   1.289  0.2155  0.1473 -0.3011
  536THF     C911984   3.891   0.575   1.172 -1.1073 -0.4762 -0.2470
  536THF    H1011985   3.734   0.612   1.327  0.0343 -0.5615  0.8069
  536THF    H1111986   3.757   0.440   1.276  1.0063 -0.0866 -1.5114
  536THF    H1211987   3.850   0.539   1.078 -2.3232  1.4766 -0.5178
  536THF    H1311988   3.915   0.681   1.166 -2.8053 -0.0709 -0.1227
  537THF     O111989   1.961   3.531   3.413 -0.1053  0.0938  0.5647
  537THF     C211990   1.921   3.424   3.504  0.5038 -0.2025  0.5444
  537THF     C311991   2.094   3.570   3.460 -0.5869  0.7870 -0.1169
  537THF     H411992   1.843   3.357   3.466  0.7091 -1.6569  2.5079
  537THF     H511993   1.864   3.466   3.586 -0.7441 -0.7600 -0.0023
  537THF     H611994   2.153   3.621   3.384 -1.1232  0.6627 -0.6187
  537THF     H711995   2.092   3.632   3.550  3.3132  0.4646  0.3738
  537THF     C811996   2.165   3.441   3.493 -0.1133  0.4654  0.2823
  537THF     C911997   2.052   3.357   3.548 -0.1758 -0.4367 -0.4694
  537THF    H1011998   2.242   3.450   3.570 -0.5609  0.8465  0.7001
  537THF    H1111999   2.199   3.396   3.400 -2.0168  1.0573 -0.7726
  537THF    H1212000   2.065   3.253   3.518 -1.0434 -0.5833 -0.3845
  537THF    H1312001   2.054   3.363   3.657 -2.2351  1.4525 -0.4684
  538THF     O112002   4.332   0.865   3.411 -0.1702 -0.1978 -0.5197
  538THF     C212003   4.466   0.911   3.427 -0.2328  0.1036 -0.2207
  538THF     C312004   4.290   0.816   3.532  0.0547 -0.7478 -0.1699
  538THF     H412005   4.482   1.012   3.388  0.8653 -0.2116 -0.6435
  538THF     H512006   4.523   0.842   3.366 -0.4596  0.9423 -1.4115
  538THF     H612007   4.181   0.813   3.541 -0.1773 -0.2003 -2.4217
  538THF     H712008   4.330   0.715   3.534 -0.8730 -1.1235  1.3746
  538THF     C812009   4.348   0.909   3.633  0.5632  0.2099  0.0114
  538THF     C912010   4.492   0.917   3.578  0.3821 -0.0082 -0.7541
  538THF    H1012011   4.328   0.872   3.733 -1.3564  0.0511 -0.3929
  538THF    H1112012   4.308   1.010   3.625  0.0506 -0.0622 -1.0493
  538THF    H1212013   4.558   1.000   3.604  2.5502 -1.6621 -0.6755
  538THF    H1312014   4.547   0.827   3.604  0.8043  0.1635 -1.0446
  539THF     O112015   0.516   3.122   4.488  0.5686  0.8298  0.2251
  539THF     C212016   0.479   3.169   4.617  0.3685 -0.2383  0.1481
  539THF     C312017   0.658   3.118   4.481 -0.2867  0.9120  0.6538
  539THF     H412018   0.467   3.090   4.692 -0.6037  0.2669  0.5555
  539THF     H512019   0.381   3.216   4.610  0.6822  0.6400  1.3916
  539THF     H612020   0.688   3.039   4.550  3.3895  2.4242  1.0414
  539THF     H712021   0.707   3.104   4.385  2.9348  1.5927  2.0484
  539THF     C812022   0.682   3.254   4.544  0.5356 -0.4502  0.0733
  539THF     C912023   0.594   3.245   4.670  0.0992 -0.1547 -0.4135
  539THF    H1012024   0.651   3.339   4.483  0.9102  0.7785  1.5470
  539THF    H1112025   0.782   3.269   4.583  0.7130 -1.8370  0.2131
  539THF    H1212026   0.639   3.199   4.758  0.7311  0.0195 -0.6378
  539THF    H1312027   0.561   3.348   4.687 -1.0020 -0.6713  0.8200
  540THF     O112028   1.523   1.351   2.188  0.2946  0.2523 -0.2125
  540THF     C212029   1.390   1.399   2.174  0.6736 -0.3114 -0.1514
  540THF     C312030   1.619   1.438   2.145 -0.7724 -0.4832  0.1443
  540THF     H412031   1.363   1.474   2.248  0.9905 -2.3297  2.1405
  540THF     H512032   1.306   1.329   2.177  1.0089 -0.6982  0.8769
  540THF     H612033   1.654   1.501   2.227 -1.5912  0.4195 -0.1901
  540THF     H712034   1.704   1.379   2.109 -0.1669  1.4924 -1.8672
  540THF     C812035   1.553   1.492   2.021  0.3216  0.2534  0.4171
  540THF     C912036   1.401   1.473   2.049 -0.5521  0.7892  0.0853
  540THF    H1012037   1.583   1.435   1.933  3.3558  1.4011  0.5810
  540THF    H1112038   1.583   1.594   1.997 -0.9057  0.5539  0.1124
  540THF    H1212039   1.348   1.568   2.056 -0.9122  0.6139 -0.2336
  540THF    H1312040   1.362   1.421   1.962  1.5393  0.5238 -0.7466
  541THF     O112041   0.478   4.190   1.914  0.3287  0.6969 -0.0021
  541THF     C212042   0.584   4.149   1.833  0.5609  0.4392 -0.3107
  541THF     C312043   0.374   4.243   1.834 -0.0171 -0.0024  0.2407
  541THF     H412044   0.592   4.041   1.823 -0.4321  0.2918  0.3481
  541THF     H512045   0.684   4.170   1.872  0.4202 -0.6426  0.6869
  541THF     H612046   0.280   4.192   1.858 -1.1555  2.2076  0.7136
  541THF     H712047   0.358   4.349   1.853  1.7116  0.3688 -0.2106
  541THF     C812048   0.407   4.223   1.684  0.0053  0.2102 -0.2826
  541THF     C912049   0.560   4.227   1.701 -0.1358 -0.0959 -0.1789
  541THF    H1012050   0.381   4.306   1.619  1.3159  1.1358  0.3161
  541THF    H1112051   0.383   4.122   1.652  0.1800 -0.1642  0.7024
  541THF    H1212052   0.617   4.186   1.618  0.2335  0.8971 -0.4254
  541THF    H1312053   0.604   4.326   1.708  0.3486 -0.3177  0.0006
  542THF     O112054   2.895   4.864   4.735 -0.1717  0.3440 -0.1545
  542THF     C212055   2.849   4.923   4.861  0.0637  0.2094 -0.3460
  542THF     C312056   2.961   4.972   4.669 -0.2023 -0.6420  0.3548
  542THF     H412057   2.843   4.853   4.944  0.5724 -0.8044 -1.1469
  542THF     H512058   2.755   4.968   4.828 -0.1863  1.1147  1.5063
  542THF     H612059   3.040   4.930   4.607  1.5290  2.4203  0.3032
  542THF     H712060   2.891   5.022   4.603  0.5568 -0.3827 -0.2712
  542THF     C812061   3.019   5.067   4.777 -0.1333  0.4053  0.7066
  542THF     C912062   2.957   5.013   4.901 -0.1542 -0.2757  0.0053
  542THF    H1012063   2.994   5.171   4.756 -0.5491  0.4325  1.3197
  542THF    H1112064   3.127   5.068   4.784 -0.0237 -1.7406  0.2528
  542THF    H1212065   3.037   4.961   4.953 -0.3335  0.7286  1.3545
  542THF    H1312066   2.929   5.087   4.976  0.1851 -1.3236  1.2047
  543THF     O112067   1.074   2.188   2.687 -0.0039 -0.0484  0.3578
  543THF     C212068   0.938   2.204   2.657 -0.5701 -0.6323 -0.2897
  543THF     C312069   1.138   2.133   2.576 -0.3637  0.2030  0.2644
  543THF     H412070   0.888   2.277   2.722 -0.0978  0.8344 -1.5224
  543THF     H512071   0.884   2.110   2.652 -0.4682 -0.6274 -2.9314
  543THF     H612072   1.244   2.156   2.578 -0.5770  1.1311  1.1390
  543THF     H712073   1.131   2.025   2.563 -0.6578  0.4554 -2.3863
  543THF     C812074   1.068   2.186   2.449  0.1062 -0.6791 -0.2002
  543THF     C912075   0.944   2.257   2.515 -1.1813 -0.1493  0.9815
  543THF    H1012076   1.052   2.105   2.378 -0.3054 -2.9656  2.2958
  543THF    H1112077   1.132   2.251   2.390  0.1682  0.0696  0.6729
  543THF    H1212078   0.978   2.360   2.507  0.0252 -0.6292 -0.6789
  543THF    H1312079   0.852   2.249   2.458 -0.7473 -1.1428  0.3841
  544THF     O112080   2.857   3.394   2.606  0.2338 -0.2366  0.1458
  544THF     C212081   2.995   3.422   2.592 -0.4925 -0.7326 -0.3356
  544THF     C312082   2.823   3.273   2.553 -0.2605  0.4741 -0.2919
  544THF     H412083   3.029   3.497   2.663 -0.6022 -0.2271 -0.8116
  544THF     H512084   2.996   3.469   2.493 -0.0085  0.3733  0.1720
  544THF     H612085   2.778   3.227   2.641  0.5730 -1.1971 -0.6992
  544THF     H712086   2.750   3.279   2.473 -2.0675  2.8429  1.3945
  544THF     C812087   2.951   3.194   2.531 -0.3864 -0.7595 -0.0055
  544THF     C912088   3.063   3.280   2.591  0.4663  0.9055  0.1502
  544THF    H1012089   2.964   3.191   2.423 -0.9494 -1.3230 -0.0631
  544THF    H1112090   2.943   3.093   2.572 -2.8759 -0.6792 -0.1335
  544THF    H1212091   3.067   3.245   2.694  0.2603  0.5902  0.0531
  544THF    H1312092   3.159   3.266   2.541 -0.5505 -1.8021 -1.2650
  545THF     O112093   3.643   2.613   2.635 -0.1741 -0.4842 -0.3606
  545THF     C212094   3.719   2.685   2.544 -0.8003 -1.0029 -0.4538
  545THF     C312095   3.529   2.692   2.662  0.3918  0.3470  0.6582
  545THF     H412096   3.800   2.638   2.488  0.2259  1.7398 -1.5013
  545THF     H512097   3.765   2.776   2.584  1.3678 -2.5391  0.7899
  545THF     H612098   3.456   2.614   2.684  2.1835 -1.0360  2.0247
  545THF     H712099   3.552   2.756   2.747 -1.9327 -0.5012  2.0252
  545THF     C812100   3.498   2.754   2.531  0.1267 -0.2024 -0.0701
  545THF     C912101   3.614   2.717   2.443 -0.3039  0.6884 -0.6384
  545THF    H1012102   3.495   2.860   2.553 -1.8742 -0.3853  0.7148
  545THF    H1112103   3.397   2.745   2.492  0.3842  0.8951 -1.0554
  545THF    H1212104   3.574   2.634   2.385  2.8437 -0.6110 -1.1592
  545THF    H1312105   3.635   2.800   2.375 -1.1632  0.4358 -1.2335
  546THF     O112106   4.275   2.033   1.932  0.5442  0.0656 -0.4521
  546THF     C212107   4.409   2.071   1.922 -0.2864 -0.7617 -0.2136
  546THF     C312108   4.271   1.945   2.043 -0.4363  0.8106  0.4933
  546THF     H412109   4.436   2.134   2.007 -0.0445 -0.8067 -0.2566
  546THF     H512110   4.435   2.125   1.831  0.6219  1.2338  1.1521
  546THF     H612111   4.278   1.998   2.138 -0.6796  3.6007 -0.9567
  546THF     H712112   4.182   1.882   2.036  1.2126 -1.5637 -0.7872
  546THF     C812113   4.396   1.856   2.013  1.0537  0.2788 -0.1042
  546THF     C912114   4.486   1.939   1.936  0.2359 -0.0790  0.0140
  546THF    H1012115   4.365   1.773   1.950  1.3458  0.4798 -0.5194
  546THF    H1112116   4.444   1.806   2.098  1.2802 -1.4150 -1.1896
  546THF    H1212117   4.583   1.936   1.987  1.3568  0.2839 -1.9770
  546THF    H1312118   4.495   1.905   1.833 -2.6754  0.6670 -0.5741
  547THF     O112119   4.516   5.124   1.848 -0.3099  0.2279 -0.1145
  547THF     C212120   4.473   5.197   1.736  0.0125 -0.1012  0.0003
  547THF     C312121   4.636   5.179   1.898 -0.1176 -0.4985 -0.1241
  547THF     H412122   4.426   5.282   1.786  0.3182 -0.3568  0.7325
  547THF     H512123   4.399   5.138   1.683  0.8587  0.0330 -1.3832
  547THF     H612124   4.615   5.234   1.990  0.6831 -2.3892  1.2782
  547THF     H712125   4.706   5.098   1.919 -0.5873 -0.9891 -0.4093
  547THF     C812126   4.685   5.284   1.800 -0.1210  0.0512  0.1856
  547THF     C912127   4.606   5.236   1.675  0.6780 -0.3601 -0.2534
  547THF    H1012128   4.790   5.271   1.773 -0.4654  0.3815 -1.3919
  547THF    H1112129   4.649   5.384   1.826 -3.3005 -0.3053 -2.1908
  547THF    H1212130   4.605   5.319   1.604 -0.6718  2.5315  2.8839
  547THF    H1312131   4.647   5.143   1.637  0.3645 -0.3365 -0.6571
  548THF     O112132   2.181   3.561   5.173 -0.0384 -0.3271 -0.5542
  548THF     C212133   2.089   3.500   5.086  0.2041 -0.3002 -0.1368
  548THF     C312134   2.254   3.469   5.258  0.2413 -0.3585 -0.3753
  548THF     H412135   2.060   3.559   4.999 -1.5699  0.5386  0.9561
  548THF     H512136   1.997   3.498   5.144  1.1170  0.9631  1.4218
  548THF     H612137   2.349   3.508   5.293 -0.7482  0.3763  1.7096
  548THF     H712138   2.188   3.449   5.343  1.6063  0.6951  0.9826
  548THF     C812139   2.266   3.358   5.157 -0.0394 -0.3155  0.4202
  548THF     C912140   2.154   3.369   5.050  0.3790 -0.7274 -0.3160
  548THF    H1012141   2.267   3.269   5.219  0.4655 -1.0796 -0.6604
  548THF    H1112142   2.356   3.348   5.096 -0.1546  0.1730  0.1620
  548THF    H1212143   2.204   3.361   4.954  2.1315 -0.1063  0.5119
  548THF    H1312144   2.092   3.278   5.048 -0.8758  0.1055 -1.1361
  549THF     O112145   1.995   1.040   4.876 -0.2681 -0.1808  0.2755
  549THF     C212146   2.035   0.902   4.894 -0.0746  0.4397  0.4723
  549THF     C312147   1.999   1.109   4.998 -0.4319 -0.0235 -0.5526
  549THF     H412148   2.142   0.896   4.874  0.0586 -2.6488  1.5778
  549THF     H512149   1.986   0.828   4.831 -1.0908  0.8567  0.7571
  549THF     H612150   2.073   1.188   4.987  1.4566 -1.3665  1.6750
  549THF     H712151   1.900   1.154   5.010 -0.5360 -0.4505  0.3054
  549THF     C812152   2.034   1.003   5.105 -0.1249 -0.7308  0.3603
  549THF     C912153   2.013   0.870   5.042 -0.6672  0.5004  0.4339
  549THF    H1012154   1.983   1.007   5.201 -0.1350 -1.1471  0.3738
  549THF    H1112155   2.137   1.007   5.139 -0.4520 -0.4712  1.3559
  549THF    H1212156   2.077   0.798   5.094  0.7234 -0.6602 -2.6490
  549THF    H1312157   1.910   0.842   5.065 -0.1988 -1.0055  0.8205
  550THF     O112158   3.473   5.131   1.681 -0.4754  0.0204  0.5639
  550THF     C212159   3.553   5.094   1.569 -0.0420 -0.1856  0.1399
  550THF     C312160   3.515   5.261   1.736  0.0661 -0.6600 -0.1984
  550THF     H412161   3.533   5.161   1.486 -0.1327 -0.3696  0.0155
  550THF     H512162   3.533   4.990   1.546 -1.0105 -0.3022  1.3692
  550THF     H612163   3.483   5.341   1.669 -3.0925  0.6781  2.6294
  550THF     H712164   3.485   5.288   1.837 -0.6952  0.6272 -0.7516
  550THF     C812165   3.665   5.244   1.721  0.7239 -0.4552 -0.6475
  550THF     C912166   3.694   5.128   1.628  0.5378 -0.1401  0.7444
  550THF    H1012167   3.699   5.229   1.824  0.0145  0.3352 -0.2827
  550THF    H1112168   3.704   5.339   1.685  1.0391 -0.9504 -1.6529
  550THF    H1212169   3.767   5.151   1.550 -0.7813  0.5100 -0.3536
  550THF    H1312170   3.730   5.045   1.690  1.2222 -0.3978  0.0269
  551THF     O112171   0.492   3.634   2.487  0.4015 -0.2759 -0.0022
  551THF     C212172   0.600   3.545   2.488 -0.1200  0.3227  0.1271
  551THF     C312173   0.431   3.637   2.617  0.7278  0.2552  0.0220
  551THF     H412174   0.669   3.579   2.410  0.8323  1.0615  1.2510
  551THF     H512175   0.563   3.445   2.466  0.7526  0.2927 -1.3842
  551THF     H612176   0.405   3.740   2.644 -0.5876 -0.3454  1.2218
  551THF     H712177   0.334   3.588   2.627  1.0572 -0.1804  1.2135
  551THF     C812178   0.531   3.574   2.708  0.3425  0.3883  0.1315
  551THF     C912179   0.660   3.554   2.626 -0.0800  0.7966  0.6183
  551THF    H1012180   0.499   3.476   2.742 -0.0332  0.7110  0.7192
  551THF    H1112181   0.541   3.633   2.799 -0.5583 -1.2784  1.3631
  551THF    H1212182   0.707   3.653   2.633  1.4851 -0.0166  2.7009
  551THF    H1312183   0.723   3.467   2.645  0.9083  1.3406 -0.0508
  552THF     O112184   4.186   4.917   1.605 -0.8748  0.1936 -0.2693
  552THF     C212185   4.092   4.957   1.699  0.2903  0.6603  0.6134
  552THF     C312186   4.125   4.867   1.490 -0.2017 -0.0386  0.3051
  552THF     H412187   4.055   5.059   1.690 -2.1279 -0.0053  2.0062
  552THF     H512188   4.136   4.940   1.798 -0.0593  0.7236  0.7807
  552THF     H612189   4.147   4.928   1.402  0.1882 -0.9654 -0.2420
  552THF     H712190   4.157   4.767   1.463 -0.9429  0.1464 -1.4131
  552THF     C812191   3.973   4.854   1.519  0.3724 -0.2445 -0.4934
  552THF     C912192   3.983   4.857   1.667  0.5422  0.2916  0.2984
  552THF    H1012193   3.922   4.762   1.489 -0.7189  0.3121 -0.4326
  552THF    H1112194   3.914   4.943   1.499 -0.7353 -0.4918  1.4161
  552THF    H1212195   3.889   4.894   1.707  1.8745  3.0622  1.0880
  552THF    H1312196   4.002   4.753   1.695 -0.1711  0.4088  1.3057
  553THF     O112197   2.612   2.798   4.005 -0.0071 -0.2983 -0.5519
  553THF     C212198   2.653   2.908   4.082 -0.7020  0.1785  0.2455
  553THF     C312199   2.614   2.688   4.098  0.0030 -0.5177  0.2953
  553THF     H412200   2.633   3.002   4.030 -0.1301  0.3715  0.3666
  553THF     H512201   2.761   2.899   4.092 -0.9074 -2.5452  0.6991
  553THF     H612202   2.569   2.598   4.057  1.8888 -0.5282 -1.9600
  553THF     H712203   2.717   2.662   4.121 -0.0027  1.1303  2.5375
  553THF     C812204   2.545   2.743   4.220 -0.3532 -0.3113 -0.8561
  553THF     C912205   2.588   2.887   4.219 -0.0066 -0.1505 -0.1974
  553THF    H1012206   2.585   2.697   4.311  2.5468 -0.7926 -2.2445
  553THF    H1112207   2.437   2.731   4.226 -0.2973 -0.1289  1.4457
  553THF    H1212208   2.496   2.945   4.232  0.5805  0.3706  2.1202
  553THF    H1312209   2.651   2.924   4.300  1.3914  1.5353 -1.9626
  554THF     O112210   5.149   1.322   4.382  0.0975 -0.1652  0.0699
  554THF     C212211   5.100   1.405   4.283  0.0159 -0.4722  0.2817
  554THF     C312212   5.281   1.299   4.342  0.2436  0.6486  0.0150
  554THF     H412213   5.155   1.498   4.296 -0.7134 -0.0116  0.1764
  554THF     H512214   4.992   1.421   4.290  0.1923  0.5886  0.8226
  554THF     H612215   5.338   1.386   4.373 -0.3584  1.0134  0.1073
  554THF     H712216   5.321   1.211   4.392 -1.3028  0.0040  0.1727
  554THF     C812217   5.281   1.289   4.195  0.0279  0.7566  0.6534
  554THF     C912218   5.143   1.336   4.153 -0.7234 -0.1331  0.0659
  554THF    H1012219   5.306   1.188   4.164 -2.1699  0.7003 -1.1781
  554THF    H1112220   5.353   1.353   4.144  0.9567  0.5595  1.6851
  554THF    H1212221   5.146   1.411   4.073  0.1609 -1.4727 -1.2133
  554THF    H1312222   5.075   1.252   4.143  0.8723 -1.5022  0.1893
  555THF     O112223   4.909   1.513   2.764 -0.1687  0.1054  0.0307
  555THF     C212224   4.888   1.657   2.768  0.0585  0.7527  0.1234
  555THF     C312225   4.877   1.449   2.882  0.1157  0.2753 -0.3163
  555THF     H412226   4.788   1.683   2.732  0.2222  1.4036  0.1333
  555THF     H512227   4.952   1.695   2.689  1.3477 -2.2116 -0.3891
  555THF     H612228   4.769   1.439   2.895  0.3672 -0.4257  1.5812
  555THF     H712229   4.919   1.349   2.894 -0.4739 -0.0641 -0.9931
  555THF     C812230   4.943   1.538   2.982 -0.9200  0.6366  0.3722
  555THF     C912231   4.913   1.673   2.923 -0.2158  0.3969 -0.1251
  555THF    H1012232   5.049   1.523   2.998 -1.1777 -1.3046  0.5025
  555THF    H1112233   4.895   1.527   3.079  1.2955  1.7265  1.6551
  555THF    H1212234   4.821   1.702   2.973 -0.6949 -0.3520 -0.5564
  555THF    H1312235   4.981   1.756   2.944 -1.1826  0.6954  2.0581
  556THF     O112236   0.146   2.781   3.097 -0.2749 -0.0007 -0.3800
  556THF     C212237   0.137   2.919   3.094 -0.4150 -0.1491 -0.1177
  556THF     C312238   0.267   2.727   3.165  0.0842  0.1737  0.5878
  556THF     H412239   0.031   2.941   3.101  0.2969  3.6446  1.2845
  556THF     H512240   0.184   2.964   3.006  1.1730  1.6400  1.5210
  556THF     H612241   0.259   2.637   3.227  1.4427 -0.6853 -0.4222
  556THF     H712242   0.336   2.703   3.083 -1.0752  0.6402 -0.5569
  556THF     C812243   0.318   2.849   3.243  0.5265  0.0494  0.4115
  556THF     C912244   0.213   2.960   3.219 -0.7783  0.3346 -0.1340
  556THF    H1012245   0.421   2.872   3.215  0.2510 -1.4150 -2.1894
  556THF    H1112246   0.307   2.832   3.350 -2.3639  0.9892  0.3606
  556THF    H1212247   0.145   2.978   3.303 -0.1900 -0.3095  0.4961
  556THF    H1312248   0.263   3.057   3.222 -0.6815  0.2706  0.7158
  557THF     O112249   5.368   4.380   0.105 -0.2262  0.2663  0.3384
  557THF     C212250   5.337   4.417   0.238 -1.0859 -0.1032  0.1996
  557THF     C312251   5.302   4.261   0.078 -0.0320 -0.2148 -0.1409
  557THF     H412252   5.240   4.466   0.245 -1.8715 -1.7867  1.8335
  557THF     H512253   5.409   4.477   0.295  0.1222 -0.7873 -0.5673
  557THF     H612254   5.196   4.270   0.055 -0.1800  1.0326  0.8997
  557THF     H712255   5.340   4.210  -0.010 -1.5306 -0.2455 -0.7989
  557THF     C812256   5.310   4.177   0.203  0.0589 -0.3781  0.3049
  557THF     C912257   5.317   4.276   0.312  0.0333  0.0907  0.1830
  557THF    H1012258   5.395   4.109   0.195 -0.7812 -1.3725 -0.5000
  557THF    H1112259   5.222   4.113   0.204 -0.7175  0.5510 -1.7684
  557THF    H1212260   5.221   4.280   0.363  0.4608  1.7033  0.9326
  557THF    H1312261   5.395   4.253   0.385  0.9981  3.2436  0.3020
  558THF     O112262   3.302   3.744   1.543  0.1444  0.4786 -0.4955
  558THF     C212263   3.268   3.870   1.598 -0.1904  0.4619 -0.4576
  558THF     C312264   3.266   3.644   1.637 -0.4068 -0.1017  0.4614
  558THF     H412265   3.162   3.883   1.577 -0.7761 -3.6433 -0.7985
  558THF     H512266   3.314   3.951   1.541 -2.8516 -0.2413 -3.9081
  558THF     H612267   3.159   3.621   1.638  0.1328 -3.0220  1.6597
  558THF     H712268   3.331   3.558   1.627  1.3542  1.3994 -1.9883
  558THF     C812269   3.278   3.714   1.770 -0.3027  0.0437 -0.3997
  558THF     C912270   3.313   3.859   1.744  0.5986 -1.2372 -0.3065
  558THF    H1012271   3.365   3.669   1.818 -1.2256  0.3604  1.6701
  558THF    H1112272   3.188   3.712   1.831 -0.4370  1.0127 -0.5538
  558THF    H1212273   3.257   3.923   1.813 -0.6308 -3.9951  1.4307
  558THF    H1312274   3.416   3.890   1.764 -0.1229  1.4996 -0.3227
  559THF     O112275   2.000   0.257   4.078 -0.0364 -0.5335  0.2040
  559THF     C212276   2.079   0.234   4.189  0.5308  0.3413 -0.6722
  559THF     C312277   2.074   0.361   4.014  0.5463  0.2354  0.3135
  559THF     H412278   2.066   0.136   4.235 -1.3140  1.6531  1.8215
  559THF     H512279   2.069   0.310   4.266  0.8716 -0.9946  0.7412
  559THF     H612280   2.028   0.369   3.915  2.5653  1.3686 -0.5976
  559THF     H712281   2.077   0.454   4.071  0.6230  0.0850  0.5532
  559THF     C812282   2.214   0.303   4.003  0.0362 -0.5638  0.7940
  559THF     C912283   2.221   0.218   4.130  0.2606 -0.0512  0.1577
  559THF    H1012284   2.287   0.385   4.005 -0.5276  0.0450 -1.3925
  559THF    H1112285   2.220   0.246   3.911 -1.0829  0.9696 -0.2719
  559THF    H1212286   2.248   0.115   4.106  1.4342  0.1618  0.5076
  559THF    H1312287   2.302   0.249   4.196  1.2331 -1.3504 -0.3708
  560THF     O112288   3.001   5.093   0.021  0.4750 -0.5273 -0.2347
  560THF     C212289   3.077   5.055   0.127 -0.2417 -0.5307  0.0138
  560THF     C312290   3.001   5.232  -0.001  0.2644  0.0495 -0.0489
  560THF     H412291   3.160   4.994   0.090  0.7868  0.5876  0.4040
  560THF     H512292   3.017   5.017   0.209  1.4074  0.8331  1.9258
  560THF     H612293   2.989   5.252  -0.107 -0.8899  3.5686  0.6219
  560THF     H712294   2.919   5.271   0.060 -1.0707  1.1030 -2.3554
  560THF     C812295   3.136   5.272   0.054  0.0662 -0.2782  0.0188
  560THF     C912296   3.137   5.190   0.176  0.2430  0.2257  0.5747
  560THF    H1012297   3.131   5.378   0.077 -0.1128 -0.5006  1.0535
  560THF    H1112298   3.227   5.259  -0.004 -1.0929 -0.1323 -1.9097
  560THF    H1212299   3.238   5.189   0.218  0.8082  0.7191 -0.7452
  560THF    H1312300   3.068   5.229   0.251 -0.2311 -3.2245  2.1309
  561THF     O112301   4.663   0.650   0.604  0.6618 -0.2617 -0.6288
  561THF     C212302   4.551   0.599   0.537  0.2544  0.6338  0.4221
  561THF     C312303   4.648   0.793   0.620 -0.3288  0.1684 -0.6973
  561THF     H412304   4.478   0.569   0.612 -1.6736 -0.2963 -1.6940
  561THF     H512305   4.570   0.509   0.477  1.9744  1.2224  0.0342
  561THF     H612306   4.584   0.808   0.707 -0.3243 -0.2086 -0.6264
  561THF     H712307   4.734   0.854   0.649 -1.3557  0.1900  2.8119
  561THF     C812308   4.581   0.832   0.491 -0.2546  0.1912  0.4679
  561THF     C912309   4.498   0.710   0.450 -0.1842  0.1358  0.4004
  561THF    H1012310   4.655   0.833   0.412 -0.4160  0.2657  0.3168
  561THF    H1112311   4.520   0.922   0.501 -2.0971 -1.1950  2.8512
  561THF    H1212312   4.395   0.729   0.480  0.1826  1.1757  1.0594
  561THF    H1312313   4.496   0.693   0.343 -1.9170 -1.3367  0.6144
  562THF     O112314   2.923   1.227   0.773  0.5953  0.0763 -0.4949
  562THF     C212315   2.782   1.251   0.754  0.5485 -0.0201 -0.1023
  562THF     C312316   2.969   1.133   0.667 -0.1462 -0.6168 -0.6975
  562THF     H412317   2.754   1.341   0.808 -3.4894 -0.5885 -0.9350
  562THF     H512318   2.715   1.172   0.788 -0.4388 -0.1602 -2.2166
  562THF     H612319   3.072   1.151   0.638 -0.1425  0.2040 -0.2026
  562THF     H712320   2.975   1.028   0.694  2.7485  0.4538  3.9399
  562THF     C812321   2.871   1.156   0.544  0.6430  0.5847 -0.2607
  562THF     C912322   2.764   1.258   0.601 -0.3554  0.3500 -0.5155
  562THF    H1012323   2.825   1.067   0.500 -0.3159  0.6482  0.5811
  562THF    H1112324   2.934   1.198   0.466  0.6404 -1.3189 -1.3456
  562THF    H1212325   2.788   1.353   0.554 -0.5276  0.0953 -1.1326
  562THF    H1312326   2.662   1.233   0.569 -0.9277  0.6212  1.0351
  563THF     O112327   2.973   2.330   5.295 -0.0186 -0.1502 -0.2731
  563THF     C212328   2.910   2.438   5.358 -0.2916  0.0424 -0.3385
  563THF     C312329   3.033   2.242   5.390  0.5866  0.2862 -0.0623
  563THF     H412330   2.817   2.407   5.405  0.4541 -0.7703  0.6509
  563THF     H512331   2.890   2.517   5.286 -0.0622 -0.8382 -1.4126
  563THF     H612332   2.974   2.151   5.402  1.5245 -0.2881  0.2957
  563THF     H712333   3.122   2.193   5.350  0.7036  0.5440 -0.1234
  563THF     C812334   3.050   2.326   5.519  0.5052  0.0607  0.4490
  563THF     C912335   3.004   2.465   5.468  0.2419 -1.2483  0.0205
  563THF    H1012336   3.152   2.326   5.557  0.5994  1.4711  0.2407
  563THF    H1112337   2.975   2.303   5.595  0.7389  1.5178  1.1628
  563THF    H1212338   2.968   2.538   5.540  1.8126 -1.3830  0.9684
  563THF    H1312339   3.091   2.521   5.433 -0.7927 -0.8036 -1.9949
  564THF     O112340   1.123   0.529   4.286 -0.4109  0.0238  0.2295
  564THF     C212341   1.195   0.566   4.406 -0.8539  0.2879  0.3689
  564THF     C312342   0.989   0.508   4.332  0.0195  0.2693 -0.3152
  564THF     H412343   1.292   0.614   4.392 -0.7576 -0.2623 -1.0613
  564THF     H512344   1.216   0.471   4.455  0.3201  1.4191  2.1937
  564THF     H612345   0.923   0.508   4.246 -0.1759  1.2119 -0.1670
  564THF     H712346   0.990   0.403   4.361  0.0939  0.0191 -1.1829
  564THF     C812347   0.961   0.600   4.452 -0.3918  0.6533  0.5041
  564THF     C912348   1.098   0.652   4.484 -0.1910 -0.6293 -0.6202
  564THF    H1012349   0.920   0.533   4.528 -2.5766 -0.8891 -1.8728
  564THF    H1112350   0.887   0.678   4.436  0.6593  1.8651  1.3529
  564THF    H1212351   1.112   0.755   4.453 -0.2203 -0.3102  0.3971
  564THF    H1312352   1.123   0.628   4.588  0.5061 -0.9217 -0.8548
  565THF     O112353   1.759   3.340   2.172  0.0449 -0.7861  0.5886
  565THF     C212354   1.778   3.417   2.049  0.1737 -0.9087 -0.0284
  565THF     C312355   1.866   3.349   2.255 -0.0854  0.0595 -0.1523
  565THF     H412356   1.691   3.471   2.012  0.0222 -1.3129 -0.2654
  565THF     H512357   1.802   3.355   1.963  0.2837 -0.2683 -0.4641
  565THF     H612358   1.834   3.333   2.358  0.2973  0.5598  0.0497
  565THF     H712359   1.935   3.271   2.223 -0.2037 -1.2621  2.4879
  565THF     C812360   1.939   3.482   2.221 -0.1434  0.1436 -0.4951
  565THF     C912361   1.907   3.511   2.076 -0.1600  0.2415  0.4658
  565THF    H1012362   2.047   3.474   2.235 -0.2737  0.4042  0.7888
  565THF    H1112363   1.894   3.547   2.296  0.1110 -1.2944  0.9440
  565THF    H1212364   1.894   3.616   2.050  1.5769  0.1195 -1.1226
  565THF    H1312365   1.987   3.481   2.009  0.2577  0.4182  0.8847
  566THF     O112366   4.928   1.077   3.044 -0.1498 -0.4491 -0.8901
  566THF     C212367   5.069   1.104   3.012 -0.4631 -0.1861 -0.3746
  566THF     C312368   4.895   0.945   3.049 -0.0265 -0.4941 -0.1486
  566THF     H412369   5.113   1.145   3.103 -3.2201  2.2189  0.0141
  566THF     H512370   5.082   1.170   2.927  0.6895  1.5313  1.0508
  566THF     H612371   4.928   0.899   3.142 -1.4182 -1.2561 -0.0054
  566THF     H712372   4.789   0.922   3.039 -0.3385  0.3496  1.0581
  566THF     C812373   4.982   0.894   2.935 -0.0193 -0.5697  0.5747
  566THF     C912374   5.119   0.957   2.966 -0.0747 -0.5452 -0.7805
  566THF    H1012375   4.949   0.928   2.837 -0.6225 -0.5672  0.7770
  566THF    H1112376   4.985   0.786   2.948 -2.9992 -0.6565  1.1447
  566THF    H1212377   5.169   0.914   3.054 -1.0459  0.4797  0.3095
  566THF    H1312378   5.201   0.961   2.894 -0.3854  0.2132 -1.0943
  567THF     O112379   2.300   4.669   1.920  0.0406  0.1773 -0.7271
  567THF     C212380   2.395   4.648   1.819  0.3434 -0.1690 -0.3333
  567THF     C312381   2.167   4.642   1.871  0.0508 -0.2658  0.2444
  567THF     H412382   2.445   4.553   1.805  1.2238  0.4122 -1.3360
  567THF     H512383   2.475   4.717   1.844  0.7046 -0.8027  0.2717
  567THF     H612384   2.157   4.535   1.856  1.3974 -0.5632  1.2638
  567THF     H712385   2.081   4.685   1.924 -0.4958  0.7189 -1.3735
  567THF     C812386   2.171   4.705   1.735 -0.0595  0.5309  0.5304
  567THF     C912387   2.320   4.691   1.693  0.1435 -0.0763  0.6012
  567THF    H1012388   2.157   4.812   1.750 -0.4395  0.4649  0.6551
  567THF    H1112389   2.100   4.657   1.668  1.1543 -1.8963  0.8626
  567THF    H1212390   2.325   4.613   1.617 -0.8313 -0.2524  0.6994
  567THF    H1312391   2.356   4.783   1.648 -1.1492 -0.5288 -1.5077
  568THF     O112392   2.407   1.500   0.984  0.6184 -0.2235  0.4356
  568THF     C212393   2.447   1.501   0.849  0.6595  0.2522 -0.0943
  568THF     C312394   2.279   1.552   0.996 -0.0437  0.3017  0.5141
  568THF     H412395   2.408   1.409   0.806  0.8518  0.8083 -1.5199
  568THF     H512396   2.556   1.507   0.840  0.6172 -0.0750 -0.8877
  568THF     H612397   2.206   1.476   1.022 -0.0564 -0.2100 -0.9471
  568THF     H712398   2.295   1.621   1.079  1.8637  1.4895 -0.7513
  568THF     C812399   2.252   1.638   0.868  0.5276  0.1799 -0.1290
  568THF     C912400   2.376   1.627   0.785  0.2019  0.6359 -0.2044
  568THF    H1012401   2.225   1.742   0.889 -1.2094 -0.1127 -0.7430
  568THF    H1112402   2.170   1.586   0.819 -2.6956  1.4912  3.3129
  568THF    H1212403   2.353   1.607   0.680 -1.2180  0.1738  0.1746
  568THF    H1312404   2.440   1.714   0.801  0.6320  0.3068 -0.0971
  569THF     O112405   1.267   4.720   4.290  0.1478  0.2123  0.3822
  569THF     C212406   1.415   4.723   4.298  0.6568 -0.5107  0.9035
  569THF     C312407   1.232   4.587   4.249  0.0348  0.3098 -0.1344
  569THF     H412408   1.460   4.802   4.357  0.0575  0.3762  0.2076
  569THF     H512409   1.463   4.721   4.200 -0.2136  1.5714  0.3817
  569THF     H612410   1.134   4.546   4.274  0.1619 -0.7111 -1.2353
  569THF     H712411   1.220   4.602   4.141 -1.3625 -1.2668 -0.2460
  569THF     C812412   1.350   4.494   4.290 -0.0478 -0.1536  0.3604
  569THF     C912413   1.441   4.584   4.361 -0.0348 -0.5378 -0.4662
  569THF    H1012414   1.402   4.456   4.202  0.5963  2.0362 -0.2720
  569THF    H1112415   1.319   4.414   4.357 -0.2413 -0.8816 -0.5953
  569THF    H1212416   1.422   4.580   4.469  1.7504 -1.2038 -0.1484
  569THF    H1312417   1.549   4.572   4.359  0.1126 -0.1814  1.8446
  570THF     O112418   3.654   3.710   3.935  0.4098  0.5080  0.0744
  570THF     C212419   3.681   3.805   4.035  0.1796  0.1387 -0.0234
  570THF     C312420   3.617   3.782   3.815  0.0504  0.2511 -0.3847
  570THF     H412421   3.781   3.779   4.068 -0.1451 -0.1836  0.7188
  570THF     H512422   3.609   3.790   4.116 -2.3709  2.6672 -1.6096
  570THF     H612423   3.636   3.706   3.740 -3.1925 -0.7315 -0.3528
  570THF     H712424   3.510   3.797   3.816 -0.1800 -1.1873  0.6269
  570THF     C812425   3.704   3.905   3.820 -0.4894 -0.0242  0.1817
  570THF     C912426   3.690   3.937   3.972  0.3751 -0.0905 -0.0387
  570THF    H1012427   3.663   3.986   3.759 -0.7611 -0.7194 -0.5763
  570THF    H1112428   3.809   3.886   3.797 -0.3925 -0.8858  1.2451
  570THF    H1212429   3.782   3.986   4.005  0.0567 -0.3737  1.3399
  570THF    H1312430   3.595   3.989   3.990  0.1741  0.8924 -3.2856
  571THF     O112431   2.139   3.144   3.009  0.2156  0.4455  0.1192
  571THF     C212432   2.132   3.246   2.916 -0.6666  0.4788 -0.0772
  571THF     C312433   2.120   3.198   3.139  0.3623 -0.5871  0.3918
  571THF     H412434   2.034   3.247   2.870 -0.7604  1.6485  0.1273
  571THF     H512435   2.202   3.224   2.836  0.7897 -3.0230  1.8973
  571THF     H612436   2.041   3.146   3.193 -0.5739 -1.9943 -2.1581
  571THF     H712437   2.207   3.194   3.204  0.1741  2.3636  0.9468
  571THF     C812438   2.068   3.340   3.124  0.7142  0.1094  0.3388
  571THF     C912439   2.145   3.376   2.997 -0.6448  0.0224  0.1232
  571THF    H1012440   2.097   3.407   3.205 -0.3737 -0.7073  1.4490
  571THF    H1112441   1.962   3.356   3.108  0.8826  1.8351  0.7581
  571THF    H1212442   2.093   3.462   2.953 -0.8948 -0.0650  0.2463
  571THF    H1312443   2.250   3.396   3.018 -0.1973 -2.2835  0.3574
  572THF     O112444   2.477   4.123   0.824  0.6408 -0.6033  0.2301
  572THF     C212445   2.351   4.188   0.865 -0.5723 -0.6023 -0.6983
  572THF     C312446   2.460   4.050   0.707 -0.2209  0.3347  0.1350
  572THF     H412447   2.360   4.280   0.921 -1.6499 -0.6656 -0.3889
  572THF     H512448   2.289   4.122   0.926 -0.4011  0.3654  0.5465
  572THF     H612449   2.536   4.073   0.632 -0.0650  1.1177  0.5199
  572THF     H712450   2.474   3.943   0.718  1.2124  0.2961 -1.6390
  572THF     C812451   2.324   4.079   0.656 -0.1331 -0.1175 -0.5765
  572THF     C912452   2.278   4.203   0.735  0.0323 -0.5131  0.5138
  572THF    H1012453   2.255   4.000   0.684 -1.0752  1.0594  0.5863
  572THF    H1112454   2.320   4.086   0.547 -0.2199  1.1405 -0.5106
  572THF    H1212455   2.318   4.291   0.684  0.6704 -0.7627  0.5763
  572THF    H1312456   2.169   4.207   0.736 -0.0509 -2.0878  0.3214
  573THF     O112457   2.689   5.362   1.607 -0.1744  0.6528  0.2916
  573THF     C212458   2.821   5.371   1.646  0.0798  0.1250 -0.0307
  573THF     C312459   2.649   5.222   1.593  0.2321  0.0893 -0.0759
  573THF     H412460   2.834   5.450   1.721  0.1641  0.2899 -0.2161
  573THF     H512461   2.878   5.385   1.554  1.4493 -0.5033  0.6864
  573THF     H612462   2.573   5.196   1.667 -1.0989  0.0633 -1.4220
  573THF     H712463   2.612   5.210   1.492 -1.0950 -0.6654  0.4764
  573THF     C812464   2.777   5.147   1.617  0.3929  0.6927  0.1989
  573THF     C912465   2.856   5.237   1.716  0.5951 -0.3156 -0.1258
  573THF    H1012466   2.840   5.135   1.529  0.5617 -0.1863  0.4316
  573THF    H1112467   2.764   5.046   1.655  0.7619  0.7276  0.4322
  573THF    H1212468   2.815   5.225   1.817  2.5479 -0.3432  0.6967
  573THF    H1312469   2.963   5.223   1.725  1.1533  3.2074 -0.0723
  574THF     O112470   1.797   4.068   3.511 -1.2774  0.0700 -0.5652
  574THF     C212471   1.916   4.043   3.583  0.8474 -0.7385  0.4404
  574THF     C312472   1.844   4.094   3.384 -0.2608 -0.5716 -0.1277
  574THF     H412473   1.894   3.974   3.665  0.9681 -0.6801  0.5236
  574THF     H512474   1.962   4.138   3.611  0.4913 -0.7390  1.0443
  574THF     H612475   1.763   4.080   3.313  0.1190  0.8681 -0.8896
  574THF     H712476   1.890   4.190   3.362 -0.8978 -0.3907 -0.7017
  574THF     C812477   1.939   3.979   3.356 -0.1793 -0.8239  0.2528
  574THF     C912478   2.016   3.977   3.486  0.4971 -0.2827 -0.5889
  574THF    H1012479   2.009   3.999   3.275  0.1029  1.7400  1.0445
  574THF    H1112480   1.886   3.885   3.344 -0.8426 -0.4236 -0.0072
  574THF    H1212481   2.039   3.872   3.503  0.5820 -0.0146  1.2033
  574THF    H1312482   2.110   4.033   3.481 -0.5363  1.6024  0.0997
  575THF     O112483   3.485   1.061   3.291 -0.2115 -0.5612  0.0365
  575THF     C212484   3.526   1.057   3.425  0.1564 -0.9661 -0.1320
  575THF     C312485   3.435   0.935   3.258 -0.4615  0.2138  0.0401
  575THF     H412486   3.551   1.154   3.468 -0.0467 -0.4702 -1.1164
  575THF     H512487   3.615   0.995   3.432 -1.1617 -3.0690 -1.1426
  575THF     H612488   3.364   0.937   3.176 -0.4926  1.5813  0.0871
  575THF     H712489   3.511   0.857   3.249 -0.9705 -0.6722  2.5467
  575THF     C812490   3.359   0.894   3.387 -0.1249 -0.2562 -0.0995
  575THF     C912491   3.410   0.984   3.501  0.6450  0.8451  0.2837
  575THF    H1012492   3.385   0.789   3.407  2.6664  0.4477  0.4402
  575THF    H1112493   3.251   0.896   3.381 -0.3756  0.2678  3.0630
  575THF    H1212494   3.332   1.046   3.545 -0.2862 -1.5799  2.3374
  575THF    H1312495   3.441   0.918   3.582 -1.2993 -0.7477 -0.2007
  576THF     O112496   2.791   2.576   0.576  0.6874 -0.4237 -0.2482
  576THF     C212497   2.903   2.579   0.497  0.1025 -0.2293  0.4723
  576THF     C312498   2.763   2.445   0.604  0.2040  0.1418  0.6619
  576THF     H412499   2.989   2.569   0.564 -0.6318 -1.0321  1.3251
  576THF     H512500   2.907   2.673   0.442 -4.8794 -0.1148 -0.0686
  576THF     H612501   2.838   2.407   0.674  2.5539 -1.8354 -2.6137
  576THF     H712502   2.659   2.424   0.626 -0.3036 -3.2904 -3.6157
  576THF     C812503   2.790   2.374   0.473  0.9124 -0.2890 -0.1676
  576THF     C912504   2.884   2.465   0.403 -0.3122 -0.1351 -0.8062
  576THF    H1012505   2.696   2.376   0.418 -0.5504 -0.2064  2.2203
  576THF    H1112506   2.825   2.271   0.477 -0.8135 -0.9998 -1.7197
  576THF    H1212507   2.980   2.423   0.372  0.5983  2.1083 -1.1795
  576THF    H1312508   2.846   2.508   0.310  0.0736  2.5082  0.1884
  577THF     O112509   2.529   3.276   2.190  0.4789 -0.2078 -0.0706
  577THF     C212510   2.446   3.180   2.243 -0.2330  0.4495 -0.2813
  577THF     C312511   2.459   3.359   2.098  0.3583  0.2060  0.1533
  577THF     H412512   2.487   3.177   2.344 -0.3710  2.0361 -0.1618
  577THF     H512513   2.459   3.088   2.186 -0.7363 -0.0917  0.4530
  577THF     H612514   2.485   3.465   2.101 -1.0407  0.5691  3.0642
  577THF     H712515   2.487   3.338   1.995  0.8874  0.8944  0.1530
  577THF     C812516   2.307   3.339   2.127 -0.2176 -0.4571 -0.1287
  577THF     C912517   2.306   3.241   2.240  0.4935 -0.1433  0.2028
  577THF    H1012518   2.257   3.311   2.034  1.2817 -0.5174 -0.9381
  577THF    H1112519   2.262   3.434   2.156  0.7003 -0.1095  0.1829
  577THF    H1212520   2.276   3.281   2.337 -2.8377 -1.6230 -0.0768
  577THF    H1312521   2.222   3.172   2.232 -1.3619  2.0353 -0.4651
  578THF     O112522   0.171   0.300   0.289 -0.2375 -0.0085  0.1214
  578THF     C212523   0.279   0.355   0.372 -0.1035 -0.2436 -0.3324
  578THF     C312524   0.060   0.310   0.375 -0.1759 -0.4108 -0.0674
  578THF     H412525   0.285   0.463   0.359 -0.6326 -0.2226 -0.4130
  578THF     H512526   0.372   0.311   0.336 -0.0444 -1.1986  0.9311
  578THF     H612527   0.013   0.408   0.362 -3.0858 -1.7020  0.0581
  578THF     H712528  -0.012   0.235   0.342 -0.0648  0.2496 -1.9303
  578THF     C812529   0.098   0.269   0.512 -0.2875 -0.1466  0.2884
  578THF     C912530   0.241   0.324   0.522  1.0785 -0.1045 -0.2447
  578THF    H1012531   0.097   0.161   0.508  0.3775 -0.2186  1.5215
  578THF    H1112532   0.023   0.306   0.583 -1.1894 -0.4861 -0.4679
  578THF    H1212533   0.248   0.407   0.592  2.2229  0.9408 -1.5279
  578THF    H1312534   0.301   0.243   0.562  1.5738 -0.0859 -0.9343
  579THF     O112535   2.057   2.252   0.915  0.0855 -0.1865 -0.4099
  579THF     C212536   2.124   2.157   0.840 -0.1427 -0.5053  0.3216
  579THF     C312537   2.139   2.271   1.032 -0.2902  0.1202 -0.4529
  579THF     H412538   2.216   2.200   0.800  0.1253 -1.0892  0.3031
  579THF     H512539   2.056   2.109   0.769 -2.6035  1.0320  1.4951
  579THF     H612540   2.231   2.325   1.008 -0.2412 -0.6839 -2.2507
  579THF     H712541   2.085   2.330   1.106  2.1687  3.2654 -0.9120
  579THF     C812542   2.171   2.129   1.071  0.5191  0.2070  0.0371
  579THF     C912543   2.166   2.051   0.940  0.1703 -0.5696  0.0991
  579THF    H1012544   2.095   2.089   1.138 -0.9155 -0.0165 -1.6533
  579THF    H1112545   2.266   2.108   1.121  1.0336 -0.6321 -1.2396
  579THF    H1212546   2.261   2.008   0.907  0.9763  0.7929  0.5556
  579THF    H1312547   2.086   1.977   0.942 -2.1804  1.8360  2.5112
  580THF     O112548   0.044   1.135   4.262 -0.4817  0.1609  0.4806
  580THF     C212549   0.132   1.156   4.379  0.4069 -0.5505  1.0262
  580THF     C312550   0.078   0.997   4.233 -0.1517  0.5307  0.2090
  580THF     H412551   0.093   1.116   4.472 -0.6068  1.1437  1.3667
  580THF     H512552   0.141   1.264   4.386 -2.4430 -0.3157  2.1208
  580THF     H612553   0.001   0.923   4.255  1.3204 -1.6829 -1.6172
  580THF     H712554   0.075   0.984   4.124  3.1617  1.0552 -0.0476
  580THF     C812555   0.209   0.954   4.301  0.1958  0.1759  0.1595
  580THF     C912556   0.266   1.093   4.329 -0.1646  0.1313  0.5116
  580THF    H1012557   0.276   0.898   4.237  1.6385  0.6866  1.1897
  580THF    H1112558   0.181   0.900   4.392 -1.0377 -2.5318 -1.6724
  580THF    H1212559   0.343   1.091   4.406 -1.1487  2.2062  1.6165
  580THF    H1312560   0.296   1.148   4.240 -0.8796  0.7378  0.6396
  581THF     O112561   3.771   0.101   0.574  0.6740  1.3264 -0.4664
  581THF     C212562   3.670   0.183   0.520  0.2698  0.7237 -0.1957
  581THF     C312563   3.726  -0.033   0.554 -0.7932 -0.2313  0.2994
  581THF     H412564   3.686   0.201   0.414  0.6331  0.0516 -0.2588
  581THF     H512565   3.686   0.282   0.564  0.3564  0.9606 -0.7573
  581THF     H612566   3.769  -0.073   0.462 -2.8289  0.0577 -0.8445
  581THF     H712567   3.742  -0.106   0.633  0.9665  0.1388  0.3462
  581THF     C812568   3.575  -0.022   0.524  0.2975 -0.1662  0.3299
  581THF     C912569   3.538   0.127   0.545 -0.1748  0.2369  0.5876
  581THF    H1012570   3.517  -0.083   0.592  0.3515 -1.9638 -1.1474
  581THF    H1112571   3.544  -0.055   0.424  1.7359 -1.4579  0.2656
  581THF    H1212572   3.454   0.155   0.482  0.8039 -0.2276 -0.9534
  581THF    H1312573   3.516   0.132   0.652 -0.6353 -1.6315  0.6164
  582THF     O112574   0.327   4.977   0.962 -0.4612 -0.3287  0.3661
  582THF     C212575   0.248   4.879   0.886  0.0092 -0.8346 -0.0221
  582THF     C312576   0.334   4.928   1.095  0.2927  0.4523  0.6971
  582THF     H412577   0.285   4.876   0.784  2.1598  0.2465  0.6472
  582THF     H512578   0.146   4.917   0.887  0.2418 -0.1921 -0.2287
  582THF     H612579   0.422   4.973   1.140  0.1430  1.0820  0.3789
  582THF     H712580   0.240   4.946   1.148 -0.9414 -1.1489 -0.8089
  582THF     C812581   0.360   4.780   1.074 -0.1353  0.7619  0.7059
  582THF     C912582   0.258   4.751   0.964 -0.5919  0.8049 -0.3480
  582THF    H1012583   0.353   4.715   1.161 -0.1804  0.8066  0.7359
  582THF    H1112584   0.462   4.756   1.044 -0.8966 -1.8210 -0.1163
  582THF    H1212585   0.277   4.669   0.895  0.9189 -1.0844  2.1353
  582THF    H1312586   0.168   4.729   1.021  0.2899  1.8669  1.5620
  583THF     O112587   3.942   2.870   3.996  0.0397 -0.1584 -0.7580
  583THF     C212588   3.914   2.996   4.056 -0.3544 -0.1512 -0.3449
  583THF     C312589   3.893   2.874   3.864  0.3608 -0.2415  0.1738
  583THF     H412590   3.992   3.070   4.037 -0.9790  0.4794 -0.5007
  583THF     H512591   3.903   2.992   4.164  2.1631  3.2674  0.2223
  583THF     H612592   3.956   2.935   3.799 -0.4177  1.5725  1.0560
  583THF     H712593   3.896   2.774   3.819  2.6005 -0.1063 -0.0911
  583THF     C812594   3.760   2.948   3.879 -0.6401  0.1980  0.6450
  583THF     C912595   3.774   3.034   4.002  0.0470  0.1327 -0.2674
  583THF    H1012596   3.672   2.886   3.895 -0.5151  0.1950  1.3919
  583THF    H1112597   3.738   3.005   3.789 -0.1176  1.6054  1.3649
  583THF    H1212598   3.753   3.139   3.981 -2.3729 -0.5791 -1.8123
  583THF    H1312599   3.689   3.010   4.066  1.3941 -1.3659  1.0382
  584THF     O112600   3.572   0.118   4.980 -0.0024 -0.1751 -0.1541
  584THF     C212601   3.648   0.227   4.934  0.8460  0.3595 -0.1122
  584THF     C312602   3.632  -0.008   4.944  0.1522 -0.6855 -0.2275
  584THF     H412603   3.717   0.248   5.016 -0.3199 -0.3176  1.1007
  584THF     H512604   3.592   0.315   4.903 -0.7949  0.4195  2.6476
  584THF     H612605   3.712  -0.045   5.007  1.7710  0.3465 -1.5992
  584THF     H712606   3.557  -0.086   4.955 -0.5310  0.0792  0.7695
  584THF     C812607   3.674   0.017   4.806  0.0340 -0.4463  0.5970
  584THF     C912608   3.733   0.158   4.822  0.2069  0.4135  0.4005
  584THF    H1012609   3.590   0.009   4.736 -0.5696  1.0962  1.1050
  584THF    H1112610   3.742  -0.061   4.772 -3.1462 -3.4812  0.6051
  584THF    H1212611   3.840   0.156   4.843  0.8856 -2.1013 -2.4261
  584THF    H1312612   3.725   0.218   4.731 -0.5378 -0.2629 -0.0020
  585THF     O112613   3.643   0.591   0.896  0.5196 -0.4597 -0.0074
  585THF     C212614   3.747   0.599   0.800  0.2536  0.8464 -0.0816
  585THF     C312615   3.588   0.717   0.905  0.8134 -0.2167 -0.9343
  585THF     H412616   3.717   0.594   0.696  0.7948 -3.1296 -0.1893
  585THF     H512617   3.817   0.518   0.822 -1.5601 -0.4162  1.3979
  585THF     H612618   3.527   0.735   0.817 -1.1310  0.2381  0.4443
  585THF     H712619   3.527   0.725   0.995 -0.7860 -1.6536 -1.8180
  585THF     C812620   3.712   0.806   0.914 -0.0370  0.4789 -0.1685
  585THF     C912621   3.807   0.736   0.821  0.3030 -0.3615 -0.0823
  585THF    H1012622   3.752   0.806   1.016 -3.4546 -0.8851  1.3148
  585THF    H1112623   3.690   0.906   0.877 -0.4042 -0.6866 -3.4316
  585THF    H1212624   3.834   0.798   0.736  3.0015  1.8506  2.1895
  585THF    H1312625   3.899   0.720   0.879 -0.2293 -1.2314  0.5574
  586THF     O112626   3.547   3.849   3.523 -0.7000  0.3133 -0.1307
  586THF     C212627   3.587   3.744   3.438 -0.0364  0.6096 -0.8657
  586THF     C312628   3.409   3.838   3.525  0.4223 -0.6311  0.0129
  586THF     H412629   3.585   3.650   3.493  1.8441  0.9367 -0.1387
  586THF     H512630   3.687   3.765   3.399 -0.0205 -0.1947 -1.2713
  586THF     H612631   3.379   3.755   3.589  1.4562 -0.7566  0.3445
  586THF     H712632   3.358   3.925   3.565 -2.0161 -2.1534  0.4898
  586THF     C812633   3.366   3.803   3.384  0.6652 -0.0992  0.2931
  586THF     C912634   3.494   3.749   3.322  0.6537 -0.9997  0.8769
  586THF    H1012635   3.330   3.891   3.332  1.0440  1.2159  2.1769
  586THF    H1112636   3.283   3.732   3.381 -0.4403  1.1764 -0.2380
  586THF    H1212637   3.483   3.658   3.264  0.6856 -0.0482 -0.6866
  586THF    H1312638   3.531   3.829   3.257 -1.4799 -0.1405  0.6379
  587THF     O112639   2.795   2.779   0.194 -0.1221 -0.6573  0.4612
  587THF     C212640   2.742   2.886   0.118  0.1800  0.0561 -0.4305
  587THF     C312641   2.932   2.799   0.208  0.2473 -0.1569  0.0875
  587THF     H412642   2.733   2.972   0.184 -1.4316 -0.9055  0.7014
  587THF     H512643   2.644   2.855   0.081 -0.3676  2.9038 -1.6046
  587THF     H612644   2.957   2.857   0.297 -0.6543 -0.1944  0.3748
  587THF     H712645   2.999   2.713   0.213 -1.4815 -1.8215 -2.6961
  587THF     C812646   2.969   2.884   0.086  0.6426  0.0684 -0.4188
  587THF     C912647   2.841   2.910   0.009 -0.0161  0.3742 -0.2505
  587THF    H1012648   3.036   2.821   0.028 -0.1792 -1.6558  0.4251
  587THF    H1112649   3.030   2.970   0.112  0.2335  0.5957 -1.1531
  587THF    H1212650   2.828   3.012  -0.029  0.9117  0.7331  0.3424
  587THF    H1312651   2.827   2.838  -0.071 -0.4260  0.8430 -0.6070
  588THF     O112652   1.375   2.518   2.690  0.1373  0.0315 -0.3854
  588THF     C212653   1.354   2.512   2.552  0.0230  0.0372 -0.6131
  588THF     C312654   1.243   2.504   2.734  0.1562  1.0284 -0.6615
  588THF     H412655   1.324   2.416   2.511 -1.5149  1.4024 -2.8452
  588THF     H512656   1.442   2.544   2.497  0.1278 -1.8026 -1.6247
  588THF     H612657   1.199   2.405   2.721 -1.1309  1.6090 -0.9694
  588THF     H712658   1.239   2.511   2.842 -0.1501 -1.1899 -0.4806
  588THF     C812659   1.182   2.622   2.656  0.7849  0.1682 -0.2153
  588THF     C912660   1.255   2.621   2.520  0.2959  0.6894 -0.4064
  588THF    H1012661   1.209   2.717   2.702  2.0832 -0.4520  0.3580
  588THF    H1112662   1.073   2.621   2.648  0.7970 -1.3972 -0.5527
  588THF    H1212663   1.200   2.582   2.434  1.0499 -1.8262  0.1642
  588THF    H1312664   1.297   2.717   2.493  1.0753  0.4951  0.0919
  589THF     O112665   4.611   3.104   2.770  0.0677 -0.5235 -0.5093
  589THF     C212666   4.691   3.184   2.858 -0.6382  0.1758 -0.1926
  589THF     C312667   4.560   3.184   2.665  0.4892 -0.5179  0.0677
  589THF     H412668   4.764   3.112   2.896 -1.0738 -0.8525 -1.2630
  589THF     H512669   4.623   3.208   2.940 -0.8666  1.2451 -0.6744
  589THF     H612670   4.595   3.135   2.574  2.7247 -3.0254  2.1072
  589THF     H712671   4.451   3.185   2.660  0.4140  1.4545  1.1037
  589THF     C812672   4.628   3.320   2.674 -0.5071 -0.0930  0.1241
  589THF     C912673   4.747   3.292   2.764  0.3172 -0.0500 -0.0399
  589THF    H1012674   4.563   3.398   2.713  1.0280  0.0364  2.6364
  589THF    H1112675   4.653   3.348   2.572 -1.3637  1.7444  0.3749
  589THF    H1212676   4.827   3.258   2.698  0.2283 -0.5569  0.1145
  589THF    H1312677   4.776   3.384   2.816 -1.1567 -2.0016  4.6826
  590THF     O112678   3.517   4.302   4.620  0.3935 -0.6564  0.1913
  590THF     C212679   3.662   4.274   4.640 -0.0277  0.3008  0.1678
  590THF     C312680   3.496   4.395   4.723 -0.1117  0.3921 -0.1165
  590THF     H412681   3.698   4.227   4.548 -0.1718 -0.3386  0.4360
  590THF     H512682   3.672   4.208   4.726 -1.7411  0.6232  0.6447
  590THF     H612683   3.420   4.457   4.676 -1.4713 -1.3672 -0.3453
  590THF     H712684   3.448   4.338   4.803 -0.9580 -1.1793 -1.6804
  590THF     C812685   3.626   4.473   4.750 -0.0811  0.6085  0.0541
  590THF     C912686   3.734   4.405   4.670  0.4794  0.0631  0.0694
  590THF    H1012687   3.647   4.472   4.857 -0.7280 -0.6459  0.1949
  590THF    H1112688   3.616   4.575   4.715  2.3036  0.5148 -1.0609
  590THF    H1212689   3.762   4.460   4.580 -1.4884  2.0593  0.5693
  590THF    H1312690   3.825   4.388   4.727  0.6857  1.7900  0.3236
  591THF     O112691   2.585   3.581   3.130  0.2981 -0.0495  0.5565
  591THF     C212692   2.495   3.559   3.242  0.0473  0.4016  1.0510
  591THF     C312693   2.516   3.645   3.027  0.2136 -0.1945  0.1604
  591THF     H412694   2.540   3.587   3.337  0.9313  1.2478  0.3973
  591THF     H512695   2.464   3.455   3.250  2.0466 -0.3938 -0.6371
  591THF     H612696   2.575   3.702   2.955  0.0599  0.2553  0.3930
  591THF     H712697   2.468   3.565   2.970  2.1280 -1.0417 -0.3722
  591THF     C812698   2.425   3.737   3.098 -0.3911  0.0179  1.0707
  591THF     C912699   2.378   3.646   3.212  0.4082 -0.2272  0.5277
  591THF    H1012700   2.341   3.769   3.038  1.2774  0.8308 -0.9473
  591THF    H1112701   2.481   3.825   3.131 -0.9222  0.7766 -0.0097
  591THF    H1212702   2.354   3.705   3.301  0.2289  2.0317 -0.9232
  591THF    H1312703   2.294   3.582   3.186 -1.3199  2.1378 -0.0487
  592THF     O112704   2.243   4.938   2.251  0.1424 -1.0470 -0.0168
  592THF     C212705   2.238   5.064   2.315  0.7770  0.5665 -0.1805
  592THF     C312706   2.345   4.955   2.151  0.2100  0.2618  0.0813
  592THF     H412707   2.315   5.078   2.391 -0.4476  2.4810  0.7894
  592THF     H512708   2.139   5.070   2.360 -0.2783 -1.9273 -1.9517
  592THF     H612709   2.449   4.957   2.184  0.0348  1.5014  0.6056
  592THF     H712710   2.343   4.878   2.074  2.3160  1.3157 -1.1055
  592THF     C812711   2.313   5.088   2.087  0.2650 -0.0339 -0.4450
  592THF     C912712   2.239   5.167   2.202  0.2047 -0.2829 -0.5987
  592THF    H1012713   2.236   5.080   2.009 -0.9721  3.7470  0.1370
  592THF    H1112714   2.402   5.139   2.051  0.5441 -1.8810 -2.5772
  592THF    H1212715   2.286   5.261   2.233  0.4392 -0.7634  0.5585
  592THF    H1312716   2.140   5.197   2.169  0.0255  2.9768  2.2861
  593THF     O112717   4.127   0.425   1.895  0.3242 -0.1046 -0.3203
  593THF     C212718   4.013   0.384   1.819 -0.2389  0.2085  0.1413
  593THF     C312719   4.135   0.565   1.884  0.9976 -0.5443 -0.0000
  593THF     H412720   3.975   0.288   1.854  0.0868  0.1568  0.3614
  593THF     H512721   4.039   0.378   1.713 -3.3512  1.6454 -0.8378
  593THF     H612722   4.181   0.619   1.967  0.1244 -0.7313  0.6156
  593THF     H712723   4.183   0.593   1.790  0.7458 -0.9298 -0.2437
  593THF     C812724   3.992   0.613   1.868  0.4202  0.1833  0.1068
  593THF     C912725   3.909   0.493   1.843  0.3729 -0.4771  0.1368
  593THF    H1012726   3.995   0.684   1.785  0.4530  0.2728  0.1842
  593THF    H1112727   3.964   0.661   1.962  1.3683  1.1583 -0.0904
  593THF    H1212728   3.848   0.474   1.931 -1.7646  1.0568 -0.9373
  593THF    H1312729   3.852   0.512   1.752  0.3909  2.0803  0.6037
  594THF     O112730   2.411   3.662   0.802 -0.1008  0.2077  0.2071
  594THF     C212731   2.384   3.524   0.814  0.2809  0.4060  0.1703
  594THF     C312732   2.295   3.738   0.848 -0.0827  0.3105  0.1328
  594THF     H412733   2.472   3.468   0.849  0.7429  1.8891  1.5012
  594THF     H512734   2.351   3.481   0.720  1.0233  1.8191 -0.7674
  594THF     H612735   2.320   3.839   0.883  2.4784 -0.9424  2.2772
  594THF     H712736   2.227   3.746   0.763 -1.9644 -0.3740  1.5232
  594THF     C812737   2.240   3.663   0.962  0.1277  0.3864 -1.0817
  594THF     C912738   2.265   3.517   0.912 -0.2236 -0.1186 -0.4015
  594THF    H1012739   2.136   3.686   0.988  0.1660  1.1846 -1.6151
  594THF    H1112740   2.302   3.667   1.051 -2.3087 -0.5877  0.7917
  594THF    H1212741   2.264   3.444   0.993  0.9175 -0.9457 -1.1049
  594THF    H1312742   2.184   3.493   0.843 -1.2760 -1.9046  1.3475
  595THF     O112743   3.882   1.226   3.559 -0.1387 -0.3205 -0.3029
  595THF     C212744   3.939   1.153   3.458  0.4209  0.1346 -0.0975
  595THF     C312745   3.840   1.350   3.499 -0.5352  0.1880 -0.2600
  595THF     H412746   3.873   1.088   3.402  1.6736 -1.7056  0.4786
  595THF     H512747   4.015   1.088   3.501  1.0681  0.1181 -1.2386
  595THF     H612748   3.755   1.326   3.436 -0.1945 -0.6421 -0.4171
  595THF     H712749   3.827   1.428   3.574  0.2830  0.4013 -0.3325
  595THF     C812750   3.956   1.384   3.415  0.9401 -0.3507 -0.6444
  595THF     C912751   4.009   1.249   3.367 -0.0772  0.4313 -0.1388
  595THF    H1012752   4.023   1.445   3.474  0.7898 -2.1520  1.5179
  595THF    H1112753   3.939   1.449   3.329  0.6312  0.7007  0.1961
  595THF    H1212754   3.990   1.225   3.262 -1.1832 -0.0973  0.1785
  595THF    H1312755   4.118   1.258   3.368 -0.0054  0.1953 -1.8571
  596THF     O112756   1.471   1.818   2.391 -0.6758  0.5583 -0.1607
  596THF     C212757   1.373   1.733   2.448  0.2901 -0.0994 -0.3150
  596THF     C312758   1.454   1.815   2.249 -0.1124  0.3769  0.3940
  596THF     H412759   1.359   1.766   2.551  3.1651 -1.3563  0.6043
  596THF     H512760   1.410   1.630   2.444 -2.7476 -1.2647 -0.5313
  596THF     H612761   1.492   1.908   2.206 -1.0897  1.6109  2.0693
  596THF     H712762   1.486   1.729   2.191  2.3624  1.7937 -0.4668
  596THF     C812763   1.298   1.821   2.238 -0.6663  0.2434 -0.3644
  596THF     C912764   1.248   1.738   2.360 -0.0757 -1.0728  0.0324
  596THF    H1012765   1.268   1.791   2.137  0.3775  0.5462 -0.7729
  596THF    H1112766   1.269   1.926   2.240 -2.1236 -0.1355 -0.1846
  596THF    H1212767   1.167   1.787   2.414  0.1187  0.6788 -1.1964
  596THF    H1312768   1.212   1.639   2.333 -0.1403 -0.6318 -1.5592
  597THF     O112769   2.297   3.156   0.879  0.5683 -0.1891  0.6346
  597THF     C212770   2.228   3.101   0.982 -0.5342  0.1748  0.4399
  597THF     C312771   2.432   3.184   0.917 -0.2428  0.1279  1.0439
  597THF     H412772   2.135   3.056   0.945 -1.9677  1.5862  2.1191
  597THF     H512773   2.197   3.177   1.053 -2.9133 -2.8154  2.9503
  597THF     H612774   2.497   3.205   0.832  2.0319 -1.2938  2.3336
  597THF     H712775   2.434   3.273   0.980 -0.5978  1.1643 -0.3691
  597THF     C812776   2.463   3.060   0.996 -0.3272  0.8088 -0.7716
  597THF     C912777   2.330   3.003   1.047 -0.5735 -0.3373 -0.0525
  597THF    H1012778   2.524   3.093   1.080 -2.0005 -0.0610  0.8717
  597THF    H1112779   2.508   2.981   0.936 -0.0275 -0.9058  1.5516
  597THF    H1212780   2.309   2.899   1.022 -1.7617 -0.0847 -0.1657
  597THF    H1312781   2.329   3.010   1.156  1.4418  1.7186 -0.0902
  598THF     O112782   0.567   3.162   2.353 -0.2482  0.0360  0.4964
  598THF     C212783   0.490   3.070   2.275  0.4423 -0.4506  0.5580
  598THF     C312784   0.636   3.249   2.266  0.2519  0.0689  0.2461
  598THF     H412785   0.389   3.099   2.247  0.3404 -2.4253 -1.3719
  598THF     H512786   0.478   2.980   2.336  1.5724 -0.3316  0.9952
  598THF     H612787   0.575   3.322   2.211 -0.2928  0.3324  1.1765
  598THF     H712788   0.714   3.309   2.312  1.0729  1.0116 -2.2339
  598THF     C812789   0.689   3.154   2.156  1.1065  0.1001  0.4355
  598THF     C912790   0.570   3.054   2.142 -0.0661 -0.3183 -0.1836
  598THF    H1012791   0.778   3.103   2.191  2.6130  0.2380 -2.8076
  598THF    H1112792   0.719   3.205   2.064  3.3019 -2.0541 -0.1451
  598THF    H1212793   0.493   3.063   2.066 -0.4141  0.5339  0.2589
  598THF    H1312794   0.613   2.955   2.127 -2.4076 -1.2872 -0.9359
  599THF     O112795   4.499   5.374   4.417  0.1171  0.3960  0.3042
  599THF     C212796   4.635   5.353   4.419 -0.2511 -0.2678 -0.1455
  599THF     C312797   4.429   5.273   4.496 -0.1785 -0.0330  0.4826
  599THF     H412798   4.677   5.450   4.447 -0.9738  0.4279 -1.3488
  599THF     H512799   4.672   5.323   4.321 -0.8546 -4.6541  0.7592
  599THF     H612800   4.332   5.311   4.530 -1.2609 -1.4242 -0.9241
  599THF     H712801   4.412   5.187   4.432 -0.6120  0.3364  0.0883
  599THF     C812802   4.535   5.235   4.596  0.0308  0.2153 -0.3665
  599THF     C912803   4.664   5.243   4.517 -0.6230 -0.4196 -0.0658
  599THF    H1012804   4.517   5.139   4.644 -0.4182  0.7569  0.5765
  599THF    H1112805   4.541   5.312   4.674 -0.1361 -0.8590  0.7254
  599THF    H1212806   4.757   5.243   4.574 -1.7160  0.6140  1.8343
  599THF    H1312807   4.658   5.157   4.450 -1.9240 -0.5998  0.2464
  600THF     O112808   2.839   2.687   1.389 -0.0985  0.0056  0.1826
  600THF     C212809   2.914   2.660   1.511 -0.2730 -0.5379 -0.2008
  600THF     C312810   2.724   2.603   1.391 -0.4034 -0.5206 -0.0656
  600THF     H412811   2.913   2.755   1.565  0.9400  0.3581 -1.6778
  600THF     H512812   3.019   2.639   1.491 -0.0625  0.5629 -0.3178
  600THF     H612813   2.641   2.669   1.366 -0.7552  0.3154  2.8799
  600THF     H712814   2.732   2.522   1.318 -5.0016  0.2454 -1.7132
  600THF     C812815   2.705   2.555   1.532  0.2463  0.0855  0.1578
  600THF     C912816   2.847   2.547   1.581  0.5732  0.0181 -0.7647
  600THF    H1012817   2.660   2.456   1.530 -0.2654  0.3174  0.1015
  600THF    H1112818   2.649   2.626   1.593 -1.0322 -1.3301  0.6911
  600THF    H1212819   2.858   2.552   1.689 -0.7392 -1.3461 -0.5363
  600THF    H1312820   2.897   2.455   1.551  1.2385  0.2204 -0.3217
  601THF     O112821   3.190   2.685   4.064 -0.2378  0.0362  0.4884
  601THF     C212822   3.127   2.701   4.194  1.1158 -0.1101 -0.2991
  601THF     C312823   3.164   2.553   4.007 -0.5435 -0.4934  0.6928
  601THF     H412824   3.062   2.787   4.211  0.2715 -0.3135 -2.2356
  601THF     H512825   3.214   2.709   4.259  1.0424 -1.4709 -0.0213
  601THF     H612826   3.070   2.540   3.955  0.7564 -1.5254 -1.5450
  601THF     H712827   3.246   2.521   3.942 -1.0999  0.6468 -0.6101
  601THF     C812828   3.140   2.465   4.132  0.2439  0.2295 -0.2250
  601THF     C912829   3.059   2.561   4.218 -0.2896  0.1991 -0.6431
  601THF    H1012830   3.231   2.452   4.191  1.6598  0.7954 -2.1626
  601THF    H1112831   3.094   2.370   4.107 -0.2707  0.6519 -0.9420
  601THF    H1212832   2.954   2.552   4.191 -0.2104 -0.9324 -0.5819
  601THF    H1312833   3.066   2.530   4.322 -1.4726  0.9995 -0.3007
  602THF     O112834   5.171   3.320   0.289 -0.3528 -0.0409 -0.6369
  602THF     C212835   5.067   3.275   0.206  0.6331  0.3947 -0.7564
  602THF     C312836   5.123   3.345   0.424  0.3222  0.4091  0.1142
  602THF     H412837   5.082   3.195   0.133 -2.1340 -2.0151  1.0451
  602THF     H512838   5.037   3.365   0.153 -2.1258 -0.5582 -0.9588
  602THF     H612839   5.165   3.275   0.497 -0.6568  0.3429  0.6402
  602THF     H712840   5.136   3.450   0.453 -0.1035  0.6843 -0.6683
  602THF     C812841   4.965   3.331   0.416 -0.2177  0.9150  0.3531
  602THF     C912842   4.948   3.228   0.301 -0.5017 -0.3642  0.4228
  602THF    H1012843   4.912   3.424   0.393  0.1269  0.6108 -1.8837
  602THF    H1112844   4.918   3.289   0.505 -0.7820 -0.9311 -0.7500
  602THF    H1212845   4.974   3.130   0.340 -1.6597 -1.0402 -0.4308
  602THF    H1312846   4.849   3.224   0.256  0.0677  0.3839 -0.9588
  603THF     O112847   0.589   0.633   3.972 -0.0755  0.1280 -0.8564
  603THF     C212848   0.557   0.647   4.108 -0.4221 -0.4921  0.6093
  603THF     C312849   0.537   0.740   3.902 -0.1590 -0.3339  0.0741
  603THF     H412850   0.619   0.583   4.170  0.3170 -0.7334 -0.3514
  603THF     H512851   0.454   0.646   4.142 -1.2103  1.2886 -1.4515
  603THF     H612852   0.593   0.767   3.813  0.5087  0.8398  0.8253
  603THF     H712853   0.432   0.722   3.883 -0.0018  1.0964 -2.4451
  603THF     C812854   0.557   0.855   3.994 -0.4911  0.7482  0.4577
  603THF     C912855   0.601   0.792   4.122 -0.2207 -0.3991  0.5544
  603THF    H1012856   0.461   0.907   4.002 -1.0635 -0.3822  1.0883
  603THF    H1112857   0.635   0.925   3.964  0.4689 -0.8350 -0.8979
  603THF    H1212858   0.705   0.813   4.149 -0.2139  2.5228 -1.3777
  603THF    H1312859   0.549   0.845   4.202 -0.1219 -0.2281  0.5054
  604THF     O112860   4.837   0.716   5.143  0.6103  0.1793 -0.0130
  604THF     C212861   4.718   0.794   5.150  0.8491 -0.1379  0.6447
  604THF     C312862   4.845   0.665   5.012  0.6432  0.0552  0.6138
  604THF     H412863   4.717   0.856   5.240 -1.6807 -1.0464  1.3304
  604THF     H512864   4.629   0.732   5.137 -1.4957  2.2195  3.8382
  604THF     H612865   4.948   0.648   4.981 -0.3924 -2.0256 -2.1873
  604THF     H712866   4.781   0.582   4.982  0.9232 -0.5470  1.6634
  604THF     C812867   4.800   0.784   4.923 -0.6323 -0.3253 -0.0456
  604THF     C912868   4.734   0.878   5.023 -0.4330  0.3836  0.9745
  604THF    H1012869   4.719   0.763   4.854  0.3631 -1.2869 -0.9779
  604THF    H1112870   4.889   0.826   4.875 -2.1056  0.5582 -2.1796
  604THF    H1212871   4.802   0.963   5.039  0.2503  0.0728 -0.2109
  604THF    H1312872   4.648   0.931   4.983  0.4875  2.5106  1.6025
  605THF     O112873   1.997   2.705   0.206  0.5687 -0.1280 -0.0125
  605THF     C212874   1.905   2.683   0.107 -0.1749 -1.0340  0.5583
  605THF     C312875   2.122   2.657   0.164 -0.2756  0.0965  0.1838
  605THF     H412876   1.834   2.765   0.103  0.5899 -0.2910  1.8159
  605THF     H512877   1.858   2.585   0.120 -0.7882 -0.5118  2.5896
  605THF     H612878   2.205   2.685   0.229  0.3396  2.7260 -1.5896
  605THF     H712879   2.128   2.549   0.148  0.9033  0.3376 -1.2445
  605THF     C812880   2.128   2.720   0.027 -0.1617 -0.4078 -0.5291
  605THF     C912881   1.988   2.688  -0.022  0.5853  0.2358  0.2911
  605THF    H1012882   2.208   2.677  -0.033  1.6220  0.4077  1.1267
  605THF    H1112883   2.156   2.826   0.028  0.9521 -0.6709  1.0792
  605THF    H1212884   1.952   2.755  -0.100 -1.0472  0.0945  0.8789
  605THF    H1312885   1.991   2.592  -0.073  0.3618 -0.0537  0.8104
  606THF     O112886   5.198   0.391   0.671 -0.2399 -0.2896 -0.7146
  606THF     C212887   5.119   0.334   0.574  0.4138 -0.6306 -0.6431
  606THF     C312888   5.127   0.491   0.740  0.0303 -0.2662 -0.4140
  606THF     H412889   5.159   0.240   0.535 -0.8319 -1.7167  0.5926
  606THF     H512890   5.115   0.398   0.486  0.9363 -0.6975 -0.7240
  606THF     H612891   5.170   0.520   0.836  1.4116 -0.2028 -1.0334
  606THF     H712892   5.116   0.577   0.674 -1.2845  0.9204  1.2598
  606THF     C812893   4.991   0.421   0.753 -0.5315 -0.4982  0.2888
  606THF     C912894   4.995   0.309   0.650  0.4351  0.1143  0.1915
  606THF    H1012895   4.921   0.502   0.733 -0.0495  0.0500  0.7891
  606THF    H1112896   4.963   0.387   0.852 -0.9183  0.1684  0.4100
  606THF    H1212897   5.004   0.216   0.707  3.3884  0.3749  0.2953
  606THF    H1312898   4.911   0.299   0.581  1.6393 -1.7234 -1.1244
  607THF     O112899   3.071   2.229   1.272 -0.6108  0.5118  0.0918
  607THF     C212900   2.973   2.243   1.170 -0.2999 -0.0572 -0.0329
  607THF     C312901   3.201   2.283   1.227  0.0174  0.1180 -0.3168
  607THF     H412902   2.918   2.336   1.188 -1.0341 -0.6611  0.9823
  607THF     H512903   2.900   2.162   1.174  0.7079 -1.0506 -1.0835
  607THF     H612904   3.190   2.388   1.251 -1.8909 -0.1503  0.1815
  607THF     H712905   3.279   2.234   1.287 -0.9566  0.8200  1.6187
  607THF     C812906   3.203   2.255   1.078  0.1694  0.3138  0.1719
  607THF     C912907   3.057   2.247   1.039  1.1918 -0.0996  1.2282
  607THF    H1012908   3.264   2.171   1.045 -0.9964  0.1636 -1.8153
  607THF    H1112909   3.244   2.340   1.023 -1.3869 -0.5474 -2.5050
  607THF    H1212910   3.010   2.320   0.973 -0.2872 -0.3248  2.0067
  607THF    H1312911   3.050   2.153   0.984 -0.6401  0.2832  0.7416
  608THF     O112912   2.374   2.439   4.241 -0.0950 -0.5978  0.2280
  608THF     C212913   2.316   2.370   4.129  0.0589  0.2362 -0.1909
  608THF     C312914   2.376   2.350   4.355 -0.0074  1.4381 -0.1305
  608THF     H412915   2.366   2.398   4.037  1.4481  0.2496  0.5454
  608THF     H512916   2.208   2.388   4.125 -0.3242 -2.0694 -1.6462
  608THF     H612917   2.434   2.396   4.436 -0.2663  1.3384  0.1140
  608THF     H712918   2.273   2.342   4.389  0.3941 -1.1164  0.7120
  608THF     C812919   2.403   2.217   4.282  0.3355 -0.4939 -0.0233
  608THF     C912920   2.329   2.222   4.154 -0.1348  0.2796 -0.2422
  608THF    H1012921   2.356   2.137   4.339  1.5907 -0.8914  0.4861
  608THF    H1112922   2.508   2.194   4.264  0.9600  0.8888  1.5536
  608THF    H1212923   2.381   2.152   4.090 -0.3856 -0.1344 -0.0039
  608THF    H1312924   2.230   2.176   4.162 -0.4172  1.0240  0.8632
  609THF     O112925   4.247   3.814   4.790 -0.0408  0.0182  0.2571
  609THF     C212926   4.162   3.803   4.675 -0.3010  0.0282 -0.0881
  609THF     C312927   4.163   3.786   4.899  0.2698  0.0411 -0.7469
  609THF     H412928   4.149   3.700   4.643 -0.1051 -0.5447  1.5631
  609THF     H512929   4.202   3.866   4.596 -2.1157  1.3086 -0.0387
  609THF     H612930   4.139   3.681   4.882  0.6015 -0.0922 -0.4054
  609THF     H712931   4.219   3.796   4.992  0.6746  1.3665 -1.1053
  609THF     C812932   4.048   3.887   4.878 -0.2200  0.1796 -0.5299
  609THF     C912933   4.032   3.873   4.724 -0.1416 -0.0161 -0.1821
  609THF    H1012934   4.078   3.990   4.895 -0.1977  0.0596  0.1767
  609THF    H1112935   3.960   3.856   4.933 -0.3866  1.1645 -0.2331
  609THF    H1212936   3.942   3.825   4.685  0.4413  0.6021 -2.4025
  609THF    H1312937   4.022   3.975   4.687 -2.3979  1.3508  3.6297
  610THF     O112938   4.705   0.201   3.991  0.5255  0.3406  0.1424
  610THF     C212939   4.755   0.179   3.863 -0.2143  0.4709  0.0584
  610THF     C312940   4.665   0.069   4.039  1.4935  0.5469  0.0869
  610THF     H412941   4.824   0.255   3.826  1.1128 -0.1610  1.1406
  610THF     H512942   4.673   0.164   3.794 -0.0727 -1.9010  0.3290
  610THF     H612943   4.677   0.049   4.146  1.1566 -0.7193 -0.0980
  610THF     H712944   4.561   0.045   4.019  1.6480 -1.1478  1.1074
  610THF     C812945   4.752  -0.033   3.969 -0.1677  0.2500 -0.4860
  610THF     C912946   4.828   0.048   3.870 -0.5267 -0.6626  0.6025
  610THF    H1012947   4.700  -0.123   3.935  0.1939 -0.4736  0.7843
  610THF    H1112948   4.821  -0.085   4.036 -1.1471 -2.9381 -1.7351
  610THF    H1212949   4.932   0.072   3.894 -0.6987  0.7368  0.0503
  610THF    H1312950   4.838  -0.011   3.779  2.0998  0.5937 -0.0422
  611THF     O112951   2.933   3.786   2.440 -0.3362 -0.0587  0.2829
  611THF     C212952   2.894   3.805   2.575  0.1789 -0.7174 -0.3161
  611THF     C312953   2.820   3.785   2.362  0.2468 -0.3461  0.1408
  611THF     H412954   2.976   3.841   2.638 -0.4885  1.1868 -0.4788
  611THF     H512955   2.837   3.721   2.615 -0.0505 -0.0101  0.9035
  611THF     H612956   2.833   3.787   2.254 -0.4706 -0.1101  0.0574
  611THF     H712957   2.743   3.712   2.390 -4.3022  3.7199 -0.4931
  611THF     C812958   2.763   3.923   2.412 -0.4979  0.1073 -0.2524
  611THF     C912959   2.784   3.919   2.560 -0.5385 -0.6279 -0.7525
  611THF    H1012960   2.657   3.934   2.388 -0.3338 -0.8450 -1.5660
  611THF    H1112961   2.814   4.003   2.359  1.0795 -0.5152  0.2631
  611THF    H1212962   2.826   4.010   2.602 -0.2511 -1.2161  0.2878
  611THF    H1312963   2.696   3.889   2.618 -0.9405 -0.9222 -1.4991
  612THF     O112964   2.361   3.440   1.548  0.7558 -0.3783  0.0073
  612THF     C212965   2.473   3.353   1.519  0.1673 -0.1677 -0.3007
  612THF     C312966   2.413   3.560   1.608  0.0708 -0.1274 -0.0838
  612THF     H412967   2.529   3.405   1.441  1.1845  1.1364  1.2336
  612THF     H512968   2.450   3.251   1.490  1.2592 -0.1100 -1.4618
  612THF     H612969   2.447   3.634   1.536 -1.5971  0.1969 -0.5918
  612THF     H712970   2.337   3.600   1.675  0.5443 -0.3251  0.5723
  612THF     C812971   2.536   3.507   1.681  0.1333 -0.0617 -0.3035
  612THF     C912972   2.538   3.356   1.653 -0.6081 -0.0544  0.0161
  612THF    H1012973   2.520   3.524   1.787 -2.1340  0.7192 -0.7256
  612THF    H1112974   2.626   3.548   1.634 -0.1642  0.1052 -0.7410
  612THF    H1212975   2.630   3.302   1.676  0.4043  1.5434 -0.1053
  612THF    H1312976   2.463   3.312   1.718  0.4511 -0.5460  0.9391
  613THF     O112977   5.098   3.111   1.362 -0.2577 -0.5425 -0.3322
  613THF     C212978   4.988   3.169   1.301  0.2497  0.1656 -0.4701
  613THF     C312979   5.194   3.220   1.373  0.0231 -0.2204  0.2634
  613THF     H412980   4.894   3.117   1.322 -0.2843  1.3653  0.2146
  613THF     H512981   5.001   3.165   1.193  2.6150 -0.5170 -0.1994
  613THF     H612982   5.283   3.192   1.429 -0.2647 -0.5726  0.5483
  613THF     H712983   5.238   3.232   1.274  0.0905 -0.4104  0.2685
  613THF     C812984   5.118   3.339   1.416  0.0932 -0.0704 -0.1055
  613THF     C912985   4.983   3.316   1.349 -0.6457  0.0653 -0.2234
  613THF    H1012986   5.161   3.438   1.397 -2.1790  1.3812  1.7305
  613THF    H1112987   5.109   3.329   1.524 -0.7325  0.8605 -0.0774
  613THF    H1212988   4.919   3.331   1.436  1.4289 -0.8548  1.5690
  613THF    H1312989   4.947   3.391   1.279  0.9882  1.6127  0.4852
  614THF     O112990   4.008   1.845   1.525  0.1021 -0.2889  0.1041
  614THF     C212991   3.941   1.893   1.407 -0.5145  0.1462 -0.6058
  614THF     C312992   4.122   1.932   1.536 -0.3494 -0.4606  0.3068
  614THF     H412993   3.845   1.842   1.405 -0.3328 -0.5177  2.7184
  614THF     H512994   3.987   1.861   1.314  0.5126  0.5894 -0.2578
  614THF     H612995   4.167   1.944   1.634 -0.0336  1.4012 -0.0154
  614THF     H712996   4.202   1.910   1.466 -0.3451  0.1395  0.1153
  614THF     C812997   4.069   2.070   1.487  0.1207 -0.2544  0.2195
  614THF     C912998   3.933   2.040   1.423  0.4923  0.5264 -0.4984
  614THF    H1012999   4.147   2.116   1.427  0.0326 -0.1738  0.1660
  614THF    H1113000   4.055   2.143   1.567  1.5711 -0.5499  0.7717
  614THF    H1213001   3.849   2.073   1.484  0.3187  0.2958 -0.6126
  614THF    H1313002   3.911   2.084   1.325 -3.3654 -0.3053 -0.1578
  615THF     O113003   1.391   0.141   0.465  0.1860 -0.0468  0.4287
  615THF     C213004   1.309   0.031   0.515  0.0101  0.2215  0.2580
  615THF     C313005   1.522   0.108   0.498 -0.5281  0.1933 -0.4063
  615THF     H413006   1.216   0.024   0.459  0.6138 -0.6585 -0.6835
  615THF     H513007   1.300   0.028   0.623 -1.4306  2.1914  0.2410
  615THF     H613008   1.586   0.161   0.427  2.3779 -1.7153  0.6394
  615THF     H713009   1.558   0.125   0.599 -0.0194  0.6624 -0.6615
  615THF     C813010   1.531  -0.036   0.466  0.3640  0.2001 -0.4375
  615THF     C913011   1.386  -0.093   0.473  0.2090 -0.0516 -0.0027
  615THF    H1013012   1.600  -0.087   0.535 -2.0272  0.0853  2.0513
  615THF    H1113013   1.567  -0.050   0.364 -0.7404  2.7354 -1.2476
  615THF    H1213014   1.355  -0.135   0.378 -2.9863  0.0799  0.8627
  615THF    H1313015   1.377  -0.177   0.542 -0.3503 -0.6707 -0.8086
  616THF     O113016   2.723   1.795   5.349 -0.2009  0.3908  0.2967
  616THF     C213017   2.722   1.705   5.230 -0.1468 -0.6801 -0.6728
  616THF     C313018   2.734   1.711   5.463  0.6418 -0.1734  0.7411
  616THF     H413019   2.741   1.759   5.137 -1.2084 -1.4681 -1.3728
  616THF     H513020   2.633   1.643   5.228 -1.5952  0.7421  4.1452
  616THF     H613021   2.761   1.766   5.554  1.2611  0.5187  0.1498
  616THF     H713022   2.636   1.665   5.474  0.5682  0.3457  2.6038
  616THF     C813023   2.841   1.608   5.418 -0.2791 -0.0178  0.5270
  616THF     C913024   2.831   1.609   5.270 -0.1092  0.2571 -0.6122
  616THF    H1013025   2.822   1.504   5.445 -0.0599 -0.0896  0.4040
  616THF    H1113026   2.941   1.628   5.455 -0.4688 -0.8740  1.5721
  616THF    H1213027   2.927   1.623   5.221  1.0908 -1.0118  1.2562
  616THF    H1313028   2.794   1.511   5.239  0.5333  0.0220 -0.6538
  617THF     O113029   0.603   3.024   4.970 -0.0461 -0.1172  0.3042
  617THF     C213030   0.643   2.911   4.902  0.1929  0.6197  0.6949
  617THF     C313031   0.684   3.037   5.088  0.1605 -0.8072 -0.1539
  617THF     H413032   0.735   2.929   4.847  0.4300 -1.9370  0.1328
  617THF     H513033   0.584   2.867   4.821 -0.5136  0.3990  1.3197
  617THF     H613034   0.777   3.086   5.061 -1.1097  2.1732  0.4744
  617THF     H713035   0.638   3.098   5.165  0.0276 -1.5881  0.3948
  617THF     C813036   0.724   2.894   5.127  0.2111  0.2993  0.4600
  617THF     C913037   0.677   2.809   5.009  0.2239 -0.2824 -0.0900
  617THF    H1013038   0.673   2.860   5.218  0.8890 -1.1433  0.3196
  617THF    H1113039   0.829   2.882   5.153  0.1455 -0.3335  0.4620
  617THF    H1213040   0.752   2.741   4.969  0.4529 -0.7753  1.1219
  617THF    H1313041   0.593   2.741   5.026 -0.3526  0.5573  0.5123
  618THF     O113042   0.803   4.763   5.193 -0.0708  0.5443  0.4524
  618THF     C213043   0.685   4.795   5.266 -0.1301 -0.0849 -0.1424
  618THF     C313044   0.765   4.688   5.068 -0.2182  0.3236 -0.4129
  618THF     H413045   0.707   4.889   5.316  0.1388  0.2415 -0.8615
  618THF     H513046   0.675   4.710   5.334  2.3491 -1.2901 -1.1489
  618THF     H613047   0.792   4.744   4.979  0.3915 -0.4309 -0.7195
  618THF     H713048   0.817   4.599   5.033  1.9323  1.9266 -1.5095
  618THF     C813049   0.612   4.680   5.068  0.1832 -0.4192 -0.4354
  618THF     C913050   0.578   4.793   5.162 -0.1112 -0.7898  0.3394
  618THF    H1013051   0.584   4.589   5.122 -1.3825  0.6293  0.6317
  618THF    H1113052   0.567   4.697   4.971  1.1545  0.8151 -0.6882
  618THF    H1213053   0.585   4.886   5.105 -1.4674 -1.1050 -0.3836
  618THF    H1313054   0.476   4.785   5.199 -0.2240 -0.4663  0.1091
  619THF     O113055   4.801   0.081   0.101  0.6161  0.2127  0.0131
  619THF     C213056   4.695   0.179   0.096  0.3967  0.2310  0.1489
  619THF     C313057   4.866   0.091   0.226  0.1286 -0.8714 -0.2518
  619THF     H413058   4.613   0.131   0.148  0.6386 -0.8219 -0.4172
  619THF     H513059   4.653   0.196  -0.003  2.7766  2.1062 -0.6379
  619THF     H613060   4.799   0.052   0.303  0.1142 -0.0911  0.1375
  619THF     H713061   4.958   0.033   0.221  0.4044 -0.6279  1.4343
  619THF     C813062   4.878   0.243   0.240 -0.7098 -0.0266  0.1908
  619THF     C913063   4.753   0.299   0.168 -0.6274  0.0702 -0.2157
  619THF    H1013064   4.971   0.274   0.192 -0.9847  0.5249 -0.0024
  619THF    H1113065   4.879   0.268   0.346  2.6587  1.6260 -0.1033
  619THF    H1213066   4.690   0.343   0.245 -1.3404  4.2069 -2.8832
  619THF    H1313067   4.773   0.380   0.098  0.8077 -0.5921 -0.6171
  620THF     O113068   1.543   5.153   4.312  1.0483 -0.1928  0.2372
  620THF     C213069   1.459   5.208   4.406  0.5311 -0.3864 -0.4544
  620THF     C313070   1.662   5.096   4.368  0.3050 -0.3326  0.5936
  620THF     H413071   1.351   5.205   4.391  0.0391  0.0013  2.4257
  620THF     H513072   1.497   5.307   4.431  0.9995 -0.8245  0.6263
  620THF     H613073   1.717   5.029   4.302 -2.2578 -0.2679 -1.7923
  620THF     H713074   1.721   5.185   4.389 -1.4636  0.7433  1.2204
  620THF     C813075   1.623   5.047   4.505  0.2408 -0.6522 -0.6067
  620THF     C913076   1.484   5.109   4.527  0.3705 -0.1961 -0.5182
  620THF    H1013077   1.686   5.097   4.578 -1.7848 -1.0633  1.5643
  620THF    H1113078   1.627   4.940   4.528  1.2637 -0.0523  2.4656
  620THF    H1213079   1.406   5.034   4.516  0.3459 -0.3422  0.5218
  620THF    H1313080   1.472   5.171   4.616  0.0064  1.4068 -1.6384
  621THF     O113081   3.076   4.334   2.697  0.1063  0.0887 -0.3734
  621THF     C213082   2.979   4.269   2.770 -0.0050  0.4310  0.0596
  621THF     C313083   3.123   4.446   2.767 -0.5900  0.0031  0.9788
  621THF     H413084   3.019   4.174   2.806 -1.6352 -0.8246 -1.2561
  621THF     H513085   2.901   4.243   2.699 -1.1249  2.2873  0.5355
  621THF     H613086   3.232   4.453   2.766 -0.5747  0.6248 -1.8262
  621THF     H713087   3.091   4.543   2.729  0.5598 -0.0095 -0.0540
  621THF     C813088   3.061   4.446   2.906 -0.7167  0.9444 -0.0794
  621THF     C913089   2.933   4.365   2.871  0.3010  0.6182  0.0450
  621THF    H1013090   3.034   4.541   2.953 -0.4533  1.7989 -1.5890
  621THF    H1113091   3.128   4.387   2.968  0.4732  0.5257 -1.6940
  621THF    H1213092   2.888   4.308   2.952 -0.9323  1.0219 -0.3343
  621THF    H1313093   2.855   4.431   2.833 -0.5704  0.1686  1.0144
  622THF     O113094   5.178   3.527   2.896 -0.0797 -0.3245  0.3547
  622THF     C213095   5.057   3.454   2.926 -0.4441 -0.0104  0.5450
  622THF     C313096   5.283   3.457   2.963 -0.3281  0.4403 -0.0820
  622THF     H413097   5.034   3.382   2.847 -1.2380  2.6644 -1.8494
  622THF     H513098   4.985   3.535   2.940 -0.3072 -0.0814  1.7298
  622THF     H613099   5.356   3.407   2.899 -2.5997 -1.1456 -1.5421
  622THF     H713100   5.344   3.531   3.015 -0.5129  0.6031 -0.0996
  622THF     C813101   5.207   3.339   3.037  0.0201 -0.7662 -0.2026
  622THF     C913102   5.067   3.392   3.059 -0.2631 -0.4749 -0.3209
  622THF    H1013103   5.254   3.310   3.131 -1.1934 -0.6645  0.4582
  622THF    H1113104   5.195   3.260   2.964 -0.6331  1.1520 -2.2947
  622THF    H1213105   4.991   3.315   3.073  0.8450 -1.4430  0.7175
  622THF    H1313106   5.053   3.458   3.145 -0.7540 -1.8571  0.6987
  623THF     O113107   0.389   4.561   0.518  0.4645 -0.0778 -0.2834
  623THF     C213108   0.343   4.549   0.390  0.0600  0.5071  0.1212
  623THF     C313109   0.399   4.703   0.549 -0.1346  0.5076 -0.2517
  623THF     H413110   0.237   4.574   0.385  0.3223  1.4011 -1.3767
  623THF     H513111   0.355   4.451   0.345 -1.2955  0.7548 -0.8482
  623THF     H613112   0.304   4.741   0.586  1.4677  1.7459  2.9457
  623THF     H713113   0.475   4.710   0.627  0.4320 -2.2850 -0.4371
  623THF     C813114   0.435   4.780   0.418 -0.3880 -0.3552 -0.4562
  623THF     C913115   0.423   4.661   0.316 -0.0956  0.1875 -0.2030
  623THF    H1013116   0.534   4.824   0.423 -0.1956 -0.8552  3.5910
  623THF    H1113117   0.359   4.853   0.392  0.1809  0.5038  0.2251
  623THF    H1213118   0.395   4.686   0.214 -1.4337  1.1181  0.3569
  623THF    H1313119   0.516   4.605   0.310 -0.3364 -0.2705  0.2271
  624THF     O113120   4.848   3.015   1.758 -0.0765 -0.1635 -0.2791
  624THF     C213121   4.894   3.066   1.886 -0.8482  0.8316  0.5017
  624THF     C313122   4.951   3.061   1.662 -0.6706  0.5763 -0.2118
  624THF     H413123   4.879   2.983   1.955 -2.1423  2.4253  2.2357
  624THF     H513124   4.831   3.144   1.928  0.5756  2.2274  0.1223
  624THF     H613125   4.954   3.005   1.569 -0.0367  1.7061 -0.9014
  624THF     H713126   4.946   3.169   1.644  2.1655  0.4804 -2.2983
  624THF     C813127   5.076   3.023   1.734  0.4925 -0.4530 -0.5139
  624THF     C913128   5.046   3.103   1.861 -0.0969 -0.0577  0.4024
  624THF    H1013129   5.167   3.058   1.684  0.5526 -0.4357 -0.3901
  624THF    H1113130   5.081   2.916   1.749 -3.0067 -0.5919  0.5466
  624THF    H1213131   5.101   3.070   1.949  0.1772  1.0552  0.6608
  624THF    H1313132   5.046   3.211   1.844 -2.3344 -0.0703  0.1352
  625THF     O113133   3.514   3.478   5.066  0.2715 -0.1960  0.0083
  625THF     C213134   3.466   3.396   5.173  0.4080 -0.4052  0.2148
  625THF     C313135   3.595   3.399   4.979  0.0177  0.7753  0.0536
  625THF     H413136   3.372   3.350   5.143  0.9168 -1.0729 -0.3938
  625THF     H513137   3.457   3.454   5.264 -3.7285  1.2254 -1.0306
  625THF     H613138   3.566   3.400   4.874  0.4979  0.1029 -0.0926
  625THF     H713139   3.691   3.449   4.990  0.2094  0.1575  1.4236
  625THF     C813140   3.602   3.260   5.037 -0.0068  0.2417 -0.3852
  625THF     C913141   3.572   3.291   5.185 -0.3586  0.3406 -0.1000
  625THF    H1013142   3.699   3.213   5.021  0.6740  0.3612  2.8349
  625THF    H1113143   3.527   3.196   4.991 -0.6053  1.7094 -1.5618
  625THF    H1213144   3.538   3.199   5.233  1.5973  0.5080  1.7509
  625THF    H1313145   3.669   3.327   5.219  0.8547 -2.7069 -0.0790
  626THF     O113146   0.986   4.137   1.678 -0.4268  0.5521  0.0679
  626THF     C213147   1.045   4.057   1.780  0.0524  0.3475 -0.5341
  626THF     C313148   0.886   4.057   1.614 -0.1888  0.8102  0.1081
  626THF     H413149   0.980   4.051   1.867  0.6157  0.7709 -0.0769
  626THF     H513150   1.144   4.088   1.816  1.3597 -1.8749 -2.0069
  626THF     H613151   0.798   4.069   1.678 -0.0542 -2.0866  0.9880
  626THF     H713152   0.851   4.084   1.514 -0.9517  1.6397  0.5890
  626THF     C813153   0.942   3.916   1.624  0.2330  0.2404  0.0687
  626THF     C913154   1.059   3.919   1.721 -0.5793  0.5210  0.9686
  626THF    H1013155   0.967   3.884   1.522 -0.1657  1.0139 -0.2804
  626THF    H1113156   0.867   3.839   1.644 -0.1369  0.7296  0.5508
  626THF    H1213157   1.043   3.848   1.802 -0.9475  2.4273  2.6617
  626THF    H1313158   1.154   3.896   1.673 -0.0305  2.1135  1.2420
  627THF     O113159   2.447   1.073   3.949 -0.0405  0.2304  0.1289
  627THF     C213160   2.436   1.148   3.831  0.2342 -0.3322 -0.1327
  627THF     C313161   2.520   0.955   3.922 -0.3674  0.4820  0.5636
  627THF     H413162   2.443   1.254   3.853  0.1186 -0.4520  0.4903
  627THF     H513163   2.334   1.133   3.795 -0.2903 -3.3789  2.2338
  627THF     H613164   2.607   0.960   3.988 -0.3833 -0.1342  0.6352
  627THF     H713165   2.464   0.863   3.933 -0.1459 -0.2016 -2.9195
  627THF     C813166   2.550   0.957   3.769 -0.1886  0.4971 -0.6446
  627THF     C913167   2.541   1.107   3.738  0.2174  0.2246 -0.1186
  627THF    H1013168   2.473   0.906   3.711 -0.4869 -1.0151  0.9855
  627THF    H1113169   2.649   0.915   3.750 -0.5521 -1.5399  1.4598
  627THF    H1213170   2.641   1.147   3.756 -0.4470  1.4620  0.9539
  627THF    H1313171   2.517   1.129   3.633  1.8428  0.5912 -0.4431
  628THF     O113172   0.290   1.698   4.049 -0.3636 -0.1398 -0.4453
  628THF     C213173   0.361   1.582   4.011 -0.1002 -0.0897  0.7187
  628THF     C313174   0.232   1.683   4.175  1.0174 -0.0451  0.6069
  628THF     H413175   0.458   1.582   4.059  1.2655  1.2337 -1.8299
  628THF     H513176   0.380   1.588   3.904  0.9270  2.3541  0.9682
  628THF     H613177   0.301   1.698   4.258  0.4448  0.5453  0.9842
  628THF     H713178   0.135   1.730   4.185  0.4725 -0.9830 -0.0854
  628THF     C813179   0.204   1.530   4.171 -0.1187 -0.3147  0.5215
  628THF     C913180   0.268   1.464   4.053  0.0182 -0.5578 -0.7000
  628THF    H1013181   0.096   1.514   4.168 -0.3813  1.4142 -0.8090
  628THF    H1113182   0.246   1.478   4.257 -0.4402 -0.1145  0.7995
  628THF    H1213183   0.319   1.376   4.090  0.7167  0.1553  0.0554
  628THF    H1313184   0.198   1.440   3.972 -1.6128 -0.6204  0.6617
  629THF     O113185   0.433   0.191   3.964 -0.0354 -0.0461  0.2076
  629THF     C213186   0.470   0.327   3.959  0.1657  0.1443 -0.4744
  629THF     C313187   0.340   0.163   3.860 -0.4429  0.2595 -0.0418
  629THF     H413188   0.557   0.369   4.009  0.6155 -1.0226 -0.2480
  629THF     H513189   0.392   0.394   3.996  2.8230  1.7872  2.6157
  629THF     H613190   0.368   0.062   3.831  0.8571  0.3453  0.7865
  629THF     H713191   0.241   0.175   3.903 -1.2043 -1.9859 -1.0735
  629THF     C813192   0.368   0.268   3.757 -0.0243  0.9083  0.7343
  629THF     C913193   0.480   0.349   3.808 -0.6592  0.3360  0.2938
  629THF    H1013194   0.278   0.323   3.729 -1.7707 -0.9116  2.4716
  629THF    H1113195   0.393   0.223   3.660  0.1079 -0.4337  1.3661
  629THF    H1213196   0.576   0.304   3.783  0.8141  3.0907  0.6328
  629THF    H1313197   0.472   0.455   3.782 -1.9150  0.5638  1.4689
  630THF     O113198   4.438   1.530   1.668  0.1232 -0.5329 -0.8717
  630THF     C213199   4.365   1.489   1.786 -0.3176 -0.0767 -0.5702
  630THF     C313200   4.362   1.633   1.622  0.7126  0.5279  0.0017
  630THF     H413201   4.388   1.551   1.872 -0.2198 -1.8308  0.7110
  630THF     H513202   4.404   1.395   1.825 -0.1444  0.5645  0.8533
  630THF     H613203   4.368   1.712   1.697  1.2956 -1.1757  1.8247
  630THF     H713204   4.388   1.674   1.524 -0.1992  2.0305  0.3536
  630THF     C813205   4.212   1.585   1.631  0.2668 -1.0920 -0.2158
  630THF     C913206   4.215   1.489   1.742  0.1907 -1.2110 -0.4056
  630THF    H1013207   4.178   1.546   1.535  0.7187  0.4278 -1.0215
  630THF    H1113208   4.143   1.669   1.636  0.3215 -0.9555 -1.4500
  630THF    H1213209   4.143   1.507   1.822  1.8066  0.4394  0.7787
  630THF    H1313210   4.196   1.392   1.696  1.2535 -0.3748 -2.7870
  631THF     O113211   5.247   3.564   3.445  0.3093 -0.1877  0.3873
  631THF     C213212   5.360   3.527   3.369 -0.2646  0.6196  0.0805
  631THF     C313213   5.176   3.447   3.473 -0.1533 -0.5419 -0.0385
  631THF     H413214   5.443   3.595   3.387 -1.0644  1.3605  1.1247
  631THF     H513215   5.342   3.539   3.262 -0.5770 -0.1620  0.0366
  631THF     H613216   5.093   3.454   3.543  0.3781 -1.8850  0.7734
  631THF     H713217   5.133   3.420   3.376  0.2058  0.4604 -0.4910
  631THF     C813218   5.283   3.346   3.508  0.4522  0.6385  0.2491
  631THF     C913219   5.387   3.380   3.406 -0.6312  0.4651  0.3063
  631THF    H1013220   5.249   3.242   3.501  1.0170  0.4156  0.7884
  631THF    H1113221   5.314   3.367   3.610  0.1480  3.3949 -0.1542
  631THF    H1213222   5.480   3.366   3.461 -0.3493  1.6550  0.1483
  631THF    H1313223   5.383   3.309   3.323  1.3842 -0.3646  0.8530
  632THF     O113224   1.627   1.480   3.213 -0.3325  0.1477 -0.5438
  632THF     C213225   1.563   1.480   3.341 -0.6976  0.0878 -0.3752
  632THF     C313226   1.527   1.475   3.119 -0.2263  0.3064 -0.2743
  632THF     H413227   1.636   1.515   3.414  0.7431 -1.1479 -1.1512
  632THF     H513228   1.531   1.378   3.363  1.0359 -0.4392 -0.0672
  632THF     H613229   1.566   1.512   3.024 -0.3064 -0.0527 -0.4509
  632THF     H713230   1.492   1.373   3.102  1.4660 -0.5656  1.1447
  632THF     C813231   1.414   1.566   3.175 -0.1914 -0.5578 -0.3112
  632THF     C913232   1.447   1.577   3.328  0.2317  0.4076 -0.1011
  632THF    H1013233   1.310   1.532   3.165 -0.1309 -0.5331 -1.1624
  632THF    H1113234   1.413   1.668   3.138 -0.8772 -0.6300 -0.5175
  632THF    H1213235   1.473   1.680   3.352  1.1328 -0.1292  1.3977
  632THF    H1313236   1.368   1.538   3.391  0.7693  1.3337  1.1856
  633THF     O113237   3.421   2.254   4.673 -0.2119  0.5480 -0.3738
  633THF     C213238   3.352   2.141   4.603 -0.0812 -0.6702  0.0925
  633THF     C313239   3.433   2.357   4.574 -0.3852 -0.6185  0.0275
  633THF     H413240   3.316   2.075   4.683  1.2416 -2.4146 -0.6698
  633THF     H513241   3.412   2.080   4.535  1.7287 -0.7185  1.6443
  633THF     H613242   3.447   2.452   4.625 -0.1093  0.1302 -1.3990
  633THF     H713243   3.508   2.343   4.496  1.0131  0.4806  1.1165
  633THF     C813244   3.296   2.361   4.505  0.1243 -0.5926 -0.5062
  633THF     C913245   3.241   2.215   4.526 -0.2380 -0.2871  0.2293
  633THF    H1013246   3.305   2.385   4.399 -1.7312  3.0575  0.0151
  633THF    H1113247   3.233   2.438   4.551 -1.0314 -0.9718 -1.3907
  633THF    H1213248   3.146   2.220   4.578 -0.5245 -0.0577 -0.2997
  633THF    H1313249   3.226   2.161   4.432 -0.2692  2.2964 -1.3710
  634THF     O113250   1.900   0.489   5.176 -0.0537 -0.4599  0.2055
  634THF     C213251   1.950   0.396   5.260  0.5512  0.7017  0.1683
  634THF     C313252   1.975   0.486   5.059  0.0050  0.4739 -0.1864
  634THF     H413253   1.887   0.307   5.259  1.6493 -0.0978  0.2850
  634THF     H513254   1.954   0.430   5.364 -1.2044  1.7779 -0.0674
  634THF     H613255   1.942   0.397   5.006  3.6457 -1.7913  1.0208
  634THF     H713256   1.959   0.582   5.008  0.7229  0.5017 -0.3742
  634THF     C813257   2.120   0.473   5.114 -0.4381 -0.6547  0.1414
  634THF     C913258   2.092   0.366   5.216  0.0041 -1.0585  0.5540
  634THF    H1013259   2.157   0.566   5.155  0.8494 -2.1516  2.6084
  634THF    H1113260   2.199   0.434   5.049  1.4878  2.0211  0.7252
  634THF    H1213261   2.095   0.265   5.176 -2.0851 -1.3426  1.0475
  634THF    H1313262   2.158   0.364   5.303  1.3004  0.1740 -0.3471
  635THF     O113263   3.686   0.966   0.216 -0.3049 -0.1574  0.8895
  635THF     C213264   3.616   0.892   0.308  0.4490  0.1656  0.5666
  635THF     C313265   3.598   0.980   0.100 -0.3490 -0.4913  0.2175
  635THF     H413266   3.536   0.955   0.347 -1.1744  0.1550 -2.4800
  635THF     H513267   3.670   0.848   0.392  1.8340  0.8603  0.0857
  635THF     H613268   3.523   1.056   0.124  0.4778  0.8557 -1.2589
  635THF     H713269   3.662   1.014   0.018  1.3481  1.7763  2.3125
  635THF     C813270   3.543   0.835   0.084  0.0611 -0.2491  0.7459
  635THF     C913271   3.559   0.779   0.222 -0.8986  0.0297 -0.0923
  635THF    H1013272   3.609   0.783   0.016 -0.6865  1.4420 -1.3908
  635THF    H1113273   3.440   0.833   0.048  0.2671  1.1668 -0.0011
  635THF    H1213274   3.471   0.745   0.276  0.0197 -0.5246  1.1226
  635THF    H1313275   3.620   0.688   0.226 -1.5937 -0.4204  0.5753
  636THF     O113276   1.213   0.688   2.495  0.6253 -0.5250 -0.7541
  636THF     C213277   1.124   0.694   2.609 -1.0184  0.6442 -0.9969
  636THF     C313278   1.327   0.761   2.534  0.0039 -0.5108 -0.2671
  636THF     H413279   1.045   0.620   2.593 -1.2845  0.3640  1.2476
  636THF     H513280   1.076   0.792   2.609 -2.9832 -0.2632 -1.2367
  636THF     H613281   1.419   0.725   2.487 -0.6714 -0.2511 -1.8474
  636THF     H713282   1.320   0.865   2.505 -0.7550 -0.0030  1.6341
  636THF     C813283   1.337   0.756   2.688  0.1239  0.2918  1.0852
  636THF     C913284   1.217   0.668   2.728  0.1283 -0.1508 -0.3304
  636THF    H1013285   1.328   0.852   2.739  3.2442  1.0944  0.3450
  636THF    H1113286   1.431   0.719   2.729 -0.5298 -0.2521  2.1259
  636THF    H1213287   1.249   0.564   2.725 -0.4667 -0.3087 -1.9174
  636THF    H1313288   1.170   0.688   2.825 -2.7278 -0.2646 -1.5762
  637THF     O113289   1.281   1.566   2.691 -0.1385 -0.0430  0.2404
  637THF     C213290   1.168   1.485   2.660 -0.0887  0.5384 -0.4240
  637THF     C313291   1.284   1.572   2.837  0.0109 -0.0480 -0.2722
  637THF     H413292   1.180   1.450   2.557  2.4731 -0.1696  0.0291
  637THF     H513293   1.078   1.544   2.672 -0.6834 -0.5877  0.9956
  637THF     H613294   1.380   1.596   2.882 -0.7432  0.0527  1.3535
  637THF     H713295   1.200   1.631   2.872  0.5642  0.8981 -0.5228
  637THF     C813296   1.247   1.426   2.872  0.6466  0.1897 -0.1954
  637THF     C913297   1.166   1.372   2.758 -0.0515  0.5136 -0.7327
  637THF    H1013298   1.191   1.422   2.966  0.6112 -2.7229 -0.2646
  637THF    H1113299   1.331   1.358   2.883 -0.5527 -1.2134  0.8033
  637THF    H1213300   1.209   1.282   2.714 -1.0049 -0.7447  0.7895
  637THF    H1313301   1.070   1.341   2.798  0.1356 -0.7123 -1.1996
  638THF     O113302   1.944   3.880   0.965  0.0817  0.2276  0.3770
  638THF     C213303   1.886   3.895   0.834  0.7177 -0.7217  0.9251
  638THF     C313304   2.038   3.980   0.986 -0.3818 -0.3868  0.3713
  638THF     H413305   1.795   3.836   0.822 -0.6914  1.6302 -0.8482
  638THF     H513306   1.970   3.861   0.773  3.6002  2.4356  2.8199
  638THF     H613307   2.072   3.989   1.090  1.1748  1.0851 -0.2210
  638THF     H713308   2.122   3.967   0.917 -0.0772 -2.4347  1.0553
  638THF     C813309   1.954   4.101   0.943 -0.3238  0.2614  0.6062
  638THF     C913310   1.865   4.048   0.836 -0.2465  0.5903  1.1602
  638THF    H1013311   2.019   4.176   0.897  0.8230 -1.7981 -1.3534
  638THF    H1113312   1.896   4.151   1.020 -0.1874  0.6705  0.4490
  638THF    H1213313   1.766   4.087   0.860  0.9008  4.0569  0.8100
  638THF    H1313314   1.904   4.086   0.742  0.7070 -1.5610  0.6333
  639THF     O113315   0.897   1.693   1.420 -0.7871  0.2351  0.0593
  639THF     C213316   0.893   1.836   1.428  0.5572 -0.3268  0.2381
  639THF     C313317   1.030   1.659   1.386  0.3592 -0.2199 -0.1705
  639THF     H413318   0.934   1.872   1.522  0.3403 -1.9924  1.0013
  639THF     H513319   0.789   1.868   1.421  0.1045 -1.9890 -1.4867
  639THF     H613320   1.080   1.631   1.478 -3.3728  0.9932  2.4837
  639THF     H713321   1.053   1.574   1.323  2.2156 -0.7881  1.2109
  639THF     C813322   1.093   1.781   1.321 -0.3231 -0.2513 -0.1949
  639THF     C913323   0.982   1.872   1.311  0.4407 -0.0049 -0.1706
  639THF    H1013324   1.140   1.754   1.226 -0.3507 -1.2015  0.0502
  639THF    H1113325   1.164   1.818   1.395 -0.0182  0.0092 -0.6128
  639THF    H1213326   1.003   1.979   1.317  0.9910 -0.0986 -0.3924
  639THF    H1313327   0.921   1.855   1.222 -0.4453  1.0501  0.2019
  640THF     O113328   0.789   5.457   3.798 -0.7629 -0.3803 -0.3893
  640THF     C213329   0.664   5.423   3.865 -0.0453  0.4950 -0.0706
  640THF     C313330   0.890   5.419   3.899 -0.3379  0.6520  0.0955
  640THF     H413331   0.585   5.407   3.792 -0.3446 -0.5875  0.4696
  640THF     H513332   0.645   5.511   3.925  1.2064  0.0573  1.0234
  640THF     H613333   0.979   5.378   3.852 -0.7521 -0.4058  0.2040
  640THF     H713334   0.927   5.512   3.942  0.0215  1.7796 -2.5016
  640THF     C813335   0.826   5.326   4.006 -0.3169 -0.3686  0.4674
  640THF     C913336   0.691   5.294   3.945  0.1399  0.3938  0.1565
  640THF    H1013337   0.799   5.383   4.096  0.8046  1.7322 -0.4513
  640THF    H1113338   0.898   5.250   4.039 -2.4597 -3.3729 -1.3131
  640THF    H1213339   0.700   5.208   3.879 -0.8257 -0.2454  0.8268
  640THF    H1313340   0.610   5.263   4.012  0.3480  1.0145  0.7083
  641THF     O113341   2.728   4.966   2.602 -0.5617  0.0954  0.1197
  641THF     C213342   2.813   5.073   2.643  0.4330 -0.4984 -0.4859
  641THF     C313343   2.736   4.856   2.693  0.3212 -0.0996  0.5228
  641THF     H413344   2.765   5.168   2.621 -1.3699 -0.8010  1.8208
  641THF     H513345   2.908   5.077   2.589  0.4618 -0.5092 -0.4364
  641THF     H613346   2.640   4.827   2.736  0.4724 -1.2399  0.1118
  641THF     H713347   2.780   4.780   2.628  0.3537  1.5810 -1.5658
  641THF     C813348   2.847   4.889   2.790  0.5346 -0.3085 -0.0003
  641THF     C913349   2.838   5.042   2.786  0.1948  1.1413  0.5005
  641THF    H1013350   2.944   4.856   2.753 -0.5491 -1.0433 -2.3971
  641THF    H1113351   2.841   4.852   2.893  1.3664  1.0367  0.5547
  641THF    H1213352   2.759   5.089   2.843 -2.1567 -1.4626 -0.3917
  641THF    H1313353   2.924   5.102   2.816 -0.6339  2.1460  0.9292
  642THF     O113354   4.825   3.635   2.760  0.0410  0.1657 -0.4958
  642THF     C213355   4.691   3.676   2.815 -0.0012 -0.2969 -0.1071
  642THF     C313356   4.914   3.750   2.777  0.1777  0.4584 -0.1523
  642THF     H413357   4.637   3.588   2.850  1.2929 -1.2026 -0.3446
  642THF     H513358   4.631   3.723   2.737 -0.6085 -1.8422 -0.6078
  642THF     H613359   5.011   3.720   2.816 -0.0973  0.0063  0.1907
  642THF     H713360   4.935   3.787   2.677 -0.8645  0.0911 -0.5105
  642THF     C813361   4.848   3.854   2.863 -0.8606 -0.0024  0.1438
  642THF     C913362   4.716   3.787   2.916  0.0436 -0.3021  0.2343
  642THF    H1013363   4.826   3.935   2.793 -0.0663  1.4026  1.4599
  642THF    H1113364   4.916   3.881   2.943  1.5617 -0.9245 -1.5051
  642THF    H1213365   4.729   3.741   3.014  1.6428 -2.3649 -0.8573
  642THF    H1313366   4.635   3.859   2.918 -3.0083 -3.4462 -0.3431
  643THF     O113367   5.051   5.169   1.822  0.0179 -0.3786  0.7214
  643THF     C213368   5.068   5.154   1.679  0.3986 -0.9058  0.4411
  643THF     C313369   5.181   5.177   1.883  0.2204  0.1229 -0.1191
  643THF     H413370   4.985   5.210   1.635  0.9566 -0.7662 -0.4632
  643THF     H513371   5.042   5.052   1.650 -2.2129  0.0368 -0.8319
  643THF     H613372   5.180   5.245   1.968 -0.9889  0.3204 -0.2660
  643THF     H713373   5.223   5.080   1.905 -1.1899 -1.0815 -2.3073
  643THF     C813374   5.262   5.252   1.775 -0.7827  0.1745 -0.8418
  643THF     C913375   5.207   5.202   1.641  0.1895  0.5079 -0.2627
  643THF    H1013376   5.368   5.229   1.787 -0.9264  0.7316  2.5032
  643THF    H1113377   5.245   5.358   1.795 -3.8980 -0.5651  1.1132
  643THF    H1213378   5.193   5.279   1.566 -0.8817  0.6284  0.0550
  643THF    H1313379   5.256   5.111   1.607  1.9477  1.2048  0.2746
  644THF     O113380   3.342   4.261   3.076  0.1111 -0.3221  0.1623
  644THF     C213381   3.379   4.143   2.999 -0.2884  0.3336 -0.2763
  644THF     C313382   3.450   4.355   3.071 -0.0813 -0.4292 -0.6648
  644THF     H413383   3.288   4.096   2.960 -0.4529  0.4904 -0.0847
  644THF     H513384   3.427   4.068   3.060 -0.4902 -0.0028 -0.5277
  644THF     H613385   3.433   4.460   3.093  0.2132  0.0355 -2.5400
  644THF     H713386   3.532   4.324   3.136  0.1584  0.2952 -0.6157
  644THF     C813387   3.497   4.345   2.927 -0.1308  0.4114 -0.3592
  644THF     C913388   3.471   4.202   2.883 -0.1045  0.2744 -0.5070
  644THF    H1013389   3.605   4.349   2.917  0.0509 -2.5672 -0.4464
  644THF    H1113390   3.449   4.416   2.861 -3.7035  0.5100  2.0369
  644THF    H1213391   3.420   4.214   2.788  1.8936  0.4642 -1.6112
  644THF    H1313392   3.558   4.137   2.873  1.0523  1.2098  2.3642
  645THF     O113393   4.325   4.485   1.796 -0.8252  1.1913 -0.5637
  645THF     C213394   4.288   4.370   1.873  0.1763  0.2737 -1.3181
  645THF     C313395   4.221   4.580   1.800 -0.0153  0.0755 -0.0649
  645THF     H413396   4.375   4.328   1.924 -0.8008  0.2409  0.4201
  645THF     H513397   4.255   4.292   1.804 -0.2220 -1.2153  0.4572
  645THF     H613398   4.258   4.683   1.799 -2.2784  1.0167  1.9551
  645THF     H713399   4.148   4.565   1.720 -0.7126 -1.5269  0.8460
  645THF     C813400   4.144   4.551   1.934  0.1317 -0.2276  0.1617
  645THF     C913401   4.178   4.401   1.965 -0.1849 -0.5059 -0.0273
  645THF    H1013402   4.037   4.547   1.912  0.2196 -0.8183 -0.1949
  645THF    H1113403   4.175   4.602   2.025 -1.7991 -2.7274  2.3825
  645THF    H1213404   4.204   4.389   2.071  1.6373  1.6040 -0.1754
  645THF    H1313405   4.089   4.340   1.948 -1.5123  1.2000  0.4962
  646THF     O113406   3.133   4.141   5.265  0.2142 -0.7549  0.5328
  646THF     C213407   3.148   4.062   5.146  0.3162 -0.0229 -0.1770
  646THF     C313408   2.996   4.137   5.304 -0.6074 -0.5544 -0.6694
  646THF     H413409   3.257   4.063   5.137  0.4177  1.3251  1.0113
  646THF     H513410   3.132   4.118   5.054  1.3040  0.9578  0.2294
  646THF     H613411   2.984   4.171   5.406  0.8017 -0.3623 -0.5393
  646THF     H713412   2.945   4.208   5.239  0.4928  1.3065  0.3945
  646THF     C813413   2.962   3.991   5.273  0.0666 -0.0498  0.3436
  646THF     C913414   3.067   3.944   5.175 -0.0044  0.9357  0.4745
  646THF    H1013415   2.857   3.982   5.245  0.8146  2.1381 -3.9027
  646THF    H1113416   2.973   3.937   5.367 -0.4626  1.6612  1.4275
  646THF    H1213417   3.136   3.874   5.221  0.9039  2.2891  1.2325
  646THF    H1313418   3.023   3.904   5.083  0.9893 -0.3936  0.5450
  647THF     O113419   1.843   4.098   1.952  0.1509  0.1853 -0.0710
  647THF     C213420   1.850   4.231   1.916 -0.6240 -0.1293 -0.2246
  647THF     C313421   1.958   4.070   2.026  0.5136  0.0308  0.0043
  647THF     H413422   1.748   4.261   1.894 -0.3024  0.5501 -0.8468
  647THF     H513423   1.921   4.242   1.834  0.8698 -1.2014  0.8629
  647THF     H613424   1.950   3.975   2.078 -0.2690  0.4771  0.7214
  647THF     H713425   2.049   4.072   1.965  0.5796  1.6629  0.1057
  647THF     C813426   1.966   4.192   2.125  0.1677  0.0592  0.3018
  647THF     C913427   1.908   4.303   2.042 -0.6512  0.8051 -0.7443
  647THF    H1013428   2.065   4.213   2.165  0.0762 -0.4480  0.7981
  647THF    H1113429   1.897   4.185   2.209 -0.8663  0.7296 -0.4593
  647THF    H1213430   1.822   4.349   2.091  0.3073  0.4043  1.4327
  647THF    H1313431   1.974   4.386   2.016  0.3398  0.4735  0.6467
  648THF     O113432   2.045   5.069   3.635  0.2230 -0.4735 -0.3157
  648THF     C213433   1.956   5.044   3.745  0.2474  0.8088  0.0922
  648THF     C313434   2.127   5.177   3.664  0.2700 -0.4613  0.2808
  648THF     H413435   1.996   4.956   3.797 -0.4821 -2.5837 -4.4237
  648THF     H513436   1.858   5.011   3.710  1.6247 -1.9587 -1.5537
  648THF     H613437   2.217   5.137   3.709 -0.3270 -2.4969 -0.2584
  648THF     H713438   2.163   5.233   3.578 -0.5004  1.5409  1.1958
  648THF     C813439   2.042   5.263   3.752 -0.7500 -0.2061 -0.1353
  648THF     C913440   1.936   5.179   3.822 -0.3782 -0.0674 -0.0497
  648THF    H1013441   2.006   5.339   3.683  3.3459  0.9071 -1.3266
  648THF    H1113442   2.103   5.311   3.829 -2.1566 -0.2682  1.0542
  648THF    H1213443   1.956   5.158   3.927 -0.2684  1.4105  0.2330
  648THF    H1313444   1.832   5.204   3.802 -0.6590 -1.7244 -0.8957
  649THF     O113445   1.609   4.218   3.132 -0.1570 -0.2215 -0.3595
  649THF     C213446   1.476   4.208   3.098  0.6538  0.2541  0.1396
  649THF     C313447   1.683   4.180   3.021  0.5664  0.5185  0.2327
  649THF     H413448   1.419   4.276   3.161  1.5002  1.4421 -0.3475
  649THF     H513449   1.435   4.107   3.105 -0.9347  0.7355 -1.5373
  649THF     H613450   1.781   4.225   3.032  1.3929 -1.3352  0.8531
  649THF     H713451   1.710   4.074   3.012  0.7361  0.4434  1.3633
  649THF     C813452   1.604   4.210   2.897  0.3734  0.4022  0.5961
  649THF     C913453   1.468   4.257   2.951 -0.1358 -0.0698  0.0454
  649THF    H1013454   1.591   4.122   2.834 -0.2147  0.9304 -0.0299
  649THF    H1113455   1.655   4.295   2.851  0.5653 -0.7022 -1.3235
  649THF    H1213456   1.448   4.364   2.950  3.0257  0.6233  0.7189
  649THF    H1313457   1.379   4.207   2.912  1.0054 -2.1292 -0.0844
  650THF     O113458   0.403   4.635   2.772  0.0395  0.4778  0.1088
  650THF     C213459   0.537   4.585   2.790 -0.9272  0.2389  0.5228
  650THF     C313460   0.331   4.578   2.664 -0.3748  0.5464  0.0510
  650THF     H413461   0.589   4.599   2.884  1.3773 -0.9758 -0.4799
  650THF     H513462   0.596   4.639   2.716 -0.2023 -1.2925 -0.0638
  650THF     H613463   0.243   4.527   2.701  0.6610 -1.0508  0.3978
  650THF     H713464   0.307   4.657   2.593  0.5984  1.0494  0.2549
  650THF     C813465   0.431   4.471   2.609  0.6591 -0.0144 -0.0592
  650THF     C913466   0.536   4.449   2.720 -0.5373  0.2795 -0.1607
  650THF    H1013467   0.470   4.505   2.513 -0.2380  0.5517 -0.2288
  650THF    H1113468   0.380   4.377   2.588  2.4613 -0.8573 -0.8464
  650THF    H1213469   0.492   4.377   2.790  3.4785 -0.2495  2.1522
  650THF    H1313470   0.637   4.417   2.696 -0.6469  0.0525 -0.3269
  651THF     O113471   4.563   4.202   2.633  0.0611 -0.1340  0.9229
  651THF     C213472   4.449   4.242   2.555 -0.0881 -0.0480 -0.0773
  651THF     C313473   4.523   4.117   2.738  0.2700  0.5817  0.1515
  651THF     H413474   4.419   4.163   2.486  2.8297 -0.3752 -1.1101
  651THF     H513475   4.464   4.329   2.490  0.5095 -0.6568 -0.7721
  651THF     H613476   4.490   4.016   2.715  0.2040  0.1165  2.0919
  651THF     H713477   4.606   4.111   2.809 -0.8461 -0.5090  1.4028
  651THF     C813478   4.406   4.199   2.789  0.8224 -0.4041  0.0564
  651THF     C913479   4.345   4.268   2.667 -0.8079 -0.2298  0.0402
  651THF    H1013480   4.432   4.279   2.858 -2.7902  0.8481  0.1877
  651THF    H1113481   4.333   4.142   2.847 -1.3664  2.8656  0.7433
  651THF    H1213482   4.244   4.233   2.646 -1.4983 -0.0617  2.7334
  651THF    H1313483   4.329   4.375   2.680 -1.9771 -0.1556 -1.7674
  652THF     O113484   4.397   1.322   0.397  0.5017  0.1271  0.0779
  652THF     C213485   4.278   1.395   0.413  0.6624 -0.0997  0.1858
  652THF     C313486   4.387   1.214   0.484  0.0406  0.2276 -0.0633
  652THF     H413487   4.204   1.347   0.349  0.1282  1.1480 -0.1751
  652THF     H513488   4.307   1.493   0.375 -1.5200  0.5574  0.0568
  652THF     H613489   4.303   1.152   0.452 -1.4827  1.2493  1.7213
  652THF     H713490   4.482   1.162   0.481  0.1182  0.3306 -4.3919
  652THF     C813491   4.342   1.281   0.615  0.5151  0.6491  0.0703
  652THF     C913492   4.252   1.404   0.564  0.1047  0.1761 -0.7606
  652THF    H1013493   4.435   1.323   0.654  0.6217  0.1912  0.3217
  652THF    H1113494   4.289   1.224   0.691  0.6644  0.1331 -0.2037
  652THF    H1213495   4.150   1.391   0.598  0.3936  0.4291  0.2504
  652THF    H1313496   4.292   1.494   0.611 -0.4423 -0.0003  0.0679
  653THF     O113497   3.090   0.767   3.634  0.1162 -0.0006  0.0493
  653THF     C213498   3.055   0.906   3.661 -0.0879  0.3475 -0.3331
  653THF     C313499   2.964   0.695   3.633 -0.3236 -0.6825 -0.4488
  653THF     H413500   3.138   0.977   3.654  0.5961 -0.5579 -2.5678
  653THF     H513501   3.016   0.903   3.762 -0.7159 -2.7248 -0.5798
  653THF     H613502   2.975   0.594   3.594 -1.4027 -0.6530 -0.8617
  653THF     H713503   2.928   0.670   3.733  1.9897 -1.3242  0.2935
  653THF     C813504   2.864   0.789   3.572  0.6594  0.1591 -0.0606
  653THF     C913505   2.937   0.921   3.562  0.7185 -0.0329  0.8996
  653THF    H1013506   2.768   0.786   3.623 -0.3132 -1.1393 -1.8449
  653THF    H1113507   2.841   0.749   3.473  0.1755  0.4735 -0.0787
  653THF    H1213508   2.973   0.944   3.462  0.6589  1.2056  1.1455
  653THF    H1313509   2.864   0.998   3.588  0.1918  0.0872 -0.8424
  654THF     O113510   1.938   0.659   2.089 -0.2100 -0.1116 -0.5096
  654THF     C213511   2.031   0.720   2.176 -0.2019 -0.4146  0.3827
  654THF     C313512   1.836   0.764   2.070  0.1075 -0.0970  0.0069
  654THF     H413513   2.083   0.791   2.111 -0.4318 -0.7334 -0.1584
  654THF     H513514   2.104   0.656   2.224  0.8019 -0.6955 -1.4121
  654THF     H613515   1.863   0.847   2.005 -0.9829  1.7619  1.8144
  654THF     H713516   1.756   0.708   2.022 -0.1723 -0.0018  0.3667
  654THF     C813517   1.812   0.818   2.214 -0.2802 -0.1305  0.4047
  654THF     C913518   1.947   0.790   2.277  0.4872 -0.8212 -0.3854
  654THF    H1013519   1.743   0.753   2.268 -0.7278 -0.7222 -0.8231
  654THF    H1113520   1.781   0.921   2.201 -1.4392 -0.4935  0.1547
  654THF    H1213521   2.005   0.879   2.304  1.3035 -1.1898 -0.8844
  654THF    H1313522   1.938   0.731   2.368 -0.3581 -0.4297 -0.2000
  655THF     O113523   3.082   3.029   1.819  0.1637  0.5204 -0.7583
  655THF     C213524   3.034   2.989   1.699 -0.7501 -0.1197 -0.2193
  655THF     C313525   3.217   3.045   1.802  0.6149 -0.1328  0.4877
  655THF     H413526   2.926   3.000   1.690 -0.6578  0.8715 -0.1967
  655THF     H513527   3.061   2.884   1.684 -0.2326  0.0059 -0.1839
  655THF     H613528   3.247   3.113   1.881  1.3885  0.5163 -0.3540
  655THF     H713529   3.252   2.945   1.828  2.0030  0.3710  0.6005
  655THF     C813530   3.239   3.091   1.655  0.3698 -0.6394 -0.4826
  655THF     C913531   3.097   3.085   1.592 -0.3509  0.3174 -0.7012
  655THF    H1013532   3.299   3.012   1.609  1.6811  0.0474  0.0293
  655THF    H1113533   3.293   3.185   1.644 -0.1195 -0.4782 -1.7620
  655THF    H1213534   3.041   3.178   1.598  0.1468  0.6688 -1.3365
  655THF    H1313535   3.099   3.029   1.499  2.3205  1.0186 -1.1709
  656THF     O113536   2.383   4.003   1.383  0.2840  0.2153  0.0904
  656THF     C213537   2.425   4.128   1.326  0.8326 -0.1228  0.7277
  656THF     C313538   2.480   3.901   1.371 -0.4472 -0.7486 -0.2772
  656THF     H413539   2.457   4.196   1.404  3.2620  0.9408 -1.0727
  656THF     H513540   2.344   4.183   1.278 -0.3732 -1.4140  1.2047
  656THF     H613541   2.536   3.929   1.460 -1.8528  2.4786 -0.2723
  656THF     H713542   2.448   3.797   1.382  1.9019 -1.6847 -1.6203
  656THF     C813543   2.549   3.942   1.238 -0.3252 -0.5489  0.3684
  656THF     C913544   2.534   4.098   1.230  0.0763 -0.0823 -0.0507
  656THF    H1013545   2.497   3.895   1.155  1.6764 -0.0802 -1.2227
  656THF    H1113546   2.654   3.914   1.238 -0.0484  0.4243  0.2191
  656THF    H1213547   2.629   4.146   1.254 -0.6029  0.8101  0.9875
  656THF    H1313548   2.512   4.128   1.127 -1.4470 -1.0112 -0.0316
  657THF     O113549   1.520   5.461   0.842 -0.2039 -0.0023 -0.4648
  657THF     C213550   1.563   5.330   0.845 -0.2281  0.8750  0.3292
  657THF     C313551   1.630   5.539   0.892 -0.0561 -0.5594 -0.3495
  657THF     H413552   1.630   5.295   0.766 -0.1070 -1.6294  1.4391
  657THF     H513553   1.482   5.258   0.853  2.1295 -2.1399 -0.9047
  657THF     H613554   1.695   5.581   0.815 -0.2658  0.4373  0.0131
  657THF     H713555   1.591   5.633   0.930 -0.1498 -1.3816  1.7055
  657THF     C813556   1.687   5.446   1.002 -0.6700 -0.0260  0.2154
  657THF     C913557   1.626   5.317   0.981 -0.3802  0.3696  0.3660
  657THF    H1013558   1.648   5.482   1.097 -1.9238 -0.4422 -0.1242
  657THF    H1113559   1.795   5.452   1.016 -0.5518 -0.1806 -0.5610
  657THF    H1213560   1.704   5.245   1.007 -0.7173  0.5009  1.8412
  657THF    H1313561   1.541   5.307   1.048 -0.1973 -0.8586  0.4471
  658THF     O113562   4.165   0.869   0.974 -0.5647  0.2032 -0.0016
  658THF     C213563   4.214   0.735   0.988  0.4332 -0.0296 -0.1605
  658THF     C313564   4.144   0.898   0.834  0.3336 -0.4239  0.2919
  658THF     H413565   4.129   0.668   0.992 -0.8129  0.9484 -4.4895
  658THF     H513566   4.273   0.712   1.077 -1.1491 -3.7317  0.0918
  658THF     H613567   4.037   0.890   0.811  0.4120 -0.0123 -0.2366
  658THF     H713568   4.167   1.004   0.817 -1.1286  0.8105  4.5679
  658THF     C813569   4.216   0.796   0.751 -0.4300 -0.4203 -0.1617
  658THF     C913570   4.283   0.705   0.856  0.2181  0.2466 -0.4886
  658THF    H1013571   4.289   0.837   0.680 -0.1786 -0.0740  0.2920
  658THF    H1113572   4.148   0.737   0.690  0.3604 -2.6916  1.0325
  658THF    H1213573   4.278   0.600   0.825 -0.2146 -0.2125  1.0753
  658THF    H1313574   4.389   0.730   0.854  0.1713  0.5222  0.1825
  659THF     O113575   2.859   2.686   2.002  0.5569 -0.1934  0.1685
  659THF     C213576   2.791   2.704   2.126 -0.7075  0.3354  0.1393
  659THF     C313577   2.898   2.818   1.964 -0.1437  0.3968  0.1360
  659THF     H413578   2.860   2.683   2.208 -0.2365  1.4335  0.0407
  659THF     H513579   2.707   2.639   2.147 -0.5374 -0.0368 -0.3227
  659THF     H613580   2.996   2.833   2.009 -0.2382 -1.1624  0.9273
  659THF     H713581   2.900   2.832   1.856  0.5166  0.2380  0.1243
  659THF     C813582   2.794   2.915   2.012 -0.3591 -0.4646 -0.1004
  659THF     C913583   2.733   2.846   2.128 -0.5274 -0.2877 -0.0366
  659THF    H1013584   2.716   2.936   1.938 -1.5712 -2.3529  0.5693
  659THF    H1113585   2.845   3.008   2.037  2.0039 -2.6273  4.3584
  659THF    H1213586   2.746   2.897   2.224 -0.9569  1.9299 -1.1043
  659THF    H1313587   2.626   2.837   2.110 -0.5287 -0.2047 -0.0669
  660THF     O113588   1.109   1.366   4.013 -0.0748  0.3111 -0.5697
  660THF     C213589   1.125   1.496   4.072 -0.3257  0.3214 -0.4084
  660THF     C313590   0.974   1.342   3.976  0.7939  0.5411  0.4431
  660THF     H413591   1.198   1.553   4.016  0.3994  2.1046  2.2141
  660THF     H513592   1.164   1.480   4.173  1.8790  1.2588 -1.0631
  660THF     H613593   0.961   1.362   3.870 -1.2762 -2.5197 -0.0203
  660THF     H713594   0.942   1.238   3.988  0.5713  0.6413  0.7351
  660THF     C813595   0.899   1.437   4.070 -0.1630  0.2225  0.5495
  660THF     C913596   0.991   1.556   4.075 -0.2453  0.2700  0.4020
  660THF    H1013597   0.886   1.400   4.172 -0.0284  0.1849  0.5526
  660THF    H1113598   0.799   1.466   4.037 -0.5114  1.3481  2.4239
  660THF    H1213599   0.985   1.628   3.994 -1.1530  1.7249  1.6986
  660THF    H1313600   0.970   1.618   4.162 -1.4430  0.5450 -0.0673
  661THF     O113601   2.576   0.006   2.301  0.0316  0.5821 -0.4248
  661THF     C213602   2.654  -0.102   2.254  0.5619  0.0024  0.2385
  661THF     C313603   2.486  -0.025   2.413  0.0013  0.1346 -0.1641
  661THF     H413604   2.749  -0.092   2.307 -0.2729 -1.7334  2.2077
  661THF     H513605   2.674  -0.104   2.146  2.4504  0.3302  0.5466
  661THF     H613606   2.514   0.030   2.502 -0.8283  3.3888 -1.7669
  661THF     H713607   2.382  -0.004   2.388 -0.3808 -0.6115  0.7566
  661THF     C813608   2.518  -0.171   2.439 -0.4516  0.5136  0.1577
  661THF     C913609   2.585  -0.221   2.305 -0.6012 -0.8254 -0.4722
  661THF    H1013610   2.434  -0.241   2.445 -0.4675  0.5572  0.4421
  661THF    H1113611   2.580  -0.182   2.527  0.0431  2.9459  0.1849
  661THF    H1213612   2.656  -0.301   2.324 -0.1586 -0.3225  0.0098
  661THF    H1313613   2.498  -0.255   2.248 -0.3466 -3.2290  0.4422
  662THF     O113614   2.456   3.568   2.696 -0.5247 -0.0954  0.4368
  662THF     C213615   2.455   3.682   2.613 -0.5835 -0.3837 -0.3143
  662THF     C313616   2.533   3.479   2.620  0.4986  0.4493 -0.2420
  662THF     H413617   2.549   3.736   2.624 -1.0605  0.9004 -1.9259
  662THF     H513618   2.367   3.743   2.633 -0.1564 -0.0007  0.4287
  662THF     H613619   2.638   3.500   2.642  0.8468  0.3203 -1.6441
  662THF     H713620   2.516   3.374   2.644 -3.1685  0.7110 -1.1023
  662THF     C813621   2.530   3.504   2.470 -0.5102  0.0235  0.6517
  662THF     C913622   2.457   3.639   2.470 -0.2744 -0.0948  0.0105
  662THF    H1013623   2.465   3.443   2.408  2.3210 -2.3141 -0.2398
  662THF    H1113624   2.626   3.508   2.418 -0.7678  0.4160  0.1888
  662THF    H1213625   2.502   3.703   2.394  0.3205 -2.6882 -2.0050
  662THF    H1313626   2.355   3.621   2.438 -0.3703  0.5420 -0.0423
  663THF     O113627   2.131   1.095   2.943 -0.2093  0.2448 -0.0142
  663THF     C213628   2.002   1.142   2.915 -0.4468  0.1829  0.4083
  663THF     C313629   2.143   0.983   2.853  0.1595 -0.4368  0.3335
  663THF     H413630   1.987   1.248   2.935  0.5726  0.1360  1.6112
  663THF     H513631   1.929   1.083   2.970 -1.5687  1.8277  0.7626
  663THF     H613632   2.243   0.942   2.838 -0.3367 -0.8382 -2.4156
  663THF     H713633   2.077   0.900   2.877 -0.4670 -0.8898 -2.5585
  663THF     C813634   2.098   1.055   2.720 -0.6654  0.0504  0.2169
  663THF     C913635   1.971   1.119   2.765 -0.5289  0.2537 -0.1187
  663THF    H1013636   2.075   0.986   2.639  0.2707  2.8345 -2.6503
  663THF    H1113637   2.164   1.137   2.690 -1.9869  0.5072 -1.6461
  663THF    H1213638   1.957   1.215   2.715  0.0078  1.4800  1.9314
  663THF    H1313639   1.888   1.050   2.751 -0.0469 -0.4871  0.5269
  664THF     O113640   0.156   3.437   0.345 -0.0452  0.4794 -0.1868
  664THF     C213641   0.089   3.388   0.456 -0.1442 -0.3616  0.1268
  664THF     C313642   0.099   3.366   0.234  0.3566  0.8617 -0.5425
  664THF     H413643  -0.013   3.423   0.473 -1.1210 -2.3248 -1.3022
  664THF     H513644   0.156   3.400   0.541  0.6528  0.2955 -0.5699
  664THF     H613645   0.022   3.428   0.190  0.3742  0.6895 -0.8206
  664THF     H713646   0.170   3.347   0.153  0.2890 -0.2419 -0.3613
  664THF     C813647   0.035   3.233   0.289  0.1360  0.0631 -0.4498
  664THF     C913648   0.074   3.241   0.436 -0.3753  0.4038  0.5767
  664THF    H1013649   0.071   3.144   0.237  0.6769  0.7757 -1.3119
  664THF    H1113650  -0.074   3.227   0.280 -0.1194  2.5941  0.2035
  664THF    H1213651  -0.005   3.200   0.500 -0.3740 -1.2296 -0.4003
  664THF    H1313652   0.169   3.193   0.456  0.7049  1.4260 -1.7435
  665THF     O113653   0.636   1.813   5.007 -0.1889 -0.4763 -0.9842
  665THF     C213654   0.585   1.678   5.027  0.1828 -0.6772 -0.5625
  665THF     C313655   0.529   1.898   4.961 -0.5619  0.4035 -0.8660
  665THF     H413656   0.612   1.664   5.132  0.5200  0.2780 -0.5156
  665THF     H513657   0.639   1.606   4.966  0.6891 -0.1259 -0.7746
  665THF     H613658   0.546   2.002   4.988 -0.8216 -0.3515  2.7225
  665THF     H713659   0.529   1.884   4.853 -1.4839 -2.0363 -0.6040
  665THF     C813660   0.406   1.835   5.019  0.0583  0.5952 -0.1562
  665THF     C913661   0.437   1.691   5.003 -0.1207  0.1421 -0.4477
  665THF    H1013662   0.317   1.870   4.967  0.6375 -0.2438 -1.7707
  665THF    H1113663   0.394   1.854   5.126 -1.3557  0.2980 -0.2347
  665THF    H1213664   0.369   1.634   5.067 -1.1700  1.6663 -0.1516
  665THF    H1313665   0.410   1.662   4.902 -1.0224  2.5187 -0.9617
  666THF     O113666   4.499   4.640   3.674  0.0420  0.3723 -0.3678
  666THF     C213667   4.397   4.555   3.722  0.5708  0.0617  0.1615
  666THF     C313668   4.541   4.725   3.780  0.0479 -0.2914  0.4605
  666THF     H413669   4.437   4.464   3.766  1.8496  0.0498 -0.9574
  666THF     H513670   4.320   4.522   3.652 -1.6258  1.0435  1.9819
  666THF     H613671   4.640   4.689   3.810  0.8219  1.3307 -0.0390
  666THF     H713672   4.544   4.823   3.733  0.8716 -1.2618 -1.6794
  666THF     C813673   4.441   4.711   3.890 -0.2058  0.1900  0.0928
  666THF     C913674   4.320   4.641   3.824  0.7596 -0.7621  0.1056
  666THF    H1013675   4.417   4.809   3.933 -1.3266  0.2396 -0.6009
  666THF    H1113676   4.496   4.662   3.970  1.8719 -0.3957 -1.6266
  666THF    H1213677   4.259   4.576   3.887  1.7760 -1.2406  0.6173
  666THF    H1313678   4.253   4.720   3.790  1.1499 -0.0722  0.9006
  667THF     O113679   4.360   2.506   5.105  0.7115 -0.1653 -0.2059
  667THF     C213680   4.280   2.404   5.042 -0.2667  0.1888 -0.1961
  667THF     C313681   4.440   2.553   4.997  0.0652 -0.1870 -0.5223
  667THF     H413682   4.202   2.458   4.987 -1.2437  0.3253  1.2663
  667THF     H513683   4.229   2.348   5.120 -0.0161 -0.4126 -0.4657
  667THF     H613684   4.387   2.614   4.925  1.0837  0.8684 -0.4011
  667THF     H713685   4.529   2.609   5.027  0.9012 -0.7410 -1.8640
  667THF     C813686   4.474   2.421   4.920 -0.7894 -0.1644  0.1729
  667THF     C913687   4.373   2.317   4.956  0.5053  0.2553 -0.1629
  667THF    H1013688   4.571   2.378   4.943 -0.2439  1.2939  0.6794
  667THF    H1113689   4.477   2.443   4.814  2.9889  1.2134  0.4291
  667THF    H1213690   4.306   2.277   4.879 -1.2133  1.2878  0.7336
  667THF    H1313691   4.427   2.239   5.009 -1.2399 -0.0374  1.2775
  668THF     O113692   1.354   2.283   4.320 -0.5897  0.2638 -0.1105
  668THF     C213693   1.226   2.328   4.358  0.2684  0.2410 -0.6157
  668THF     C313694   1.413   2.207   4.425 -0.1096  0.2246 -0.4857
  668THF     H413695   1.151   2.249   4.349 -0.8426  0.8870  1.8553
  668THF     H513696   1.182   2.404   4.294 -0.0724  1.4277  0.9618
  668THF     H613697   1.364   2.111   4.413  0.5471  0.0720 -2.2318
  668THF     H713698   1.522   2.212   4.419 -0.1358  1.5551 -0.1001
  668THF     C813699   1.363   2.280   4.549 -0.1844 -0.2017 -0.0351
  668THF     C913700   1.245   2.362   4.504  0.3798 -0.5230 -0.5398
  668THF    H1013701   1.430   2.352   4.594 -1.2780  0.0816  1.2052
  668THF    H1113702   1.345   2.208   4.629  3.2920 -0.1060  1.0041
  668THF    H1213703   1.148   2.329   4.540 -0.8972  2.8184 -0.5040
  668THF    H1313704   1.249   2.469   4.528  0.7741 -0.2085 -1.9133
  669THF     O113705   4.017   1.850   4.045 -0.4307 -0.2444  0.9800
  669THF     C213706   3.952   1.960   4.100 -0.7755  0.5269 -0.1670
  669THF     C313707   4.078   1.902   3.925  0.2158  0.4546  0.1161
  669THF     H413708   4.024   2.030   4.144 -0.9489 -0.1449  1.2413
  669THF     H513709   3.881   1.941   4.180 -0.0871  1.9292  0.8297
  669THF     H613710   4.171   1.950   3.957 -0.7613  2.3132  0.3458
  669THF     H713711   4.106   1.813   3.870 -1.1525 -0.0405  0.1829
  669THF     C813712   3.974   1.995   3.863  0.0016  0.4199  0.1291
  669THF     C913713   3.878   2.020   3.979  0.1434 -0.1631  0.4312
  669THF    H1013714   3.935   1.955   3.770 -1.2757  1.4144  0.2135
  669THF    H1113715   4.025   2.087   3.833  0.6443  0.1943  0.4982
  669THF    H1213716   3.860   2.127   3.994 -0.3494 -0.0126 -1.0937
  669THF    H1313717   3.783   1.972   3.959 -0.1586  0.6272 -0.0646
  670THF     O113718   1.153   3.259   1.544  0.3309 -0.4200  0.2822
  670THF     C213719   1.160   3.243   1.684  0.3096  0.9861 -0.5414
  670THF     C313720   1.162   3.133   1.484  0.3914 -0.3043  0.0436
  670THF     H413721   1.069   3.195   1.719  0.7597  0.2085 -0.4164
  670THF     H513722   1.178   3.337   1.737 -1.3264  1.2147 -0.3502
  670THF     H613723   1.065   3.083   1.474  0.6006 -0.6610 -0.2388
  670THF     H713724   1.215   3.137   1.388  1.2907 -0.4880  0.5288
  670THF     C813725   1.240   3.046   1.582  0.1405 -0.3207 -0.4797
  670THF     C913726   1.269   3.143   1.700  0.1133  0.2645 -0.5390
  670THF    H1013727   1.337   3.016   1.542  1.4557  2.1158  0.6785
  670THF    H1113728   1.178   2.961   1.612  0.6391 -0.7663 -0.6985
  670THF    H1213729   1.256   3.090   1.794  1.2340 -0.5953 -0.8496
  670THF    H1313730   1.362   3.201   1.708  0.2565  0.1586 -1.3179
  671THF     O113731   4.119   1.373   3.798  0.7701 -0.6882  0.6034
  671THF     C213732   4.231   1.345   3.726 -0.4389  0.3316 -0.2854
  671THF     C313733   4.065   1.256   3.840 -0.2024 -0.1419 -0.3182
  671THF     H413734   4.280   1.442   3.715 -0.9817  0.8385  1.3896
  671THF     H513735   4.203   1.310   3.627  0.2294 -0.7114 -0.1241
  671THF     H613736   3.991   1.263   3.919 -0.8674 -0.1313 -0.9287
  671THF     H713737   4.013   1.215   3.753 -0.9789  0.5780 -0.2106
  671THF     C813738   4.191   1.165   3.876 -0.4317 -0.0458  0.1835
  671THF     C913739   4.303   1.244   3.814  0.0647  0.0748  0.4563
  671THF    H1013740   4.190   1.063   3.837 -1.6896  0.1580 -0.3871
  671THF    H1113741   4.197   1.154   3.984  0.8917 -2.1599 -0.0656
  671THF    H1213742   4.373   1.296   3.880  0.5378  0.1994 -0.1309
  671THF    H1313743   4.355   1.179   3.744  1.1747 -0.5596  1.8207
  672THF     O113744   1.758   2.953   3.376 -0.1511  0.0576  0.0881
  672THF     C213745   1.874   2.975   3.459 -0.4095  0.0060  0.0331
  672THF     C313746   1.696   2.828   3.408 -0.3433  0.5146 -0.6376
  672THF     H413747   1.848   3.026   3.552  1.3920  1.0426 -0.0041
  672THF     H513748   1.962   3.031   3.426 -0.4925  0.6451  0.8654
  672THF     H613749   1.590   2.844   3.427 -0.0220  1.1953  0.6881
  672THF     H713750   1.706   2.754   3.329 -0.6257  0.8992 -1.0405
  672THF     C813751   1.772   2.778   3.534  0.3514 -0.8273  0.3907
  672THF     C913752   1.911   2.833   3.514  0.1734 -0.4508 -0.0376
  672THF    H1013753   1.765   2.669   3.541 -0.4919 -1.0591 -2.4943
  672THF    H1113754   1.725   2.820   3.623 -0.4521 -1.9125  0.5005
  672THF    H1213755   1.954   2.846   3.613 -0.5053 -1.2457  0.3755
  672THF    H1313756   1.976   2.765   3.457 -0.3848 -1.8376  0.9211
  673THF     O113757   0.978   3.132   1.244  0.4262 -0.1898  0.7172
  673THF     C213758   0.924   3.263   1.233  0.1974 -0.0311 -0.3474
  673THF     C313759   0.928   3.057   1.137  0.4513  0.2213 -0.5353
  673THF     H413760   0.976   3.317   1.154 -0.4035  0.9704 -0.0649
  673THF     H513761   0.915   3.318   1.327  0.6791 -1.6035  0.6675
  673THF     H613762   1.000   3.072   1.057  0.1744 -2.7476 -1.4714
  673THF     H713763   0.922   2.951   1.163 -0.0318  0.6626  1.3108
  673THF     C813764   0.790   3.116   1.104 -0.2212 -0.1100  0.3081
  673THF     C913765   0.774   3.233   1.194  0.0876 -0.0154 -0.3053
  673THF    H1013766   0.710   3.044   1.118 -0.0096 -0.0602  2.0028
  673THF    H1113767   0.788   3.143   0.999  1.9004  1.7154  0.6510
  673THF    H1213768   0.715   3.313   1.150  0.7797  1.0019  0.5794
  673THF    H1313769   0.722   3.213   1.288  0.1744  1.3834  0.0565
  674THF     O113770   4.424   2.217   0.229  0.1726 -0.1235  0.0832
  674THF     C213771   4.339   2.184   0.121 -0.3149 -0.2006 -0.0456
  674THF     C313772   4.376   2.336   0.274 -0.1687 -0.3025 -0.3712
  674THF     H413773   4.345   2.081   0.084  0.6600  0.0446 -0.5875
  674THF     H513774   4.367   2.237   0.030 -0.9470  0.8453  0.3437
  674THF     H613775   4.418   2.359   0.372 -0.9709  1.4282 -0.3978
  674THF     H713776   4.406   2.406   0.196  1.0063 -1.3858 -0.9307
  674THF     C813777   4.223   2.312   0.289 -0.6717  0.0218  0.1093
  674THF     C913778   4.200   2.220   0.177 -0.6894 -0.1180  0.4643
  674THF    H1013779   4.160   2.399   0.271  1.1112  1.0375 -1.6664
  674THF    H1113780   4.210   2.277   0.391  0.6554  3.0137  1.4258
  674THF    H1213781   4.160   2.132   0.228  0.5832 -0.2355  1.2929
  674THF    H1313782   4.124   2.247   0.104  0.8354  1.9708 -0.4603
  675THF     O113783   0.825   1.587   3.505 -0.8071  0.0525  0.4062
  675THF     C213784   0.925   1.527   3.579  0.0269  0.1372 -0.9096
  675THF     C313785   0.883   1.662   3.397 -0.3684  0.1520 -0.7054
  675THF     H413786   0.873   1.447   3.633  0.6531  0.3063 -0.0456
  675THF     H513787   0.977   1.593   3.647  0.4800 -0.5822 -0.5478
  675THF     H613788   0.811   1.680   3.317  1.1219  1.8685 -1.7375
  675THF     H713789   0.932   1.752   3.432  0.7946 -0.8044  0.2085
  675THF     C813790   0.980   1.547   3.350  0.6430 -0.6709  0.4936
  675THF     C913791   1.024   1.472   3.477  0.2783 -0.4663 -0.0503
  675THF    H1013792   1.058   1.589   3.288  1.5634 -1.7961  0.8595
  675THF    H1113793   0.934   1.480   3.277  1.1231 -1.0668  0.5538
  675THF    H1213794   1.014   1.365   3.461 -1.6296 -0.6669  2.0274
  675THF    H1313795   1.126   1.507   3.493 -0.5664  2.1422  0.0534
  676THF     O113796   2.923   5.232   3.686  0.4589 -0.1338 -0.0513
  676THF     C213797   2.978   5.185   3.814 -0.1297  0.6703 -0.0739
  676THF     C313798   3.028   5.255   3.594  0.1082 -0.5694  0.5589
  676THF     H413799   2.945   5.084   3.834 -0.0688  0.4152 -1.2130
  676THF     H513800   2.933   5.240   3.897 -1.7080 -2.0782  0.9953
  676THF     H613801   2.993   5.236   3.492  0.9256  0.6861  0.0194
  676THF     H713802   3.052   5.361   3.586 -1.1771 -0.3545 -0.9968
  676THF     C813803   3.141   5.178   3.650  0.6608 -0.0208  0.2811
  676THF     C913804   3.125   5.176   3.801 -0.3618  1.0025  0.3146
  676THF    H1013805   3.237   5.217   3.616  1.4609 -0.4571  1.9403
  676THF    H1113806   3.127   5.079   3.607 -2.3255  0.6994 -0.6351
  676THF    H1213807   3.158   5.078   3.836 -0.6183  0.5878 -0.5862
  676THF    H1313808   3.174   5.253   3.861  0.0986  0.9764 -0.0256
  677THF     O113809   2.236   4.402   1.120  0.3484 -0.1509 -0.9209
  677THF     C213810   2.117   4.440   1.180  0.9343  0.1524 -0.4007
  677THF     C313811   2.340   4.473   1.179  0.0525 -0.6008  0.1365
  677THF     H413812   2.038   4.367   1.159  0.0360  1.1994 -0.7947
  677THF     H513813   2.086   4.535   1.138 -1.6019 -0.2973  0.2817
  677THF     H613814   2.441   4.441   1.153 -0.1593 -1.0618 -0.1335
  677THF     H713815   2.343   4.575   1.141 -2.0132 -0.1974  0.9407
  677THF     C813816   2.302   4.477   1.333 -0.3971  0.2194  0.3961
  677THF     C913817   2.147   4.457   1.329  0.0950  0.2565  0.2876
  677THF    H1013818   2.332   4.569   1.382 -0.9231  0.4257  0.3391
  677THF    H1113819   2.341   4.391   1.387 -1.7895  0.4950  1.9273
  677THF    H1213820   2.133   4.357   1.371 -1.1541 -0.3189 -1.3861
  677THF    H1313821   2.076   4.532   1.362 -1.2150 -0.0951 -1.5678
  678THF     O113822   4.652   5.115   2.535  0.0073  0.4481 -0.1098
  678THF     C213823   4.531   5.170   2.480 -0.2951 -0.0288  0.0707
  678THF     C313824   4.744   5.071   2.428  0.0356 -0.3340 -0.6483
  678THF     H413825   4.526   5.275   2.508 -0.9459 -0.0486  0.0437
  678THF     H513826   4.443   5.124   2.526  0.1229  0.8435  1.8575
  678THF     H613827   4.843   5.103   2.460 -2.2896  4.5567  3.0051
  678THF     H713828   4.753   4.965   2.407  1.4567 -0.1865 -0.9438
  678THF     C813829   4.691   5.139   2.299  0.6115  0.0409  0.0066
  678THF     C913830   4.542   5.150   2.327 -0.0845 -0.6827 -0.1170
  678THF    H1013831   4.695   5.079   2.207 -2.5835  0.4060 -0.4904
  678THF    H1113832   4.735   5.235   2.271  0.0830  0.8863  1.9396
  678THF    H1213833   4.479   5.218   2.269 -0.5984 -1.2740 -0.2593
  678THF    H1313834   4.502   5.052   2.304 -0.5223 -0.1561 -1.7885
  679THF     O113835   2.943   5.173   0.570 -0.1436 -0.0871  0.2489
  679THF     C213836   2.922   5.101   0.688 -0.0539 -0.1711  1.1327
  679THF     C313837   2.824   5.257   0.551  0.0946 -0.3797  0.2360
  679THF     H413838   3.016   5.057   0.723 -0.2720 -0.0884  1.8391
  679THF     H513839   2.861   5.014   0.665 -2.2301  0.3692  4.2021
  679THF     H613840   2.837   5.345   0.487 -0.6667 -0.0785  0.4854
  679THF     H713841   2.742   5.200   0.508 -0.3180  0.6368 -0.3795
  679THF     C813842   2.788   5.296   0.694  0.1144  0.3023  0.2266
  679THF     C913843   2.874   5.209   0.788  0.7919 -0.3380  0.8503
  679THF    H1013844   2.682   5.272   0.703 -0.3865  1.9551 -0.8766
  679THF    H1113845   2.787   5.404   0.706  0.0299  0.3228  0.0469
  679THF    H1213846   2.947   5.280   0.826 -0.0905  0.1605  1.6613
  679THF    H1313847   2.806   5.174   0.866 -1.4467  1.7099 -0.0561
  680THF     O113848   3.136   1.303   0.090 -0.4377  0.0421 -0.1598
  680THF     C213849   3.218   1.200   0.145 -0.1579 -0.1032 -0.2502
  680THF     C313850   3.075   1.368   0.199 -0.0894  0.2985 -0.6072
  680THF     H413851   3.318   1.225   0.110 -0.4264 -1.1260 -1.8960
  680THF     H513852   3.181   1.106   0.102 -0.8802 -0.7657  1.7018
  680THF     H613853   3.079   1.475   0.181  0.5657  0.5529  0.9071
  680THF     H713854   2.970   1.338   0.210 -0.0068 -1.0386 -2.7769
  680THF     C813855   3.166   1.338   0.317 -0.0843  0.7163 -1.1670
  680THF     C913856   3.199   1.195   0.294 -0.4525  0.3345  0.2260
  680THF    H1013857   3.116   1.355   0.412  0.6751  3.0708 -1.1178
  680THF    H1113858   3.256   1.398   0.325  1.1674 -1.0441 -1.4835
  680THF    H1213859   3.288   1.168   0.351 -0.3741  1.2362  0.5550
  680THF    H1313860   3.113   1.133   0.321 -0.6173  1.0183  1.3702
  681THF     O113861   1.506   2.005   3.036 -0.0437 -0.1022  0.4061
  681THF     C213862   1.453   1.904   2.952 -0.0819  0.6032 -0.0773
  681THF     C313863   1.416   2.108   3.047  0.8721 -0.5320  0.4856
  681THF     H413864   1.463   1.802   2.991  0.3614  0.1762 -1.2781
  681THF     H513865   1.512   1.919   2.862 -2.8456 -0.4478 -2.2101
  681THF     H613866   1.439   2.174   3.130  0.5296  0.1965  0.0130
  681THF     H713867   1.433   2.169   2.958 -0.5902 -0.8725 -0.0592
  681THF     C813868   1.284   2.033   3.041  0.1224 -0.2113  0.2172
  681THF     C913869   1.309   1.943   2.920 -0.1066  0.2605 -0.0211
  681THF    H1013870   1.201   2.102   3.031 -0.1758 -0.5891  0.0568
  681THF    H1113871   1.290   1.982   3.137  1.9180 -1.2101 -0.3613
  681THF    H1213872   1.233   1.865   2.916  0.9437 -0.7483 -1.0381
  681THF    H1313873   1.318   2.001   2.828  2.0420 -1.1040 -0.7346
  682THF     O113874   1.547   4.032   4.640 -0.0651 -0.0868 -0.1318
  682THF     C213875   1.546   4.084   4.767 -0.4676  0.0939 -0.1583
  682THF     C313876   1.495   4.127   4.546  0.0991  0.4916 -0.2116
  682THF     H413877   1.600   4.012   4.829  3.3954  3.5163  0.8849
  682THF     H513878   1.447   4.104   4.806 -0.2202 -0.8615  1.0143
  682THF     H613879   1.551   4.118   4.453 -1.0798  0.5111 -0.9371
  682THF     H713880   1.388   4.112   4.529  0.2392  0.5030 -1.1753
  682THF     C813881   1.513   4.258   4.615 -0.0259 -0.0137  0.4915
  682THF     C913882   1.592   4.228   4.741 -0.0023  0.6184 -0.2056
  682THF    H1013883   1.417   4.303   4.642 -1.1242 -2.2483  0.6023
  682THF    H1113884   1.562   4.336   4.557 -0.2410 -0.3785 -0.2014
  682THF    H1213885   1.700   4.227   4.727  0.0063  1.4132 -0.1938
  682THF    H1313886   1.576   4.286   4.831  1.1141 -2.0581  1.8517
  683THF     O113887   0.458   5.042   3.974 -0.3657 -0.0512 -0.1402
  683THF     C213888   0.463   4.943   4.073  0.0240 -0.4872 -0.1577
  683THF     C313889   0.493   4.984   3.852  0.1531 -0.2957 -0.0423
  683THF     H413890   0.368   4.891   4.062  0.5789 -1.4565 -0.5340
  683THF     H513891   0.480   4.984   4.173 -0.7189 -2.2055  0.7124
  683THF     H613892   0.412   4.918   3.818  0.0981 -0.0614 -0.3771
  683THF     H713893   0.513   5.053   3.770  0.6240 -0.1946  0.1590
  683THF     C813894   0.608   4.898   3.892  0.4359 -0.2004  0.5959
  683THF     C913895   0.572   4.850   4.025 -0.3289  0.5902 -0.3850
  683THF    H1013896   0.691   4.965   3.914 -1.2497  1.5035  2.0765
  683THF    H1113897   0.620   4.816   3.821  1.2664 -2.1875  2.8888
  683THF    H1213898   0.543   4.745   4.021 -1.3204  0.7800  1.0284
  683THF    H1313899   0.654   4.848   4.096 -1.6140 -0.7537  1.1594
  684THF     O113900   3.676   3.184   4.617 -0.2003 -0.6067 -0.1226
  684THF     C213901   3.731   3.179   4.488  0.3248  0.3031 -0.4335
  684THF     C313902   3.780   3.180   4.719  0.4162 -0.3298  0.6151
  684THF     H413903   3.739   3.285   4.466  0.2028  0.2678 -0.6574
  684THF     H513904   3.671   3.128   4.412  0.4932  0.3966 -0.6291
  684THF     H613905   3.775   3.279   4.764 -1.3392  1.6552 -3.3662
  684THF     H713906   3.776   3.107   4.800  2.9713 -0.1278  0.9955
  684THF     C813907   3.914   3.186   4.638  0.3918  0.1799 -0.0816
  684THF     C913908   3.875   3.127   4.503 -0.1980  0.0548 -0.0271
  684THF    H1013909   3.992   3.139   4.698  1.8837  1.3501 -1.0536
  684THF    H1113910   3.930   3.293   4.625  1.0410 -0.1575 -2.6525
  684THF    H1213911   3.945   3.155   4.424  0.2516  1.4483  0.8197
  684THF    H1313912   3.875   3.019   4.515  0.9142  0.0975  0.5342
  685THF     O113913   5.229   1.681   3.858 -0.4407  0.2068  0.7022
  685THF     C213914   5.326   1.613   3.936  0.1430 -0.1480 -0.0805
  685THF     C313915   5.285   1.703   3.733 -0.2076 -0.6252  0.5545
  685THF     H413916   5.318   1.505   3.933  0.9958 -0.1906 -1.6776
  685THF     H513917   5.318   1.634   4.043  0.0685  2.7556 -0.5647
  685THF     H613918   5.310   1.611   3.680  0.7957 -1.2235  2.0130
  685THF     H713919   5.229   1.769   3.667  1.2083 -0.0901 -0.1637
  685THF     C813920   5.428   1.756   3.762 -0.1345  0.3499 -0.0094
  685THF     C913921   5.463   1.670   3.888  0.2743  0.6911 -0.0457
  685THF    H1013922   5.427   1.856   3.806  1.2834  0.0326  0.8074
  685THF    H1113923   5.493   1.757   3.675 -0.1709 -0.2581 -0.0477
  685THF    H1213924   5.537   1.595   3.860 -1.1319  0.2046 -2.7689
  685THF    H1313925   5.504   1.753   3.946 -1.9530  2.3145 -0.6622
  686THF     O113926   4.469   3.328   4.667  0.4590  0.0029 -0.4658
  686THF     C213927   4.349   3.338   4.591  0.3498 -0.4146  0.2201
  686THF     C313928   4.428   3.312   4.807  0.6179  0.2729  0.4734
  686THF     H413929   4.325   3.239   4.553 -1.5850 -0.1684  0.6921
  686THF     H513930   4.364   3.406   4.507 -1.5296 -2.7820 -2.2020
  686THF     H613931   4.467   3.220   4.849 -2.1037  0.3802  3.7216
  686THF     H713932   4.464   3.393   4.870  1.1566  1.1850 -0.9596
  686THF     C813933   4.276   3.322   4.820 -0.3220 -0.0264  0.1826
  686THF     C913934   4.251   3.394   4.688  0.6338  0.0708 -0.8402
  686THF    H1013935   4.227   3.366   4.906  1.4157  0.7699  0.8076
  686THF    H1113936   4.230   3.224   4.806 -0.1031 -0.1962  0.6429
  686THF    H1213937   4.148   3.370   4.662  0.8270 -1.6844 -0.0836
  686THF    H1313938   4.264   3.502   4.695  0.3141  0.1433 -1.3459
  687THF     O113939   4.660   2.177   3.537  0.1100 -0.1922 -1.1605
  687THF     C213940   4.591   2.059   3.506  0.5136  0.0719 -0.6427
  687THF     C313941   4.575   2.251   3.623 -0.7803 -0.2902 -0.1925
  687THF     H413942   4.657   1.978   3.474  2.3993  0.2466  2.4651
  687THF     H513943   4.515   2.073   3.428 -1.1128 -2.1447  0.4254
  687THF     H613944   4.629   2.329   3.677 -1.3530  0.0231 -0.0714
  687THF     H713945   4.499   2.295   3.558 -0.7836  1.8799  1.1675
  687THF     C813946   4.539   2.142   3.727 -0.3617 -0.5243  0.1305
  687THF     C913947   4.513   2.025   3.634  0.1127  0.5685  0.4242
  687THF    H1013948   4.445   2.159   3.778 -0.2240  1.2750 -0.1534
  687THF    H1113949   4.619   2.130   3.800  1.9263 -0.0665 -2.1685
  687THF    H1213950   4.555   1.932   3.671  1.1839  0.6462 -0.5544
  687THF    H1313951   4.410   2.000   3.611  0.6519  0.6746 -2.6114
  688THF     O113952   4.239   4.223   3.640  0.5698  0.0081  0.5063
  688THF     C213953   4.117   4.226   3.566  0.0781 -0.3476 -0.0783
  688THF     C313954   4.222   4.143   3.754  0.5125 -0.7924 -0.5170
  688THF     H413955   4.113   4.133   3.511 -1.9843 -0.1455 -0.3614
  688THF     H513956   4.120   4.312   3.499 -0.2627  1.6847  2.3619
  688THF     H613957   4.210   4.039   3.725 -0.7800 -0.9595  0.5405
  688THF     H713958   4.287   4.145   3.841  0.0244  1.6359 -0.1282
  688THF     C813959   4.085   4.184   3.794 -0.3644  0.3545 -0.0497
  688THF     C913960   4.014   4.221   3.673 -0.1601  0.8174 -0.2968
  688THF    H1013961   4.088   4.272   3.859 -0.2634 -0.2604  0.8026
  688THF    H1113962   4.031   4.112   3.856 -1.4852  1.1398 -0.0828
  688THF    H1213963   3.938   4.146   3.652 -0.9094  1.7355 -0.9109
  688THF    H1313964   3.959   4.313   3.693 -0.4193  0.6065 -0.0463
  689THF     O113965   4.194   5.190   3.417 -0.4119  0.2601  0.0556
  689THF     C213966   4.178   5.131   3.288  0.0191  0.1818  0.0904
  689THF     C313967   4.104   5.304   3.431  0.0326 -0.0778 -0.2097
  689THF     H413968   4.127   5.036   3.298 -0.9676  0.7412  0.5020
  689THF     H513969   4.266   5.140   3.224  0.5213 -2.1668  0.3781
  689THF     H613970   4.075   5.307   3.536  0.8477  0.0920  0.0209
  689THF     H713971   4.148   5.400   3.403 -0.0337  0.1421  0.4365
  689THF     C813972   3.994   5.267   3.333  0.1038  0.4138  0.3827
  689THF     C913973   4.066   5.207   3.214  0.3589  0.2881  0.2006
  689THF    H1013974   3.943   5.358   3.302  0.7757  0.3080 -1.1128
  689THF    H1113975   3.932   5.194   3.386 -0.8438  0.8314 -0.1181
  689THF    H1213976   4.008   5.141   3.150  2.8545 -1.4613 -0.4139
  689THF    H1313977   4.097   5.283   3.143 -0.8524  0.7531  0.1398
  690THF     O113978   3.437   4.289   1.769 -0.2036  0.5723 -0.0188
  690THF     C213979   3.371   4.228   1.881 -0.0667  0.3845  0.5104
  690THF     C313980   3.360   4.408   1.730 -0.2546  0.6669 -0.3536
  690THF     H413981   3.411   4.278   1.969  0.0399 -0.3309  0.8738
  690THF     H513982   3.397   4.122   1.882 -0.3300  0.3072 -0.2869
  690THF     H613983   3.385   4.490   1.798  0.4392  0.6391 -0.5736
  690THF     H713984   3.385   4.443   1.630 -0.2737 -0.1076 -0.6379
  690THF     C813985   3.218   4.368   1.752 -0.5776 -0.2027 -0.6099
  690THF     C913986   3.223   4.259   1.861 -0.2087  0.7474 -1.0216
  690THF    H1013987   3.167   4.327   1.664 -0.7369 -0.4098 -0.4206
  690THF    H1113988   3.167   4.458   1.787  1.2482  0.7268 -0.1967
  690THF    H1213989   3.181   4.301   1.952  0.7336  0.6324 -0.5117
  690THF    H1313990   3.154   4.180   1.833 -1.4582  2.2313 -2.3372
  691THF     O113991   1.825   5.490   4.568  0.2984  0.1559 -0.2220
  691THF     C213992   1.745   5.459   4.682 -0.0038  0.5304 -0.4801
  691THF     C313993   1.891   5.614   4.583 -0.0399 -0.3732 -0.1349
  691THF     H413994   1.812   5.418   4.757  1.0299  1.2575 -0.9788
  691THF     H513995   1.665   5.386   4.667  0.8726 -0.8456  1.1242
  691THF     H613996   1.998   5.602   4.600 -0.2282  1.2159  2.8538
  691THF     H713997   1.881   5.675   4.493  1.2614 -0.4373 -0.3439
  691THF     C813998   1.830   5.672   4.713  0.0734 -0.1950 -0.6829
  691THF     C913999   1.697   5.602   4.715  0.0966 -0.6244  0.4588
  691THF    H1014000   1.822   5.780   4.725 -1.0785 -0.2633 -0.7189
  691THF    H1114001   1.900   5.643   4.791 -1.4326  0.2888  0.8858
  691THF    H1214002   1.632   5.619   4.802 -2.1798  0.7503 -1.3995
  691THF    H1314003   1.633   5.630   4.632  0.2827  2.1493  1.1664
  692THF     O114004   5.440   4.366   5.073  0.4890  0.0317 -0.0605
  692THF     C214005   5.376   4.437   4.968 -0.0019  0.1189 -0.2511
  692THF     C314006   5.499   4.450   5.162 -0.4274  0.6563 -0.3416
  692THF     H414007   5.292   4.384   4.922  1.4098 -0.3810 -2.3977
  692THF     H514008   5.437   4.472   4.885  1.5681 -1.8915 -0.0111
  692THF     H614009   5.525   4.396   5.253 -0.8526  0.9449 -0.0494
  692THF     H714010   5.597   4.481   5.125  0.7446 -0.4862  1.6152
  692THF     C814011   5.389   4.558   5.178  0.0648 -1.1003 -0.2390
  692THF     C914012   5.304   4.543   5.047  0.3302  0.9464  0.2597
  692THF    H1014013   5.431   4.659   5.185 -2.1491 -0.1475  0.0669
  692THF    H1114014   5.310   4.543   5.251 -0.1618 -1.5236 -0.5726
  692THF    H1214015   5.204   4.510   5.078  1.0794  0.2132  2.0301
  692THF    H1314016   5.292   4.639   4.996  0.7944  1.2634  0.7259
  693THF     O114017   2.416   1.335   5.411  0.4129  0.7186 -0.1914
  693THF     C214018   2.276   1.307   5.416 -0.6657  0.5559 -0.0093
  693THF     C314019   2.427   1.466   5.359 -0.5561 -0.1224 -0.7381
  693THF     H414020   2.240   1.350   5.509 -1.0820 -2.9420  1.6383
  693THF     H514021   2.272   1.198   5.426 -1.5018  0.3931 -1.7038
  693THF     H614022   2.390   1.539   5.431 -1.8526 -0.1373 -1.3566
  693THF     H714023   2.525   1.498   5.323 -0.1012  0.3285  0.8413
  693THF     C814024   2.328   1.454   5.240 -0.5304  0.0442  0.3202
  693THF     C914025   2.219   1.360   5.286  0.2512  0.7406 -0.2728
  693THF    H1014026   2.385   1.407   5.160 -2.1469  0.3234 -1.0257
  693THF    H1114027   2.302   1.555   5.211  2.2540  1.5599  2.5238
  693THF    H1214028   2.125   1.411   5.307 -0.2763 -0.0226 -0.7207
  693THF    H1314029   2.193   1.286   5.210  1.3753 -0.1807  0.2021
  694THF     O114030   2.612   0.665   2.851  0.5072 -0.1702 -0.3291
  694THF     C214031   2.470   0.635   2.847 -0.3805 -0.1246 -1.1654
  694THF     C314032   2.651   0.676   2.718 -0.2954 -0.0452  0.5072
  694THF     H414033   2.436   0.649   2.949 -0.2672 -0.6195 -1.0571
  694THF     H514034   2.454   0.531   2.817  1.1451 -0.7502  0.0707
  694THF     H614035   2.722   0.755   2.693 -2.2707  0.5017 -4.3953
  694THF     H714036   2.700   0.589   2.675 -0.6359 -0.0077  0.0355
  694THF     C814037   2.527   0.708   2.636 -0.5267 -0.2197  0.1797
  694THF     C914038   2.421   0.731   2.738 -0.5651  0.4469  1.0268
  694THF    H1014039   2.500   0.623   2.573 -0.9461 -0.3600  0.5458
  694THF    H1114040   2.542   0.799   2.578 -1.1057  0.6492  1.3548
  694THF    H1214041   2.426   0.836   2.767 -0.2356 -0.1693  3.4149
  694THF    H1314042   2.320   0.707   2.706 -0.1891  0.6511 -0.3708
  695THF     O114043   3.338   2.796   4.480 -0.1047 -0.5765 -0.0387
  695THF     C214044   3.389   2.916   4.536  0.4999  0.0068 -0.2454
  695THF     C314045   3.212   2.776   4.531 -0.4608  0.1924  0.3710
  695THF     H414046   3.354   2.994   4.468 -0.2980  0.7215  0.9635
  695THF     H514047   3.498   2.911   4.542  0.4241  0.4329  4.0717
  695THF     H614048   3.143   2.837   4.472  0.2470  0.5235 -0.1197
  695THF     H714049   3.197   2.669   4.516  0.5798 -0.3258  2.6062
  695THF     C814050   3.219   2.825   4.682  0.6731  0.5460 -0.8315
  695THF     C914051   3.333   2.921   4.678 -0.3830  0.2837  0.2710
  695THF    H1014052   3.264   2.746   4.742  0.1844 -0.4128 -1.6892
  695THF    H1114053   3.123   2.856   4.723  0.7292 -0.5595  0.1713
  695THF    H1214054   3.293   3.022   4.685  1.2211  1.0576 -0.9416
  695THF    H1314055   3.412   2.919   4.752  0.1932 -1.4951 -0.3547
  696THF     O114056   4.405   4.265   5.019 -0.0154 -0.0540  0.2326
  696THF     C214057   4.505   4.278   4.925  0.2442  0.0208 -0.4674
  696THF     C314058   4.333   4.144   5.004 -0.0702  0.7444  0.1160
  696THF     H414059   4.589   4.222   4.966  0.5212  2.0720  2.0100
  696THF     H514060   4.536   4.380   4.904  2.2145 -0.1820  1.1117
  696THF     H614061   4.372   4.070   5.073 -1.6288 -1.0164 -0.8066
  696THF     H714062   4.228   4.146   5.035 -0.5874 -2.3683 -1.1058
  696THF     C814063   4.359   4.110   4.857 -0.3763 -0.0474  0.4047
  696THF     C914064   4.448   4.218   4.797 -0.1577  1.1248  0.8572
  696THF    H1014065   4.260   4.124   4.813 -0.8990 -0.0368  1.5449
  696THF    H1114066   4.399   4.009   4.844  1.4000  0.3916  1.9973
  696THF    H1214067   4.524   4.173   4.733 -0.1677 -1.2295  2.3901
  696THF    H1314068   4.391   4.286   4.734  0.0868  0.9439  0.4378
  697THF     O114069   5.328   3.566   1.811  0.2306  0.7230 -0.7077
  697THF     C214070   5.350   3.445   1.748  0.2301  0.8928 -0.4600
  697THF     C314071   5.410   3.568   1.926 -0.2865 -0.2013  0.3296
  697THF     H414072   5.435   3.444   1.680  1.8249  0.6049  1.4654
  697THF     H514073   5.259   3.428   1.689 -0.3307  3.8732 -0.5831
  697THF     H614074   5.513   3.589   1.900 -0.6622  0.9302 -0.3332
  697THF     H714075   5.363   3.641   1.993 -1.9813  1.5176 -2.4983
  697THF     C814076   5.389   3.431   1.985 -0.4750  0.2279  0.3788
  697THF     C914077   5.380   3.342   1.860  0.3656 -0.2567  0.6558
  697THF    H1014078   5.302   3.398   2.043 -1.0682 -1.2550 -1.2737
  697THF    H1114079   5.481   3.407   2.039 -0.4497  0.1980  0.3231
  697THF    H1214080   5.478   3.295   1.845 -0.4801 -1.5317 -1.2253
  697THF    H1314081   5.303   3.267   1.874  2.4821 -2.2183  2.9018
  698THF     O114082   5.033   0.376   2.136 -0.2311 -0.5014  0.2284
  698THF     C214083   4.963   0.448   2.242 -0.2878  0.2709 -0.5495
  698THF     C314084   4.925   0.318   2.064  0.6188 -0.3356 -0.6889
  698THF     H414085   4.925   0.542   2.203  1.6214  1.2323 -0.1728
  698THF     H514086   5.027   0.458   2.329 -2.6243  1.0339  1.1796
  698THF     H614087   4.878   0.395   2.003  0.1016 -0.1770 -0.1021
  698THF     H714088   4.970   0.243   1.999  1.6837 -0.0605 -0.2741
  698THF     C814089   4.821   0.266   2.162 -0.4609 -0.2920  0.7277
  698THF     C914090   4.834   0.367   2.270  0.3152 -0.2646 -0.6288
  698THF    H1014091   4.843   0.166   2.198 -0.4370 -0.5080  0.1256
  698THF    H1114092   4.725   0.282   2.112  0.1999  1.0183 -0.1754
  698THF    H1214093   4.750   0.435   2.285 -0.1510 -0.9612 -0.0301
  698THF    H1314094   4.848   0.314   2.365 -1.9773 -0.4286 -0.3157
  699THF     O114095   0.786   2.965   2.621  0.4447 -0.4092 -0.4427
  699THF     C214096   0.856   2.978   2.744  0.1681 -0.1455  0.0855
  699THF     C314097   0.837   3.045   2.519 -0.3928 -0.5418 -0.1616
  699THF     H414098   0.834   2.904   2.821 -1.0329  0.8081  0.6808
  699THF     H514099   0.823   3.073   2.786  2.0670  0.8528 -0.5598
  699THF     H614100   0.810   3.003   2.422 -0.2121 -0.6932 -0.1477
  699THF     H714101   0.795   3.145   2.526  1.8483  0.4357  0.3284
  699THF     C814102   0.982   3.043   2.562 -0.0956 -0.7183  0.3057
  699THF     C914103   0.997   2.997   2.703  0.0173 -0.0200 -0.0276
  699THF    H1014104   1.026   3.139   2.538 -0.4204 -0.4117  0.9153
  699THF    H1114105   1.043   2.981   2.496  0.3405  0.2844 -0.2412
  699THF    H1214106   1.049   2.902   2.715  0.5878  0.5796  3.1244
  699THF    H1314107   1.047   3.064   2.773 -1.4673  0.7311  0.3558
  700THF     O114108   0.957   4.934   1.083  0.4357  0.5315  0.1453
  700THF     C214109   0.991   4.802   1.046  0.4710  0.4140  0.4550
  700THF     C314110   0.873   4.917   1.189 -0.0652 -0.1279  0.1218
  700THF     H414111   1.077   4.797   0.979  1.2591  0.9762  1.3877
  700THF     H514112   0.910   4.759   0.988 -0.2908  0.6000  1.3485
  700THF     H614113   0.856   5.002   1.255  0.2780  0.3549 -0.4133
  700THF     H714114   0.773   4.889   1.155  0.3792 -2.0744  0.2680
  700THF     C814115   0.945   4.821   1.280 -0.4284  0.1684 -0.9025
  700THF     C914116   1.025   4.738   1.178  0.0058 -0.0113 -0.3139
  700THF    H1014117   0.876   4.761   1.339 -2.3399  0.2177 -2.9543
  700THF    H1114118   1.009   4.871   1.352 -1.3865 -1.2514  1.0317
  700THF    H1214119   1.133   4.740   1.187  0.2550 -2.1073 -2.0522
  700THF    H1314120   0.999   4.632   1.183 -0.6485  0.1846  2.5277
  701THF     O114121   0.699   1.309   4.395 -0.6398  0.2914  0.3169
  701THF     C214122   0.644   1.194   4.327  0.0879  0.1602  0.5589
  701THF     C314123   0.771   1.253   4.505  0.6146 -0.0676 -0.0688
  701THF     H414124   0.600   1.212   4.229  2.3901 -1.4940 -0.8681
  701THF     H514125   0.568   1.141   4.385  0.0807 -1.0926 -0.5546
  701THF     H614126   0.844   1.321   4.550 -0.3595  1.2737 -0.4626
  701THF     H714127   0.705   1.208   4.579  1.5954  0.0340  0.8961
  701THF     C814128   0.850   1.142   4.430 -0.0068  0.2264  0.5178
  701THF     C914129   0.765   1.111   4.310 -0.3118  0.3366  0.1314
  701THF    H1014130   0.860   1.051   4.489  1.4879 -0.1929 -0.3461
  701THF    H1114131   0.938   1.194   4.394  0.4552  1.3041  2.9865
  701THF    H1214132   0.805   1.143   4.214 -1.7448 -1.6289 -1.1762
  701THF    H1314133   0.744   1.005   4.305  0.5106  0.1668  0.1188
  702THF     O114134   1.842   0.172   3.655 -0.0191  0.1190 -0.1980
  702THF     C214135   1.943   0.208   3.565  0.2373  0.1974  0.3991
  702THF     C314136   1.756   0.090   3.592  0.8393 -0.1876 -0.4513
  702THF     H414137   2.007   0.120   3.556 -0.2257 -0.1492  0.4972
  702THF     H514138   2.004   0.291   3.602  2.9470 -1.3180 -0.4193
  702THF     H614139   1.814  -0.001   3.599 -0.9555 -1.3084  0.6676
  702THF     H714140   1.662   0.079   3.647  1.9916 -1.4102  1.3800
  702THF     C814141   1.738   0.142   3.453 -0.0597 -0.0450  0.5938
  702THF     C914142   1.869   0.220   3.436 -0.4211  0.1185  0.3933
  702THF    H1014143   1.650   0.207   3.455 -0.3192 -0.3766  2.2812
  702THF    H1114144   1.732   0.052   3.391  1.1293 -0.2774  0.7874
  702THF    H1214145   1.924   0.171   3.356 -1.6478 -1.9798  0.7775
  702THF    H1314146   1.846   0.324   3.413 -0.0324  0.0472 -0.3547
  703THF     O114147   1.855   5.398   4.995 -0.1787 -0.1517  0.1321
  703THF     C214148   1.858   5.488   5.104 -0.2676  0.3671  0.0830
  703THF     C314149   1.817   5.264   5.044 -0.4199 -0.6484  0.4540
  703THF     H414150   1.759   5.506   5.147 -0.6309 -1.0770 -0.0835
  703THF     H514151   1.919   5.576   5.086 -0.6931  0.4249 -1.1690
  703THF     H614152   1.709   5.255   5.033 -0.2890 -1.4348 -0.3278
  703THF     H714153   1.866   5.185   4.986 -0.3325  1.2738 -2.2847
  703THF     C814154   1.859   5.264   5.199 -0.3696  0.4184  0.4001
  703THF     C914155   1.928   5.400   5.207  0.3830 -0.0897  0.4351
  703THF    H1014156   1.911   5.176   5.237 -1.4580 -0.7220 -0.6516
  703THF    H1114157   1.770   5.260   5.261  0.5102 -2.5057  1.6335
  703THF    H1214158   1.918   5.445   5.306 -0.4202 -0.1332  0.3773
  703THF    H1314159   2.034   5.385   5.185  0.4732 -0.1536  0.8958
  704THF     O114160   5.159   2.067   0.374 -0.2961 -0.2603 -0.5594
  704THF     C214161   5.043   1.999   0.346  0.4891 -0.0398 -0.7264
  704THF     C314162   5.170   2.113   0.510  0.0050  0.2322  0.2243
  704THF     H414163   5.065   1.925   0.269  0.1472 -0.3056 -0.5679
  704THF     H514164   4.963   2.069   0.323  1.5195  1.1816 -0.7170
  704THF     H614165   5.272   2.108   0.549  0.8066  2.1187 -1.4285
  704THF     H714166   5.132   2.215   0.523 -1.4132 -0.2153 -0.2781
  704THF     C814167   5.073   2.017   0.578 -1.2808 -0.8130 -0.4958
  704THF     C914168   5.021   1.924   0.478  1.0836  0.2400 -0.1447
  704THF    H1014169   4.997   2.069   0.636  0.0824  0.6291  0.0782
  704THF    H1114170   5.129   1.958   0.650 -3.3227 -0.2316  1.7035
  704THF    H1214171   5.074   1.830   0.465 -0.4329 -0.6438 -0.2028
  704THF    H1314172   4.918   1.887   0.482  1.4845 -0.8925 -0.0092
  705THF     O114173   0.698   5.366   0.330 -0.7355  0.0193  0.6491
  705THF     C214174   0.808   5.340   0.413  0.0114 -0.4510 -0.5144
  705THF     C314175   0.707   5.495   0.290 -0.0446 -0.6082  0.0285
  705THF     H414176   0.818   5.235   0.442 -2.4465 -0.2515  1.3656
  705THF     H514177   0.793   5.403   0.501  0.2757 -0.1676 -0.6692
  705THF     H614178   0.657   5.509   0.194  0.7759  0.1890 -0.3068
  705THF     H714179   0.677   5.570   0.363  1.9136 -0.8909  1.1826
  705THF     C814180   0.860   5.521   0.268 -0.0472 -0.0926 -0.0951
  705THF     C914181   0.915   5.396   0.320  0.0495 -0.3480  0.6196
  705THF    H1014182   0.906   5.605   0.321  3.9914 -1.1941 -1.5025
  705THF    H1114183   0.892   5.530   0.164  0.5934 -1.3024 -0.0166
  705THF    H1214184   0.940   5.329   0.238  0.9509  0.1272  0.4987
  705THF    H1314185   1.007   5.408   0.378  0.4586  0.2899 -0.1481
  706THF     O114186   4.054   4.662   5.018 -0.2424 -0.1349 -0.4289
  706THF     C214187   4.118   4.537   5.034 -0.0286  0.3154 -1.0785
  706THF     C314188   4.097   4.714   4.891 -0.3006 -0.1770 -0.2316
  706THF     H414189   4.040   4.462   5.020 -1.0041  0.2328  3.3310
  706THF     H514190   4.155   4.529   5.136 -0.1417  0.6066 -1.0130
  706THF     H614191   4.028   4.684   4.813 -4.4469 -0.5005  3.1803
  706THF     H714192   4.093   4.823   4.899  0.2568 -0.0876 -1.0273
  706THF     C814193   4.243   4.669   4.870 -0.4102 -0.6750  0.5101
  706THF     C914194   4.241   4.529   4.931 -0.3811  0.0954 -0.2687
  706THF    H1014195   4.302   4.744   4.923  2.8746 -1.8017 -1.2808
  706THF    H1114196   4.287   4.670   4.771 -0.5026 -0.0386  0.4752
  706THF    H1214197   4.224   4.449   4.859 -1.5119 -0.0525  0.1446
  706THF    H1314198   4.333   4.503   4.983 -1.5232 -2.9651  0.4384
  707THF     O114199   2.307   0.004   4.893 -0.0836 -0.0377  0.1748
  707THF     C214200   2.174   0.045   4.846 -0.1192  0.8527  0.5288
  707THF     C314201   2.405   0.102   4.848  0.1807 -0.6614 -0.0769
  707THF     H414202   2.093  -0.004   4.899 -1.0130  0.9437 -0.7145
  707THF     H514203   2.171   0.011   4.742  0.8148 -1.7199  1.2684
  707THF     H614204   2.496   0.097   4.908 -0.6942  0.5249  1.4371
  707THF     H714205   2.425   0.087   4.742  1.7438 -0.5276  0.1805
  707THF     C814206   2.330   0.235   4.876  0.1070 -0.2414  0.0378
  707THF     C914207   2.181   0.198   4.869 -1.1972  0.2526  0.6546
  707THF    H1014208   2.365   0.311   4.805 -0.7478 -0.4600 -0.6387
  707THF    H1114209   2.353   0.259   4.979 -0.5673  0.1130  0.1088
  707THF    H1214210   2.134   0.213   4.965 -0.6700 -0.0385  0.9645
  707THF    H1314211   2.126   0.267   4.805 -0.5867  0.4968  0.3825
  708THF     O114212   5.343   0.461   4.038  0.4503  0.4763 -0.1343
  708THF     C214213   5.347   0.457   4.177 -0.3558  0.3868 -0.0636
  708THF     C314214   5.282   0.338   3.993 -0.4034 -0.6391 -0.3225
  708THF     H414215   5.373   0.548   4.230  0.6750  0.0705 -0.0008
  708THF     H514216   5.428   0.393   4.211 -1.4267  0.0951  2.0728
  708THF     H614217   5.243   0.346   3.891 -0.0508 -0.3032 -0.4331
  708THF     H714218   5.362   0.265   3.985  0.8005  0.7448 -1.3893
  708THF     C814219   5.184   0.299   4.094  0.2305 -0.0643 -0.8099
  708THF     C914220   5.212   0.391   4.215  0.0427 -0.1931 -0.1789
  708THF    H1014221   5.199   0.194   4.120  0.5344  0.0693 -0.4373
  708THF    H1114222   5.078   0.302   4.070 -0.4348 -1.5877  1.5809
  708THF    H1214223   5.136   0.467   4.230  0.2833  0.1087 -0.4725
  708THF    H1314224   5.201   0.332   4.306 -0.2830  1.7953  1.1166
  709THF     O114225   2.975   4.241   1.362 -0.4829  0.1907 -0.0201
  709THF     C214226   2.941   4.220   1.227 -0.3092 -0.1986  0.0034
  709THF     C314227   3.039   4.118   1.405 -0.4741  0.3219  0.0223
  709THF     H414228   3.019   4.266   1.166 -0.7910  1.7737  0.8190
  709THF     H514229   2.847   4.269   1.202  0.2837 -0.2309 -2.6015
  709THF     H614230   3.144   4.123   1.377 -0.6318  0.9854 -0.4886
  709THF     H714231   3.044   4.100   1.512 -0.2443 -0.7816 -0.1605
  709THF     C814232   2.961   4.006   1.330  0.3223 -0.4437 -0.0833
  709THF     C914233   2.940   4.071   1.198  0.5283  0.0349  0.5297
  709THF    H1014234   2.863   3.999   1.376  0.3797  0.6080  0.2237
  709THF    H1114235   3.011   3.909   1.326 -0.5476 -1.0336  1.8646
  709THF    H1214236   3.012   4.035   1.125 -1.4529 -0.4123 -1.3189
  709THF    H1314237   2.843   4.047   1.153  0.9592 -0.4776 -0.1419
  710THF     O114238   3.695   3.785   0.537  0.4153 -0.6277 -0.6789
  710THF     C214239   3.619   3.687   0.471  0.4438 -0.2597 -0.1600
  710THF     C314240   3.830   3.753   0.535 -0.6055 -0.0636 -0.9295
  710THF     H414241   3.529   3.742   0.444  0.3265 -0.1459  0.4578
  710THF     H514242   3.589   3.601   0.531 -0.1172  0.1124  0.0992
  710THF     H614243   3.898   3.838   0.528  0.0946 -0.3888  1.2169
  710THF     H714244   3.859   3.703   0.628 -0.8061 -0.5614 -1.1302
  710THF     C814245   3.846   3.660   0.417 -0.0777  0.3351  0.2067
  710THF     C914246   3.707   3.651   0.355  0.3919  0.0545 -0.6132
  710THF    H1014247   3.876   3.559   0.445  1.5056  1.3523  2.5438
  710THF    H1114248   3.926   3.695   0.352 -1.2579 -1.6916 -2.4890
  710THF    H1214249   3.714   3.714   0.267  0.5131  0.2550 -0.4618
  710THF    H1314250   3.689   3.550   0.319 -1.3208  0.0168  0.2470
  711THF     O114251   4.433   2.808   2.173  0.3752 -0.1999 -0.2856
  711THF     C214252   4.458   2.801   2.032  0.3924  0.8124 -0.1108
  711THF     C314253   4.563   2.837   2.235  0.3768  0.2459 -0.0058
  711THF     H414254   4.364   2.823   1.981 -0.8870  1.5518  2.4109
  711THF     H514255   4.496   2.703   2.004 -1.4781 -1.0923  3.3411
  711THF     H614256   4.558   2.871   2.339  1.2429  0.5724 -0.0659
  711THF     H714257   4.625   2.747   2.242  2.7189  1.7426 -0.5339
  711THF     C814258   4.623   2.942   2.142 -0.9490 -0.1294 -0.2941
  711THF     C914259   4.564   2.912   2.007  0.2508  0.5808 -0.4387
  711THF    H1014260   4.732   2.947   2.136 -1.0116 -0.1247 -4.2058
  711THF    H1114261   4.592   3.041   2.174  0.2288  0.0785  0.2556
  711THF    H1214262   4.517   3.002   1.967  2.4675  1.9549 -0.1712
  711THF    H1314263   4.631   2.867   1.933 -2.3702 -1.0862 -1.9311
  712THF     O114264   0.932   3.168   0.650 -0.0974  0.2688 -0.2129
  712THF     C214265   0.919   3.030   0.634 -0.3873  0.2730  0.0416
  712THF     C314266   0.968   3.218   0.530 -0.2718 -0.5007  0.0831
  712THF     H414267   0.822   2.997   0.596 -0.1315 -1.3430  0.6761
  712THF     H514268   0.939   2.982   0.730 -0.9080 -0.3486 -0.1472
  712THF     H614269   0.884   3.268   0.482 -2.1546 -2.6992  0.8482
  712THF     H714270   1.035   3.302   0.548 -1.5078  0.2198  1.6545
  712THF     C814271   1.046   3.114   0.452  0.5283 -0.2550  0.4483
  712THF     C914272   1.032   2.989   0.540 -0.5234 -0.6816 -0.7503
  712THF    H1014273   1.147   3.145   0.424 -0.0789  2.3042  0.9105
  712THF    H1114274   0.987   3.092   0.363 -1.5415 -0.0165  1.7008
  712THF    H1214275   1.010   2.899   0.482 -2.9183 -0.0068 -1.0279
  712THF    H1314276   1.122   2.971   0.598 -1.5757 -0.3423  1.0525
  713THF     O114277   4.528   0.912   0.199  0.1473  0.6331 -0.0687
  713THF     C214278   4.541   0.837   0.082 -0.5512  0.3451  0.9549
  713THF     C314279   4.419   0.997   0.182  0.2135  0.3321  0.6097
  713THF     H414280   4.476   0.749   0.087 -0.0451 -0.1327 -0.3700
  713THF     H514281   4.638   0.786   0.085 -0.8899 -0.2703  1.8865
  713THF     H614282   4.336   0.926   0.187  0.9126 -0.4527  1.5341
  713THF     H714283   4.409   1.082   0.249  1.2307 -0.1647  1.4164
  713THF     C814284   4.437   1.051   0.039 -0.5520  0.1010  0.2068
  713THF     C914285   4.500   0.933  -0.035 -0.1418 -0.2641 -0.7909
  713THF    H1014286   4.502   1.139   0.045 -0.4694  0.0407  0.1912
  713THF    H1114287   4.340   1.077  -0.001 -1.8877 -1.4234  2.2361
  713THF    H1214288   4.418   0.890  -0.093  0.2075 -1.7083 -0.2735
  713THF    H1314289   4.584   0.958  -0.099  2.1493  0.8113  2.4321
  714THF     O114290   3.419   3.597   4.396  0.1925 -0.4301 -0.1587
  714THF     C214291   3.337   3.708   4.419  0.6318  0.6166 -0.8718
  714THF     C314292   3.345   3.481   4.446  0.0721 -0.1037  0.1835
  714THF     H414293   3.264   3.723   4.339 -1.1883  0.0107  0.5923
  714THF     H514294   3.398   3.798   4.426 -0.1649  1.3673 -2.9806
  714THF     H614295   3.266   3.451   4.377 -2.1004 -1.8869  3.1975
  714THF     H714296   3.411   3.394   4.447 -0.9280 -0.8846 -0.4348
  714THF     C814297   3.297   3.529   4.577 -1.0076  0.2325  0.1349
  714THF     C914298   3.257   3.673   4.546 -0.3758  0.0175  0.4479
  714THF    H1014299   3.387   3.539   4.637 -2.1351  1.7378  1.6784
  714THF    H1114300   3.219   3.467   4.624 -0.1697 -1.5396 -0.7029
  714THF    H1214301   3.150   3.663   4.532 -0.1552  0.5182 -1.9085
  714THF    H1314302   3.272   3.744   4.627 -2.2263  0.0816  0.7725
  715THF     O114303   0.991   0.935   4.023  0.0537 -0.1053  0.5261
  715THF     C214304   1.094   0.937   3.917 -0.0720 -0.2160 -0.3243
  715THF     C314305   1.034   0.842   4.114  0.2811  0.2089 -0.2057
  715THF     H414306   1.181   0.991   3.956  0.6884 -2.1344  0.7944
  715THF     H514307   1.067   0.980   3.821 -1.5746 -1.1831 -0.3575
  715THF     H614308   1.078   0.898   4.196 -1.1743 -0.2752  0.9582
  715THF     H714309   0.946   0.797   4.160 -0.4650  1.0428 -0.7938
  715THF     C814310   1.130   0.744   4.047  0.4993 -0.0452  0.5278
  715THF     C914311   1.139   0.790   3.905 -0.2296 -0.0202 -0.6078
  715THF    H1014312   1.097   0.640   4.054  1.1264 -0.2257  0.8043
  715THF    H1114313   1.229   0.762   4.089  1.6884  1.1773 -2.5404
  715THF    H1214314   1.244   0.777   3.879  0.1429  2.5644 -0.6575
  715THF    H1314315   1.074   0.731   3.841  0.0455  0.0563 -0.9611
  716THF     O114316   5.200   1.186   2.470 -0.0204  0.4623  0.0044
  716THF     C214317   5.092   1.157   2.553 -0.5092  0.2904  0.2576
  716THF     C314318   5.144   1.264   2.365 -0.1268 -0.0218  0.2668
  716THF     H414319   5.130   1.122   2.649  0.3341 -1.0670 -0.5355
  716THF     H514320   5.039   1.077   2.501  0.4854 -0.6467  0.6559
  716THF     H614321   5.209   1.342   2.325  1.2699 -0.8185  0.9375
  716THF     H714322   5.118   1.199   2.282 -0.9017  0.1539  0.3569
  716THF     C814323   5.015   1.331   2.408 -0.0570 -0.3123  0.3673
  716THF     C914324   5.020   1.287   2.556 -0.1927  0.1200  0.5923
  716THF    H1014325   4.933   1.289   2.351 -1.4783  1.4549  0.9990
  716THF    H1114326   5.024   1.434   2.374  2.0589 -0.9915 -1.3545
  716THF    H1214327   5.075   1.365   2.609  0.4487  1.8965 -2.4465
  716THF    H1314328   4.920   1.276   2.598 -0.4792  0.3631 -0.0307
  717THF     O114329   1.248   3.740   3.072  0.5227 -0.0301  0.0170
  717THF     C214330   1.315   3.746   3.200 -0.1164  0.2289 -0.1300
  717THF     C314331   1.201   3.871   3.046 -0.1675  0.3540  0.9667
  717THF     H414332   1.419   3.776   3.190  0.5378 -1.9921 -0.4815
  717THF     H514333   1.324   3.652   3.254 -2.6930 -0.3921 -0.6406
  717THF     H614334   1.280   3.940   3.014 -1.2441  1.4641  0.6372
  717THF     H714335   1.128   3.880   2.966 -0.1849  2.6980  1.1752
  717THF     C814336   1.150   3.914   3.184  0.0637 -0.3750 -0.2987
  717THF     C914337   1.237   3.843   3.283 -0.2060 -0.0811 -0.4981
  717THF    H1014338   1.053   3.865   3.176 -0.9020  1.4986 -0.7806
  717THF    H1114339   1.137   4.022   3.194 -1.0498 -0.6217  1.2282
  717THF    H1214340   1.293   3.911   3.347 -1.8287  0.5201  0.3645
  717THF    H1314341   1.180   3.784   3.356  1.8044 -0.0085  1.2319
  718THF     O114342   2.532   0.576   5.479  0.4805 -0.4533 -0.1448
  718THF     C214343   2.448   0.559   5.593 -0.6386  0.2012  0.2784
  718THF     C314344   2.590   0.450   5.451  0.2172  0.2945  0.1608
  718THF     H414345   2.400   0.655   5.612  0.4661  0.6429  0.9097
  718THF     H514346   2.513   0.548   5.680 -0.5183  0.8732  0.2817
  718THF     H614347   2.634   0.438   5.352  0.7361 -1.2371  0.5532
  718THF     H714348   2.678   0.431   5.514  0.2979  1.8674  0.5929
  718THF     C814349   2.476   0.346   5.478 -0.3300 -0.3283  0.2439
  718THF     C914350   2.372   0.427   5.554  0.1294  0.2226 -0.0877
  718THF    H1014351   2.523   0.276   5.546  1.0150 -1.2702 -1.5751
  718THF    H1114352   2.437   0.285   5.396 -1.7031 -0.2030  0.7813
  718THF    H1214353   2.283   0.452   5.497  0.6488  0.1729 -0.9403
  718THF    H1314354   2.340   0.367   5.639  1.5304 -1.6688 -0.8316
  719THF     O114355   2.322   1.260   1.980  0.0697  0.2419 -0.2787
  719THF     C214356   2.292   1.287   1.838  0.5163 -0.0465 -0.5461
  719THF     C314357   2.455   1.302   1.999  0.1340  0.5004 -0.2599
  719THF     H414358   2.183   1.286   1.833  0.5027  1.0122 -0.7847
  719THF     H514359   2.318   1.212   1.764 -3.1614 -0.5259 -1.5088
  719THF     H614360   2.488   1.314   2.103 -3.0021 -1.4828  1.1213
  719THF     H714361   2.514   1.224   1.950  0.4660  0.7199 -0.2119
  719THF     C814362   2.459   1.438   1.918 -0.8430  0.2902 -0.1760
  719THF     C914363   2.358   1.420   1.805  0.4672  0.3438 -0.2609
  719THF    H1014364   2.561   1.460   1.889  0.0462 -2.1080  0.8048
  719THF    H1114365   2.440   1.516   1.991  0.2394 -1.6700  2.3735
  719THF    H1214366   2.300   1.513   1.812 -1.5839 -0.9036  0.1515
  719THF    H1314367   2.416   1.413   1.713  1.9764  0.0654  0.6723
  720THF     O114368   4.830   3.010   4.894 -0.0540  0.2005 -0.0256
  720THF     C214369   4.771   2.899   4.952 -0.4117 -0.3397 -0.6815
  720THF     C314370   4.785   3.128   4.960 -0.3270 -0.2890  0.3951
  720THF     H414371   4.840   2.817   4.935  3.1339  2.8223 -3.0158
  720THF     H514372   4.677   2.882   4.899  1.2303 -2.8534 -3.0390
  720THF     H614373   4.868   3.185   5.001 -0.2639 -1.3346  1.8258
  720THF     H714374   4.737   3.194   4.888  0.7391 -0.3060 -0.3527
  720THF     C814375   4.694   3.085   5.071  0.0441 -0.0217  0.2206
  720THF     C914376   4.734   2.948   5.095 -1.3021 -0.4218  0.2864
  720THF    H1014377   4.589   3.085   5.044 -0.1802 -0.7892  1.0457
  720THF    H1114378   4.708   3.148   5.159 -0.5932 -0.1490  0.4191
  720THF    H1214379   4.823   2.937   5.158 -1.7266 -0.4133  0.8982
  720THF    H1314380   4.662   2.875   5.132 -0.4701 -1.6569 -0.4638
  721THF     O114381   1.794   2.117   1.567  0.3627 -0.7215  0.1930
  721THF     C214382   1.909   2.136   1.648  0.4404 -0.3624  0.1058
  721THF     C314383   1.794   2.228   1.474  0.0264 -0.2778  1.1628
  721THF     H414384   1.953   2.046   1.690  1.4416 -1.4092 -2.9332
  721THF     H514385   1.892   2.211   1.725  3.1772  1.2077 -0.7005
  721THF     H614386   1.749   2.188   1.383 -0.9352  0.5564  1.2535
  721THF     H714387   1.719   2.298   1.511 -0.4027  0.1136 -0.3395
  721THF     C814388   1.935   2.275   1.451 -0.4401 -0.0822  0.1253
  721THF     C914389   2.013   2.180   1.540 -0.4504  0.1588  0.5605
  721THF    H1014390   1.953   2.374   1.494  0.4253  0.4379 -1.3763
  721THF    H1114391   1.981   2.266   1.353  1.1730 -1.9493  0.9662
  721THF    H1214392   2.047   2.100   1.473 -0.9541 -0.1730  0.6940
  721THF    H1314393   2.102   2.234   1.570  1.4331 -1.0024 -2.4711
  722THF     O114394   5.393   0.671   5.167 -0.0740 -0.2161  0.0426
  722THF     C214395   5.344   0.801   5.179  0.0648  0.0829  1.0556
  722THF     C314396   5.428   0.652   5.030 -0.3529 -0.0740 -0.1859
  722THF     H414397   5.431   0.867   5.186 -0.7431  2.0670 -3.7399
  722THF     H514398   5.276   0.805   5.263  0.0493 -0.7352  1.0826
  722THF     H614399   5.520   0.697   4.991 -0.8258  1.1989  0.1214
  722THF     H714400   5.435   0.549   4.993 -3.3359  0.6180 -3.0975
  722THF     C814401   5.310   0.721   4.962 -0.1374  0.0161  0.0084
  722THF     C914402   5.266   0.830   5.050 -0.2617 -1.0125 -1.0325
  722THF    H1014403   5.217   0.665   4.953 -0.6277  0.8053  0.0559
  722THF    H1114404   5.340   0.751   4.861 -0.0814 -1.0286 -0.2943
  722THF    H1214405   5.292   0.929   5.013  3.5827 -1.4189  0.1007
  722THF    H1314406   5.158   0.831   5.062 -0.2315 -0.8218 -0.7558
  723THF     O114407   0.221   3.983   3.492  0.1222  0.0807 -0.1839
  723THF     C214408   0.206   3.854   3.437 -0.0621  0.8419  0.1327
  723THF     C314409   0.085   4.024   3.517  0.5214  0.5343  0.0522
  723THF     H414410   0.299   3.798   3.428 -0.2381  0.3348  1.3176
  723THF     H514411   0.154   3.835   3.343 -0.2495 -2.0622  0.7261
  723THF     H614412   0.099   4.102   3.592  0.3530 -1.6183  2.4589
  723THF     H714413   0.034   4.062   3.429 -0.8161 -0.2958  0.4472
  723THF     C814414   0.017   3.904   3.573 -0.0675 -0.3682 -0.8832
  723THF     C914415   0.115   3.783   3.543  0.1737  0.0339 -0.3012
  723THF    H1014416  -0.076   3.894   3.518  1.3814  1.5702 -4.0172
  723THF    H1114417   0.002   3.911   3.680  1.1199 -2.1521 -0.5379
  723THF    H1214418   0.172   3.767   3.635  2.7567  1.4460 -1.5460
  723THF    H1314419   0.078   3.688   3.504 -0.6302  0.3630 -0.3714
  724THF     O114420   0.148   5.444   3.684 -0.3203  0.3994  0.6262
  724THF     C214421   0.022   5.392   3.724  0.0470  0.0410  0.0491
  724THF     C314422   0.138   5.550   3.584 -0.4245  0.1592 -0.3699
  724THF     H414423   0.001   5.429   3.824  1.4220  2.1127 -0.3790
  724THF     H514424   0.025   5.284   3.708 -0.0366 -0.1114  1.0001
  724THF     H614425   0.119   5.647   3.629 -2.6207  0.3754 -1.6171
  724THF     H714426   0.215   5.556   3.507  0.1643 -0.8948  0.1256
  724THF     C814427   0.006   5.506   3.515  0.0259 -0.3397 -0.0586
  724THF     C914428  -0.080   5.459   3.627 -0.2701  0.0444 -0.3059
  724THF    H1014429   0.020   5.429   3.439  1.5753 -0.8720  0.7233
  724THF    H1114430  -0.033   5.591   3.459  0.9371  0.2879  0.2426
  724THF    H1214431  -0.125   5.544   3.679  0.9620  0.5922 -0.0995
  724THF    H1314432  -0.155   5.387   3.594  0.4770 -0.4864 -0.8646
  725THF     O114433   4.605   2.745   3.679  0.0185 -0.1908  0.0083
  725THF     C214434   4.551   2.860   3.615 -0.1408  0.2022  0.2891
  725THF     C314435   4.504   2.647   3.687 -0.2874 -0.0213 -0.1781
  725THF     H414436   4.628   2.926   3.574 -1.4254  2.5483  1.4558
  725THF     H514437   4.514   2.921   3.697 -1.7573  2.6160 -2.0489
  725THF     H614438   4.557   2.552   3.678  1.5272  0.9147  0.1986
  725THF     H714439   4.461   2.658   3.787  0.5939 -0.4616  0.2631
  725THF     C814440   4.398   2.686   3.586 -0.0439  0.1701  0.7058
  725THF     C914441   4.466   2.798   3.509 -0.0481 -0.0595  0.6832
  725THF    H1014442   4.313   2.727   3.641  0.6176  1.2397  0.9523
  725THF    H1114443   4.369   2.606   3.518  0.5412 -0.9746  1.7718
  725THF    H1214444   4.511   2.763   3.416 -1.9545  2.0878 -1.1693
  725THF    H1314445   4.389   2.873   3.488  1.3927  1.0372 -1.0337
  726THF     O114446   0.996   4.946   0.569 -0.0163 -0.1067  0.1464
  726THF     C214447   1.118   4.962   0.502  0.5053  0.1461 -0.3945
  726THF     C314448   1.017   4.931   0.706 -0.1378  0.5268 -0.3832
  726THF     H414449   1.115   5.009   0.403  1.2594  1.9455  0.3885
  726THF     H514450   1.150   4.859   0.484  1.0799  0.1798  0.3851
  726THF     H614451   0.929   4.975   0.754 -1.0152 -1.5985  0.0428
  726THF     H714452   1.021   4.824   0.725  0.4572  0.9060  1.8901
  726THF     C814453   1.152   4.997   0.747  0.1380 -0.0400 -0.7829
  726THF     C914454   1.210   5.025   0.606 -0.5744 -0.6827  0.3207
  726THF    H1014455   1.203   4.928   0.813 -0.3690  1.6933  1.5592
  726THF    H1114456   1.128   5.090   0.800 -0.4886 -0.1498 -0.8700
  726THF    H1214457   1.215   5.132   0.585  0.7555 -0.8638 -0.4239
  726THF    H1314458   1.316   5.001   0.604 -0.6310 -0.9052 -1.2158
  727THF     O114459   0.534   1.363   1.617  0.1124  0.0732 -0.7692
  727THF     C214460   0.615   1.418   1.720 -0.0118 -0.5693  0.0751
  727THF     C314461   0.482   1.466   1.539 -0.0114  0.4348  0.1464
  727THF     H414462   0.688   1.358   1.775 -0.8384 -0.9511  0.7760
  727THF     H514463   0.544   1.462   1.789 -1.0858  0.2386 -1.4952
  727THF     H614464   0.474   1.437   1.434  0.2957  0.8696  0.0009
  727THF     H714465   0.389   1.503   1.581  0.3127 -0.6755  1.9289
  727THF     C814466   0.585   1.576   1.538 -0.2650  0.4765 -0.4539
  727THF     C914467   0.685   1.527   1.643 -0.2308 -0.6373  0.1350
  727THF    H1014468   0.542   1.673   1.561  0.3430  0.7201 -0.3328
  727THF    H1114469   0.642   1.587   1.445 -0.4420  0.9532 -0.5069
  727THF    H1214470   0.765   1.482   1.583 -0.7204  0.6827 -1.5958
  727THF    H1314471   0.733   1.606   1.700 -0.3391  1.7766 -2.8271
  728THF     O114472   5.200   2.796   5.060 -0.4603 -0.2638  0.1484
  728THF     C214473   5.316   2.880   5.095 -0.5139  0.6764 -0.1255
  728THF     C314474   5.113   2.887   4.995  0.1801  0.2360  0.3300
  728THF     H414475   5.413   2.834   5.113 -1.5471 -1.6601 -0.2504
  728THF     H514476   5.297   2.936   5.187 -2.2044  1.2196 -0.7541
  728THF     H614477   5.062   2.839   4.912  2.1265  0.1687 -0.8939
  728THF     H714478   5.034   2.907   5.067 -1.5866  0.1886 -1.5156
  728THF     C814479   5.186   3.015   4.965  0.0995  0.5266  0.1815
  728THF     C914480   5.326   2.974   4.982 -0.3479  0.1592  0.1892
  728THF    H1014481   5.159   3.071   5.054  0.3356 -0.1673  0.6959
  728THF    H1114482   5.158   3.064   4.872  0.0301 -0.6150 -0.4232
  728THF    H1214483   5.353   2.911   4.897 -0.1598 -0.8931  1.0096
  728THF    H1314484   5.397   3.055   5.002  0.6382 -1.2441  2.9545
  729THF     O114485   5.039   3.081   0.880  0.1508 -0.5112 -0.2191
  729THF     C214486   5.148   3.042   0.971  0.5794 -0.1793 -0.4561
  729THF     C314487   5.091   3.163   0.777 -0.1640 -0.2938  0.0887
  729THF     H414488   5.115   2.953   1.025  0.2126 -0.0281 -0.4281
  729THF     H514489   5.173   3.124   1.038 -3.0282  0.1355  0.7287
  729THF     H614490   5.043   3.127   0.685 -1.4041  0.7237  0.3052
  729THF     H714491   5.070   3.270   0.782 -1.0365 -0.5356  2.8860
  729THF     C814492   5.239   3.126   0.773  0.3276  0.4783  0.7807
  729THF     C914493   5.257   3.023   0.873  0.4150  0.0571 -0.2713
  729THF    H1014494   5.288   3.221   0.793  0.1583  0.6059  0.5926
  729THF    H1114495   5.278   3.091   0.677 -0.1666  1.4368  0.2131
  729THF    H1214496   5.235   2.930   0.822  0.0650  0.7180 -1.3676
  729THF    H1314497   5.354   3.026   0.923  0.2505 -1.6491  0.2023
  730THF     O114498   2.145   4.538   2.440  0.3799 -0.2379  0.6237
  730THF     C214499   2.022   4.503   2.498 -0.3238  0.1315 -0.0121
  730THF     C314500   2.119   4.601   2.311  0.0375 -0.6914 -0.1496
  730THF     H414501   1.986   4.574   2.572 -1.1951 -1.6995  1.4296
  730THF     H514502   2.023   4.407   2.551 -1.9406  0.0027 -0.1708
  730THF     H614503   2.153   4.705   2.320 -0.5009 -0.6402  1.6003
  730THF     H714504   2.180   4.549   2.237  2.4285 -2.1092  2.6121
  730THF     C814505   1.975   4.600   2.281  0.1390 -0.8174 -0.3999
  730THF     C914506   1.915   4.503   2.387  0.2300 -0.0827 -0.4072
  730THF    H1014507   1.969   4.566   2.178  0.1234  0.0761 -0.7031
  730THF    H1114508   1.945   4.704   2.296  4.2160  0.4380  0.3697
  730THF    H1214509   1.822   4.542   2.429 -0.2951 -2.0129  0.2884
  730THF    H1314510   1.903   4.403   2.346  1.8616 -0.1202 -0.8821
  731THF     O114511   5.401   3.702   0.113  0.5086  0.1817  0.1921
  731THF     C214512   5.263   3.715   0.147 -0.8215  0.0234 -0.1535
  731THF     C314513   5.475   3.786   0.201  0.0607 -0.1831 -0.2259
  731THF     H414514   5.192   3.636   0.119 -2.2367  1.0192  0.4881
  731THF     H514515   5.224   3.795   0.084 -1.2617  0.1916  0.3216
  731THF     H614516   5.579   3.754   0.209 -0.4216 -2.9130 -2.6657
  731THF     H714517   5.483   3.890   0.172  0.3942  0.4231  1.8997
  731THF     C814518   5.416   3.758   0.336 -0.0025  0.0410 -0.2592
  731THF     C914519   5.266   3.753   0.296 -0.1276 -0.7005  0.7804
  731THF    H1014520   5.436   3.835   0.412  1.2146  0.2856 -0.7946
  731THF    H1114521   5.440   3.657   0.370 -0.8797 -0.4631 -1.1036
  731THF    H1214522   5.211   3.679   0.354 -0.1218 -1.5418 -0.2788
  731THF    H1314523   5.219   3.850   0.316 -1.6123 -1.6947  2.3501
  732THF     O114524   4.324   1.522   5.475  0.3329  0.0606 -0.1515
  732THF     C214525   4.256   1.413   5.536 -0.5967 -0.2900  0.3208
  732THF     C314526   4.248   1.576   5.371  0.7001  0.1614  0.3079
  732THF     H414527   4.188   1.439   5.617 -0.4821 -0.8885  0.6140
  732THF     H514528   4.329   1.346   5.582  0.3432  0.6543  0.2425
  732THF     H614529   4.205   1.666   5.415  0.1396 -1.3882  3.2212
  732THF     H714530   4.315   1.589   5.286  0.9138  1.0320  0.6002
  732THF     C814531   4.139   1.476   5.340 -0.0804  0.6745 -0.6028
  732THF     C914532   4.178   1.352   5.422  0.2901 -0.3037  0.2355
  732THF    H1014533   4.125   1.445   5.236 -0.4368 -0.3700 -0.2472
  732THF    H1114534   4.045   1.505   5.386  0.0975 -1.0120  0.9010
  732THF    H1214535   4.088   1.309   5.467  0.3605  1.1917  1.9367
  732THF    H1314536   4.245   1.286   5.368  1.2376 -0.3621  1.4328
  733THF     O114537   4.070   1.427   2.760 -0.7962 -0.0064 -0.3561
  733THF     C214538   3.965   1.430   2.656 -0.4286  0.1303 -0.2736
  733THF     C314539   4.187   1.479   2.697  0.1855 -0.0079 -0.3171
  733THF     H414540   3.926   1.529   2.632  1.6341  1.1235  0.2238
  733THF     H514541   3.878   1.369   2.679 -1.0306  1.0137 -0.1538
  733THF     H614542   4.173   1.587   2.704 -1.5303 -0.3215  2.9081
  733THF     H714543   4.271   1.450   2.760 -1.3657 -1.5124  1.1718
  733THF     C814544   4.183   1.413   2.560  0.0089 -0.5206 -0.5203
  733THF     C914545   4.037   1.375   2.538  0.4483 -0.4408 -0.3606
  733THF    H1014546   4.249   1.327   2.556  2.8378  1.5146 -0.8693
  733THF    H1114547   4.214   1.480   2.480  0.9369  2.4330  2.0961
  733THF    H1214548   4.008   1.418   2.442 -0.1692 -0.7292 -0.3079
  733THF    H1314549   4.032   1.266   2.534  0.0752 -0.4273 -0.2770
  734THF     O114550   5.425   2.561   3.502 -0.1729 -0.1879  0.3011
  734THF     C214551   5.434   2.558   3.358  0.2559  0.2966  0.2820
  734THF     C314552   5.557   2.539   3.555 -0.3639 -0.3698 -0.7681
  734THF     H414553   5.461   2.660   3.331 -0.3629  0.5724  0.6603
  734THF     H514554   5.332   2.543   3.323  0.5586  2.0050 -1.4685
  734THF     H614555   5.612   2.633   3.564 -2.5852  1.0225 -1.2225
  734THF     H714556   5.560   2.486   3.651  1.7326  1.5136  0.3247
  734THF     C814557   5.624   2.447   3.454  0.2962 -0.1295  0.2283
  734THF     C914558   5.531   2.437   3.341  0.1575 -0.5709  0.2884
  734THF    H1014559   5.638   2.356   3.511 -0.9809  0.8685  2.2549
  734THF    H1114560   5.711   2.497   3.411 -0.2397  1.4440  0.8704
  734THF    H1214561   5.578   2.426   3.243 -1.0432 -1.3890 -0.2151
  734THF    H1314562   5.480   2.341   3.346  1.3088 -1.3189 -1.3754
  735THF     O114563   1.085   0.362   3.824 -0.2495 -0.1623  0.4138
  735THF     C214564   1.060   0.262   3.919  0.3275 -0.7541  0.2917
  735THF     C314565   0.957   0.410   3.784 -0.1834  0.2406  0.1015
  735THF     H414566   1.147   0.237   3.979 -0.0585  1.7069  2.0102
  735THF     H514567   1.026   0.174   3.865 -1.8404 -0.0956  0.4901
  735THF     H614568   0.955   0.501   3.724 -2.1158  1.2740  1.6357
  735THF     H714569   0.916   0.345   3.706 -0.4226 -0.8439  1.1085
  735THF     C814570   0.891   0.433   3.916 -0.1230  0.3609 -0.3550
  735THF     C914571   0.937   0.307   4.002  0.2677  0.2890 -0.0461
  735THF    H1014572   0.783   0.438   3.900 -0.3358 -0.2382  0.7823
  735THF    H1114573   0.920   0.526   3.966 -2.2662  0.7514  0.2741
  735THF    H1214574   0.961   0.353   4.099  1.0122  1.3508 -0.7146
  735THF    H1314575   0.860   0.231   4.019 -0.0496  0.5400 -0.3578
  736THF     O114576   1.797   2.103   2.601  0.1299 -0.1943  0.0163
  736THF     C214577   1.656   2.081   2.622 -0.2082  0.1299  0.1858
  736THF     C314578   1.808   2.102   2.463  0.7901 -0.2183  0.4673
  736THF     H414579   1.629   2.107   2.724 -0.9122 -0.9776  0.2947
  736THF     H514580   1.633   1.976   2.608 -0.4902  0.3589 -1.2538
  736THF     H614581   1.908   2.132   2.430  0.5138 -0.1358 -0.3310
  736THF     H714582   1.773   2.004   2.429 -2.7581  0.9688  0.2618
  736THF     C814583   1.701   2.195   2.413  0.3980 -0.1601  0.5847
  736THF     C914584   1.591   2.173   2.520  0.0616 -0.2687 -0.0729
  736THF    H1014585   1.663   2.155   2.320 -0.1387 -1.2875  1.2634
  736THF    H1114586   1.716   2.303   2.406 -1.8008  0.2298  1.2120
  736THF    H1214587   1.568   2.273   2.557 -0.2339 -0.4901  0.3540
  736THF    H1314588   1.499   2.136   2.475 -0.6735  2.1134 -0.6946
  737THF     O114589   1.031   4.799   0.237  0.2355  0.5128  0.0023
  737THF     C214590   0.895   4.822   0.286 -0.9429 -0.6828  0.0308
  737THF     C314591   1.039   4.703   0.134  0.3233  0.8000  0.6895
  737THF     H414592   0.888   4.928   0.307  1.0405 -0.7026  1.0673
  737THF     H514593   0.873   4.760   0.373 -0.0914 -0.6261  0.2952
  737THF     H614594   1.126   4.721   0.071  0.8659  1.6226  1.6362
  737THF     H714595   1.045   4.604   0.179 -1.1041  0.5506  0.3850
  737THF     C814596   0.907   4.722   0.059  0.0716  0.0540  0.2228
  737THF     C914597   0.811   4.763   0.171 -0.1599 -0.1970  0.1182
  737THF    H1014598   0.870   4.639  -0.001  1.5424 -0.1566 -0.4353
  737THF    H1114599   0.913   4.810  -0.004 -0.4743 -0.3492 -0.3924
  737THF    H1214600   0.723   4.817   0.135 -0.9977 -1.8460 -0.3905
  737THF    H1314601   0.760   4.674   0.208  2.0723 -1.8103 -0.4414
  738THF     O114602   1.642   0.514   4.639  0.1060  0.2106  0.1515
  738THF     C214603   1.672   0.638   4.682 -0.1528 -0.8498 -0.7160
  738THF     C314604   1.513   0.480   4.687 -0.4676  0.5312 -0.5790
  738THF     H414605   1.627   0.714   4.618  2.2223 -0.2913 -1.8333
  738THF     H514606   1.779   0.656   4.670  0.0772  1.2496  3.0268
  738THF     H614607   1.433   0.541   4.644 -0.9489  0.0735 -0.3337
  738THF     H714608   1.482   0.381   4.656 -0.2410  0.9529 -2.2595
  738THF     C814609   1.536   0.521   4.829 -0.1044 -0.0420  0.3109
  738THF     C914610   1.623   0.647   4.828  0.0019 -0.7402  0.3596
  738THF    H1014611   1.581   0.429   4.867 -2.2240 -0.8765  0.9376
  738THF    H1114612   1.455   0.532   4.902 -1.3071  2.2041 -1.2634
  738THF    H1214613   1.562   0.737   4.837  0.7743 -0.0299 -1.0461
  738THF    H1314614   1.699   0.634   4.905  0.2505 -4.1900 -0.3076
  739THF     O114615   1.802   3.037   2.380 -0.3051  0.1628  0.1029
  739THF     C214616   1.667   3.067   2.363  0.2302 -0.0811  0.1915
  739THF     C314617   1.811   2.899   2.407 -0.4731  0.1997 -0.1580
  739THF     H414618   1.635   3.028   2.266  3.2683 -0.9677 -0.5659
  739THF     H514619   1.652   3.175   2.357 -0.7117 -0.2276 -0.2579
  739THF     H614620   1.796   2.846   2.313  1.8533 -0.1418 -0.3956
  739THF     H714621   1.907   2.859   2.441 -0.1312  0.9423 -0.2175
  739THF     C814622   1.685   2.871   2.499 -0.4486 -0.0550 -0.1475
  739THF     C914623   1.600   2.994   2.488  0.0054 -0.1421  0.8400
  739THF    H1014624   1.721   2.856   2.601 -1.0449  0.1887  0.1052
  739THF    H1114625   1.641   2.774   2.473 -0.8513 -0.1242  0.7450
  739THF    H1214626   1.493   2.978   2.473 -0.2642 -3.2496  4.3893
  739THF    H1314627   1.605   3.055   2.579 -0.4684 -2.5433  2.5863
  740THF     O114628   4.570   3.401   1.849  0.0649 -0.0629  0.1719
  740THF     C214629   4.456   3.487   1.826  0.0151  0.5333 -1.0122
  740THF     C314630   4.546   3.273   1.798 -0.2817  0.1083  0.1114
  740THF     H414631   4.499   3.585   1.804  0.2747  1.0986  1.6989
  740THF     H514632   4.390   3.494   1.913  1.7265 -0.0990  0.3966
  740THF     H614633   4.635   3.213   1.777  0.0192  0.2491  0.9425
  740THF     H714634   4.493   3.216   1.874  0.2159  2.1616  2.1114
  740THF     C814635   4.467   3.310   1.672 -0.8281 -0.3310  0.5871
  740THF     C914636   4.380   3.424   1.710 -0.0516 -0.3789  0.2924
  740THF    H1014637   4.407   3.229   1.630  0.5227 -1.5524  0.9517
  740THF    H1114638   4.544   3.341   1.602 -0.8821  0.4413  0.8591
  740THF    H1214639   4.381   3.490   1.624  1.1337 -3.8100 -2.5611
  740THF    H1314640   4.277   3.394   1.731 -0.3835  0.4775 -0.0738
  741THF     O114641   3.575   2.908   1.742 -0.1311 -0.2217 -0.0369
  741THF     C214642   3.662   2.908   1.857 -0.5735  0.4191  0.3655
  741THF     C314643   3.599   2.797   1.656 -0.3164  0.2114  0.2923
  741THF     H414644   3.618   2.964   1.939 -0.8023 -0.0017  0.5317
  741THF     H514645   3.759   2.946   1.824 -1.2550  1.3020 -0.6916
  741THF     H614646   3.514   2.759   1.599  0.6760  0.5489 -1.4724
  741THF     H714647   3.664   2.836   1.578  0.3435  1.0732  1.2465
  741THF     C814648   3.664   2.698   1.750  0.0568  1.5915 -0.1982
  741THF     C914649   3.668   2.761   1.892  0.2253 -0.1838  0.8865
  741THF    H1014650   3.764   2.671   1.717  0.7837  0.0055  2.8740
  741THF    H1114651   3.597   2.613   1.738 -0.0700  1.6736 -0.0743
  741THF    H1214652   3.582   2.735   1.953 -0.7391  0.4422 -0.1712
  741THF    H1314653   3.759   2.743   1.950 -0.0151 -1.5873  0.8742
  742THF     O114654   1.252   1.075   2.327  0.2656 -0.2126  0.0117
  742THF     C214655   1.313   0.983   2.232  0.3239 -0.5187 -0.2369
  742THF     C314656   1.118   1.045   2.357  0.0024  0.6663  0.4047
  742THF     H414657   1.355   0.898   2.284 -1.3196 -0.5038  1.2143
  742THF     H514658   1.395   1.037   2.184 -1.3795  2.4042 -0.1532
  742THF     H614659   1.126   0.993   2.452 -1.4645  2.5242  1.6023
  742THF     H714660   1.055   1.134   2.358 -1.1835 -0.0486 -1.6736
  742THF     C814661   1.069   0.957   2.239 -0.1956 -0.1023  0.0930
  742THF     C914662   1.192   0.955   2.144 -0.4397  0.5660 -0.4817
  742THF    H1014663   0.975   0.977   2.188  0.9397 -1.3560 -2.7101
  742THF    H1114664   1.058   0.853   2.271  0.5740 -0.1030  0.3855
  742THF    H1214665   1.203   0.861   2.091 -0.6168  1.1929 -1.6489
  742THF    H1314666   1.167   1.031   2.070 -0.4184  0.6913 -0.3605
  743THF     O114667   0.637   1.356   2.405  1.0753  0.2621  0.4264
  743THF     C214668   0.644   1.225   2.476 -0.3855  0.4696 -0.0788
  743THF     C314669   0.730   1.442   2.474  0.0313 -0.5386  0.3739
  743THF     H414670   0.720   1.151   2.451  0.0724  0.4817  1.2034
  743THF     H514671   0.544   1.180   2.469 -0.0597 -0.2609 -0.1658
  743THF     H614672   0.834   1.429   2.446 -0.4734 -0.8466 -1.5414
  743THF     H714673   0.704   1.545   2.450 -0.8956 -1.0994 -1.1896
  743THF     C814674   0.695   1.419   2.617  0.0418  0.1492 -0.2153
  743THF     C914675   0.669   1.278   2.621  0.0425  0.1908  0.4030
  743THF    H1014676   0.609   1.480   2.644  0.3552  0.6712 -0.3845
  743THF    H1114677   0.787   1.452   2.666  0.1417 -0.0191 -0.2897
  743THF    H1214678   0.733   1.222   2.689 -1.3406  1.5589  3.0127
  743THF    H1314679   0.577   1.272   2.680  0.1779 -1.8005  0.4771
  744THF     O114680   2.139   3.096   1.395 -0.3046  0.0120  0.2789
  744THF     C214681   2.229   3.007   1.453  0.4402  0.0392  0.5317
  744THF     C314682   2.107   3.195   1.496 -0.1874 -1.6088 -0.3063
  744THF     H414683   2.330   3.046   1.449 -0.3960  2.2586 -1.9783
  744THF     H514684   2.225   2.922   1.385  2.7885  1.7433 -1.9309
  744THF     H614685   2.198   3.255   1.497 -1.4290  0.4231 -1.9257
  744THF     H714686   2.024   3.262   1.477  0.9074 -0.0399  0.2052
  744THF     C814687   2.086   3.111   1.617  0.0600 -0.0273 -0.1571
  744THF     C914688   2.186   2.993   1.597  1.1828  0.5562 -0.3263
  744THF    H1014689   1.988   3.072   1.644  0.7279  0.5396  3.5725
  744THF    H1114690   2.112   3.175   1.701  1.5906  0.2908 -0.8324
  744THF    H1214691   2.271   3.001   1.665  3.1320  1.1860 -2.6781
  744THF    H1314692   2.123   2.906   1.618  0.1021  1.7832  1.8370
  745THF     O114693   2.371   4.004   3.440  0.1105 -0.4726 -0.4625
  745THF     C214694   2.474   3.922   3.498 -1.0838 -1.0614 -0.1265
  745THF     C314695   2.390   4.140   3.481  0.0669  0.0933  0.2770
  745THF     H414696   2.483   3.826   3.446  2.2013 -1.9596  1.7876
  745THF     H514697   2.451   3.899   3.602 -1.8439  1.3194  0.2939
  745THF     H614698   2.346   4.208   3.408  0.1639  0.4250  0.5247
  745THF     H714699   2.340   4.161   3.575 -0.2399  2.7318 -0.3963
  745THF     C814700   2.546   4.152   3.476 -0.2790  0.0252 -0.2844
  745THF     C914701   2.600   4.006   3.493 -0.5936  0.2459  0.3296
  745THF    H1014702   2.579   4.200   3.568  0.3039  0.2735 -0.6175
  745THF    H1114703   2.589   4.200   3.388  0.1086 -0.9258 -0.6279
  745THF    H1214704   2.665   3.980   3.409 -0.2745 -0.3792  0.7692
  745THF    H1314705   2.664   3.990   3.579  1.7465 -0.6535 -1.4903
  746THF     O114706   4.602   0.219   1.357 -0.6068  0.4927 -0.0118
  746THF     C214707   4.641   0.271   1.479 -0.2480 -0.1729 -0.0437
  746THF     C314708   4.720   0.189   1.287  0.5936  0.0611  0.1017
  746THF     H414709   4.671   0.187   1.542  0.9945  1.3864  1.5170
  746THF     H514710   4.560   0.332   1.519  0.3328  0.6162 -0.0428
  746THF     H614711   4.748   0.089   1.319  0.2000 -0.1349 -0.1571
  746THF     H714712   4.688   0.175   1.184 -1.7147 -0.3712  0.8080
  746THF     C814713   4.819   0.300   1.327 -0.4648  0.1684 -0.4747
  746THF     C914714   4.757   0.360   1.452  0.0131  0.9118  0.2750
  746THF    H1014715   4.840   0.377   1.253  0.4829  0.1404 -0.2359
  746THF    H1114716   4.912   0.250   1.352  0.3318  2.1160  0.6990
  746THF    H1214717   4.828   0.367   1.534 -0.1281  0.4853  0.4376
  746THF    H1314718   4.720   0.458   1.421 -0.7044  0.7565  0.6089
  747THF     O114719   3.341   0.899   4.155  0.3671  0.0334  0.0471
  747THF     C214720   3.321   0.868   4.013 -0.0118 -0.2398  0.0350
  747THF     C314721   3.364   1.036   4.154 -0.1459  0.2226  0.2943
  747THF     H414722   3.259   0.780   3.999  1.0233 -1.1045  0.7253
  747THF     H514723   3.418   0.841   3.972 -0.8701 -1.0138 -1.5723
  747THF     H614724   3.357   1.074   4.256  2.4383  0.7278  0.3644
  747THF     H714725   3.467   1.062   4.131 -0.4741  0.9292 -0.4430
  747THF     C814726   3.263   1.092   4.052 -0.2072  0.7287 -0.4459
  747THF     C914727   3.255   0.987   3.946 -1.0033 -0.0088  0.3963
  747THF    H1014728   3.283   1.191   4.008  0.1620 -0.1588 -2.4100
  747THF    H1114729   3.167   1.100   4.103  0.5354 -0.7022  1.2744
  747THF    H1214730   3.151   0.979   3.914 -1.1432 -0.9630  1.0424
  747THF    H1314731   3.314   1.013   3.858 -3.0744  0.9226 -0.7972
  748THF     O114732   2.441   4.203   5.282  0.0125  1.1061 -0.6361
  748THF     C214733   2.493   4.302   5.371 -0.0140  0.8955  0.1713
  748THF     C314734   2.367   4.275   5.184 -0.2152  0.1132 -0.9682
  748THF     H414735   2.563   4.360   5.312  0.9535 -0.2994  0.1096
  748THF     H514736   2.537   4.255   5.459 -1.0814 -1.1329 -0.3136
  748THF     H614737   2.427   4.330   5.112 -0.3669  0.9462 -0.4712
  748THF     H714738   2.294   4.216   5.127  0.7787 -0.0936 -2.0518
  748THF     C814739   2.290   4.374   5.271 -0.2226  0.0715 -0.6685
  748THF     C914740   2.368   4.385   5.399  0.2327  0.2500  0.2337
  748THF    H1014741   2.191   4.339   5.300  1.2553 -2.2001  2.2912
  748THF    H1114742   2.280   4.472   5.225  0.3311  0.3407 -0.2229
  748THF    H1214743   2.408   4.485   5.416  0.8486 -0.2448  1.9041
  748THF    H1314744   2.317   4.358   5.491  1.7696 -0.9663  0.7662
  749THF     O114745   3.465   5.089   0.515  0.3176 -0.0281 -0.6210
  749THF     C214746   3.477   5.003   0.625 -0.3609  0.3351  0.2590
  749THF     C314747   3.341   5.167   0.534  0.3710  0.9315  0.7417
  749THF     H414748   3.580   4.972   0.640 -0.2933 -0.3403 -1.3683
  749THF     H514749   3.416   4.913   0.617  0.0374  0.1772 -1.7583
  749THF     H614750   3.340   5.265   0.487 -0.1259 -0.0101 -1.3344
  749THF     H714751   3.247   5.117   0.509  0.7566  0.2059  0.7010
  749THF     C814752   3.337   5.199   0.676  0.7181  0.1975  0.3849
  749THF     C914753   3.433   5.102   0.742  0.0686  0.0627 -0.0132
  749THF    H1014754   3.236   5.193   0.715  1.3593  1.0672  2.3212
  749THF    H1114755   3.375   5.301   0.689 -0.2526  0.4368  1.5778
  749THF    H1214756   3.509   5.168   0.784 -1.3867  2.7236 -1.2471
  749THF    H1314757   3.381   5.052   0.824 -3.3684 -1.6242 -2.9298
  750THF     O114758   4.991   3.215   5.382  0.1123 -0.1606 -0.1678
  750THF     C214759   5.007   3.086   5.332  0.1184  0.0814  0.1400
  750THF     C314760   4.860   3.224   5.436 -0.2159 -0.4961  0.3777
  750THF     H414761   5.115   3.068   5.323 -0.0293  0.1851 -3.9123
  750THF     H514762   4.964   3.083   5.232  0.5785 -2.6695 -0.0631
  750THF     H614763   4.865   3.283   5.527 -1.2989  0.9411 -0.4615
  750THF     H714764   4.798   3.269   5.359 -0.0275  1.7917  1.4740
  750THF     C814765   4.807   3.089   5.468 -0.0069  0.4161 -0.6768
  750THF     C914766   4.931   3.006   5.436 -0.5869 -0.4059  0.3734
  750THF    H1014767   4.716   3.081   5.408 -1.1329 -1.1970  1.1296
  750THF    H1114768   4.781   3.083   5.573 -0.1081 -0.4387 -0.7434
  750THF    H1214769   4.994   3.003   5.524 -2.0498 -0.1085  1.4658
  750THF    H1314770   4.919   2.903   5.402  0.2211 -0.2238 -0.5177
  751THF     O114771   1.309   4.078   2.027  0.3256 -0.1735  0.8096
  751THF     C214772   1.353   3.966   1.954 -0.6163  0.5218 -0.8283
  751THF     C314773   1.410   4.155   2.085  0.5936 -0.4117 -0.2612
  751THF     H414774   1.356   3.983   1.846 -1.9316  1.2683 -0.7727
  751THF     H514775   1.290   3.880   1.974  1.0954 -0.1343  2.3017
  751THF     H614776   1.443   4.229   2.012 -0.9158 -0.8560 -1.4434
  751THF     H714777   1.376   4.204   2.177 -1.1263 -1.0188 -0.5373
  751THF     C814778   1.521   4.056   2.105  0.0034 -1.0919 -0.8453
  751THF     C914779   1.486   3.936   2.017 -0.2504 -0.3394 -0.0719
  751THF    H1014780   1.503   4.033   2.210  0.6040  0.3649 -0.3917
  751THF    H1114781   1.621   4.100   2.098 -0.2721 -0.5161 -1.2776
  751THF    H1214782   1.561   3.909   1.943 -0.4608 -1.7815  0.2044
  751THF    H1314783   1.495   3.842   2.071  2.0803 -0.4872 -0.6038
  752THF     O114784   1.936   2.834   1.022  0.5091 -0.5281  0.8712
  752THF     C214785   1.947   2.738   0.919  0.9218  0.2293 -0.2226
  752THF     C314786   1.811   2.911   1.006  0.0497  0.0500 -0.0498
  752THF     H414787   1.879   2.658   0.948  1.1494  0.7565  2.0152
  752THF     H514788   2.048   2.707   0.893  0.5786  0.3707 -1.8302
  752THF     H614789   1.733   2.886   1.078 -1.4716 -0.5172 -1.8322
  752THF     H714790   1.849   3.012   1.021  3.6297 -0.8559 -1.9219
  752THF     C814791   1.771   2.891   0.863 -0.8475  0.3861  1.0705
  752THF     C914792   1.888   2.813   0.794 -0.2749 -0.2637  0.8198
  752THF    H1014793   1.745   2.986   0.817 -1.4013 -0.2290  0.1003
  752THF    H1114794   1.685   2.825   0.876 -1.0416  0.1919 -0.9592
  752THF    H1214795   1.849   2.743   0.719 -2.5486  1.3695  0.3846
  752THF    H1314796   1.965   2.880   0.756  0.2724 -0.6237  1.2710
  753THF     O114797   2.374   2.550   1.185 -0.3726  1.0447  0.3313
  753THF     C214798   2.413   2.448   1.279  1.1162  0.2291 -0.0162
  753THF     C314799   2.278   2.632   1.244 -0.4718 -0.0265 -0.0523
  753THF     H414800   2.518   2.449   1.309  0.2950 -0.2979  3.2854
  753THF     H514801   2.379   2.356   1.231 -2.9641  1.3684  0.2566
  753THF     H614802   2.324   2.718   1.293 -3.4943  0.2158  2.6611
  753THF     H714803   2.199   2.674   1.182 -1.5601  0.7261  1.7407
  753THF     C814804   2.218   2.543   1.344  0.5007  0.2444 -0.4006
  753THF     C914805   2.328   2.470   1.406 -0.1590  0.4249  0.5485
  753THF    H1014806   2.144   2.487   1.287 -1.1660  1.6867  0.2422
  753THF    H1114807   2.158   2.609   1.407 -1.6046  0.0406 -2.0781
  753THF    H1214808   2.388   2.525   1.480 -0.2235  0.5323  0.5218
  753THF    H1314809   2.306   2.369   1.439 -0.9689 -0.1346 -1.5882
  754PF6-    P114810   0.488   4.644   4.483  0.2278  0.5552  0.0513
  754PF6-    F214811   0.427   4.644   4.332 -0.1558  0.4131 -0.2200
  754PF6-    F314812   0.553   4.639   4.628  0.0976  0.3210  0.2287
  754PF6-    F414813   0.419   4.788   4.516 -0.2002 -0.4935  0.5498
  754PF6-    F514814   0.551   4.497   4.452 -0.2747 -0.0003 -0.4520
  754PF6-    F614815   0.617   4.712   4.419 -0.0132 -0.1834  0.0270
  754PF6-    F714816   0.352   4.575   4.538 -0.3890 -0.2152  0.2855
  755PF6-    P114817   4.767   2.607   4.631  0.1998 -0.0439  0.0729
  755PF6-    F214818   4.734   2.728   4.535  0.0321  0.1461 -0.1446
  755PF6-    F314819   4.797   2.481   4.727  0.0231 -0.2030  0.4173
  755PF6-    F414820   4.854   2.541   4.512  0.6409  0.5829 -0.1647
  755PF6-    F514821   4.677   2.672   4.748  0.2770  0.2010  0.4811
  755PF6-    F614822   4.638   2.528   4.564  0.0681 -0.2468  0.1645
  755PF6-    F714823   4.900   2.685   4.688  0.6981 -0.1393 -0.2095
  756PF6-    P114824   1.374   5.440   3.203  0.1977 -0.3727 -0.2831
  756PF6-    F214825   1.405   5.280   3.182  0.2610 -0.7231 -0.1968
  756PF6-    F314826   1.335   5.595   3.234 -0.1531  0.2762 -0.8698
  756PF6-    F414827   1.219   5.405   3.192 -0.0745 -0.5184  0.4355
  756PF6-    F514828   1.531   5.465   3.215  0.1699 -0.3969 -0.2116
  756PF6-    F614829   1.379   5.478   3.050  0.1171 -0.3763  0.4833
  756PF6-    F714830   1.363   5.409   3.359  0.1013  0.4233  0.2624
  757PF6-    P114831   3.338   3.163   0.258  0.2679  0.0735  0.2188
  757PF6-    F214832   3.321   3.107   0.411 -0.6991 -0.5716  0.4905
  757PF6-    F314833   3.356   3.225   0.111 -0.5710  0.1294  0.2436
  757PF6-    F414834   3.498   3.129   0.256  0.4819 -0.3465 -0.0771
  757PF6-    F514835   3.183   3.198   0.259  0.4855  0.1023 -0.1677
  757PF6-    F614836   3.366   3.305   0.322 -0.1321 -0.5029  0.3100
  757PF6-    F714837   3.302   3.021   0.194 -0.2303 -0.2476 -0.6358
  758PF6-    P114838   4.005   3.481   2.083 -0.1665 -0.5305 -0.1325
  758PF6-    F214839   4.054   3.477   1.931  0.5190  0.1584  0.2116
  758PF6-    F314840   3.974   3.481   2.238  0.7041 -0.7795 -0.5746
  758PF6-    F414841   3.854   3.492   2.043  0.2333 -0.0716  0.2668
  758PF6-    F514842   4.157   3.479   2.124 -0.0166  0.1504  0.0274
  758PF6-    F614843   4.011   3.640   2.086  0.0606 -0.3529 -0.3909
  758PF6-    F714844   4.000   3.323   2.083  0.2591 -0.7685  0.0831
  759PF6-    P114845   0.724   4.637   3.387  0.2320 -0.4152 -0.2161
  759PF6-    F214846   0.797   4.771   3.443  0.5008  0.7802  0.0865
  759PF6-    F314847   0.657   4.503   3.335 -0.8686 -0.2988  0.2874
  759PF6-    F414848   0.867   4.582   3.345 -0.0828 -0.0697  0.1595
  759PF6-    F514849   0.582   4.687   3.436  0.4641 -0.0585  0.3311
  759PF6-    F614850   0.716   4.704   3.242  0.5370  0.4509  0.2562
  759PF6-    F714851   0.744   4.568   3.532  0.1084  0.2230 -0.3998
  760PF6-    P114852   3.972   4.293   2.363 -0.0181 -0.4545  0.1525
  760PF6-    F214853   4.132   4.271   2.331 -0.1428 -0.2839  0.0949
  760PF6-    F314854   3.815   4.313   2.386 -0.2110 -0.1292 -0.2246
  760PF6-    F414855   3.953   4.132   2.366  0.0605 -0.3376  0.7159
  760PF6-    F514856   3.997   4.448   2.358  0.3976 -0.3774 -0.0967
  760PF6-    F614857   3.948   4.293   2.204 -0.3450 -0.2232  0.0575
  760PF6-    F714858   3.995   4.292   2.525  0.0218 -0.3136  0.4929
  761PF6-    P114859   5.328   1.990   3.384 -0.1120  0.1360 -0.1028
  761PF6-    F214860   5.181   2.006   3.442 -0.0336  0.9013  0.0707
  761PF6-    F314861   5.473   1.976   3.327 -0.2560 -0.3113  0.0771
  761PF6-    F414862   5.268   1.950   3.242  0.0648 -0.1990 -0.2647
  761PF6-    F514863   5.390   2.026   3.529 -0.0304  0.0304 -0.2579
  761PF6-    F614864   5.325   1.835   3.428  0.0171 -0.2800  0.1196
  761PF6-    F714865   5.330   2.144   3.342  0.0749 -0.0571 -0.2713
  762PF6-    P114866   0.734   0.777   2.690  0.0189  0.0960  0.0143
  762PF6-    F214867   0.668   0.750   2.836 -0.0379  0.0151  0.1220
  762PF6-    F314868   0.797   0.805   2.540 -1.0169 -0.1826 -0.4488
  762PF6-    F414869   0.597   0.724   2.622  0.3087  0.0221 -0.1934
  762PF6-    F514870   0.870   0.822   2.753  0.4257  0.0065  0.0677
  762PF6-    F614871   0.786   0.626   2.683 -0.2950  0.2120  0.1189
  762PF6-    F714872   0.669   0.926   2.685 -0.1104 -0.0443  0.4191
  763PF6-    P114873   3.842   1.818   0.814  0.4157 -0.1263 -0.6423
  763PF6-    F214874   3.988   1.809   0.771  0.1248  0.0122 -0.4935
  763PF6-    F314875   3.690   1.818   0.851 -0.0842  0.0225 -0.1430
  763PF6-    F414876   3.863   1.675   0.890 -0.1100 -0.4449  0.2819
  763PF6-    F514877   3.818   1.951   0.733 -0.1661 -0.4428  0.1909
  763PF6-    F614878   3.807   1.729   0.682  0.6385  0.3988 -0.3291
  763PF6-    F714879   3.879   1.908   0.947  0.3520 -0.1932  0.0632
  764PF6-    P114880   3.500   1.218   0.600 -0.1700 -0.1990 -0.2509
  764PF6-    F214881   3.577   1.086   0.637  0.0815 -0.3499  0.1707
  764PF6-    F314882   3.423   1.350   0.566 -0.2542 -0.1692  0.3053
  764PF6-    F414883   3.372   1.131   0.570 -0.3040 -0.4138  0.0903
  764PF6-    F514884   3.629   1.302   0.632 -0.0173 -0.2858 -0.1486
  764PF6-    F614885   3.554   1.200   0.447  0.5213 -0.2289  0.1924
  764PF6-    F714886   3.449   1.235   0.751 -0.4809  0.3885  0.3653
  765PF6-    P114887   3.174   2.219   0.556  0.1221  0.2261 -0.1206
  765PF6-    F214888   3.314   2.297   0.551  0.4187 -0.4122 -0.6076
  765PF6-    F314889   3.039   2.125   0.565  0.0852 -0.3989 -0.3115
  765PF6-    F414890   3.253   2.093   0.504  0.6082 -0.9010 -0.0226
  765PF6-    F514891   3.098   2.351   0.609 -0.7192  0.2896 -0.8093
  765PF6-    F614892   3.142   2.264   0.407  0.4355  0.2963  0.3618
  765PF6-    F714893   3.213   2.180   0.710 -0.1045 -0.5900  0.0394
  766PF6-    P114894   0.889   2.534   4.662 -0.3057  0.1346 -0.3521
  766PF6-    F214895   0.799   2.544   4.529  0.1296  0.9899  0.0479
  766PF6-    F314896   0.980   2.520   4.795 -0.2543  0.0308 -0.0050
  766PF6-    F414897   0.907   2.374   4.627 -0.5402 -0.1466 -0.4651
  766PF6-    F514898   0.870   2.691   4.686 -0.0659 -0.1804 -0.0045
  766PF6-    F614899   0.762   2.501   4.745  0.6368  0.2888  0.0502
  766PF6-    F714900   1.022   2.563   4.580 -0.0779  0.1857 -0.3140
  767PF6-    P114901   0.535   4.841   1.458 -0.4636  0.0220 -0.4186
  767PF6-    F214902   0.479   4.865   1.601 -0.7247  0.0658  0.1735
  767PF6-    F314903   0.596   4.816   1.315 -0.0679 -0.0343 -0.2573
  767PF6-    F414904   0.685   4.833   1.521  0.1623 -0.3474  0.4606
  767PF6-    F514905   0.386   4.838   1.402 -0.6590 -0.6893 -0.8858
  767PF6-    F614906   0.550   5.000   1.443  0.4548  0.0823 -0.1921
  767PF6-    F714907   0.516   4.686   1.475 -0.1264 -0.1929  0.6359
  768PF6-    P114908   3.864   3.481   0.873  0.4293  0.1072 -0.0239
  768PF6-    F214909   3.991   3.419   0.940 -0.1518 -0.5610  0.0424
  768PF6-    F314910   3.737   3.546   0.806 -0.3139  0.7513 -0.1434
  768PF6-    F414911   3.949   3.503   0.733 -0.2610  0.6485  0.0496
  768PF6-    F514912   3.777   3.461   1.006  0.0227  0.1838 -0.1654
  768PF6-    F614913   3.917   3.619   0.927  0.2336 -0.2185 -0.2951
  768PF6-    F714914   3.817   3.333   0.825 -0.2284 -0.2763  0.3171
  769PF6-    P114915   1.706   1.379   4.257 -0.3418 -0.1557 -0.3703
  769PF6-    F214916   1.637   1.271   4.157  0.1689 -0.1444 -0.1860
  769PF6-    F314917   1.772   1.486   4.357  0.1265  0.3935  0.2540
  769PF6-    F414918   1.649   1.309   4.388  0.3134  0.4901 -0.2286
  769PF6-    F514919   1.761   1.458   4.134  0.5018  0.3272 -0.3380
  769PF6-    F614920   1.573   1.470   4.253 -0.8005  0.2801  0.2029
  769PF6-    F714921   1.835   1.291   4.266  0.4624 -0.1445  0.5252
  770PF6-    P114922   2.298   2.832   2.453 -0.0161 -0.4709 -0.0787
  770PF6-    F214923   2.394   2.750   2.556 -0.6426  0.4373  0.2634
  770PF6-    F314924   2.199   2.914   2.363  0.0653 -0.2281  0.3503
  770PF6-    F414925   2.337   2.969   2.532 -0.1249  0.0490 -0.3104
  770PF6-    F514926   2.265   2.698   2.377  0.0301  0.8980 -0.2277
  770PF6-    F614927   2.170   2.801   2.543  0.3874 -0.1144  0.0799
  770PF6-    F714928   2.420   2.853   2.355  0.0302  0.4951 -0.1999
  771PF6-    P114929   2.979   3.142   4.394  0.2354  0.3368 -0.2203
  771PF6-    F214930   3.111   3.111   4.479  0.0170  0.0843 -0.1992
  771PF6-    F314931   2.845   3.172   4.314  0.2301  0.0964  0.0391
  771PF6-    F414932   2.902   3.169   4.533 -0.3110 -0.2519  0.0289
  771PF6-    F514933   3.061   3.129   4.261  0.2776  0.2663 -0.1144
  771PF6-    F614934   2.936   2.985   4.396 -1.2567  0.1502  0.3000
  771PF6-    F714935   3.012   3.297   4.389 -0.4350  0.1073 -0.0717
  772PF6-    P114936   0.938   5.489   2.280 -0.0479  0.1639  0.2928
  772PF6-    F214937   0.848   5.355   2.302 -0.2250  0.4831 -0.3674
  772PF6-    F314938   1.028   5.615   2.255  0.3657  0.2479  0.3829
  772PF6-    F414939   0.906   5.479   2.122  0.0592  0.1360  0.0267
  772PF6-    F514940   0.972   5.498   2.432 -0.5917  0.4611 -0.2481
  772PF6-    F614941   1.077   5.404   2.252  0.1845  0.0530 -0.4366
  772PF6-    F714942   0.810   5.577   2.310 -0.0059 -0.2286 -0.7718
  773PF6-    P114943   2.730   4.346   4.871 -0.1710  0.1609  0.1907
  773PF6-    F214944   2.688   4.333   5.027 -0.4067  0.1558 -0.1161
  773PF6-    F314945   2.768   4.355   4.714 -0.0593 -0.7625 -0.0478
  773PF6-    F414946   2.692   4.187   4.856  0.4417 -0.1182 -0.0143
  773PF6-    F514947   2.767   4.499   4.892  0.1472 -0.0722 -0.2057
  773PF6-    F614948   2.879   4.304   4.908  0.5136 -0.1264  0.4217
  773PF6-    F714949   2.576   4.389   4.830  0.1883  0.0049  0.2357
  774PF6-    P114950   1.745   2.543   5.179  0.3565  0.0213 -0.0753
  774PF6-    F214951   1.718   2.386   5.175  0.0327  0.3984  0.2903
  774PF6-    F314952   1.769   2.701   5.186 -0.7121 -0.4031 -0.1181
  774PF6-    F414953   1.581   2.567   5.172 -0.1557  0.3609  0.4123
  774PF6-    F514954   1.896   2.519   5.190 -0.9435  0.1239  0.0176
  774PF6-    F614955   1.755   2.552   5.018 -0.7785 -0.2343  0.1112
  774PF6-    F714956   1.736   2.537   5.340 -0.2856  0.0661 -0.0060
  775PF6-    P114957   4.671   2.035   1.498 -0.3002  0.0547 -0.2055
  775PF6-    F214958   4.560   2.143   1.542  0.0370  0.0330 -0.2047
  775PF6-    F314959   4.781   1.931   1.466 -0.2840 -0.1805 -0.1895
  775PF6-    F414960   4.645   1.956   1.636  0.4509  0.5737  0.1507
  775PF6-    F514961   4.701   2.110   1.363 -0.2007  0.1405 -0.0551
  775PF6-    F614962   4.781   2.126   1.574 -0.2134 -0.2680 -0.7123
  775PF6-    F714963   4.559   1.948   1.423  0.1990 -1.0026  0.2355
  776PF6-    P114964   0.161   0.178   3.013  0.2801 -0.3649 -0.0842
  776PF6-    F214965   0.261   0.298   2.980 -0.4063  0.2989  0.4067
  776PF6-    F314966   0.058   0.062   3.051 -0.1339 -0.0094  0.3903
  776PF6-    F414967   0.055   0.287   3.073  0.0646 -0.7695  0.1030
  776PF6-    F514968   0.263   0.068   2.968 -0.4039 -0.2080 -0.2189
  776PF6-    F614969   0.225   0.161   3.160 -0.1450  0.1436 -0.5315
  776PF6-    F714970   0.095   0.180   2.867 -0.1743 -0.1667  0.5861
  777PF6-    P114971   3.350   0.133   2.329 -0.0083 -0.0307  0.2779
  777PF6-    F214972   3.373  -0.001   2.251 -0.2613  0.0032 -0.2346
  777PF6-    F314973   3.316   0.272   2.404 -0.5612 -0.1064  0.3102
  777PF6-    F414974   3.500   0.179   2.301  0.6742 -0.0196  0.2762
  777PF6-    F514975   3.201   0.084   2.358  0.2555 -0.0737  0.3328
  777PF6-    F614976   3.393   0.075   2.470  0.2098  0.1489 -0.0789
  777PF6-    F714977   3.301   0.199   2.190 -0.0142 -0.2653 -0.3991
  778PF6-    P114978   1.147   0.033   4.305  0.3782  0.2428  0.2046
  778PF6-    F214979   1.251   0.134   4.232 -0.4206  0.2484  0.1493
  778PF6-    F314980   1.053  -0.068   4.380 -0.3787 -0.3543  0.3221
  778PF6-    F414981   1.041   0.067   4.191 -0.1089  0.4213 -0.4705
  778PF6-    F514982   1.256  -0.001   4.416 -0.3864 -0.1550 -0.1613
  778PF6-    F614983   1.091   0.148   4.397  0.1191  0.1469  0.4380
  778PF6-    F714984   1.205  -0.089   4.214 -0.0252 -0.2321  0.5043
  779PF6-    P114985   1.718   4.844   5.487 -0.1751  0.5015  0.3919
  779PF6-    F214986   1.598   4.891   5.388 -0.1892 -0.2322  0.2772
  779PF6-    F314987   1.837   4.786   5.589 -0.1503 -0.5802 -0.2654
  779PF6-    F414988   1.803   4.980   5.457  0.2141 -0.5691 -0.2130
  779PF6-    F514989   1.625   4.712   5.521  0.2909  0.6434 -0.3313
  779PF6-    F614990   1.790   4.764   5.374 -0.4065 -0.3199  0.0743
  779PF6-    F714991   1.644   4.913   5.612 -0.1453 -0.0688  0.5571
  780PF6-    P114992   3.708   4.398   0.424 -0.3175  0.2985  0.1398
  780PF6-    F214993   3.604   4.385   0.301  0.2082 -0.1680  0.0919
  780PF6-    F314994   3.806   4.409   0.551 -0.8197  0.1723  0.4045
  780PF6-    F414995   3.653   4.546   0.451  0.6295  0.3028 -0.0120
  780PF6-    F514996   3.767   4.251   0.395  0.1399 -0.0192  0.1537
  780PF6-    F614997   3.819   4.464   0.337 -0.1121 -0.4041  0.9239
  780PF6-    F714998   3.593   4.344   0.517 -0.2629 -0.0044 -0.4591
  781PF6-    P114999   0.911   1.111   4.931  0.3406 -0.9458  0.3093
  781PF6-    F215000   0.891   1.046   4.786  0.2543 -0.1114  0.1218
  781PF6-    F315001   0.941   1.180   5.073  0.5153 -0.0467 -0.0709
  781PF6-    F415002   1.025   1.010   4.964 -0.1712 -0.0066  0.1578
  781PF6-    F515003   0.790   1.212   4.905 -0.6317  0.0319  0.3345
  781PF6-    F615004   0.808   1.004   4.995  0.4382  0.8261  0.5816
  781PF6-    F715005   1.019   1.214   4.863 -0.0734 -0.5536  0.1186
  782PF6-    P115006   3.478   0.517   1.533 -0.0749  0.0804 -0.2591
  782PF6-    F215007   3.486   0.428   1.401 -0.0841 -0.0814 -0.1589
  782PF6-    F315008   3.464   0.602   1.666  0.3824  0.9710  0.0971
  782PF6-    F415009   3.482   0.648   1.448  0.3203  0.3760 -0.1675
  782PF6-    F515010   3.474   0.382   1.622  0.1900 -0.4398  0.2347
  782PF6-    F615011   3.637   0.517   1.547 -0.4835  0.2464  0.5665
  782PF6-    F715012   3.321   0.522   1.526 -0.1045  0.0065 -0.7209
  783PF6-    P115013   2.608   3.553   3.678  0.1732  0.5835  0.2391
  783PF6-    F215014   2.560   3.442   3.781 -0.4289 -0.4443 -0.3809
  783PF6-    F315015   2.661   3.665   3.578  0.6009 -0.2660 -0.0582
  783PF6-    F415016   2.455   3.571   3.627  0.3075 -0.1642  0.7222
  783PF6-    F515017   2.752   3.529   3.741 -0.3377  0.3274 -0.1172
  783PF6-    F615018   2.643   3.442   3.562 -0.6954  0.3283 -0.0455
  783PF6-    F715019   2.581   3.664   3.785 -0.4997 -0.7919 -0.0683
  784PF6-    P115020   4.236   3.789   3.047  0.5375  0.2727  0.0168
  784PF6-    F215021   4.223   3.703   2.910  0.0656 -0.2509 -0.2062
  784PF6-    F315022   4.259   3.870   3.185  0.6751  0.1295 -0.1889
  784PF6-    F415023   4.380   3.833   3.008  0.0347 -0.0606 -0.2045
  784PF6-    F515024   4.082   3.758   3.082 -0.5919  0.2610  0.5002
  784PF6-    F615025   4.275   3.651   3.124 -0.3321 -0.5420  0.0259
  784PF6-    F715026   4.190   3.926   2.974  0.3303 -0.0213  0.2933
  785PF6-    P115027   4.844   0.612   2.613  0.1059  0.2764  0.1503
  785PF6-    F215028   4.820   0.596   2.769  0.1377 -0.2886 -0.2228
  785PF6-    F315029   4.885   0.630   2.465  0.3060 -0.0309  0.0221
  785PF6-    F415030   5.001   0.578   2.644 -0.2315 -0.0066 -0.1535
  785PF6-    F515031   4.689   0.650   2.585  0.1290  0.0904 -0.0502
  785PF6-    F615032   4.878   0.765   2.647 -0.4393 -1.0334  0.4303
  785PF6-    F715033   4.819   0.453   2.591 -0.0992  0.4770  0.1359
  786PF6-    P115034   2.708   1.793   3.254  0.4864  0.5488  0.5997
  786PF6-    F215035   2.628   1.651   3.259 -0.5434  0.8690  0.3806
  786PF6-    F315036   2.787   1.941   3.247  0.1704 -0.3650 -0.2244
  786PF6-    F415037   2.799   1.749   3.384 -0.0108  0.3522  0.0841
  786PF6-    F515038   2.625   1.833   3.126 -0.6072  0.0487  0.1963
  786PF6-    F615039   2.603   1.859   3.362 -0.0744 -0.0767  0.0687
  786PF6-    F715040   2.820   1.734   3.154  0.5916 -0.0230 -0.0034
  787PF6-    P115041   3.015   1.590   2.067  0.0375  0.3890  0.0522
  787PF6-    F215042   3.158   1.620   2.129 -0.0914  0.1624  0.4783
  787PF6-    F315043   2.864   1.564   2.000 -0.1697  0.6797 -0.2091
  787PF6-    F415044   3.085   1.511   1.944  0.0908 -0.5027 -0.0052
  787PF6-    F515045   2.951   1.667   2.191 -0.1430  0.7979  0.0401
  787PF6-    F615046   3.032   1.732   1.987  0.2093  0.1377 -0.4572
  787PF6-    F715047   3.000   1.451   2.139 -0.5942  0.3809  0.0894
  788PF6-    P115048   3.306   0.986   5.234  0.2268  0.0878 -0.0308
  788PF6-    F215049   3.459   0.971   5.221 -0.6612 -0.3473 -0.8745
  788PF6-    F315050   3.146   1.008   5.246  0.3744 -0.6605 -0.3903
  788PF6-    F415051   3.325   1.053   5.380  0.1364 -0.0461  0.2208
  788PF6-    F515052   3.284   0.921   5.090 -0.2109 -0.0855 -0.2676
  788PF6-    F615053   3.290   0.840   5.294 -0.0063 -0.2096 -0.5299
  788PF6-    F715054   3.308   1.128   5.170  0.1899 -0.2691  0.1431
  789PF6-    P115055   2.235   2.110   2.757 -0.0512  0.3052  0.0747
  789PF6-    F215056   2.359   2.127   2.860  0.8531 -0.6059  0.2807
  789PF6-    F315057   2.112   2.099   2.652  0.1276 -0.3164 -0.7399
  789PF6-    F415058   2.132   2.150   2.869 -0.7937  0.4001  0.1679
  789PF6-    F515059   2.339   2.062   2.640 -0.6773 -0.6077 -0.1694
  789PF6-    F615060   2.218   1.954   2.800  0.5743 -0.1310 -0.8244
  789PF6-    F715061   2.244   2.266   2.715 -0.6659 -0.0286  0.1744
  790PF6-    P115062   1.532   4.861   0.958 -0.0387  0.2330  0.1820
  790PF6-    F215063   1.593   4.947   0.834 -0.0359  0.1855 -0.2152
  790PF6-    F315064   1.482   4.782   1.088  0.6102 -0.4139  0.4230
  790PF6-    F415065   1.564   4.986   1.054 -0.2592 -1.1813 -0.7484
  790PF6-    F515066   1.493   4.738   0.864 -0.0448 -0.2133 -0.3765
  790PF6-    F615067   1.681   4.793   0.979  0.4626  0.3423  0.1763
  790PF6-    F715068   1.384   4.919   0.944 -0.0270 -0.5074  0.6602
  791PF6-    P115069   5.373   1.781   4.409  0.0254  0.4417  0.2226
  791PF6-    F215070   5.456   1.642   4.390 -0.2032  0.3325  0.2582
  791PF6-    F315071   5.297   1.919   4.425 -0.2314 -0.7796 -0.3065
  791PF6-    F415072   5.332   1.779   4.253  0.3615  0.1776  0.3367
  791PF6-    F515073   5.419   1.786   4.561 -0.1284  0.1489 -0.1751
  791PF6-    F615074   5.508   1.858   4.372 -0.3041 -1.0840  0.2585
  791PF6-    F715075   5.247   1.701   4.444 -0.1278 -0.3070  0.0505
  792PF6-    P115076   4.864   3.085   3.350  0.0633  0.1401 -0.3006
  792PF6-    F215077   4.814   3.137   3.209  0.0799  0.0168 -0.0120
  792PF6-    F315078   4.913   3.023   3.495 -0.2283 -0.6662 -0.4821
  792PF6-    F415079   4.998   3.176   3.346  0.9934  0.3403  0.5331
  792PF6-    F515080   4.732   2.992   3.354 -0.3891 -0.3664 -0.2157
  792PF6-    F615081   4.954   2.962   3.276  0.0218 -0.1047 -0.6080
  792PF6-    F715082   4.788   3.207   3.419  0.5169 -0.0209 -0.0594
  793PF6-    P115083   1.486   4.423   2.541  0.3045  0.0189 -0.5685
  793PF6-    F215084   1.558   4.565   2.558  0.6080 -0.2883 -0.8434
  793PF6-    F315085   1.415   4.279   2.527  0.1263  0.4084 -0.6173
  793PF6-    F415086   1.618   4.354   2.596 -0.1498  0.1620  0.2743
  793PF6-    F515087   1.356   4.488   2.471  0.5199  0.4491 -0.2142
  793PF6-    F615088   1.543   4.412   2.394  0.4013 -0.6526  0.3238
  793PF6-    F715089   1.428   4.442   2.691  0.0458 -0.1459 -0.0901
  794PF6-    P115090   0.756   0.379   0.580 -0.0422 -0.3353 -0.3444
  794PF6-    F215091   0.638   0.279   0.620  0.1060 -0.4497  0.0178
  794PF6-    F315092   0.879   0.471   0.549 -0.4960  0.3845 -0.0874
  794PF6-    F415093   0.646   0.484   0.520  0.7359 -0.1697  0.1025
  794PF6-    F515094   0.861   0.271   0.636 -0.3501 -0.3128  0.5036
  794PF6-    F615095   0.767   0.319   0.437 -0.2443  0.2609  0.4130
  794PF6-    F715096   0.746   0.451   0.730  0.2815  0.0638  0.0765
  795PF6-    P115097   2.145   0.379   2.674  0.3426 -0.0392 -0.1332
  795PF6-    F215098   2.186   0.454   2.815 -0.4054  0.1391 -0.1750
  795PF6-    F315099   2.094   0.313   2.536 -0.5315  0.3766 -0.0391
  795PF6-    F415100   2.296   0.339   2.643  0.6256  0.4608 -0.1371
  795PF6-    F515101   1.993   0.409   2.707  0.2057 -0.0770 -0.1488
  795PF6-    F615102   2.159   0.520   2.597  0.0243  0.0688  0.0754
  795PF6-    F715103   2.125   0.238   2.752 -0.4125  0.3013 -0.4938
  796PF6-    P115104   5.184   5.047   3.546  0.2366  0.5238  0.3302
  796PF6-    F215105   5.308   5.105   3.624 -0.1431  0.0102  0.1801
  796PF6-    F315106   5.052   4.994   3.462 -0.1032  0.0216 -0.1422
  796PF6-    F415107   5.175   4.919   3.642  0.1460 -0.4930 -0.3167
  796PF6-    F515108   5.193   5.172   3.444 -0.0143  0.0052  0.2878
  796PF6-    F615109   5.282   4.964   3.450  0.0244  0.2512 -0.4181
  796PF6-    F715110   5.083   5.128   3.635  0.0997  0.1720  0.1291
  797PF6-    P115111   2.482   2.050   1.389 -0.3606  0.1130 -0.2931
  797PF6-    F215112   2.639   2.017   1.376 -0.1151 -0.1909 -0.2371
  797PF6-    F315113   2.325   2.078   1.404  0.0907 -0.2179 -0.2391
  797PF6-    F415114   2.511   2.191   1.459 -0.3943  0.0838 -0.0474
  797PF6-    F515115   2.447   1.905   1.323  0.1787 -0.7663  0.1844
  797PF6-    F615116   2.482   1.987   1.536  0.2207  0.0790  0.0032
  797PF6-    F715117   2.477   2.115   1.247  0.1361  0.2854 -0.1130
  798PF6-    P115118   4.158   2.037   5.268  0.2283  0.0047 -0.3712
  798PF6-    F215119   4.122   2.150   5.154  0.7839  0.8422 -0.0586
  798PF6-    F315120   4.196   1.916   5.369  0.1114  0.2195  0.1746
  798PF6-    F415121   4.241   1.962   5.160 -0.5500  0.2336 -0.0661
  798PF6-    F515122   4.077   2.114   5.384 -0.6071  0.1241  0.1348
  798PF6-    F615123   4.027   1.961   5.225  0.4107  0.0821 -0.2410
  798PF6-    F715124   4.294   2.114   5.309 -0.3762 -0.2095  0.0241
  799PF6-    P115125   1.760   4.618   1.756 -0.0606  0.3448 -0.2515
  799PF6-    F215126   1.858   4.740   1.758  0.2849  0.2372  0.0130
  799PF6-    F315127   1.660   4.492   1.751 -0.4287 -0.1016 -0.3567
  799PF6-    F415128   1.626   4.713   1.747 -0.5880  0.6832  0.1712
  799PF6-    F515129   1.883   4.520   1.770  0.1682  0.0492 -0.5968
  799PF6-    F615130   1.750   4.615   1.917 -0.3273 -0.4845 -0.3449
  799PF6-    F715131   1.778   4.614   1.598 -0.0798 -0.3099 -0.2671
  800PF6-    P115132   0.477   2.950   1.708 -0.0382 -0.2808  0.4775
  800PF6-    F215133   0.407   2.858   1.595 -0.0409  0.1024  0.0701
  800PF6-    F315134   0.556   3.037   1.814 -0.1827  0.4552 -0.5262
  800PF6-    F415135   0.548   2.818   1.771 -0.3126  0.0837  0.1365
  800PF6-    F515136   0.419   3.082   1.646 -0.0621 -0.4791  0.1063
  800PF6-    F615137   0.355   2.930   1.805  0.2258  0.2321  0.1814
  800PF6-    F715138   0.601   2.964   1.610 -0.0137  0.4957  0.1402
  801PF6-    P115139   0.193   3.417   3.135 -0.1634 -0.0918 -0.4246
  801PF6-    F215140   0.106   3.542   3.177 -0.3219  0.0372 -0.4489
  801PF6-    F315141   0.280   3.289   3.098  0.1356 -0.0009 -0.3259
  801PF6-    F415142   0.173   3.443   2.978  0.4686 -0.6876 -0.1520
  801PF6-    F515143   0.227   3.385   3.282  0.1861  0.9232 -0.1296
  801PF6-    F615144   0.061   3.320   3.130  0.4200  0.0932 -0.0839
  801PF6-    F715145   0.323   3.511   3.128 -0.0694 -0.1701 -0.4636
  802PF6-    P115146   0.785   4.029   0.297  0.2889  0.3283  0.0218
  802PF6-    F215147   0.782   3.924   0.425  0.1730  0.2896 -0.4313
  802PF6-    F315148   0.780   4.139   0.178 -0.3717 -0.4724  0.1822
  802PF6-    F415149   0.709   3.920   0.210 -0.2370  0.0885 -0.2628
  802PF6-    F515150   0.863   4.137   0.382 -0.2730  0.0758 -0.6645
  802PF6-    F615151   0.928   3.977   0.247 -0.1434  0.0092  0.2108
  802PF6-    F715152   0.641   4.083   0.354 -0.4918 -0.4615  0.2573
  803PF6-    P115153   2.406   2.887   5.224 -0.1154  0.3369 -0.1161
  803PF6-    F215154   2.389   2.859   5.387 -0.3998  0.2599  0.4380
  803PF6-    F315155   2.420   2.913   5.070  0.0842  0.4353  0.9037
  803PF6-    F415156   2.245   2.889   5.209 -0.0949  0.0364 -0.8524
  803PF6-    F515157   2.568   2.875   5.237  0.3076  0.0019  0.5321
  803PF6-    F615158   2.408   2.731   5.200  0.2979 -0.2971 -0.0699
  803PF6-    F715159   2.412   3.046   5.255  0.0213  0.7149  0.3510
  804PF6-    P115160   0.063   1.337   1.272  0.1301 -0.2048 -0.0058
  804PF6-    F215161   0.135   1.292   1.408  0.0735  0.5530  0.3783
  804PF6-    F315162  -0.013   1.386   1.145  0.1114  0.0173  0.8370
  804PF6-    F415163   0.029   1.182   1.225  0.6101 -0.0057  0.9357
  804PF6-    F515164   0.092   1.489   1.319  0.0916  0.1902  0.3178
  804PF6-    F615165   0.200   1.338   1.194 -0.1534 -0.1143  0.2284
  804PF6-    F715166  -0.077   1.344   1.348 -0.4288 -0.3692 -0.2534
  805PF6-    P115167   5.009   4.826   2.196  0.1170 -0.0345  0.0980
  805PF6-    F215168   5.119   4.740   2.276 -0.2883  0.0665  0.0750
  805PF6-    F315169   4.896   4.902   2.113  0.1305 -0.7286 -0.3487
  805PF6-    F415170   5.114   4.854   2.082  0.2318  0.3118  0.0497
  805PF6-    F515171   4.904   4.804   2.313 -0.7882  0.7815 -0.5129
  805PF6-    F615172   5.061   4.961   2.268  0.0177  0.1480 -0.0055
  805PF6-    F715173   4.962   4.687   2.124 -0.3501  0.5008 -0.1767
  806PF6-    P115174   2.011   0.128   0.515 -0.2667  0.2823 -0.4924
  806PF6-    F215175   1.981   0.171   0.368  0.1939 -0.3121 -0.4320
  806PF6-    F315176   2.037   0.081   0.668 -0.0196 -0.2444 -0.7980
  806PF6-    F415177   2.164   0.086   0.474 -0.4636  0.1845  0.0174
  806PF6-    F515178   1.863   0.176   0.555  0.4262  0.0726  0.4023
  806PF6-    F615179   1.949  -0.013   0.479 -0.7743  0.4641 -0.3500
  806PF6-    F715180   2.064   0.275   0.553  0.1243 -0.2550  0.3226
  807PF6-    P115181   4.920   4.065   0.129  0.2228 -0.3226  0.0180
  807PF6-    F215182   4.984   4.200   0.180  0.0565 -0.3260  0.1650
  807PF6-    F315183   4.859   3.928   0.072  0.3772  0.4077  0.1357
  807PF6-    F415184   5.045   4.051   0.032  0.0861  0.1205 -0.0790
  807PF6-    F515185   4.792   4.077   0.230 -0.1005 -0.0064  0.0376
  807PF6-    F615186   4.840   4.143   0.017  0.0436 -0.2242 -0.0016
  807PF6-    F715187   4.997   3.984   0.242 -0.4530  0.0622  0.4045
  808PF6-    P115188   0.493   2.437   5.235  0.1790  0.0909  0.1004
  808PF6-    F215189   0.477   2.311   5.138  0.1733  0.6070 -0.0142
  808PF6-    F315190   0.509   2.569   5.324  0.0084  0.1205  0.1365
  808PF6-    F415191   0.555   2.351   5.350  0.3739  0.4650 -0.3428
  808PF6-    F515192   0.434   2.528   5.113 -0.2383  0.0977 -0.0413
  808PF6-    F615193   0.344   2.412   5.298  0.4703 -0.1828 -1.0350
  808PF6-    F715194   0.642   2.452   5.184  0.1099 -0.2253  0.5599
  809PF6-    P115195   1.857   2.267   4.094 -0.2509  0.1049 -0.3198
  809PF6-    F215196   1.702   2.300   4.121  0.1578  0.0139  0.2381
  809PF6-    F315197   2.010   2.231   4.073  0.2830  0.2003  0.1739
  809PF6-    F415198   1.848   2.317   3.947  0.4179 -0.5788 -0.4221
  809PF6-    F515199   1.863   2.202   4.238  0.3397 -0.8747  0.5554
  809PF6-    F615200   1.804   2.122   4.036 -0.1497  0.4216  0.7547
  809PF6-    F715201   1.902   2.408   4.147 -0.2064 -0.0295 -0.2333
  810PF6-    P115202   1.948   1.539   1.798  0.3458  0.2892 -0.2168
  810PF6-    F215203   2.061   1.482   1.706 -0.3291 -0.1097  0.1374
  810PF6-    F315204   1.829   1.604   1.889  0.1759  0.3758 -0.5627
  810PF6-    F415205   1.972   1.424   1.913 -0.5450 -0.3403 -0.2917
  810PF6-    F515206   1.919   1.648   1.684 -0.1600  0.2485 -0.0008
  810PF6-    F615207   1.837   1.434   1.735  0.2739 -0.1958 -0.0017
  810PF6-    F715208   2.050   1.638   1.874  0.1236 -0.3624 -0.8004
  811PF6-    P115209   3.815   4.194   5.048  0.2127 -0.1018  0.2582
  811PF6-    F215210   3.745   4.066   4.992  0.1922  0.2851  0.0544
  811PF6-    F315211   3.873   4.324   5.112 -0.4014  0.0807 -0.0654
  811PF6-    F415212   3.876   4.231   4.907  0.2657 -0.7494  0.6149
  811PF6-    F515213   3.754   4.153   5.192 -0.2254  0.2099 -0.1853
  811PF6-    F615214   3.950   4.121   5.081  0.1226 -0.3982  0.2762
  811PF6-    F715215   3.684   4.282   5.009 -0.1121  0.2873  0.1033
  812PF6-    P115216   1.268   0.825   3.497 -0.8106  0.1079  0.2552
  812PF6-    F215217   1.172   0.937   3.428 -0.2249  0.4197  0.0214
  812PF6-    F315218   1.365   0.708   3.549  0.4430  0.2181  0.3400
  812PF6-    F415219   1.392   0.919   3.465 -0.3416 -0.5793  0.0548
  812PF6-    F515220   1.141   0.726   3.519 -0.2456  0.1696 -0.2885
  812PF6-    F615221   1.297   0.765   3.348 -0.3253  0.1811  0.4431
  812PF6-    F715222   1.258   0.889   3.645  0.4114 -0.1178 -0.0908
  813PF6-    P115223   0.059   0.194   4.696  0.2873  0.2928  0.3123
  813PF6-    F215224  -0.067   0.140   4.792  0.1033 -0.5051  0.3070
  813PF6-    F315225   0.175   0.257   4.602  0.5641 -0.0923  0.4050
  813PF6-    F415226  -0.043   0.219   4.573 -0.3855  0.0680 -0.7619
  813PF6-    F515227   0.160   0.168   4.816  0.0978 -0.5711 -0.1304
  813PF6-    F615228   0.086   0.040   4.646 -0.0228 -0.5211  0.0162
  813PF6-    F715229   0.031   0.340   4.749 -0.3252  0.5699  0.0210
  814PF6-    P115230   1.747   4.069   0.420  0.4755 -0.0767  0.1893
  814PF6-    F215231   1.683   4.187   0.337  0.5389 -0.0327  0.2162
  814PF6-    F315232   1.817   3.948   0.494 -0.2885  0.2415 -0.1719
  814PF6-    F415233   1.767   3.987   0.282 -0.5326  0.0261 -0.0795
  814PF6-    F515234   1.717   4.136   0.559  0.0417 -0.1216 -0.6290
  814PF6-    F615235   1.601   3.993   0.441 -0.3067 -0.3258  0.0734
  814PF6-    F715236   1.881   4.154   0.415 -0.4690 -0.3462  0.1177
  815PF6-    P115237   3.417   2.960   3.366 -0.4774 -0.3198 -0.0790
  815PF6-    F215238   3.333   2.833   3.417  1.1287  0.1036  0.2101
  815PF6-    F315239   3.493   3.082   3.301 -0.8150 -0.0148 -0.1595
  815PF6-    F415240   3.288   3.047   3.367 -0.2760  0.0296  0.1731
  815PF6-    F515241   3.547   2.880   3.373 -0.1639 -0.3096 -0.5121
  815PF6-    F615242   3.389   2.907   3.214  0.3388  0.1640  0.1855
  815PF6-    F715243   3.448   3.008   3.515  0.0030 -0.2180 -0.2665
  816PF6-    P115244   5.323   3.309   4.316 -0.0650  0.3116 -0.8014
  816PF6-    F215245   5.440   3.300   4.428  0.8959  0.2312 -0.2969
  816PF6-    F315246   5.206   3.315   4.205  0.2068  0.2115 -0.0967
  816PF6-    F415247   5.420   3.239   4.216 -0.6184 -0.2930  0.2048
  816PF6-    F515248   5.222   3.382   4.428  0.2106  0.6175  0.0593
  816PF6-    F615249   5.369   3.451   4.267  0.3418  0.2230 -0.3191
  816PF6-    F715250   5.266   3.167   4.360  0.3080  0.4227 -0.3358
  817PF6-    P115251   5.327   3.731   1.154  0.1673 -0.0794  0.7063
  817PF6-    F215252   5.350   3.786   1.307  0.1339 -0.0382 -0.4316
  817PF6-    F315253   5.295   3.682   1.003 -0.9816 -0.3285 -0.0695
  817PF6-    F415254   5.252   3.607   1.216  0.0987 -0.1315  0.1312
  817PF6-    F515255   5.410   3.856   1.101 -0.1046  0.0086  0.8734
  817PF6-    F615256   5.466   3.649   1.153 -0.0122  0.2275  0.1464
  817PF6-    F715257   5.195   3.818   1.150  0.1183  0.2942  0.1559
  818PF6-    P115258   4.613   1.913   2.534  0.3739 -0.1695  0.1218
  818PF6-    F215259   4.548   1.940   2.396 -0.0211 -0.5584 -0.1784
  818PF6-    F315260   4.672   1.882   2.678 -0.1259  0.2873  0.5492
  818PF6-    F415261   4.473   1.933   2.609 -0.3016  0.5341  0.5163
  818PF6-    F515262   4.760   1.893   2.463 -0.1602 -0.3724 -0.3185
  818PF6-    F615263   4.635   2.069   2.557 -0.4354  0.2327  0.4257
  818PF6-    F715264   4.582   1.757   2.511  0.1913  0.0264  0.0279
  819PF6-    P115265   2.585   4.751   0.254 -0.1225  0.5310  0.2303
  819PF6-    F215266   2.643   4.642   0.146  0.4786  0.0321 -0.4800
  819PF6-    F315267   2.519   4.856   0.355 -0.3133  0.3912  0.4214
  819PF6-    F415268   2.456   4.769   0.163  0.2193 -0.8657  0.1241
  819PF6-    F515269   2.709   4.738   0.360  0.2544 -0.1844  0.1688
  819PF6-    F615270   2.660   4.867   0.172 -0.1054 -0.2775 -0.2168
  819PF6-    F715271   2.508   4.637   0.332 -0.4619  0.5802  0.3582
  820PF6-    P115272   2.736   3.078   1.357 -0.5226 -0.5456 -0.1767
  820PF6-    F215273   2.615   3.172   1.309 -0.3625  0.3898 -0.1642
  820PF6-    F315274   2.860   2.980   1.388  0.3373 -0.0108  0.2476
  820PF6-    F415275   2.793   3.085   1.213  0.3352  0.3507 -0.2025
  820PF6-    F515276   2.685   3.070   1.509  0.0407 -0.1296  0.2841
  820PF6-    F615277   2.648   2.950   1.322 -0.3576 -0.2236  0.3688
  820PF6-    F715278   2.825   3.208   1.397  0.0366 -0.3714 -0.2502
  821PF6-    P115279   3.215   2.398   2.910  0.0024  0.1143  0.4539
  821PF6-    F215280   3.058   2.413   2.930 -0.0453 -0.4445 -0.2890
  821PF6-    F315281   3.372   2.388   2.886 -0.2633 -0.1765  0.4211
  821PF6-    F415282   3.223   2.278   3.021  0.1461 -0.0215 -0.0648
  821PF6-    F515283   3.207   2.515   2.807  0.2858 -0.3313 -0.2633
  821PF6-    F615284   3.243   2.504   3.021 -0.0307  0.5123 -0.0269
  821PF6-    F715285   3.189   2.290   2.797 -0.0995 -0.4248  0.1989
  822PF6-    P115286   2.151   0.563   4.562 -0.3989  0.3182 -0.2260
  822PF6-    F215287   2.255   0.687   4.561  0.1780 -0.2591  0.4336
  822PF6-    F315288   2.060   0.429   4.549  0.3180 -0.0600  0.0346
  822PF6-    F415289   2.166   0.543   4.722 -0.1207  0.1307 -0.2355
  822PF6-    F515290   2.147   0.571   4.397 -0.4688 -0.0359 -0.1493
  822PF6-    F615291   2.277   0.468   4.548  0.0909  0.4700  0.3499
  822PF6-    F715292   2.024   0.655   4.581 -0.3106 -0.0293  0.0134
  823PF6-    P115293   3.056   5.237   4.272 -0.0598  0.3500  0.0863
  823PF6-    F215294   3.015   5.336   4.393 -0.2263 -0.5880 -0.7231
  823PF6-    F315295   3.092   5.142   4.147 -0.0749 -0.7192  0.6266
  823PF6-    F415296   3.022   5.357   4.168  0.3006  0.5906 -0.2859
  823PF6-    F515297   3.093   5.118   4.377  0.7912 -0.1944 -0.0783
  823PF6-    F615298   2.903   5.178   4.267 -0.0983  0.1277  0.3144
  823PF6-    F715299   3.204   5.291   4.286  0.7300  0.3458  0.6858
  824PF6-    P115300   3.036   1.762   4.551 -0.2503 -0.0591  0.3815
  824PF6-    F215301   3.021   1.609   4.605 -0.1140  0.2359  0.3959
  824PF6-    F315302   3.037   1.920   4.509 -0.7552 -0.3594  0.1430
  824PF6-    F415303   2.943   1.729   4.423 -0.6676  0.0051 -0.2018
  824PF6-    F515304   3.129   1.792   4.684  0.5443 -0.3746 -0.0875
  824PF6-    F615305   3.167   1.723   4.461  0.2496  0.6977 -0.4299
  824PF6-    F715306   2.904   1.787   4.640  0.0271 -0.4601 -0.2509
  825PF6-    P115307   4.265   0.387   0.156  0.1015  0.2618  0.1829
  825PF6-    F215308   4.199   0.314   0.029 -0.3352 -0.2501 -0.1838
  825PF6-    F315309   4.337   0.455   0.284  0.4644  0.3894 -0.0675
  825PF6-    F415310   4.203   0.271   0.250 -0.5347  0.5135  0.2516
  825PF6-    F515311   4.335   0.494   0.059  0.0523 -0.1993 -0.3738
  825PF6-    F615312   4.134   0.476   0.174  0.3889  0.1424  0.2075
  825PF6-    F715313   4.398   0.293   0.139 -0.1125  0.1936  0.3555
  826PF6-    P115314   1.802   1.720   5.027 -0.1035  0.5873 -0.0287
  826PF6-    F215315   1.859   1.581   4.984 -0.0415  0.1312 -0.2318
  826PF6-    F315316   1.744   1.861   5.073  0.8031 -0.4037 -0.2649
  826PF6-    F415317   1.719   1.649   5.146 -0.1204 -0.0784 -0.3923
  826PF6-    F515318   1.887   1.790   4.906  0.5200  0.0020  0.3167
  826PF6-    F615319   1.676   1.705   4.930  0.6889  0.5279 -0.1821
  826PF6-    F715320   1.928   1.739   5.131 -0.1842  0.1126 -0.0954
  827PF6-    P115321   4.046   5.175   4.767 -0.0846  0.0857  0.0938
  827PF6-    F215322   3.917   5.156   4.680  0.1162 -0.0144 -0.6898
  827PF6-    F315323   4.186   5.181   4.852  0.2529 -0.2235 -0.7726
  827PF6-    F415324   4.087   5.023   4.729  0.5300 -0.2429  0.3617
  827PF6-    F515325   4.004   5.319   4.810 -0.1532  0.2246 -0.2596
  827PF6-    F615326   3.971   5.112   4.896  0.2379  0.1630 -0.4149
  827PF6-    F715327   4.116   5.238   4.638 -0.3169 -0.4277  0.2724
  828PF6-    P115328   1.540   3.149   0.504  0.1130  0.2481  0.3266
  828PF6-    F215329   1.580   3.001   0.548 -0.1174  0.5699  0.2869
  828PF6-    F315330   1.511   3.298   0.453  0.3323  0.4338 -0.1259
  828PF6-    F415331   1.384   3.109   0.500 -0.1549  1.0812 -0.0947
  828PF6-    F515332   1.695   3.193   0.514 -0.3871 -0.6960  0.4644
  828PF6-    F615333   1.561   3.108   0.352 -0.3064  0.3262  0.2537
  828PF6-    F715334   1.525   3.196   0.651  0.0134  0.1686  0.2000
  829PF6-    P115335   4.752   1.313   3.900  0.2923 -0.0977 -0.2032
  829PF6-    F215336   4.677   1.458   3.900  0.5080  0.1170  0.2637
  829PF6-    F315337   4.831   1.171   3.893  0.1462  0.0641 -0.2212
  829PF6-    F415338   4.622   1.245   3.850  0.6526  0.5247  0.2522
  829PF6-    F515339   4.887   1.392   3.951  0.7636 -0.0030 -0.2305
  829PF6-    F615340   4.703   1.281   4.050  0.0290  0.4351  0.5169
  829PF6-    F715341   4.795   1.337   3.747 -0.2484  0.4396 -0.1308
  830PF6-    P115342   1.516   2.461   3.277  0.0848 -0.3521  0.5231
  830PF6-    F215343   1.633   2.542   3.193 -0.2850  0.3859  0.1197
  830PF6-    F315344   1.400   2.388   3.355 -0.2942 -0.1358  0.0444
  830PF6-    F415345   1.436   2.590   3.287  0.2445 -0.2222 -0.1650
  830PF6-    F515346   1.601   2.327   3.282  0.0834 -0.0871  0.0189
  830PF6-    F615347   1.581   2.502   3.417 -1.0873 -0.4942  0.3331
  830PF6-    F715348   1.440   2.428   3.137 -0.6643 -0.4495  0.0259
  831PF6-    P115349   4.452   3.290   0.208 -0.4456 -0.0927  0.1893
  831PF6-    F215350   4.548   3.256   0.082 -0.5095  0.3812  0.0172
  831PF6-    F315351   4.359   3.331   0.324 -0.2602 -0.0838 -0.0233
  831PF6-    F415352   4.364   3.159   0.191  0.0201 -0.2884 -0.5240
  831PF6-    F515353   4.537   3.425   0.230 -0.0800 -0.3859  0.3008
  831PF6-    F615354   4.355   3.370   0.103 -0.4999  0.0585  0.0707
  831PF6-    F715355   4.554   3.211   0.310 -0.1553 -0.0166  0.2764
  832PF6-    P115356   3.822   1.261   1.921  0.1499 -0.0213 -0.6275
  832PF6-    F215357   3.874   1.332   2.053 -0.5692 -0.0008  0.3972
  832PF6-    F315358   3.765   1.186   1.794 -0.2305 -0.2089  0.1531
  832PF6-    F415359   3.960   1.276   1.851 -0.9464  0.0730  0.8421
  832PF6-    F515360   3.682   1.237   1.993  0.3954 -0.1732  0.2648
  832PF6-    F615361   3.771   1.404   1.860 -0.0702 -0.4468 -0.2511
  832PF6-    F715362   3.863   1.116   1.974 -0.3491 -0.3003 -0.5697
  833PF6-    P115363   5.265   4.269   3.919  0.6202 -0.1795  0.0914
  833PF6-    F215364   5.325   4.409   3.952  0.4060  0.2392 -0.1631
  833PF6-    F315365   5.201   4.125   3.883 -0.5391  0.1039  0.0629
  833PF6-    F415366   5.185   4.333   3.793  0.2000  0.4420  0.5486
  833PF6-    F515367   5.333   4.201   4.049 -0.4051  0.4924  0.8098
  833PF6-    F615368   5.134   4.301   4.008  0.2073 -0.2058 -0.0737
  833PF6-    F715369   5.389   4.233   3.818  0.4801 -0.2046 -0.4221
  834PF6-    P115370   4.372   3.860   4.119 -0.1618 -0.7246  0.5471
  834PF6-    F215371   4.428   3.842   3.971  0.0376  0.1064  0.0936
  834PF6-    F315372   4.314   3.885   4.267  0.4686 -0.4503  0.1394
  834PF6-    F415373   4.517   3.914   4.167 -0.5321 -0.4216 -0.4103
  834PF6-    F515374   4.222   3.813   4.070 -0.3290  0.1949  0.2536
  834PF6-    F615375   4.413   3.707   4.158 -0.2752 -0.0276 -0.0165
  834PF6-    F715376   4.337   4.013   4.078  0.3815  0.5636 -0.0646
  835PF6-    P115377   4.300   1.257   4.681  0.2760 -0.0818 -0.1020
  835PF6-    F215378   4.432   1.336   4.707  0.2062  0.1369  0.2757
  835PF6-    F315379   4.161   1.181   4.660  0.2816  0.4595  0.1454
  835PF6-    F415380   4.355   1.200   4.543 -0.5017  0.7609  0.3238
  835PF6-    F515381   4.242   1.311   4.825  0.1320  0.0064  0.0804
  835PF6-    F615382   4.241   1.386   4.615 -0.0856  0.2298  0.1792
  835PF6-    F715383   4.356   1.125   4.755 -0.1645 -0.4997 -0.3404
  836PF6-    P115384   1.922   4.734   4.072 -0.1567  0.0366  0.1894
  836PF6-    F215385   1.843   4.874   4.083  0.3113  0.7020 -0.1467
  836PF6-    F315386   2.000   4.598   4.058 -0.3987  0.1374 -0.4334
  836PF6-    F415387   1.788   4.648   4.111 -0.0527 -0.3630 -0.1353
  836PF6-    F515388   2.055   4.809   4.032 -0.4428  0.1624  0.2610
  836PF6-    F615389   1.958   4.738   4.228  0.0047  0.0230 -0.0220
  836PF6-    F715390   1.882   4.727   3.921 -0.4470  0.5088  0.2225
  837PF6-    P115391   4.969   3.113   2.361 -0.3387  0.1516 -0.0562
  837PF6-    F215392   5.126   3.101   2.332 -0.1179  0.3679 -0.5547
  837PF6-    F315393   4.811   3.121   2.389  0.3369  0.1737  0.0278
  837PF6-    F415394   5.000   3.092   2.513 -0.1138  0.3414 -0.0906
  837PF6-    F515395   4.944   3.126   2.201  0.1095 -0.2150 -0.2118
  837PF6-    F615396   4.964   2.955   2.342 -0.9113  0.1651  0.3096
  837PF6-    F715397   4.987   3.270   2.378  0.1754 -0.1524 -0.1243
  838PF6-    P115398   4.216   2.405   3.929 -0.5266 -0.0536 -0.0209
  838PF6-    F215399   4.192   2.248   3.901 -0.5018 -0.2418 -0.2228
  838PF6-    F315400   4.240   2.559   3.959 -0.2223  0.3692 -0.1097
  838PF6-    F415401   4.131   2.446   3.800  0.1303 -0.5003 -0.4644
  838PF6-    F515402   4.319   2.360   4.055  0.8974 -0.1061 -0.0745
  838PF6-    F615403   4.343   2.404   3.829  0.2076  0.2952 -0.0848
  838PF6-    F715404   4.091   2.397   4.024  0.7648  0.3642  0.0019
  839PF6-    P115405   5.261   1.226   5.254 -0.1100  0.1134  0.1755
  839PF6-    F215406   5.172   1.317   5.166 -0.1556  0.3310 -0.0596
  839PF6-    F315407   5.358   1.138   5.345 -0.1478  0.0687  0.6959
  839PF6-    F415408   5.205   1.287   5.394  0.0295 -0.2280  0.2853
  839PF6-    F515409   5.325   1.161   5.119 -0.0779 -0.1399 -0.1952
  839PF6-    F615410   5.375   1.334   5.253  0.1603 -0.6110  0.1755
  839PF6-    F715411   5.153   1.107   5.266 -0.4383 -0.1572 -0.4533
  840PF6-    P115412   1.458   0.868   0.495 -0.1038 -0.5018  0.3753
  840PF6-    F215413   1.445   0.987   0.609 -0.3988  0.0085  0.0956
  840PF6-    F315414   1.478   0.759   0.381 -0.1469  0.4006 -0.0719
  840PF6-    F415415   1.343   0.938   0.405 -0.0370 -0.0951  0.7913
  840PF6-    F515416   1.576   0.807   0.580 -0.4696 -0.4494  0.3312
  840PF6-    F615417   1.349   0.778   0.567  0.4532 -0.4732 -0.4887
  840PF6-    F715418   1.568   0.962   0.416  0.0862  0.3371 -0.5814
  841PF6-    P115419   0.611   2.079   0.969 -0.1759 -0.3371  0.1832
  841PF6-    F215420   0.541   2.218   0.997 -0.5896  0.4102 -0.3959
  841PF6-    F315421   0.674   1.944   0.926 -0.2872 -0.1043 -0.0707
  841PF6-    F415422   0.616   2.048   1.124  0.5690 -0.0421  0.0816
  841PF6-    F515423   0.595   2.118   0.814  0.0922  0.5376  0.5476
  841PF6-    F615424   0.754   2.148   0.974  0.1805 -0.0604 -0.0920
  841PF6-    F715425   0.468   2.007   0.970 -0.1968  0.2787  0.0370
  842PF6-    P115426   5.310   4.757   0.570  0.0153 -0.1943  0.0335
  842PF6-    F215427   5.368   4.912   0.538 -0.4588  0.6363  0.1766
  842PF6-    F315428   5.257   4.605   0.590  0.3998 -0.4558 -0.0127
  842PF6-    F415429   5.456   4.700   0.587  0.0330 -1.4856 -0.6122
  842PF6-    F515430   5.160   4.810   0.547 -0.1865 -0.0411 -0.3662
  842PF6-    F615431   5.327   4.735   0.406 -0.3418  0.6996  0.3926
  842PF6-    F715432   5.302   4.780   0.728 -0.2828 -0.1617  0.2517
  843PF6-    P115433   3.610   1.714   3.473 -0.0887  0.3049  0.2094
  843PF6-    F215434   3.472   1.728   3.546  0.1210  0.1550 -0.1983
  843PF6-    F315435   3.754   1.700   3.397  0.5322 -0.0126  0.1161
  843PF6-    F415436   3.679   1.729   3.616 -0.2146  0.7271  0.0339
  843PF6-    F515437   3.527   1.694   3.333 -0.1176  0.3773  0.1747
  843PF6-    F615438   3.610   1.880   3.455  0.3583  0.0189  0.2458
  843PF6-    F715439   3.612   1.553   3.496  0.2475 -0.2960 -0.1356
  844PF6-    P115440   3.502   0.665   2.841  0.3124  0.0408  0.3424
  844PF6-    F215441   3.421   0.542   2.904 -0.2527  0.2882  0.0482
  844PF6-    F315442   3.579   0.789   2.790 -0.0211  0.2251 -0.0096
  844PF6-    F415443   3.374   0.703   2.746 -0.2940 -0.4428 -0.1673
  844PF6-    F515444   3.623   0.626   2.938  0.2562  0.1070 -0.1635
  844PF6-    F615445   3.562   0.571   2.721 -0.5365 -0.3940 -0.2668
  844PF6-    F715446   3.445   0.758   2.958 -0.0385  0.1550 -0.2481
  845PF6-    P115447   1.078   0.836   1.524  0.4318  0.0272  0.2828
  845PF6-    F215448   1.011   0.980   1.525 -0.0226  0.4819 -0.1402
  845PF6-    F315449   1.144   0.690   1.526 -0.6915 -0.7680 -0.3088
  845PF6-    F415450   0.958   0.772   1.606  0.3703  0.1002 -0.2805
  845PF6-    F515451   1.206   0.890   1.441  0.6890  0.2710 -0.2031
  845PF6-    F615452   1.146   0.867   1.666  0.0505 -0.4389 -0.2615
  845PF6-    F715453   1.009   0.805   1.379  0.2010  0.1931  0.3623
  846PF6-    P115454   2.574   0.503   3.709 -0.0020 -0.5105 -0.1849
  846PF6-    F215455   2.483   0.388   3.645  0.6312 -0.2946 -0.2244
  846PF6-    F315456   2.667   0.615   3.774  0.1657 -0.1914 -1.1865
  846PF6-    F415457   2.465   0.618   3.675 -0.0114  0.2384  0.0392
  846PF6-    F515458   2.692   0.396   3.738 -0.3404  0.2625  0.0277
  846PF6-    F615459   2.643   0.534   3.572 -0.1114  0.4404 -0.2025
  846PF6-    F715460   2.507   0.482   3.855 -0.6143  0.0469 -0.5207
  847PF6-    P115461   1.166   4.031   5.000  0.2611  0.0417 -0.7617
  847PF6-    F215462   1.007   4.071   4.995  0.1789 -0.1064 -0.2828
  847PF6-    F315463   1.321   3.998   5.007  0.2934  0.0878  0.2120
  847PF6-    F415464   1.194   4.157   5.095 -0.2282  0.0091 -0.2364
  847PF6-    F515465   1.135   3.903   4.903 -0.7382  0.0326 -0.0202
  847PF6-    F615466   1.192   4.123   4.868  0.1692 -0.1015 -0.2046
  847PF6-    F715467   1.134   3.938   5.128  0.4342  0.2012 -0.3330
  848PF6-    P115468   2.596   4.837   1.281  0.3684  0.0408  0.6496
  848PF6-    F215469   2.455   4.849   1.207 -0.0295 -0.0170  0.1907
  848PF6-    F315470   2.735   4.834   1.358 -0.2888 -0.4498 -0.1457
  848PF6-    F415471   2.600   4.997   1.288  0.3119 -0.3778  0.1001
  848PF6-    F515472   2.591   4.680   1.265  0.2545  0.1751  0.2957
  848PF6-    F615473   2.677   4.839   1.138 -0.1632  0.5111  0.3996
  848PF6-    F715474   2.525   4.834   1.426 -0.2744  0.0601  0.6416
  849PF6-    P115475   4.966   4.253   4.794  0.0634 -0.5270 -0.1166
  849PF6-    F215476   4.987   4.134   4.694  0.1743 -0.0451  0.3672
  849PF6-    F315477   4.939   4.373   4.899  0.0935 -0.5419  0.4287
  849PF6-    F415478   5.100   4.323   4.738 -0.1536  0.1005 -0.3613
  849PF6-    F515479   4.838   4.173   4.844 -0.3316  0.0770 -0.0976
  849PF6-    F615480   5.057   4.177   4.906 -0.2232 -0.6903 -0.2160
  849PF6-    F715481   4.879   4.330   4.688  0.2377  0.2195  0.0141
  850PF6-    P115482   1.433   1.947   1.074 -0.3715 -0.1456 -0.1069
  850PF6-    F215483   1.497   1.954   0.928  0.5152  0.0003  0.4668
  850PF6-    F315484   1.360   1.933   1.222  0.0988  0.6469 -0.3023
  850PF6-    F415485   1.335   1.829   1.019  0.2340 -0.2679 -0.5700
  850PF6-    F515486   1.525   2.065   1.130 -0.2799  0.3249  0.6024
  850PF6-    F615487   1.330   2.063   1.030 -0.4872 -0.0160  0.3916
  850PF6-    F715488   1.544   1.840   1.125  0.0632 -0.3898  0.4786
  851PF6-    P115489   2.626   4.592   3.105 -0.0517 -0.4210 -0.0485
  851PF6-    F215490   2.499   4.633   3.015  0.1870 -0.4307  0.0611
  851PF6-    F315491   2.753   4.555   3.200  0.2381 -0.1661 -0.1484
  851PF6-    F415492   2.723   4.642   2.991  0.0393 -0.5492 -0.4426
  851PF6-    F515493   2.518   4.540   3.217  0.3068 -0.3027 -0.4429
  851PF6-    F615494   2.632   4.451   3.036  0.7611 -0.3000 -0.1485
  851PF6-    F715495   2.620   4.735   3.177  0.2039  0.0346  0.4535
  852PF6-    P115496   1.103   2.332   2.045  0.0653  0.1735 -0.4344
  852PF6-    F215497   1.116   2.465   1.963 -0.4305  0.0431 -0.1666
  852PF6-    F315498   1.095   2.200   2.132 -0.2845 -0.1443  0.3840
  852PF6-    F415499   1.199   2.254   1.940  0.9215 -0.2056  0.1180
  852PF6-    F515500   1.008   2.402   2.158  0.3508  0.1001  0.4568
  852PF6-    F615501   0.979   2.282   1.958 -0.0607  0.0011  0.0457
  852PF6-    F715502   1.237   2.371   2.129  0.3826 -0.8065 -0.0513
  853PF6-    P115503   5.377   2.411   2.091  0.2535  0.4041 -0.3994
  853PF6-    F215504   5.517   2.469   2.132 -0.1637  0.1259  0.3467
  853PF6-    F315505   5.237   2.349   2.055 -0.0744  0.5410 -0.4175
  853PF6-    F415506   5.304   2.506   2.201 -0.5857  0.3193 -0.0873
  853PF6-    F515507   5.445   2.313   1.981  0.1795  0.1913  0.1827
  853PF6-    F615508   5.400   2.294   2.203  0.7690 -0.5632  0.3057
  853PF6-    F715509   5.356   2.532   1.985 -0.0468  0.1438  0.4396
  854Na+     N115510   3.821   1.200   1.275  0.3639 -0.0993  0.0435
  855Na+     N115511   5.177   2.615   3.604  0.2166  0.1383 -0.5956
  856Na+     N115512   3.162   5.395   1.209 -0.2547  0.0575  0.3894
  857Na+     N115513   1.838   2.466   4.803 -0.1328 -0.3467 -0.0794
  858Na+     N115514   4.986   2.364   2.058 -0.3038  0.3995 -0.1289
  859Na+     N115515   1.719   0.324   4.055  0.0274  0.3739 -0.0678
  860Na+     N115516   3.668   4.791   4.240  0.1871 -0.3298  0.0885
  861Na+     N115517   1.629   0.181   2.327 -0.2645 -0.0335  0.0253
  862Na+     N115518   2.116   3.479   0.300 -0.0409  0.2222 -0.0457
  863Na+     N115519   1.647   1.305   1.171 -0.3587  0.6103  0.2688
  864Na+     N115520   2.345   1.358   4.500 -0.6856  0.0860 -0.0913
  865Na+     N115521   2.523   4.987   5.145  0.2640 -0.2155  0.5970
  866Na+     N115522   3.470   4.736   2.239  0.1580 -0.4395 -0.0789
  867Na+     N115523   2.213   2.301   3.359 -0.3357  0.3338 -0.3339
  868Na+     N115524   0.102   0.535   5.318  0.2314 -0.4857 -0.0267
  869Na+     N115525   1.431   1.931   3.759 -0.0177 -0.3196 -0.3158
  870Na+     N115526   0.820   4.303   0.741 -0.2577  0.2079 -0.5204
  871Na+     N115527   1.342   2.751   4.027 -0.0706  0.8531 -0.4673
  872Na+     N115528   4.140   5.046   0.084  0.3893  0.2150  0.0389
  873Na+     N115529   1.214   5.188   1.547 -0.2010  0.1895 -0.1607
  874Na+     N115530   0.700   1.694   0.861 -0.1232  0.1616 -0.4548
  875Na+     N115531   1.451   0.699   0.152  0.1661 -0.1100 -0.2400
  876Na+     N115532   3.911   2.304   3.303  0.0330  0.4413  0.6225
  877Na+     N115533   4.057   2.380   2.345 -0.1005 -0.0006 -0.0923
  878Na+     N115534   1.381   3.842   1.339 -0.1073 -0.2704 -0.2356
  879Na+     N115535   2.821   0.537   4.317  0.1681  0.0447 -0.0416
  880Na+     N115536   3.057   1.667   1.001  0.2922  0.1655  0.0293
  881Na+     N115537   1.234   4.340   5.245  0.1002  0.7248 -0.5637
  882Na+     N115538   2.827   1.714   2.823 -0.3726 -0.3083 -0.1088
  883Na+     N115539   3.600   3.723   2.667 -0.0541  0.3791  0.0200
  884Na+     N115540   4.639   2.941   4.333 -0.3205  0.1696 -0.0711
  885Na+     N115541   2.531   2.115   2.030 -0.2236 -0.1008 -0.0122
  886Na+     N115542   3.399   0.848   2.124  0.0132 -0.5443 -0.5801
  887Na+     N115543   0.426   2.589   1.626  0.2340  0.0314  0.1289
  888Na+     N115544   5.378   1.270   3.490  0.0547 -0.0220 -0.3819
  889Na+     N115545   4.570   2.137   1.144  0.0364 -0.1827  0.0101
  890Na+     N115546   4.217   4.028   0.073 -0.1462 -0.0207  0.3177
  891Na+     N115547   4.938   1.186   1.363  0.2800  0.1238 -0.7053
  892Na+     N115548   5.150   3.809   0.821 -0.1114  0.0322  0.4495
  893Na+     N115549   0.027   4.094   5.074 -0.5363  0.0826  0.1145
  894Na+     N115550   4.000   1.269   2.945 -0.4773  0.2296 -0.3773
  895Na+     N115551   3.897   3.097   0.735  0.1406  0.3023 -0.0263
  896Na+     N115552   0.819   0.957   1.307 -0.3250  0.2622  0.2889
  897Na+     N115553   4.803   4.654   5.418  0.2804 -0.4247 -0.5079
  898Na+     N115554   1.499   1.166   4.538 -0.3049  0.1636 -0.1277
  899Na+     N115555   2.237   4.943   0.802  0.1029  0.2878  0.4803
  900Na+     N115556   2.944   2.856   1.172  0.0928 -0.2262 -0.0723
  901Na+     N115557   5.432   2.237   2.667  0.2202 -0.1110 -0.4098
  902Na+     N115558   1.285   2.545   0.950 -0.3373  0.1387 -0.7764
  903Na+     N115559   0.258   5.097   3.137  0.3518 -0.1801  0.0270
  904Na+     N115560   5.329   4.474   4.201  0.0708  0.1494  0.0356
  905Na+     N115561   2.139   2.667   0.457  0.2462 -0.0131  0.0794
  906Na+     N115562   0.103   3.024   2.511  0.0358  0.1350 -0.3322
  907Na+     N115563   5.059   1.199   4.548 -0.1644  0.5892 -0.2375
  908Na+     N115564   2.202   5.203   3.121 -0.1241 -0.2807 -0.1480
  909Na+     N115565   0.909   0.430   3.347  0.0229 -0.2598  0.5474
  910Na+     N115566   4.738   3.847   4.271  0.0829  0.1731 -0.7744
  911Na+     N115567   1.855   4.829   0.335  0.1577 -0.1692 -0.2829
  912Na+     N115568   3.316   1.935   3.580  0.0655  0.1226  0.2897
  913Na+     N115569   1.155   3.609   2.886 -0.4474 -0.0510  0.1350
  914Na+     N115570   4.627   1.615   5.335 -0.2891 -0.4522 -0.3685
  915Na+     N115571   1.611   2.031   1.702  0.3735  0.2923 -0.3708
  916Na+     N115572   0.391   4.138   3.624  0.4047 -0.1598  0.3862
  917Na+     N115573   0.626   0.217   2.440 -0.5476  0.1409 -0.3284
  918Na+     N115574   3.922   1.187   4.899  0.2334  0.6425  0.1798
  919Na+     N115575   4.310   1.696   4.280 -0.5055 -0.1254  0.1044
  920Na+     N115576   0.116   2.468   4.689 -0.2791 -0.1021 -0.2354
  921Na+     N115577   4.988   2.037   4.200 -0.6083 -0.0494 -0.3536
  922Na+     N115578   3.231   0.411   3.009  0.1221  0.3890 -0.1399
  923Na+     N115579   4.428   0.293   4.978 -0.3698 -0.4285 -0.4420
  924Na+     N115580   3.250   3.522   0.965  0.0014 -0.1914  0.2139
  925Na+     N115581   2.376   4.448   2.467 -0.5560  0.0220  0.3091
  926Na+     N115582   4.217   0.459   2.480  0.0474  0.2337 -0.5284
  927Na+     N115583   4.809   4.008   3.384 -0.3299 -0.1702  0.0603
  928Na+     N115584   4.152   3.085   3.227  0.2684 -0.3645  0.5644
  929Na+     N115585   0.058   0.664   2.476 -0.4276  0.2496 -0.0388
  930Na+     N115586   2.409   4.081   4.154 -0.2077  0.1615 -0.3876
  931Na+     N115587   3.024   3.404   5.066 -0.0283  0.2467  0.1457
  932Na+     N115588   0.859   1.897   4.918 -0.2319  0.0347 -0.1265
  933Na+     N115589   0.567   2.532   0.093 -0.1935 -0.1756 -0.5352
  934Na+     N115590   4.776   3.607   5.099 -0.3809 -0.0575 -0.4289
  935Na+     N115591   1.375   0.518   1.037 -0.2492  0.0381  0.6684
  936Na+     N115592   3.409   2.063   5.338 -0.1953  0.0596  0.1718
  937Na+     N115593   1.227   3.599   0.158 -0.4325 -0.2906 -0.2397
  938Na+     N115594   1.318   4.995   3.735  0.9037  0.2634 -0.1685
  939Na+     N115595   1.943   2.267   2.726  0.1802 -0.0774  0.1294
  940Na+     N115596   2.250   5.070   4.481 -0.0810  0.3355  0.2726
  941Na+     N115597   4.812   4.663   2.491  0.2413  0.0738  0.0772
  942Na+     N115598   4.827   4.578   1.562  0.3041  0.6072  0.3802
  943Na+     N115599   3.163   3.306   4.062 -0.0121  0.4743  0.0447
  944Na+     N115600   0.747   5.365   4.956 -0.3457 -0.2292  0.2289
  945Na+     N115601   4.328   3.611   2.223 -0.0299 -0.7187  0.3780
  946Na+     N115602   2.562   0.236   2.222  0.1385  0.3761 -0.0464
  947Na+     N115603   1.241   4.734   2.375  0.1692 -0.6272 -0.6081
  948Na+     N115604   3.196   4.380   5.360  0.0200 -0.0760 -0.0788
  949Na+     N115605   2.742   2.288   4.756 -0.6168  0.4022  0.1045
  950Na+     N115606   1.964   0.976   3.321 -0.0906 -0.1305  0.3150
  951Na+     N115607   0.390   5.219   0.866 -0.0560  0.2201  0.1560
  952Na+     N115608   2.753   3.021   3.082  0.3355  0.7486 -0.2429
  953Na+     N115609   3.829   1.896   0.403  0.0107 -0.1353 -0.1503
   5.49883   5.49883   5.49883
