DG-THF-PF6-Na    Amber RESP
15560
    1DG      C1    1   5.194   1.590   3.420 -0.1840  0.2069 -0.2316
    1DG      C2    2   4.768   1.322   3.027  0.3434 -0.1155  0.3460
    1DG      H3    3   5.247   1.667   3.476  0.8657 -1.2566  0.8920
    1DG      H4    4   5.249   1.584   3.326  0.9695  1.2929  0.3415
    1DG      H5    5   5.200   1.491   3.466 -0.0885 -0.4373 -1.5753
    1DG      H6    6   4.856   1.294   2.969 -0.3609  1.4160 -1.5575
    1DG      H7    7   4.726   1.232   3.071  0.1773  0.2276  0.8991
    1DG      H8    8   4.693   1.373   2.967  0.6784  1.7582  1.4156
    1DG      O9    9   5.058   1.610   3.387 -0.2923 -0.0220  0.0782
    1DG     O10   10   4.797   1.414   3.132 -0.1554 -0.9290  0.6230
    1DG     C11   11   4.981   1.623   3.502 -0.2858  0.4850  1.0797
    1DG     C12   12   4.686   1.450   3.202  0.5497 -0.1167 -0.4285
    1DG     H13   13   5.034   1.687   3.573 -0.5332  0.6957  1.0744
    1DG     H14   14   4.974   1.521   3.539  0.3350 -0.1102 -0.3672
    1DG     H15   15   4.631   1.360   3.228  2.3253 -0.6357  1.9270
    1DG     H16   16   4.633   1.529   3.149  0.7379  3.1078  3.7069
    1DG     C17   17   4.845   1.678   3.458  0.0533  0.0061 -0.5094
    1DG     C18   18   4.725   1.502   3.349  0.1076 -0.7774  0.1524
    1DG     O19   19   4.795   1.625   3.333 -0.7398  0.0515  0.2377
    1DG     H20   20   4.862   1.784   3.437 -0.5444  0.7037  2.2078
    1DG     H21   21   4.765   1.685   3.532 -1.5437  0.9347 -2.2162
    1DG     H22   22   4.640   1.508   3.417 -0.2922  2.4997 -0.4697
    1DG     H23   23   4.795   1.438   3.403 -0.1701  0.2332  1.7830
    2DG      C1   24   3.578   0.674   1.744 -0.5241  0.5198 -0.7595
    2DG      C2   25   3.820   0.501   1.062 -0.8511 -0.4085 -0.8095
    2DG      H3   26   3.673   0.630   1.775 -0.0811  2.6429  1.1309
    2DG      H4   27   3.505   0.593   1.747  0.6873 -0.6428 -1.6005
    2DG      H5   28   3.550   0.749   1.818  0.3985  2.0240 -1.8891
    2DG      H6   29   3.927   0.514   1.046 -0.7551  0.2463  0.2601
    2DG      H7   30   3.799   0.403   1.104  0.3759 -0.8122 -1.0828
    2DG      H8   31   3.775   0.510   0.963  1.0369  1.8833 -1.5435
    2DG      O9   32   3.582   0.722   1.607 -0.2422  0.3689  0.2170
    2DG     O10   33   3.787   0.610   1.139  0.0641  0.0356  0.2197
    2DG     C11   34   3.687   0.816   1.583 -0.0008  0.1533  0.0081
    2DG     C12   35   3.650   0.628   1.151  0.5457 -0.0368 -0.0089
    2DG     H13   36   3.785   0.785   1.621 -0.1112  2.1027  2.1102
    2DG     H14   37   3.675   0.902   1.649 -0.8766  0.1795 -0.1700
    2DG     H15   38   3.605   0.553   1.216 -0.2590  0.8580  0.4860
    2DG     H16   39   3.599   0.631   1.055 -1.6323  2.7436  1.0961
    2DG     C17   40   3.683   0.864   1.433  0.7908 -0.2308 -0.0876
    2DG     C18   41   3.631   0.755   1.227  0.2015  0.0911  0.1914
    2DG     O19   42   3.687   0.746   1.359  0.0906  0.2107  0.1052
    2DG     H20   43   3.766   0.927   1.402  0.8882 -0.3881 -0.1436
    2DG     H21   44   3.587   0.913   1.415 -0.6956 -3.0606 -0.3385
    2DG     H22   45   3.674   0.835   1.167  1.9002  0.2415  1.5334
    2DG     H23   46   3.522   0.769   1.227  0.2058  0.1854 -0.7000
    3DG      C1   47   4.593   2.355   4.626 -0.8217  0.1920  0.1082
    3DG      C2   48   4.026   2.902   4.438  1.0218 -0.0320 -0.1754
    3DG      H3   49   4.553   2.253   4.636  0.4989 -0.1693  2.7940
    3DG      H4   50   4.685   2.357   4.684 -2.6445 -0.2502  3.2870
    3DG      H5   51   4.618   2.350   4.520  2.4831 -1.6748  0.8282
    3DG      H6   52   4.040   2.954   4.532 -0.3596  2.1454 -1.0896
    3DG      H7   53   4.033   2.970   4.353 -0.0866 -0.4915 -0.6584
    3DG      H8   54   3.919   2.884   4.446  0.8093  1.5964  1.1961
    3DG      O9   55   4.497   2.457   4.657 -0.1367  0.5674  0.1147
    3DG     O10   56   4.110   2.788   4.418 -0.0752 -0.3549 -0.2547
    3DG     C11   57   4.536   2.586   4.606 -0.0280 -0.1910 -0.7115
    3DG     C12   58   4.126   2.693   4.526 -0.3061  0.1622 -0.6525
    3DG     H13   59   4.645   2.581   4.604 -0.0233 -0.2486 -0.3395
    3DG     H14   60   4.500   2.663   4.675 -1.7854 -1.8151  0.2545
    3DG     H15   61   4.042   2.633   4.561  0.8358 -0.8641  0.3955
    3DG     H16   62   4.148   2.755   4.612  1.8145 -1.7441  0.2551
    3DG     C17   63   4.473   2.604   4.475 -0.7470 -0.3586  0.8066
    3DG     C18   64   4.240   2.595   4.503  0.5325  0.8871  0.0016
    3DG     O19   65   4.353   2.673   4.490  0.0776  0.0596 -0.5080
    3DG     H20   66   4.461   2.519   4.408 -3.8294 -0.0950  0.8844
    3DG     H21   67   4.530   2.673   4.415  0.9427 -1.7497  0.7437
    3DG     H22   68   4.247   2.518   4.580 -2.7644 -0.2376 -0.6275
    3DG     H23   69   4.221   2.532   4.416 -1.4069  2.0001 -0.4455
    4DG      C1   70   4.882   4.942   4.459  0.5886  0.4543 -0.0661
    4DG      C2   71   4.537   4.439   4.197 -0.1675  0.4758 -0.0074
    4DG      H3   72   4.938   4.961   4.551  0.9938  0.9301 -0.4042
    4DG      H4   73   4.857   5.039   4.415  2.4266  0.2683 -1.6545
    4DG      H5   74   4.954   4.891   4.395  0.5891 -0.7981  0.9029
    4DG      H6   75   4.437   4.428   4.154  0.3081  0.0508 -1.0118
    4DG      H7   76   4.598   4.470   4.113 -1.2495 -1.6561 -1.6750
    4DG      H8   77   4.559   4.341   4.238 -0.7509  0.3909  0.1167
    4DG      O9   78   4.764   4.864   4.487 -0.3676 -0.6905 -0.2171
    4DG     O10   79   4.533   4.550   4.289 -0.2492  0.0536  0.7053
    4DG     C11   80   4.667   4.915   4.576  0.1841 -0.0930  0.3800
    4DG     C12   81   4.424   4.548   4.373  0.2848 -0.9603  0.0376
    4DG     H13   82   4.621   4.999   4.525  4.2121  1.8260 -0.5117
    4DG     H14   83   4.710   4.956   4.667  2.4723 -0.9301 -0.2330
    4DG     H15   84   4.373   4.453   4.391 -2.0024 -0.4239 -2.8459
    4DG     H16   85   4.343   4.602   4.324 -1.0553  0.1806  3.2851
    4DG     C17   86   4.575   4.794   4.614 -0.6909 -0.1326 -0.8780
    4DG     C18   87   4.470   4.614   4.506  0.6666 -0.2001  0.3200
    4DG     O19   88   4.532   4.742   4.485  0.5979  0.8269 -0.6932
    4DG     H20   89   4.488   4.827   4.671 -0.8440  0.6317 -1.5287
    4DG     H21   90   4.632   4.724   4.675  0.7801  1.3121 -0.5326
    4DG     H22   91   4.375   4.641   4.552  0.3136  1.0331 -1.0349
    4DG     H23   92   4.523   4.537   4.561  1.0286 -1.8301 -2.1423
    5DG      C1   93   3.032   2.058   3.591  0.3234  0.2602 -0.1399
    5DG      C2   94   2.983   1.487   3.512  0.5908 -0.2358 -0.0193
    5DG      H3   95   3.123   2.118   3.585 -0.4481  1.3639 -1.7850
    5DG      H4   96   2.958   2.109   3.653  1.0988  2.3174 -0.8178
    5DG      H5   97   2.980   2.045   3.495 -0.6790  0.1302  0.4072
    5DG      H6   98   2.972   1.529   3.412  1.4255 -0.5567 -0.2536
    5DG      H7   99   2.949   1.383   3.520 -1.5110  0.4327  0.4136
    5DG      H8  100   2.917   1.541   3.580  1.0617  1.4454 -0.8450
    5DG      O9  101   3.052   1.930   3.641  0.2995  0.7660 -0.1970
    5DG     O10  102   3.120   1.490   3.561 -0.2801 -0.4823  0.0598
    5DG     C11  103   3.111   1.912   3.768  0.5172 -0.2283 -0.1308
    5DG     C12  104   3.155   1.446   3.697  0.2316 -0.4019 -0.3849
    5DG     H13  105   3.087   1.998   3.830  1.2519 -0.1373  0.0354
    5DG     H14  106   3.218   1.922   3.754  0.3188  2.0484 -0.5266
    5DG     H15  107   3.261   1.432   3.719 -0.1476 -1.6088  0.7801
    5DG     H16  108   3.111   1.347   3.710 -2.4148  0.7883  0.3637
    5DG     C17  109   3.080   1.779   3.833 -0.2625  0.3293 -0.0816
    5DG     C18  110   3.105   1.545   3.800 -0.0184  0.0546  0.1981
    5DG     O19  111   3.135   1.673   3.753  0.2055 -0.2709 -0.1114
    5DG     H20  112   2.972   1.777   3.847 -0.0183 -2.4406  2.4590
    5DG     H21  113   3.128   1.772   3.931 -0.8849 -0.6831  0.1756
    5DG     H22  114   2.997   1.532   3.810 -0.3007  0.8236 -1.5914
    5DG     H23  115   3.146   1.526   3.899  0.7265  0.7815  0.0360
    6DG      C1  116   4.981   2.559   2.507  0.3823  0.3679  0.1459
    6DG      C2  117   4.722   2.896   1.725 -0.0315  0.0453 -0.1006
    6DG      H3  118   5.066   2.617   2.544 -0.0371  1.2314 -0.2023
    6DG      H4  119   5.014   2.455   2.509  1.1358  0.5864 -0.3051
    6DG      H5  120   4.912   2.555   2.591  1.1238 -1.3685  0.7079
    6DG      H6  121   4.740   2.800   1.677  0.9261 -0.2949  0.8849
    6DG      H7  122   4.667   2.963   1.659 -0.4678  0.4740  0.6836
    6DG      H8  123   4.821   2.940   1.741 -0.2781  1.0677 -1.2625
    6DG      O9  124   4.923   2.617   2.396 -0.2637 -0.1112  0.8013
    6DG     O10  125   4.668   2.876   1.856 -0.0467  0.1298 -0.7214
    6DG     C11  126   4.807   2.548   2.349 -0.4270 -0.0818 -0.1053
    6DG     C12  127   4.762   2.826   1.953  0.0410  0.3915 -0.0192
    6DG     H13  128   4.743   2.519   2.433  0.8847 -1.1124  0.5696
    6DG     H14  129   4.832   2.459   2.292 -0.5823  0.3173 -0.8081
    6DG     H15  130   4.833   2.904   1.979  0.5298 -0.0304 -0.0569
    6DG     H16  131   4.808   2.737   1.910 -0.3154 -1.4066  2.9945
    6DG     C17  132   4.719   2.642   2.267 -0.7842  0.0484 -0.3169
    6DG     C18  133   4.696   2.788   2.084 -0.4901 -0.3830  0.6238
    6DG     O19  134   4.786   2.696   2.155 -0.3531 -0.2744  0.8850
    6DG     H20  135   4.681   2.721   2.333  3.4096  0.2371  2.2082
    6DG     H21  136   4.633   2.582   2.237  0.2936 -1.8897  0.3240
    6DG     H22  137   4.686   2.880   2.142  0.6567  0.9015 -1.0810
    6DG     H23  138   4.597   2.743   2.079 -1.0556  0.9048 -0.8247
    7DG      C1  139   3.087   4.610   0.201  0.6213  0.8387 -0.4247
    7DG      C2  140   3.418   4.119   0.575  0.0781 -0.3060  0.1250
    7DG      H3  141   3.068   4.716   0.185 -1.1429  0.3481 -1.9324
    7DG      H4  142   2.987   4.566   0.195  0.5722  0.5975  1.5006
    7DG      H5  143   3.139   4.591   0.108 -0.3770  0.4731 -0.9267
    7DG      H6  144   3.503   4.097   0.640 -0.2503 -0.7482  0.4098
    7DG      H7  145   3.328   4.077   0.619 -0.2982 -1.3432 -1.5514
    7DG      H8  146   3.421   4.065   0.480  0.2238 -0.1284  0.0268
    7DG      O9  147   3.162   4.563   0.304 -0.5829 -0.2213 -0.1803
    7DG     O10  148   3.407   4.262   0.557  0.0470 -0.6236  0.1071
    7DG     C11  149   3.109   4.612   0.424  0.3384 -0.0874 -0.7507
    7DG     C12  150   3.393   4.327   0.677  0.3129 -0.1181 -0.5774
    7DG     H13  151   3.018   4.560   0.455 -0.3906  0.2735 -2.1895
    7DG     H14  152   3.084   4.718   0.416  1.4821  0.2178 -0.5030
    7DG     H15  153   3.480   4.319   0.743 -0.6407  0.6416  0.8097
    7DG     H16  154   3.309   4.290   0.735  0.2656  0.0873 -0.5135
    7DG     C17  155   3.220   4.619   0.535 -0.4853 -0.5578 -0.4902
    7DG     C18  156   3.382   4.478   0.649 -0.1081 -1.1764  0.5371
    7DG     O19  157   3.273   4.491   0.562  0.5367 -0.4417  0.4966
    7DG     H20  158   3.184   4.660   0.629 -0.2592 -0.0471 -0.6216
    7DG     H21  159   3.303   4.686   0.512 -1.1878 -0.3099 -2.4995
    7DG     H22  160   3.371   4.531   0.743 -1.7990 -3.2125  1.5791
    7DG     H23  161   3.474   4.519   0.607 -1.4192 -0.0058 -1.3293
    8DG      C1  162   0.474   2.085   4.195  0.3629  0.0170  0.1409
    8DG      C2  163   0.575   2.231   3.632  0.2603 -0.1013 -0.1942
    8DG      H3  164   0.405   2.040   4.267  0.2265 -1.6469 -0.9602
    8DG      H4  165   0.552   2.008   4.198  0.1238 -0.2425 -0.1948
    8DG      H5  166   0.427   2.074   4.098 -0.9546  1.6507  0.5425
    8DG      H6  167   0.673   2.184   3.634  0.5809  0.5874  0.4381
    8DG      H7  168   0.519   2.190   3.548 -1.8696  0.5594  0.8213
    8DG      H8  169   0.599   2.330   3.594  0.0169  0.3201  0.7361
    8DG      O9  170   0.524   2.216   4.223  0.2274  0.4826  0.3929
    8DG     O10  171   0.516   2.240   3.758 -0.3456 -0.3087 -0.1325
    8DG     C11  172   0.427   2.318   4.245 -0.0425  0.3791  0.2299
    8DG     C12  173   0.423   2.339   3.761  0.2726 -0.4773  0.7803
    8DG     H13  174   0.488   2.407   4.259  0.5305 -0.1150  0.9551
    8DG     H14  175   0.365   2.290   4.331 -0.3371  1.2403  0.3092
    8DG     H15  176   0.369   2.339   3.666  2.4830  1.4028 -0.5714
    8DG     H16  177   0.481   2.431   3.757 -1.0251  0.3360 -0.0859
    8DG     C17  178   0.343   2.340   4.123  0.3030  0.3166 -0.3524
    8DG     C18  179   0.331   2.336   3.882 -0.1662  0.4985  0.1138
    8DG     O19  180   0.410   2.312   3.999  0.3350  0.2044 -0.4147
    8DG     H20  181   0.303   2.442   4.131  0.0768  0.0785  3.7912
    8DG     H21  182   0.256   2.274   4.121  2.0097 -2.1899  1.6278
    8DG     H22  183   0.273   2.428   3.886 -2.0654 -0.6076 -0.5698
    8DG     H23  184   0.255   2.258   3.878 -1.1043  1.4207 -3.0969
    9DG      C1  185   5.135   0.680   5.272  0.8182 -0.0888 -0.0206
    9DG      C2  186   5.574   0.284   5.315  0.7294 -0.2574 -0.2508
    9DG      H3  187   5.029   0.698   5.286  0.6402  1.1351 -2.4505
    9DG      H4  188   5.161   0.759   5.201 -1.8875  1.8472  1.0052
    9DG      H5  189   5.180   0.707   5.367 -0.2959  1.3373  0.1149
    9DG      H6  190   5.599   0.183   5.349  2.7737 -0.1472 -1.2566
    9DG      H7  191   5.659   0.352   5.328 -0.0678  0.5304  1.0885
    9DG      H8  192   5.482   0.317   5.363  0.6760  2.0068 -1.7752
    9DG      O9  193   5.165   0.549   5.221  0.1685  0.2036  0.3987
    9DG     O10  194   5.535   0.287   5.180  1.0030 -0.1805 -0.6244
    9DG     C11  195   5.112   0.511   5.094 -0.8102 -0.0250  0.4278
    9DG     C12  196   5.431   0.205   5.141  0.2457 -0.2473 -0.0007
    9DG     H13  197   5.135   0.578   5.011 -0.1869 -0.5251  0.1822
    9DG     H14  198   5.003   0.507   5.099 -1.1386 -0.9809 -3.6213
    9DG     H15  199   5.355   0.201   5.219 -0.3199  1.9462 -0.3851
    9DG     H16  200   5.471   0.104   5.135  0.3711 -0.2333  0.5346
    9DG     C17  201   5.169   0.374   5.064 -0.2985 -0.6125  0.5935
    9DG     C18  202   5.378   0.262   5.008 -0.0675 -0.4205 -0.3705
    9DG     O19  203   5.309   0.388   5.029 -1.3525 -0.1887  0.3674
    9DG     H20  204   5.109   0.330   4.984  0.0635 -1.4855  0.7916
    9DG     H21  205   5.150   0.313   5.152 -1.0770 -0.2195  0.7144
    9DG     H22  206   5.451   0.272   4.928  0.9058 -1.3095  0.3758
    9DG     H23  207   5.307   0.187   4.971 -4.0525  2.7978  0.1010
   10DG      C1  208   4.114   4.144   0.121  0.5407 -0.2956  0.5865
   10DG      C2  209   3.731   4.691   0.332  0.7841  0.3428  0.8443
   10DG      H3  210   4.053   4.055   0.139  1.5989 -1.5095 -1.3705
   10DG      H4  211   4.203   4.096   0.078  0.4443 -0.5851  0.7086
   10DG      H5  212   4.075   4.213   0.046  1.6108  0.8604  1.0585
   10DG      H6  213   3.677   4.762   0.270 -1.4436 -1.7866  0.1578
   10DG      H7  214   3.673   4.673   0.422 -0.1667  1.8157  0.5464
   10DG      H8  215   3.826   4.726   0.372  1.7251 -1.5735  0.4298
   10DG      O9  216   4.149   4.198   0.248 -0.4054  0.1208 -0.1263
   10DG     O10  217   3.752   4.567   0.255  0.0105 -0.3080 -0.6170
   10DG     C11  218   4.203   4.327   0.248 -0.0982 -0.8489 -0.2137
   10DG     C12  219   3.843   4.586   0.154 -0.6512 -0.1469 -0.1554
   10DG     H13  220   4.305   4.347   0.217  0.2379  1.4365  2.0528
   10DG     H14  221   4.208   4.364   0.350  0.5919 -0.0978 -0.5123
   10DG     H15  222   3.925   4.642   0.199 -1.5479 -0.0613  1.4658
   10DG     H16  223   3.801   4.663   0.089 -0.2734  0.2190  0.0286
   10DG     C17  224   4.114   4.425   0.171 -0.4483 -0.1582 -0.5567
   10DG     C18  225   3.890   4.461   0.087  0.1354 -0.1869 -0.1754
   10DG     O19  226   3.974   4.387   0.177 -0.2124 -0.2328  0.1576
   10DG     H20  227   4.143   4.430   0.066 -0.7934  0.4206 -0.6253
   10DG     H21  228   4.126   4.527   0.206 -0.1663  0.0423 -1.2163
   10DG     H22  229   3.806   4.397   0.061  0.3857 -0.5260 -0.1467
   10DG     H23  230   3.950   4.489   0.000  0.3423 -1.8957 -0.6029
   11DG      C1  231   3.618   4.421   4.569  0.6558  0.1218 -0.1888
   11DG      C2  232   3.397   4.716   5.093 -0.1170  0.6749  0.3894
   11DG      H3  233   3.663   4.326   4.541  0.4348 -0.2876  0.7856
   11DG      H4  234   3.640   4.479   4.480 -0.7112 -0.7227 -1.1208
   11DG      H5  235   3.510   4.421   4.587  0.7285  1.5524  0.3802
   11DG      H6  236   3.298   4.695   5.053 -0.1320 -1.6715  1.5182
   11DG      H7  237   3.428   4.621   5.137 -2.3709 -1.4889 -2.2960
   11DG      H8  238   3.383   4.795   5.166  0.2621  1.4864 -0.3904
   11DG      O9  239   3.685   4.492   4.673  0.3608 -0.2078  0.2868
   11DG     O10  240   3.476   4.782   4.990 -0.2978  0.6427 -0.0935
   11DG     C11  241   3.658   4.423   4.788 -0.1451 -0.6673  0.1964
   11DG     C12  242   3.612   4.817   5.028  0.5437  0.4631  0.1280
   11DG     H13  243   3.687   4.318   4.788  0.3045 -0.5585 -1.3177
   11DG     H14  244   3.551   4.406   4.801 -0.1671 -3.7341 -2.5442
   11DG     H15  245   3.625   4.860   5.127  0.8001  1.6182 -0.4004
   11DG     H16  246   3.651   4.905   4.977  0.0404  0.8810  0.4535
   11DG     C17  247   3.721   4.492   4.909  0.0666  0.0048 -0.6205
   11DG     C18  248   3.700   4.697   5.025 -0.1480  0.6296  0.4025
   11DG     O19  249   3.668   4.624   4.911 -0.4801 -0.4072 -0.3461
   11DG     H20  250   3.829   4.502   4.900  0.1025 -0.5029 -0.7683
   11DG     H21  251   3.697   4.439   5.001 -1.3090  3.1484  0.9985
   11DG     H22  252   3.803   4.730   5.014 -0.5984  1.1853 -3.6818
   11DG     H23  253   3.687   4.634   5.113  1.0589 -0.3500 -0.0791
   12DG      C1  254   0.451   5.447   4.338  1.0161  0.0321  0.2045
   12DG      C2  255   0.485   5.314   3.697  0.2319 -0.7526  0.6695
   12DG      H3  256   0.497   5.357   4.378  1.4605 -0.1904 -0.7835
   12DG      H4  257   0.373   5.490   4.401  0.3304 -2.4473  1.1780
   12DG      H5  258   0.528   5.520   4.313 -0.0544  0.2605 -2.8682
   12DG      H6  259   0.421   5.399   3.676 -0.4056 -1.5786 -0.8971
   12DG      H7  260   0.586   5.350   3.719  1.1749 -2.1357 -1.1207
   12DG      H8  261   0.494   5.262   3.601  1.9901 -0.2169  0.5002
   12DG      O9  262   0.387   5.401   4.215 -0.0364  0.0320 -0.6120
   12DG     O10  263   0.445   5.238   3.812 -0.5936 -0.0911 -0.1186
   12DG     C11  264   0.269   5.328   4.239  0.2737 -0.8099 -0.2947
   12DG     C12  265   0.309   5.191   3.822 -0.9268  0.0702 -0.3632
   12DG     H13  266   0.197   5.398   4.281  1.9548 -0.4592  2.2189
   12DG     H14  267   0.268   5.249   4.314 -2.6546 -0.1844  0.4196
   12DG     H15  268   0.284   5.135   3.732  4.1644 -0.4115 -1.7916
   12DG     H16  269   0.236   5.271   3.831 -0.8212  0.2677 -1.1787
   12DG     C17  270   0.217   5.274   4.112  0.6586  0.0307  0.4786
   12DG     C18  271   0.300   5.110   3.950 -0.1848 -0.1080  0.1776
   12DG     O19  272   0.325   5.196   4.062  0.0305  0.9717 -0.2874
   12DG     H20  273   0.180   5.341   4.034  1.5913 -1.3039 -1.1656
   12DG     H21  274   0.138   5.201   4.128 -0.6938  1.6019  1.2987
   12DG     H22  275   0.219   5.038   3.957  1.7440 -2.2399  2.1938
   12DG     H23  276   0.387   5.045   3.954  0.7936  0.9451 -2.1996
   13DG      C1  277   1.905   2.092   1.160 -0.0994  0.5413 -0.0829
   13DG      C2  278   2.063   1.536   0.778 -0.1424 -0.3089  0.0290
   13DG      H3  279   1.904   2.181   1.224  0.5480 -0.7417  1.7793
   13DG      H4  280   1.875   2.009   1.223 -0.6144  1.2440  0.6277
   13DG      H5  281   1.824   2.098   1.087  0.5361  0.0398 -0.8424
   13DG      H6  282   2.017   1.569   0.685  0.7655  0.0185 -0.3203
   13DG      H7  283   2.156   1.486   0.750  0.9046  1.1220  0.7665
   13DG      H8  284   1.993   1.477   0.837 -0.1148  0.5409  0.9530
   13DG      O9  285   2.027   2.067   1.087  0.3321 -0.4159 -0.6110
   13DG     O10  286   2.114   1.647   0.859 -0.0089  0.3730  0.2462
   13DG     C11  287   2.137   2.034   1.170 -0.3118  0.0626  0.0889
   13DG     C12  288   2.192   1.609   0.966 -0.2535  0.7868 -0.5220
   13DG     H13  289   2.100   1.981   1.258  0.2321  0.7133  0.7189
   13DG     H14  290   2.184   2.120   1.216  0.7768 -0.5545  0.1529
   13DG     H15  291   2.262   1.532   0.935 -1.0613  1.0233 -3.2221
   13DG     H16  292   2.142   1.561   1.049 -0.0353 -1.6848 -1.7433
   13DG     C17  293   2.246   1.945   1.100  0.0461  0.2672 -0.4000
   13DG     C18  294   2.282   1.727   1.013  1.0204  0.0341  0.3142
   13DG     O19  295   2.183   1.827   1.059 -0.2100 -0.4064 -0.0056
   13DG     H20  296   2.319   1.930   1.180  0.1985  0.1151 -0.5693
   13DG     H21  297   2.291   2.002   1.019  1.5194  0.0444  0.2245
   13DG     H22  298   2.362   1.712   1.085  1.2748  1.1946  0.2914
   13DG     H23  299   2.318   1.765   0.918 -4.1061  0.8870 -1.5869
   14DG      C1  300   5.383   0.519   1.560  0.1802 -0.4759 -0.7530
   14DG      C2  301   4.939   1.012   1.542 -0.4397  0.2503 -0.0383
   14DG      H3  302   5.435   0.536   1.655  1.0867 -1.5298 -1.0409
   14DG      H4  303   5.407   0.422   1.517 -1.1993 -1.3653  0.3832
   14DG      H5  304   5.281   0.520   1.597  1.2044  0.0481  2.3744
   14DG      H6  305   4.835   0.977   1.539 -0.4909  0.4408 -1.1948
   14DG      H7  306   4.961   1.041   1.644  1.3982  1.0546 -0.6271
   14DG      H8  307   4.944   1.104   1.484 -1.4652 -0.9373 -2.1728
   14DG      O9  308   5.413   0.624   1.467 -0.4953 -0.4523 -0.1991
   14DG     O10  309   5.042   0.913   1.503 -0.1186  0.2643  0.1833
   14DG     C11  310   5.371   0.597   1.334  0.6301  0.0057  0.7042
   14DG     C12  311   5.005   0.860   1.379 -1.0123 -0.3516 -0.6859
   14DG     H13  312   5.428   0.515   1.289  0.7585 -0.7993  2.2658
   14DG     H14  313   5.385   0.687   1.274 -0.4720  0.1154  0.5921
   14DG     H15  314   5.021   0.940   1.307  0.4729 -0.4253 -0.4634
   14DG     H16  315   4.905   0.820   1.396 -0.3001 -2.3540 -0.9783
   14DG     C17  316   5.220   0.554   1.318  0.0588 -0.3155  0.2039
   14DG     C18  317   5.097   0.752   1.320 -0.6879 -0.2785 -0.3040
   14DG     O19  318   5.136   0.640   1.392  0.9576  0.1628 -0.4929
   14DG     H20  319   5.200   0.453   1.353 -0.6189 -0.4948 -0.6741
   14DG     H21  320   5.192   0.552   1.213  0.1136  1.1831  0.1348
   14DG     H22  321   5.053   0.718   1.226 -1.1840  0.2905 -0.2800
   14DG     H23  322   5.191   0.799   1.289 -1.3620  1.2400 -0.1165
   15DG      C1  323   1.571   1.578   4.548 -0.2602  0.1076 -0.0768
   15DG      C2  324   1.946   1.880   4.948 -0.6371 -0.7072  0.1596
   15DG      H3  325   1.475   1.630   4.557  0.5092  1.6999 -0.7213
   15DG      H4  326   1.589   1.522   4.639  1.1399 -0.0096 -0.4061
   15DG      H5  327   1.576   1.525   4.453  0.8314  1.6796 -0.9466
   15DG      H6  328   1.988   1.959   5.011 -5.3820  1.4920  1.0014
   15DG      H7  329   1.880   1.822   5.013 -0.0040 -0.6684  0.8539
   15DG      H8  330   2.022   1.810   4.913  0.3052  0.5742 -0.4105
   15DG      O9  331   1.683   1.661   4.550 -0.0095 -0.0826  0.0223
   15DG     O10  332   1.871   1.938   4.852  0.2698 -0.1518 -0.7620
   15DG     C11  333   1.678   1.758   4.452 -0.5776  0.1458 -0.1169
   15DG     C12  334   1.941   1.987   4.743  0.3473 -0.1769  0.3608
   15DG     H13  335   1.582   1.810   4.459 -2.2596 -2.8326  1.3854
   15DG     H14  336   1.703   1.716   4.355 -1.5323 -2.3359  0.6242
   15DG     H15  337   2.004   1.918   4.686 -0.7128 -0.7627 -0.1204
   15DG     H16  338   2.003   2.073   4.769 -1.4395  0.9894  0.9467
   15DG     C17  339   1.777   1.872   4.474  0.0990 -0.3309 -0.4979
   15DG     C18  340   1.834   2.039   4.644 -0.6007 -0.5642  0.4431
   15DG     O19  341   1.748   1.929   4.601  0.2964  0.5278 -0.2285
   15DG     H20  342   1.763   1.946   4.395 -1.0817  0.0096  0.0019
   15DG     H21  343   1.876   1.828   4.481  0.3314 -0.0197 -1.6701
   15DG     H22  344   1.771   2.114   4.692 -0.0152  1.8360 -2.2961
   15DG     H23  345   1.875   2.083   4.553  0.5640 -0.6343  0.9179
   16DG      C1  346   4.953   2.528   5.455  0.6829 -0.6824  0.6242
   16DG      C2  347   4.741   2.741   4.841  0.2154  0.6992  0.2798
   16DG      H3  348   5.043   2.575   5.415 -0.2471 -1.3886 -2.5830
   16DG      H4  349   4.987   2.466   5.538  2.0305  1.0593  1.4594
   16DG      H5  350   4.879   2.597   5.496  0.1898 -0.6878 -0.2316
   16DG      H6  351   4.733   2.724   4.734 -1.4861  0.6521  0.3779
   16DG      H7  352   4.636   2.753   4.867 -0.1599 -2.5775  0.6658
   16DG      H8  353   4.805   2.825   4.868  1.3821  0.2571 -1.0000
   16DG      O9  354   4.900   2.461   5.342 -0.1717 -0.1168  0.2009
   16DG     O10  355   4.766   2.625   4.904  0.6195 -0.2756 -0.7195
   16DG     C11  356   5.000   2.380   5.278  0.0195 -0.6718  0.4884
   16DG     C12  357   4.880   2.568   4.861 -0.3691 -0.8294 -0.2385
   16DG     H13  358   5.041   2.299   5.338  0.0618  0.2633  1.7730
   16DG     H14  359   5.084   2.448   5.265 -0.1565 -0.1866  1.7753
   16DG     H15  360   4.966   2.626   4.892 -0.4170 -0.5357 -0.6457
   16DG     H16  361   4.882   2.549   4.753  1.1593 -0.3108 -0.3162
   16DG     C17  362   4.960   2.339   5.146  0.4903 -0.3130  0.2271
   16DG     C18  363   4.891   2.432   4.931 -0.6544 -0.2750 -0.0821
   16DG     O19  364   4.916   2.454   5.073  0.0756  0.1902 -0.1678
   16DG     H20  365   4.876   2.271   5.162 -1.7421  2.3060  0.2954
   16DG     H21  366   5.037   2.290   5.086 -0.2198  0.1699 -1.1400
   16DG     H22  367   4.801   2.377   4.906 -0.7920  0.9752 -2.6191
   16DG     H23  368   4.972   2.375   4.884 -0.1867 -1.2199  1.7864
   17DG      C1  369   0.754   1.979   3.913  0.3674 -0.1221  0.1791
   17DG      C2  370   0.562   2.593   4.041 -0.1348 -0.3400  0.3762
   17DG      H3  371   0.672   1.913   3.941 -0.9224  2.0661  1.8229
   17DG      H4  372   0.840   1.913   3.900  1.4149  1.3866 -0.9079
   17DG      H5  373   0.745   2.019   3.812 -1.0316 -2.0021 -0.5061
   17DG      H6  374   0.548   2.671   4.117 -2.2053 -1.0826  0.8134
   17DG      H7  375   0.590   2.646   3.950 -0.3209  1.0234  1.0732
   17DG      H8  376   0.463   2.562   4.010 -0.3284  0.3490  0.2888
   17DG      O9  377   0.783   2.074   4.014  0.3599  1.0733  0.0276
   17DG     O10  378   0.652   2.497   4.093  0.2129  0.0866 -0.2891
   17DG     C11  379   0.919   2.121   3.999 -0.2067 -0.1588 -0.0837
   17DG     C12  380   0.773   2.544   4.138 -0.0677 -0.2593  0.3830
   17DG     H13  381   0.936   2.164   3.900 -0.4809  2.8680  1.0505
   17DG     H14  382   0.995   2.047   4.024  0.9205  1.4441  1.4753
   17DG     H15  383   0.767   2.612   4.223 -0.6721  0.9078 -0.5648
   17DG     H16  384   0.821   2.599   4.058 -2.5064  1.1354 -0.2157
   17DG     C17  385   0.948   2.225   4.109 -0.2504  0.3256 -0.3041
   17DG     C18  386   0.853   2.426   4.184 -0.5641  0.3789 -0.4906
   17DG     O19  387   0.848   2.319   4.088 -0.1081 -0.4629  0.0054
   17DG     H20  388   1.046   2.271   4.100 -1.0546  2.8660  2.4102
   17DG     H21  389   0.944   2.194   4.213  0.9977  2.2521  0.3711
   17DG     H22  390   0.952   2.463   4.213 -0.1822 -0.4177 -0.7582
   17DG     H23  391   0.814   2.400   4.282  3.7920 -0.9183  1.1318
   18DG      C1  392   3.925   3.173   2.368 -0.4492  0.0471  1.0909
   18DG      C2  393   4.350   2.791   1.984 -0.0090  0.4514  0.1111
   18DG      H3  394   4.007   3.243   2.352 -1.0129  0.3250 -0.8660
   18DG      H4  395   3.922   3.106   2.453 -0.1485 -1.1446  0.1925
   18DG      H5  396   3.835   3.234   2.378 -1.1646 -0.6656 -0.6570
   18DG      H6  397   4.414   2.879   1.974  1.0039 -0.4183 -1.5122
   18DG      H7  398   4.371   2.737   2.076 -2.9145  1.2828  1.4021
   18DG      H8  399   4.365   2.731   1.895 -0.4489 -0.3562  0.5670
   18DG      O9  400   3.916   3.086   2.257 -0.0857  0.0191  0.0817
   18DG     O10  401   4.213   2.831   1.996  0.2166 -0.2029 -0.7876
   18DG     C11  402   3.875   3.152   2.139 -0.2408  0.7025  0.2873
   18DG     C12  403   4.163   2.900   1.886 -0.4540 -0.1525 -0.0496
   18DG     H13  404   3.942   3.232   2.106 -1.6909  1.3048 -1.3652
   18DG     H14  405   3.771   3.181   2.155 -0.2771  0.5389  0.3486
   18DG     H15  406   4.180   2.834   1.800  2.8354 -0.5985  0.8155
   18DG     H16  407   4.204   3.000   1.874 -0.8002  0.0638  0.5478
   18DG     C17  408   3.861   3.053   2.025  0.2512 -0.1710  0.4233
   18DG     C18  409   4.009   2.921   1.894 -0.1101 -0.2428 -0.4436
   18DG     O19  410   3.994   3.006   2.004 -0.0947 -0.1003 -0.9737
   18DG     H20  411   3.824   3.099   1.933 -1.1047 -2.3663 -0.2022
   18DG     H21  412   3.794   2.970   2.049 -1.2611 -0.0689 -2.9470
   18DG     H22  413   3.976   2.974   1.805 -0.0709  1.4523  0.4971
   18DG     H23  414   3.958   2.826   1.907 -0.3021 -0.0002  0.7047
   19DG      C1  415   5.400   5.283   4.871 -0.2076  0.4289  0.9536
   19DG      C2  416   5.005   4.817   4.915  0.3523 -0.2136 -0.1882
   19DG      H3  417   5.457   5.350   4.806 -0.0314 -0.2052  0.4477
   19DG      H4  418   5.443   5.184   4.858 -1.3958 -0.1584  1.3700
   19DG      H5  419   5.400   5.321   4.973  0.4400  0.0280  1.1049
   19DG      H6  420   4.954   4.785   4.824 -1.2815  0.2800  0.5123
   19DG      H7  421   5.098   4.761   4.902  0.5253 -0.4022  1.5893
   19DG      H8  422   4.951   4.783   5.004 -0.5077  0.8772 -0.2734
   19DG      O9  423   5.267   5.262   4.817  0.4252  0.4435 -0.1148
   19DG     O10  424   5.034   4.954   4.913 -0.0757  0.2784 -0.3733
   19DG     C11  425   5.169   5.366   4.826 -0.1557 -0.2017  0.1047
   19DG     C12  426   4.915   5.024   4.938  0.3089  0.9921 -0.4294
   19DG     H13  427   5.205   5.461   4.787  0.0447 -0.1773  0.3491
   19DG     H14  428   5.147   5.373   4.932  2.7334 -3.6647  1.1232
   19DG     H15  429   4.875   5.001   5.037  0.0931  0.8512 -0.5479
   19DG     H16  430   4.835   4.995   4.869 -2.8411  1.9238  2.5283
   19DG     C17  431   5.051   5.316   4.747  0.1444  0.4483 -1.0044
   19DG     C18  432   4.949   5.170   4.905 -0.4343 -0.3508  0.6295
   19DG     O19  433   5.023   5.181   4.787 -0.2089 -0.6681  0.2468
   19DG     H20  434   5.082   5.318   4.643 -0.0346 -1.6346 -1.1360
   19DG     H21  435   4.956   5.371   4.750 -1.2695 -1.8830  1.2365
   19DG     H22  436   4.858   5.231   4.898  0.6032  1.6107  2.9605
   19DG     H23  437   5.013   5.199   4.988  2.0513 -2.1998 -0.5303
   20DG      C1  438   4.630   4.345   0.337  0.4655  0.1576  0.3696
   20DG      C2  439   4.235   4.072  -0.404 -0.0377 -0.0198 -0.4430
   20DG      H3  440   4.667   4.244   0.354  2.2097  0.5886 -0.6448
   20DG      H4  441   4.576   4.385   0.423 -1.9050 -2.1633  0.1313
   20DG      H5  442   4.698   4.429   0.326 -0.1771  0.4862 -1.4496
   20DG      H6  443   4.197   3.979  -0.447 -0.1340 -0.2066  0.0418
   20DG      H7  444   4.160   4.113  -0.337  0.9772  0.6476  0.3241
   20DG      H8  445   4.247   4.143  -0.486 -1.8567  0.5536 -0.2404
   20DG      O9  446   4.552   4.340   0.221  0.6875 -0.0647 -0.1114
   20DG     O10  447   4.357   4.052  -0.336 -0.4130 -0.2849  0.0080
   20DG     C11  448   4.622   4.316   0.099  0.0086  0.0783  0.1072
   20DG     C12  449   4.417   4.169  -0.279  0.2330  0.5429  0.0233
   20DG     H13  450   4.697   4.242   0.127 -1.6182 -0.7287  2.7001
   20DG     H14  451   4.657   4.413   0.065  0.9925  0.2458  1.5141
   20DG     H15  452   4.347   4.208  -0.205  0.3189 -2.0887  1.6159
   20DG     H16  453   4.434   4.248  -0.352  2.0322  1.0789  0.9784
   20DG     C17  454   4.520   4.243   0.007 -0.2178  0.6455  0.1050
   20DG     C18  455   4.544   4.127  -0.212 -0.3398 -0.0167 -0.3861
   20DG     O19  456   4.592   4.220  -0.117  0.3159  0.0006 -0.3150
   20DG     H20  457   4.433   4.306  -0.012 -0.5703 -0.0920 -0.7909
   20DG     H21  458   4.481   4.156   0.060  0.4212 -0.9544 -1.9072
   20DG     H22  459   4.517   4.036  -0.160 -1.3722  2.1389  3.1675
   20DG     H23  460   4.623   4.125  -0.288  0.2698  2.4231  0.0985
   21DG      C1  461   1.478   3.930   2.738 -0.0730  0.2981 -0.3891
   21DG      C2  462   1.183   4.446   3.008 -0.0288 -0.1792  0.7372
   21DG      H3  463   1.448   3.922   2.634 -1.3098  3.5997 -0.4178
   21DG      H4  464   1.395   3.904   2.804  0.4079  1.7569  0.8715
   21DG      H5  465   1.561   3.859   2.739  1.5253  2.0677 -0.9379
   21DG      H6  466   1.175   4.553   3.023  1.2619 -0.0642  0.6837
   21DG      H7  467   1.089   4.413   2.963 -0.6378 -1.6875  2.9144
   21DG      H8  468   1.192   4.399   3.106  1.4640 -1.4642  0.0426
   21DG      O9  469   1.510   4.066   2.748  0.6605 -0.7045  0.5279
   21DG     O10  470   1.300   4.412   2.932  0.1971 -0.5330 -0.4795
   21DG     C11  471   1.622   4.082   2.834  0.2769 -0.3321  0.1391
   21DG     C12  472   1.416   4.476   2.988  0.1374  0.0753 -0.1822
   21DG     H13  473   1.709   4.030   2.794 -0.5504 -0.7978 -1.1298
   21DG     H14  474   1.611   4.027   2.927  1.6624 -0.3218  0.3258
   21DG     H15  475   1.408   4.455   3.095 -3.4851 -1.8379 -0.6525
   21DG     H16  476   1.407   4.584   2.976 -0.7993 -0.0940 -1.2247
   21DG     C17  477   1.650   4.224   2.856 -0.0837 -0.6953  0.1277
   21DG     C18  478   1.548   4.433   2.923  0.5699  0.2984 -0.2414
   21DG     O19  479   1.536   4.286   2.899 -0.7204  0.1385 -0.6057
   21DG     H20  480   1.662   4.274   2.760 -0.2989 -1.3103 -0.2237
   21DG     H21  481   1.730   4.247   2.926 -0.2668  1.1270 -0.1958
   21DG     H22  482   1.567   4.480   2.827  0.4986  1.0582  0.1165
   21DG     H23  483   1.635   4.458   2.985 -0.7435  0.8148  1.4736
   22DG      C1  484   1.430   1.592   3.046 -0.4540 -0.4456 -0.0604
   22DG      C2  485   1.714   1.374   2.472 -0.2543 -0.4370  0.5745
   22DG      H3  486   1.453   1.521   3.125  1.8714  0.4698  0.1704
   22DG      H4  487   1.373   1.668   3.100  1.4873  0.9456  0.1204
   22DG      H5  488   1.524   1.637   3.013 -1.2742  1.8838  0.5871
   22DG      H6  489   1.755   1.276   2.494  0.4150 -0.1900  0.4676
   22DG      H7  490   1.669   1.367   2.373  0.3772  1.2388  0.1269
   22DG      H8  491   1.796   1.446   2.472  0.5521 -1.3312 -0.1439
   22DG      O9  492   1.361   1.525   2.943 -0.9403 -0.5986  0.4798
   22DG     O10  493   1.614   1.405   2.562 -0.6907 -0.1870 -1.1485
   22DG     C11  494   1.299   1.623   2.858  0.7454 -0.5085  0.6904
   22DG     C12  495   1.487   1.334   2.546 -0.5459 -0.5254  0.7198
   22DG     H13  496   1.365   1.702   2.822  0.1479 -0.6502 -0.7721
   22DG     H14  497   1.226   1.667   2.926  1.4424  2.7247 -0.5206
   22DG     H15  498   1.524   1.231   2.546 -0.8655 -0.6492  1.5014
   22DG     H16  499   1.435   1.338   2.451 -2.1600  1.8984  1.6131
   22DG     C17  500   1.235   1.549   2.742 -0.1473  0.5345 -0.0305
   22DG     C18  501   1.394   1.374   2.670 -0.4982 -0.8182 -0.0716
   22DG     O19  502   1.345   1.507   2.655 -0.1522 -0.3110  0.0801
   22DG     H20  503   1.165   1.608   2.683 -0.0721  1.5734  0.8978
   22DG     H21  504   1.180   1.464   2.781 -1.7868  2.2583  1.6560
   22DG     H22  505   1.313   1.302   2.682  0.6666 -2.1206  0.1891
   22DG     H23  506   1.462   1.384   2.754  0.8266 -1.7798 -0.9908
   23DG      C1  507   4.858   2.121   1.066 -0.6448 -0.0822 -0.1076
   23DG      C2  508   5.161   1.450   0.791 -0.0718 -0.4632 -0.7406
   23DG      H3  509   4.788   2.095   1.145  0.4000 -1.3522  0.4329
   23DG      H4  510   4.796   2.161   0.985 -0.6110 -2.1130 -1.2015
   23DG      H5  511   4.921   2.199   1.107  0.1035 -0.2456 -0.9158
   23DG      H6  512   5.266   1.437   0.767 -0.1525  0.5767 -1.7417
   23DG      H7  513   5.151   1.459   0.899 -2.0536  2.5089 -1.0643
   23DG      H8  514   5.115   1.358   0.755 -0.0341 -0.3549 -1.0707
   23DG      O9  515   4.926   2.008   1.005  0.4376 -0.0166 -0.6235
   23DG     O10  516   5.107   1.565   0.717 -0.2176  0.9407  0.0635
   23DG     C11  517   5.015   1.942   1.103 -0.2252  0.2043  0.7400
   23DG     C12  518   4.984   1.616   0.773  0.2974  0.1196  0.1166
   23DG     H13  519   4.950   1.914   1.186  0.8605 -1.7261  0.9980
   23DG     H14  520   5.085   2.022   1.130  0.2047  0.2137 -0.3564
   23DG     H15  521   4.952   1.542   0.847  1.2743  0.1955  0.6348
   23DG     H16  522   4.912   1.622   0.691 -0.0219 -2.9184  0.0634
   23DG     C17  523   5.106   1.832   1.050 -0.1587 -0.1086 -0.4951
   23DG     C18  524   5.000   1.749   0.847  0.2435 -0.0283 -0.1174
   23DG     O19  525   5.044   1.727   0.983  0.3611 -0.5591 -0.1151
   23DG     H20  526   5.171   1.793   1.128 -0.6207 -1.4679 -0.7792
   23DG     H21  527   5.179   1.890   0.992  0.0220  0.6802  0.4757
   23DG     H22  528   5.060   1.818   0.788 -2.8709  2.7129 -0.3870
   23DG     H23  529   4.906   1.805   0.855 -0.7080 -1.1401 -2.4465
   24DG      C1  530   3.333   2.453   5.228  0.7042 -0.7044  0.6918
   24DG      C2  531   2.645   2.373   4.980  0.0859 -0.2287  0.0571
   24DG      H3  532   3.283   2.541   5.269  1.4328  0.3331 -0.5627
   24DG      H4  533   3.441   2.450   5.213  1.1383  3.3077  1.9424
   24DG      H5  534   3.313   2.378   5.305 -1.2637 -1.3875 -0.4116
   24DG      H6  535   2.623   2.472   5.018  0.4817 -0.4690  0.9506
   24DG      H7  536   2.571   2.350   4.904 -1.9557  0.6206  1.6772
   24DG      H8  537   2.612   2.309   5.063 -3.0710  1.3046  0.1373
   24DG      O9  538   3.260   2.420   5.114 -0.0484 -0.4424  0.1116
   24DG     O10  539   2.782   2.364   4.944 -0.0573 -0.0312  0.0941
   24DG     C11  540   3.265   2.521   5.014  0.3000  0.0366 -0.1814
   24DG     C12  541   2.813   2.440   4.830  0.4527 -0.7267  0.4036
   24DG     H13  542   3.371   2.532   4.992  0.1018  1.6858 -0.4498
   24DG     H14  543   3.231   2.615   5.058  0.2046 -0.1160  0.0696
   24DG     H15  544   2.783   2.542   4.856  0.8578 -0.8859  1.5761
   24DG     H16  545   2.754   2.410   4.744  1.8711 -1.9825 -0.1660
   24DG     C17  546   3.184   2.491   4.885 -0.3964 -1.0257 -0.1135
   24DG     C18  547   2.959   2.432   4.799  0.3830 -0.4265  0.1389
   24DG     O19  548   3.046   2.456   4.912 -0.5801  0.1051  0.0457
   24DG     H20  549   3.235   2.416   4.825 -2.4054 -1.3737 -1.4943
   24DG     H21  550   3.178   2.577   4.817 -0.0472 -1.5247 -0.7932
   24DG     H22  551   2.974   2.331   4.760 -0.9062 -0.8710  0.7265
   24DG     H23  552   2.973   2.501   4.716 -2.0001  0.6987  0.5871
   25DG      C1  553   2.377   4.828   1.125  0.1024 -0.1051 -0.1196
   25DG      C2  554   2.588   4.322   1.527 -0.6936  0.7128  0.3614
   25DG      H3  555   2.361   4.857   1.021 -1.0695  0.1701  0.1234
   25DG      H4  556   2.414   4.923   1.165  1.0553  0.4003 -2.0468
   25DG      H5  557   2.278   4.804   1.165  1.0896 -2.0490  1.3077
   25DG      H6  558   2.640   4.384   1.601  1.8950  1.0791 -1.6387
   25DG      H7  559   2.480   4.325   1.539 -0.8250 -1.1634 -0.1272
   25DG      H8  560   2.626   4.223   1.550 -0.7736  0.4684 -0.5581
   25DG      O9  561   2.458   4.707   1.137 -0.2220  0.0917  0.3003
   25DG     O10  562   2.629   4.351   1.396 -0.1614 -0.0704  0.5003
   25DG     C11  563   2.585   4.726   1.084 -1.2621  0.1621 -0.4153
   25DG     C12  564   2.768   4.364   1.359  0.5275  0.6358  0.4543
   25DG     H13  565   2.637   4.801   1.142  0.9613 -1.2057 -0.5165
   25DG     H14  566   2.583   4.754   0.979 -0.0982  1.4874 -0.1083
   25DG     H15  567   2.824   4.271   1.371  0.9687  0.8236 -0.0546
   25DG     H16  568   2.813   4.424   1.438  0.8357  0.7630  0.1870
   25DG     C17  569   2.671   4.597   1.080 -0.1441  0.1622  0.1742
   25DG     C18  570   2.772   4.429   1.222  0.2997  0.2410 -0.9904
   25DG     O19  571   2.675   4.536   1.207 -0.5100 -0.5892 -0.5160
   25DG     H20  572   2.773   4.616   1.046 -0.3572  0.4394 -0.3081
   25DG     H21  573   2.625   4.529   1.009  0.1466 -0.6823  0.7793
   25DG     H22  574   2.871   4.464   1.191  0.7132 -0.3638 -0.3595
   25DG     H23  575   2.731   4.364   1.145  0.6589 -0.7149 -0.3873
   26DG      C1  576   2.845   0.311   1.217  0.1409  0.7891  0.5388
   26DG      C2  577   2.480  -0.313   1.548  0.0535  0.2527  0.1536
   26DG      H3  578   2.807   0.404   1.260 -0.9688  1.3068 -1.4017
   26DG      H4  579   2.822   0.289   1.112 -0.9197  0.3737  0.8518
   26DG      H5  580   2.949   0.344   1.211 -0.1231  2.2227  2.8500
   26DG      H6  581   2.467  -0.420   1.530 -0.4816  0.4183 -0.4716
   26DG      H7  582   2.441  -0.279   1.644 -0.9430 -2.0109  0.5993
   26DG      H8  583   2.410  -0.275   1.473  0.9634 -2.5983 -2.3443
   26DG      O9  584   2.838   0.189   1.295 -0.1002 -0.2101 -0.5145
   26DG     O10  585   2.607  -0.252   1.540  0.4019 -0.7030 -0.5245
   26DG     C11  586   2.709   0.147   1.324 -0.7733 -0.2406  0.2318
   26DG     C12  587   2.676  -0.290   1.422  0.0685 -0.0516 -0.6843
   26DG     H13  588   2.656   0.147   1.228  0.7685  2.4392 -0.7455
   26DG     H14  589   2.660   0.220   1.388 -0.9052 -1.5614  1.6810
   26DG     H15  590   2.605  -0.296   1.339  0.1107  2.1569 -0.9405
   26DG     H16  591   2.719  -0.387   1.444  2.4416  1.6267  2.8375
   26DG     C17  592   2.721   0.017   1.404  0.4074 -0.4065  0.7091
   26DG     C18  593   2.795  -0.203   1.384  0.1465 -0.5343  0.2603
   26DG     O19  594   2.761  -0.082   1.312 -0.2857 -0.0573 -0.4988
   26DG     H20  595   2.626  -0.015   1.446 -0.5811 -0.7649 -1.6249
   26DG     H21  596   2.783   0.038   1.491  1.2320  0.7886 -0.1494
   26DG     H22  597   2.861  -0.187   1.470  1.0587  1.9182 -0.8135
   26DG     H23  598   2.855  -0.266   1.318  0.5975  1.2013 -1.0787
   27DG      C1  599   0.431   0.760   2.946 -0.5247 -0.2673  0.0377
   27DG      C2  600  -0.160   0.790   2.411  0.1003 -0.3322  0.3558
   27DG      H3  601   0.357   0.731   3.021 -3.6715  3.2402 -1.4029
   27DG      H4  602   0.520   0.795   2.999 -0.7541 -0.1015  0.3149
   27DG      H5  603   0.451   0.666   2.895 -1.8228 -1.6058  1.8359
   27DG      H6  604  -0.178   0.799   2.304  1.5298  0.4434  0.1474
   27DG      H7  605  -0.078   0.719   2.415  0.8048  0.4969  0.8067
   27DG      H8  606  -0.252   0.763   2.464  0.0144 -1.9319 -0.5463
   27DG      O9  607   0.384   0.863   2.863  0.5286  0.2329  0.2223
   27DG     O10  608  -0.108   0.907   2.472  0.0951 -0.8040  0.1734
   27DG     C11  609   0.250   0.855   2.817  0.3085 -0.2468  0.2184
   27DG     C12  610   0.015   0.960   2.415  0.2522 -0.2812  0.2072
   27DG     H13  611   0.177   0.868   2.897 -0.5873 -0.9026 -0.4782
   27DG     H14  612   0.232   0.755   2.777 -2.3012  0.4154 -0.4373
   27DG     H15  613  -0.009   1.040   2.345  0.0209  0.8516  1.5348
   27DG     H16  614   0.076   0.881   2.373 -1.1934 -1.4489  0.2433
   27DG     C17  615   0.226   0.955   2.709 -0.1377  0.4633 -0.3794
   27DG     C18  616   0.096   1.028   2.529 -0.1910 -0.5665 -0.1398
   27DG     O19  617   0.114   0.916   2.622  0.0100 -0.0856 -0.8534
   27DG     H20  618   0.313   0.970   2.644 -0.2416 -1.9421 -1.1608
   27DG     H21  619   0.203   1.056   2.744 -1.4575  0.6196 -1.6251
   27DG     H22  620   0.188   1.075   2.493 -0.5055  2.2757  2.3880
   27DG     H23  621   0.034   1.107   2.572  0.6255  0.2395 -0.4153
   28DG      C1  622   2.583   3.888   3.305 -0.2436 -0.0948 -0.2881
   28DG      C2  623   2.745   3.305   3.532 -0.2282  1.1215  0.1494
   28DG      H3  624   2.648   3.964   3.260 -2.4643  1.0488 -1.7232
   28DG      H4  625   2.604   3.879   3.411 -2.2264 -2.6747 -0.0321
   28DG      H5  626   2.481   3.926   3.296 -0.2446 -0.1280 -0.4326
   28DG      H6  627   2.768   3.372   3.615  1.3630 -2.2248  2.6706
   28DG      H7  628   2.668   3.234   3.563  3.4108 -2.8295  1.1550
   28DG      H8  629   2.830   3.242   3.505 -2.0172 -0.9507 -0.9479
   28DG      O9  630   2.600   3.762   3.247  0.0516 -0.0094  0.4513
   28DG     O10  631   2.708   3.380   3.420 -0.4970 -0.6910 -0.4468
   28DG     C11  632   2.505   3.728   3.151 -0.1018  0.5263 -1.2251
   28DG     C12  633   2.636   3.313   3.325 -0.4841  0.0493 -0.1208
   28DG     H13  634   2.501   3.801   3.070 -0.8018  2.7653  0.7099
   28DG     H14  635   2.406   3.723   3.196  0.2311  4.4910  0.3806
   28DG     H15  636   2.536   3.305   3.368 -1.2664  2.7208 -1.1998
   28DG     H16  637   2.672   3.213   3.301  2.6415  1.6978 -3.1083
   28DG     C17  638   2.542   3.586   3.107 -0.1934 -0.1370  1.0306
   28DG     C18  639   2.611   3.384   3.194  0.5055  0.7927 -0.2421
   28DG     O19  640   2.564   3.511   3.226 -0.2084 -0.1154 -0.2186
   28DG     H20  641   2.634   3.578   3.049 -0.5379  1.2513  0.2365
   28DG     H21  642   2.458   3.542   3.052  0.7569  0.3290 -0.8982
   28DG     H22  643   2.711   3.388   3.151  1.4473 -4.8109  0.7322
   28DG     H23  644   2.545   3.323   3.133  2.8158 -0.9427 -1.1516
   29DG      C1  645   0.734   2.662   1.007 -0.3108 -0.0656 -0.1451
   29DG      C2  646   0.360   2.057   0.914  0.7650 -0.2882  0.0571
   29DG      H3  647   0.721   2.748   0.941  1.0854 -0.3197 -0.7974
   29DG      H4  648   0.842   2.650   1.019  0.0290  0.8184 -1.9527
   29DG      H5  649   0.693   2.701   1.100 -0.1811  3.1117 -1.2815
   29DG      H6  650   0.261   2.039   0.873  0.3926 -1.1190  1.2743
   29DG      H7  651   0.406   1.958   0.916 -0.2209 -0.8754 -2.7855
   29DG      H8  652   0.338   2.085   1.017 -0.3791 -0.2254 -0.1968
   29DG      O9  653   0.678   2.547   0.960 -0.7039  0.3908  0.0834
   29DG     O10  654   0.444   2.149   0.839  0.0737  0.8792 -0.6019
   29DG     C11  655   0.746   2.476   0.856  0.1317  0.3639 -0.4943
   29DG     C12  656   0.366   2.266   0.811 -0.2041  0.6091  0.7586
   29DG     H13  657   0.835   2.434   0.901  0.5079  1.3907 -0.2556
   29DG     H14  658   0.765   2.548   0.777  1.0147  0.7296  0.0411
   29DG     H15  659   0.336   2.312   0.905  1.0860  4.2118 -0.4334
   29DG     H16  660   0.284   2.230   0.750  0.3019  0.5020  0.1287
   29DG     C17  661   0.653   2.368   0.802  0.4841  0.3407 -0.6025
   29DG     C18  662   0.440   2.361   0.711  0.0027 -0.4858 -0.6221
   29DG     O19  663   0.535   2.437   0.787  0.6357  0.0403 -0.3906
   29DG     H20  664   0.637   2.287   0.874 -2.8241 -0.0134 -1.5761
   29DG     H21  665   0.699   2.328   0.711  0.5065 -0.5369 -0.2157
   29DG     H22  666   0.478   2.314   0.620  0.6052 -1.5477  0.1579
   29DG     H23  667   0.367   2.432   0.673  0.0057 -0.9755 -1.5701
   30DG      C1  668   5.358   4.303   3.831 -0.5481  0.7957 -0.3452
   30DG      C2  669   5.835   3.876   4.079  0.0873 -0.2648  0.1077
   30DG      H3  670   5.267   4.249   3.803  0.1793 -1.9040  1.9707
   30DG      H4  671   5.350   4.401   3.784 -0.0049  0.6099 -0.8465
   30DG      H5  672   5.361   4.304   3.940  1.4274  0.5893 -0.3548
   30DG      H6  673   5.765   3.821   4.141 -0.7676  0.5926 -0.0786
   30DG      H7  674   5.881   3.805   4.010  1.2316  1.2608 -0.7775
   30DG      H8  675   5.910   3.903   4.153 -1.5885 -0.2558  1.8780
   30DG      O9  676   5.466   4.230   3.774 -0.9485  0.2213 -0.4427
   30DG     O10  677   5.761   3.978   4.026 -0.4645  0.2072  0.9503
   30DG     C11  678   5.588   4.299   3.771  0.4533 -0.4454  0.8749
   30DG     C12  679   5.693   4.060   4.117 -0.6982 -0.2617  0.3504
   30DG     H13  680   5.577   4.380   3.698 -0.2384 -1.9106 -0.7287
   30DG     H14  681   5.660   4.235   3.721 -0.2029  1.7737 -3.4023
   30DG     H15  682   5.757   4.100   4.195 -0.2691  1.2502 -0.7423
   30DG     H16  683   5.613   4.001   4.161 -1.4189  0.8808  0.6270
   30DG     C17  684   5.656   4.359   3.903  0.1852 -0.1617  0.0159
   30DG     C18  685   5.626   4.173   4.046 -0.2404 -1.1662 -0.8996
   30DG     O19  686   5.723   4.250   3.970  0.3788 -0.3889 -0.4381
   30DG     H20  687   5.596   4.422   3.969  0.8352 -1.1553  1.6091
   30DG     H21  688   5.741   4.422   3.876  0.1820 -0.4270 -0.6287
   30DG     H22  689   5.545   4.132   3.985 -0.6397 -0.3261 -0.9460
   30DG     H23  690   5.572   4.238   4.115 -1.1113 -2.7170 -0.0601
   31DG      C1  691   4.159   4.601   1.995 -0.4571  0.4698  0.1471
   31DG      C2  692   3.516   4.932   2.015 -0.0692  0.4660 -0.0683
   31DG      H3  693   4.243   4.555   1.942  0.2216  1.1916  0.5894
   31DG      H4  694   4.112   4.535   2.068 -2.5983  0.9395 -0.7246
   31DG      H5  695   4.210   4.677   2.054 -0.9125  0.5261  0.4708
   31DG      H6  696   3.558   5.030   2.039  2.6242 -0.4983 -0.5763
   31DG      H7  697   3.421   4.950   1.965 -1.1820 -1.9132  1.0546
   31DG      H8  698   3.504   4.883   2.112  0.4383 -0.7721 -0.6191
   31DG      O9  699   4.057   4.642   1.917 -0.1222  0.4333  0.7256
   31DG     O10  700   3.611   4.862   1.937 -0.3435 -0.6951 -0.1535
   31DG     C11  701   4.104   4.752   1.837  0.5750 -0.5402 -0.4075
   31DG     C12  702   3.658   4.935   1.820  0.2709  0.7909  0.2027
   31DG     H13  703   4.183   4.731   1.766  0.3630 -0.2400 -0.7388
   31DG     H14  704   4.144   4.833   1.899 -2.5092  1.7305 -1.0888
   31DG     H15  705   3.710   5.020   1.863  2.2713  0.3695 -1.2364
   31DG     H16  706   3.578   4.962   1.751  0.6054 -0.2399 -0.6192
   31DG     C17  707   3.991   4.806   1.757 -0.6079 -0.6074  0.8004
   31DG     C18  708   3.765   4.848   1.744  0.2611  0.2611 -0.7279
   31DG     O19  709   3.876   4.826   1.831  0.4096 -0.4982 -0.0259
   31DG     H20  710   3.970   4.731   1.681  0.4833 -1.1618  1.0264
   31DG     H21  711   4.012   4.904   1.714  0.6827 -0.9448  0.6327
   31DG     H22  712   3.732   4.749   1.716  2.5571 -0.8612  0.2347
   31DG     H23  713   3.791   4.893   1.648  1.3863  0.9804 -0.1105
   32DG      C1  714   4.015   5.325   5.010  0.0584  0.8632  0.0364
   32DG      C2  715   3.695   5.025   5.467 -0.4848  0.6245  0.2417
   32DG      H3  716   3.919   5.374   5.029  0.9039  2.5914  0.0028
   32DG      H4  717   4.005   5.300   4.904 -3.8109  0.2685  0.3971
   32DG      H5  718   4.101   5.389   5.028  1.0742 -0.4804  0.1358
   32DG      H6  719   3.614   5.096   5.447 -1.0551  0.7272  2.5553
   32DG      H7  720   3.637   4.933   5.477 -1.0034  0.8847 -0.2673
   32DG      H8  721   3.732   5.044   5.568  0.8436 -0.1761 -0.0846
   32DG      O9  722   4.020   5.205   5.089  0.5012 -0.3460  0.5058
   32DG     O10  723   3.798   5.021   5.369 -0.0109  0.2995  0.8875
   32DG     C11  724   4.140   5.131   5.073  0.3764 -0.3848  0.0976
   32DG     C12  725   3.894   4.911   5.378  0.3690 -0.5612 -0.2352
   32DG     H13  726   4.232   5.175   5.036  1.3764 -2.7779 -0.5005
   32DG     H14  727   4.111   5.046   5.010  1.0103 -0.3405 -0.2569
   32DG     H15  728   3.843   4.815   5.369  0.1246 -0.3274 -1.6560
   32DG     H16  729   3.930   4.913   5.480 -0.0270 -2.2316 -0.0256
   32DG     C17  730   4.188   5.077   5.204 -0.1757  0.1850  0.4007
   32DG     C18  731   4.006   4.932   5.273  0.0049  1.1264  0.5516
   32DG     O19  732   4.073   5.057   5.285 -0.0801 -0.4913  0.3619
   32DG     H20  733   4.251   5.150   5.255  0.6999 -0.7598  0.6937
   32DG     H21  734   4.246   4.985   5.205 -0.0530  0.2553 -0.1465
   32DG     H22  735   4.085   4.866   5.309  0.2837  1.4102  0.4622
   32DG     H23  736   3.968   4.906   5.174  0.2551  1.8525  0.2608
   33DG      C1  737   0.782   5.405   0.506 -0.7229  0.1746 -0.1281
   33DG      C2  738   0.933   5.164   1.096 -0.3324 -0.3182  0.6319
   33DG      H3  739   0.773   5.493   0.442 -2.1556  1.3694  1.6038
   33DG      H4  740   0.694   5.341   0.500  0.2113 -1.0186 -1.5861
   33DG      H5  741   0.863   5.346   0.464  1.3143  2.8437 -0.2172
   33DG      H6  742   1.037   5.181   1.067  0.0389 -0.8823  1.5913
   33DG      H7  743   0.910   5.146   1.201 -0.9495 -0.3677  0.4946
   33DG      H8  744   0.904   5.076   1.038  2.3339 -0.4955 -0.5684
   33DG      O9  745   0.811   5.457   0.636 -0.0424  1.0240 -0.3718
   33DG     O10  746   0.860   5.276   1.055  0.3496  0.5564 -0.1710
   33DG     C11  747   0.705   5.533   0.689  0.4911 -0.5277  0.3107
   33DG     C12  748   0.882   5.395   1.120  0.0633  0.1810  0.1939
   33DG     H13  749   0.605   5.489   0.691  0.2341 -0.0036 -0.3232
   33DG     H14  750   0.697   5.620   0.622 -0.5530 -2.2630 -1.9745
   33DG     H15  751   0.985   5.432   1.127  0.0216  0.2869  0.2571
   33DG     H16  752   0.837   5.397   1.219 -0.5749  0.1656 -0.0916
   33DG     C17  753   0.722   5.575   0.829 -1.1401  0.6366  0.5010
   33DG     C18  754   0.802   5.506   1.044  0.1612  0.2998  0.4525
   33DG     O19  755   0.772   5.472   0.908  0.6755  0.2832  0.2701
   33DG     H20  756   0.631   5.604   0.882 -1.0190  0.2938  0.8999
   33DG     H21  757   0.796   5.655   0.826  1.2196 -1.4654 -0.9799
   33DG     H22  758   0.710   5.524   1.098  0.4183 -1.4041  1.5628
   33DG     H23  759   0.852   5.603   1.048  1.6615 -0.4178 -0.0375
   34DG      C1  760   0.266   3.751   1.051  0.7910  0.4104 -0.3055
   34DG      C2  761  -0.348   4.135   1.258  0.3272  0.7506  0.2084
   34DG      H3  762   0.290   3.672   0.979  0.4427  1.0731 -1.1602
   34DG      H4  763   0.356   3.765   1.110  0.3765  0.0202  0.4273
   34DG      H5  764   0.244   3.847   1.005 -4.3028 -0.9325 -1.3436
   34DG      H6  765  -0.348   4.187   1.354  0.4320 -0.3572  0.8218
   34DG      H7  766  -0.261   4.172   1.203  0.0028  2.2925  0.6706
   34DG      H8  767  -0.436   4.177   1.210  1.4294  1.0028 -1.6943
   34DG      O9  768   0.150   3.711   1.127  0.4677  0.1937  0.3545
   34DG     O10  769  -0.342   3.997   1.276 -0.7770  0.0483 -0.1881
   34DG     C11  770   0.025   3.702   1.057  0.8933  0.2765 -0.8193
   34DG     C12  771  -0.244   3.952   1.362 -0.6888  0.3200 -0.5857
   34DG     H13  772   0.015   3.617   0.990  0.9859 -1.7482  1.6043
   34DG     H14  773   0.004   3.791   0.996  0.0800  0.2228 -0.6336
   34DG     H15  774  -0.302   3.946   1.455  1.4425 -1.4586  0.7313
   34DG     H16  775  -0.159   4.019   1.367  1.3306 -1.9679 -2.0770
   34DG     C17  776  -0.084   3.692   1.161  0.6851  0.1415 -0.0102
   34DG     C18  777  -0.200   3.806   1.338 -0.1824  0.0719  0.2772
   34DG     O19  778  -0.085   3.805   1.250  0.1831  0.5117 -0.0132
   34DG     H20  779  -0.066   3.596   1.210  2.0625  0.3552 -0.0719
   34DG     H21  780  -0.176   3.692   1.102  1.9479 -1.0273 -2.0899
   34DG     H22  781  -0.172   3.756   1.431  2.3646 -1.6919 -1.3179
   34DG     H23  782  -0.288   3.765   1.288 -1.4316  1.2623  1.4000
   35DG      C1  783   3.087   4.437   5.173 -0.1581  0.1428 -0.0222
   35DG      C2  784   2.637   4.609   4.794  0.0101 -0.0648 -0.6097
   35DG      H3  785   3.170   4.456   5.105 -0.3158 -3.0209 -1.2706
   35DG      H4  786   3.026   4.359   5.128  0.6509 -0.4116 -0.1725
   35DG      H5  787   3.118   4.399   5.270 -0.3838 -2.2898 -0.8420
   35DG      H6  788   2.627   4.501   4.784  2.7666 -0.5867  1.1265
   35DG      H7  789   2.543   4.648   4.832  0.3920  1.7357 -1.3655
   35DG      H8  790   2.635   4.643   4.690  0.8516  0.8069 -0.3556
   35DG      O9  791   3.005   4.547   5.170  0.3211 -0.5022  0.5676
   35DG     O10  792   2.750   4.653   4.862  0.0266  0.0615  0.5144
   35DG     C11  793   3.056   4.668   5.230  0.1986 -0.8197 -0.0825
   35DG     C12  794   2.748   4.795   4.896  0.4202  0.5945 -0.5794
   35DG     H13  795   3.164   4.661   5.238  0.3688  1.6241  0.4009
   35DG     H14  796   3.030   4.668   5.336  1.2153 -0.5716  0.1766
   35DG     H15  797   2.663   4.809   4.964  0.5349  4.4862 -0.9820
   35DG     H16  798   2.709   4.837   4.803 -0.4833  2.5275  0.5883
   35DG     C17  799   3.006   4.789   5.152  0.5261  0.0121 -0.1405
   35DG     C18  800   2.873   4.849   4.969  0.1203  0.2269 -0.2524
   35DG     O19  801   2.905   4.746   5.061  0.0634 -0.6664 -0.2594
   35DG     H20  802   3.092   4.827   5.096  0.8309  1.1923  1.0687
   35DG     H21  803   2.979   4.869   5.220 -0.5319 -0.8533  0.4781
   35DG     H22  804   2.957   4.875   4.905  0.2566 -1.3410 -0.7656
   35DG     H23  805   2.847   4.943   5.018  0.2290  0.0003  0.2425
   36DG      C1  806   1.209   0.938   0.852 -0.2831  0.7078 -0.7739
   36DG      C2  807   1.822   1.034   0.562  0.0696 -0.2580  0.0943
   36DG      H3  808   1.202   0.838   0.808 -1.5972 -0.2051  1.3523
   36DG      H4  809   1.102   0.945   0.871  0.4755  1.8132  4.6865
   36DG      H5  810   1.261   0.934   0.947  1.3280  0.4872 -1.6322
   36DG      H6  811   1.891   1.096   0.504 -2.4390  1.6426 -1.0281
   36DG      H7  812   1.855   1.012   0.663 -0.7631 -1.0413  0.2049
   36DG      H8  813   1.817   0.944   0.501 -2.4871  0.9038 -1.5590
   36DG      O9  814   1.264   1.038   0.767  0.0079  0.1770  0.4629
   36DG     O10  815   1.692   1.091   0.564 -0.7485 -0.1853 -0.2842
   36DG     C11  816   1.190   1.068   0.647  0.0902 -0.6313 -0.2398
   36DG     C12  817   1.625   1.089   0.433 -0.7345 -0.1219 -0.1034
   36DG     H13  818   1.094   1.112   0.676  0.0128 -1.5967  1.0743
   36DG     H14  819   1.169   0.978   0.590 -1.0083 -0.4807 -0.0967
   36DG     H15  820   1.608   0.983   0.416  2.1694 -0.2819 -3.2639
   36DG     H16  821   1.692   1.127   0.355 -1.7003  2.7850  0.3692
   36DG     C17  822   1.277   1.161   0.563 -0.4400 -0.3444  0.0244
   36DG     C18  823   1.486   1.153   0.437 -0.2317 -0.3582  0.1793
   36DG     O19  824   1.411   1.111   0.549 -0.1652  0.0854  0.3681
   36DG     H20  825   1.292   1.259   0.609  1.2014 -1.4767  2.1049
   36DG     H21  826   1.230   1.188   0.469 -2.0350  1.2603  1.1958
   36DG     H22  827   1.485   1.261   0.445  0.2543 -0.3703  0.4616
   36DG     H23  828   1.434   1.129   0.344  0.3242  1.4205 -0.6179
   37DG      C1  829   0.366   0.156   4.019  0.5914  0.0880 -0.5482
   37DG      C2  830   0.685  -0.397   4.260 -0.3542  0.1866  0.4167
   37DG      H3  831   0.370   0.189   4.123 -2.9016 -0.5088 -0.1027
   37DG      H4  832   0.273   0.100   4.014  0.2257  0.7909 -2.4923
   37DG      H5  833   0.351   0.254   3.975  0.0413  0.7616  1.0761
   37DG      H6  834   0.722  -0.463   4.182  1.4746 -0.1689  1.5274
   37DG      H7  835   0.756  -0.412   4.342  0.1892 -0.6664 -0.1963
   37DG      H8  836   0.584  -0.425   4.290 -1.0885  1.4267 -0.8033
   37DG      O9  837   0.476   0.082   3.973 -0.5015  0.6316 -0.6713
   37DG     O10  838   0.678  -0.271   4.208 -0.2625 -0.6921  0.3441
   37DG     C11  839   0.595   0.159   3.976 -0.3679  0.1416  0.2718
   37DG     C12  840   0.802  -0.222   4.168 -0.0595 -0.4044 -0.4056
   37DG     H13  841   0.608   0.211   4.071 -1.2650  1.8136 -0.4700
   37DG     H14  842   0.586   0.229   3.892 -0.0709  0.2392  0.3209
   37DG     H15  843   0.827  -0.276   4.076 -1.1305 -0.0395 -0.9170
   37DG     H16  844   0.872  -0.244   4.249 -0.7419 -1.3447 -0.0547
   37DG     C17  845   0.710   0.064   3.955  0.1520  0.2215  0.1727
   37DG     C18  846   0.795  -0.074   4.136 -0.8034 -0.1044 -0.3393
   37DG     O19  847   0.709  -0.059   4.018 -0.7529 -0.5217 -0.1665
   37DG     H20  848   0.806   0.113   3.971 -0.1552  0.8489  0.1283
   37DG     H21  849   0.717   0.033   3.851 -3.4950 -0.9321  0.1447
   37DG     H22  850   0.760  -0.018   4.223 -1.8783 -0.2053 -0.6972
   37DG     H23  851   0.895  -0.036   4.114  0.5063 -1.4234  2.7066
   38DG      C1  852   1.748   2.842   5.326  0.6940  0.5143 -0.4355
   38DG      C2  853   1.476   2.672   5.815  0.3134  0.5044  0.0390
   38DG      H3  854   1.750   2.797   5.425  0.1324 -0.9515 -1.0646
   38DG      H4  855   1.814   2.928   5.332 -0.0437  1.1003 -0.5926
   38DG      H5  856   1.772   2.758   5.261 -1.3328 -3.0533  3.0063
   38DG      H6  857   1.507   2.573   5.782  1.3939  1.1779 -1.0953
   38DG      H7  858   1.569   2.718   5.851  1.8031 -0.5850 -2.1953
   38DG      H8  859   1.403   2.663   5.895  1.1103  1.8876  0.9648
   38DG      O9  860   1.611   2.869   5.285 -0.4817  0.0070 -0.5913
   38DG     O10  861   1.413   2.736   5.701 -0.0693 -0.8448  0.0836
   38DG     C11  862   1.566   2.995   5.312  0.5591 -0.0059  0.1364
   38DG     C12  863   1.365   2.866   5.731 -0.2502  0.3195  0.1135
   38DG     H13  864   1.470   3.022   5.268  0.2029  0.0190  0.9183
   38DG     H14  865   1.632   3.072   5.272 -0.0787  0.4784  0.0094
   38DG     H15  866   1.339   2.870   5.837  0.9039 -0.7483  0.4610
   38DG     H16  867   1.272   2.878   5.675 -0.3925  2.3175  0.7135
   38DG     C17  868   1.565   3.027   5.462  0.1778 -0.7608  0.1755
   38DG     C18  869   1.467   2.968   5.668 -0.2450  0.0737  0.4812
   38DG     O19  870   1.478   2.947   5.528 -0.2855  0.1165 -0.3119
   38DG     H20  871   1.543   3.133   5.473  4.2088  0.3595 -0.7784
   38DG     H21  872   1.668   3.023   5.499  0.8726 -0.3209 -1.6309
   38DG     H22  873   1.431   3.069   5.689  0.5461  1.3137 -3.2501
   38DG     H23  874   1.567   2.962   5.711  0.5160  2.8220 -0.6539
   39DG      C1  875   3.337   5.094   2.902  0.0764  0.3814  0.3162
   39DG      C2  876   3.158   4.982   3.594 -0.0787  0.9052 -0.2174
   39DG      H3  877   3.327   4.985   2.894  0.0495  0.5049 -2.1917
   39DG      H4  878   3.429   5.117   2.849  1.5050 -3.2113  0.9322
   39DG      H5  879   3.244   5.139   2.869  1.0703  2.1065 -0.2509
   39DG      H6  880   3.057   5.021   3.599 -0.1213  0.6199  1.9457
   39DG      H7  881   3.134   4.877   3.577 -0.0844  0.8455  0.1615
   39DG      H8  882   3.206   4.991   3.691  1.2210  1.6558 -0.8891
   39DG      O9  883   3.370   5.121   3.038  0.2649  0.2734  0.2010
   39DG     O10  884   3.244   5.044   3.502  0.3162  0.3679 -0.1703
   39DG     C11  885   3.376   5.258   3.064 -0.3370 -0.5113  0.6943
   39DG     C12  886   3.284   5.176   3.539  0.6915  0.2648 -0.4793
   39DG     H13  887   3.277   5.301   3.048  0.5126  1.1325 -0.3928
   39DG     H14  888   3.438   5.322   3.001 -0.1624  1.0784  2.3916
   39DG     H15  889   3.341   5.167   3.632  1.0321 -1.2406 -0.7987
   39DG     H16  890   3.205   5.247   3.563 -1.1504 -1.6049 -0.7787
   39DG     C17  891   3.413   5.290   3.208 -0.0097  0.1302 -0.9829
   39DG     C18  892   3.383   5.238   3.435  0.4889 -0.6961 -0.1149
   39DG     O19  893   3.335   5.225   3.302 -0.0561  0.0117 -0.6657
   39DG     H20  894   3.413   5.399   3.218 -0.1166  0.0655 -0.2073
   39DG     H21  895   3.517   5.263   3.225 -0.4285 -1.2692 -0.5725
   39DG     H22  896   3.395   5.344   3.454 -2.5407  0.1463 -2.0455
   39DG     H23  897   3.482   5.195   3.450  0.1676 -1.8998 -1.2387
   40DG      C1  898   4.336   0.218   0.829  0.4832  0.1538 -0.6290
   40DG      C2  899   4.064   0.629   0.272  0.0173 -0.5787 -0.0835
   40DG      H3  900   4.343   0.130   0.765  2.0819 -0.8731  0.8770
   40DG      H4  901   4.237   0.224   0.873  0.7509 -1.2126  0.2121
   40DG      H5  902   4.397   0.211   0.919 -2.9418 -0.9786  1.7957
   40DG      H6  903   3.983   0.701   0.283  1.4083  0.8974  0.9109
   40DG      H7  904   4.119   0.652   0.180 -0.2175 -3.5334 -1.0693
   40DG      H8  905   4.028   0.526   0.264 -1.6445  0.1046 -3.0140
   40DG      O9  906   4.366   0.334   0.750  0.4829  0.8984 -0.2230
   40DG     O10  907   4.144   0.667   0.379 -0.3114  0.4569 -0.0711
   40DG     C11  908   4.353   0.460   0.807  0.4339 -0.1647 -0.0097
   40DG     C12  909   4.270   0.602   0.369  0.1074 -0.6557 -0.4181
   40DG     H13  910   4.409   0.472   0.900 -0.2727  0.4573  0.3471
   40DG     H14  911   4.247   0.465   0.832 -0.1950  1.5815 -2.6702
   40DG     H15  912   4.311   0.642   0.276 -1.9783  1.0514 -0.6788
   40DG     H16  913   4.245   0.496   0.368 -0.7040 -0.4725 -0.9862
   40DG     C17  914   4.403   0.570   0.708  0.0342 -0.1884  0.0611
   40DG     C18  915   4.359   0.637   0.487 -0.1828 -0.3522  0.2449
   40DG     O19  916   4.317   0.558   0.596 -0.1433  0.0461  0.9403
   40DG     H20  917   4.504   0.542   0.676 -0.9348 -2.1127 -1.5606
   40DG     H21  918   4.404   0.676   0.734 -0.9967 -0.7154  2.4038
   40DG     H22  919   4.461   0.612   0.459 -1.0348 -2.2875 -1.4236
   40DG     H23  920   4.342   0.743   0.509 -2.2810 -0.6465  0.3017
   41DG      C1  921   2.801   4.249   4.862 -0.1394 -0.8160  0.3334
   41DG      C2  922   2.576   4.814   5.283 -0.3752  0.1551  0.2972
   41DG      H3  923   2.841   4.152   4.892  2.0203  0.6623  2.6260
   41DG      H4  924   2.891   4.310   4.862 -0.1183 -0.7811 -1.4395
   41DG      H5  925   2.766   4.264   4.760  1.1703  0.4991  0.0421
   41DG      H6  926   2.529   4.785   5.377 -0.8878  0.2467  0.0745
   41DG      H7  927   2.677   4.841   5.315  0.1089 -0.1565 -0.9273
   41DG      H8  928   2.528   4.905   5.246  3.2711  0.9162 -3.1550
   41DG      O9  929   2.719   4.309   4.964  0.0511 -0.2924 -0.0847
   41DG     O10  930   2.582   4.702   5.192 -0.4835 -0.0042 -0.0487
   41DG     C11  931   2.598   4.229   4.987  0.1790 -0.7057 -0.0644
   41DG     C12  932   2.450   4.665   5.143  0.7057  0.0739  0.2350
   41DG     H13  933   2.624   4.130   5.023 -2.0791 -0.9307  1.1122
   41DG     H14  934   2.538   4.212   4.897 -0.3006 -1.6283  0.4162
   41DG     H15  935   2.431   4.707   5.044  0.0432 -1.4618 -0.3262
   41DG     H16  936   2.377   4.706   5.212  1.3287 -1.1601  1.6978
   41DG     C17  937   2.507   4.303   5.085 -0.2132  0.4376  0.1714
   41DG     C18  938   2.433   4.518   5.153 -0.3047  0.2281  0.1997
   41DG     O19  939   2.513   4.443   5.058 -0.3568 -0.1702  0.2628
   41DG     H20  940   2.546   4.284   5.185  0.9703  0.6657 -0.2315
   41DG     H21  941   2.403   4.270   5.081 -0.4489  1.2445 -2.0171
   41DG     H22  942   2.460   4.502   5.258 -0.1600  3.3058  0.7512
   41DG     H23  943   2.328   4.491   5.147 -0.5333  1.0459  0.3381
   42DG      C1  944   4.524   5.279   5.173  1.3329 -0.3148 -0.0233
   42DG      C2  945   4.306   6.003   5.486 -0.9225  0.2241 -0.3433
   42DG      H3  946   4.527   5.235   5.272 -2.0278  0.8533  0.7429
   42DG      H4  947   4.615   5.339   5.166  0.6889  0.6801 -0.0634
   42DG      H5  948   4.529   5.199   5.099 -1.8997 -0.1934 -0.5172
   42DG      H6  949   4.412   6.029   5.478 -1.0365  0.7699 -0.1119
   42DG      H7  950   4.248   6.093   5.467 -0.8775  0.0535 -1.3148
   42DG      H8  951   4.287   5.964   5.586 -1.2163  0.6148 -0.2444
   42DG      O9  952   4.398   5.347   5.164 -0.1640 -0.0443 -0.0535
   42DG     O10  953   4.278   5.894   5.398 -0.5421 -0.3529  0.1082
   42DG     C11  954   4.389   5.455   5.260  0.0655 -0.6770  1.2405
   42DG     C12  955   4.149   5.832   5.416  0.2953 -0.0792 -0.2867
   42DG     H13  956   4.452   5.535   5.223  1.1128 -2.5693 -1.4150
   42DG     H14  957   4.420   5.419   5.358 -0.1657 -2.5709  0.6762
   42DG     H15  958   4.072   5.908   5.405  0.7974  0.5659  0.5655
   42DG     H16  959   4.132   5.799   5.519 -2.6487  1.2542 -0.2268
   42DG     C17  960   4.245   5.517   5.256  0.1753 -0.8285  0.1528
   42DG     C18  961   4.131   5.717   5.313 -0.4007 -0.3218 -0.3855
   42DG     O19  962   4.235   5.630   5.341  0.0770 -0.5514  0.2185
   42DG     H20  963   4.169   5.446   5.288 -2.0418  0.0341 -2.7404
   42DG     H21  964   4.219   5.551   5.156  0.5592  1.6554  0.8430
   42DG     H22  965   4.041   5.660   5.336 -1.5006  1.3691 -0.3320
   42DG     H23  966   4.128   5.750   5.210 -0.0791 -3.0970 -1.3770
   43DG      C1  967   3.365   1.701   1.324 -0.1445  0.3155  0.0216
   43DG      C2  968   3.426   2.355   0.992  0.6292  0.4747 -0.1379
   43DG      H3  969   3.333   1.603   1.289  1.8487 -0.6868  0.8952
   43DG      H4  970   3.348   1.706   1.431  1.2262  0.1182  0.2583
   43DG      H5  971   3.470   1.699   1.296 -0.3278  1.0926 -0.7919
   43DG      H6  972   3.436   2.342   1.099 -2.4888 -0.7533  0.0997
   43DG      H7  973   3.526   2.369   0.949  0.4601 -1.2446 -1.1971
   43DG      H8  974   3.371   2.448   0.974  0.0963  0.1977  0.0704
   43DG      O9  975   3.293   1.802   1.258 -0.3414 -0.2727  0.0949
   43DG     O10  976   3.361   2.241   0.928 -0.2085 -0.2396 -0.3689
   43DG     C11  977   3.283   1.775   1.118  0.7766  0.7404  0.2293
   43DG     C12  978   3.228   2.222   0.958  0.2687  0.4413 -0.3158
   43DG     H13  979   3.246   1.673   1.109 -1.8194  1.1586  3.8404
   43DG     H14  980   3.379   1.779   1.068  0.4487 -0.0621 -0.4794
   43DG     H15  981   3.174   2.296   0.899 -1.5708 -0.0859  0.5952
   43DG     H16  982   3.218   2.245   1.064 -0.5187 -0.6867 -0.1213
   43DG     C17  983   3.186   1.869   1.045  0.2007  0.3180  0.5790
   43DG     C18  984   3.189   2.075   0.935 -0.1626 -0.3492 -0.2179
   43DG     O19  985   3.234   2.005   1.046  0.1982  0.2503  0.0291
   43DG     H20  986   3.086   1.874   1.088 -1.4736 -0.8661 -2.8285
   43DG     H21  987   3.183   1.827   0.945  2.3082  0.2848  0.4846
   43DG     H22  988   3.080   2.070   0.933 -0.1502 -0.5457 -0.3926
   43DG     H23  989   3.228   2.031   0.843  1.9104 -0.1384  0.4975
   44DG      C1  990   2.129   2.343   1.484  0.6206  0.0649  0.2529
   44DG      C2  991   2.368   2.687   1.275  0.2304  0.2925  0.3009
   44DG      H3  992   2.191   2.287   1.553  0.3103  0.7299  1.0846
   44DG      H4  993   2.175   2.439   1.458  2.3445 -0.0237  2.6949
   44DG      H5  994   2.137   2.288   1.390  1.1234  1.4778 -0.5731
   44DG      H6  995   2.427   2.597   1.255  2.3189  1.9622 -1.6205
   44DG      H7  996   2.320   2.705   1.179  0.8618 -4.9561 -1.3225
   44DG      H8  997   2.431   2.771   1.303  1.2686 -0.5252  0.4706
   44DG      O9  998   1.995   2.356   1.521  0.9779 -0.4019  0.0048
   44DG     O10  999   2.280   2.671   1.389  0.0999 -0.6938 -0.1819
   44DG     C11 1000   1.970   2.434   1.639  0.1614  0.2969 -0.4934
   44DG     C12 1001   2.205   2.796   1.422 -0.0529  0.0682  0.6934
   44DG     H13 1002   2.000   2.373   1.725 -0.1327  1.7174  0.6430
   44DG     H14 1003   1.865   2.455   1.656  0.0561 -2.1484  2.9749
   44DG     H15 1004   2.140   2.835   1.344 -0.1332 -0.1372  0.6575
   44DG     H16 1005   2.266   2.883   1.445  2.0291 -0.0304 -3.5746
   44DG     C17 1006   2.049   2.566   1.658 -0.1520 -0.1514  0.1234
   44DG     C18 1007   2.121   2.782   1.547 -0.2130  0.1868 -0.5947
   44DG     O19 1008   2.043   2.660   1.545 -0.1341  0.7101 -0.2127
   44DG     H20 1009   2.151   2.545   1.689 -0.5359 -2.3796  0.0709
   44DG     H21 1010   2.010   2.612   1.749 -1.7855 -1.6213  0.2209
   44DG     H22 1011   2.175   2.787   1.642 -0.7084 -1.8318 -0.1482
   44DG     H23 1012   2.060   2.872   1.559  0.6506  0.6021  1.1613
   45DG      C1 1013   0.104   5.249   2.928 -0.1253 -0.4733  0.2712
   45DG      C2 1014   0.487   4.649   2.974  0.0188  0.3424 -0.2037
   45DG      H3 1015   0.094   5.311   2.839  1.5526 -0.4170  0.0819
   45DG      H4 1016   0.184   5.296   2.986 -2.8952  1.5727  2.6983
   45DG      H5 1017   0.013   5.256   2.988 -0.2689 -0.0087  0.0034
   45DG      H6 1018   0.540   4.691   3.060  1.2137  0.8179 -1.1531
   45DG      H7 1019   0.453   4.551   3.005 -1.0846  1.9261  4.4253
   45DG      H8 1020   0.548   4.635   2.885  1.8304  2.6030  0.5777
   45DG      O9 1021   0.130   5.113   2.903  0.0132 -0.1883  0.0041
   45DG     O10 1022   0.373   4.730   2.935  0.3640  0.1040  0.0008
   45DG     C11 1023   0.023   5.063   2.816  0.1397  0.6194 -0.6595
   45DG     C12 1024   0.300   4.664   2.838 -0.4325  0.1487  0.2432
   45DG     H13 1025   0.043   5.092   2.713 -0.7289 -0.9090 -1.2834
   45DG     H14 1026  -0.078   5.098   2.836  0.0726 -0.2348  0.6051
   45DG     H15 1027   0.312   4.556   2.850 -0.7976  0.2308  1.6029
   45DG     H16 1028   0.336   4.694   2.740  0.8370  1.8948  1.1961
   45DG     C17 1029   0.012   4.908   2.821  0.6320 -0.3692  0.0616
   45DG     C18 1030   0.151   4.715   2.844  0.8145 -0.3784  0.5958
   45DG     O19 1031   0.141   4.858   2.836  0.8025  0.5985  0.4126
   45DG     H20 1032  -0.045   4.862   2.740  1.1550 -0.8079 -0.0678
   45DG     H21 1033  -0.045   4.899   2.913  0.4862  2.8332  0.3919
   45DG     H22 1034   0.101   4.665   2.760  0.8483  0.1778  0.2392
   45DG     H23 1035   0.088   4.673   2.922 -0.5874 -2.0883 -1.3332
   46DG      C1 1036   1.867   1.436   0.306  0.6352  0.0126 -0.3802
   46DG      C2 1037   2.000   0.586   0.262 -0.5146 -0.3100 -0.2790
   46DG      H3 1038   1.864   1.433   0.415 -1.0028  0.1125 -0.4105
   46DG      H4 1039   1.767   1.457   0.268  0.9468  0.6656 -0.8712
   46DG      H5 1040   1.932   1.515   0.267  2.9279 -0.7483  1.6550
   46DG      H6 1041   1.898   0.558   0.234  0.7361 -2.6016 -3.0107
   46DG      H7 1042   2.063   0.500   0.240 -0.9695 -0.6431 -0.2968
   46DG      H8 1043   2.010   0.603   0.369 -1.7643 -0.4585 -0.1200
   46DG      O9 1044   1.919   1.309   0.269  0.0541 -0.2557  0.1205
   46DG     O10 1045   2.032   0.712   0.193  0.4938 -0.1913 -0.5470
   46DG     C11 1046   1.887   1.280   0.133 -0.6286  0.3796 -1.0049
   46DG     C12 1047   1.959   0.823   0.251 -0.2164  0.8423 -0.2748
   46DG     H13 1048   1.945   1.351   0.075  1.3646 -0.5249 -0.2156
   46DG     H14 1049   1.780   1.293   0.117 -1.3964 -0.2085  2.6084
   46DG     H15 1050   1.996   0.860   0.347 -0.3549  0.1299  0.0553
   46DG     H16 1051   1.853   0.801   0.256  0.3513 -2.8816 -1.6460
   46DG     C17 1052   1.933   1.149   0.081 -0.3445  0.5208  0.8791
   46DG     C18 1053   1.992   0.932   0.152 -0.0068  0.2680 -0.0427
   46DG     O19 1054   1.923   1.053   0.183  0.0772 -0.2680 -0.2809
   46DG     H20 1055   2.038   1.167   0.059  0.0909 -0.4340  2.0550
   46DG     H21 1056   1.865   1.127  -0.002  0.3451 -3.5584  1.1829
   46DG     H22 1057   2.098   0.944   0.132 -0.3542  1.0518 -1.5222
   46DG     H23 1058   1.949   0.897   0.058 -1.8066 -0.7053  1.0770
   47DG      C1 1059   3.353   2.065   3.959  0.3530 -0.4275  0.3840
   47DG      C2 1060   4.223   2.174   3.680  0.0361  0.2179  0.2604
   47DG      H3 1061   3.282   1.991   3.995 -1.3586  1.3303  0.7973
   47DG      H4 1062   3.296   2.148   3.917  0.2825 -0.7625 -0.1878
   47DG      H5 1063   3.404   2.084   4.054 -2.0495 -3.0569  2.3686
   47DG      H6 1064   4.287   2.215   3.758  0.2287 -0.3184  0.3874
   47DG      H7 1065   4.284   2.090   3.647 -0.6450 -0.0037 -0.4780
   47DG      H8 1066   4.215   2.237   3.591 -1.6669  0.9040  0.8603
   47DG      O9 1067   3.440   2.002   3.872  0.0189  0.4161  0.0644
   47DG     O10 1068   4.090   2.145   3.726  0.2483 -0.3863 -0.4992
   47DG     C11 1069   3.551   2.083   3.833  0.5920  0.2650  0.5652
   47DG     C12 1070   4.027   2.036   3.654 -0.0140  0.0939 -0.0778
   47DG     H13 1071   3.579   2.163   3.900 -0.7943  0.2089  1.2388
   47DG     H14 1072   3.537   2.138   3.740  1.2185 -0.5613 -0.0404
   47DG     H15 1073   4.097   1.953   3.668  2.3187  2.2044  1.6195
   47DG     H16 1074   4.024   2.041   3.546 -1.8880 -0.2131 -0.0769
   47DG     C17 1075   3.679   2.000   3.800  0.8264 -0.6159  0.9395
   47DG     C18 1076   3.902   1.985   3.728  0.1542  0.2939  0.0867
   47DG     O19 1077   3.791   2.070   3.746  1.1231 -0.4886 -0.7353
   47DG     H20 1078   3.644   1.941   3.716  1.5752 -1.7345  1.3875
   47DG     H21 1079   3.706   1.943   3.889  0.4235  0.1632  1.5805
   47DG     H22 1080   3.874   1.899   3.667  2.5042  0.1175 -0.8671
   47DG     H23 1081   3.923   1.948   3.828  0.5498 -0.9537 -0.4352
   48DG      C1 1082   5.360   0.108   2.174 -0.1451 -0.8838  0.2244
   48DG      C2 1083   4.994   0.448   1.584  0.2594 -0.2044 -0.2783
   48DG      H3 1084   5.270   0.090   2.234 -0.3992 -2.7018 -0.6429
   48DG      H4 1085   5.407   0.201   2.207 -1.9953  0.6517 -1.1942
   48DG      H5 1086   5.422   0.022   2.198 -0.4877 -0.9001  1.0807
   48DG      H6 1087   4.887   0.439   1.605  0.2437  2.4183  1.2371
   48DG      H7 1088   5.033   0.544   1.619  1.0166  0.3498 -2.5004
   48DG      H8 1089   5.000   0.450   1.475 -2.7433 -0.8281 -0.5509
   48DG      O9 1090   5.324   0.131   2.041 -0.0084  0.3984  0.4626
   48DG     O10 1091   5.069   0.338   1.632 -0.1599 -0.1630  0.3024
   48DG     C11 1092   5.287   0.013   1.978  0.1953  0.3577  0.0331
   48DG     C12 1093   5.052   0.311   1.772 -0.0756 -0.2423  0.6555
   48DG     H13 1094   5.184   0.002   2.013 -0.8640  3.3033 -1.8027
   48DG     H14 1095   5.352  -0.070   2.005 -0.6602 -0.0918  0.7696
   48DG     H15 1096   4.948   0.322   1.801  0.1444  0.3752  1.2339
   48DG     H16 1097   5.118   0.379   1.825 -0.1224  1.3457 -1.2149
   48DG     C17 1098   5.288   0.034   1.826  0.1965 -0.2791  0.6458
   48DG     C18 1099   5.090   0.168   1.799  0.8437 -0.2444 -0.0296
   48DG     O19 1100   5.229   0.154   1.769  0.3167 -0.1382 -0.0027
   48DG     H20 1101   5.238  -0.053   1.784 -0.7463  0.8281 -0.6458
   48DG     H21 1102   5.392   0.036   1.794 -0.5206  1.0677 -1.8802
   48DG     H22 1103   5.063   0.152   1.903  3.4320  1.3474  0.9574
   48DG     H23 1104   5.031   0.101   1.735  3.4024 -0.8394 -1.9276
   49DG      C1 1105   4.466   2.612   0.671  0.4378  0.2646 -0.4892
   49DG      C2 1106   4.265   2.689   1.307 -0.3131  0.0999  0.1326
   49DG      H3 1107   4.548   2.573   0.611 -0.8868 -0.7668 -1.7041
   49DG      H4 1108   4.490   2.716   0.691 -1.2921  0.3848  1.1653
   49DG      H5 1109   4.373   2.606   0.614  0.2738 -1.5692 -0.0986
   49DG      H6 1110   4.235   2.646   1.403 -0.5792  1.2461  0.5791
   49DG      H7 1111   4.314   2.786   1.316 -1.2869  0.5753  0.4496
   49DG      H8 1112   4.169   2.705   1.258  0.3034  2.0190 -0.5284
   49DG      O9 1113   4.441   2.536   0.786 -0.3973 -0.5186  0.0567
   49DG     O10 1114   4.336   2.592   1.232 -0.1094 -0.3196 -0.0608
   49DG     C11 1115   4.382   2.405   0.762  0.0349  0.6343 -0.1895
   49DG     C12 1116   4.270   2.473   1.221 -0.4433  0.3998  0.6542
   49DG     H13 1117   4.440   2.354   0.685 -1.9597 -0.8447 -0.7853
   49DG     H14 1118   4.286   2.404   0.710  0.5507 -1.2916 -1.1966
   49DG     H15 1119   4.168   2.490   1.187 -1.0721 -1.6724  1.3492
   49DG     H16 1120   4.248   2.445   1.324 -0.7005  0.4933  0.6250
   49DG     C17 1121   4.358   2.319   0.885 -0.2425  0.4290 -0.5971
   49DG     C18 1122   4.333   2.369   1.126 -0.1698  0.0205 -0.5553
   49DG     O19 1123   4.306   2.401   0.987 -0.3819  0.3106  0.0362
   49DG     H20 1124   4.455   2.285   0.920 -0.5686 -0.3906 -0.4556
   49DG     H21 1125   4.302   2.227   0.867  0.3267  0.0322 -0.3612
   49DG     H22 1126   4.440   2.357   1.143 -0.5114 -1.9979  0.5994
   49DG     H23 1127   4.285   2.272   1.143  1.9363 -0.9209  0.3817
   50DG      C1 1128   1.926   2.339   3.919  0.3370 -0.0266 -0.5215
   50DG      C2 1129   1.814   2.859   4.501  0.1818 -1.0867 -0.4824
   50DG      H3 1130   1.961   2.411   3.845  2.4838 -0.9616 -0.4833
   50DG      H4 1131   1.818   2.345   3.909  0.2998  0.1860 -0.0105
   50DG      H5 1132   1.963   2.240   3.892 -0.0444 -0.3924  0.2648
   50DG      H6 1133   1.844   2.936   4.431 -0.3628 -0.7007 -0.3003
   50DG      H7 1134   1.710   2.887   4.519  0.1903 -0.4195 -1.4173
   50DG      H8 1135   1.869   2.858   4.595 -0.1867 -1.2063 -0.2652
   50DG      O9 1136   1.955   2.366   4.048  0.1874  0.3283  0.2120
   50DG     O10 1137   1.831   2.739   4.429 -0.4872  0.0670  0.6468
   50DG     C11 1138   1.884   2.298   4.149  0.0405 -0.3676 -0.3062
   50DG     C12 1139   1.820   2.623   4.504  0.2288 -0.0577 -0.5853
   50DG     H13 1140   1.897   2.191   4.137  0.2338 -0.3298 -0.4529
   50DG     H14 1141   1.777   2.315   4.146  0.1546  0.8146  1.0136
   50DG     H15 1142   1.718   2.591   4.523  0.2718  0.6117  0.8868
   50DG     H16 1143   1.866   2.633   4.602 -0.2336 -0.3214 -0.3382
   50DG     C17 1144   1.921   2.343   4.294  0.1516  0.1790  1.0616
   50DG     C18 1145   1.913   2.511   4.448 -0.4130 -0.2026  0.1212
   50DG     O19 1146   1.865   2.466   4.328  0.3337  0.1251  0.3606
   50DG     H20 1147   2.029   2.334   4.306  0.2919  0.0819 -0.1018
   50DG     H21 1148   1.863   2.267   4.347  1.2096 -0.9059  0.7309
   50DG     H22 1149   2.021   2.520   4.447 -0.3954 -0.4461 -0.4473
   50DG     H23 1150   1.903   2.433   4.523  0.8294 -0.4134  0.0784
   51DG      C1 1151   4.484   4.106   2.787 -0.1742 -0.6117  0.1083
   51DG      C2 1152   5.144   3.980   2.601  0.3407  0.5562  0.3820
   51DG      H3 1153   4.387   4.071   2.823  0.5326 -0.4668  2.3375
   51DG      H4 1154   4.455   4.155   2.694 -2.4021 -1.4719  0.2996
   51DG      H5 1155   4.521   4.183   2.854 -1.9128 -0.9188  1.4881
   51DG      H6 1156   5.225   3.928   2.550 -1.5351 -0.9596 -1.2594
   51DG      H7 1157   5.102   4.057   2.535 -1.2067 -1.9171 -1.7415
   51DG      H8 1158   5.196   4.027   2.684  1.0874 -0.7920  0.7024
   51DG      O9 1159   4.575   3.996   2.775  0.3732 -0.2022 -0.1022
   51DG     O10 1160   5.033   3.905   2.640  0.4999  0.7813  0.3644
   51DG     C11 1161   4.610   3.932   2.901  0.3628  0.1164  0.4800
   51DG     C12 1162   5.053   3.834   2.761 -0.1223 -0.1180 -0.3810
   51DG     H13 1163   4.521   3.888   2.947  0.6092 -2.0622 -0.9555
   51DG     H14 1164   4.648   4.002   2.976 -3.2642  0.0376  2.6366
   51DG     H15 1165   5.081   3.906   2.837 -0.3072  0.4613 -0.8529
   51DG     H16 1166   5.138   3.766   2.753  1.6383  1.7935  1.0536
   51DG     C17 1167   4.709   3.819   2.889  0.8547  0.1576 -0.7069
   51DG     C18 1168   4.924   3.769   2.801  0.6673 -0.1998  0.1200
   51DG     O19 1169   4.826   3.866   2.817 -0.2249  0.2706  0.1802
   51DG     H20 1170   4.654   3.735   2.846  0.5935  0.1472 -0.3581
   51DG     H21 1171   4.728   3.772   2.986 -1.7502 -0.2541 -0.3456
   51DG     H22 1172   4.896   3.696   2.725  0.3476 -0.7595  0.7620
   51DG     H23 1173   4.935   3.715   2.895 -1.2636 -0.7485  0.0841
   52DG      C1 1174   4.546   2.443   1.545 -0.1208 -0.3605  0.2571
   52DG      C2 1175   5.358   2.575   1.267 -0.2119  0.2909  0.6560
   52DG      H3 1176   4.494   2.525   1.497 -1.7262 -0.1066  2.3027
   52DG      H4 1177   4.475   2.407   1.619 -0.5882 -0.8346 -0.4028
   52DG      H5 1178   4.553   2.357   1.477 -1.2071 -0.8399  0.7229
   52DG      H6 1179   5.352   2.661   1.200  0.0690 -0.5267 -0.4450
   52DG      H7 1180   5.450   2.571   1.326  0.2363 -0.2064 -0.0644
   52DG      H8 1181   5.359   2.493   1.195 -0.0836  0.9885 -0.1446
   52DG      O9 1182   4.667   2.482   1.605  0.0572  0.0026 -0.0565
   52DG     O10 1183   5.243   2.565   1.347 -0.1007  0.4018 -0.0149
   52DG     C11 1184   4.763   2.537   1.522 -0.0645 -0.6196 -0.1174
   52DG     C12 1185   5.211   2.675   1.431  0.3563  0.8126 -0.2451
   52DG     H13 1186   4.724   2.635   1.493  0.6069  0.0009  0.9956
   52DG     H14 1187   4.782   2.491   1.425 -2.0436  1.3604 -1.5790
   52DG     H15 1188   5.152   2.753   1.382 -1.4636 -0.2749  0.1271
   52DG     H16 1189   5.302   2.706   1.482  2.1870 -2.8532 -0.9464
   52DG     C17 1190   4.900   2.560   1.598  0.1608 -0.0246  0.1707
   52DG     C18 1191   5.126   2.624   1.549  0.1065  0.3829  0.1275
   52DG     O19 1192   4.993   2.611   1.503  0.2644 -0.2438  0.2789
   52DG     H20 1193   4.937   2.464   1.633 -1.6138 -0.6665  0.4018
   52DG     H21 1194   4.889   2.632   1.679 -2.2964 -0.3930  0.2310
   52DG     H22 1195   5.164   2.529   1.585 -1.5936  0.0822  1.2659
   52DG     H23 1196   5.126   2.682   1.641 -1.3740 -1.7857  1.5917
   53DG      C1 1197   4.902   4.053   4.613 -0.0397 -0.4344  0.2726
   53DG      C2 1198   4.868   3.326   4.404  0.9119 -0.0664 -0.1182
   53DG      H3 1199   4.991   4.083   4.667  1.0041 -0.9282 -1.1160
   53DG      H4 1200   4.823   4.120   4.649 -0.5559 -1.9884  2.2550
   53DG      H5 1201   4.919   4.068   4.506  0.9908 -0.5729  0.4066
   53DG      H6 1202   4.884   3.237   4.465 -1.4847  0.6341  1.7153
   53DG      H7 1203   4.859   3.289   4.302  0.8060 -2.1070  0.5834
   53DG      H8 1204   4.955   3.391   4.409  0.3008  0.7004  1.3467
   53DG      O9 1205   4.878   3.914   4.644  0.2999 -0.6735  0.0250
   53DG     O10 1206   4.751   3.397   4.457 -0.9700  0.2667  0.0303
   53DG     C11 1207   4.990   3.837   4.599 -0.3606 -0.1956  0.4694
   53DG     C12 1208   4.751   3.407   4.594 -0.6664 -0.0872  0.7224
   53DG     H13 1209   5.085   3.873   4.637  0.0735 -2.5269  1.8032
   53DG     H14 1210   4.994   3.834   4.490  1.0686 -0.2763  0.5142
   53DG     H15 1211   4.736   3.308   4.638  0.9149 -0.9948 -0.6432
   53DG     H16 1212   4.669   3.475   4.617 -0.1849  0.7534  0.0252
   53DG     C17 1213   4.988   3.695   4.658  0.3660  0.7814 -0.0334
   53DG     C18 1214   4.864   3.490   4.658  0.3204 -0.4257  0.8486
   53DG     O19 1215   4.876   3.620   4.605  0.0094 -0.1912  0.3690
   53DG     H20 1216   4.985   3.701   4.767 -1.0054  0.9213 -0.0628
   53DG     H21 1217   5.076   3.637   4.631 -1.4665 -2.7483  0.9334
   53DG     H22 1218   4.857   3.509   4.765  1.4947 -0.4190  0.9315
   53DG     H23 1219   4.961   3.448   4.632 -0.3337 -3.0610  2.3069
   54DG      C1 1220   1.717   1.658   2.256 -0.5645 -0.0223  0.7183
   54DG      C2 1221   2.410   1.655   2.177  0.8393  0.9918  0.4291
   54DG      H3 1222   1.742   1.658   2.362 -2.3203  0.6044  1.1581
   54DG      H4 1223   1.709   1.554   2.227  0.3345 -0.2751  1.3397
   54DG      H5 1224   1.615   1.692   2.238 -0.4772 -0.9246 -1.8805
   54DG      H6 1225   2.432   1.631   2.281 -0.6648  0.2039  0.6001
   54DG      H7 1226   2.390   1.556   2.136  0.1456  0.6641  1.4921
   54DG      H8 1227   2.496   1.697   2.126  2.6327  0.2011  2.6262
   54DG      O9 1228   1.825   1.738   2.186  0.3993 -0.3369 -0.1730
   54DG     O10 1229   2.288   1.737   2.151  0.2433 -0.3412  0.1294
   54DG     C11 1230   1.818   1.875   2.220 -0.1426  0.7906 -0.0522
   54DG     C12 1231   2.297   1.876   2.193 -0.2581  0.9897  0.2304
   54DG     H13 1232   1.835   1.875   2.328  0.8162  1.0382 -0.1964
   54DG     H14 1233   1.723   1.918   2.190 -0.8110 -0.3565  0.3738
   54DG     H15 1234   2.382   1.920   2.140  1.0636 -0.8877  0.6935
   54DG     H16 1235   2.321   1.888   2.299  0.5535  1.7554 -0.0234
   54DG     C17 1236   1.935   1.944   2.155  0.2034  0.2215  0.7018
   54DG     C18 1237   2.171   1.940   2.151 -0.1586  0.0432 -0.1174
   54DG     O19 1238   2.054   1.868   2.192  0.5701 -0.1081 -0.0701
   54DG     H20 1239   1.941   2.049   2.181 -0.0989  0.3058  0.4470
   54DG     H21 1240   1.924   1.921   2.049  0.8095 -1.4806  0.9855
   54DG     H22 1241   2.186   2.044   2.182  1.5705 -0.5685  1.3149
   54DG     H23 1242   2.161   1.945   2.043  0.0660  0.4002 -0.1242
   55DG      C1 1243   3.853   3.461   3.987  0.0894  0.1701  0.2513
   55DG      C2 1244   4.572   3.591   4.265 -0.1110 -0.2816  0.0857
   55DG      H3 1245   3.789   3.376   4.013  1.0304 -0.1838  1.4815
   55DG      H4 1246   3.818   3.495   3.889 -0.7330 -1.7084 -0.1517
   55DG      H5 1247   3.849   3.542   4.059 -0.9697  3.1808 -2.9419
   55DG      H6 1248   4.567   3.671   4.191 -2.0380  0.7484  1.2588
   55DG      H7 1249   4.563   3.637   4.363 -1.0814 -0.1583 -0.0524
   55DG      H8 1250   4.671   3.546   4.252  0.2914  0.7399 -0.5064
   55DG      O9 1251   3.985   3.402   3.975 -0.2944  0.2775  0.1255
   55DG     O10 1252   4.463   3.508   4.237 -0.0146  0.2422 -0.0513
   55DG     C11 1253   4.019   3.320   4.090  0.3894 -0.2183  0.6403
   55DG     C12 1254   4.476   3.457   4.100 -0.3963 -0.1353  0.5863
   55DG     H13 1255   3.935   3.252   4.105 -1.1259  1.2303 -0.8547
   55DG     H14 1256   4.007   3.389   4.173 -1.6707 -1.3090  1.3157
   55DG     H15 1257   4.580   3.431   4.081 -0.9108 -1.7794 -0.2418
   55DG     H16 1258   4.455   3.536   4.028 -0.4331 -1.6818 -1.2015
   55DG     C17 1259   4.160   3.260   4.065  0.7588 -0.3609 -0.0717
   55DG     C18 1260   4.387   3.342   4.068  0.2531 -0.2426  0.3629
   55DG     O19 1261   4.249   3.371   4.087 -0.6980  0.3190  0.0986
   55DG     H20 1262   4.171   3.223   3.963  2.2662  0.5686 -0.2737
   55DG     H21 1263   4.176   3.185   4.142 -1.3399  0.1969  0.9868
   55DG     H22 1264   4.391   3.304   3.966 -1.4444  0.2562  0.0740
   55DG     H23 1265   4.423   3.262   4.132 -0.3203 -1.7528 -1.1388
   56DG      C1 1266   0.614   4.347   0.831  0.5517  0.0202 -0.4815
   56DG      C2 1267   0.898   4.055   1.358 -0.5310 -0.9946  0.6994
   56DG      H3 1268   0.567   4.437   0.870  0.9411 -0.8366  2.1396
   56DG      H4 1269   0.560   4.264   0.878 -1.3672  1.2711 -0.3814
   56DG      H5 1270   0.616   4.328   0.723 -0.4534 -2.6102 -0.1174
   56DG      H6 1271   0.880   3.954   1.321  0.8097 -0.5751 -1.2266
   56DG      H7 1272   0.966   4.047   1.443 -0.2227  0.2334  0.5851
   56DG      H8 1273   0.801   4.080   1.402 -0.5636 -1.4736  0.9165
   56DG      O9 1274   0.740   4.346   0.901  0.0857  0.0546  0.8717
   56DG     O10 1275   0.950   4.147   1.264  0.0091 -0.4278  0.1488
   56DG     C11 1276   0.843   4.307   0.812  0.2843  0.9559  0.5069
   56DG     C12 1277   1.055   4.098   1.183 -0.3264 -0.1413 -0.5297
   56DG     H13 1278   0.849   4.369   0.722  0.7827  0.0017 -0.1400
   56DG     H14 1279   0.806   4.213   0.771 -2.7393  1.7665  1.0982
   56DG     H15 1280   1.033   4.003   1.134 -0.5559 -0.2700 -0.1794
   56DG     H16 1281   1.149   4.083   1.235  0.2353  1.0493 -1.1624
   56DG     C17 1282   0.980   4.296   0.881  0.2836 -0.1693  0.0432
   56DG     C18 1283   1.087   4.193   1.070  0.7057 -0.8429  0.4143
   56DG     O19 1284   0.969   4.206   0.989 -0.2610 -0.3771  0.7701
   56DG     H20 1285   1.020   4.391   0.918  2.5066 -1.2628  0.6272
   56DG     H21 1286   1.065   4.270   0.819  1.5969  2.4419  0.6099
   56DG     H22 1287   1.112   4.284   1.124  0.4337 -1.6188  1.9103
   56DG     H23 1288   1.173   4.161   1.012  0.4104 -2.3404  0.7567
   57DG      C1 1289   0.358   0.794   1.687  0.4087  0.1273 -0.3032
   57DG      C2 1290   0.438   0.970   1.007  0.2718  0.7520 -0.5207
   57DG      H3 1291   0.263   0.843   1.709  0.3785  0.7000 -1.6028
   57DG      H4 1292   0.425   0.878   1.703 -1.5287  2.2011 -2.2583
   57DG      H5 1293   0.379   0.713   1.755  0.9687  0.7121  0.2323
   57DG      H6 1294   0.485   1.053   1.060 -0.7047  1.1767 -0.3052
   57DG      H7 1295   0.498   0.940   0.921 -1.8801  0.5950 -2.0544
   57DG      H8 1296   0.344   1.012   0.971 -1.0746 -1.2998  0.3910
   57DG      O9 1297   0.353   0.763   1.551 -0.2332 -0.0252 -0.4239
   57DG     O10 1298   0.398   0.862   1.093 -1.1942 -0.2586 -0.0908
   57DG     C11 1299   0.260   0.660   1.517  0.4423 -0.1045 -0.6593
   57DG     C12 1300   0.287   0.781   1.046  0.2403 -0.0060  0.6483
   57DG     H13 1301   0.161   0.702   1.535  0.3014 -0.7534  0.1220
   57DG     H14 1302   0.263   0.577   1.587 -1.9870  1.1796  1.1143
   57DG     H15 1303   0.304   0.741   0.947  3.4772 -0.3910  1.2621
   57DG     H16 1304   0.192   0.835   1.050  0.3529  0.5138 -2.1300
   57DG     C17 1305   0.269   0.609   1.372  0.1345  0.4654  1.0885
   57DG     C18 1306   0.255   0.663   1.139  0.1097  0.7836 -0.0310
   57DG     O19 1307   0.251   0.712   1.273 -0.0191 -0.3450  0.2824
   57DG     H20 1308   0.201   0.524   1.364 -2.0629  2.1236  1.1352
   57DG     H21 1309   0.367   0.565   1.358  0.1051  0.1372  1.8889
   57DG     H22 1310   0.166   0.606   1.111 -0.7293  0.8568  2.3341
   57DG     H23 1311   0.339   0.594   1.125 -0.2528  0.1792  0.7623
   58DG      C1 1312   4.348   1.958   1.865 -0.2388  0.3718  0.5857
   58DG      C2 1313   4.084   2.555   1.948  0.4079  0.0416 -0.4262
   58DG      H3 1314   4.415   1.995   1.788  1.4848  1.7608  2.6408
   58DG      H4 1315   4.332   1.854   1.835  1.4192  0.0424  0.7526
   58DG      H5 1316   4.410   1.955   1.955  1.7259 -2.9115 -0.6884
   58DG      H6 1317   4.019   2.623   2.003 -0.9796 -1.6820  0.1876
   58DG      H7 1318   4.180   2.574   1.997  0.1980 -0.4615  0.2018
   58DG      H8 1319   4.081   2.594   1.847  1.4816  3.3743  0.7151
   58DG      O9 1320   4.225   2.025   1.886  0.1663  0.0520  0.1432
   58DG     O10 1321   4.053   2.418   1.952 -0.3811 -0.2455 -0.4859
   58DG     C11 1322   4.144   2.004   1.777  0.4630  0.1590  0.7692
   58DG     C12 1323   3.921   2.398   1.913 -0.1007  0.0476  0.4912
   58DG     H13 1324   4.141   1.899   1.749  1.2991  0.5968 -1.1494
   58DG     H14 1325   4.176   2.063   1.691  2.2120  1.2848  2.1317
   58DG     H15 1326   3.900   2.444   1.816 -0.5717 -1.7866 -0.3250
   58DG     H16 1327   3.848   2.446   1.977 -0.1341 -0.4514  0.8311
   58DG     C17 1328   4.004   2.056   1.810 -0.1119 -0.1863 -0.1183
   58DG     C18 1329   3.884   2.252   1.876  0.2045 -0.3982 -0.2692
   58DG     O19 1330   4.008   2.189   1.849  0.2668  1.3179 -0.4245
   58DG     H20 1331   3.965   1.988   1.886 -0.4638 -1.3340 -1.2999
   58DG     H21 1332   3.945   2.048   1.719 -0.7765 -0.3710  0.3176
   58DG     H22 1333   3.822   2.210   1.955  1.3557 -2.8341 -0.5766
   58DG     H23 1334   3.830   2.251   1.781  1.6698  0.5006 -1.1564
   59DG      C1 1335   3.439   1.924   2.193  0.0743 -0.1698 -0.4803
   59DG      C2 1336   2.847   1.478   2.291  0.0320  0.6659  0.2053
   59DG      H3 1337   3.380   2.016   2.196  0.3863 -0.0041  1.6787
   59DG      H4 1338   3.533   1.936   2.138 -0.8971 -1.5103 -2.5748
   59DG      H5 1339   3.488   1.910   2.289 -0.4125 -1.0704 -0.3577
   59DG      H6 1340   2.839   1.539   2.381  0.5311  0.3463  0.4725
   59DG      H7 1341   2.753   1.490   2.238  0.4082 -3.0373 -1.5961
   59DG      H8 1342   2.858   1.373   2.318  0.7522  0.5879 -0.3804
   59DG      O9 1343   3.363   1.812   2.152 -0.3718  0.2241  0.2531
   59DG     O10 1344   2.953   1.538   2.213 -0.1856  0.6379  0.6933
   59DG     C11 1345   3.302   1.828   2.027 -0.2760  0.4018 -0.2753
   59DG     C12 1346   2.980   1.460   2.095 -0.2613 -0.1813 -0.7493
   59DG     H13 1347   3.368   1.867   1.950 -0.7924  0.8716 -0.4853
   59DG     H14 1348   3.216   1.895   2.032  1.0949  2.0987  1.9588
   59DG     H15 1349   2.898   1.503   2.038 -1.6685 -0.1820  1.1518
   59DG     H16 1350   2.962   1.353   2.110  2.4258 -0.9711 -2.6158
   59DG     C17 1351   3.240   1.699   1.963 -0.1380 -0.1281 -0.3486
   59DG     C18 1352   3.121   1.498   2.039  0.4150 -0.1683 -0.2864
   59DG     O19 1353   3.139   1.646   2.051 -0.0911  0.6583  0.0935
   59DG     H20 1354   3.318   1.629   1.935  0.4335 -0.3567  1.6461
   59DG     H21 1355   3.197   1.720   1.865 -0.3292 -1.3290 -0.5270
   59DG     H22 1356   3.209   1.446   2.078  0.3478  0.5096  0.8074
   59DG     H23 1357   3.109   1.470   1.934  1.6704  0.8532 -0.7392
   60DG      C1 1358   2.525   2.187   1.558 -0.2675 -0.1395  0.2253
   60DG      C2 1359   3.027   2.590   1.294  0.4220 -1.0019  0.1128
   60DG      H3 1360   2.492   2.160   1.658 -1.1796 -1.5833 -0.4394
   60DG      H4 1361   2.599   2.111   1.532  0.8228  1.0862 -0.3971
   60DG      H5 1362   2.441   2.168   1.491 -0.1420 -2.0418  0.5562
   60DG      H6 1363   3.084   2.501   1.320  0.9574 -0.7753 -0.2803
   60DG      H7 1364   2.981   2.570   1.198 -1.9742 -0.5742  1.0981
   60DG      H8 1365   3.097   2.674   1.285  0.5945 -1.3188 -1.9110
   60DG      O9 1366   2.579   2.320   1.560 -0.5950  0.2720  0.0743
   60DG     O10 1367   2.932   2.610   1.395  0.0749  0.7452 -0.0361
   60DG     C11 1368   2.488   2.422   1.554 -0.1453 -0.3367  0.3381
   60DG     C12 1369   2.835   2.710   1.385  0.2065  0.0056 -0.1055
   60DG     H13 1370   2.412   2.410   1.631 -1.6578  1.9892 -0.6767
   60DG     H14 1371   2.432   2.419   1.460 -1.0276 -0.9533  0.8717
   60DG     H15 1372   2.779   2.691   1.293 -1.2247  0.2411  0.6959
   60DG     H16 1373   2.881   2.808   1.396 -2.7692  1.2968  1.9465
   60DG     C17 1374   2.559   2.558   1.577 -0.4090 -0.2345 -0.7866
   60DG     C18 1375   2.729   2.709   1.493 -0.5758  0.3852  0.0569
   60DG     O19 1376   2.658   2.584   1.479  0.1394 -0.4381 -0.6160
   60DG     H20 1377   2.591   2.548   1.681 -1.6642 -0.2226 -0.3894
   60DG     H21 1378   2.496   2.645   1.593  3.1004  2.1210  1.4841
   60DG     H22 1379   2.776   2.721   1.591  0.2442 -3.6481  0.3607
   60DG     H23 1380   2.660   2.790   1.473 -1.4045 -0.5266 -0.9262
   61DG      C1 1381   3.579   4.721   4.370  0.4089 -0.2766 -0.1554
   61DG      C2 1382   3.225   4.442   4.809  0.3268  0.1478  0.3241
   61DG      H3 1383   3.594   4.624   4.324  1.9844 -0.7081  1.1655
   61DG      H4 1384   3.682   4.735   4.401  0.4926 -0.4796 -0.3438
   61DG      H5 1385   3.552   4.790   4.290  1.4510 -1.8588 -1.9431
   61DG      H6 1386   3.306   4.383   4.852 -0.4456 -0.5643  0.8182
   61DG      H7 1387   3.126   4.425   4.851  0.0574 -0.7030 -0.6101
   61DG      H8 1388   3.221   4.411   4.704  1.5308  1.0208 -0.0118
   61DG      O9 1389   3.494   4.719   4.487  0.3438  0.4032 -0.1157
   61DG     O10 1390   3.266   4.575   4.809  0.3387  0.4525  0.6286
   61DG     C11 1391   3.355   4.688   4.468 -0.0243 -0.5904  0.1348
   61DG     C12 1392   3.152   4.657   4.777 -0.1651 -0.2507  0.5842
   61DG     H13 1393   3.330   4.592   4.515 -1.6465  0.9776  2.6986
   61DG     H14 1394   3.340   4.687   4.360  1.4069  0.4785 -0.1098
   61DG     H15 1395   3.063   4.649   4.840 -0.1929  0.3813  0.6287
   61DG     H16 1396   3.116   4.618   4.682 -0.6671  1.3270  0.0870
   61DG     C17 1397   3.269   4.793   4.521  0.0326  0.4918  0.0766
   61DG     C18 1398   3.195   4.806   4.750  0.2387  0.6357 -0.4189
   61DG     O19 1399   3.299   4.820   4.655 -0.8212 -0.6012  0.1074
   61DG     H20 1400   3.167   4.761   4.498 -0.0593  1.6866 -1.3318
   61DG     H21 1401   3.268   4.889   4.469 -0.2799  1.5029  1.8768
   61DG     H22 1402   3.108   4.862   4.716 -1.8729 -1.8158  0.5697
   61DG     H23 1403   3.235   4.854   4.839  0.9223  0.7364 -0.7738
   62DG      C1 1404   3.886   4.524   4.215  0.1913  0.1778  1.2411
   62DG      C2 1405   3.859   4.576   3.491 -0.3637  0.7882  0.0085
   62DG      H3 1406   3.830   4.498   4.305  1.1600 -1.8928  1.2924
   62DG      H4 1407   3.947   4.611   4.242 -0.6752  1.7228 -1.4285
   62DG      H5 1408   3.948   4.441   4.182 -0.4668  1.0045 -2.5449
   62DG      H6 1409   3.822   4.488   3.439 -0.8151  1.5356 -0.9618
   62DG      H7 1410   3.877   4.650   3.413  0.5019 -0.6211 -1.1705
   62DG      H8 1411   3.957   4.547   3.531  0.1002  2.6205  0.3000
   62DG      O9 1412   3.800   4.564   4.109  0.4038 -0.3150 -0.4737
   62DG     O10 1413   3.756   4.592   3.586  0.1714  0.4888  0.8287
   62DG     C11 1414   3.695   4.468   4.075  0.0190  0.1140 -0.3207
   62DG     C12 1415   3.800   4.655   3.708  0.4520  0.4746 -0.2262
   62DG     H13 1416   3.643   4.428   4.162 -1.8113  2.4112 -0.2673
   62DG     H14 1417   3.738   4.379   4.030  1.0547  0.4288  0.0157
   62DG     H15 1418   3.846   4.753   3.699 -1.3665  1.4658  0.6675
   62DG     H16 1419   3.882   4.592   3.743  0.6699  1.2311  0.6407
   62DG     C17 1420   3.590   4.527   3.978 -0.2972 -0.2463  0.1205
   62DG     C18 1421   3.685   4.670   3.814 -0.1507 -0.2631 -0.1537
   62DG     O19 1422   3.653   4.537   3.855  0.2538  0.0377  0.0534
   62DG     H20 1423   3.576   4.630   4.008  1.8935  0.6626 -1.6977
   62DG     H21 1424   3.505   4.459   3.965 -0.5525  0.2665 -0.9902
   62DG     H22 1425   3.740   4.719   3.894  0.4894 -1.0642 -0.0866
   62DG     H23 1426   3.602   4.734   3.784 -1.5392 -0.9835  1.9351
   63DG      C1 1427   2.541   0.774   2.192 -0.7146  0.3407 -0.1538
   63DG      C2 1428   1.998   0.433   2.181 -0.1074 -0.2215 -0.5913
   63DG      H3 1429   2.621   0.828   2.143 -0.0584  0.9053  1.4702
   63DG      H4 1430   2.595   0.693   2.242 -1.5636  0.1670  0.5162
   63DG      H5 1431   2.492   0.843   2.260  0.0294  2.0801 -1.3083
   63DG      H6 1432   2.013   0.503   2.263  0.7815 -0.5443 -0.4647
   63DG      H7 1433   1.893   0.435   2.151  0.0970  2.2475 -1.3816
   63DG      H8 1434   2.036   0.337   2.216  0.5362  0.2286 -0.0214
   63DG      O9 1435   2.453   0.724   2.102  0.5252  0.0199 -0.6716
   63DG     O10 1436   2.089   0.486   2.081 -0.2815  0.1903  0.1254
   63DG     C11 1437   2.422   0.816   1.994  0.3394  0.0160  0.5775
   63DG     C12 1438   2.019   0.564   1.980  0.1448  0.0636 -0.2041
   63DG     H13 1439   2.511   0.868   1.957  0.3937 -0.3327  0.2233
   63DG     H14 1440   2.360   0.896   2.036 -1.4542 -1.3347  0.5680
   63DG     H15 1441   1.961   0.646   2.023  0.3735  1.2303 -1.9966
   63DG     H16 1442   1.953   0.504   1.918  0.8194 -0.6256 -0.2644
   63DG     C17 1443   2.335   0.743   1.892  0.2080 -0.5704 -0.2133
   63DG     C18 1444   2.135   0.614   1.887 -0.4523  0.2178 -0.1453
   63DG     O19 1445   2.237   0.674   1.970  0.3354 -0.2083 -0.0422
   63DG     H20 1446   2.402   0.675   1.839 -0.2645  0.0263 -1.6333
   63DG     H21 1447   2.305   0.809   1.810 -0.4670 -1.0515 -0.3568
   63DG     H22 1448   2.178   0.538   1.822 -3.2788 -0.2986 -1.5492
   63DG     H23 1449   2.086   0.690   1.825  1.4799  2.3733  0.7892
   64DG      C1 1450   1.853   3.627   0.342 -0.8855 -0.0223 -0.1177
   64DG      C2 1451   1.456   4.207   0.304  1.2145  0.0937  0.0564
   64DG      H3 1452   1.799   3.551   0.286 -2.0742  0.2723  0.5922
   64DG      H4 1453   1.791   3.648   0.429 -0.1806  2.7883 -0.1821
   64DG      H5 1454   1.945   3.576   0.370 -0.7110  0.9500  1.1955
   64DG      H6 1455   1.430   4.226   0.408  2.3657  0.4567  0.2893
   64DG      H7 1456   1.458   4.295   0.239  1.3670 -1.2598 -1.8474
   64DG      H8 1457   1.381   4.134   0.272  1.4335 -0.7616  1.4469
   64DG      O9 1458   1.879   3.746   0.271  0.0140  0.1613  0.1516
   64DG     O10 1459   1.587   4.141   0.299 -0.2448  0.2673  0.1024
   64DG     C11 1460   1.986   3.818   0.328  0.0599 -0.0475 -0.3827
   64DG     C12 1461   1.687   4.185   0.396  0.7162  0.0811  0.6479
   64DG     H13 1462   2.088   3.786   0.305  0.2388  0.3500 -0.1578
   64DG     H14 1463   1.988   3.811   0.437 -0.9515  0.5459 -0.3194
   64DG     H15 1464   1.670   4.118   0.480 -0.8223 -1.7574 -1.0335
   64DG     H16 1465   1.693   4.288   0.431  0.9459  0.0954  0.5689
   64DG     C17 1466   1.969   3.962   0.297 -0.4490 -0.8322  0.3060
   64DG     C18 1467   1.827   4.148   0.337 -0.0601  0.5542  0.2830
   64DG     O19 1468   1.841   4.001   0.333  0.1330 -0.1635  0.2858
   64DG     H20 1469   1.980   3.968   0.189 -1.1177 -2.3893  0.1215
   64DG     H21 1470   2.046   4.017   0.352 -0.1988  2.3124 -2.8419
   64DG     H22 1471   1.848   4.183   0.236  0.2320 -0.0834  0.1210
   64DG     H23 1472   1.909   4.175   0.404  2.2494 -3.3429 -0.6176
   65DG      C1 1473   3.621   2.819   1.807  0.7721  0.1829 -0.5009
   65DG      C2 1474   3.605   3.414   2.113  0.2607  0.1693  0.6096
   65DG      H3 1475   3.728   2.800   1.807  0.7982 -0.0136 -3.2580
   65DG      H4 1476   3.617   2.858   1.705  0.3140  1.3755 -0.0392
   65DG      H5 1477   3.566   2.725   1.817  2.9048 -1.3952 -2.4902
   65DG      H6 1478   3.562   3.501   2.161  1.3224  0.7532  0.5406
   65DG      H7 1479   3.706   3.420   2.155  0.1347  0.1275  0.9216
   65DG      H8 1480   3.606   3.439   2.007 -0.8060  0.3303  0.6329
   65DG      O9 1481   3.558   2.904   1.905  0.6404 -0.8203  0.6095
   65DG     O10 1482   3.544   3.291   2.131  0.0438  0.5315 -0.5609
   65DG     C11 1483   3.413   2.898   1.883 -0.5834  0.1113 -0.1201
   65DG     C12 1484   3.409   3.303   2.108 -0.3326  0.1049  0.2542
   65DG     H13 1485   3.378   2.795   1.876  1.4786 -0.6215 -0.4981
   65DG     H14 1486   3.377   2.947   1.792 -0.2397  0.8775  0.1406
   65DG     H15 1487   3.399   3.342   2.007 -0.1664 -0.0026  0.1963
   65DG     H16 1488   3.353   3.367   2.177  0.1556  2.9004 -1.7635
   65DG     C17 1489   3.340   2.967   2.000  0.2736  0.3802  0.4932
   65DG     C18 1490   3.344   3.166   2.107  0.5370 -0.4689  0.3166
   65DG     O19 1491   3.401   3.093   2.007 -0.1281 -0.6307  0.1647
   65DG     H20 1492   3.366   2.906   2.086 -2.0418 -1.6806 -0.1578
   65DG     H21 1493   3.231   2.967   1.991  0.1753 -2.4742  0.7140
   65DG     H22 1494   3.348   3.121   2.207  1.0061 -0.2056  0.4242
   65DG     H23 1495   3.240   3.183   2.079  0.4687  1.0317  1.2926
   66DG      C1 1496   5.022   1.605   2.336  1.1120 -0.1343 -0.1496
   66DG      C2 1497   5.608   2.124   2.680  0.0908  0.1645  0.3395
   66DG      H3 1498   4.917   1.591   2.314  1.5193 -2.4065 -0.8881
   66DG      H4 1499   5.064   1.512   2.374  1.8788  0.8707  1.5884
   66DG      H5 1500   5.072   1.619   2.240  1.1845  1.8647  0.1457
   66DG      H6 1501   5.568   2.191   2.756  1.3723  0.3990  0.8322
   66DG      H7 1502   5.712   2.104   2.706  0.4613 -1.3213 -2.0189
   66DG      H8 1503   5.589   2.151   2.576 -1.7867 -1.4812  0.1808
   66DG      O9 1504   5.052   1.719   2.417 -0.3718  0.5827 -0.2848
   66DG     O10 1505   5.540   2.007   2.704  0.1074  0.3808 -0.1249
   66DG     C11 1506   5.183   1.718   2.470 -0.0465 -0.1779  0.3710
   66DG     C12 1507   5.558   1.892   2.628 -0.3337 -0.0934 -0.3163
   66DG     H13 1508   5.253   1.699   2.388  0.4758  1.1811  0.4861
   66DG     H14 1509   5.193   1.636   2.542  1.1604 -0.7547 -0.3980
   66DG     H15 1510   5.561   1.807   2.696  0.3462  0.4346  0.3285
   66DG     H16 1511   5.659   1.892   2.585  0.5266  1.7325  1.5818
   66DG     C17 1512   5.202   1.849   2.550 -0.3750 -0.7749 -0.7639
   66DG     C18 1513   5.443   1.870   2.534 -0.1177 -0.2510 -0.2215
   66DG     O19 1514   5.327   1.843   2.621 -0.0466 -0.1250 -0.5071
   66DG     H20 1515   5.133   1.848   2.634  0.3966  0.1026 -0.0960
   66DG     H21 1516   5.193   1.943   2.496  1.8355 -0.3557 -0.5339
   66DG     H22 1517   5.427   1.961   2.475 -0.1174  0.2273  0.5037
   66DG     H23 1518   5.457   1.784   2.469  0.0168 -0.3364 -0.0777
   67DG      C1 1519   4.125   5.220   0.073  0.1199  1.2420  0.1098
   67DG      C2 1520   3.662   5.216  -0.448 -0.0844 -0.5675 -0.1991
   67DG      H3 1521   4.202   5.286   0.111  0.1313 -0.2016  2.8783
   67DG      H4 1522   4.168   5.127   0.037 -0.6697  0.0870  1.9685
   67DG      H5 1523   4.093   5.206   0.177 -0.1749  0.3377 -0.0936
   67DG      H6 1524   3.555   5.222  -0.469 -0.0219 -1.5017 -0.8605
   67DG      H7 1525   3.713   5.265  -0.532 -0.2826  0.4054  0.2357
   67DG      H8 1526   3.696   5.113  -0.456  1.5742  0.0107 -1.1791
   67DG      O9 1527   4.015   5.289   0.004  0.2310  0.0009 -0.4962
   67DG     O10 1528   3.712   5.276  -0.329 -0.2667 -0.0471 -0.5768
   67DG     C11 1529   3.933   5.356   0.101  0.2657  0.0538 -0.1416
   67DG     C12 1530   3.626   5.379  -0.278  0.3400  0.0721  0.2654
   67DG     H13 1531   3.984   5.421   0.172  0.5586 -0.6976  0.3512
   67DG     H14 1532   3.868   5.280   0.145 -0.8504  0.4684 -1.0226
   67DG     H15 1533   3.541   5.330  -0.231 -0.2969 -0.1155 -1.0326
   67DG     H16 1534   3.587   5.440  -0.359  3.0073  0.2676 -0.9800
   67DG     C17 1535   3.839   5.450   0.018  0.8716 -1.1056  0.7640
   67DG     C18 1536   3.690   5.464  -0.170 -0.3959  0.6708  0.7252
   67DG     O19 1537   3.752   5.380  -0.077 -0.3510 -0.1558  0.4823
   67DG     H20 1538   3.910   5.514  -0.033  0.5561 -1.4898 -0.1676
   67DG     H21 1539   3.787   5.514   0.090 -0.1645 -0.3371 -0.6140
   67DG     H22 1540   3.750   5.540  -0.221 -0.8508  0.2706 -0.4497
   67DG     H23 1541   3.613   5.510  -0.108  1.0291  2.0942  1.5193
   68DG      C1 1542   1.074   4.839   4.222  0.2592  0.4355  0.6584
   68DG      C2 1543   1.220   5.726   4.278  0.3947 -0.1700 -0.0501
   68DG      H3 1544   1.153   4.796   4.284 -1.0800 -1.9724  0.8372
   68DG      H4 1545   1.047   4.758   4.154  2.1729 -0.2254  0.6308
   68DG      H5 1546   0.988   4.833   4.289  0.4288  0.3040  0.8653
   68DG      H6 1547   1.171   5.669   4.198 -1.2861 -0.2925  1.0314
   68DG      H7 1548   1.144   5.761   4.348  0.1974 -2.3866  0.9327
   68DG      H8 1549   1.284   5.804   4.237 -0.2361  1.3900  1.8517
   68DG      O9 1550   1.105   4.962   4.160 -0.1760 -0.2992  0.2973
   68DG     O10 1551   1.313   5.636   4.340 -0.2597  0.4021 -0.4858
   68DG     C11 1552   1.129   5.056   4.266  0.3062  0.3802 -0.5876
   68DG     C12 1553   1.250   5.510   4.384 -0.0213 -0.3469 -0.0652
   68DG     H13 1554   1.205   5.034   4.342  1.6367  0.2877 -1.8959
   68DG     H14 1555   1.041   5.065   4.329  1.0674 -1.4153  0.8300
   68DG     H15 1556   1.147   5.517   4.421 -0.7270 -1.8672 -1.6116
   68DG     H16 1557   1.303   5.468   4.470 -0.6836 -0.0785  0.4887
   68DG     C17 1558   1.168   5.187   4.201  0.0197  0.0390  0.4522
   68DG     C18 1559   1.264   5.406   4.271  0.5111  0.3803  0.3610
   68DG     O19 1560   1.188   5.291   4.305  0.3559  0.5737 -0.4145
   68DG     H20 1561   1.109   5.224   4.117  0.7206 -1.6718 -0.8421
   68DG     H21 1562   1.263   5.166   4.153 -0.3092  1.7335 -1.0447
   68DG     H22 1563   1.213   5.446   4.184 -0.9980  1.2184  1.5885
   68DG     H23 1564   1.366   5.377   4.247 -0.3978 -2.4527 -0.4981
   69DG      C1 1565   1.339   2.758   3.248 -0.0387  0.5845 -0.4961
   69DG      C2 1566   1.427   2.135   3.321 -0.0332 -0.2739 -0.1965
   69DG      H3 1567   1.373   2.821   3.165 -0.4184 -1.3099 -2.1439
   69DG      H4 1568   1.338   2.814   3.342  0.6360 -1.3463  0.7148
   69DG      H5 1569   1.233   2.750   3.227 -0.2058 -0.8998  0.7223
   69DG      H6 1570   1.445   2.139   3.429  0.6529  2.6013 -0.3346
   69DG      H7 1571   1.319   2.138   3.305  0.0047  0.5884 -0.3511
   69DG      H8 1572   1.474   2.040   3.297 -1.4458 -1.0234 -0.1336
   69DG      O9 1573   1.401   2.634   3.256  0.2902  0.0767  0.2184
   69DG     O10 1574   1.487   2.247   3.256 -0.5861  0.2692 -1.0804
   69DG     C11 1575   1.533   2.661   3.294 -0.3342  0.1259 -0.0817
   69DG     C12 1576   1.637   2.247   3.253  0.0668 -0.5448 -0.1163
   69DG     H13 1577   1.536   2.714   3.390 -0.8505 -0.8836  0.5041
   69DG     H14 1578   1.578   2.718   3.213  0.1247 -1.4397 -0.9659
   69DG     H15 1579   1.675   2.149   3.226  1.6110 -0.7100  2.2882
   69DG     H16 1580   1.679   2.275   3.350 -1.6365  0.4063  0.3837
   69DG     C17 1581   1.611   2.537   3.302  0.3492 -0.5584 -0.3066
   69DG     C18 1582   1.681   2.360   3.154  0.0275 -0.3935 -0.0485
   69DG     O19 1583   1.603   2.482   3.172  0.4727  0.3137 -0.6768
   69DG     H20 1584   1.567   2.476   3.381  0.1705  1.0931  0.9130
   69DG     H21 1585   1.713   2.554   3.337 -0.1917  2.3035  0.0451
   69DG     H22 1586   1.786   2.385   3.170  0.3307 -0.7807 -1.3478
   69DG     H23 1587   1.657   2.335   3.051 -1.0195 -0.4130  0.1833
   70DG      C1 1588   4.132   0.621   5.143  0.0518 -0.1679 -0.0998
   70DG      C2 1589   4.050   1.337   5.206 -0.3907  0.0463  0.1844
   70DG      H3 1590   4.084   0.630   5.240  4.3446 -0.3932  2.3174
   70DG      H4 1591   4.202   0.536   5.145  1.4910  0.7942 -3.2597
   70DG      H5 1592   4.060   0.598   5.064 -2.8128  0.7430  2.0772
   70DG      H6 1593   4.092   1.435   5.228  1.5907 -0.1390 -2.3276
   70DG      H7 1594   3.991   1.330   5.115 -1.0832 -2.1101  0.7446
   70DG      H8 1595   3.982   1.318   5.289 -0.8157  0.2943 -0.1005
   70DG      O9 1596   4.210   0.735   5.135  0.3357 -0.1246  0.1330
   70DG     O10 1597   4.156   1.245   5.190 -0.0190  0.1014  0.0109
   70DG     C11 1598   4.289   0.761   5.253  0.6966 -0.3630 -0.0368
   70DG     C12 1599   4.254   1.245   5.292 -0.8032  0.2780 -0.7561
   70DG     H13 1600   4.360   0.679   5.259  0.2370 -0.7594  0.0353
   70DG     H14 1601   4.234   0.767   5.346  0.2240  2.3682 -0.4026
   70DG     H15 1602   4.210   1.237   5.392  2.7884  1.2021  1.0484
   70DG     H16 1603   4.295   1.346   5.304  2.9859 -1.4423  3.6217
   70DG     C17 1604   4.370   0.890   5.234  0.0676 -0.2184 -0.3905
   70DG     C18 1605   4.362   1.137   5.267  0.3216 -0.2099  0.6763
   70DG     O19 1606   4.293   1.010   5.258 -0.3816 -0.5770  1.3004
   70DG     H20 1607   4.421   0.890   5.138  2.2219 -0.3390  0.6855
   70DG     H21 1608   4.440   0.881   5.317  1.8590 -2.2021 -2.0298
   70DG     H22 1609   4.420   1.150   5.176 -0.6164 -0.1529  0.0718
   70DG     H23 1610   4.432   1.135   5.351 -0.9679 -0.8639  1.7806
   71DG      C1 1611   1.292   1.946   0.618 -0.2351  0.5040 -0.0334
   71DG      C2 1612   0.681   2.354   0.341  0.3124 -0.2621 -0.0579
   71DG      H3 1613   1.214   1.872   0.599 -0.7729  0.8646  0.7385
   71DG      H4 1614   1.288   1.962   0.726  0.3037 -0.3024  0.1214
   71DG      H5 1615   1.388   1.903   0.590 -0.1372  0.4508  0.3759
   71DG      H6 1616   0.627   2.283   0.279 -1.3515  0.5383  0.4198
   71DG      H7 1617   0.633   2.361   0.439 -1.8974  0.0087 -1.0847
   71DG      H8 1618   0.662   2.451   0.294 -0.3116 -0.1594  0.3855
   71DG      O9 1619   1.254   2.063   0.557  0.0083  0.1603  0.3762
   71DG     O10 1620   0.822   2.316   0.337  0.0306 -0.0897  0.2665
   71DG     C11 1621   1.271   2.054   0.412  0.0477 -0.2398  0.7222
   71DG     C12 1622   0.854   2.207   0.428  0.5686 -0.0253 -0.0641
   71DG     H13 1623   1.207   1.973   0.377  0.6792 -0.0155 -1.0445
   71DG     H14 1624   1.374   2.030   0.386 -0.4990  0.3982 -2.4626
   71DG     H15 1625   0.770   2.138   0.436 -1.0186  2.0219  2.2815
   71DG     H16 1626   0.866   2.252   0.527 -0.7663  0.3270 -0.0407
   71DG     C17 1627   1.218   2.186   0.345 -0.7968  0.1776  0.7096
   71DG     C18 1628   0.986   2.147   0.382  0.6035 -0.2472  0.0338
   71DG     O19 1629   1.096   2.232   0.392 -0.1498 -0.5334 -0.4027
   71DG     H20 1630   1.211   2.170   0.238  1.9708  0.8851  0.3415
   71DG     H21 1631   1.292   2.266   0.347 -1.6068  1.0832 -1.8344
   71DG     H22 1632   1.006   2.061   0.445 -2.3124 -2.7319 -2.1635
   71DG     H23 1633   0.967   2.107   0.282  2.4500  3.3378 -1.9679
   72DG      C1 1634   1.231   5.430   0.835 -0.0813  0.7845  0.4465
   72DG      C2 1635   0.589   5.142   0.707 -0.1428 -0.3008 -0.0621
   72DG      H3 1636   1.299   5.475   0.762  0.4069 -0.2798  0.2247
   72DG      H4 1637   1.299   5.381   0.905 -0.2154 -0.4104 -0.2236
   72DG      H5 1638   1.180   5.515   0.880 -0.7272  0.2686  0.7071
   72DG      H6 1639   0.547   5.110   0.611  0.1636  1.4046 -0.8069
   72DG      H7 1640   0.551   5.084   0.791 -0.0346 -1.5048 -0.8186
   72DG      H8 1641   0.560   5.246   0.719 -0.8840 -0.3831 -0.9790
   72DG      O9 1642   1.148   5.340   0.765 -0.0803  0.5681  0.2282
   72DG     O10 1643   0.727   5.131   0.708 -0.3357  0.5627  0.2710
   72DG     C11 1644   1.218   5.229   0.705  0.5100 -0.6958  0.2708
   72DG     C12 1645   0.774   5.000   0.686 -0.1551 -0.8753  0.3068
   72DG     H13 1646   1.266   5.173   0.785  0.2387  1.9815  2.5072
   72DG     H14 1647   1.304   5.261   0.647 -0.8417 -0.2569 -1.5634
   72DG     H15 1648   0.717   4.946   0.611  0.5624 -0.1449 -0.7933
   72DG     H16 1649   0.774   4.936   0.775  0.5163 -0.9026  0.2936
   72DG     C17 1650   1.116   5.145   0.624  0.2426  0.2156 -0.3100
   72DG     C18 1651   0.920   5.003   0.638  0.3013 -0.8130  1.0598
   72DG     O19 1652   0.996   5.111   0.691  0.2035  0.4479 -1.0630
   72DG     H20 1653   1.173   5.056   0.597  0.9473  0.2590  0.9617
   72DG     H21 1654   1.086   5.181   0.526 -0.7254 -0.7700 -0.3966
   72DG     H22 1655   0.971   4.908   0.658  1.9595 -0.9008 -2.7075
   72DG     H23 1656   0.932   5.007   0.530 -0.2347  1.4752  1.0333
   73DG      C1 1657   1.187   1.056   4.090 -0.2726  0.2086  0.5372
   73DG      C2 1658   1.158   1.773   4.424  0.3019  0.1156  0.1935
   73DG      H3 1659   1.079   1.054   4.105 -1.0103  3.2522 -2.8761
   73DG      H4 1660   1.217   0.961   4.133 -1.0907  0.7728  2.4636
   73DG      H5 1661   1.200   1.067   3.982 -0.1677 -2.0610  0.2761
   73DG      H6 1662   1.237   1.832   4.471  1.5889  0.2870 -2.0326
   73DG      H7 1663   1.126   1.820   4.331 -1.5495 -0.8727  0.2743
   73DG      H8 1664   1.070   1.775   4.488  1.1084 -2.0763  1.5145
   73DG      O9 1665   1.265   1.157   4.155 -0.3658 -0.0355  0.1575
   73DG     O10 1666   1.197   1.636   4.422  0.1687 -0.1489 -0.4788
   73DG     C11 1667   1.293   1.144   4.293  0.2225  0.6846 -0.3054
   73DG     C12 1668   1.106   1.546   4.378  0.2637 -0.0807 -0.4674
   73DG     H13 1669   1.348   1.056   4.325  0.4697  1.4432  1.5097
   73DG     H14 1670   1.193   1.130   4.333  0.7510 -0.1635  0.7531
   73DG     H15 1671   1.056   1.577   4.286  0.3491  0.3924 -0.3553
   73DG     H16 1672   1.031   1.543   4.457  1.2309  1.1283  0.5410
   73DG     C17 1673   1.353   1.272   4.351  0.0439 -0.6132 -0.0031
   73DG     C18 1674   1.158   1.401   4.367  0.4182 -0.4286 -0.1589
   73DG     O19 1675   1.291   1.397   4.325  0.6360 -0.3000 -0.3318
   73DG     H20 1676   1.457   1.277   4.318  0.4986 -1.6915  1.2102
   73DG     H21 1677   1.365   1.265   4.459  1.0468  0.2688 -0.0402
   73DG     H22 1678   1.145   1.356   4.465  2.7192 -0.7548  0.0578
   73DG     H23 1679   1.091   1.350   4.297 -0.2062  1.8174 -1.3055
   74DG      C1 1680   0.512   1.648   1.736 -0.3778  0.1113 -0.1001
   74DG      C2 1681   0.485   2.376   1.815 -0.2523 -0.8843  0.1947
   74DG      H3 1682   0.615   1.676   1.759 -1.1677  1.8286  1.6287
   74DG      H4 1683   0.488   1.627   1.632  0.2521 -1.5676  0.0702
   74DG      H5 1684   0.504   1.557   1.795  0.1658  1.5301  2.3258
   74DG      H6 1685   0.579   2.408   1.860 -0.2130 -1.6398  0.6800
   74DG      H7 1686   0.486   2.415   1.713  0.4425  1.2296  0.9689
   74DG      H8 1687   0.408   2.423   1.876  0.5151 -1.7200  1.8605
   74DG      O9 1688   0.425   1.750   1.793 -0.4964  0.6008  0.4943
   74DG     O10 1689   0.473   2.235   1.807 -0.5373  0.3029 -0.6580
   74DG     C11 1690   0.438   1.764   1.930 -0.2825  0.1946  0.3210
   74DG     C12 1691   0.339   2.193   1.782 -0.0541  0.7913 -0.6068
   74DG     H13 1692   0.529   1.812   1.964 -2.1108  1.9847  3.0501
   74DG     H14 1693   0.431   1.669   1.983 -0.2575 -1.8533 -3.0651
   74DG     H15 1694   0.309   2.237   1.687 -0.6699  1.0991 -0.2729
   74DG     H16 1695   0.275   2.242   1.855  1.0261  0.2269  0.7704
   74DG     C17 1696   0.327   1.866   1.964  0.6159  0.2383  0.1663
   74DG     C18 1697   0.325   2.042   1.789  0.6903  0.7196 -0.2670
   74DG     O19 1698   0.354   1.999   1.921  0.0831 -0.1207 -0.0591
   74DG     H20 1699   0.309   1.876   2.071  1.3277  2.8335  0.1133
   74DG     H21 1700   0.228   1.841   1.925 -0.1662  1.6921  1.1223
   74DG     H22 1701   0.225   2.010   1.762  0.3616 -0.2294  1.8067
   74DG     H23 1702   0.396   1.997   1.719  1.2699 -1.3082  1.5009
   75DG      C1 1703   1.950   4.356   4.137  0.0341  0.1021 -0.1684
   75DG      C2 1704   2.256   3.965   4.591 -0.1644 -0.8530  0.1876
   75DG      H3 1705   1.995   4.381   4.041  1.5031 -0.5030  0.3341
   75DG      H4 1706   1.982   4.432   4.208 -0.4834  0.0398  0.1367
   75DG      H5 1707   1.842   4.368   4.134  0.1621  1.2011 -0.8755
   75DG      H6 1708   2.355   3.928   4.614  0.1924 -0.0052  0.0569
   75DG      H7 1709   2.236   4.054   4.652  0.2005 -1.5180  1.3025
   75DG      H8 1710   2.181   3.890   4.616 -0.6050 -0.3847  0.3113
   75DG      O9 1711   1.987   4.230   4.181 -0.3372 -0.0759  0.1358
   75DG     O10 1712   2.255   3.999   4.455 -0.5720  0.1124 -0.0523
   75DG     C11 1713   1.944   4.112   4.108 -0.1820  0.0615 -0.4803
   75DG     C12 1714   2.268   3.883   4.377 -0.0002 -0.6318  0.1051
   75DG     H13 1715   1.940   4.137   4.002 -2.1603 -1.3449 -0.7891
   75DG     H14 1716   1.843   4.078   4.131 -1.2848  2.0538 -2.0280
   75DG     H15 1717   2.191   3.808   4.394 -0.1143 -0.3198  1.0073
   75DG     H16 1718   2.369   3.843   4.385  0.3690  0.4058  0.9011
   75DG     C17 1719   2.043   3.993   4.124  1.2549 -0.5314 -0.2181
   75DG     C18 1720   2.221   3.927   4.242  0.0253  0.0478  0.3605
   75DG     O19 1721   2.107   4.013   4.252 -0.0202  0.6902  0.3141
   75DG     H20 1722   2.119   4.007   4.047  1.2430  0.1329 -0.1128
   75DG     H21 1723   2.000   3.894   4.112  0.4410 -0.5181  2.1219
   75DG     H22 1724   2.294   3.995   4.198  0.2500 -1.0146 -0.9730
   75DG     H23 1725   2.205   3.840   4.179 -1.4394  0.8884 -0.4859
   76DG      C1 1726   5.315   1.916   1.526  0.4226  0.0032 -0.4658
   76DG      C2 1727   5.450   1.282   1.725  0.6009 -0.5857  0.2247
   76DG      H3 1728   5.392   1.931   1.450 -0.1817  0.4384 -1.0002
   76DG      H4 1729   5.278   2.013   1.558 -0.0691 -1.2846  3.4044
   76DG      H5 1730   5.240   1.857   1.473 -0.9395  1.2461  0.0180
   76DG      H6 1731   5.366   1.273   1.655 -1.5078 -0.8204  2.6416
   76DG      H7 1732   5.549   1.299   1.682  1.1832  2.2573  2.3839
   76DG      H8 1733   5.443   1.193   1.788 -1.1024 -0.0062  0.9265
   76DG      O9 1734   5.345   1.836   1.642  0.3788 -0.7409  0.4079
   76DG     O10 1735   5.428   1.410   1.794  0.5732  0.6437 -0.0929
   76DG     C11 1736   5.418   1.907   1.747  0.1444  0.8655  0.1040
   76DG     C12 1737   5.532   1.459   1.879 -0.3642 -0.1327  0.1369
   76DG     H13 1738   5.362   1.995   1.778  0.0962  1.1038 -0.6206
   76DG     H14 1739   5.511   1.939   1.701 -0.8178  1.0453 -1.8420
   76DG     H15 1740   5.625   1.441   1.825 -0.7001  0.0024 -0.5018
   76DG     H16 1741   5.540   1.399   1.970  0.1441  0.8007  0.7289
   76DG     C17 1742   5.435   1.822   1.868  1.1022  0.0387 -0.8737
   76DG     C18 1743   5.499   1.597   1.936  0.3691 -0.3037 -0.1850
   76DG     O19 1744   5.478   1.693   1.837  0.1351  0.4421  0.4254
   76DG     H20 1745   5.338   1.798   1.912  1.1638 -1.1554 -1.3321
   76DG     H21 1746   5.492   1.867   1.948 -2.6374  1.4500  1.2646
   76DG     H22 1747   5.414   1.592   2.003  1.3735 -0.4167  1.1173
   76DG     H23 1748   5.580   1.628   2.001 -0.7022  1.1322  0.5191
   77DG      C1 1749   5.281   2.779   4.279  0.4535  0.0973  0.2838
   77DG      C2 1750   5.373   3.363   3.849 -0.4929  0.5612  0.0233
   77DG      H3 1751   5.187   2.828   4.303  0.7620  0.7353  0.1964
   77DG      H4 1752   5.307   2.713   4.362  2.2475 -3.2670 -2.6438
   77DG      H5 1753   5.271   2.724   4.185  0.2702  1.4059 -0.4826
   77DG      H6 1754   5.284   3.425   3.857 -0.9544  0.1853 -1.8348
   77DG      H7 1755   5.446   3.435   3.815 -1.1657  1.1983 -0.0939
   77DG      H8 1756   5.372   3.275   3.785 -0.2768  0.7960 -0.3013
   77DG      O9 1757   5.384   2.883   4.263  0.6991  0.0920 -0.1289
   77DG     O10 1758   5.400   3.310   3.975  0.0623 -0.6597  0.4323
   77DG     C11 1759   5.385   2.991   4.352 -0.1003  0.0080 -0.1428
   77DG     C12 1760   5.533   3.256   3.984  0.0019  0.3444 -0.3432
   77DG     H13 1761   5.413   2.949   4.449  0.0288 -0.4504 -0.3756
   77DG     H14 1762   5.291   3.042   4.373  0.3080  0.0549  1.7237
   77DG     H15 1763   5.598   3.339   3.957  1.5924 -0.4156  0.9643
   77DG     H16 1764   5.538   3.170   3.917  0.2019  0.6249 -0.6879
   77DG     C17 1765   5.505   3.075   4.312 -0.3984  0.2145  0.4576
   77DG     C18 1766   5.576   3.213   4.127 -0.4999 -0.2504 -0.4528
   77DG     O19 1767   5.486   3.108   4.168 -0.3425 -0.2736  0.6689
   77DG     H20 1768   5.594   3.014   4.327 -1.6409 -1.3794  1.5972
   77DG     H21 1769   5.509   3.170   4.364 -1.2729  0.4969  0.0328
   77DG     H22 1770   5.677   3.171   4.132  0.4354  1.8622 -0.6792
   77DG     H23 1771   5.578   3.296   4.197  2.1516 -1.4761  1.1057
   78DG      C1 1772   4.405   0.721   4.621 -0.3436 -0.5627 -0.1074
   78DG      C2 1773   4.459   0.311   5.100 -0.2423  0.6500  0.2786
   78DG      H3 1774   4.328   0.779   4.673 -0.4431 -0.3295 -0.5122
   78DG      H4 1775   4.369   0.632   4.569 -1.2415 -0.5726  0.5055
   78DG      H5 1776   4.462   0.778   4.548  1.5217  1.1899  2.5345
   78DG      H6 1777   4.505   0.245   5.174  1.5811  0.0203 -1.3210
   78DG      H7 1778   4.406   0.385   5.160  1.6633  0.1271  2.7770
   78DG      H8 1779   4.388   0.253   5.041  0.6273  0.2150 -0.3602
   78DG      O9 1780   4.486   0.670   4.726 -0.4406 -0.4842  0.4760
   78DG     O10 1781   4.558   0.366   5.017  0.1517  0.0088  0.6236
   78DG     C11 1782   4.564   0.765   4.792 -0.4703 -0.8936 -0.3732
   78DG     C12 1783   4.659   0.436   5.088 -0.1718  0.2862 -0.9613
   78DG     H13 1784   4.507   0.857   4.805 -0.0060  0.3033 -5.0129
   78DG     H14 1785   4.648   0.789   4.727  1.6167 -0.4713  2.2912
   78DG     H15 1786   4.728   0.371   5.142 -0.6968 -0.2821 -0.9627
   78DG     H16 1787   4.601   0.500   5.154 -0.5623 -1.5347  0.5123
   78DG     C17 1788   4.632   0.708   4.916  0.4804 -0.0973 -0.1704
   78DG     C18 1789   4.751   0.516   4.990  0.0746  0.4915 -0.6375
   78DG     O19 1790   4.676   0.577   4.882  0.3137 -0.1262 -0.0333
   78DG     H20 1791   4.557   0.709   4.995 -0.4694  2.1830 -1.0240
   78DG     H21 1792   4.710   0.780   4.942 -0.0497  0.7611 -0.8846
   78DG     H22 1793   4.819   0.586   5.038  0.2434 -0.9406  1.3587
   78DG     H23 1794   4.806   0.438   4.937  0.1985 -0.8915  1.4013
   79DG      C1 1795   1.977   0.528   2.764  0.8063 -0.4402 -0.4333
   79DG      C2 1796   1.463   0.967   3.171 -0.1784 -0.0245  0.2595
   79DG      H3 1797   2.005   0.628   2.798  0.5145 -0.3902 -0.3341
   79DG      H4 1798   1.993   0.511   2.657 -0.0002 -1.1076 -0.4563
   79DG      H5 1799   2.025   0.452   2.825  0.7633 -0.9677 -1.0393
   79DG      H6 1800   1.562   0.958   3.216  0.8199  0.9244 -1.6734
   79DG      H7 1801   1.466   1.074   3.151  2.3041  0.1540  1.3163
   79DG      H8 1802   1.383   0.940   3.241  1.2251 -0.0311  1.9418
   79DG      O9 1803   1.837   0.515   2.790  0.7157  0.1068  0.8187
   79DG     O10 1804   1.453   0.888   3.052  0.2667  0.1917 -0.4023
   79DG     C11 1805   1.774   0.625   2.717 -0.0384  0.1485  0.5818
   79DG     C12 1806   1.470   0.754   3.072 -0.2622  0.1630 -0.6177
   79DG     H13 1807   1.785   0.616   2.609 -0.1496 -1.2908  0.6719
   79DG     H14 1808   1.811   0.725   2.739  2.4195 -0.5909  0.1842
   79DG     H15 1809   1.393   0.707   3.133 -0.9189 -1.1048 -2.3584
   79DG     H16 1810   1.555   0.729   3.136 -0.9793 -0.6575  0.0460
   79DG     C17 1811   1.630   0.637   2.752  0.3102  0.5683  1.0892
   79DG     C18 1812   1.478   0.679   2.938 -0.4621 -0.3714  0.4055
   79DG     O19 1813   1.613   0.663   2.893 -0.7075  0.1466 -0.0016
   79DG     H20 1814   1.577   0.543   2.735  0.6666  0.6409 -0.5285
   79DG     H21 1815   1.588   0.717   2.691  0.2895  1.0911  1.7694
   79DG     H22 1816   1.434   0.580   2.947 -1.1684 -0.0785  0.2138
   79DG     H23 1817   1.421   0.729   2.860  0.6969  2.8087  1.4695
   80DG      C1 1818   0.396   4.147   4.788 -0.2061 -0.3149  0.0766
   80DG      C2 1819   1.116   4.352   4.859 -0.5895  0.3829 -0.4029
   80DG      H3 1820   0.306   4.129   4.847 -0.3418 -0.3031 -0.1249
   80DG      H4 1821   0.427   4.055   4.740  2.9487  1.5499 -1.7848
   80DG      H5 1822   0.366   4.219   4.712 -2.3139 -0.9557  0.2251
   80DG      H6 1823   1.162   4.416   4.934  3.9596 -1.6574 -1.1418
   80DG      H7 1824   1.159   4.253   4.868  2.0513  1.1792 -2.8359
   80DG      H8 1825   1.154   4.389   4.764 -0.3820 -1.7561 -1.2026
   80DG      O9 1826   0.511   4.195   4.862 -0.0100 -0.3968  0.2581
   80DG     O10 1827   0.979   4.342   4.857 -0.1910  0.4746  0.0681
   80DG     C11 1828   0.479   4.316   4.934  0.0831 -0.1122 -0.0305
   80DG     C12 1829   0.902   4.462   4.867 -0.5511  0.2826  0.4011
   80DG     H13 1830   0.389   4.299   4.993  0.7819 -3.0808  0.3417
   80DG     H14 1831   0.464   4.396   4.861 -3.9156 -1.6064 -1.0581
   80DG     H15 1832   0.932   4.520   4.779 -0.2236 -1.1358 -0.4593
   80DG     H16 1833   0.933   4.503   4.963  0.7101 -0.3977  0.3150
   80DG     C17 1834   0.595   4.354   5.028 -0.0974 -0.4303 -0.5835
   80DG     C18 1835   0.751   4.431   4.865  0.5279  0.2115 -0.1034
   80DG     O19 1836   0.723   4.345   4.974  0.1095 -0.5577 -0.0101
   80DG     H20 1837   0.591   4.277   5.105 -1.5249  0.9782  0.8219
   80DG     H21 1838   0.573   4.446   5.081  2.0827 -0.3961  0.3562
   80DG     H22 1839   0.689   4.520   4.855 -0.3444 -0.6133 -2.9018
   80DG     H23 1840   0.729   4.381   4.770  0.9067  0.2854 -0.2328
   81DG      C1 1841   4.514   3.633   1.506 -0.0702 -0.1221  0.7896
   81DG      C2 1842   4.469   3.185   1.983 -0.4198 -0.1867  0.4365
   81DG      H3 1843   4.407   3.618   1.499 -0.2713  1.2388  0.6108
   81DG      H4 1844   4.538   3.667   1.405  1.0920  1.8459  1.6624
   81DG      H5 1845   4.523   3.703   1.589  0.2837 -3.4686  3.7672
   81DG      H6 1846   4.473   3.265   2.056 -0.6287 -0.4236  0.7095
   81DG      H7 1847   4.365   3.169   1.954 -0.2659  1.6026 -1.3373
   81DG      H8 1848   4.506   3.095   2.032 -0.5300  0.4841  1.7725
   81DG      O9 1849   4.580   3.511   1.538 -0.2122 -0.4505  0.2487
   81DG     O10 1850   4.545   3.205   1.865 -0.3277 -0.0762  0.2695
   81DG     C11 1851   4.721   3.516   1.522  0.6232 -0.3460 -0.2111
   81DG     C12 1852   4.689   3.216   1.898 -0.3651  0.8123 -1.0078
   81DG     H13 1853   4.759   3.606   1.570  2.2203 -1.8267  1.4533
   81DG     H14 1854   4.749   3.533   1.418  2.5505 -1.3495  0.0981
   81DG     H15 1855   4.721   3.123   1.946  1.9409  2.0301 -0.0498
   81DG     H16 1856   4.701   3.300   1.966 -1.3951  0.3791 -0.2659
   81DG     C17 1857   4.773   3.388   1.587 -0.0249  0.8862  0.3863
   81DG     C18 1858   4.766   3.241   1.771 -0.1168  0.3695 -0.6549
   81DG     O19 1859   4.720   3.366   1.716  0.0454 -0.0021  0.0911
   81DG     H20 1860   4.882   3.401   1.592 -0.1427  1.8552  0.5790
   81DG     H21 1861   4.745   3.302   1.526 -1.8593  1.2098  0.7229
   81DG     H22 1862   4.870   3.238   1.804 -0.9790  0.6097  2.4763
   81DG     H23 1863   4.761   3.159   1.699  1.1112 -1.6164  1.3791
   82DG      C1 1864   3.885   0.266   4.507 -0.0022  0.3265 -0.7643
   82DG      C2 1865   3.947  -0.137   3.905 -0.2827  0.4218 -0.7091
   82DG      H3 1866   3.873   0.364   4.461 -2.6520  0.8011  0.7278
   82DG      H4 1867   3.985   0.245   4.543 -0.1641  0.9882  0.0866
   82DG      H5 1868   3.819   0.267   4.593  1.5236 -0.4460  0.4626
   82DG      H6 1869   3.874  -0.066   3.865 -2.2542 -0.9680  0.2700
   82DG      H7 1870   4.045  -0.126   3.859 -0.9552 -0.8869 -2.5790
   82DG      H8 1871   3.899  -0.232   3.882  0.2619 -0.0033 -0.1254
   82DG      O9 1872   3.824   0.174   4.420  0.4351  0.2431  0.3347
   82DG     O10 1873   3.942  -0.116   4.045 -0.3042 -0.0937 -0.5399
   82DG     C11 1874   3.797   0.043   4.468 -0.0060  0.0716  0.1108
   82DG     C12 1875   4.055  -0.168   4.116  0.1068  1.4780 -0.1976
   82DG     H13 1876   3.713   0.009   4.407  1.5004 -3.6188 -0.1411
   82DG     H14 1877   3.775   0.037   4.575 -1.1311 -2.1331 -0.1757
   82DG     H15 1878   4.140  -0.104   4.093  1.4865 -0.6339 -1.3036
   82DG     H16 1879   4.086  -0.266   4.080 -1.9999 -0.5082  2.8535
   82DG     C17 1880   3.911  -0.060   4.448 -0.7887 -0.1432  0.2593
   82DG     C18 1881   4.016  -0.183   4.263 -0.1609  0.8181 -0.1544
   82DG     O19 1882   3.943  -0.066   4.306  0.5456 -0.2331  0.3090
   82DG     H20 1883   3.876  -0.154   4.491  0.0320 -0.6484 -0.1387
   82DG     H21 1884   4.004  -0.032   4.495 -0.4063  0.0877 -0.6099
   82DG     H22 1885   3.936  -0.258   4.260  0.9269 -0.5335  2.0321
   82DG     H23 1886   4.095  -0.215   4.331 -0.1910 -1.3717 -1.0483
   83DG      C1 1887   3.375   1.159   1.139 -0.7859  0.0443  0.2378
   83DG      C2 1888   2.961   1.680   0.822 -0.8470  0.5397  0.0413
   83DG      H3 1889   3.313   1.202   1.218  1.8334  4.1401  0.3537
   83DG      H4 1890   3.475   1.159   1.182 -1.1827  1.8636  1.2623
   83DG      H5 1891   3.330   1.060   1.129  1.1020 -0.7680 -0.7450
   83DG      H6 1892   2.879   1.616   0.790 -0.0217 -1.4228  1.6548
   83DG      H7 1893   2.925   1.726   0.914 -0.8791  0.4546  0.0709
   83DG      H8 1894   2.955   1.754   0.742  0.1928 -0.5931 -1.1168
   83DG      O9 1895   3.384   1.237   1.015 -0.0058  0.2954  0.4735
   83DG     O10 1896   3.086   1.608   0.847 -0.0317 -0.4428 -0.0256
   83DG     C11 1897   3.443   1.360   1.047  0.4811  0.1075  0.0079
   83DG     C12 1898   3.137   1.532   0.736  0.2657 -0.4549 -0.3403
   83DG     H13 1899   3.543   1.343   1.087 -0.3191 -0.0448  2.0537
   83DG     H14 1900   3.390   1.401   1.133 -0.8287 -0.6156 -0.4263
   83DG     H15 1901   3.183   1.613   0.679  0.8258  0.1943  0.9895
   83DG     H16 1902   3.064   1.476   0.678 -1.0668  1.7979 -0.9347
   83DG     C17 1903   3.451   1.460   0.931  0.3208  0.0072  0.3971
   83DG     C18 1904   3.247   1.452   0.794 -0.6200 -0.3243 -0.2192
   83DG     O19 1905   3.327   1.527   0.890 -0.0239 -0.3008  0.1756
   83DG     H20 1906   3.502   1.408   0.850  2.2620  0.4931  1.2562
   83DG     H21 1907   3.518   1.543   0.952 -0.3113  0.6808 -0.1616
   83DG     H22 1908   3.200   1.367   0.845 -1.9594  0.0161 -0.8706
   83DG     H23 1909   3.308   1.405   0.717  0.3957  0.0386  0.3347
   84DG      C1 1910   4.325   3.170   2.261  0.4130  0.1850 -0.0534
   84DG      C2 1911   3.797   2.709   2.201  0.7854  0.0710 -0.4080
   84DG      H3 1912   4.376   3.236   2.331 -0.0715  0.3007  0.1938
   84DG      H4 1913   4.290   3.239   2.184  0.3741  2.1996  1.6856
   84DG      H5 1914   4.403   3.104   2.224  0.4186  0.3419 -0.3223
   84DG      H6 1915   3.804   2.601   2.209 -0.0605  0.0444  0.1716
   84DG      H7 1916   3.695   2.736   2.229  0.6056 -1.6511  0.7694
   84DG      H8 1917   3.823   2.734   2.098  1.8256  0.0465 -0.1646
   84DG      O9 1918   4.221   3.087   2.320 -0.1251 -0.9039 -0.0090
   84DG     O10 1919   3.895   2.777   2.277 -0.1018 -0.1575 -0.1893
   84DG     C11 1920   4.271   3.008   2.432 -0.0147 -0.2756 -0.4849
   84DG     C12 1921   3.908   2.727   2.412 -0.1475 -0.0695  0.1123
   84DG     H13 1922   4.339   3.072   2.487 -1.3227  0.8939 -0.1685
   84DG     H14 1923   4.324   2.922   2.393  1.0427  0.1898 -0.1057
   84DG     H15 1924   3.965   2.634   2.403 -1.7298 -0.9749 -0.9226
   84DG     H16 1925   3.813   2.693   2.451 -1.2405  1.7173 -0.8801
   84DG     C17 1926   4.165   2.964   2.538 -0.0733 -1.0863  0.0708
   84DG     C18 1927   3.979   2.824   2.517  0.4226  0.0360  0.7560
   84DG     O19 1928   4.091   2.887   2.451 -0.1417  0.0898  0.1008
   84DG     H20 1929   4.112   3.053   2.571  1.4197 -0.1270 -0.0107
   84DG     H21 1930   4.209   2.911   2.622  1.7603 -0.4476 -0.4362
   84DG     H22 1931   3.914   2.908   2.541  1.8791  1.7689 -1.0470
   84DG     H23 1932   4.002   2.779   2.613 -0.6687  0.5437  1.2753
   85DG      C1 1933   2.398   0.083   3.890 -0.6792  0.0723 -0.3784
   85DG      C2 1934   2.982   0.149   4.460 -0.1013  0.0001 -0.1935
   85DG      H3 1935   2.329   0.104   3.971  1.3621 -1.6091  1.9654
   85DG      H4 1936   2.360  -0.004   3.837  2.6558 -1.4938 -0.4568
   85DG      H5 1937   2.399   0.170   3.824 -3.4134  0.5592  0.0807
   85DG      H6 1938   3.089   0.160   4.478  0.1125 -2.2290  0.1225
   85DG      H7 1939   2.919   0.237   4.479 -0.9991 -0.4517 -0.9839
   85DG      H8 1940   2.953   0.072   4.532 -1.2000 -1.4028 -2.0534
   85DG      O9 1941   2.517   0.054   3.958 -0.3872 -0.3806 -0.0202
   85DG     O10 1942   2.965   0.098   4.328  0.1881 -0.0544 -0.7440
   85DG     C11 1943   2.603  -0.041   3.892  0.6128  0.3648 -0.0738
   85DG     C12 1944   2.841   0.029   4.309 -0.2528 -0.1685  0.3137
   85DG     H13 1945   2.622  -0.027   3.786 -0.8571 -2.0881 -0.7542
   85DG     H14 1946   2.564  -0.143   3.893  0.8442  0.2721 -0.4718
   85DG     H15 1947   2.765   0.107   4.299 -0.7589 -0.7604 -0.6731
   85DG     H16 1948   2.818  -0.038   4.391 -1.9430  1.8959  1.6323
   85DG     C17 1949   2.740  -0.047   3.962  1.1645  0.1856 -0.3172
   85DG     C18 1950   2.855  -0.032   4.167 -0.1429  0.6085  0.2462
   85DG     O19 1951   2.731  -0.039   4.104 -0.2900 -0.3197  0.3230
   85DG     H20 1952   2.804   0.033   3.925  0.6185  1.3898  1.2343
   85DG     H21 1953   2.777  -0.146   3.938  0.6585  0.0748 -0.6366
   85DG     H22 1954   2.925   0.022   4.103  0.7334 -0.5845  0.1815
   85DG     H23 1955   2.882  -0.137   4.171 -0.2452  0.5014 -1.2836
   86DG      C1 1956   2.578   3.035   1.689  0.2150  0.0649 -0.3193
   86DG      C2 1957   2.242   3.386   1.509  0.2931  0.4206 -0.0794
   86DG      H3 1958   2.661   3.028   1.759 -0.2659 -0.5787  0.2019
   86DG      H4 1959   2.561   2.942   1.635 -2.9141 -0.0438  0.6403
   86DG      H5 1960   2.494   3.036   1.759  0.4254 -1.8298  0.0100
   86DG      H6 1961   2.201   3.487   1.501  2.5716  1.2857 -2.5849
   86DG      H7 1962   2.152   3.325   1.516 -0.5129  1.6584  0.9252
   86DG      H8 1963   2.305   3.364   1.595  0.9693 -2.7977 -1.2614
   86DG      O9 1964   2.594   3.142   1.598  0.1458  0.0082 -0.3957
   86DG     O10 1965   2.322   3.346   1.400 -0.5784 -0.0390  0.4909
   86DG     C11 1966   2.615   3.275   1.654  0.0025 -0.3270 -0.2659
   86DG     C12 1967   2.406   3.450   1.343 -0.3424  0.3028 -0.7457
   86DG     H13 1968   2.680   3.269   1.742 -0.4834  0.6620  0.1799
   86DG     H14 1969   2.523   3.325   1.687 -0.9814 -2.1369 -0.1810
   86DG     H15 1970   2.343   3.539   1.336  0.0651  1.3943  4.7028
   86DG     H16 1971   2.435   3.439   1.239  1.5861 -0.1214 -0.1963
   86DG     C17 1972   2.686   3.360   1.549  0.0576  0.2253  0.3941
   86DG     C18 1973   2.532   3.483   1.422 -0.3442 -0.5621  0.1091
   86DG     O19 1974   2.607   3.357   1.431 -0.0531 -0.3482  0.2521
   86DG     H20 1975   2.778   3.318   1.509 -0.9620  0.1121 -2.0440
   86DG     H21 1976   2.710   3.459   1.588 -1.0792  1.7885 -2.4880
   86DG     H22 1977   2.591   3.559   1.371 -0.8023 -1.9209 -2.6670
   86DG     H23 1978   2.506   3.521   1.521  1.3610  1.2303 -0.0765
   87DG      C1 1979   2.566   1.083   1.266  0.2991 -0.5430  0.3305
   87DG      C2 1980   2.984   1.541   1.184 -0.3607  0.2983 -0.1327
   87DG      H3 1981   2.624   1.073   1.358 -0.3349 -3.1642  0.5283
   87DG      H4 1982   2.609   1.028   1.182 -0.5699  0.0485 -0.5319
   87DG      H5 1983   2.468   1.040   1.288 -0.1875  0.8509  0.9817
   87DG      H6 1984   3.013   1.463   1.113 -0.2827  0.6289 -0.4670
   87DG      H7 1985   3.014   1.636   1.140  0.0459  0.1147 -0.2544
   87DG      H8 1986   3.034   1.544   1.281 -0.6663  0.6895  0.0158
   87DG      O9 1987   2.556   1.215   1.224 -0.2391  0.3634  0.0606
   87DG     O10 1988   2.841   1.534   1.196 -0.3424 -0.1159  0.2949
   87DG     C11 1989   2.469   1.298   1.304 -0.2899 -0.5065  0.4685
   87DG     C12 1990   2.772   1.652   1.235 -0.5483 -0.0582  0.1720
   87DG     H13 1991   2.512   1.312   1.403 -0.8733 -0.7901  0.7695
   87DG     H14 1992   2.367   1.261   1.314 -0.6723  0.3082 -0.3184
   87DG     H15 1993   2.774   1.733   1.162  0.9529  1.4251  1.7638
   87DG     H16 1994   2.826   1.689   1.322  0.1841  0.0301 -0.3083
   87DG     C17 1995   2.463   1.442   1.239 -0.7625  0.2601 -0.1200
   87DG     C18 1996   2.620   1.622   1.259 -1.2266 -0.0074  0.0248
   87DG     O19 1997   2.603   1.487   1.241 -0.1153  0.0791  0.2336
   87DG     H20 1998   2.407   1.522   1.287  1.5231  1.8390  0.0783
   87DG     H21 1999   2.425   1.445   1.137 -0.6010 -2.1759 -0.3027
   87DG     H22 2000   2.600   1.661   1.359 -1.1586  0.7241 -0.2404
   87DG     H23 2001   2.557   1.673   1.187  0.0704 -0.0500 -1.1903
   88DG      C1 2002   0.889   2.777   2.837 -0.5740 -0.7024 -0.0198
   88DG      C2 2003   1.416   2.911   2.304 -0.0257 -0.2760 -0.2722
   88DG      H3 2004   0.783   2.754   2.833 -0.3636 -1.6031 -0.4625
   88DG      H4 2005   0.902   2.886   2.833 -4.2149 -0.1461 -0.4320
   88DG      H5 2006   0.905   2.745   2.940  0.1448  0.0264  0.1068
   88DG      H6 2007   1.500   2.867   2.251  0.9602  1.3629 -0.1296
   88DG      H7 2008   1.323   2.879   2.256 -0.5762 -0.4179  0.8658
   88DG      H8 2009   1.422   3.019   2.295 -2.5395 -0.2327 -3.0980
   88DG      O9 2010   0.960   2.705   2.739  0.0924 -0.6316  0.2455
   88DG     O10 2011   1.398   2.866   2.438  0.0419 -0.4237 -0.3640
   88DG     C11 2012   0.924   2.739   2.607 -0.3270 -0.4155  0.6218
   88DG     C12 2013   1.376   2.724   2.450  0.0096  0.2798  0.4886
   88DG     H13 2014   0.917   2.847   2.592  2.0679 -0.4999 -1.6457
   88DG     H14 2015   0.827   2.701   2.575 -1.2898  2.5855 -0.4241
   88DG     H15 2016   1.388   2.692   2.553  0.2346  1.1145  0.7300
   88DG     H16 2017   1.450   2.658   2.404  0.7996 -0.3096  2.5111
   88DG     C17 2018   1.016   2.676   2.504 -0.3316 -0.7755 -0.2730
   88DG     C18 2019   1.234   2.683   2.420 -0.4774  0.1352 -0.3409
   88DG     O19 2020   1.137   2.748   2.500  0.4358 -0.0177 -0.3518
   88DG     H20 2021   0.968   2.667   2.406 -0.2629 -0.0328 -0.3810
   88DG     H21 2022   1.039   2.574   2.534  1.2969  0.0083  1.3149
   88DG     H22 2023   1.215   2.697   2.313  2.2025  1.6994 -0.7029
   88DG     H23 2024   1.232   2.574   2.431 -0.1913  0.2798  1.4046
   89DG      C1 2025   1.319   3.561   4.742  0.2148  0.4941 -0.0400
   89DG      C2 2026   0.841   4.011   4.877  0.1295  0.4228 -0.3476
   89DG      H3 2027   1.334   3.459   4.708 -2.2077 -0.1683  0.6645
   89DG      H4 2028   1.313   3.566   4.851 -2.1985  2.5329 -0.1628
   89DG      H5 2029   1.393   3.629   4.701 -1.1824  1.6916 -0.6718
   89DG      H6 2030   0.741   4.055   4.878 -0.4322 -0.7933 -0.9334
   89DG      H7 2031   0.870   3.979   4.977 -1.1222  1.0845  0.2540
   89DG      H8 2032   0.910   4.080   4.828  0.3082  0.2283 -0.3693
   89DG      O9 2033   1.188   3.604   4.715 -0.2217  0.8622  0.3378
   89DG     O10 2034   0.840   3.890   4.800  0.0233  0.3466  0.5075
   89DG     C11 2035   1.159   3.589   4.573 -0.8084  0.2276 -0.6014
   89DG     C12 2036   0.790   3.892   4.664  0.8328  0.1290 -0.3389
   89DG     H13 2037   1.186   3.489   4.542  0.8882 -0.0095  1.3653
   89DG     H14 2038   1.230   3.650   4.516 -2.1467  1.1292 -1.3583
   89DG     H15 2039   0.840   3.975   4.614 -1.0822  1.3112 -0.4178
   89DG     H16 2040   0.681   3.905   4.668  0.7339 -0.8645  0.9271
   89DG     C17 2041   1.009   3.618   4.548  0.6421  0.9929  0.2078
   89DG     C18 2042   0.830   3.767   4.579 -0.4848  0.1438  0.2347
   89DG     O19 2043   0.971   3.751   4.604 -0.5852 -0.1008  0.3934
   89DG     H20 2044   0.948   3.532   4.575 -0.8115  1.4394 -1.5049
   89DG     H21 2045   0.983   3.609   4.443 -0.2747 -0.3505  0.5271
   89DG     H22 2046   0.765   3.685   4.610 -1.7046  1.7919  2.3269
   89DG     H23 2047   0.808   3.780   4.473  2.6062  1.2951 -0.3749
   90DG      C1 2048   4.339   1.967   3.957 -0.0914  0.2946 -0.2467
   90DG      C2 2049   4.335   1.834   3.316 -0.1126  0.3309 -0.1335
   90DG      H3 2050   4.265   1.938   4.032  0.5704 -1.3070 -0.1701
   90DG      H4 2051   4.290   1.963   3.859  1.3173 -0.3251 -0.9504
   90DG      H5 2052   4.373   2.071   3.960  2.4719 -0.4763  0.0686
   90DG      H6 2053   4.262   1.766   3.360  0.6398 -0.6425 -0.3275
   90DG      H7 2054   4.300   1.937   3.323 -1.6536 -0.1763 -0.0423
   90DG      H8 2055   4.346   1.798   3.214  1.1001  1.7620 -0.5435
   90DG      O9 2056   4.459   1.886   3.972 -0.6913 -0.1521 -0.3502
   90DG     O10 2057   4.461   1.822   3.368  0.0483  0.1325  0.4405
   90DG     C11 2058   4.464   1.746   3.959 -0.0160 -0.1172  0.8012
   90DG     C12 2059   4.476   1.862   3.498 -0.3516 -0.2404 -0.4424
   90DG     H13 2060   4.395   1.720   4.040 -1.3323  2.0337  0.4551
   90DG     H14 2061   4.566   1.713   3.979 -0.0554  0.0712  1.3267
   90DG     H15 2062   4.419   1.952   3.519 -2.0613 -1.6467  1.1988
   90DG     H16 2063   4.582   1.889   3.508 -0.4710  0.5111 -1.1086
   90DG     C17 2064   4.419   1.697   3.820 -0.4833 -0.4956 -0.6567
   90DG     C18 2065   4.433   1.753   3.594  0.3452  0.1385 -0.7692
   90DG     O19 2066   4.476   1.788   3.723  0.2582  0.0932 -0.2467
   90DG     H20 2067   4.310   1.705   3.820 -0.4393  0.1256 -0.6236
   90DG     H21 2068   4.440   1.590   3.810  0.4515 -0.4536  0.6073
   90DG     H22 2069   4.327   1.728   3.588  0.4747 -0.9161  0.7473
   90DG     H23 2070   4.485   1.660   3.570 -1.7910 -1.3991  0.1695
   91DG      C1 2071   3.615   3.872   0.210 -0.2878 -0.4421 -0.5312
   91DG      C2 2072   4.395   3.746   0.013 -0.1213  0.4493  0.1629
   91DG      H3 2073   3.617   3.974   0.248  0.6096 -0.1150 -1.4082
   91DG      H4 2074   3.667   3.820   0.290  0.3576 -1.4477 -1.5711
   91DG      H5 2075   3.511   3.839   0.205  0.0755 -1.5892 -0.7715
   91DG      H6 2076   4.432   3.845   0.040  1.2377  0.1014 -0.3766
   91DG      H7 2077   4.403   3.669   0.089 -0.3287 -0.8772 -1.1175
   91DG      H8 2078   4.470   3.707  -0.056 -0.1212  2.2476 -0.9239
   91DG      O9 2079   3.687   3.855   0.089 -0.5102 -0.1395 -0.0708
   91DG     O10 2080   4.252   3.747  -0.022 -0.4853 -0.0112 -0.8702
   91DG     C11 2081   3.820   3.898   0.095  0.3578 -0.6801 -0.7487
   91DG     C12 2082   4.237   3.840  -0.133  0.7162  0.0454 -0.2520
   91DG     H13 2083   3.861   3.862   0.189 -0.8809 -0.4203 -0.0945
   91DG     H14 2084   3.825   4.007   0.093  1.9839 -0.6933  0.7393
   91DG     H15 2085   4.287   3.796  -0.219 -0.1086 -0.3194 -0.5503
   91DG     H16 2086   4.269   3.944  -0.119  1.2357 -0.3395  1.6402
   91DG     C17 2087   3.882   3.858  -0.037  0.7988 -0.0186 -0.0671
   91DG     C18 2088   4.088   3.847  -0.168 -0.0974  0.0875  0.0022
   91DG     O19 2089   4.019   3.897  -0.058  0.1958  1.0080 -0.2681
   91DG     H20 2090   3.818   3.890  -0.120  1.0203 -1.3374 -0.7762
   91DG     H21 2091   3.881   3.749  -0.032 -1.1012 -0.2040 -2.3987
   91DG     H22 2092   4.076   3.908  -0.258 -1.0366 -1.3557 -0.8907
   91DG     H23 2093   4.049   3.747  -0.187 -0.9543  0.5548 -0.7926
   92DG      C1 2094   1.337   0.372   3.170 -0.6282  0.1263  0.3708
   92DG      C2 2095   1.163   0.316   3.833  0.4127  0.8496  0.8179
   92DG      H3 2096   1.370   0.303   3.092 -1.9581  0.1155 -0.2021
   92DG      H4 2097   1.411   0.376   3.251  0.3730  0.1867 -0.5178
   92DG      H5 2098   1.320   0.468   3.123  0.2796 -0.7384 -1.8525
   92DG      H6 2099   1.142   0.422   3.817  2.9017  1.1230 -1.2710
   92DG      H7 2100   1.118   0.278   3.924  1.0882 -0.9141  0.4531
   92DG      H8 2101   1.271   0.312   3.839  0.4015 -1.4375  0.3974
   92DG      O9 2102   1.220   0.325   3.238  0.0575 -0.2740  0.1943
   92DG     O10 2103   1.132   0.235   3.715 -0.1013 -1.0740  0.0575
   92DG     C11 2104   1.209   0.186   3.265 -0.5764 -0.5344  0.0205
   92DG     C12 2105   0.999   0.264   3.676 -0.7867  0.6904 -0.4781
   92DG     H13 2106   1.291   0.179   3.336 -1.8495  0.9168  1.7287
   92DG     H14 2107   1.225   0.122   3.178  0.0649 -1.4416  0.7954
   92DG     H15 2108   0.987   0.372   3.665 -1.2279  1.2418  3.6321
   92DG     H16 2109   0.924   0.240   3.751 -0.2726 -0.5511 -0.3472
   92DG     C17 2110   1.079   0.144   3.336 -0.6238 -0.1725 -0.2825
   92DG     C18 2111   0.966   0.189   3.548  0.3671  0.8036  0.2206
   92DG     O19 2112   1.087   0.190   3.471  0.1610  0.1558 -0.5533
   92DG     H20 2113   1.054   0.039   3.327  0.8463 -0.6913  1.0393
   92DG     H21 2114   1.005   0.200   3.280 -0.3687 -0.2555 -0.7048
   92DG     H22 2115   0.930   0.089   3.572  0.2699  0.8643  0.3299
   92DG     H23 2116   0.880   0.231   3.495 -1.3891 -2.9553 -0.2737
   93DG      C1 2117   2.883   5.290   3.628  0.0401  0.1863 -0.3568
   93DG      C2 2118   2.163   5.279   3.935 -0.0902  0.0361 -0.2968
   93DG      H3 2119   2.905   5.317   3.525  0.1048  0.0082 -0.3905
   93DG      H4 2120   2.962   5.235   3.678 -0.6764  0.4291  1.1060
   93DG      H5 2121   2.858   5.391   3.663 -0.3545 -0.1796  0.4651
   93DG      H6 2122   2.063   5.253   3.901 -0.1861  1.5709 -1.2785
   93DG      H7 2123   2.183   5.246   4.037 -1.8443 -1.4568 -0.3803
   93DG      H8 2124   2.153   5.387   3.934  0.7245  0.2179  2.2124
   93DG      O9 2125   2.771   5.200   3.635  0.0048  0.6054 -0.2169
   93DG     O10 2126   2.254   5.247   3.832  0.1529 -0.3091 -0.5531
   93DG     C11 2127   2.667   5.241   3.546  0.9341  0.4306 -0.2301
   93DG     C12 2128   2.293   5.112   3.827 -0.1626 -0.1896  0.0285
   93DG     H13 2129   2.694   5.238   3.440  0.3364 -0.9683 -0.3586
   93DG     H14 2130   2.628   5.340   3.567 -0.1830  0.5336 -2.4952
   93DG     H15 2131   2.206   5.047   3.841 -1.1255  1.1126  0.2271
   93DG     H16 2132   2.356   5.090   3.913 -1.6200  0.2759  1.2546
   93DG     C17 2133   2.545   5.144   3.555  0.1736 -0.4883 -0.0533
   93DG     C18 2134   2.358   5.077   3.693  0.1572 -0.1874 -0.1470
   93DG     O19 2135   2.474   5.171   3.674  0.3061  0.0078  0.2693
   93DG     H20 2136   2.579   5.040   3.550 -2.2028 -1.2634 -2.1462
   93DG     H21 2137   2.479   5.160   3.470  2.0509 -2.3093 -1.9626
   93DG     H22 2138   2.392   4.973   3.688  0.6987  0.0177 -0.9552
   93DG     H23 2139   2.274   5.103   3.628 -1.0576 -1.0086  1.0504
   94DG      C1 2140   4.280   0.464   2.638  0.1192  0.5846 -1.2035
   94DG      C2 2141   4.018   0.052   3.123  0.1631  0.1507  0.5134
   94DG      H3 2142   4.193   0.416   2.594 -1.1755  0.9789  0.7908
   94DG      H4 2143   4.330   0.528   2.564  0.9216  1.2068 -0.1479
   94DG      H5 2144   4.236   0.535   2.708  3.3015 -1.3667  3.2157
   94DG      H6 2145   3.916   0.012   3.120  0.5586 -1.1966  2.5408
   94DG      H7 2146   4.019   0.102   3.220 -0.2126 -1.5439  1.4428
   94DG      H8 2147   4.028   0.122   3.040 -2.3212  0.0039  0.0090
   94DG      O9 2148   4.361   0.368   2.705  0.7106  0.3259 -0.1650
   94DG     O10 2149   4.114  -0.060   3.116  0.0072 -0.2326  0.4083
   94DG     C11 2150   4.285   0.299   2.803  0.6441 -0.4228  0.0029
   94DG     C12 2151   4.244  -0.023   3.160 -0.1578 -0.1594  0.0703
   94DG     H13 2152   4.194   0.247   2.772 -0.5418  1.4303  0.1747
   94DG     H14 2153   4.250   0.374   2.874  0.3150  0.0138 -0.6128
   94DG     H15 2154   4.289  -0.119   3.185  1.0592 -0.0856 -1.6921
   94DG     H16 2155   4.253   0.025   3.258  0.5697 -1.8957  0.9058
   94DG     C17 2156   4.371   0.185   2.868 -0.7926  0.0726  0.0333
   94DG     C18 2157   4.348   0.029   3.057 -0.0428 -0.2540  0.2367
   94DG     O19 2158   4.302   0.148   2.987 -0.0217 -0.6918  0.3538
   94DG     H20 2159   4.476   0.208   2.889  0.4620 -2.5735 -2.5073
   94DG     H21 2160   4.396   0.100   2.804  3.3508  0.4383  0.8502
   94DG     H22 2161   4.442   0.054   3.105 -0.3723  1.7557 -0.0718
   94DG     H23 2162   4.369  -0.047   2.982 -0.8275 -0.3409  0.0947
   95DG      C1 2163   1.942   0.152   1.954  0.6757 -0.0321 -0.1937
   95DG      C2 2164   1.232   0.520   1.896 -0.4211  0.5467 -0.1771
   95DG      H3 2165   1.917   0.105   2.049 -1.0174 -1.5052 -1.2807
   95DG      H4 2166   2.045   0.187   1.942 -0.1086  2.1321 -1.0174
   95DG      H5 2167   1.919   0.075   1.880 -1.6083 -1.5727  1.9685
   95DG      H6 2168   1.210   0.624   1.873  1.6094  0.5381 -2.6685
   95DG      H7 2169   1.250   0.470   1.800  1.0246 -0.6382  0.6715
   95DG      H8 2170   1.143   0.484   1.947 -1.0942  2.9200  0.4339
   95DG      O9 2171   1.852   0.260   1.948 -0.5553  0.4967 -0.4993
   95DG     O10 2172   1.339   0.502   1.994  0.3080  0.4307  0.1015
   95DG     C11 2173   1.725   0.240   1.884  0.6278 -0.1200  0.5269
   95DG     C12 2174   1.454   0.588   1.965  0.6817  0.5579  0.5081
   95DG     H13 2175   1.670   0.158   1.933  1.5417 -0.3631  1.1758
   95DG     H14 2176   1.741   0.214   1.780 -0.2064  1.5745 -0.0494
   95DG     H15 2177   1.424   0.688   1.999 -0.5484 -0.5132  2.7685
   95DG     H16 2178   1.487   0.589   1.861  0.1796  1.8768  0.3350
   95DG     C17 2179   1.650   0.368   1.884  0.3557  0.2240  0.7017
   95DG     C18 2180   1.584   0.541   2.039 -0.3777 -0.0007 -1.0762
   95DG     O19 2181   1.617   0.403   2.021  0.3118  0.4321 -0.3083
   95DG     H20 2182   1.562   0.348   1.822  0.9289  1.4879 -0.5978
   95DG     H21 2183   1.695   0.445   1.821  0.0792 -0.3169 -0.1895
   95DG     H22 2184   1.665   0.606   2.005 -0.9362  1.5351  0.4379
   95DG     H23 2185   1.570   0.560   2.145  0.1940  0.0072 -0.9998
   96DG      C1 2186   4.014   1.826   1.456  0.5317  0.2376  0.8261
   96DG      C2 2187   3.991   1.171   1.230 -0.0429  0.3737  0.1148
   96DG      H3 2188   4.040   1.845   1.560  1.6923 -1.0789  0.7990
   96DG      H4 2189   3.919   1.875   1.432 -0.2586 -1.9979 -1.0003
   96DG      H5 2190   4.096   1.869   1.399  1.6453 -1.4757  1.0583
   96DG      H6 2191   3.950   1.074   1.203 -1.1257 -0.1043  3.0355
   96DG      H7 2192   4.099   1.156   1.223  0.0472  0.8986  0.3189
   96DG      H8 2193   3.973   1.196   1.335 -0.5652  0.4167  0.0175
   96DG      O9 2194   4.001   1.690   1.432 -0.3302 -0.3153  0.0036
   96DG     O10 2195   3.956   1.286   1.152  0.4734  0.0764 -0.6098
   96DG     C11 2196   3.887   1.630   1.495  0.6871  0.1001 -0.9847
   96DG     C12 2197   3.821   1.330   1.171  0.4427  0.9250  0.0087
   96DG     H13 2198   3.789   1.666   1.464 -1.1118 -2.1555  1.5433
   96DG     H14 2199   3.885   1.643   1.603  1.4680  0.9846 -1.0678
   96DG     H15 2200   3.754   1.252   1.134 -1.0686  2.0694  0.2189
   96DG     H16 2201   3.797   1.410   1.101  1.2371 -0.5378 -2.0310
   96DG     C17 2202   3.900   1.482   1.493  0.4253 -0.5887  0.2916
   96DG     C18 2203   3.796   1.391   1.308 -0.4405  0.2368 -0.6201
   96DG     O19 2204   3.908   1.454   1.359 -0.7027  0.5826 -0.9354
   96DG     H20 2205   3.817   1.442   1.550 -0.7295  0.2558 -0.7423
   96DG     H21 2206   3.990   1.438   1.536  0.6882 -1.1182 -0.7673
   96DG     H22 2207   3.713   1.461   1.317 -1.0846 -0.3522 -1.6631
   96DG     H23 2208   3.781   1.303   1.371  3.9792  0.4667  1.0558
   97DG      C1 2209   3.094   3.729   5.444 -0.2588 -0.2291 -0.0735
   97DG      C2 2210   2.418   4.029   5.806 -0.4498 -0.1865 -0.6718
   97DG      H3 2211   3.015   3.781   5.390 -0.5756 -0.8631 -0.2263
   97DG      H4 2212   3.090   3.628   5.404 -0.9409  0.6478 -2.3975
   97DG      H5 2213   3.184   3.782   5.411 -1.6975  1.1427 -2.0612
   97DG      H6 2214   2.319   4.070   5.788 -0.8459  2.2387  4.7922
   97DG      H7 2215   2.388   3.940   5.861 -0.9022  0.1750 -0.3243
   97DG      H8 2216   2.471   4.105   5.865 -0.4448 -0.2781 -0.5580
   97DG      O9 2217   3.078   3.743   5.581 -0.2440 -0.7839 -0.1132
   97DG     O10 2218   2.489   4.008   5.684 -0.0087  0.2494  0.4012
   97DG     C11 2219   2.972   3.679   5.641  0.1458  0.0998  0.2294
   97DG     C12 2220   2.607   3.934   5.704  0.5273  0.5508 -0.2315
   97DG     H13 2221   2.994   3.679   5.748 -0.0953 -1.6713  0.2984
   97DG     H14 2222   2.978   3.573   5.617  1.7468  0.3319 -0.5759
   97DG     H15 2223   2.576   3.842   5.754  0.4128  0.4765 -0.4425
   97DG     H16 2224   2.667   3.971   5.788  1.4880 -3.3780  1.0189
   97DG     C17 2225   2.832   3.733   5.605 -0.0782 -0.1869 -0.4764
   97DG     C18 2226   2.702   3.928   5.582 -0.6040  0.4720 -0.7033
   97DG     O19 2227   2.824   3.877   5.629 -0.2162  0.2319 -1.0612
   97DG     H20 2228   2.760   3.683   5.669  0.3183 -0.6209 -0.3706
   97DG     H21 2229   2.815   3.705   5.501  0.4379 -1.5845 -0.1969
   97DG     H22 2230   2.681   3.885   5.484  1.4174  1.0126 -1.4265
   97DG     H23 2231   2.718   4.034   5.564 -1.2730  0.6128 -0.4807
   98DG      C1 2232   1.863   3.276   2.666  0.0956  0.4141  0.1860
   98DG      C2 2233   1.688   3.798   3.107  0.3087  0.1386  0.3047
   98DG      H3 2234   1.843   3.274   2.559  0.8468  1.8535 -0.0064
   98DG      H4 2235   1.896   3.177   2.697  0.1410  0.8540  1.6122
   98DG      H5 2236   1.949   3.340   2.688  0.1642  1.1614 -1.9722
   98DG      H6 2237   1.617   3.880   3.116 -2.5849 -1.7819 -2.6375
   98DG      H7 2238   1.697   3.735   3.195  0.7799 -0.0719  0.1057
   98DG      H8 2239   1.787   3.843   3.116 -0.1723  0.7547  4.6674
   98DG      O9 2240   1.743   3.296   2.736 -0.3162  0.4815  0.2507
   98DG     O10 2241   1.660   3.748   2.978  0.1963 -0.3645 -0.6385
   98DG     C11 2242   1.754   3.266   2.874 -0.1584 -0.9046  0.8245
   98DG     C12 2243   1.536   3.679   2.971 -0.6272  0.0737  0.1465
   98DG     H13 2244   1.843   3.316   2.913  0.2743 -0.9053 -0.1471
   98DG     H14 2245   1.760   3.157   2.885  0.5303 -0.8995  0.5436
   98DG     H15 2246   1.507   3.685   2.866  2.1326  1.5693 -0.6475
   98DG     H16 2247   1.457   3.733   3.022 -1.5313  1.1657 -2.2537
   98DG     C17 2248   1.628   3.323   2.946  0.0323  0.2943  0.5907
   98DG     C18 2249   1.546   3.529   3.017  0.8003 -0.2390  0.3564
   98DG     O19 2250   1.641   3.465   2.946 -0.2720  0.1660 -0.1648
   98DG     H20 2251   1.638   3.291   3.049  1.0729  0.5573  0.5839
   98DG     H21 2252   1.533   3.284   2.910  1.6147 -0.6035 -3.1200
   98DG     H22 2253   1.587   3.520   3.118 -2.5096  0.5634  1.9347
   98DG     H23 2254   1.443   3.491   3.013  0.3872  0.9830 -1.3914
   99DG      C1 2255   1.577   0.300   4.694  0.0694 -0.3811 -0.2558
   99DG      C2 2256   0.945   0.793   4.935 -0.1256 -0.2621 -0.3607
   99DG      H3 2257   1.609   0.208   4.643  0.5336 -0.8248  0.8047
   99DG      H4 2258   1.633   0.292   4.787  1.0755 -1.3807 -0.9189
   99DG      H5 2259   1.619   0.379   4.631 -0.7901 -0.4543 -0.9383
   99DG      H6 2260   1.044   0.838   4.945  1.1309 -2.9874  0.3207
   99DG      H7 2261   0.899   0.845   4.850  0.0043 -1.2918 -1.0886
   99DG      H8 2262   0.877   0.817   5.017 -0.2610  0.0278 -0.5546
   99DG      O9 2263   1.441   0.309   4.722  0.2421 -0.3106  0.1489
   99DG     O10 2264   0.957   0.660   4.916 -0.4382  0.2984 -0.1476
   99DG     C11 2265   1.356   0.301   4.610  0.0986 -0.9537  0.2192
   99DG     C12 2266   1.063   0.630   4.826  0.9353 -0.1304  0.3718
   99DG     H13 2267   1.360   0.202   4.565  1.1559 -0.8582  0.0659
   99DG     H14 2268   1.393   0.369   4.534 -0.1056 -2.4768 -1.2941
   99DG     H15 2269   1.154   0.673   4.867  1.0731 -1.0705  1.0879
   99DG     H16 2270   1.050   0.676   4.728  2.8464  1.2639  0.7003
   99DG     C17 2271   1.209   0.350   4.643 -0.6065  0.3385  0.8877
   99DG     C18 2272   1.092   0.470   4.812 -0.2310 -0.3976  0.1879
   99DG     O19 2273   1.215   0.457   4.741  0.0185  0.8696  0.0723
   99DG     H20 2274   1.156   0.258   4.669  0.4931 -0.6028 -0.0439
   99DG     H21 2275   1.151   0.373   4.554 -1.7889  1.0211  1.8062
   99DG     H22 2276   1.109   0.418   4.907 -1.0425 -0.5787  0.2412
   99DG     H23 2277   1.009   0.422   4.760  0.7073  0.3151 -2.0888
  100DG      C1 2278   0.439   1.326   4.090 -0.2525  0.5436  0.3037
  100DG      C2 2279   1.036   1.135   4.657 -0.5641  0.3464 -0.2374
  100DG      H3 2280   0.358   1.270   4.136 -2.3952  1.9453 -1.5197
  100DG      H4 2281   0.436   1.314   3.982 -0.4170  1.5876  0.1744
  100DG      H5 2282   0.425   1.433   4.108 -0.0422  0.3181  1.9642
  100DG      H6 2283   1.098   1.096   4.577 -0.5805 -2.3776  0.9663
  100DG      H7 2284   1.106   1.202   4.707  1.3445 -1.5849 -0.1902
  100DG      H8 2285   1.013   1.058   4.731 -3.1207  0.0938 -1.1966
  100DG      O9 2286   0.571   1.292   4.137 -0.2527  0.2381  0.1543
  100DG     O10 2287   0.932   1.223   4.611  0.5699  0.2026  0.6756
  100DG     C11 2288   0.594   1.151   4.120 -0.4273  0.6765 -0.4349
  100DG     C12 2289   0.829   1.160   4.538 -0.0938  0.2813  0.5087
  100DG     H13 2290   0.589   1.144   4.011 -2.3582 -2.3732 -0.2697
  100DG     H14 2291   0.514   1.089   4.160  0.0483  0.3650  0.0497
  100DG     H15 2292   0.738   1.219   4.543 -0.4126 -0.2997  2.0094
  100DG     H16 2293   0.805   1.060   4.575  1.6918 -1.0539 -1.6537
  100DG     C17 2294   0.737   1.117   4.179  0.2646  0.4848  0.1670
  100DG     C18 2295   0.846   1.134   4.388  0.2742 -0.9746 -0.1888
  100DG     O19 2296   0.720   1.126   4.323  0.4643  0.6198 -0.1098
  100DG     H20 2297   0.806   1.193   4.143 -1.1482  0.2612 -3.3884
  100DG     H21 2298   0.769   1.016   4.152  0.1227  0.5878 -0.4010
  100DG     H22 2299   0.895   1.223   4.348 -0.8552 -0.9820 -1.6776
  100DG     H23 2300   0.909   1.048   4.367 -0.2732 -1.8355  1.4800
  101DG      C1 2301   3.926   1.976   2.162 -1.3170 -0.0326  0.6720
  101DG      C2 2302   4.435   2.401   1.913 -0.8974  0.6178  0.0583
  101DG      H3 2303   3.951   1.891   2.098 -0.7427  0.8699 -0.3221
  101DG      H4 2304   3.848   2.027   2.106 -1.7773  0.2405  1.5469
  101DG      H5 2305   3.893   1.941   2.260  2.7031 -2.2511  1.4594
  101DG      H6 2306   4.482   2.323   1.853  1.5255  1.0144  1.3278
  101DG      H7 2307   4.361   2.468   1.868 -0.2307  3.1582  2.4846
  101DG      H8 2308   4.515   2.466   1.948 -0.5293  0.2315 -0.0676
  101DG      O9 2309   4.047   2.055   2.171 -0.2044 -0.3179 -0.4316
  101DG     O10 2310   4.387   2.322   2.018 -0.1579 -0.2625  0.2693
  101DG     C11 2311   4.144   1.965   2.222 -0.4039  0.3540 -0.2558
  101DG     C12 2312   4.495   2.239   2.073 -0.0191 -1.0625  0.3182
  101DG     H13 2313   4.166   1.892   2.145  0.8190  1.2696 -0.8149
  101DG     H14 2314   4.108   1.909   2.308 -1.3042 -1.0179 -1.4870
  101DG     H15 2315   4.571   2.306   2.113 -1.8384 -0.7187  3.5933
  101DG     H16 2316   4.535   2.159   2.011  0.2712  0.8242 -2.0326
  101DG     C17 2317   4.270   2.030   2.272 -0.7787  0.0881 -0.2953
  101DG     C18 2318   4.438   2.179   2.201  0.6417  0.5299 -0.3859
  101DG     O19 2319   4.309   2.123   2.179  0.4627 -0.1761  0.3261
  101DG     H20 2320   4.339   1.952   2.305 -1.4000 -0.7533 -0.9363
  101DG     H21 2321   4.248   2.087   2.362 -0.3199  1.0250 -0.7724
  101DG     H22 2322   4.501   2.114   2.262 -1.3018  0.5413  1.8219
  101DG     H23 2323   4.420   2.264   2.267 -1.0700  0.3762 -0.5976
  102DG      C1 2324   1.695   3.028   3.798 -0.0271 -0.1786  0.2030
  102DG      C2 2325   1.292   2.505   3.933  0.1682 -0.0724  0.1021
  102DG      H3 2326   1.739   2.991   3.705 -1.7764  1.3484 -1.3140
  102DG      H4 2327   1.759   2.987   3.876 -0.0033 -1.3994 -0.4310
  102DG      H5 2328   1.712   3.136   3.798 -0.6508 -0.0375 -1.6147
  102DG      H6 2329   1.365   2.470   4.005 -0.8586 -1.0439  0.7164
  102DG      H7 2330   1.189   2.506   3.970  0.5119 -2.4606  1.2787
  102DG      H8 2331   1.282   2.437   3.848 -0.9628  0.7935 -0.4941
  102DG      O9 2332   1.564   2.986   3.820 -0.1340  0.2045 -0.2745
  102DG     O10 2333   1.331   2.641   3.889  0.0818 -0.0495  0.3113
  102DG     C11 2334   1.478   3.041   3.730 -0.2235  0.1101  0.4562
  102DG     C12 2335   1.258   2.668   3.770 -0.3202  0.0034  0.5990
  102DG     H13 2336   1.500   2.994   3.634 -1.7836  0.5213 -0.1288
  102DG     H14 2337   1.499   3.147   3.717 -0.8325  0.2363  0.4564
  102DG     H15 2338   1.152   2.659   3.797  0.0280 -3.0383  1.3593
  102DG     H16 2339   1.268   2.592   3.693 -2.2311  0.4942 -0.2070
  102DG     C17 2340   1.331   3.029   3.783 -0.4666  0.1965 -0.0754
  102DG     C18 2341   1.303   2.807   3.721 -0.0094  0.5037  0.5707
  102DG     O19 2342   1.297   2.897   3.826 -0.0633 -0.4164 -0.2354
  102DG     H20 2343   1.248   3.069   3.725  0.4608 -0.1276 -1.6996
  102DG     H21 2344   1.327   3.092   3.872 -0.1241  2.0481 -1.3012
  102DG     H22 2345   1.406   2.798   3.686 -0.2596 -1.4259  0.2122
  102DG     H23 2346   1.254   2.854   3.636  0.3651  1.3724  0.8258
  103DG      C1 2347   1.963   1.608   4.735 -0.1749  0.2995 -0.2032
  103DG      C2 2348   1.507   2.035   5.058  0.5773 -0.4762  0.0105
  103DG      H3 2349   1.976   1.689   4.664 -1.8849  0.6490 -0.1797
  103DG      H4 2350   1.960   1.516   4.675  1.0415  0.2161 -0.1577
  103DG      H5 2351   2.045   1.595   4.805 -0.4890  2.6940  0.6891
  103DG      H6 2352   1.538   2.086   4.967  3.1175 -2.7471 -0.5389
  103DG      H7 2353   1.405   2.062   5.085  0.9640  0.5299  0.5115
  103DG      H8 2354   1.577   2.061   5.138  1.6419  0.8420 -1.2861
  103DG      O9 2355   1.837   1.615   4.812  0.2052  0.1181  0.6034
  103DG     O10 2356   1.515   1.900   5.016  0.4426 -0.1416 -0.1800
  103DG     C11 2357   1.826   1.506   4.903  0.3273 -0.3278  0.8501
  103DG     C12 2358   1.496   1.807   5.122 -0.3056 -0.9078 -0.2947
  103DG     H13 2359   1.914   1.487   4.965  0.2392  0.1943  1.1451
  103DG     H14 2360   1.804   1.415   4.848 -1.4049  0.1894  0.6520
  103DG     H15 2361   1.391   1.794   5.145 -0.5697 -0.8519 -1.4584
  103DG     H16 2362   1.544   1.839   5.215  0.0660 -1.4691 -0.2888
  103DG     C17 2363   1.690   1.527   4.976  0.0358 -0.1731 -0.2720
  103DG     C18 2364   1.536   1.662   5.087  0.3325 -0.3553 -0.9904
  103DG     O19 2365   1.669   1.659   5.032 -0.1689  0.1022  0.2162
  103DG     H20 2366   1.682   1.444   5.046 -1.1467  0.3808  0.2783
  103DG     H21 2367   1.601   1.517   4.914  0.0538  1.1104 -0.5330
  103DG     H22 2368   1.522   1.597   5.173 -1.6624  1.8382  0.4451
  103DG     H23 2369   1.462   1.639   5.010 -0.5125  2.7381 -1.2564
  104DG      C1 2370   2.131   2.941   4.596  0.5900 -0.6058 -1.1170
  104DG      C2 2371   2.847   3.086   4.852  0.9540 -0.0209 -0.4701
  104DG      H3 2372   2.160   3.023   4.530 -0.1265  2.0045  1.6026
  104DG      H4 2373   2.050   2.992   4.648  0.4181 -1.0056 -0.9916
  104DG      H5 2374   2.076   2.862   4.544 -1.9127  0.2071  0.1113
  104DG      H6 2375   2.784   3.175   4.854  1.6949  0.5177  1.0905
  104DG      H7 2376   2.912   3.084   4.940  1.0998 -1.6496 -0.5912
  104DG      H8 2377   2.916   3.099   4.768  0.2121 -0.2370 -1.1171
  104DG      O9 2378   2.219   2.905   4.695 -0.3100 -0.2304 -0.1188
  104DG     O10 2379   2.770   2.968   4.838 -0.3134 -0.2288  0.3899
  104DG     C11 2380   2.329   2.843   4.639 -0.0254 -0.1142 -0.3170
  104DG     C12 2381   2.681   2.948   4.945  0.6511  0.9219  0.0989
  104DG     H13 2382   2.390   2.918   4.587 -0.4060  0.2187 -0.2829
  104DG     H14 2383   2.300   2.766   4.568  0.7553  1.9983 -3.0958
  104DG     H15 2384   2.624   3.034   4.977 -0.1840  0.0577  0.9962
  104DG     H16 2385   2.732   2.923   5.039 -0.1415 -1.3036  0.0032
  104DG     C17 2386   2.416   2.776   4.745 -0.1870  0.3581  1.1366
  104DG     C18 2387   2.584   2.836   4.900 -0.3587  0.2590 -0.8811
  104DG     O19 2388   2.490   2.877   4.799  0.5826 -0.5221 -0.1224
  104DG     H20 2389   2.483   2.702   4.702 -0.0806  0.1083  1.7268
  104DG     H21 2390   2.365   2.727   4.828  0.2014 -0.2497  1.0255
  104DG     H22 2391   2.647   2.754   4.866  0.0976 -0.6680  1.9375
  104DG     H23 2392   2.526   2.813   4.990  0.7193  1.0126  0.0419
  105DG      C1 2393   4.246   4.041   2.100  0.2083  0.2632  0.1125
  105DG      C2 2394   4.232   4.714   2.618 -0.4608 -0.9105 -0.0767
  105DG      H3 2395   4.289   3.942   2.092  1.1312  0.4018  2.5856
  105DG      H4 2396   4.262   4.094   2.006 -0.5418 -0.8340 -0.6625
  105DG      H5 2397   4.139   4.018   2.101 -0.0112 -0.0867 -5.0598
  105DG      H6 2398   4.125   4.695   2.625 -0.9491  1.9740  2.0664
  105DG      H7 2399   4.254   4.778   2.704 -2.9235  0.7839 -0.6109
  105DG      H8 2400   4.241   4.790   2.541 -2.0705 -1.5507 -0.9197
  105DG      O9 2401   4.297   4.114   2.214 -0.2359  0.3633 -0.3174
  105DG     O10 2402   4.325   4.603   2.604  0.4291 -0.6717  0.7211
  105DG     C11 2403   4.228   4.234   2.246 -0.1452 -0.0400 -0.1643
  105DG     C12 2404   4.360   4.563   2.471 -0.1099  0.7195 -0.7368
  105DG     H13 2405   4.123   4.204   2.239 -0.1778  0.3242 -1.8213
  105DG     H14 2406   4.234   4.309   2.167 -1.7021 -0.6260 -0.8787
  105DG     H15 2407   4.427   4.478   2.473 -3.1566 -2.0196 -3.6343
  105DG     H16 2408   4.405   4.645   2.415  4.7574 -1.7176 -0.8466
  105DG     C17 2409   4.270   4.289   2.379  0.3250 -0.5859  0.3905
  105DG     C18 2410   4.244   4.521   2.380 -0.1246 -0.2705  1.0274
  105DG     O19 2411   4.188   4.393   2.418 -0.0636 -0.8434  0.0326
  105DG     H20 2412   4.376   4.310   2.365  0.1826 -0.2682 -0.2592
  105DG     H21 2413   4.262   4.202   2.445 -1.6123 -0.8588 -0.1158
  105DG     H22 2414   4.164   4.594   2.370  1.4458  1.1978 -2.2326
  105DG     H23 2415   4.287   4.531   2.281 -0.1406  1.1675  1.1505
  106DG      C1 2416   2.835   1.440   1.547 -0.2635 -0.5545 -0.1471
  106DG      C2 2417   2.907   1.252   0.882 -0.1843 -0.6780  0.0316
  106DG      H3 2418   2.806   1.373   1.628  0.6815  0.1479  0.8013
  106DG      H4 2419   2.744   1.487   1.509  0.4345  2.2906  1.3931
  106DG      H5 2420   2.904   1.519   1.579  0.7704 -0.7640 -1.7181
  106DG      H6 2421   3.013   1.254   0.857 -0.1849  1.4446 -0.0113
  106DG      H7 2422   2.847   1.187   0.818  0.0651 -0.4230 -0.4616
  106DG      H8 2423   2.881   1.357   0.867 -0.6201 -1.0577 -2.1266
  106DG      O9 2424   2.891   1.356   1.448 -0.1021  0.0746 -0.4924
  106DG     O10 2425   2.884   1.220   1.016  0.2823 -0.1689  0.1359
  106DG     C11 2426   2.996   1.270   1.492  0.2085 -0.8513 -0.5850
  106DG     C12 2427   2.914   1.082   1.046 -0.5713 -0.4586 -0.3760
  106DG     H13 2428   2.953   1.199   1.562 -0.9157  1.2708  1.0126
  106DG     H14 2429   3.067   1.327   1.553  0.7610  1.9725 -3.5399
  106DG     H15 2430   2.966   1.032   0.964 -0.7942 -0.0690 -0.7573
  106DG     H16 2431   2.823   1.024   1.060 -0.3976 -0.9268 -1.1020
  106DG     C17 2432   3.062   1.192   1.372  0.1931  0.2411 -0.4422
  106DG     C18 2433   3.013   1.090   1.169  1.4810 -0.1048 -0.3455
  106DG     O19 2434   2.956   1.157   1.283  0.6165 -0.2598 -0.3342
  106DG     H20 2435   3.100   1.095   1.405  0.1578  0.6845  0.9708
  106DG     H21 2436   3.147   1.245   1.330  1.9681 -1.9816  0.1400
  106DG     H22 2437   3.049   0.992   1.200  2.1779  0.2810  0.0808
  106DG     H23 2438   3.098   1.142   1.127  2.8857 -2.1275 -0.1352
  107DG      C1 2439   2.930   4.160   1.644 -0.0101 -0.3235 -0.2686
  107DG      C2 2440   2.730   4.236   2.317 -0.3257 -0.1595  0.6753
  107DG      H3 2441   2.965   4.058   1.626  0.0940  0.0864 -2.8624
  107DG      H4 2442   2.989   4.223   1.578  0.2761  0.1449  0.4263
  107DG      H5 2443   2.823   4.170   1.625  0.1548  1.4299 -0.3963
  107DG      H6 2444   2.755   4.182   2.409  0.1116 -0.2160  0.5285
  107DG      H7 2445   2.698   4.339   2.336 -2.0679 -0.5527  0.0319
  107DG      H8 2446   2.649   4.183   2.268  1.5289 -1.4466 -1.1663
  107DG      O9 2447   2.935   4.188   1.779 -0.0616 -0.0526 -0.4663
  107DG     O10 2448   2.834   4.223   2.220 -0.5546  0.2214  0.4248
  107DG     C11 2449   3.069   4.174   1.821 -0.2585 -0.4338  0.0191
  107DG     C12 2450   2.959   4.207   2.281  0.0470  0.3469 -0.4895
  107DG     H13 2451   3.132   4.238   1.759  0.0810  1.6911  2.3964
  107DG     H14 2452   3.107   4.072   1.825  1.7852  0.2498 -0.4638
  107DG     H15 2453   2.968   4.104   2.315  0.4251  0.8145  0.8732
  107DG     H16 2454   2.966   4.260   2.375  1.5284 -1.7596  0.6697
  107DG     C17 2455   3.095   4.242   1.948 -0.4093 -0.0681 -0.4924
  107DG     C18 2456   3.064   4.237   2.176 -0.6674 -0.5521  0.0597
  107DG     O19 2457   3.029   4.187   2.058  0.3025  0.5247  0.1379
  107DG     H20 2458   3.068   4.348   1.942 -1.2467 -0.2562 -0.1914
  107DG     H21 2459   3.200   4.255   1.977 -0.5999  0.8378 -0.1768
  107DG     H22 2460   3.079   4.344   2.175  0.2230 -0.5713 -3.6341
  107DG     H23 2461   3.159   4.191   2.206 -0.5033  0.6089  1.4304
  108DG      C1 2462   4.954   4.002   3.663 -0.5550 -0.6503 -0.1241
  108DG      C2 2463   4.926   4.880   3.663 -0.4529  0.4233 -0.6105
  108DG      H3 2464   4.917   3.904   3.693 -2.2103 -0.4095 -1.2296
  108DG      H4 2465   5.062   4.007   3.676 -0.7050 -0.4862  1.2026
  108DG      H5 2466   4.945   3.997   3.554  2.6247  0.7545 -0.5626
  108DG      H6 2467   4.930   4.917   3.561 -2.2419  0.5219 -0.6681
  108DG      H7 2468   4.875   4.951   3.728 -0.9172 -0.9280  0.5792
  108DG      H8 2469   5.030   4.883   3.696 -0.5145  1.4176 -0.4827
  108DG      O9 2470   4.882   4.105   3.727  0.6989 -0.0443 -0.1950
  108DG     O10 2471   4.866   4.751   3.671  0.2175  0.0838  0.0129
  108DG     C11 2472   4.920   4.241   3.702  0.1379  1.2766 -0.2646
  108DG     C12 2473   4.855   4.698   3.801  0.0527  0.4342  0.1038
  108DG     H13 2474   4.955   4.251   3.599 -0.7750 -1.2025 -0.8709
  108DG     H14 2475   5.015   4.242   3.754  1.2010 -0.4909 -2.0320
  108DG     H15 2476   4.781   4.767   3.840 -1.3407 -0.5536 -0.6826
  108DG     H16 2477   4.951   4.698   3.851  1.1700 -0.6267 -1.8872
  108DG     C17 2478   4.814   4.349   3.727 -0.2910  0.2856  0.2881
  108DG     C18 2479   4.781   4.561   3.802 -0.8003 -0.1199 -0.0199
  108DG     O19 2480   4.879   4.471   3.750 -0.1410 -0.3177 -0.0327
  108DG     H20 2481   4.765   4.319   3.820 -0.5044 -1.6197 -0.3898
  108DG     H21 2482   4.737   4.340   3.650 -0.6478 -0.1900  0.6960
  108DG     H22 2483   4.753   4.527   3.901  1.1569 -2.6579 -0.2016
  108DG     H23 2484   4.693   4.575   3.739 -0.2235  1.2719 -0.5467
  109DG      C1 2485   4.665   4.014   4.341 -0.7018  0.5163 -0.4625
  109DG      C2 2486   4.619   3.688   4.957  0.1983  0.0554 -0.1553
  109DG      H3 2487   4.752   3.947   4.340 -1.7235 -0.8838  0.6974
  109DG      H4 2488   4.715   4.110   4.328 -4.1156  2.3308 -1.2689
  109DG      H5 2489   4.600   4.013   4.254 -0.2409  1.3406 -0.8323
  109DG      H6 2490   4.545   3.621   4.911 -0.2833 -0.3069  1.1181
  109DG      H7 2491   4.711   3.635   4.932 -1.3444 -2.4532 -0.9911
  109DG      H8 2492   4.587   3.693   5.061  1.8540 -1.8366  0.5155
  109DG      O9 2493   4.604   3.992   4.478 -1.1739  0.2977  0.3646
  109DG     O10 2494   4.624   3.811   4.892 -0.3018 -0.5400 -0.1616
  109DG     C11 2495   4.513   4.090   4.516 -0.3468 -0.6274 -0.1484
  109DG     C12 2496   4.510   3.891   4.939 -0.4087  0.8448  1.4281
  109DG     H13 2497   4.411   4.060   4.492 -1.0844 -0.5631  2.5607
  109DG     H14 2498   4.524   4.184   4.463 -0.6103 -0.5501 -0.0650
  109DG     H15 2499   4.499   3.904   5.046 -0.8186  0.4001  1.4403
  109DG     H16 2500   4.416   3.852   4.902  0.2617  1.2910 -0.9235
  109DG     C17 2501   4.513   4.122   4.663  0.0423 -0.2963 -0.2468
  109DG     C18 2502   4.520   4.024   4.874  0.4618  0.2076 -0.3870
  109DG     O19 2503   4.535   4.004   4.740 -0.0798 -0.3670  0.2188
  109DG     H20 2504   4.420   4.174   4.688 -0.8588 -1.0113 -1.9060
  109DG     H21 2505   4.598   4.189   4.678  0.6398 -0.7484 -1.4561
  109DG     H22 2506   4.428   4.079   4.896 -0.2629 -0.5471 -1.4357
  109DG     H23 2507   4.602   4.087   4.910  0.0580  0.6003 -0.1418
  110DG      C1 2508   3.003   3.490   3.203  0.0314  0.2809  0.5136
  110DG      C2 2509   2.558   2.970   3.327 -0.9008  0.7927  0.5012
  110DG      H3 2510   3.097   3.519   3.154  0.9294 -2.1819  0.6406
  110DG      H4 2511   3.009   3.529   3.304  0.5966 -0.0194  0.6010
  110DG      H5 2512   2.918   3.544   3.161 -1.5416 -0.9944  1.9553
  110DG      H6 2513   2.518   3.070   3.307 -0.8878  1.0637  1.7359
  110DG      H7 2514   2.494   2.892   3.285  0.6075 -0.7823  1.0253
  110DG      H8 2515   2.552   2.958   3.435  1.6462  0.2530  0.6281
  110DG      O9 2516   2.988   3.347   3.190 -0.0114  0.4235  0.4610
  110DG     O10 2517   2.685   2.977   3.269 -0.2522 -0.6692 -0.1788
  110DG     C11 2518   3.009   3.294   3.055 -0.2293  0.0603 -0.3833
  110DG     C12 2519   2.699   2.951   3.132 -0.2071 -0.5266 -0.2778
  110DG     H13 2520   3.110   3.324   3.027 -0.4798  2.5919  1.1129
  110DG     H14 2521   2.926   3.329   2.993 -2.9443  0.0770  2.9844
  110DG     H15 2522   2.627   3.006   3.071  1.0437  0.9501 -0.4893
  110DG     H16 2523   2.670   2.846   3.129  0.2872 -0.6436 -2.1615
  110DG     C17 2524   3.004   3.143   3.054 -0.3885 -0.0734 -0.4755
  110DG     C18 2525   2.843   2.973   3.087  0.4153 -0.1835  0.1322
  110DG     O19 2526   2.878   3.109   3.106 -0.3527 -0.0811 -0.4819
  110DG     H20 2527   3.074   3.093   3.121 -0.9887  0.5797  0.6645
  110DG     H21 2528   3.024   3.114   2.951  2.0835  1.5953 -0.5309
  110DG     H22 2529   2.908   2.895   3.126 -1.2166 -1.7378 -0.1575
  110DG     H23 2530   2.853   2.961   2.979  0.0532  2.7936 -0.3333
  111DG      C1 2531   0.148   4.937   0.565  0.9077  0.6430 -0.6599
  111DG      C2 2532   0.315   4.599   1.153 -0.0399 -1.0376 -0.7438
  111DG      H3 2533   0.105   5.011   0.496  1.2147 -0.7113 -2.3744
  111DG      H4 2534   0.111   4.841   0.529  3.3638 -0.3222 -0.8191
  111DG      H5 2535   0.255   4.931   0.545  1.0489  0.6686  0.0657
  111DG      H6 2536   0.313   4.499   1.110 -0.1918 -1.3971  0.0846
  111DG      H7 2537   0.422   4.620   1.161 -0.3412  0.2600  0.2240
  111DG      H8 2538   0.264   4.583   1.248  0.7975  1.8173  0.2967
  111DG      O9 2539   0.107   4.935   0.702 -0.5471  0.8019  0.0879
  111DG     O10 2540   0.242   4.704   1.084 -0.1457  0.1604  0.0285
  111DG     C11 2541   0.151   5.054   0.764  0.1196  0.8647  0.1704
  111DG     C12 2542   0.251   4.827   1.157  0.1551 -0.2113 -0.2753
  111DG     H13 2543   0.097   5.138   0.721  0.0174  1.2574  1.0530
  111DG     H14 2544   0.256   5.082   0.756  0.2709  0.1365 -0.5399
  111DG     H15 2545   0.349   4.872   1.148 -0.2949  0.7444 -0.5906
  111DG     H16 2546   0.231   4.809   1.263 -2.2068 -0.8585 -0.7695
  111DG     C17 2547   0.107   5.044   0.908 -0.3928  0.1346  0.5267
  111DG     C18 2548   0.155   4.931   1.108 -0.2714  0.3916 -0.3835
  111DG     O19 2549   0.190   4.945   0.967  0.0687  0.3658  0.1908
  111DG     H20 2550   0.004   5.011   0.914  0.3205 -2.1311  1.5721
  111DG     H21 2551   0.122   5.142   0.953  2.5585  0.7057 -1.4138
  111DG     H22 2552   0.049   4.906   1.118  0.5275 -2.6880  2.2041
  111DG     H23 2553   0.172   5.030   1.149 -2.1470  0.4086  0.4657
  112DG      C1 2554   5.198   1.560   5.427  0.0105 -1.2800  0.7741
  112DG      C2 2555   5.628   1.479   5.958  0.0145 -0.6959  0.2956
  112DG      H3 2556   5.157   1.659   5.404  0.0232 -0.9051  2.2915
  112DG      H4 2557   5.132   1.482   5.390  0.4031 -0.2511 -2.4404
  112DG      H5 2558   5.287   1.540   5.366 -0.2281 -2.4507  0.7860
  112DG      H6 2559   5.645   1.586   5.973 -0.8714 -0.4213 -0.5759
  112DG      H7 2560   5.654   1.430   6.052 -1.8343 -0.5726  0.9223
  112DG      H8 2561   5.704   1.431   5.898  1.1776  1.5915 -0.1655
  112DG      O9 2562   5.240   1.533   5.561 -0.3893 -0.4122  0.1610
  112DG     O10 2563   5.498   1.435   5.919  0.6568  0.3508 -0.5601
  112DG     C11 2564   5.126   1.543   5.646 -0.2353 -0.5347 -0.0887
  112DG     C12 2565   5.387   1.473   6.005 -0.2067 -0.2038 -1.5295
  112DG     H13 2566   5.049   1.468   5.627 -0.4419 -1.1076  2.6205
  112DG     H14 2567   5.086   1.644   5.632 -0.0594  0.0098  2.6862
  112DG     H15 2568   5.384   1.580   5.985  1.2857 -0.0511 -1.0958
  112DG     H16 2569   5.423   1.459   6.108 -0.0513  3.4741 -0.9425
  112DG     C17 2570   5.167   1.534   5.791  0.5341 -0.9554  0.2561
  112DG     C18 2571   5.269   1.395   5.960  0.0384  0.0355 -0.1739
  112DG     O19 2572   5.236   1.414   5.815 -0.0018  0.1993  0.5926
  112DG     H20 2573   5.074   1.555   5.844  0.0513 -1.0920 -0.5225
  112DG     H21 2574   5.241   1.610   5.815  1.3555 -1.7632  0.3202
  112DG     H22 2575   5.273   1.288   5.980 -1.0035 -0.2710 -1.4608
  112DG     H23 2576   5.186   1.419   6.026 -0.3954  1.7604 -1.2794
  113DG      C1 2577   4.755   1.781   0.233  0.7217 -0.1556 -0.0518
  113DG      C2 2578   4.498   1.830  -0.386  0.1573 -0.3337  0.0686
  113DG      H3 2579   4.861   1.799   0.213  0.6418  2.2766  1.3242
  113DG      H4 2580   4.742   1.727   0.326 -0.7380  0.6829  0.2646
  113DG      H5 2581   4.704   1.872   0.263  1.6964  0.0104  1.1723
  113DG      H6 2582   4.594   1.875  -0.413 -1.1151  2.1386 -0.6095
  113DG      H7 2583   4.457   1.793  -0.480 -0.2517  1.6489 -0.5701
  113DG      H8 2584   4.427   1.908  -0.362  0.7710  0.1023  0.4979
  113DG      O9 2585   4.674   1.711   0.141  1.0018 -0.0825  0.0421
  113DG     O10 2586   4.502   1.732  -0.280 -0.1243  0.4931  0.4804
  113DG     C11 2587   4.717   1.578   0.122 -0.0085  0.2121  0.5459
  113DG     C12 2588   4.559   1.615  -0.329  0.2633  0.3319 -0.2901
  113DG     H13 2589   4.715   1.518   0.213  0.3186 -0.8029 -0.0965
  113DG     H14 2590   4.820   1.574   0.086 -0.1522  0.2770  0.1259
  113DG     H15 2591   4.661   1.630  -0.364  0.0286 -1.2475 -1.7622
  113DG     H16 2592   4.504   1.568  -0.410  1.0051 -0.4787 -0.3470
  113DG     C17 2593   4.620   1.506   0.023 -0.5365 -0.0406 -1.0276
  113DG     C18 2594   4.557   1.522  -0.205 -0.7742 -0.0155 -0.5992
  113DG     O19 2595   4.622   1.584  -0.097  0.6901 -0.2705  0.1504
  113DG     H20 2596   4.521   1.501   0.068 -0.2193  0.8766 -0.2038
  113DG     H21 2597   4.657   1.403   0.016  1.6044  0.4309  1.5666
  113DG     H22 2598   4.458   1.502  -0.163 -0.3688  0.1829  0.4851
  113DG     H23 2599   4.615   1.433  -0.226  1.0800  1.0878 -0.3441
  114DG      C1 2600   2.211   0.916   3.205  0.5648  0.2466  0.3709
  114DG      C2 2601   2.029   0.326   3.146 -0.2012  0.2106 -0.8766
  114DG      H3 2602   2.310   0.879   3.233  0.7736 -0.4789 -1.1851
  114DG      H4 2603   2.192   1.015   3.247  0.0030  0.4917 -0.4316
  114DG      H5 2604   2.218   0.912   3.096  4.3413 -3.5819  0.4671
  114DG      H6 2605   2.116   0.269   3.178  1.1747  1.5328 -2.1032
  114DG      H7 2606   1.971   0.248   3.097 -1.3847  2.0316 -2.5474
  114DG      H8 2607   2.057   0.391   3.064  1.0735  1.1303  0.2423
  114DG      O9 2608   2.105   0.829   3.251  0.1592  0.3212  0.0342
  114DG     O10 2609   1.964   0.394   3.253 -0.3792  0.1488 -0.3692
  114DG     C11 2610   1.976   0.867   3.209  0.0058 -0.4038  0.3192
  114DG     C12 2611   1.828   0.427   3.224 -0.0866  0.2422 -0.1036
  114DG     H13 2612   1.972   0.967   3.166 -0.9784  0.3541  2.0392
  114DG     H14 2613   1.908   0.876   3.294 -1.1973 -0.8982 -0.5582
  114DG     H15 2614   1.784   0.427   3.324  0.9689 -1.7100  0.4130
  114DG     H16 2615   1.771   0.343   3.184  0.9768 -0.4385 -0.2099
  114DG     C17 2616   1.922   0.758   3.123  0.1804  0.0585 -0.3109
  114DG     C18 2617   1.811   0.547   3.138  0.0189  0.1610 -0.1220
  114DG     O19 2618   1.876   0.658   3.205 -0.1932  0.0093  0.2457
  114DG     H20 2619   2.000   0.719   3.057  0.2092  0.6992 -0.6678
  114DG     H21 2620   1.842   0.793   3.058 -0.4539  0.8497  0.8482
  114DG     H22 2621   1.860   0.528   3.043 -0.2635 -2.5598  0.1963
  114DG     H23 2622   1.705   0.569   3.119  0.2238  2.5866  1.1010
  115DG      C1 2623   0.839   4.815   2.318 -0.1605  0.1389  0.1636
  115DG      C2 2624   0.137   4.753   2.488 -0.2587 -0.2007 -0.2932
  115DG      H3 2625   0.849   4.788   2.423 -0.3294 -1.1986 -0.1503
  115DG      H4 2626   0.900   4.897   2.281 -0.1808 -0.2312 -0.7153
  115DG      H5 2627   0.849   4.730   2.250 -0.1926 -0.6093  1.0683
  115DG      H6 2628   0.134   4.704   2.390  0.4304  1.2704 -1.0861
  115DG      H7 2629   0.182   4.677   2.552 -0.3482  0.5106  0.6363
  115DG      H8 2630   0.034   4.778   2.514 -0.0229 -1.5936  2.3312
  115DG      O9 2631   0.706   4.872   2.309 -0.0153  0.1267 -0.1211
  115DG     O10 2632   0.231   4.856   2.491  0.0336  0.0163 -0.3073
  115DG     C11 2633   0.686   4.972   2.403 -0.6325 -0.1406  0.3444
  115DG     C12 2634   0.219   4.941   2.380  0.1496  0.4294 -0.1676
  115DG     H13 2635   0.775   5.036   2.407  0.4511 -1.3270 -2.4134
  115DG     H14 2636   0.658   4.944   2.504 -1.9123  2.7893  0.9166
  115DG     H15 2637   0.127   5.000   2.383  0.0260  0.3110 -1.1935
  115DG     H16 2638   0.217   4.878   2.291 -1.8496 -1.4903  1.1455
  115DG     C17 2639   0.570   5.056   2.360 -0.1061  0.0504 -1.0064
  115DG     C18 2640   0.331   5.041   2.362  0.4616 -1.2120  0.6041
  115DG     O19 2641   0.454   4.974   2.373  0.2599 -0.1310  0.1111
  115DG     H20 2642   0.585   5.103   2.262  1.4732 -0.2815 -0.9494
  115DG     H21 2643   0.558   5.132   2.438 -0.1773 -1.2659  0.3013
  115DG     H22 2644   0.325   5.084   2.262 -1.3229 -1.6367  0.4838
  115DG     H23 2645   0.320   5.125   2.431 -1.0832 -1.0504  0.2114
  116DG      C1 2646   0.251   1.192   0.142 -0.0898  0.3373 -0.1648
  116DG      C2 2647  -0.178   1.109  -0.367 -0.4367  0.2798  0.1590
  116DG      H3 2648   0.271   1.299   0.153 -1.3882  0.7017 -0.9806
  116DG      H4 2649   0.312   1.164   0.056 -2.6021 -1.2745 -1.5600
  116DG      H5 2650   0.290   1.139   0.228  1.0247  1.3381 -0.0217
  116DG      H6 2651  -0.249   1.027  -0.356 -4.1884  2.9931 -1.6075
  116DG      H7 2652  -0.224   1.191  -0.422  1.8940  0.8274 -1.1089
  116DG      H8 2653  -0.100   1.071  -0.433 -0.9936  0.3828 -0.5696
  116DG      O9 2654   0.114   1.145   0.122  0.1249 -0.0237 -0.5750
  116DG     O10 2655  -0.140   1.154  -0.236  0.1762  0.3805 -0.1652
  116DG     C11 2656   0.009   1.203   0.193 -0.0027  0.5161  0.1833
  116DG     C12 2657  -0.257   1.198  -0.161 -0.5764 -0.3602 -0.3667
  116DG     H13 2658  -0.000   1.305   0.154 -0.1784 -0.3108 -2.0469
  116DG     H14 2659   0.033   1.214   0.299  1.2884  2.1576 -0.2257
  116DG     H15 2660  -0.344   1.134  -0.173 -0.7321  0.0009 -1.2275
  116DG     H16 2661  -0.284   1.296  -0.199  2.3036  0.4100 -0.6903
  116DG     C17 2662  -0.123   1.118   0.178  0.3454 -0.6851 -0.4449
  116DG     C18 2663  -0.219   1.224  -0.013 -0.3258 -0.0074  0.3800
  116DG     O19 2664  -0.151   1.110   0.038  0.0992  0.3185 -0.0401
  116DG     H20 2665  -0.201   1.161   0.240 -0.0745 -3.4261  1.0648
  116DG     H21 2666  -0.114   1.024   0.231  0.2975  0.7704  2.3289
  116DG     H22 2667  -0.155   1.312  -0.015 -1.1994  0.6345 -0.6873
  116DG     H23 2668  -0.305   1.254   0.048 -0.5935  3.4106 -1.4374
  117DG      C1 2669   2.203   1.642   0.146  0.0133  0.3836 -0.0232
  117DG      C2 2670   2.113   2.101   0.695 -0.1441  0.1646  0.1554
  117DG      H3 2671   2.106   1.685   0.171  0.4787  0.5903  1.5046
  117DG      H4 2672   2.189   1.536   0.124 -3.1075  0.1798  2.3016
  117DG      H5 2673   2.239   1.696   0.058 -1.4944  1.4115 -0.0609
  117DG      H6 2674   2.058   2.065   0.781  0.0502 -0.4720  0.0188
  117DG      H7 2675   2.193   2.166   0.729 -0.2627  1.5891 -2.0742
  117DG      H8 2676   2.048   2.150   0.623  1.7269  2.2875 -0.2006
  117DG      O9 2677   2.289   1.663   0.259  0.3278  0.5116  0.4062
  117DG     O10 2678   2.178   1.999   0.615 -0.3184 -0.1974 -0.0063
  117DG     C11 2679   2.280   1.560   0.364 -0.0814 -0.2167 -0.5741
  117DG     C12 2680   2.242   1.910   0.701 -0.3760 -0.4608 -0.0827
  117DG     H13 2681   2.322   1.465   0.330  0.8490  0.4786 -1.4523
  117DG     H14 2682   2.172   1.554   0.378 -0.4682  0.5734 -2.7573
  117DG     H15 2683   2.167   1.861   0.762  0.8687  0.7304  2.5704
  117DG     H16 2684   2.304   1.956   0.778 -0.0361 -0.8041 -0.1474
  117DG     C17 2685   2.340   1.622   0.495 -0.4024 -0.0294 -0.0439
  117DG     C18 2686   2.340   1.816   0.627  0.0195  0.6242  0.0873
  117DG     O19 2687   2.272   1.745   0.521 -0.0953 -0.1163  0.0465
  117DG     H20 2688   2.443   1.651   0.475 -0.4386 -0.5873 -1.1008
  117DG     H21 2689   2.331   1.562   0.585  1.4001 -0.4495 -0.1080
  117DG     H22 2690   2.428   1.877   0.607 -0.8925  2.0624  0.3547
  117DG     H23 2691   2.372   1.741   0.699 -0.8531  0.1228 -0.0339
  118DG      C1 2692   5.147   0.447   4.665 -0.5319 -0.4859 -0.0768
  118DG      C2 2693   5.885  -0.024   4.711  0.0044 -0.0277 -0.8917
  118DG      H3 2694   5.151   0.544   4.616  0.5658 -1.4191 -1.9282
  118DG      H4 2695   5.185   0.463   4.766  1.6556  1.9949 -1.1585
  118DG      H5 2696   5.041   0.426   4.647 -0.1517 -2.6136 -0.0395
  118DG      H6 2697   5.971  -0.046   4.648  1.3863  1.3531  0.4329
  118DG      H7 2698   5.917   0.064   4.767  0.1911 -0.3901 -0.4190
  118DG      H8 2699   5.851  -0.104   4.778  0.8511 -1.0712 -1.6753
  118DG      O9 2700   5.245   0.362   4.599  0.4572  0.1368  0.2289
  118DG     O10 2701   5.776   0.007   4.624  0.0292  0.2401  0.0606
  118DG     C11 2702   5.227   0.228   4.650 -0.6854 -0.0167 -0.3011
  118DG     C12 2703   5.670   0.069   4.690  0.3009  0.0022  0.1074
  118DG     H13 2704   5.123   0.200   4.634 -0.7033 -1.0135  1.2849
  118DG     H14 2705   5.237   0.227   4.759 -0.4556  0.6720 -0.3133
  118DG     H15 2706   5.689   0.164   4.739 -0.6191 -1.2488  3.1467
  118DG     H16 2707   5.639   0.012   4.778  0.3444  0.8872  0.7003
  118DG     C17 2708   5.328   0.131   4.577  0.1876 -0.2860 -0.3737
  118DG     C18 2709   5.549   0.071   4.596  0.2381 -0.6378  0.5373
  118DG     O19 2710   5.446   0.143   4.649  0.9715 -0.6346 -0.3063
  118DG     H20 2711   5.333   0.157   4.471 -0.4855  0.5778 -0.2055
  118DG     H21 2712   5.292   0.029   4.587 -0.2118 -0.2915 -1.7335
  118DG     H22 2713   5.582   0.109   4.499 -0.5716 -0.0841  0.4665
  118DG     H23 2714   5.514  -0.032   4.586 -1.7876  0.2290 -2.7934
  119DG      C1 2715   4.557   1.634   4.755  0.2664  0.0658  0.0045
  119DG      C2 2716   5.206   1.292   4.377 -0.6545 -0.4477  0.7798
  119DG      H3 2717   4.453   1.640   4.786 -0.3977  0.1855 -2.0548
  119DG      H4 2718   4.569   1.728   4.700 -3.5016 -0.3914 -1.9277
  119DG      H5 2719   4.625   1.645   4.839 -0.7128  1.6638  0.6348
  119DG      H6 2720   5.247   1.297   4.276  1.7088 -3.0003  1.4821
  119DG      H7 2721   5.246   1.371   4.440  0.2439  0.3060 -0.6645
  119DG      H8 2722   5.245   1.199   4.418 -3.2256 -2.5199 -1.0998
  119DG      O9 2723   4.579   1.528   4.668  0.1320  0.3744  0.5595
  119DG     O10 2724   5.067   1.298   4.378  0.5061  0.5834 -0.1333
  119DG     C11 2725   4.716   1.538   4.608  0.3901 -0.3550  0.1727
  119DG     C12 2726   5.022   1.248   4.505  0.3899  0.4597 -0.4536
  119DG     H13 2727   4.783   1.493   4.681 -0.5033  0.8203  1.7775
  119DG     H14 2728   4.744   1.640   4.581 -1.6187 -0.1911 -1.5377
  119DG     H15 2729   5.074   1.300   4.585  0.9853  0.7802 -1.0365
  119DG     H16 2730   5.049   1.142   4.514  1.1088  0.6750  0.0541
  119DG     C17 2731   4.714   1.447   4.482  0.3258 -0.2146 -0.0029
  119DG     C18 2732   4.879   1.278   4.529  0.8620  0.6181 -0.1049
  119DG     O19 2733   4.849   1.407   4.469  0.4952 -1.1418  0.3848
  119DG     H20 2734   4.679   1.511   4.401  0.0718 -0.8925 -0.4350
  119DG     H21 2735   4.643   1.365   4.495  0.4819 -0.5988 -1.4336
  119DG     H22 2736   4.812   1.202   4.489 -0.2232  0.9571  1.0156
  119DG     H23 2737   4.864   1.284   4.637  4.0399 -0.2151  0.4877
  120DG      C1 2738   1.308   5.222   4.799  0.0657 -0.7461 -0.2400
  120DG      C2 2739   1.799   5.459   5.082 -0.0759  0.7225 -0.5306
  120DG      H3 2740   1.201   5.200   4.804 -0.0559 -0.3261 -0.9906
  120DG      H4 2741   1.358   5.144   4.856  1.5572 -0.1444 -0.6859
  120DG      H5 2742   1.343   5.230   4.697  0.2452 -0.7612 -0.1792
  120DG      H6 2743   1.841   5.367   5.123  0.3120  0.9776 -0.3500
  120DG      H7 2744   1.799   5.450   4.974 -2.5742 -0.3221 -0.5142
  120DG      H8 2745   1.871   5.537   5.107  0.8992 -0.3331  0.0932
  120DG      O9 2746   1.343   5.335   4.876 -0.6307 -0.1413 -0.1105
  120DG     O10 2747   1.670   5.491   5.127  0.2563  0.6132  0.3164
  120DG     C11 2748   1.278   5.457   4.833  0.5866  0.1164 -0.2457
  120DG     C12 2749   1.622   5.621   5.094 -0.3123  0.0370 -0.7890
  120DG     H13 2750   1.172   5.445   4.813  0.8759  0.8952 -2.4825
  120DG     H14 2751   1.325   5.502   4.745 -0.0439  0.7014 -0.2949
  120DG     H15 2752   1.658   5.656   4.997 -2.7709  1.4362 -1.3061
  120DG     H16 2753   1.661   5.680   5.176  0.5712 -1.0805 -0.3871
  120DG     C17 2754   1.296   5.558   4.951  0.4135  0.6597 -0.3077
  120DG     C18 2755   1.470   5.628   5.088 -0.8424  0.2058  0.1782
  120DG     O19 2756   1.429   5.541   4.983 -0.2468 -0.2726 -0.8645
  120DG     H20 2757   1.225   5.529   5.028  0.8434 -1.5178 -0.6623
  120DG     H21 2758   1.264   5.655   4.912  0.6369  0.2281 -1.6376
  120DG     H22 2759   1.423   5.601   5.182 -2.0877 -2.5414 -1.1207
  120DG     H23 2760   1.444   5.724   5.042 -4.3627 -1.7250 -2.3547
  121DG      C1 2761   4.008   2.389   0.608  0.5373  0.3562  0.2752
  121DG      C2 2762   3.472   1.841   0.216  0.2671  0.3328  0.7412
  121DG      H3 2763   4.022   2.353   0.710 -3.7390 -0.1276  0.8611
  121DG      H4 2764   3.912   2.439   0.605  0.7131  1.0339  3.0799
  121DG      H5 2765   4.089   2.457   0.581 -0.2564  0.8769 -0.8559
  121DG      H6 2766   3.389   1.893   0.168  0.5121  0.0296 -0.0206
  121DG      H7 2767   3.479   1.760   0.144  1.6045  1.2821 -0.2506
  121DG      H8 2768   3.442   1.801   0.313 -1.0407 -0.1881  0.1501
  121DG      O9 2769   4.019   2.286   0.509 -0.1656 -0.2927 -0.3289
  121DG     O10 2770   3.595   1.907   0.224 -0.5502 -0.3558  0.2863
  121DG     C11 2771   3.912   2.204   0.498 -0.6626  0.1644 -0.6179
  121DG     C12 2772   3.700   1.827   0.273 -0.0802 -0.2508 -0.5473
  121DG     H13 2773   3.818   2.257   0.481 -1.0345  1.1228  3.2784
  121DG     H14 2774   3.904   2.165   0.600  0.2086  0.5498 -0.3921
  121DG     H15 2775   3.725   1.739   0.215 -2.3486 -1.8654  0.7793
  121DG     H16 2776   3.677   1.793   0.374  0.9196  1.1265  0.1883
  121DG     C17 2777   3.935   2.095   0.392 -0.2061 -0.3170 -0.4053
  121DG     C18 2778   3.831   1.913   0.279 -0.5241 -0.2319 -0.2771
  121DG     O19 2779   3.818   2.022   0.383 -0.6079 -0.1468 -0.2564
  121DG     H20 2780   4.011   2.024   0.423  0.2306 -0.0659 -0.9009
  121DG     H21 2781   3.953   2.134   0.293  0.4570  0.1557 -0.1019
  121DG     H22 2782   3.912   1.846   0.308  0.0474  0.9458  0.9770
  121DG     H23 2783   3.872   1.949   0.185  1.7486  0.4884  0.8968
  122DG      C1 2784   1.881   0.512   3.609 -0.2352 -0.8387 -1.1069
  122DG      C2 2785   2.411   0.080   3.493  0.2795 -0.1950  0.0114
  122DG      H3 2786   1.901   0.564   3.703 -1.7819 -0.8989 -0.7143
  122DG      H4 2787   1.826   0.421   3.631  0.8977 -1.4263 -0.6370
  122DG      H5 2788   1.822   0.585   3.553  0.2858  2.0113  1.7428
  122DG      H6 2789   2.511   0.108   3.526  1.0106  1.3951 -3.1587
  122DG      H7 2790   2.354   0.032   3.572  1.6589 -0.1792  1.0423
  122DG      H8 2791   2.434   0.004   3.418 -0.6385 -0.5464  0.0672
  122DG      O9 2792   1.993   0.496   3.527  0.3004  0.0310 -0.9975
  122DG     O10 2793   2.337   0.192   3.436 -0.0357  0.3732 -1.0211
  122DG     C11 2794   2.079   0.613   3.511  0.8361 -0.7841 -0.7383
  122DG     C12 2795   2.429   0.306   3.410 -0.1076 -0.2523  0.3705
  122DG     H13 2796   2.113   0.658   3.604 -1.1236 -1.9521  0.6140
  122DG     H14 2797   2.021   0.695   3.468 -0.4552 -1.5529 -0.5246
  122DG     H15 2798   2.510   0.275   3.343  0.0365 -0.1133  0.4795
  122DG     H16 2799   2.487   0.337   3.497  2.6888  1.1885 -1.8400
  122DG     C17 2800   2.187   0.580   3.405 -0.4262 -0.0311  0.0338
  122DG     C18 2801   2.357   0.425   3.347  0.5317 -0.2518 -0.2857
  122DG     O19 2802   2.247   0.454   3.436 -0.1541 -0.2548 -0.5403
  122DG     H20 2803   2.259   0.662   3.409  0.4134 -0.7701  0.5478
  122DG     H21 2804   2.133   0.579   3.311 -1.4761  1.7613  0.5751
  122DG     H22 2805   2.430   0.505   3.335  1.4768 -1.1001 -0.3421
  122DG     H23 2806   2.331   0.390   3.247  0.8613 -0.4326 -0.3097
  123DG      C1 2807   4.151   4.186   1.139  0.0834  0.0941  0.2768
  123DG      C2 2808   4.452   4.742   0.593 -0.6661  0.5786  0.4018
  123DG      H3 2809   4.238   4.179   1.205 -0.2714  0.3218  0.7708
  123DG      H4 2810   4.179   4.141   1.044  0.0532  1.1940 -0.2682
  123DG      H5 2811   4.070   4.138   1.193  0.1341 -0.4521 -0.1279
  123DG      H6 2812   4.553   4.747   0.633 -1.1061 -2.7362  2.2855
  123DG      H7 2813   4.471   4.661   0.523  1.1591  0.8094  0.5958
  123DG      H8 2814   4.438   4.836   0.540  2.9064  3.0880  3.3921
  123DG      O9 2815   4.122   4.323   1.109  0.2006 -0.3410  0.3453
  123DG     O10 2816   4.345   4.701   0.683 -0.4846  0.1346  0.4759
  123DG     C11 2817   4.235   4.409   1.080  0.3859  0.3009  0.8201
  123DG     C12 2818   4.338   4.793   0.793  0.3847 -0.5926  0.2359
  123DG     H13 2819   4.292   4.355   1.003 -0.5792  0.3740  0.0309
  123DG     H14 2820   4.306   4.421   1.162  1.0869  0.8187  0.1577
  123DG     H15 2821   4.299   4.886   0.752 -1.3290 -0.7907  1.3482
  123DG     H16 2822   4.439   4.804   0.832  0.1592 -1.8560  1.2330
  123DG     C17 2823   4.181   4.543   1.019 -0.1040  0.1007  0.2994
  123DG     C18 2824   4.239   4.729   0.896 -0.1132  0.3763  0.1297
  123DG     O19 2825   4.286   4.606   0.947 -0.0608  0.5336  0.4445
  123DG     H20 2826   4.155   4.617   1.095 -0.4102 -0.6237  0.9031
  123DG     H21 2827   4.090   4.520   0.963 -0.3551  1.6354  0.0261
  123DG     H22 2828   4.215   4.803   0.973 -1.1426  1.0796 -0.8160
  123DG     H23 2829   4.143   4.725   0.844 -0.3190  1.9611  0.3109
  124DG      C1 2830   4.257   0.010   0.348 -0.1370  0.2334 -0.3297
  124DG      C2 2831   4.901  -0.116   0.458 -0.1507  0.0548  0.2282
  124DG      H3 2832   4.169   0.074   0.360 -0.9798 -1.0040  0.2987
  124DG      H4 2833   4.252  -0.064   0.428 -0.3477  2.8383  2.2788
  124DG      H5 2834   4.250  -0.041   0.252  1.0615  1.2189 -0.9654
  124DG      H6 2835   4.871  -0.173   0.371  0.5005  1.5456 -1.0207
  124DG      H7 2836   5.008  -0.117   0.477 -0.2315 -0.6237  0.6938
  124DG      H8 2837   4.852  -0.168   0.540 -0.3845  0.4789  0.3643
  124DG      O9 2838   4.376   0.082   0.344  0.1633  0.1753 -0.5761
  124DG     O10 2839   4.839   0.010   0.438  0.1917  0.2176  0.4530
  124DG     C11 2840   4.370   0.182   0.454 -1.1158 -0.3835 -0.1320
  124DG     C12 2841   4.832   0.093   0.547  0.0027 -0.1083  0.0538
  124DG     H13 2842   4.352   0.133   0.550 -1.0526  0.1762  0.1699
  124DG     H14 2843   4.298   0.263   0.442 -1.1287 -0.2400  0.8121
  124DG     H15 2844   4.923   0.147   0.573  0.1906 -0.9293  1.1627
  124DG     H16 2845   4.810   0.034   0.636  3.4702 -1.3860  0.2285
  124DG     C17 2846   4.500   0.249   0.456 -0.4506 -0.0128 -0.4371
  124DG     C18 2847   4.734   0.215   0.517 -0.6043  0.4891 -0.2619
  124DG     O19 2848   4.608   0.151   0.474  0.1531 -0.0400 -0.3109
  124DG     H20 2849   4.512   0.327   0.532  1.3070  0.1373 -0.8153
  124DG     H21 2850   4.517   0.305   0.364  1.5804  0.2008  0.0048
  124DG     H22 2851   4.718   0.274   0.606  0.2844 -1.0266  0.9622
  124DG     H23 2852   4.765   0.286   0.440 -0.8061 -1.0958 -1.9012
  125DG      C1 2853   3.596   4.549   5.425 -0.0548 -0.0686 -0.1266
  125DG      C2 2854   3.285   5.097   5.149  0.6341 -0.7483 -0.2426
  125DG      H3 2855   3.698   4.552   5.389 -0.3123 -0.8163 -0.9589
  125DG      H4 2856   3.522   4.537   5.345 -0.5731 -1.3862  0.5190
  125DG      H5 2857   3.597   4.467   5.496  0.9901  0.9373  1.0707
  125DG      H6 2858   3.251   5.200   5.156  1.7074 -0.4369  0.6680
  125DG      H7 2859   3.374   5.090   5.086  2.8460 -1.5343  2.7413
  125DG      H8 2860   3.205   5.028   5.119 -1.4999  1.7079 -0.5197
  125DG      O9 2861   3.570   4.660   5.513  0.3269 -0.1420 -0.4158
  125DG     O10 2862   3.341   5.062   5.280  0.3581 -0.0503  0.0121
  125DG     C11 2863   3.440   4.650   5.573 -0.3565  0.4386 -0.0161
  125DG     C12 2864   3.250   5.055   5.382 -0.3668 -0.1523 -0.1005
  125DG     H13 2865   3.460   4.575   5.649  0.1725 -1.0157 -1.5161
  125DG     H14 2866   3.360   4.607   5.512 -0.4162  1.5979 -0.7856
  125DG     H15 2867   3.173   4.985   5.348  0.3647  0.4780 -3.4901
  125DG     H16 2868   3.206   5.152   5.403  0.0301 -0.2829  1.4096
  125DG     C17 2869   3.389   4.791   5.614  0.1729  0.2440 -0.1162
  125DG     C18 2870   3.315   4.999   5.511  0.3611  0.4370  0.6344
  125DG     O19 2871   3.345   4.863   5.499 -0.0412  0.7612 -0.7231
  125DG     H20 2872   3.474   4.847   5.653 -1.7930  1.6602  2.4651
  125DG     H21 2873   3.323   4.798   5.701  1.0136  3.9878  0.4028
  125DG     H22 2874   3.402   5.064   5.520 -0.6326  1.8356  0.4555
  125DG     H23 2875   3.260   5.019   5.603 -2.2299  1.4509 -1.0567
  126DG      C1 2876   4.763   0.787   4.241 -0.0641 -0.0535 -0.3410
  126DG      C2 2877   4.440   1.012   3.774  0.4525 -0.3582  0.2410
  126DG      H3 2878   4.711   0.694   4.219  1.5149 -0.4104 -3.0005
  126DG      H4 2879   4.818   0.787   4.334 -0.9601  1.5430  0.2476
  126DG      H5 2880   4.837   0.792   4.161  0.8143  2.1281  0.5128
  126DG      H6 2881   4.352   0.969   3.727  0.3270 -0.0234  0.1641
  126DG      H7 2882   4.428   1.121   3.773  2.8657 -0.0280  0.4574
  126DG      H8 2883   4.540   1.004   3.731  0.2458 -0.1392 -0.2943
  126DG      O9 2884   4.681   0.902   4.248 -0.0859 -0.2228 -0.9115
  126DG     O10 2885   4.466   0.991   3.912  0.4808 -0.0399  0.1623
  126DG     C11 2886   4.583   0.894   4.344 -0.3746 -0.2217 -0.4063
  126DG     C12 2887   4.343   0.991   3.992 -0.7977  0.4911  0.0738
  126DG     H13 2888   4.635   0.878   4.438 -0.0583 -0.5677 -0.6370
  126DG     H14 2889   4.530   0.803   4.314 -1.5673  0.1037  0.6036
  126DG     H15 2890   4.272   0.922   3.946  1.1605 -0.6914 -1.3150
  126DG     H16 2891   4.295   1.088   3.989 -0.4510  0.6654  0.1502
  126DG     C17 2892   4.496   1.019   4.320  0.1580  1.0013 -0.5072
  126DG     C18 2893   4.368   0.947   4.131  0.4237  0.4200  0.1137
  126DG     O19 2894   4.469   1.040   4.180 -0.0754  0.4593 -0.3643
  126DG     H20 2895   4.558   1.105   4.347  0.3606  0.9202 -0.7138
  126DG     H21 2896   4.406   1.019   4.381  0.1443 -1.8608 -0.3872
  126DG     H22 2897   4.288   0.947   4.205  0.3715 -0.3497  0.0684
  126DG     H23 2898   4.416   0.849   4.134  0.0619  0.1512 -1.5436
  127DG      C1 2899   4.473   4.782   4.050  0.2429  0.1937 -0.1864
  127DG      C2 2900   4.943   4.527   4.101  0.2861  0.1136  0.1925
  127DG      H3 2901   4.375   4.819   4.018 -0.5410 -0.8952  0.8632
  127DG      H4 2902   4.467   4.674   4.060  2.4353 -0.1129 -1.6797
  127DG      H5 2903   4.550   4.804   3.977  0.3857  1.4519  0.3174
  127DG      H6 2904   4.895   4.443   4.050  0.8109  0.6935 -1.3205
  127DG      H7 2905   5.047   4.524   4.066  0.4575  1.7124  0.5105
  127DG      H8 2906   4.953   4.513   4.208  1.7990  1.5954  0.2907
  127DG      O9 2907   4.507   4.834   4.179 -0.2871  0.8591 -0.0220
  127DG     O10 2908   4.870   4.644   4.098  0.4942 -0.0871  0.2590
  127DG     C11 2909   4.558   4.965   4.188  0.5256 -0.0408 -0.1068
  127DG     C12 2910   4.955   4.754   4.114 -0.4965  0.6044 -0.6020
  127DG     H13 2911   4.568   4.982   4.295  0.5961  1.2776 -0.3099
  127DG     H14 2912   4.477   5.032   4.158  0.8220  0.6977  0.6938
  127DG     H15 2913   5.039   4.750   4.044 -0.2645 -0.0815 -0.2881
  127DG     H16 2914   5.007   4.762   4.209  1.0833 -0.8652 -1.2910
  127DG     C17 2915   4.687   4.998   4.126 -0.4751  0.0528  0.6226
  127DG     C18 2916   4.898   4.897   4.093  0.0145 -0.0167 -0.0487
  127DG     O19 2917   4.774   4.890   4.160 -0.3534  0.0568  0.0140
  127DG     H20 2918   4.704   5.104   4.145 -2.2261  0.8048 -1.5894
  127DG     H21 2919   4.667   4.991   4.019 -0.3801 -0.6818  0.6441
  127DG     H22 2920   4.967   4.976   4.122 -0.1859 -0.1909  0.9287
  127DG     H23 2921   4.883   4.911   3.986  2.1322  0.7090 -0.2900
  128DG      C1 2922   2.413   0.586   4.090 -0.0341 -0.0369 -0.4123
  128DG      C2 2923   1.896   0.657   4.510  0.2147 -0.1553 -0.2711
  128DG      H3 2924   2.336   0.558   4.020  0.7481 -0.2713 -1.1955
  128DG      H4 2925   2.502   0.535   4.054  0.0564  0.4859 -0.9485
  128DG      H5 2926   2.425   0.694   4.094 -0.1866  0.0374 -1.6320
  128DG      H6 2927   1.796   0.615   4.522 -0.4958  1.5349 -0.0620
  128DG      H7 2928   1.932   0.686   4.609 -2.6495 -0.1144  0.8642
  128DG      H8 2929   1.895   0.750   4.453 -0.2781  0.8674  1.3382
  128DG      O9 2930   2.372   0.531   4.211 -0.6935  0.1275 -0.0218
  128DG     O10 2931   1.972   0.566   4.436 -0.3515 -0.1490  0.0490
  128DG     C11 2932   2.389   0.392   4.222  0.2253 -0.4363  0.2893
  128DG     C12 2933   1.999   0.447   4.510  0.0917 -0.5716  0.5047
  128DG     H13 2934   2.460   0.392   4.305 -1.5981  0.9156  1.9693
  128DG     H14 2935   2.430   0.349   4.131 -0.0429  0.4589 -0.2765
  128DG     H15 2936   1.904   0.410   4.548 -1.4927  2.2151 -0.4563
  128DG     H16 2937   2.041   0.477   4.606 -0.5405  0.7230  0.3955
  128DG     C17 2938   2.259   0.316   4.270 -0.1288 -0.3948 -0.9016
  128DG     C18 2939   2.086   0.338   4.434  0.8943  0.5389 -0.2535
  128DG     O19 2940   2.198   0.393   4.373 -0.2369  0.0484 -0.7683
  128DG     H20 2941   2.282   0.213   4.299  0.9540 -0.2916 -1.3590
  128DG     H21 2942   2.186   0.311   4.189  0.5018  0.2622 -1.5326
  128DG     H22 2943   2.112   0.252   4.497 -1.5728  0.5350  0.8733
  128DG     H23 2944   2.021   0.296   4.357  0.5180 -1.5718  1.1306
  129DG      C1 2945   4.880   1.800   3.823  0.7556 -0.6363  0.0351
  129DG      C2 2946   5.468   1.694   3.744  0.0804  0.5208  0.5694
  129DG      H3 2947   4.838   1.838   3.917  0.9289  0.5009 -0.3265
  129DG      H4 2948   4.795   1.760   3.769 -0.6401  0.9289  0.9415
  129DG      H5 2949   4.896   1.888   3.761  0.2660  1.0004  2.1238
  129DG      H6 2950   5.448   1.650   3.647 -0.9040 -0.8014  1.3253
  129DG      H7 2951   5.470   1.803   3.738  1.4410  0.4634 -0.2248
  129DG      H8 2952   5.570   1.672   3.774  0.4701  0.3930 -0.8001
  129DG      O9 2953   4.997   1.722   3.827  0.5388  0.1194 -0.4672
  129DG     O10 2954   5.381   1.639   3.840 -0.3029  0.4982 -0.2821
  129DG     C11 2955   4.950   1.588   3.845 -0.2699  0.4887  0.1439
  129DG     C12 2956   5.379   1.496   3.860  0.1532  0.5055  0.6357
  129DG     H13 2957   4.902   1.549   3.756  1.0424 -0.2780 -0.2651
  129DG     H14 2958   4.889   1.574   3.935  1.8960 -0.0580  1.6125
  129DG     H15 2959   5.483   1.475   3.884 -0.0318  1.8501  2.9071
  129DG     H16 2960   5.361   1.451   3.762  1.9951 -0.9437  0.9180
  129DG     C17 2961   5.071   1.493   3.858 -0.6392 -0.5719 -0.2981
  129DG     C18 2962   5.275   1.461   3.971 -0.8687  0.4250 -0.2272
  129DG     O19 2963   5.162   1.538   3.956  0.2083  0.5857  0.5592
  129DG     H20 2964   5.127   1.483   3.765 -0.4920 -3.0877  0.0006
  129DG     H21 2965   5.042   1.391   3.885  0.5514 -0.8368  0.0784
  129DG     H22 2966   5.248   1.356   3.981 -0.6145  0.1776 -1.7885
  129DG     H23 2967   5.322   1.491   4.064  0.2502  0.8005 -0.8875
  130DG      C1 2968   2.214   1.521   2.549  0.1480  0.7884 -0.0620
  130DG      C2 2969   1.905   1.638   1.867 -0.9399 -0.7570 -0.2969
  130DG      H3 2970   2.219   1.449   2.631 -1.9720 -0.7394 -1.1851
  130DG      H4 2971   2.178   1.617   2.585  0.1741  0.6819  0.2461
  130DG      H5 2972   2.317   1.538   2.517 -0.3744  1.6137 -1.4044
  130DG      H6 2973   1.860   1.587   1.782 -0.2859  0.9347 -1.7346
  130DG      H7 2974   1.830   1.702   1.914  0.2015 -0.5870  1.3851
  130DG      H8 2975   1.986   1.698   1.824 -1.0726 -2.4125 -3.1394
  130DG      O9 2976   2.140   1.464   2.441 -0.2691  0.3500  0.4519
  130DG     O10 2977   1.957   1.559   1.967 -0.1216  0.1713 -0.2311
  130DG     C11 2978   2.206   1.357   2.371 -0.2344 -0.3081  0.1238
  130DG     C12 2979   2.065   1.472   1.927  0.0307  0.0279 -0.1538
  130DG     H13 2980   2.225   1.284   2.449 -0.7240 -1.1810 -0.5614
  130DG     H14 2981   2.302   1.390   2.333 -0.4349  0.6988  0.4500
  130DG     H15 2982   2.157   1.530   1.939 -0.3461  0.2019  2.5655
  130DG     H16 2983   2.070   1.436   1.824  0.9181 -0.5930  0.0883
  130DG     C17 2984   2.121   1.306   2.252  0.4403 -1.0934  0.1787
  130DG     C18 2985   2.072   1.359   2.034 -0.0107 -0.5268 -0.0047
  130DG     O19 2986   2.114   1.412   2.158  0.3906  0.3103 -0.1885
  130DG     H20 2987   2.018   1.282   2.281  0.4546 -2.2123 -0.6282
  130DG     H21 2988   2.160   1.211   2.217  0.2366 -1.2735  0.4266
  130DG     H22 2989   1.971   1.319   2.038  0.0063 -0.4693  1.5045
  130DG     H23 2990   2.138   1.279   1.999 -0.7535 -1.6335  1.0342
  131DG      C1 2991   0.418   2.829   5.474 -0.1320 -0.6705 -0.0845
  131DG      C2 2992   0.038   2.288   5.201 -0.7465  0.1210 -0.1786
  131DG      H3 2993   0.518   2.826   5.429 -0.1323 -1.2364 -0.0474
  131DG      H4 2994   0.430   2.881   5.569 -0.5617 -0.2871 -0.2354
  131DG      H5 2995   0.355   2.878   5.399 -0.2788 -2.0891 -0.9250
  131DG      H6 2996  -0.035   2.224   5.251 -0.2863 -1.3193 -1.2911
  131DG      H7 2997  -0.031   2.352   5.146 -1.7246 -0.5939  0.1928
  131DG      H8 2998   0.090   2.226   5.128 -3.0393  1.4023 -3.0867
  131DG      O9 2999   0.367   2.695   5.490 -0.3430 -0.0923  0.6289
  131DG     O10 3000   0.120   2.346   5.309 -0.1647  0.1514  0.9286
  131DG     C11 3001   0.412   2.634   5.607  0.4024 -0.0391 -0.0042
  131DG     C12 3002   0.184   2.259   5.393 -0.3038 -0.1139 -0.0789
  131DG     H13 3003   0.380   2.680   5.700  1.0383  2.0479 -0.7528
  131DG     H14 3004   0.520   2.642   5.608  0.6068 -2.1247 -0.6890
  131DG     H15 3005   0.278   2.234   5.343  0.0305  1.0116 -0.0582
  131DG     H16 3006   0.126   2.168   5.404  0.7407 -0.6528  1.2202
  131DG     C17 3007   0.380   2.489   5.616 -0.0713  0.1500 -0.3552
  131DG     C18 3008   0.211   2.326   5.527 -0.1476 -0.9483  0.1127
  131DG     O19 3009   0.286   2.452   5.510 -0.0101 -0.1601 -0.4003
  131DG     H20 3010   0.335   2.471   5.714  1.1046  1.3474  0.4423
  131DG     H21 3011   0.466   2.423   5.628  0.8165  1.3042 -0.1996
  131DG     H22 3012   0.118   2.346   5.580  0.3857 -0.8653  1.0319
  131DG     H23 3013   0.262   2.255   5.592 -0.2437  0.7898  2.1999
  132DG      C1 3014   2.090   0.263   0.628 -0.4578 -0.0745  0.0093
  132DG      C2 3015   2.070   0.789   0.763 -0.8341  0.3142 -0.1691
  132DG      H3 3016   2.088   0.371   0.616 -1.6820 -0.1531 -0.5856
  132DG      H4 3017   1.997   0.230   0.675 -0.3885 -0.2448  0.0321
  132DG      H5 3018   2.085   0.226   0.526 -0.9133  1.7989 -0.6873
  132DG      H6 3019   2.022   0.790   0.861  0.5027  1.2428  0.5052
  132DG      H7 3020   2.099   0.891   0.738  2.3670 -0.1085  1.3807
  132DG      H8 3021   1.986   0.758   0.701 -2.1821  2.6490  0.3509
  132DG      O9 3022   2.209   0.233   0.705  0.5166  0.2858  0.3892
  132DG     O10 3023   2.177   0.693   0.763 -0.0742  0.2017  0.0014
  132DG     C11 3024   2.334   0.251   0.636  0.5266 -0.3555 -0.4694
  132DG     C12 3025   2.278   0.731   0.670  0.3131  0.2276  0.0204
  132DG     H13 3026   2.317   0.226   0.531 -2.1930 -1.7214  0.2359
  132DG     H14 3027   2.407   0.179   0.674 -0.4961 -0.3596  1.6131
  132DG     H15 3028   2.318   0.830   0.694  0.8838 -0.3293  1.4489
  132DG     H16 3029   2.238   0.729   0.568  1.2440  0.3171 -0.3572
  132DG     C17 3030   2.390   0.392   0.659  0.3446 -0.6256 -0.2538
  132DG     C18 3031   2.377   0.620   0.663 -0.0601  0.7554 -0.2005
  132DG     O19 3032   2.309   0.498   0.627  0.4721 -0.1596 -0.2383
  132DG     H20 3033   2.483   0.393   0.603 -0.6355 -1.6807 -1.9649
  132DG     H21 3034   2.425   0.387   0.763  1.7231 -0.2803 -0.6817
  132DG     H22 3035   2.454   0.649   0.591 -0.5252 -0.0243 -1.0214
  132DG     H23 3036   2.411   0.620   0.767  1.4929 -0.9386 -0.6390
  133DG      C1 3037   5.446   2.757   1.742  0.2297 -0.3967  0.0203
  133DG      C2 3038   5.367   2.933   2.391  0.1314  0.0306  0.7776
  133DG      H3 3039   5.467   2.680   1.668  0.5719 -0.5602  0.2834
  133DG      H4 3040   5.528   2.773   1.813 -1.5481 -0.0385  2.1192
  133DG      H5 3041   5.442   2.843   1.676  1.1713  0.9605  1.6507
  133DG      H6 3042   5.471   2.962   2.373  0.1172 -0.9956 -1.2214
  133DG      H7 3043   5.316   3.025   2.421  0.7464 -0.2054  2.7293
  133DG      H8 3044   5.350   2.870   2.479 -1.6669  1.3877  1.4550
  133DG      O9 3045   5.318   2.750   1.798 -0.2930 -0.6382  0.0991
  133DG     O10 3046   5.310   2.889   2.277  0.3874 -0.0465 -0.1975
  133DG     C11 3047   5.309   2.643   1.891  0.2057 -0.4333 -0.2445
  133DG     C12 3048   5.168   2.877   2.283  0.7252  0.3592 -0.1812
  133DG     H13 3049   5.398   2.622   1.950 -0.4513 -1.2850  0.4608
  133DG     H14 3050   5.298   2.562   1.820 -1.2089 -0.0357 -0.4949
  133DG     H15 3051   5.130   2.976   2.258  2.4810  0.9048 -0.8245
  133DG     H16 3052   5.130   2.858   2.384  1.2602 -0.6962 -0.1593
  133DG     C17 3053   5.186   2.665   1.982 -0.5823  0.3978 -0.1621
  133DG     C18 3054   5.115   2.773   2.185  0.1961 -0.4394 -0.2474
  133DG     O19 3055   5.213   2.764   2.079 -0.0115 -0.0949 -0.5443
  133DG     H20 3056   5.163   2.570   2.030  2.0063 -0.6529 -0.8275
  133DG     H21 3057   5.108   2.698   1.912 -0.9732 -2.4449 -1.1985
  133DG     H22 3058   5.109   2.675   2.230 -0.3973  0.3675  1.5137
  133DG     H23 3059   5.015   2.785   2.142 -0.6565 -1.4434  1.3698
  134DG      C1 3060   2.032   2.633   5.458 -0.3058 -0.1787 -0.5738
  134DG      C2 3061   2.123   2.577   4.808 -0.7309  0.5772 -0.3060
  134DG      H3 3062   1.999   2.572   5.542  0.5232  0.0483 -0.0603
  134DG      H4 3063   1.974   2.725   5.464  0.2129  0.2032 -1.2430
  134DG      H5 3064   2.138   2.653   5.477 -0.1902 -0.5622 -0.7967
  134DG      H6 3065   2.127   2.681   4.777  0.0605  0.8988  0.7948
  134DG      H7 3066   2.208   2.553   4.873 -0.3050 -0.8944 -1.3531
  134DG      H8 3067   2.134   2.514   4.720 -1.9412  2.1904 -1.6947
  134DG      O9 3068   2.008   2.574   5.325 -0.3172 -0.4655 -0.4556
  134DG     O10 3069   2.006   2.552   4.881 -0.1696 -0.3161  0.0819
  134DG     C11 3070   2.031   2.432   5.325 -0.5619  0.3838  0.3297
  134DG     C12 3071   1.973   2.413   4.888 -0.2877 -0.4574 -0.2138
  134DG     H13 3072   1.968   2.369   5.389  0.8476 -2.3847 -0.8190
  134DG     H14 3073   2.129   2.403   5.363 -0.6559  1.8947  1.8403
  134DG     H15 3074   2.054   2.345   4.916  0.9393  0.1632 -2.0788
  134DG     H16 3075   1.935   2.383   4.790  0.5035 -1.9076 -0.1063
  134DG     C17 3076   2.009   2.383   5.189  0.3121  0.5481 -0.1153
  134DG     C18 3077   1.869   2.394   5.000  0.2131  0.2603  0.2117
  134DG     O19 3078   1.904   2.448   5.125 -0.0648  0.2232 -0.2799
  134DG     H20 3079   2.005   2.274   5.184  1.3457  0.3574  1.9804
  134DG     H21 3080   2.103   2.393   5.134  0.0388 -1.9282 -1.1853
  134DG     H22 3081   1.780   2.448   4.967 -0.1136  1.8378  3.3065
  134DG     H23 3082   1.838   2.290   5.010 -1.0042  0.6681  0.9096
  135DG      C1 3083   3.236   5.378   0.626  0.0911  0.2764 -0.1059
  135DG      C2 3084   3.557   5.286   1.164 -0.0805  0.0229  0.2893
  135DG      H3 3085   3.313   5.302   0.624 -0.2900 -0.6268  5.0767
  135DG      H4 3086   3.285   5.475   0.613 -0.3296  0.2200 -2.5934
  135DG      H5 3087   3.165   5.370   0.544  0.4985  0.6968 -0.5026
  135DG      H6 3088   3.526   5.273   1.268 -0.0757 -0.8177  0.1997
  135DG      H7 3089   3.642   5.219   1.153 -0.3882 -0.1627 -1.1290
  135DG      H8 3090   3.587   5.390   1.162  0.3106 -0.0900 -1.3979
  135DG      O9 3091   3.178   5.369   0.757  0.0634 -0.5558  0.1260
  135DG     O10 3092   3.443   5.260   1.079 -0.1627 -0.0457  0.2991
  135DG     C11 3093   3.098   5.249   0.774 -0.2459 -0.4095  0.3172
  135DG     C12 3094   3.405   5.122   1.070 -0.2136 -0.0778  0.3803
  135DG     H13 3095   3.155   5.173   0.721  0.4174 -1.1357  1.9964
  135DG     H14 3096   3.002   5.264   0.724 -0.6905  0.8466  1.4927
  135DG     H15 3097   3.364   5.108   1.170  1.3929  1.8678  1.3644
  135DG     H16 3098   3.482   5.046   1.058 -0.4719 -1.0061  3.5121
  135DG     C17 3099   3.064   5.191   0.910 -0.1201  0.2169  0.4816
  135DG     C18 3100   3.284   5.101   0.969 -0.1598  0.0781  0.2131
  135DG     O19 3101   3.181   5.193   0.998 -0.2897 -0.0258 -0.1603
  135DG     H20 3102   3.024   5.090   0.904  0.9618 -0.2427  0.7741
  135DG     H21 3103   2.994   5.254   0.966 -0.1191  1.4779 -0.8654
  135DG     H22 3104   3.330   5.116   0.871  1.9974 -0.2932  1.1098
  135DG     H23 3105   3.240   5.002   0.957  1.7651 -0.7455 -0.3801
  136DG      C1 3106   4.736   3.532   1.002  0.5559 -0.4860 -0.3188
  136DG      C2 3107   4.927   3.025   1.497  0.9382 -0.4129 -0.1895
  136DG      H3 3108   4.657   3.594   0.961  1.2727  0.2706 -0.5776
  136DG      H4 3109   4.820   3.539   0.933 -0.7187  1.1254 -1.7918
  136DG      H5 3110   4.766   3.570   1.100 -0.3469  3.8244 -1.4865
  136DG      H6 3111   4.935   2.922   1.531  0.8097 -0.1692  0.5941
  136DG      H7 3112   5.020   3.055   1.448  0.6266 -1.0330 -1.1874
  136DG      H8 3113   4.908   3.091   1.582 -0.6082  1.0773 -1.6107
  136DG      O9 3114   4.700   3.392   1.009 -0.2904 -0.5416  0.1439
  136DG     O10 3115   4.808   3.041   1.415 -0.3333 -0.2855 -0.4035
  136DG     C11 3116   4.598   3.368   1.107  0.4553  0.0536  0.3222
  136DG     C12 3117   4.824   2.985   1.286 -0.8602 -0.8335  0.4819
  136DG     H13 3118   4.501   3.414   1.088  0.8039  0.0742 -1.5448
  136DG     H14 3119   4.626   3.418   1.200 -0.4492 -0.1064  0.6962
  136DG     H15 3120   4.822   2.877   1.295 -1.7250 -0.7440  1.4959
  136DG     H16 3121   4.917   3.016   1.237 -0.7152  0.5114  1.5480
  136DG     C17 3122   4.588   3.214   1.132 -0.0002 -0.3735 -0.1648
  136DG     C18 3123   4.702   3.033   1.213 -0.1373  0.2519 -0.5955
  136DG     O19 3124   4.695   3.172   1.210 -0.1827 -0.1313  0.2789
  136DG     H20 3125   4.597   3.171   1.033 -0.4343 -2.0312  0.4919
  136DG     H21 3126   4.492   3.190   1.177 -0.5618 -1.1833 -1.7220
  136DG     H22 3127   4.722   2.999   1.111  0.9165 -0.0496 -0.3044
  136DG     H23 3128   4.620   2.989   1.269 -1.4244  2.5143 -0.5813
  137DG      C1 3129   3.780   0.170   2.638 -0.5529 -0.2252 -0.4337
  137DG      C2 3130   4.106   0.491   1.979  0.0275 -0.2339  0.6529
  137DG      H3 3131   3.737   0.091   2.577 -1.6109  0.6404 -0.8534
  137DG      H4 3132   3.688   0.214   2.676 -0.1241  0.0768  0.2868
  137DG      H5 3133   3.842   0.138   2.722  1.5449  0.7650 -1.5308
  137DG      H6 3134   4.206   0.531   1.992 -0.1962  1.1981 -1.5402
  137DG      H7 3135   4.106   0.391   1.937  0.3312  0.2686 -0.5766
  137DG      H8 3136   4.061   0.553   1.902  1.1591 -0.0126  0.1513
  137DG      O9 3137   3.845   0.258   2.551 -0.0070  0.1022 -0.2091
  137DG     O10 3138   4.026   0.499   2.096  0.6748  0.1069 -0.0111
  137DG     C11 3139   3.949   0.207   2.470 -0.4438  0.0291 -0.2195
  137DG     C12 3140   3.892   0.458   2.086  0.1724 -0.3326  0.8026
  137DG     H13 3141   3.932   0.106   2.431 -1.9024  0.7270 -1.4652
  137DG     H14 3142   4.041   0.216   2.528  1.0231  1.6367 -2.6474
  137DG     H15 3143   3.889   0.372   2.019  1.9493 -0.3068  0.6558
  137DG     H16 3144   3.838   0.533   2.028 -3.6268 -1.1558  2.8800
  137DG     C17 3145   3.963   0.296   2.354  0.6002 -0.3240  0.7932
  137DG     C18 3146   3.825   0.432   2.212 -0.1311  0.5341 -0.4995
  137DG     O19 3147   3.842   0.310   2.280 -0.3628  0.3168  0.2513
  137DG     H20 3148   4.044   0.258   2.291 -0.8321 -0.4964 -1.0350
  137DG     H21 3149   3.996   0.392   2.395 -0.5952 -0.4063  2.0045
  137DG     H22 3150   3.838   0.515   2.281 -1.5282  0.7542 -0.4746
  137DG     H23 3151   3.718   0.434   2.189 -0.1769  2.6499 -0.2569
  138DG      C1 3152   0.890   1.846   1.921 -0.3092 -0.1291  0.0106
  138DG      C2 3153   0.917   2.448   1.778 -0.2410  0.1177 -0.2090
  138DG      H3 3154   0.906   1.740   1.902 -0.2507  0.1158 -1.4037
  138DG      H4 3155   0.788   1.871   1.891  0.2473 -1.5068 -3.5810
  138DG      H5 3156   0.903   1.869   2.027  1.2300 -0.6052 -0.0429
  138DG      H6 3157   0.824   2.504   1.769  0.3457  0.8606 -2.2263
  138DG      H7 3158   0.969   2.503   1.857 -1.5622  0.5833  0.3586
  138DG      H8 3159   0.965   2.463   1.682 -1.8819  0.0180 -1.0693
  138DG      O9 3160   0.989   1.915   1.847 -0.4533 -0.0553 -0.0084
  138DG     O10 3161   0.894   2.316   1.816  0.2133 -0.3617  0.8098
  138DG     C11 3162   0.973   1.907   1.708 -0.1208  0.6897 -0.6259
  138DG     C12 3163   0.832   2.244   1.708  0.3216 -0.6286 -0.1497
  138DG     H13 3164   0.867   1.921   1.684 -0.0124 -1.3314 -2.6933
  138DG     H14 3165   1.004   1.806   1.684 -0.6316  0.0110  1.4384
  138DG     H15 3166   0.752   2.301   1.660  0.0686 -0.6020  0.2955
  138DG     H16 3167   0.794   2.150   1.748  1.0184 -0.1341  1.7386
  138DG     C17 3168   1.070   1.992   1.633 -0.1912 -0.0915  0.1114
  138DG     C18 3169   0.931   2.194   1.602 -0.2589 -0.0474  0.2632
  138DG     O19 3170   1.037   2.123   1.673  0.3869  0.0043  0.1755
  138DG     H20 3171   1.071   1.989   1.524  1.9076 -1.9889  0.0959
  138DG     H21 3172   1.174   1.965   1.656 -0.0125 -0.0217 -0.6049
  138DG     H22 3173   0.901   2.130   1.519  2.0178 -0.7860 -0.0541
  138DG     H23 3174   0.983   2.282   1.562 -0.8770  1.3127  2.3091
  139DG      C1 3175   0.621   0.365   4.733  0.1305  0.0181  0.3455
  139DG      C2 3176   0.825  -0.182   5.263 -0.8840 -0.4949  0.5199
  139DG      H3 3177   0.575   0.463   4.741  2.4438  1.1822  0.0867
  139DG      H4 3178   0.557   0.294   4.680  0.1960  1.6288 -2.0423
  139DG      H5 3179   0.713   0.379   4.678 -0.1431 -0.3277 -0.2092
  139DG      H6 3180   0.868  -0.224   5.172  0.6984  2.6237 -0.3163
  139DG      H7 3181   0.893  -0.189   5.347  0.2870 -2.0464 -0.5063
  139DG      H8 3182   0.732  -0.227   5.297 -0.7827 -0.8687  0.3031
  139DG      O9 3183   0.650   0.319   4.869 -0.0784  0.6072  0.3535
  139DG     O10 3184   0.802  -0.052   5.216 -0.7748 -0.0766 -0.3251
  139DG     C11 3185   0.720   0.413   4.950  0.0181 -0.0723 -1.2735
  139DG     C12 3186   0.919   0.014   5.177 -0.1231  0.5185  0.2174
  139DG     H13 3187   0.664   0.505   4.966  0.6302  0.1726 -0.4635
  139DG     H14 3188   0.815   0.441   4.905  0.8456 -2.9499 -1.4968
  139DG     H15 3189   0.954  -0.020   5.080 -1.3306  0.9906 -0.4045
  139DG     H16 3190   1.000  -0.014   5.244  1.0441 -1.8456 -2.0260
  139DG     C17 3191   0.765   0.347   5.080 -0.1275 -0.4131 -0.2719
  139DG     C18 3192   0.895   0.170   5.186  0.0436 -0.1953 -0.3731
  139DG     O19 3193   0.840   0.224   5.062  0.2575 -0.2912 -0.5623
  139DG     H20 3194   0.681   0.340   5.148 -0.3343 -0.2272 -0.5033
  139DG     H21 3195   0.827   0.422   5.128 -1.3949  0.4782  0.0148
  139DG     H22 3196   0.841   0.195   5.277 -1.6765  0.6399 -1.5591
  139DG     H23 3197   0.991   0.219   5.199 -0.8397  1.1633  1.4747
  140DG      C1 3198   1.216   2.406   3.427  0.4172  0.3168 -0.5627
  140DG      C2 3199   1.468   2.469   2.797  0.0441  0.9625  0.4889
  140DG      H3 3200   1.319   2.369   3.438 -0.1879 -1.7873 -1.4137
  140DG      H4 3201   1.160   2.369   3.513 -0.1016 -1.2822 -1.5344
  140DG      H5 3202   1.221   2.514   3.428  0.7637  0.3086  0.8758
  140DG      H6 3203   1.462   2.573   2.766 -0.9364  1.2013  1.4062
  140DG      H7 3204   1.557   2.450   2.857  0.1845  0.2577  0.0727
  140DG      H8 3205   1.475   2.416   2.702 -2.5925  0.8660  0.2584
  140DG      O9 3206   1.169   2.367   3.298 -0.0762  0.2935  0.2724
  140DG     O10 3207   1.358   2.424   2.874  0.0466  0.4448 -0.6976
  140DG     C11 3208   1.050   2.423   3.267  0.5020  0.2332 -0.0166
  140DG     C12 3209   1.241   2.488   2.839 -0.3377  1.6024 -0.2234
  140DG     H13 3210   1.051   2.532   3.269  1.5028  0.2413  2.4911
  140DG     H14 3211   0.969   2.407   3.339  1.3517 -1.9356  0.5366
  140DG     H15 3212   1.236   2.483   2.730  0.0036 -2.4549 -0.2051
  140DG     H16 3213   1.246   2.594   2.864  1.2321  1.5283 -0.1132
  140DG     C17 3214   1.014   2.399   3.120  0.4855  0.2554  1.0133
  140DG     C18 3215   1.124   2.412   2.908 -0.6235 -0.1326  0.0410
  140DG     O19 3216   1.125   2.451   3.045 -0.3381 -0.4789 -0.2604
  140DG     H20 3217   0.919   2.445   3.096  1.0297  0.4047 -1.0472
  140DG     H21 3218   0.992   2.293   3.110  1.6938 -0.0792  1.6668
  140DG     H22 3219   1.025   2.429   2.866  0.1898 -0.1917 -2.0311
  140DG     H23 3220   1.149   2.308   2.886 -1.1754 -0.2023 -0.2958
  141DG      C1 3221   4.644   1.539   1.586 -0.3545  0.0057 -0.5757
  141DG      C2 3222   4.389   1.622   1.019 -0.0712  0.4438 -0.0674
  141DG      H3 3223   4.659   1.541   1.694  0.6792  2.8612 -0.6657
  141DG      H4 3224   4.625   1.641   1.553 -0.8758  0.1376  0.1140
  141DG      H5 3225   4.738   1.502   1.545  0.1863 -1.5498  1.8909
  141DG      H6 3226   4.358   1.588   0.920 -0.6848  1.1847 -0.1431
  141DG      H7 3227   4.327   1.705   1.054 -2.5633 -1.4129  0.2478
  141DG      H8 3228   4.490   1.663   1.013 -0.4373  1.2457 -1.0828
  141DG      O9 3229   4.541   1.465   1.528  0.0345  1.1629  0.1817
  141DG     O10 3230   4.374   1.525   1.124  0.6327 -0.3500  0.2934
  141DG     C11 3231   4.412   1.504   1.578  0.2036  0.1272  0.4566
  141DG     C12 3232   4.240   1.510   1.171 -0.3005  0.2721  0.1630
  141DG     H13 3233   4.393   1.611   1.565  1.2645  0.2846  0.1030
  141DG     H14 3234   4.413   1.493   1.686 -3.0085 -1.6236  0.4508
  141DG     H15 3235   4.180   1.473   1.088  0.6409 -0.2772 -0.3000
  141DG     H16 3236   4.193   1.603   1.203 -0.5585 -0.3683  1.7362
  141DG     C17 3237   4.294   1.431   1.514 -0.7045  0.0763  0.4069
  141DG     C18 3238   4.236   1.408   1.284 -0.9869 -0.5030 -0.2270
  141DG     O19 3239   4.322   1.471   1.379 -0.0182 -0.4085  0.2351
  141DG     H20 3240   4.200   1.470   1.551 -0.0184 -0.7612  3.2773
  141DG     H21 3241   4.290   1.323   1.525 -3.0980  0.1893  1.1513
  141DG     H22 3242   4.132   1.396   1.314 -1.7767  2.5413 -1.4003
  141DG     H23 3243   4.281   1.315   1.249  0.7028  0.4109 -0.5907
  142DG      C1 3244   2.482   2.097   1.968 -0.0929  0.2768 -0.4651
  142DG      C2 3245   1.738   2.206   1.963  0.0530  0.3859  0.1658
  142DG      H3 3246   2.467   2.023   1.889  0.9868 -1.3459  0.7928
  142DG      H4 3247   2.526   2.034   2.045  1.1113 -0.9001 -2.0667
  142DG      H5 3248   2.562   2.160   1.930  0.5274 -0.1642  0.0995
  142DG      H6 3249   1.658   2.279   1.945 -1.7414 -1.3668  0.7055
  142DG      H7 3250   1.725   2.130   1.886  2.1194 -1.0619  1.1690
  142DG      H8 3251   1.701   2.158   2.053 -0.2813  0.6954  0.1975
  142DG      O9 3252   2.371   2.174   2.002  0.2816  0.5652  0.5193
  142DG     O10 3253   1.866   2.269   1.960  0.0364  0.0025 -0.3576
  142DG     C11 3254   2.331   2.274   1.915  0.5011 -0.4922 -0.0543
  142DG     C12 3255   1.896   2.342   2.082 -0.9715  0.2564 -0.1109
  142DG     H13 3256   2.262   2.229   1.843 -0.0353 -0.1532  0.2502
  142DG     H14 3257   2.418   2.312   1.860  0.4243 -0.5859 -0.2439
  142DG     H15 3258   1.901   2.279   2.171  0.9604 -0.3753 -0.6093
  142DG     H16 3259   1.830   2.425   2.106 -2.6857 -0.6648 -1.4157
  142DG     C17 3260   2.256   2.378   1.985  0.0411 -0.1343 -0.2738
  142DG     C18 3261   2.040   2.409   2.082  0.2248 -0.3507 -0.8743
  142DG     O19 3262   2.143   2.315   2.052  0.2435 -0.4001 -0.8781
  142DG     H20 3263   2.234   2.469   1.930 -0.3473  0.3577  0.6742
  142DG     H21 3264   2.327   2.412   2.060  0.9269  0.0788 -1.1999
  142DG     H22 3265   2.028   2.477   1.998  0.2195  0.4623 -0.2301
  142DG     H23 3266   2.058   2.459   2.178 -1.1186  1.0632 -1.3168
  143DG      C1 3267   4.669   2.097   2.671  0.0670  0.3053  0.3441
  143DG      C2 3268   3.994   1.902   2.979  0.4232  0.2696 -0.0386
  143DG      H3 3269   4.763   2.130   2.715 -0.3457  0.3734  1.1918
  143DG      H4 3270   4.682   2.094   2.563  2.8222 -0.0784  0.6258
  143DG      H5 3271   4.663   1.996   2.709 -1.5802  0.7701  1.4319
  143DG      H6 3272   3.943   1.830   2.915  0.5914 -0.3185  0.4849
  143DG      H7 3273   4.068   1.843   3.033 -0.1949 -2.1912 -1.6798
  143DG      H8 3274   3.933   1.959   3.048  1.1343  0.8352  0.1355
  143DG      O9 3275   4.562   2.179   2.713 -0.1769  0.5035  0.4272
  143DG     O10 3276   4.055   1.997   2.883 -0.7378 -0.4046  0.2568
  143DG     C11 3277   4.456   2.155   2.623  0.2657  0.3389  0.3712
  143DG     C12 3278   4.127   2.100   2.945  0.4411 -0.6368  0.1573
  143DG     H13 3279   4.436   2.048   2.610  0.4594  0.2428  0.8488
  143DG     H14 3280   4.479   2.196   2.524  2.4215  2.2720  1.5832
  143DG     H15 3281   4.216   2.064   2.997  1.3436 -3.5941 -3.0904
  143DG     H16 3282   4.067   2.147   3.023  1.6210 -1.2871  1.4955
  143DG     C17 3283   4.331   2.231   2.669 -0.3287  0.6827 -0.4239
  143DG     C18 3284   4.173   2.212   2.848 -0.1806 -0.4677  0.4107
  143DG     O19 3285   4.284   2.162   2.785 -0.5347 -0.2718  0.0898
  143DG     H20 3286   4.249   2.231   2.598 -0.4658  0.4779 -0.2667
  143DG     H21 3287   4.356   2.330   2.707  0.5146 -0.3693  1.9901
  143DG     H22 3288   4.091   2.228   2.777  0.3941  1.8847  0.1878
  143DG     H23 3289   4.191   2.311   2.890 -0.8582  0.0901 -0.5519
  144DG      C1 3290   2.856   3.905   1.987  0.1980  0.0923  0.0870
  144DG      C2 3291   2.731   4.535   1.885 -0.4604  0.4325 -0.6045
  144DG      H3 3292   2.872   3.922   2.094  0.2484  1.5398 -0.1312
  144DG      H4 3293   2.952   3.942   1.950  0.7824  1.6064  2.8351
  144DG      H5 3294   2.845   3.799   1.964  1.6508  0.3112 -1.8438
  144DG      H6 3295   2.822   4.540   1.945 -0.8252 -2.1248  0.2921
  144DG      H7 3296   2.735   4.563   1.780 -1.1623  1.3810 -0.3917
  144DG      H8 3297   2.669   4.612   1.931 -0.4217 -0.0335  0.2676
  144DG      O9 3298   2.741   3.978   1.941  0.0021  0.5163 -1.2555
  144DG     O10 3299   2.673   4.402   1.899  0.3363  0.8778 -0.3009
  144DG     C11 3300   2.623   3.940   2.011  0.2155 -0.4295 -0.5092
  144DG     C12 3301   2.531   4.402   1.908 -0.5725  0.6337 -0.2331
  144DG     H13 3302   2.636   3.914   2.115 -2.1844 -1.9712 -0.5229
  144DG     H14 3303   2.588   3.844   1.973 -2.4225  0.1085  0.3303
  144DG     H15 3304   2.478   4.469   1.841  0.3631  2.1568  0.4692
  144DG     H16 3305   2.496   4.449   2.000  1.2743 -0.0605  0.8829
  144DG     C17 3306   2.508   4.040   1.988 -0.1649 -0.4811 -0.3735
  144DG     C18 3307   2.481   4.256   1.898 -0.3656 -0.0669 -0.5500
  144DG     O19 3308   2.566   4.167   1.963 -0.0312 -0.6974 -0.0031
  144DG     H20 3309   2.441   4.035   2.074  0.2865 -0.3646 -0.0095
  144DG     H21 3310   2.445   4.012   1.903  1.2302  0.9428 -1.9537
  144DG     H22 3311   2.382   4.257   1.944 -0.0031  2.3034  0.2906
  144DG     H23 3312   2.467   4.228   1.793 -1.1359  0.9807 -0.7391
  145DG      C1 3313   2.848   0.237   3.639 -0.0424 -0.8485  0.5378
  145DG      C2 3314   3.005  -0.028   2.901 -0.0163  0.0210 -0.0126
  145DG      H3 3315   2.869   0.198   3.739 -0.2012 -0.2719  0.7993
  145DG      H4 3316   2.742   0.262   3.631 -0.4304 -1.5144  2.8331
  145DG      H5 3317   2.893   0.334   3.621 -0.2084 -1.1400 -1.6997
  145DG      H6 3318   3.100  -0.022   2.848 -0.3796 -0.6992 -0.7751
  145DG      H7 3319   3.009  -0.121   2.957  1.4738  0.6737  1.0344
  145DG      H8 3320   2.915  -0.022   2.840 -0.4285 -0.3818  0.5471
  145DG      O9 3321   2.891   0.143   3.547 -0.7672 -0.2824  0.6414
  145DG     O10 3322   3.006   0.089   2.990  0.2459  0.7139  0.0360
  145DG     C11 3323   2.856   0.188   3.425 -0.0719 -0.1832 -0.5937
  145DG     C12 3324   3.115   0.098   3.079 -0.5778 -0.1658  0.3926
  145DG     H13 3325   2.920   0.275   3.408 -0.1364  0.7556  3.2163
  145DG     H14 3326   2.752   0.215   3.411  0.0394 -0.4815 -2.3008
  145DG     H15 3327   3.146   0.200   3.099  1.4578 -0.8944  1.2258
  145DG     H16 3328   3.203   0.062   3.027  0.1234  1.0665  0.6994
  145DG     C17 3329   2.905   0.090   3.315  0.1568  0.3872 -0.3491
  145DG     C18 3330   3.104   0.011   3.209 -0.2696 -0.1239  0.1618
  145DG     O19 3331   3.045   0.075   3.320  0.1373 -0.8833 -0.1321
  145DG     H20 3332   2.863   0.126   3.221  1.4829  1.4871 -0.5615
  145DG     H21 3333   2.853  -0.006   3.317  1.9832 -0.7170 -2.0550
  145DG     H22 3334   3.049  -0.081   3.188  1.6150 -0.9549 -1.4599
  145DG     H23 3335   3.207  -0.010   3.241 -0.5526 -1.3839  0.2991
  146DG      C1 3336   5.494   4.984   3.290 -0.1852  0.0666  0.8806
  146DG      C2 3337   5.977   4.594   3.577 -0.6406 -0.1566 -0.0737
  146DG      H3 3338   5.486   4.932   3.194 -0.6725 -0.9373  1.4459
  146DG      H4 3339   5.583   5.046   3.289 -0.7879  0.9669 -0.2972
  146DG      H5 3340   5.408   5.049   3.308 -1.2439 -0.7155 -1.0120
  146DG      H6 3341   6.026   4.688   3.553  0.2450 -0.1525  1.5662
  146DG      H7 3342   6.034   4.532   3.647 -0.1369  1.1850  0.7492
  146DG      H8 3343   5.975   4.537   3.484 -1.2893  0.0387 -0.1804
  146DG      O9 3344   5.498   4.883   3.391  0.1098  0.4381 -0.4050
  146DG     O10 3345   5.840   4.598   3.618  0.3066  0.1997  0.2235
  146DG     C11 3346   5.490   4.941   3.526  0.4636 -0.1546 -0.3247
  146DG     C12 3347   5.823   4.685   3.728 -0.4936  0.2369  0.3714
  146DG     H13 3348   5.398   4.997   3.542  0.2096 -0.9548  1.2112
  146DG     H14 3349   5.573   5.010   3.540 -1.2532  1.6449  1.7739
  146DG     H15 3350   5.861   4.784   3.701  0.2336  0.5849  2.5098
  146DG     H16 3351   5.876   4.642   3.813  1.5164  0.6211 -0.6110
  146DG     C17 3352   5.508   4.840   3.642 -0.1718  0.0994 -0.1486
  146DG     C18 3353   5.674   4.701   3.747  0.1208 -0.8132 -0.2370
  146DG     O19 3354   5.632   4.769   3.625 -0.2630 -0.1250 -0.1336
  146DG     H20 3355   5.421   4.775   3.643 -0.4346  0.2915 -2.7799
  146DG     H21 3356   5.523   4.894   3.736  0.0858  0.2450 -0.2713
  146DG     H22 3357   5.615   4.613   3.772 -0.7279  0.4240  2.4798
  146DG     H23 3358   5.656   4.759   3.837  1.1654  1.9417 -1.6778
  147DG      C1 3359   5.218   0.951   2.991  0.1674 -0.6256  0.5405
  147DG      C2 3360   5.050   0.368   3.122 -0.3350  0.6288  0.4241
  147DG      H3 3361   5.216   0.898   2.896  1.1592 -3.2820  1.9027
  147DG      H4 3362   5.321   0.946   3.027 -0.0744  3.0945  2.1933
  147DG      H5 3363   5.196   1.056   2.969 -1.4596 -0.6944  1.6718
  147DG      H6 3364   5.031   0.379   3.015 -2.6047 -1.9326  0.4586
  147DG      H7 3365   5.153   0.336   3.143 -1.1653 -1.8149  1.1004
  147DG      H8 3366   4.995   0.281   3.157  0.9211 -1.2804 -2.0102
  147DG      O9 3367   5.116   0.897   3.082 -0.4743 -0.3061  0.7514
  147DG     O10 3368   5.019   0.496   3.171  0.5547  0.1803  0.6016
  147DG     C11 3369   5.128   0.945   3.214  1.5660 -0.7841 -1.0100
  147DG     C12 3370   5.020   0.498   3.310  0.5344  0.0946 -0.3053
  147DG     H13 3371   5.100   1.050   3.208 -0.2467 -1.2335 -1.0964
  147DG     H14 3372   5.231   0.936   3.249  0.9403 -2.8232  0.4696
  147DG     H15 3373   5.112   0.456   3.351 -1.1072 -2.5558  0.9834
  147DG     H16 3374   4.943   0.431   3.347 -1.6681  2.5191 -0.2321
  147DG     C17 3375   5.049   0.867   3.318 -0.6997 -0.3788 -0.1776
  147DG     C18 3376   4.995   0.637   3.364 -0.3064 -0.5693  0.7047
  147DG     O19 3377   5.068   0.729   3.287 -0.3093  0.3047 -0.1764
  147DG     H20 3378   4.946   0.902   3.312 -0.3522  0.7284  0.0550
  147DG     H21 3379   5.088   0.905   3.412  2.1169 -0.5730 -1.1913
  147DG     H22 3380   4.890   0.658   3.343 -0.0514 -0.8226 -0.9290
  147DG     H23 3381   5.000   0.651   3.472 -0.8410 -1.2594  0.8308
  148DG      C1 3382   2.036   2.959   0.665  0.3145 -0.3795  0.2276
  148DG      C2 3383   2.375   2.319   1.007 -0.0342  0.1231 -0.0677
  148DG      H3 3384   2.091   2.998   0.579  0.2665  0.1216  0.4236
  148DG      H4 3385   1.974   3.034   0.714 -1.9773 -3.6586  2.8201
  148DG      H5 3386   1.964   2.894   0.613 -1.2060  0.7901  0.7950
  148DG      H6 3387   2.409   2.311   1.111 -0.8484 -0.2412  0.1776
  148DG      H7 3388   2.317   2.231   0.978 -0.4190  1.0633 -2.3347
  148DG      H8 3389   2.469   2.325   0.952 -0.6272 -0.5538 -1.1906
  148DG      O9 3390   2.126   2.897   0.750 -0.4173  0.3446  0.0745
  148DG     O10 3391   2.293   2.438   0.982  0.2052  0.5236 -0.1203
  148DG     C11 3392   2.073   2.801   0.840 -0.1272  0.2330  0.1459
  148DG     C12 3393   2.163   2.424   1.042 -0.7814 -0.0948 -0.2354
  148DG     H13 3394   2.012   2.729   0.785  0.2715  0.5518 -0.7278
  148DG     H14 3395   2.010   2.850   0.915  2.2795  1.4951  1.4718
  148DG     H15 3396   2.162   2.414   1.151 -0.1462 -1.7276 -0.3418
  148DG     H16 3397   2.116   2.333   1.005  0.7720 -0.3461 -1.7520
  148DG     C17 3398   2.185   2.734   0.926 -0.2396  0.1213 -0.4907
  148DG     C18 3399   2.077   2.539   0.998 -0.3837 -0.4723 -0.3732
  148DG     O19 3400   2.118   2.668   1.038 -0.4296 -0.1663  0.3723
  148DG     H20 3401   2.271   2.795   0.956  1.7617 -2.7468 -0.0378
  148DG     H21 3402   2.241   2.676   0.854 -0.0533 -0.5039  0.1449
  148DG     H22 3403   2.054   2.532   0.892 -0.9393 -2.2625 -0.1627
  148DG     H23 3404   1.982   2.534   1.051 -1.2989 -2.2442 -2.0453
  149DG      C1 3405   0.128   5.344   0.505  0.8870 -0.2394  0.0075
  149DG      C2 3406   0.533   5.158   1.248  0.7018  0.3370 -0.5657
  149DG      H3 3407   0.209   5.293   0.453 -1.1238 -2.6642 -0.9282
  149DG      H4 3408   0.101   5.435   0.450 -0.5723 -0.3659  0.4695
  149DG      H5 3409   0.040   5.280   0.502 -0.7789  1.9401 -1.2266
  149DG      H6 3410   0.630   5.126   1.209  1.8058 -0.3581  2.4428
  149DG      H7 3411   0.540   5.166   1.357 -0.5527 -1.0459 -0.3390
  149DG      H8 3412   0.477   5.066   1.229 -0.0799  0.7683 -0.4001
  149DG      O9 3413   0.166   5.383   0.635  0.6567  0.4095  0.0314
  149DG     O10 3414   0.474   5.276   1.191  0.0171 -0.0371 -0.2226
  149DG     C11 3415   0.273   5.476   0.633  0.0076  0.8777 -0.1979
  149DG     C12 3416   0.463   5.265   1.047 -0.1869  0.0361 -1.0251
  149DG     H13 3417   0.251   5.574   0.590  2.2467  1.1891 -0.7585
  149DG     H14 3418   0.362   5.436   0.584 -0.4504 -1.2220  0.5992
  149DG     H15 3419   0.405   5.175   1.029  0.3571 -0.5806  0.1674
  149DG     H16 3420   0.556   5.252   0.991 -0.4530  1.6813 -1.9108
  149DG     C17 3421   0.316   5.490   0.783  0.0894 -0.2761  0.0592
  149DG     C18 3422   0.390   5.383   0.983  0.1887  0.3964 -0.0088
  149DG     O19 3423   0.363   5.368   0.844 -0.4298 -0.3804  0.0357
  149DG     H20 3424   0.235   5.538   0.837  0.3511  0.3718 -0.1227
  149DG     H21 3425   0.397   5.563   0.777  0.5591 -0.7104  0.8889
  149DG     H22 3426   0.289   5.388   1.024  0.0309 -0.4856 -0.2526
  149DG     H23 3427   0.434   5.478   1.011 -1.0004  0.8076  0.5280
  150DG      C1 3428   3.019   3.404   4.365 -0.0628 -0.4620  0.5670
  150DG      C2 3429   2.797   4.014   4.535 -0.0049 -0.5980 -0.6991
  150DG      H3 3430   2.915   3.409   4.330 -0.2667 -2.0443  0.9044
  150DG      H4 3431   3.025   3.342   4.454 -4.0843 -1.2339  0.5158
  150DG      H5 3432   3.061   3.357   4.277  0.4431  2.1275 -0.6897
  150DG      H6 3433   2.694   3.988   4.511  0.2606 -1.1206 -1.3189
  150DG      H7 3434   2.822   3.979   4.635 -0.0491 -1.1395 -0.8735
  150DG      H8 3435   2.802   4.122   4.541  0.8897 -0.6449 -0.4405
  150DG      O9 3436   3.063   3.541   4.377 -0.2496 -0.5851 -0.2569
  150DG     O10 3437   2.889   3.963   4.437 -0.2626 -0.2819  0.5809
  150DG     C11 3438   3.205   3.569   4.356  0.6654 -0.3813  1.0457
  150DG     C12 3439   3.022   4.006   4.468  0.0390 -0.2992 -0.5774
  150DG     H13 3440   3.252   3.510   4.277 -1.5111 -0.2526 -0.4344
  150DG     H14 3441   3.252   3.539   4.449  0.5718 -2.2158  0.5504
  150DG     H15 3442   3.048   3.980   4.571  0.6087  2.6756  0.1269
  150DG     H16 3443   3.036   4.114   4.463  0.9184 -0.4485 -4.4009
  150DG     C17 3444   3.211   3.717   4.330 -0.2166 -0.5395 -0.1398
  150DG     C18 3445   3.113   3.929   4.370  0.1071  0.2106  0.1612
  150DG     O19 3446   3.117   3.793   4.411  0.1340 -0.3530  0.1486
  150DG     H20 3447   3.197   3.733   4.223 -2.5631 -1.7280 -0.0824
  150DG     H21 3448   3.313   3.745   4.356  0.3848 -1.7007 -1.1454
  150DG     H22 3449   3.084   3.932   4.265 -0.2971  0.0682  0.2693
  150DG     H23 3450   3.213   3.974   4.366  0.8019 -1.1322  1.5849
  151DG      C1 3451   0.009   0.299   0.517 -0.0967  0.3597 -0.4376
  151DG      C2 3452   0.182   0.857   0.168  0.6875  0.5159  0.2417
  151DG      H3 3453  -0.033   0.199   0.513 -0.3460  0.3913  0.8693
  151DG      H4 3454  -0.069   0.354   0.571 -1.1433 -0.7974 -0.7451
  151DG      H5 3455   0.091   0.281   0.586 -1.0712  0.2334  0.7370
  151DG      H6 3456   0.271   0.884   0.225  0.2487  1.4195  0.5102
  151DG      H7 3457   0.213   0.891   0.069  1.1927 -1.4755 -0.3348
  151DG      H8 3458   0.092   0.902   0.208 -0.0926 -1.5888  0.9698
  151DG      O9 3459   0.051   0.350   0.391 -0.6105  0.2301 -0.0028
  151DG     O10 3460   0.170   0.714   0.164  0.1813  0.7991 -0.9559
  151DG     C11 3461   0.139   0.260   0.314  0.3708  0.2281 -0.6192
  151DG     C12 3462   0.287   0.656   0.111  0.4925 -0.2219  0.3640
  151DG     H13 3463   0.110   0.155   0.317  3.8405 -0.8878  3.2268
  151DG     H14 3464   0.238   0.247   0.358 -0.6070 -2.9788  0.9449
  151DG     H15 3465   0.371   0.668   0.180  0.7927 -1.8691  0.3058
  151DG     H16 3466   0.311   0.696   0.013 -1.1490 -0.9712 -0.3829
  151DG     C17 3467   0.164   0.325   0.177  0.1961 -0.0762 -0.3779
  151DG     C18 3468   0.252   0.517   0.076  0.1728 -0.1157  0.5263
  151DG     O19 3469   0.206   0.457   0.196 -0.1265  0.1103  0.4727
  151DG     H20 3470   0.069   0.316   0.124  0.9633  1.0684 -2.0465
  151DG     H21 3471   0.233   0.258   0.125 -0.0579 -2.6724  2.3713
  151DG     H22 3472   0.171   0.513   0.004  0.5093  1.8158  0.0064
  151DG     H23 3473   0.344   0.471   0.041  0.0342 -0.7233  0.9348
  152DG      C1 3474   5.257   5.191   4.447 -0.4568 -0.3150  0.0545
  152DG      C2 3475   5.477   4.909   4.979  0.2253  0.1266 -0.5358
  152DG      H3 3476   5.327   5.199   4.363  1.4002 -0.4837  1.5228
  152DG      H4 3477   5.282   5.264   4.523 -1.9262  0.7055 -0.4018
  152DG      H5 3478   5.162   5.231   4.412 -0.6709  0.0453  1.0321
  152DG      H6 3479   5.518   4.823   5.031 -0.1588  0.2932  0.0671
  152DG      H7 3480   5.561   4.957   4.930  2.9388 -0.8600  2.7689
  152DG      H8 3481   5.437   4.978   5.054 -0.1503 -0.0004 -0.6168
  152DG      O9 3482   5.223   5.065   4.508  0.0776 -0.2913 -0.6036
  152DG     O10 3483   5.377   4.862   4.889  0.0178  0.1729  0.0727
  152DG     C11 3484   5.253   4.955   4.418 -0.0316  0.0121 -0.6867
  152DG     C12 3485   5.429   4.764   4.800 -0.3103 -0.2615 -0.4762
  152DG     H13 3486   5.348   4.967   4.366  0.9532  0.9327  1.2239
  152DG     H14 3487   5.186   4.950   4.333 -1.1601 -0.8885  0.2253
  152DG     H15 3488   5.449   4.671   4.852  1.0780  0.2536 -0.0375
  152DG     H16 3489   5.525   4.796   4.758 -1.0158  1.2544 -1.0170
  152DG     C17 3490   5.240   4.821   4.482 -0.3443 -0.6401 -0.4214
  152DG     C18 3491   5.321   4.736   4.698  0.0805 -0.2240  0.3186
  152DG     O19 3492   5.293   4.847   4.617  0.4099  0.1306 -0.0802
  152DG     H20 3493   5.296   4.739   4.437  0.4101 -0.7650  0.6888
  152DG     H21 3494   5.141   4.776   4.484 -0.2861 -0.8004  1.9767
  152DG     H22 3495   5.356   4.652   4.637 -1.1335  0.4268 -1.3356
  152DG     H23 3496   5.232   4.702   4.752  0.5492  1.1748  2.0656
  153DG      C1 3497   4.370   5.097   1.813 -0.8170 -0.6961 -0.0576
  153DG      C2 3498   4.194   4.443   1.605 -0.3879  0.4325  0.4793
  153DG      H3 3499   4.465   5.146   1.788 -0.7030 -0.9201 -0.0632
  153DG      H4 3500   4.343   5.111   1.917 -0.7885  0.6127 -0.2091
  153DG      H5 3501   4.295   5.153   1.758 -1.5055 -1.0897  0.4773
  153DG      H6 3502   4.197   4.367   1.683 -3.1290  0.6274  0.8802
  153DG      H7 3503   4.093   4.485   1.595 -0.9513 -1.1050 -0.6483
  153DG      H8 3504   4.210   4.381   1.517  0.3584  0.3087  0.6939
  153DG      O9 3505   4.368   4.970   1.765 -0.3368  0.0852 -0.5089
  153DG     O10 3506   4.297   4.535   1.614 -0.0438 -0.4911  0.4235
  153DG     C11 3507   4.487   4.896   1.790 -0.4523 -0.2593 -0.2415
  153DG     C12 3508   4.309   4.623   1.498 -0.5819 -0.3352 -0.6559
  153DG     H13 3509   4.494   4.880   1.898  2.6109  2.0162  0.0602
  153DG     H14 3510   4.582   4.946   1.767  0.8185 -2.3555  0.2348
  153DG     H15 3511   4.233   4.701   1.489  0.2676  0.3959 -1.7615
  153DG     H16 3512   4.299   4.560   1.409 -0.0236 -2.8359  0.9450
  153DG     C17 3513   4.480   4.758   1.725  0.7069  0.0345 -0.3656
  153DG     C18 3514   4.453   4.680   1.492 -0.1468 -0.4690 -0.4140
  153DG     O19 3515   4.473   4.783   1.589  0.2166 -0.2042  0.1084
  153DG     H20 3516   4.392   4.703   1.757  0.1225  1.3172  0.3288
  153DG     H21 3517   4.568   4.699   1.750  0.3903 -0.1745  0.2648
  153DG     H22 3518   4.529   4.602   1.500 -0.5006 -1.0471 -2.1255
  153DG     H23 3519   4.456   4.719   1.390  1.5654 -1.2238 -0.6794
  154DG      C1 3520   4.458   3.913   2.411 -0.6609 -0.0919 -0.5581
  154DG      C2 3521   4.857   4.291   2.856 -0.2839  0.2907  0.3159
  154DG      H3 3522   4.510   3.823   2.375 -0.7927 -0.3065 -0.2189
  154DG      H4 3523   4.395   3.920   2.322 -1.2471 -3.8701 -0.6377
  154DG      H5 3524   4.389   3.883   2.490  0.5483 -1.7281 -0.0549
  154DG      H6 3525   4.962   4.268   2.868  0.8481  3.8979 -1.2065
  154DG      H7 3526   4.847   4.400   2.866  3.7415  0.7006  1.6071
  154DG      H8 3527   4.787   4.242   2.924  0.1451 -1.0827 -0.2187
  154DG      O9 3528   4.564   4.004   2.436 -0.0956  0.1335 -0.0106
  154DG     O10 3529   4.827   4.253   2.725 -0.6399 -0.0137  0.5928
  154DG     C11 3530   4.648   4.034   2.320 -0.0690  0.2128  0.2006
  154DG     C12 3531   4.915   4.307   2.622  0.3157 -0.1078 -0.1072
  154DG     H13 3532   4.581   4.046   2.235 -0.0652 -0.9837  0.0065
  154DG     H14 3533   4.717   3.954   2.295 -2.3572 -1.6164 -0.7159
  154DG     H15 3534   5.007   4.249   2.632  1.4655  1.9058  2.4879
  154DG     H16 3535   4.950   4.408   2.644  0.9586 -0.9021  2.9972
  154DG     C17 3536   4.718   4.169   2.339  0.0114  0.1009  0.1887
  154DG     C18 3537   4.862   4.293   2.482  0.0905 -0.2856  0.1353
  154DG     O19 3538   4.793   4.166   2.460 -0.4595 -0.0842 -0.6902
  154DG     H20 3539   4.650   4.254   2.337  0.4630  0.4543 -1.5004
  154DG     H21 3540   4.786   4.192   2.257 -1.9129  3.7124 -0.6346
  154DG     H22 3541   4.791   4.374   2.462  2.4390  1.2100 -2.8540
  154DG     H23 3542   4.941   4.328   2.416  1.2410  0.1372  1.6860
  155DG      C1 3543   1.676   2.005   2.638  0.8319  0.0990 -0.3043
  155DG      C2 3544   1.824   1.731   3.245  0.0955  0.0963  0.4448
  155DG      H3 3545   1.581   2.012   2.585  0.2432 -1.6809  0.4286
  155DG      H4 3546   1.746   2.063   2.578 -0.8143  2.5743 -0.0089
  155DG      H5 3547   1.679   2.054   2.736 -1.3845  0.0563 -0.1646
  155DG      H6 3548   1.900   1.689   3.311  0.9433  0.2647 -0.3956
  155DG      H7 3549   1.864   1.826   3.207  0.3809 -0.2758 -0.2027
  155DG      H8 3550   1.738   1.755   3.308  0.6931  0.3465  1.1832
  155DG      O9 3551   1.722   1.873   2.658 -0.1789 -0.4867 -0.2330
  155DG     O10 3552   1.792   1.644   3.141  0.2412  1.0409 -0.6816
  155DG     C11 3553   1.627   1.785   2.704 -0.8819  0.8884 -0.6216
  155DG     C12 3554   1.895   1.596   3.055 -0.1990  0.0021 -0.2392
  155DG     H13 3555   1.554   1.759   2.626 -0.5467  0.8544 -0.9249
  155DG     H14 3556   1.574   1.827   2.790  2.1221  0.5914  1.5206
  155DG     H15 3557   1.932   1.514   3.116 -1.6660 -0.0128  0.6722
  155DG     H16 3558   1.972   1.670   3.031  1.4201 -2.1822 -2.2555
  155DG     C17 3559   1.697   1.650   2.748 -0.4022  0.0592 -0.7305
  155DG     C18 3560   1.829   1.566   2.919  0.7570  0.4877 -0.0760
  155DG     O19 3561   1.761   1.683   2.872 -0.3766 -0.3614 -0.0527
  155DG     H20 3562   1.771   1.604   2.682 -0.2817 -0.9865  0.1068
  155DG     H21 3563   1.630   1.566   2.766 -0.6830  0.6428  1.1711
  155DG     H22 3564   1.909   1.541   2.849  1.1493  2.6523 -0.4599
  155DG     H23 3565   1.775   1.472   2.931  1.8346 -0.2535 -0.8727
  156DG      C1 3566   4.484   1.085   1.387 -0.3321 -0.2232  0.1328
  156DG      C2 3567   4.716   1.736   1.231  0.5772 -0.2387 -0.7426
  156DG      H3 3568   4.394   1.027   1.368 -1.1477  1.3742 -1.1705
  156DG      H4 3569   4.466   1.123   1.488 -0.1372  0.3957 -0.0602
  156DG      H5 3570   4.566   1.013   1.394 -0.6743 -0.7916 -1.3379
  156DG      H6 3571   4.800   1.713   1.298  1.1880 -0.5387 -1.5928
  156DG      H7 3572   4.736   1.823   1.169  0.2825  1.0244  0.8561
  156DG      H8 3573   4.632   1.760   1.296  0.4958  0.1573 -0.9951
  156DG      O9 3574   4.519   1.188   1.293  0.4140 -0.8458 -0.1685
  156DG     O10 3575   4.679   1.621   1.171  0.5997  0.3787  0.2768
  156DG     C11 3576   4.587   1.144   1.175 -0.2911  0.7092  0.0610
  156DG     C12 3577   4.774   1.575   1.077 -0.0808 -0.2173  0.4351
  156DG     H13 3578   4.545   1.059   1.123  3.2619 -1.1081 -0.1178
  156DG     H14 3579   4.686   1.118   1.214 -0.2489  1.9339  0.8484
  156DG     H15 3580   4.876   1.561   1.115  0.5215 -0.1890 -1.0932
  156DG     H16 3581   4.767   1.652   1.001  1.7738  1.4025  1.8044
  156DG     C17 3582   4.605   1.255   1.065 -0.5553 -0.1238 -0.1325
  156DG     C18 3583   4.722   1.448   1.009 -0.2532 -0.4807 -0.2067
  156DG     O19 3584   4.674   1.368   1.115 -0.1910  0.0480 -0.0488
  156DG     H20 3585   4.507   1.290   1.031 -0.3196 -0.4505 -1.1735
  156DG     H21 3586   4.660   1.217   0.979  3.1816  0.4876  1.7771
  156DG     H22 3587   4.634   1.469   0.947 -0.1314  1.8436  0.3220
  156DG     H23 3588   4.791   1.399   0.941  0.4507  1.4182 -0.9441
  157DG      C1 3589   4.953   2.859   4.101  0.2015  0.4625  0.5907
  157DG      C2 3590   5.318   3.324   4.545 -0.3847 -0.2748 -0.1843
  157DG      H3 3591   4.874   2.871   4.175 -1.0338  0.2642 -0.6559
  157DG      H4 3592   5.002   2.763   4.115 -0.7977 -0.1244  0.1644
  157DG      H5 3593   4.907   2.855   4.003  3.5554 -0.8197 -1.0737
  157DG      H6 3594   5.314   3.412   4.609 -0.2391 -2.0576  2.4181
  157DG      H7 3595   5.307   3.239   4.612  0.1385 -0.1173  0.1088
  157DG      H8 3596   5.424   3.311   4.523 -0.0967  0.0406  0.9387
  157DG      O9 3597   5.040   2.970   4.119 -0.0922  0.0564  0.1351
  157DG     O10 3598   5.226   3.309   4.439  0.9815  0.5457  0.3098
  157DG     C11 3599   4.967   3.084   4.078 -0.4513 -0.1548 -0.5324
  157DG     C12 3600   5.258   3.394   4.324  0.3558 -0.3448  0.1402
  157DG     H13 3601   4.894   3.106   4.156  1.0070  1.0076  0.5692
  157DG     H14 3602   4.914   3.068   3.984 -2.5491 -2.6937  0.9215
  157DG     H15 3603   5.364   3.385   4.302  0.7141  0.1802  1.5708
  157DG     H16 3604   5.241   3.500   4.347 -4.1218 -0.2462 -2.3744
  157DG     C17 3605   5.058   3.209   4.065 -0.0382 -0.2816 -0.1020
  157DG     C18 3606   5.170   3.366   4.195  0.4843 -0.2805 -0.1886
  157DG     O19 3607   5.149   3.229   4.178  0.2517  0.5188  0.3967
  157DG     H20 3608   4.992   3.296   4.061  1.6718  1.1737  1.3767
  157DG     H21 3609   5.104   3.219   3.968  0.2730  0.4854  0.1142
  157DG     H22 3610   5.075   3.418   4.202  0.1792 -0.7949 -0.4633
  157DG     H23 3611   5.214   3.412   4.107 -0.1658 -3.7091 -2.4927
  158DG      C1 3612   1.357   1.362   0.979  0.3731  0.1155 -0.0315
  158DG      C2 3613   1.905   0.804   1.110 -0.1544 -0.3479 -0.2572
  158DG      H3 3614   1.301   1.270   0.990 -0.6464  0.2538 -3.1560
  158DG      H4 3615   1.336   1.405   0.881 -2.5515  2.0560  1.2925
  158DG      H5 3616   1.309   1.430   1.050 -1.9454 -2.9323  1.5315
  158DG      H6 3617   1.890   0.733   1.192 -0.0502 -0.6427 -0.4909
  158DG      H7 3618   1.859   0.773   1.016 -0.6534 -0.6845  0.0935
  158DG      H8 3619   2.013   0.788   1.110  0.0642  0.9805 -1.0338
  158DG      O9 3620   1.493   1.338   1.002 -0.3451  0.0928  0.2701
  158DG     O10 3621   1.873   0.935   1.129 -0.0329 -0.6961 -0.4881
  158DG     C11 3622   1.544   1.240   0.915  0.5198 -0.0476 -0.3181
  158DG     C12 3623   1.932   1.031   1.045 -0.1894 -0.2739  0.0389
  158DG     H13 3624   1.508   1.256   0.813  2.6755 -3.3191 -1.7774
  158DG     H14 3625   1.505   1.149   0.961  1.7102  0.1009  1.0374
  158DG     H15 3626   1.917   0.990   0.945 -1.9623 -1.4519  0.7487
  158DG     H16 3627   2.037   1.028   1.074 -0.4714  1.8701  1.5490
  158DG     C17 3628   1.697   1.238   0.926  0.2479  0.3168  0.6149
  158DG     C18 3629   1.869   1.166   1.070  0.1435  0.0422 -0.2919
  158DG     O19 3630   1.729   1.178   1.053 -0.3734  0.5609  0.2614
  158DG     H20 3631   1.738   1.337   0.903  3.3321 -0.9390  0.2460
  158DG     H21 3632   1.740   1.178   0.846  1.8467  2.3645 -0.1503
  158DG     H22 3633   1.880   1.187   1.177  0.1827 -0.1445 -0.2575
  158DG     H23 3634   1.925   1.252   1.034  2.4371 -0.5353  1.6601
  159DG      C1 3635   5.402   4.687   4.097 -1.0920 -0.5815 -0.2479
  159DG      C2 3636   6.112   4.514   3.954 -0.2083  0.2307  0.6409
  159DG      H3 3637   5.395   4.594   4.041  0.6037  0.3404 -2.1195
  159DG      H4 3638   5.438   4.760   4.025  0.4457 -1.7788 -0.7504
  159DG      H5 3639   5.315   4.719   4.155  0.9536  0.8865  2.2521
  159DG      H6 3640   6.084   4.417   3.912  1.8736 -0.9088  1.6917
  159DG      H7 3641   6.153   4.572   3.871 -2.3657  1.2671  0.2312
  159DG      H8 3642   6.181   4.483   4.033  1.9245  2.0677 -0.3708
  159DG      O9 3643   5.515   4.644   4.184  0.2272  0.3320  0.5013
  159DG     O10 3644   5.996   4.572   4.019 -0.4665 -0.8989  0.6133
  159DG     C11 3645   5.582   4.746   4.249 -1.2563  0.1733 -0.2089
  159DG     C12 3646   6.037   4.683   4.095  0.4449  0.2335 -0.1703
  159DG     H13 3647   5.641   4.702   4.330  0.9544 -0.8354 -2.2579
  159DG     H14 3648   5.515   4.815   4.300 -0.8179  0.3845  0.0891
  159DG     H15 3649   6.071   4.771   4.040 -1.4673  2.3098  1.6950
  159DG     H16 3650   6.119   4.655   4.161  1.6545 -0.5847 -1.9455
  159DG     C17 3651   5.679   4.819   4.152  0.7111 -0.3130  0.0855
  159DG     C18 3652   5.911   4.729   4.177  0.0124 -0.6315 -0.6700
  159DG     O19 3653   5.788   4.741   4.098 -0.5635 -0.1724 -0.3644
  159DG     H20 3654   5.720   4.909   4.198 -0.0389  1.2353 -2.1000
  159DG     H21 3655   5.620   4.860   4.070  0.8334 -2.7713 -1.3424
  159DG     H22 3656   5.905   4.656   4.258  1.6800  2.1077  2.1364
  159DG     H23 3657   5.932   4.825   4.223  1.0807 -1.7349  1.2697
  160DG      C1 3658   4.208   0.471   4.825 -0.1933 -0.1846 -0.0084
  160DG      C2 3659   4.776   0.132   4.641 -0.1399 -0.1145 -0.3691
  160DG      H3 3660   4.099   0.470   4.827 -0.2138  1.1152  0.9814
  160DG      H4 3661   4.250   0.534   4.747 -0.7650  0.7775  0.4488
  160DG      H5 3662   4.236   0.512   4.922  1.4739  0.2464 -0.6208
  160DG      H6 3663   4.731   0.041   4.601 -0.3000 -0.7077  1.1110
  160DG      H7 3664   4.776   0.202   4.557 -1.5917 -0.6965 -0.8842
  160DG      H8 3665   4.873   0.100   4.678 -0.6539  0.0461  1.2220
  160DG      O9 3666   4.258   0.346   4.820  1.0764 -1.0459 -0.2940
  160DG     O10 3667   4.685   0.184   4.739 -0.0189  0.0521 -0.4235
  160DG     C11 3668   4.209   0.265   4.721 -0.3259 -0.6849  0.7249
  160DG     C12 3669   4.625   0.085   4.820  0.1139 -0.3834 -1.0046
  160DG     H13 3670   4.223   0.317   4.626 -1.0093 -0.8091  0.5520
  160DG     H14 3671   4.100   0.255   4.715 -0.4661  0.6939  0.5841
  160DG     H15 3672   4.601   0.120   4.920 -1.7526  1.1063 -1.8995
  160DG     H16 3673   4.688  -0.002   4.835 -0.2577 -0.1940  2.2264
  160DG     C17 3674   4.278   0.129   4.730  0.7693  0.4168  0.0899
  160DG     C18 3675   4.496   0.042   4.752 -0.2007 -0.9102 -0.5127
  160DG     O19 3676   4.420   0.159   4.727 -1.4234 -0.7747 -0.5276
  160DG     H20 3677   4.250   0.057   4.654  1.8173  1.4103 -1.2782
  160DG     H21 3678   4.251   0.088   4.828  0.5279 -2.0213 -0.9395
  160DG     H22 3679   4.512  -0.002   4.654 -1.4694  0.4561 -1.3874
  160DG     H23 3680   4.438  -0.031   4.808 -0.4936 -0.7318 -0.5770
  161DG      C1 3681   1.008   3.333   3.051  0.2118 -0.1075 -0.0734
  161DG      C2 3682   0.597   2.565   2.929  0.1851  0.4624 -0.1967
  161DG      H3 3683   0.984   3.358   2.948 -0.6039  1.4527  0.4571
  161DG      H4 3684   1.101   3.279   3.066 -0.3265 -0.4046  2.8342
  161DG      H5 3685   1.027   3.433   3.091  0.4768 -0.4932  0.7818
  161DG      H6 3686   0.542   2.508   3.005 -2.4218  4.7861  1.5411
  161DG      H7 3687   0.553   2.562   2.829  0.2025  1.4568 -0.2402
  161DG      H8 3688   0.700   2.532   2.931 -0.3144 -1.1468  0.6892
  161DG      O9 3689   0.899   3.268   3.112  1.2804 -0.2934  0.1813
  161DG     O10 3690   0.588   2.699   2.974  0.7760  0.6879 -0.2695
  161DG     C11 3691   0.882   3.132   3.079 -0.2533  0.5516 -0.5206
  161DG     C12 3692   0.636   2.729   3.102 -0.4301 -0.1978  0.2206
  161DG     H13 3693   0.961   3.063   3.109 -0.8944 -0.5800 -1.3437
  161DG     H14 3694   0.891   3.122   2.970 -1.2105  0.0022 -0.5611
  161DG     H15 3695   0.738   2.691   3.114 -1.5239 -2.5051  4.0285
  161DG     H16 3696   0.573   2.672   3.170 -2.4342 -1.5477 -2.5723
  161DG     C17 3697   0.763   3.068   3.130 -0.1150  0.1364 -0.2280
  161DG     C18 3698   0.632   2.875   3.143  0.0328 -0.3020 -0.4154
  161DG     O19 3699   0.742   2.938   3.080 -0.3206 -0.7423  0.1782
  161DG     H20 3700   0.676   3.130   3.108 -1.1253  0.4595  3.9116
  161DG     H21 3701   0.777   3.068   3.238  1.3545 -0.4887 -0.3901
  161DG     H22 3702   0.548   2.928   3.099 -0.2358  1.1151  1.6568
  161DG     H23 3703   0.617   2.901   3.248 -2.0667  0.5222 -0.8634
  162DG      C1 3704   4.017   2.143   1.175  0.2062 -0.0357 -0.0056
  162DG      C2 3705   3.419   2.084   1.309 -0.7640 -0.6795 -0.5487
  162DG      H3 3706   4.093   2.079   1.128 -0.6478 -0.0708 -1.3725
  162DG      H4 3707   3.967   2.203   1.100  1.6468  0.4410 -0.6177
  162DG      H5 3708   3.937   2.081   1.216  0.9609 -1.4523 -0.6000
  162DG      H6 3709   3.331   2.141   1.278  0.2387 -0.0459 -2.4145
  162DG      H7 3710   3.461   2.049   1.215 -0.8772  0.1352 -0.9136
  162DG      H8 3711   3.391   2.007   1.381 -2.3932  0.2816 -0.1088
  162DG      O9 3712   4.083   2.222   1.279  0.6679  0.1862 -0.3391
  162DG     O10 3713   3.502   2.175   1.374 -0.2101 -0.3973 -0.2068
  162DG     C11 3714   3.999   2.298   1.365  0.5188 -0.2244  0.1226
  162DG     C12 3715   3.620   2.102   1.401  0.1790  0.4371  0.6081
  162DG     H13 3716   3.921   2.361   1.322 -0.4833 -1.6002 -0.1394
  162DG     H14 3717   4.071   2.368   1.407 -0.3580  0.0563  1.1938
  162DG     H15 3718   3.647   2.069   1.301 -0.4464  0.2754  0.4890
  162DG     H16 3719   3.609   2.004   1.448 -1.0295  0.0640 -0.3831
  162DG     C17 3720   3.955   2.210   1.483  0.2218 -1.3201 -0.1992
  162DG     C18 3721   3.729   2.197   1.455  1.3126 -0.0377 -0.2538
  162DG     O19 3722   3.852   2.126   1.452 -0.0160 -0.5642 -0.4999
  162DG     H20 3723   3.934   2.276   1.567  0.4166  0.9308 -1.8390
  162DG     H21 3724   4.027   2.132   1.506  2.4342  0.2481 -1.4774
  162DG     H22 3725   3.730   2.273   1.377 -0.7891  0.0226 -0.2774
  162DG     H23 3726   3.694   2.229   1.554 -1.0794  0.4667 -1.1973
  163DG      C1 3727   2.939   3.582   4.711 -0.4262  0.0983  0.3025
  163DG      C2 3728   2.855   3.639   4.089  0.2093  0.5753  0.2599
  163DG      H3 3729   2.920   3.603   4.816 -2.8118 -0.1446 -0.0281
  163DG      H4 3730   3.029   3.630   4.672 -1.0667  0.6365 -0.5436
  163DG      H5 3731   2.946   3.474   4.696  1.8282  0.1872  0.4217
  163DG      H6 3732   2.826   3.730   4.035 -1.3009  1.3630  2.2790
  163DG      H7 3733   2.963   3.637   4.102  0.1642  0.2087  0.5753
  163DG      H8 3734   2.826   3.552   4.030  1.0408 -0.1567  0.9212
  163DG      O9 3735   2.833   3.641   4.648 -0.6521 -0.5199  0.6194
  163DG     O10 3736   2.798   3.619   4.219  0.4449 -0.2024  0.3587
  163DG     C11 3737   2.705   3.594   4.682  0.2980 -0.1420 -0.1150
  163DG     C12 3738   2.653   3.615   4.214  0.2180  0.4917 -0.0685
  163DG     H13 3739   2.638   3.678   4.700  0.4039 -0.4488  2.0068
  163DG     H14 3740   2.698   3.532   4.772  0.0184  1.6671  1.1627
  163DG     H15 3741   2.611   3.579   4.121 -2.4612  1.8933  0.4912
  163DG     H16 3742   2.611   3.716   4.214  1.4905  1.0480  0.4720
  163DG     C17 3743   2.655   3.518   4.556 -0.0763 -0.3469 -0.3244
  163DG     C18 3744   2.595   3.545   4.330  0.0777  0.1414 -0.5117
  163DG     O19 3745   2.649   3.608   4.443 -0.1262 -0.2222 -0.1547
  163DG     H20 3746   2.560   3.468   4.576  0.3996 -1.6511 -1.1763
  163DG     H21 3747   2.725   3.434   4.554 -0.9465 -1.1000 -0.0524
  163DG     H22 3748   2.487   3.558   4.334  0.1232  0.1451  1.3430
  163DG     H23 3749   2.625   3.441   4.316 -0.0351  0.4646 -4.0731
  164DG      C1 3750   2.775   3.684   0.603 -0.1975  0.2263  0.4185
  164DG      C2 3751   3.265   3.355   0.883 -0.1465  0.1762  0.1283
  164DG      H3 3752   2.722   3.779   0.592  2.4892  1.9310  1.3116
  164DG      H4 3753   2.706   3.601   0.620  1.2906 -1.1659 -0.1990
  164DG      H5 3754   2.806   3.669   0.500 -0.3954 -0.5421  0.4666
  164DG      H6 3755   3.190   3.278   0.866 -0.1631  0.2775 -0.2707
  164DG      H7 3756   3.301   3.385   0.785  0.1701 -1.5990 -0.3283
  164DG      H8 3757   3.342   3.329   0.956  0.3085  1.1124 -0.0007
  164DG      O9 3758   2.878   3.695   0.700 -0.0110 -0.7254 -0.6323
  164DG     O10 3759   3.190   3.467   0.929  0.5868  0.0213  0.2147
  164DG     C11 3760   2.980   3.798   0.679  0.4039  0.7447 -0.6686
  164DG     C12 3761   3.269   3.582   0.949 -0.4426  0.4041 -0.7161
  164DG     H13 3762   2.927   3.891   0.698 -1.9118 -0.0849 -2.6259
  164DG     H14 3763   3.004   3.798   0.573  3.5885 -0.9609 -0.0642
  164DG     H15 3764   3.329   3.596   0.859  1.1489  0.3780  0.2983
  164DG     H16 3765   3.345   3.560   1.025 -0.3810 -0.3632 -0.9970
  164DG     C17 3766   3.106   3.768   0.757 -0.0026  0.1495  0.0352
  164DG     C18 3767   3.182   3.703   0.979  0.2206  0.0558  0.0646
  164DG     O19 3768   3.071   3.731   0.888  0.3438  0.2342  0.2929
  164DG     H20 3769   3.171   3.856   0.756  0.0068  0.1743 -2.0639
  164DG     H21 3770   3.174   3.693   0.716 -0.0451 -0.6141  1.3223
  164DG     H22 3771   3.134   3.686   1.075 -2.0602  1.2241 -0.8069
  164DG     H23 3772   3.228   3.802   0.987  1.0867 -0.3258 -0.0952
  165DG      C1 3773   2.423   2.742   3.805 -0.1001  0.0648 -0.1384
  165DG      C2 3774   2.004   3.150   4.194  0.0955  0.1214  0.7279
  165DG      H3 3775   2.479   2.735   3.898 -1.3440 -1.9204  0.5475
  165DG      H4 3776   2.493   2.720   3.724  1.1308  1.2735  0.5674
  165DG      H5 3777   2.346   2.665   3.814  0.3802 -0.5718 -1.2851
  165DG      H6 3778   2.085   3.171   4.264  0.2540 -0.1796  0.6374
  165DG      H7 3779   1.936   3.234   4.199 -1.2158 -0.9024  0.5211
  165DG      H8 3780   1.967   3.052   4.224 -1.2807  0.8104  1.3262
  165DG      O9 3781   2.367   2.874   3.796  0.5484 -0.6288  0.2566
  165DG     O10 3782   2.078   3.161   4.063 -0.4992 -0.0215  0.0358
  165DG     C11 3783   2.275   2.901   3.694 -0.6116  0.0209 -0.1802
  165DG     C12 3784   1.989   3.186   3.962 -0.1216 -0.4795 -0.0316
  165DG     H13 3785   2.190   2.834   3.707  0.5531 -1.4998 -0.0117
  165DG     H14 3786   2.325   2.888   3.598 -0.2800 -0.3178  0.0365
  165DG     H15 3787   1.935   3.281   3.961  0.6225 -0.0507 -0.8165
  165DG     H16 3788   1.920   3.102   3.954  0.0306 -0.6680  0.5442
  165DG     C17 3789   2.223   3.049   3.704  0.1625 -0.5269  0.3813
  165DG     C18 3790   2.072   3.182   3.835 -0.2778 -0.7562 -0.5662
  165DG     O19 3791   2.137   3.054   3.820  0.5833  0.5547 -0.7226
  165DG     H20 3792   2.164   3.086   3.620 -1.6497 -2.1156  0.8546
  165DG     H21 3793   2.319   3.099   3.712  0.2706 -0.6734  0.0202
  165DG     H22 3794   2.004   3.195   3.751 -3.2289 -1.4728  1.5418
  165DG     H23 3795   2.152   3.256   3.840  0.4073 -1.4727 -0.6240
  166DG      C1 3796   0.622   3.310   4.931 -0.1952 -0.1955  0.3587
  166DG      C2 3797   0.004   3.044   4.995  0.2584 -0.6391  0.1793
  166DG      H3 3798   0.718   3.316   4.879 -0.6208  1.4406 -0.3044
  166DG      H4 3799   0.632   3.284   5.037 -1.2030  1.3409  0.8646
  166DG      H5 3800   0.590   3.415   4.930  1.1074  0.2733  1.9585
  166DG      H6 3801  -0.018   3.150   4.981  2.2931 -0.3625 -1.6029
  166DG      H7 3802  -0.078   2.980   4.963  0.4061 -0.2915 -0.9429
  166DG      H8 3803   0.028   3.037   5.101  0.3672 -2.1546  0.0783
  166DG      O9 3804   0.536   3.232   4.861 -0.1622 -0.3065 -0.1489
  166DG     O10 3805   0.120   3.011   4.916 -0.5286 -0.1837  0.1921
  166DG     C11 3806   0.572   3.103   4.852  0.3294 -0.5367 -0.3230
  166DG     C12 3807   0.111   3.001   4.777  0.1846  0.1552  0.1986
  166DG     H13 3808   0.573   3.061   4.953 -0.0658 -0.7324 -0.3961
  166DG     H14 3809   0.669   3.092   4.804  0.4420  1.2023 -0.5431
  166DG     H15 3810   0.081   3.099   4.740 -1.4108  0.1290  1.3567
  166DG     H16 3811   0.034   2.929   4.753 -0.1994  0.6509 -0.0635
  166DG     C17 3812   0.479   3.016   4.760  0.0643  0.0703 -0.4074
  166DG     C18 3813   0.247   2.951   4.732 -0.2608  0.2065  0.4832
  166DG     O19 3814   0.346   3.042   4.794  0.5587  0.2625  0.4617
  166DG     H20 3815   0.495   2.912   4.788  2.4066  0.3333 -0.5266
  166DG     H21 3816   0.495   3.023   4.652 -1.3746 -1.5039 -0.7530
  166DG     H22 3817   0.263   2.846   4.756  1.5279  0.4272  0.3795
  166DG     H23 3818   0.267   2.970   4.627  0.0416  0.7618  0.6362
  167DG      C1 3819   5.482   5.455   2.533 -0.1908  0.5949 -0.5055
  167DG      C2 3820   5.457   5.629   3.093 -0.3590 -0.5623  1.3267
  167DG      H3 3821   5.506   5.385   2.454 -0.9009  1.7179 -1.7545
  167DG      H4 3822   5.572   5.471   2.593 -0.3017  0.3001 -0.2581
  167DG      H5 3823   5.442   5.540   2.478 -1.9738  2.0621  2.7537
  167DG      H6 3824   5.556   5.606   3.054  0.2333  1.8319  1.2573
  167DG      H7 3825   5.398   5.692   3.026  0.1272 -1.6331 -0.1528
  167DG      H8 3826   5.471   5.689   3.183 -0.4156 -0.4873  1.2856
  167DG      O9 3827   5.395   5.381   2.629  0.2695  0.2810  0.3037
  167DG     O10 3828   5.406   5.500   3.128 -0.2594 -0.5734 -0.1641
  167DG     C11 3829   5.347   5.471   2.721 -0.1102  0.0494  0.8863
  167DG     C12 3830   5.267   5.483   3.107  0.0672 -0.3124 -0.0350
  167DG     H13 3831   5.303   5.553   2.665 -2.1108 -0.8916  0.9692
  167DG     H14 3832   5.420   5.518   2.787  0.2241  1.0173 -0.1380
  167DG     H15 3833   5.225   5.564   3.047  1.8339 -0.1335 -1.0975
  167DG     H16 3834   5.216   5.494   3.203  1.9339  1.1980  0.8678
  167DG     C17 3835   5.240   5.417   2.810 -0.3710  0.4088  0.0890
  167DG     C18 3836   5.232   5.347   3.040  0.7389 -1.1415  0.3640
  167DG     O19 3837   5.299   5.336   2.913  0.8887  0.2565  0.3072
  167DG     H20 3838   5.180   5.352   2.746  0.6187  2.4726 -3.1639
  167DG     H21 3839   5.175   5.496   2.848  1.3937  1.0286  1.9904
  167DG     H22 3840   5.263   5.260   3.098  0.5608 -2.6586 -1.7007
  167DG     H23 3841   5.125   5.330   3.037  0.2081  0.8416  3.6392
  168DG      C1 3842   3.918   1.319   0.777 -0.0245 -0.0438  0.2549
  168DG      C2 3843   3.601   0.833   0.402  0.1951  0.3817  0.4639
  168DG      H3 3844   3.979   1.395   0.729 -0.8911  0.2772 -0.3703
  168DG      H4 3845   3.977   1.233   0.808  1.0797 -0.2735 -2.2768
  168DG      H5 3846   3.896   1.361   0.875  2.3230  0.5352  0.5925
  168DG      H6 3847   3.495   0.815   0.420 -0.3872  3.4891  0.7076
  168DG      H7 3848   3.628   0.816   0.298 -0.4014 -3.4371  0.7874
  168DG      H8 3849   3.661   0.766   0.463 -0.3254  0.4561  1.0749
  168DG      O9 3850   3.798   1.278   0.708 -0.1368  0.6466 -0.3175
  168DG     O10 3851   3.624   0.967   0.441  0.1706  0.2727  0.0221
  168DG     C11 3852   3.744   1.388   0.651  0.4804 -0.4285  1.2763
  168DG     C12 3853   3.601   1.060   0.337 -0.5949 -0.0957 -0.2890
  168DG     H13 3854   3.807   1.442   0.580 -1.9909  1.8151  0.6117
  168DG     H14 3855   3.715   1.458   0.730  0.7329  1.1391  0.0343
  168DG     H15 3856   3.517   1.030   0.274 -1.3609  2.7511 -0.7781
  168DG     H16 3857   3.680   1.078   0.265 -0.4442  0.0224 -0.0939
  168DG     C17 3858   3.625   1.339   0.564  0.1006  0.0159 -0.4451
  168DG     C18 3859   3.552   1.184   0.400  0.1099 -0.1735  0.4087
  168DG     O19 3860   3.654   1.225   0.489  0.3825 -0.4113 -0.1044
  168DG     H20 3861   3.597   1.412   0.489 -1.4530 -0.6096 -0.5075
  168DG     H21 3862   3.532   1.317   0.618  0.1864 -0.9975 -0.6941
  168DG     H22 3863   3.537   1.253   0.317 -1.0221  0.5562  1.1948
  168DG     H23 3864   3.465   1.158   0.460  0.6579  0.1861  1.3734
  169DG      C1 3865   5.238   0.844   3.670 -0.4957  0.1208 -0.1710
  169DG      C2 3866   4.679   1.331   3.651  0.3835  0.0644 -0.4624
  169DG      H3 3867   5.172   0.768   3.628  2.6529 -2.1569 -1.4265
  169DG      H4 3868   5.248   0.841   3.778  1.2994  1.6501 -0.2499
  169DG      H5 3869   5.336   0.816   3.631 -0.2903 -0.4553  0.7182
  169DG      H6 3870   4.654   1.425   3.700  1.2463  1.2545 -2.2125
  169DG      H7 3871   4.617   1.329   3.562  0.7112  3.6436 -0.9131
  169DG      H8 3872   4.654   1.245   3.714 -0.2445 -1.5537 -2.7880
  169DG      O9 3873   5.187   0.967   3.632 -0.3374 -0.0015 -0.1630
  169DG     O10 3874   4.810   1.325   3.607 -0.4561 -0.8677 -0.1560
  169DG     C11 3875   5.255   1.081   3.667  0.0826  0.3899  0.1888
  169DG     C12 3876   4.840   1.205   3.535  0.2403 -0.2195 -0.1307
  169DG     H13 3877   5.361   1.077   3.641 -0.1963 -0.1478 -0.9076
  169DG     H14 3878   5.251   1.077   3.776  2.7433 -1.3017  0.2995
  169DG     H15 3879   4.785   1.192   3.442 -0.2906  0.0609  0.1362
  169DG     H16 3880   4.809   1.124   3.601 -0.2183  0.7853  0.9302
  169DG     C17 3881   5.208   1.213   3.592 -0.2938  0.4222 -0.3993
  169DG     C18 3882   4.992   1.199   3.504  0.3390  0.4425  0.1613
  169DG     O19 3883   5.068   1.239   3.614 -0.5209 -0.0644  0.7756
  169DG     H20 3884   5.236   1.204   3.487 -0.2468  2.9385 -0.6589
  169DG     H21 3885   5.258   1.300   3.634 -1.6074  0.2497  1.6607
  169DG     H22 3886   5.006   1.092   3.484  0.2172  0.4443  0.0607
  169DG     H23 3887   5.012   1.252   3.411  0.2382  0.8668  0.3825
  170DG      C1 3888   2.352   0.158   0.046  0.3918  0.1405 -0.0778
  170DG      C2 3889   2.786   0.366  -0.505 -0.4366 -0.1087  0.2400
  170DG      H3 3890   2.280   0.099  -0.011 -0.3592  1.4178 -0.4988
  170DG      H4 3891   2.310   0.259   0.052  0.3720  0.0475  1.7819
  170DG      H5 3892   2.354   0.118   0.147 -0.6259 -1.1397 -0.5413
  170DG      H6 3893   2.747   0.307  -0.587 -3.0612  0.4673  0.9766
  170DG      H7 3894   2.733   0.461  -0.505  0.4706  0.4427 -1.7296
  170DG      H8 3895   2.893   0.387  -0.518 -0.5778  0.5825  0.1511
  170DG      O9 3896   2.484   0.168  -0.012 -0.5367  0.6888  0.0802
  170DG     O10 3897   2.774   0.310  -0.373  0.3213  0.0111  0.5370
  170DG     C11 3898   2.546   0.037  -0.004 -0.3374  0.6956  0.1820
  170DG     C12 3899   2.836   0.180  -0.373  0.5029  0.6437 -0.0058
  170DG     H13 3900   2.497  -0.042  -0.061  0.2230  1.1034 -0.8900
  170DG     H14 3901   2.553  -0.005   0.096  1.0477  0.9113  0.2021
  170DG     H15 3902   2.937   0.176  -0.413  1.1166  2.4242  1.2230
  170DG     H16 3903   2.784   0.125  -0.451  2.5816  0.6015 -1.4319
  170DG     C17 3904   2.696   0.044  -0.052 -0.0295 -0.4574  0.3056
  170DG     C18 3905   2.837   0.106  -0.239  0.3004  0.1187  0.5059
  170DG     O19 3906   2.707   0.099  -0.187 -0.6320 -0.1724 -0.4245
  170DG     H20 3907   2.743  -0.054  -0.044 -1.6729 -1.5339 -2.0356
  170DG     H21 3908   2.745   0.110   0.019 -0.9270  1.6345 -0.9461
  170DG     H22 3909   2.878   0.007  -0.260 -0.1738  0.1984 -0.9154
  170DG     H23 3910   2.916   0.151  -0.180  1.5679 -0.4703 -0.6786
  171DG      C1 3911   3.370   0.509   0.669 -0.8691 -0.3465 -0.1214
  171DG      C2 3912   3.734   0.397   0.002  0.0867 -0.4061  0.8526
  171DG      H3 3913   3.451   0.531   0.739  0.8023  0.3338 -2.1971
  171DG      H4 3914   3.283   0.489   0.732  1.3500 -2.0024  2.6754
  171DG      H5 3915   3.336   0.590   0.604  0.6989 -0.6990 -1.4409
  171DG      H6 3916   3.656   0.322   0.017  0.9015 -1.1057  1.7165
  171DG      H7 3917   3.689   0.492  -0.027  3.7037  0.9571 -0.9064
  171DG      H8 3918   3.794   0.359  -0.081  0.4008 -0.7191  1.2235
  171DG      O9 3919   3.411   0.404   0.577 -0.2545  0.3375  0.0232
  171DG     O10 3920   3.815   0.421   0.113  0.9510 -0.0879 -0.0494
  171DG     C11 3921   3.537   0.427   0.520  0.2083  0.0421  0.2768
  171DG     C12 3922   3.855   0.304   0.186  0.3648  0.0531  0.3619
  171DG     H13 3923   3.614   0.428   0.596  1.0478 -2.4591 -0.4328
  171DG     H14 3924   3.540   0.523   0.469  0.3260  0.9964  2.0262
  171DG     H15 3925   3.943   0.327   0.247  0.5879  2.1439 -0.6603
  171DG     H16 3926   3.890   0.229   0.115 -1.4661 -0.3726 -0.1560
  171DG     C17 3927   3.574   0.312   0.420  0.3056  0.2926  0.1718
  171DG     C18 3928   3.746   0.240   0.275  0.1362  0.0909 -0.2583
  171DG     O19 3929   3.694   0.343   0.359 -0.0002 -0.8684 -0.2482
  171DG     H20 3930   3.489   0.289   0.357 -0.1005 -1.1434  1.1955
  171DG     H21 3931   3.579   0.218   0.475  1.7596  0.3268  0.1403
  171DG     H22 3932   3.667   0.199   0.212  0.3674  1.2272 -1.3442
  171DG     H23 3933   3.789   0.165   0.340  0.5379  1.5037  1.1758
  172DG      C1 3934   5.291   3.799   0.321 -1.0482  0.3944 -0.1922
  172DG      C2 3935   4.733   4.035   0.846 -0.9486  0.0560  0.3316
  172DG      H3 3936   5.364   3.773   0.397 -0.3836 -0.2578 -1.0324
  172DG      H4 3937   5.284   3.908   0.327 -3.2469  0.2992 -0.0473
  172DG      H5 3938   5.334   3.774   0.224 -1.9911  2.2834 -1.1555
  172DG      H6 3939   4.800   4.045   0.931 -2.2392  0.0023  1.3888
  172DG      H7 3940   4.723   4.131   0.796  0.1003  0.3513  0.6566
  172DG      H8 3941   4.642   3.992   0.889  0.4450 -2.5275  0.9379
  172DG      O9 3942   5.170   3.727   0.333 -0.8338 -0.3624 -0.1561
  172DG     O10 3943   4.770   3.943   0.745  0.2169  0.5769 -0.0811
  172DG     C11 3944   5.088   3.795   0.422  0.0888  0.4470  0.0450
  172DG     C12 3945   4.780   3.804   0.773 -0.0382  0.1516  0.5789
  172DG     H13 3946   5.066   3.892   0.377  4.7730  0.9370 -1.7601
  172DG     H14 3947   5.140   3.809   0.517  0.5042 -0.1091 -0.0915
  172DG     H15 3948   4.681   3.782   0.812 -0.5512  1.7533  0.2097
  172DG     H16 3949   4.854   3.787   0.851  0.8579  1.7114  0.1032
  172DG     C17 3950   4.960   3.713   0.460 -0.3969 -0.4180 -0.3997
  172DG     C18 3951   4.808   3.729   0.639  0.1067 -0.6351 -0.0389
  172DG     O19 3952   4.925   3.783   0.581  0.6815  0.8031 -0.2617
  172DG     H20 3953   4.982   3.606   0.464  1.7905 -0.0051  0.4522
  172DG     H21 3954   4.882   3.724   0.385  1.1939  2.1188 -1.8345
  172DG     H22 3955   4.819   3.622   0.655 -1.0778 -0.7729 -0.0433
  172DG     H23 3956   4.722   3.741   0.572 -0.6079 -1.8564  0.6169
  173DG      C1 3957   2.719   0.505   0.940 -0.2787  0.0233  0.3899
  173DG      C2 3958   2.454   0.836   0.337 -0.1292  0.0214 -0.0252
  173DG      H3 3959   2.801   0.544   0.999 -0.8750 -1.2131  2.1319
  173DG      H4 3960   2.744   0.415   0.884  2.6633  1.1451 -0.2913
  173DG      H5 3961   2.636   0.495   1.011  1.2532  1.9155  2.5790
  173DG      H6 3962   2.484   0.892   0.247  0.5347 -0.6370 -0.2235
  173DG      H7 3963   2.401   0.745   0.310  0.4991  0.3810 -2.8602
  173DG      H8 3964   2.381   0.896   0.391  0.8167  1.8243 -0.6562
  173DG      O9 3965   2.681   0.611   0.859 -0.2334  0.0791  0.4982
  173DG     O10 3966   2.572   0.805   0.409  0.1457  0.5525 -0.2639
  173DG     C11 3967   2.708   0.744   0.904  0.1765  0.5443 -0.3273
  173DG     C12 3968   2.663   0.914   0.431  0.1362 -0.3051 -0.2355
  173DG     H13 3969   2.816   0.749   0.907  0.4495 -3.3601  0.9183
  173DG     H14 3970   2.657   0.751   1.000 -1.5978 -1.2325 -1.0672
  173DG     H15 3971   2.651   1.001   0.366 -0.5832 -1.1278 -1.2383
  173DG     H16 3972   2.767   0.885   0.415  1.3508  1.8535  2.6974
  173DG     C17 3973   2.654   0.847   0.803 -0.6226  0.0449  0.2619
  173DG     C18 3974   2.642   0.945   0.585 -0.6000  0.0937 -0.1417
  173DG     O19 3975   2.687   0.829   0.664 -0.0448 -0.5887  0.0524
  173DG     H20 3976   2.679   0.948   0.836 -0.4606  0.2992 -0.6074
  173DG     H21 3977   2.546   0.847   0.813 -0.5258  0.5396  1.5069
  173DG     H22 3978   2.688   1.039   0.614  0.0082 -1.1053  3.2932
  173DG     H23 3979   2.535   0.958   0.601 -0.9623 -3.0297  0.7828
  174DG      C1 3980   2.132   1.275   3.208  0.4366 -0.2630  0.0374
  174DG      C2 3981   1.845   0.826   3.826  0.4885  0.0205 -0.1756
  174DG      H3 3982   2.120   1.321   3.110  0.7679  0.4243  0.3102
  174DG      H4 3983   2.231   1.228   3.212  0.0172 -1.0835  2.1228
  174DG      H5 3984   2.138   1.349   3.287 -1.1022 -0.1827  0.1074
  174DG      H6 3985   1.781   0.771   3.894 -1.4077  0.7735 -1.2635
  174DG      H7 3986   1.937   0.774   3.800  2.0460  2.5067 -0.0471
  174DG      H8 3987   1.869   0.916   3.883  1.0301  2.2122 -3.5570
  174DG      O9 3988   2.033   1.185   3.259 -0.0099  0.9072  0.0934
  174DG     O10 3989   1.761   0.877   3.719  0.0182  0.6519 -0.3287
  174DG     C11 3990   1.896   1.223   3.261  0.1950 -0.4102 -0.7241
  174DG     C12 3991   1.841   0.958   3.636  0.1403  0.1483 -0.5322
  174DG     H13 3992   1.864   1.245   3.160 -1.0757 -0.1691 -0.2844
  174DG     H14 3993   1.895   1.319   3.314 -3.3854 -0.4102 -0.5254
  174DG     H15 3994   1.922   0.904   3.588  1.9359  2.9445 -0.8710
  174DG     H16 3995   1.878   1.042   3.695 -0.3717  0.4577 -0.6456
  174DG     C17 3996   1.794   1.131   3.324 -0.2702  0.1855  0.4098
  174DG     C18 3997   1.748   1.005   3.524 -0.2784 -0.2257 -0.1429
  174DG     O19 3998   1.825   1.104   3.458 -0.7729 -0.6448 -0.0567
  174DG     H20 3999   1.785   1.043   3.260  0.2185 -0.1726  0.8242
  174DG     H21 4000   1.697   1.180   3.318  0.0617  0.7368 -0.5880
  174DG     H22 4001   1.738   0.915   3.463  0.2692  0.1824 -0.8616
  174DG     H23 4002   1.652   1.041   3.561 -0.3435 -2.2660  1.8318
  175DG      C1 4003   3.772   5.042   3.742  0.3514  0.1101 -0.1649
  175DG      C2 4004   3.106   4.645   3.993  0.1212 -0.4939 -0.3194
  175DG      H3 4005   3.779   5.142   3.700 -0.3446 -0.7813 -2.5365
  175DG      H4 4006   3.704   4.976   3.689 -1.4392  1.2800  0.5734
  175DG      H5 4007   3.870   4.994   3.739 -0.1875 -0.9966 -0.2979
  175DG      H6 4008   3.160   4.567   4.045 -0.2730  0.9642  2.4519
  175DG      H7 4009   3.002   4.647   4.026  0.0815  1.2952 -0.4403
  175DG      H8 4010   3.102   4.629   3.885  1.3893 -0.7193 -0.3478
  175DG      O9 4011   3.716   5.030   3.873 -0.2270 -0.1794 -0.5090
  175DG     O10 4012   3.157   4.782   4.022  0.0786  0.4231 -0.1696
  175DG     C11 4013   3.612   5.127   3.901  1.0752  0.5203 -0.0804
  175DG     C12 4014   3.288   4.800   3.987 -0.2752 -0.5507  0.2526
  175DG     H13 4015   3.559   5.159   3.811 -0.4448  0.4509  0.7707
  175DG     H14 4016   3.670   5.218   3.917  1.8689  0.1971 -0.9712
  175DG     H15 4017   3.286   4.783   3.880  0.9637 -0.2047  0.1626
  175DG     H16 4018   3.339   4.718   4.038 -1.2984 -1.0914  0.4342
  175DG     C17 4019   3.520   5.086   4.006  0.0283  0.3146  0.1190
  175DG     C18 4020   3.344   4.931   4.041  0.2800  0.0844 -0.3000
  175DG     O19 4021   3.467   4.957   3.973  0.7560 -0.6182  0.7378
  175DG     H20 4022   3.441   5.161   4.013  1.2134  1.5042  1.4371
  175DG     H21 4023   3.579   5.094   4.097 -0.5247  1.9966  0.3762
  175DG     H22 4024   3.275   5.013   4.019  0.1602 -0.0899 -0.5892
  175DG     H23 4025   3.360   4.930   4.148 -0.0533  3.6497 -0.0884
  176DG      C1 4026   4.098   0.794   4.833 -0.0539  0.2412 -0.2927
  176DG      C2 4027   3.708   1.427   4.894 -0.5955  0.3977  0.1242
  176DG      H3 4028   4.117   0.855   4.745  3.1867  0.3566  0.3569
  176DG      H4 4029   4.071   0.700   4.784  1.1576  1.0309 -2.5911
  176DG      H5 4030   4.188   0.777   4.891 -0.7907 -0.1584  0.7710
  176DG      H6 4031   3.790   1.477   4.946 -0.1167  2.5037 -2.4431
  176DG      H7 4032   3.713   1.471   4.794 -2.0842 -0.7602 -0.5006
  176DG      H8 4033   3.607   1.461   4.920 -0.4800 -0.7200  2.2981
  176DG      O9 4034   3.990   0.842   4.908 -0.7098  0.2140  0.0821
  176DG     O10 4035   3.724   1.285   4.893  0.2158  0.2050  0.0903
  176DG     C11 4036   4.005   0.978   4.951 -0.3446  0.5899  0.1796
  176DG     C12 4037   3.654   1.227   5.003 -0.2291  0.5211 -0.2564
  176DG     H13 4038   4.021   1.043   4.866 -0.9358 -1.0629 -1.2466
  176DG     H14 4039   4.093   0.993   5.015 -1.5628  2.3150  1.5436
  176DG     H15 4040   3.551   1.259   4.995  0.3844  3.3867  1.6599
  176DG     H16 4041   3.703   1.258   5.095  0.4388 -2.4349  0.4637
  176DG     C17 4042   3.874   1.019   5.028 -0.3721 -0.4058  0.2882
  176DG     C18 4043   3.646   1.074   4.986  0.1755 -0.2415 -0.2625
  176DG     O19 4044   3.764   1.017   4.935 -0.1561 -0.1266  0.4479
  176DG     H20 4045   3.883   1.115   5.077 -2.2798 -0.1297  0.1856
  176DG     H21 4046   3.847   0.949   5.107 -0.6206 -1.5952 -0.8109
  176DG     H22 4047   3.616   1.015   5.072  0.2683  0.4319  0.2401
  176DG     H23 4048   3.570   1.072   4.907 -0.2929 -0.6188  0.1939
  177DG      C1 4049   4.279   0.260   1.193  0.5399 -0.3612  0.5360
  177DG      C2 4050   4.694   0.167   1.861  0.3377 -0.0893 -0.2751
  177DG      H3 4051   4.311   0.305   1.100  0.6143 -0.5227  0.4828
  177DG      H4 4052   4.170   0.256   1.184  0.6931 -2.6376 -1.1155
  177DG      H5 4053   4.297   0.152   1.197 -0.2682 -0.7070 -2.4397
  177DG      H6 4054   4.601   0.110   1.864 -0.1287  0.6863  2.6651
  177DG      H7 4055   4.781   0.105   1.840 -0.0152 -0.0289 -2.1781
  177DG      H8 4056   4.710   0.201   1.963 -0.1154 -2.1041  0.5170
  177DG      O9 4057   4.337   0.315   1.303 -1.1404  0.0222  0.7766
  177DG     O10 4058   4.686   0.269   1.763  0.0975  0.4198 -0.4376
  177DG     C11 4059   4.482   0.302   1.310 -0.3069 -0.0730  0.8948
  177DG     C12 4060   4.577   0.364   1.785 -0.0670  0.2516  0.2625
  177DG     H13 4061   4.529   0.329   1.215  0.8041  0.1294  1.4844
  177DG     H14 4062   4.513   0.202   1.340 -1.6637 -1.0034 -0.6322
  177DG     H15 4063   4.603   0.420   1.875  0.4093 -1.6489  1.3444
  177DG     H16 4064   4.489   0.305   1.810 -1.2542  1.5078 -0.7686
  177DG     C17 4065   4.531   0.400   1.408 -0.3971  0.2234  0.1902
  177DG     C18 4066   4.557   0.430   1.652  0.8005  0.0021 -0.2367
  177DG     O19 4067   4.525   0.342   1.538  0.0518  0.0049  0.3019
  177DG     H20 4068   4.464   0.486   1.405 -2.0570 -1.0450 -0.7975
  177DG     H21 4069   4.631   0.432   1.379 -1.1403  1.7830 -0.8102
  177DG     H22 4070   4.473   0.500   1.661 -0.5231 -1.6257  0.7743
  177DG     H23 4071   4.645   0.487   1.623  0.1766  1.0020 -0.2160
  178DG      C1 4072   1.320   4.098   3.155  0.4058  0.3064 -0.6207
  178DG      C2 4073   1.140   4.022   2.556 -0.3558 -0.5091 -0.3067
  178DG      H3 4074   1.424   4.112   3.125  0.9258 -1.9655 -0.0411
  178DG      H4 4075   1.318   4.001   3.204 -0.5271  0.8995  0.5594
  178DG      H5 4076   1.311   4.173   3.233 -0.4099  0.1838 -0.5869
  178DG      H6 4077   1.210   3.942   2.578  1.6214  1.1015 -0.4416
  178DG      H7 4078   1.037   3.994   2.575 -0.9287  1.1677 -0.7494
  178DG      H8 4079   1.144   4.035   2.448  1.4496 -0.2775 -0.2491
  178DG      O9 4080   1.225   4.099   3.050 -0.1335 -0.7159  0.1297
  178DG     O10 4081   1.172   4.144   2.620  0.1685 -0.6344 -0.4454
  178DG     C11 4082   1.091   4.095   3.096  0.2880 -0.3034  0.6898
  178DG     C12 4083   1.058   4.225   2.632 -0.1659 -0.5485 -0.2267
  178DG     H13 4084   1.084   4.189   3.150 -0.1059  1.2279 -1.8655
  178DG     H14 4085   1.060   4.018   3.166 -3.6913  2.0915  1.8451
  178DG     H15 4086   0.998   4.246   2.544  1.2271  3.3014 -0.4385
  178DG     H16 4087   1.095   4.323   2.662 -2.2301  1.1935 -2.8638
  178DG     C17 4088   0.998   4.085   2.971  0.6836 -0.1234 -0.5565
  178DG     C18 4089   0.975   4.168   2.752  0.1197 -0.0541 -0.0962
  178DG     O19 4090   1.063   4.150   2.861 -0.1105  0.2950 -0.3946
  178DG     H20 4091   0.901   4.128   2.993  1.4888  1.5007 -0.0174
  178DG     H21 4092   0.987   3.981   2.942 -2.3771  0.4716 -1.8891
  178DG     H22 4093   0.899   4.242   2.778  0.2433  0.8757 -2.1775
  178DG     H23 4094   0.928   4.072   2.732  1.2808 -0.6950  0.1344
  179DG      C1 4095   3.110   1.984   5.338 -0.1961  0.5054  0.6900
  179DG      C2 4096   2.965   2.760   5.112 -0.9116  0.5880 -0.5581
  179DG      H3 4097   3.081   1.924   5.251  1.2783 -0.0408  0.5453
  179DG      H4 4098   3.089   1.931   5.430 -0.4788 -0.3261  0.1593
  179DG      H5 4099   3.218   1.983   5.325 -0.3721 -3.1865 -2.3456
  179DG      H6 4100   2.892   2.717   5.043  0.9822 -1.3902 -1.4574
  179DG      H7 4101   2.936   2.854   5.159  1.3777  0.5165  1.1547
  179DG      H8 4102   3.052   2.781   5.050 -0.1225 -2.9293 -0.8412
  179DG      O9 4103   3.058   2.113   5.329  0.2141  0.0066  0.2702
  179DG     O10 4104   2.998   2.665   5.208 -0.0347  0.8120  0.1575
  179DG     C11 4105   3.103   2.191   5.438 -0.0476 -0.1297  0.9049
  179DG     C12 4106   2.890   2.626   5.289 -0.6911 -0.3698  0.2733
  179DG     H13 4107   3.204   2.225   5.419 -0.5804  0.8045 -0.4434
  179DG     H14 4108   3.098   2.145   5.536 -0.0399  1.7968  1.8447
  179DG     H15 4109   2.818   2.580   5.221 -0.2558  1.7499 -1.7332
  179DG     H16 4110   2.845   2.712   5.339 -1.4743 -0.4875 -0.2226
  179DG     C17 4111   3.019   2.320   5.461  0.1853 -0.3787  0.0589
  179DG     C18 4112   2.934   2.535   5.399  0.2399 -0.1800 -0.1842
  179DG     O19 4113   3.001   2.416   5.353 -0.0271 -0.3460  0.0406
  179DG     H20 4114   3.069   2.367   5.546 -0.2545  0.9574 -0.3973
  179DG     H21 4115   2.919   2.293   5.496 -0.0495 -0.9911 -1.0500
  179DG     H22 4116   3.006   2.589   5.461 -0.2367 -0.9127  1.0657
  179DG     H23 4117   2.848   2.501   5.458 -0.3344 -0.9428 -1.4314
  180DG      C1 4118   3.169   0.983   1.648 -0.2046 -0.3613 -0.0156
  180DG      C2 4119   2.822   0.392   1.599 -0.1387 -0.0041 -0.1483
  180DG      H3 4120   3.207   0.940   1.741  0.6438  1.2530  0.4178
  180DG      H4 4121   3.082   1.047   1.660  0.4179  0.4527  0.2393
  180DG      H5 4122   3.253   1.047   1.623  0.0410 -0.6521  0.0588
  180DG      H6 4123   2.749   0.447   1.658  0.7356 -0.3133  1.2932
  180DG      H7 4124   2.766   0.355   1.513 -0.7900  0.1241  0.2156
  180DG      H8 4125   2.869   0.311   1.656 -0.1845  0.2591  0.2647
  180DG      O9 4126   3.162   0.875   1.549 -0.0907  0.0241 -0.6428
  180DG     O10 4127   2.925   0.482   1.552 -0.1560 -0.0330  0.0674
  180DG     C11 4128   3.286   0.812   1.535 -0.0084  0.1985  0.2805
  180DG     C12 4129   3.039   0.410   1.497 -0.1363 -0.1641  0.0931
  180DG     H13 4130   3.335   0.791   1.631  1.8140  0.7084 -0.4848
  180DG     H14 4131   3.350   0.889   1.492 -0.3847  0.0252 -0.5950
  180DG     H15 4132   3.005   0.324   1.440 -2.4588  1.1379 -0.6280
  180DG     H16 4133   3.100   0.369   1.577  0.9380 -2.5037 -1.7753
  180DG     C17 4134   3.277   0.688   1.450  0.0033  0.0180 -0.6011
  180DG     C18 4135   3.134   0.505   1.422  0.3651 -0.1701  0.3602
  180DG     O19 4136   3.180   0.605   1.512 -0.4277 -0.0965 -0.5343
  180DG     H20 4137   3.367   0.627   1.436 -0.8907 -1.8064  1.0736
  180DG     H21 4138   3.243   0.721   1.352  1.6715  2.0610 -0.5682
  180DG     H22 4139   3.218   0.450   1.380  0.4215 -0.0914  0.3698
  180DG     H23 4140   3.081   0.547   1.336 -1.2123  1.8952  2.2140
  181DG      C1 4141   0.307   4.671   4.588 -0.0405 -0.3401 -0.6925
  181DG      C2 4142  -0.009   3.826   4.874  0.2076  0.2433 -0.4474
  181DG      H3 4143   0.322   4.754   4.519 -0.3112 -1.1652 -1.7766
  181DG      H4 4144   0.398   4.611   4.594 -0.5165 -0.9146  1.9273
  181DG      H5 4145   0.292   4.704   4.690 -3.5791 -3.1878 -0.0805
  181DG      H6 4146  -0.012   3.864   4.976 -2.5849 -0.7345 -0.0712
  181DG      H7 4147  -0.062   3.731   4.871  1.8430 -0.7564  0.5862
  181DG      H8 4148   0.093   3.800   4.847  0.4292 -1.2685  1.6853
  181DG      O9 4149   0.192   4.582   4.560  0.0986  0.4892 -0.2233
  181DG     O10 4150  -0.052   3.922   4.776  0.2082 -0.3005 -0.0962
  181DG     C11 4151   0.181   4.470   4.656 -0.4488 -0.3801  0.3572
  181DG     C12 4152   0.009   4.044   4.797  0.1517  0.0572  0.2565
  181DG     H13 4153   0.137   4.497   4.753  0.0049 -0.1736  0.5083
  181DG     H14 4154   0.281   4.438   4.684 -0.4838 -0.6201  0.2060
  181DG     H15 4155   0.117   4.040   4.811  0.1833  1.2056  0.4391
  181DG     H16 4156  -0.029   4.088   4.889  1.1087 -0.1142  0.7417
  181DG     C17 4157   0.100   4.348   4.597  0.7392 -0.5899 -0.4916
  181DG     C18 4158  -0.002   4.153   4.680 -0.5820  0.1596  0.5059
  181DG     O19 4159   0.082   4.263   4.709  0.7512 -0.7058  0.7999
  181DG     H20 4160   0.146   4.290   4.517  1.1549 -1.2771  0.2338
  181DG     H21 4161   0.001   4.378   4.565  1.0506  1.3011  0.1376
  181DG     H22 4162   0.037   4.107   4.590 -0.2835  0.3804  0.5230
  181DG     H23 4163  -0.108   4.167   4.658  0.2125  2.5585 -2.4644
  182DG      C1 4164   2.616   0.757   4.872  0.3424  0.2272  0.3749
  182DG      C2 4165   2.449   0.104   5.145  0.7293 -0.4367  0.4540
  182DG      H3 4166   2.580   0.737   4.771  0.6557  1.7140 -0.0675
  182DG      H4 4167   2.725   0.755   4.870  0.3097 -1.2075 -1.3072
  182DG      H5 4168   2.580   0.857   4.897 -0.6405 -0.2889  1.1065
  182DG      H6 4169   2.385   0.058   5.070  1.7559 -1.5560  0.2413
  182DG      H7 4170   2.551   0.109   5.108  1.3242 -2.1850  1.7505
  182DG      H8 4171   2.432   0.027   5.221 -1.2789  0.0434  0.5562
  182DG      O9 4172   2.541   0.674   4.963 -0.8053  0.0678  0.4452
  182DG     O10 4173   2.406   0.227   5.183  0.1975 -0.0378  0.2733
  182DG     C11 4174   2.585   0.695   5.101  0.2924  0.7670 -0.2897
  182DG     C12 4175   2.396   0.300   5.055  0.0054  0.0196  0.1012
  182DG     H13 4176   2.600   0.797   5.137 -3.8452  0.9237  1.5571
  182DG     H14 4177   2.683   0.650   5.106 -0.3242 -0.5795  0.1157
  182DG     H15 4178   2.317   0.262   4.992 -1.3080  0.5388  1.3824
  182DG     H16 4179   2.490   0.285   5.001  0.8536  2.4409  0.7709
  182DG     C17 4180   2.484   0.627   5.199 -0.5529  0.4379  0.4753
  182DG     C18 4181   2.376   0.444   5.091 -0.0799  0.4968 -0.0815
  182DG     O19 4182   2.480   0.478   5.179 -0.1751 -0.3228  0.2151
  182DG     H20 4183   2.386   0.675   5.195 -0.0713  1.3767 -1.1653
  182DG     H21 4184   2.519   0.632   5.302  1.8940 -1.5014 -0.1767
  182DG     H22 4185   2.379   0.506   5.002  1.2368  0.5511 -0.0224
  182DG     H23 4186   2.276   0.455   5.133 -0.3257  0.1033 -0.5528
  183DG      C1 4187   5.184   4.990   2.620 -0.2395  0.1860  0.0786
  183DG      C2 4188   4.740   4.977   2.056 -0.3235 -0.4395 -0.1433
  183DG      H3 4189   5.124   5.076   2.648 -1.5077 -0.6010 -0.1679
  183DG      H4 4190   5.290   5.011   2.607  0.4069 -2.4913  0.4171
  183DG      H5 4191   5.178   4.924   2.707 -1.5507  2.3546  1.7338
  183DG      H6 4192   4.804   5.017   1.978  0.6826 -0.5219  0.6280
  183DG      H7 4193   4.666   4.902   2.027  0.4634 -1.1479 -0.3508
  183DG      H8 4194   4.695   5.066   2.099 -1.9878 -0.1819 -2.1926
  183DG      O9 4195   5.118   4.929   2.507  0.5166 -0.1125 -0.3726
  183DG     O10 4196   4.827   4.911   2.146 -0.2683 -0.1131 -0.2936
  183DG     C11 4197   5.204   4.832   2.459 -0.0187  1.1323  0.5648
  183DG     C12 4198   4.887   4.797   2.089 -0.4054 -0.0873 -0.3102
  183DG     H13 4199   5.255   4.775   2.537  0.8054  0.4463 -0.4488
  183DG     H14 4200   5.275   4.873   2.387  0.1465 -1.9299 -1.1921
  183DG     H15 4201   4.953   4.847   2.019  0.5967 -0.5096  0.2982
  183DG     H16 4202   4.826   4.729   2.029 -1.5006  2.5619 -2.3780
  183DG     C17 4203   5.124   4.735   2.367  0.6873 -0.0560 -0.2985
  183DG     C18 4204   4.981   4.716   2.181  0.0482 -0.3871 -0.5129
  183DG     O19 4205   5.049   4.805   2.268  0.2684  0.0292  0.2641
  183DG     H20 4206   5.055   4.677   2.428  0.4957  0.0385 -0.4250
  183DG     H21 4207   5.193   4.663   2.323 -0.4102 -1.3598  0.0409
  183DG     H22 4208   4.907   4.664   2.243 -0.8860  0.6598 -0.7118
  183DG     H23 4209   5.048   4.648   2.129  1.8388  0.8874  0.0345
  184DG      C1 4210   2.060   5.393   0.628  0.4093  0.5671 -0.7627
  184DG      C2 4211   2.374   5.498   1.254  0.1957 -0.5832 -0.1320
  184DG      H3 4212   2.089   5.459   0.546  2.9630  2.6827  1.6057
  184DG      H4 4213   1.976   5.439   0.679  1.1046  0.7307  0.2743
  184DG      H5 4214   2.021   5.299   0.591 -0.0519  1.2012 -1.9499
  184DG      H6 4215   2.426   5.594   1.266 -0.9288  0.0370 -0.0467
  184DG      H7 4216   2.272   5.505   1.291 -0.8922 -0.7483 -2.8250
  184DG      H8 4217   2.422   5.420   1.312 -1.3066 -2.1101 -0.8749
  184DG      O9 4218   2.170   5.373   0.722 -0.2570  0.3251 -0.0296
  184DG     O10 4219   2.360   5.451   1.118 -0.1179  0.4133 -0.4108
  184DG     C11 4220   2.275   5.303   0.651 -0.7200 -0.4371  0.1282
  184DG     C12 4221   2.482   5.436   1.053  0.2501  0.0749  0.0525
  184DG     H13 4222   2.320   5.380   0.589 -0.9190  1.4199  2.1829
  184DG     H14 4223   2.238   5.218   0.593  0.1554 -2.4554  2.3611
  184DG     H15 4224   2.560   5.431   1.129  0.3639  0.2359 -0.0508
  184DG     H16 4225   2.508   5.532   1.008  1.1816 -1.2991 -2.5649
  184DG     C17 4226   2.379   5.254   0.755  0.3845 -0.1943  0.3243
  184DG     C18 4227   2.487   5.331   0.947  0.8377  0.6197  0.2904
  184DG     O19 4228   2.390   5.359   0.851 -0.2677 -0.0688 -0.2159
  184DG     H20 4229   2.470   5.229   0.699 -0.6575 -1.2052 -0.9971
  184DG     H21 4230   2.351   5.155   0.792  0.0777  0.2859  1.4009
  184DG     H22 4231   2.574   5.332   0.881  0.8344 -0.6612  0.2585
  184DG     H23 4232   2.464   5.235   0.993 -0.2653  0.8648  0.2803
  185DG      C1 4233   1.651   5.192   2.254 -0.6286 -0.4588 -0.0164
  185DG      C2 4234   1.740   4.924   1.760  0.2871 -0.8499  0.8037
  185DG      H3 4235   1.726   5.164   2.327 -0.8791  2.0557  1.2990
  185DG      H4 4236   1.582   5.107   2.252 -0.8483 -0.3324  1.4675
  185DG      H5 4237   1.606   5.276   2.306 -2.4382 -0.9242 -0.7381
  185DG      H6 4238   1.638   4.892   1.782 -0.7853 -0.4825 -2.8984
  185DG      H7 4239   1.751   5.028   1.730  0.1360 -1.0692 -0.0623
  185DG      H8 4240   1.756   4.870   1.666 -1.6408  0.5275 -0.3807
  185DG      O9 4241   1.699   5.226   2.123  0.5828  0.0686  0.2345
  185DG     O10 4242   1.831   4.895   1.856 -0.3183 -0.2172 -0.0450
  185DG     C11 4243   1.812   5.315   2.110  0.9398  0.5819  0.8436
  185DG     C12 4244   1.957   4.955   1.828  0.8869 -0.0103 -0.6195
  185DG     H13 4245   1.877   5.296   2.196 -0.8851 -0.6186  2.0293
  185DG     H14 4246   1.783   5.420   2.116 -1.3993  0.2406 -2.3238
  185DG     H15 4247   1.985   4.933   1.725  1.4734  0.8660 -0.6624
  185DG     H16 4248   2.033   4.911   1.894  1.2661  0.9606 -0.3905
  185DG     C17 4249   1.884   5.279   1.982  0.2837 -0.4782 -0.4165
  185DG     C18 4250   1.977   5.104   1.851 -0.1554 -0.1901 -0.1017
  185DG     O19 4251   1.903   5.139   1.971  0.0820 -0.3782 -0.5606
  185DG     H20 4252   1.976   5.336   1.975 -0.0434 -0.0529 -1.4710
  185DG     H21 4253   1.817   5.319   1.905 -2.6525 -0.3145  2.0317
  185DG     H22 4254   2.081   5.134   1.847  0.7243 -3.0211 -0.7401
  185DG     H23 4255   1.925   5.158   1.772 -1.0681  0.2719  0.7927
  186DG      C1 4256   1.592   0.494   4.284  0.4946  0.1163 -0.5640
  186DG      C2 4257   1.951   1.229   4.007  0.0578  0.0176  0.3491
  186DG      H3 4258   1.532   0.407   4.255 -0.1816  1.3141 -3.0034
  186DG      H4 4259   1.546   0.525   4.377 -0.7433  1.2765 -1.5293
  186DG      H5 4260   1.698   0.473   4.296  0.7017  2.1691  2.1307
  186DG      H6 4261   1.996   1.219   4.106 -2.2567  1.5321  1.6499
  186DG      H7 4262   2.020   1.214   3.924  0.9399 -1.5163  1.3116
  186DG      H8 4263   1.914   1.332   4.006  1.8529  0.6992 -0.9459
  186DG      O9 4264   1.558   0.592   4.197  0.0786  0.4590  0.4664
  186DG     O10 4265   1.852   1.128   3.995 -0.2755  0.1563  0.2212
  186DG     C11 4266   1.636   0.714   4.207  0.8605  0.9504 -0.9845
  186DG     C12 4267   1.722   1.168   4.044 -0.3275 -0.0134 -0.4789
  186DG     H13 4268   1.740   0.683   4.198  0.2842 -1.4392 -0.2238
  186DG     H14 4269   1.631   0.753   4.308 -2.2448  0.6880 -0.9384
  186DG     H15 4270   1.674   1.245   3.984  0.3965 -0.8586 -2.2059
  186DG     H16 4271   1.726   1.197   4.149  2.6390  3.2794 -1.3082
  186DG     C17 4272   1.584   0.824   4.124  0.3742  0.3894  0.0480
  186DG     C18 4273   1.629   1.043   4.029  0.6474  0.4424  0.5315
  186DG     O19 4274   1.669   0.940   4.126  0.2160 -0.2368  0.6165
  186DG     H20 4275   1.481   0.853   4.144 -0.3848 -2.5718  1.0587
  186DG     H21 4276   1.573   0.781   4.024 -2.3987  0.8494  0.0771
  186DG     H22 4277   1.521   1.056   4.033  0.4740 -0.4432 -0.7585
  186DG     H23 4278   1.634   1.002   3.928 -0.4823 -0.7373  0.9288
  187DG      C1 4279   2.670   1.777   2.336  0.0615  0.1238  0.3328
  187DG      C2 4280   3.240   1.528   2.398  0.0067  0.4831  0.5038
  187DG      H3 4281   2.646   1.865   2.276  3.2767  0.1975 -1.0598
  187DG      H4 4282   2.598   1.760   2.416 -1.1934  1.4587 -0.4615
  187DG      H5 4283   2.682   1.689   2.272 -0.8030  0.5680 -0.4649
  187DG      H6 4284   3.346   1.506   2.406 -0.2729 -1.4881 -0.3958
  187DG      H7 4285   3.186   1.479   2.479  0.4019 -1.7212 -0.4709
  187DG      H8 4286   3.203   1.477   2.308 -2.1530  1.7781  0.5795
  187DG      O9 4287   2.803   1.799   2.386  0.1443  0.2308  0.5798
  187DG     O10 4288   3.206   1.666   2.391 -0.4009 -0.6080 -0.3886
  187DG     C11 4289   2.811   1.901   2.482 -0.8950 -0.2287  0.4003
  187DG     C12 4290   3.262   1.748   2.495  0.6625  0.0192  0.8629
  187DG     H13 4291   2.779   1.863   2.579  0.7109 -2.8456 -0.0056
  187DG     H14 4292   2.742   1.984   2.467 -0.4965  0.0623  0.1542
  187DG     H15 4293   3.370   1.751   2.496  0.6422  1.6717  1.2315
  187DG     H16 4294   3.236   1.706   2.592 -1.3835 -1.6613 -0.3176
  187DG     C17 4295   2.954   1.961   2.498 -0.1968  0.4748 -0.3219
  187DG     C18 4296   3.188   1.881   2.488 -0.2194 -0.0093  0.3080
  187DG     O19 4297   3.050   1.850   2.499 -0.0255  0.1729 -0.2430
  187DG     H20 4298   2.961   2.023   2.587 -0.8313 -0.4629  0.4121
  187DG     H21 4299   2.972   2.019   2.408 -2.6664  0.3470 -0.9724
  187DG     H22 4300   3.214   1.954   2.565  3.8385 -1.3488  0.4177
  187DG     H23 4301   3.203   1.925   2.389 -0.6410 -2.7976 -1.1035
  188DG      C1 4302   1.489   2.278   3.693  0.0797  0.0940 -0.1323
  188DG      C2 4303   0.903   1.736   3.623  0.1153 -1.0585 -0.9917
  188DG      H3 4304   1.499   2.387   3.697 -0.1877  0.1744 -1.3695
  188DG      H4 4305   1.549   2.231   3.616  0.0967  0.8624 -0.6007
  188DG      H5 4306   1.548   2.242   3.778 -1.7082 -2.3305  0.1834
  188DG      H6 4307   0.799   1.766   3.634  0.5805 -0.2785  1.8433
  188DG      H7 4308   0.938   1.692   3.529  1.8767 -0.6012 -0.5937
  188DG      H8 4309   0.947   1.670   3.698 -0.8776 -1.0026 -0.3486
  188DG      O9 4310   1.348   2.248   3.686  0.3300  0.1615  0.5164
  188DG     O10 4311   0.963   1.865   3.635 -0.3323  0.3063  0.0401
  188DG     C11 4312   1.314   2.116   3.729  0.0743 -0.0222  0.3157
  188DG     C12 4313   0.942   1.945   3.518 -0.5955  0.3471 -0.2373
  188DG     H13 4314   1.334   2.117   3.837  1.4023  0.2475  0.0826
  188DG     H14 4315   1.382   2.049   3.677  0.0285 -0.9360  1.3975
  188DG     H15 4316   0.837   1.938   3.492 -0.3034  1.3610 -1.8087
  188DG     H16 4317   1.008   1.904   3.441 -0.2493 -0.3183  0.3957
  188DG     C17 4318   1.170   2.074   3.710 -0.0698  0.3922  0.5793
  188DG     C18 4319   0.989   2.088   3.542  0.0288  0.3236  0.0896
  188DG     O19 4320   1.132   2.099   3.575  0.3964  0.3285  0.3079
  188DG     H20 4321   1.103   2.133   3.773 -0.5827  0.7556 -0.2858
  188DG     H21 4322   1.157   1.971   3.742  0.1650  0.7040  1.7282
  188DG     H22 4323   0.962   2.145   3.453 -2.2318 -1.1610 -0.2863
  188DG     H23 4324   0.918   2.139   3.607 -1.5206 -1.2683 -0.2775
  189DG      C1 4325   1.843   1.808   0.945 -0.0985  0.2378 -0.0276
  189DG      C2 4326   1.274   1.656   0.272 -0.6742  0.8606  0.3204
  189DG      H3 4327   1.783   1.873   1.009  1.2565  0.1937  1.3548
  189DG      H4 4328   1.891   1.871   0.871 -0.0376 -0.1008 -0.2818
  189DG      H5 4329   1.913   1.755   1.010 -2.4823 -1.8087  1.0681
  189DG      H6 4330   1.327   1.671   0.178 -0.5540 -2.7475 -0.3309
  189DG      H7 4331   1.227   1.562   0.245  0.4502  0.3869 -0.0168
  189DG      H8 4332   1.199   1.734   0.288 -1.1127  0.5286 -0.0900
  189DG      O9 4333   1.770   1.701   0.880 -0.9117  0.0930 -0.5480
  189DG     O10 4334   1.352   1.645   0.390 -0.5332 -0.4359  0.2116
  189DG     C11 4335   1.693   1.746   0.768 -0.4936 -0.5694 -0.6466
  189DG     C12 4336   1.481   1.584   0.368 -0.2792  0.2049 -0.1949
  189DG     H13 4337   1.768   1.763   0.691  0.4843  0.3109  0.4718
  189DG     H14 4338   1.642   1.840   0.788  1.6297  0.3409  0.8864
  189DG     H15 4339   1.550   1.651   0.318  1.6887 -0.5364  1.4221
  189DG     H16 4340   1.474   1.498   0.302 -1.9014  0.2814 -0.1597
  189DG     C17 4341   1.606   1.626   0.721  0.0798  0.2514  0.9450
  189DG     C18 4342   1.539   1.539   0.506  0.2675 -0.8383 -0.0422
  189DG     O19 4343   1.573   1.654   0.576 -0.0983  0.5338 -1.0413
  189DG     H20 4344   1.515   1.620   0.781 -2.8657  2.2585 -2.8498
  189DG     H21 4345   1.668   1.537   0.733 -0.4628 -0.2653  0.0522
  189DG     H22 4346   1.463   1.478   0.553  0.6529 -0.2502  1.3841
  189DG     H23 4347   1.625   1.473   0.500  1.8851  1.0541  1.1143
  190DG      C1 4348   1.897   3.943   4.479  0.1533 -0.4602 -0.0434
  190DG      C2 4349   2.328   4.385   4.676 -0.0009 -0.7619 -1.2422
  190DG      H3 4350   1.867   3.932   4.375 -1.3544 -0.6789  0.3829
  190DG      H4 4351   1.822   3.900   4.546  1.4029  0.9229  2.3803
  190DG      H5 4352   1.981   3.877   4.497  0.2491 -0.3047  0.0862
  190DG      H6 4353   2.398   4.463   4.646  1.7317 -1.2364  1.2127
  190DG      H7 4354   2.311   4.394   4.783  1.4765  2.0227 -1.1513
  190DG      H8 4355   2.391   4.297   4.661  0.2992 -0.4474 -1.8664
  190DG      O9 4356   1.942   4.081   4.501 -0.0775  0.3547 -0.2437
  190DG     O10 4357   2.217   4.379   4.595  0.2686  0.2043 -0.7048
  190DG     C11 4358   1.825   4.164   4.518  0.7558 -0.6764  0.0757
  190DG     C12 4359   2.128   4.486   4.607  0.0780  0.6402 -0.4737
  190DG     H13 4360   1.743   4.124   4.576  0.2143 -0.0209 -0.2228
  190DG     H14 4361   1.779   4.192   4.423 -0.3841  0.1267  0.8336
  190DG     H15 4362   2.183   4.580   4.605  0.0219  0.7057  0.5885
  190DG     H16 4363   2.089   4.480   4.708 -0.5787 -0.6451 -0.7847
  190DG     C17 4364   1.877   4.299   4.559 -0.5909 -0.3636  0.4198
  190DG     C18 4365   2.024   4.489   4.490  0.9817  0.2139  0.2705
  190DG     O19 4366   1.969   4.357   4.466  0.3294  0.4976  0.1282
  190DG     H20 4367   1.928   4.300   4.655  2.5232 -0.9755 -1.0999
  190DG     H21 4368   1.791   4.365   4.566  0.5232  1.7190 -3.0945
  190DG     H22 4369   1.946   4.559   4.519  0.7055  0.5319 -1.1919
  190DG     H23 4370   2.082   4.530   4.407  0.9819 -3.0839 -1.5268
  191DG      C1 4371   0.792   3.640   4.985  0.1143  0.1953  0.1872
  191DG      C2 4372   1.311   3.928   4.709  0.8283  0.0852  0.1271
  191DG      H3 4373   0.816   3.554   4.922  0.8954  1.8416 -1.9008
  191DG      H4 4374   0.728   3.696   4.917  2.2104 -0.4358 -2.4779
  191DG      H5 4375   0.732   3.619   5.073  0.4493  1.3002  0.7034
  191DG      H6 4376   1.368   4.021   4.716  1.8848 -0.4523 -0.9050
  191DG      H7 4377   1.384   3.854   4.676  0.8715  0.1528  0.0711
  191DG      H8 4378   1.233   3.934   4.633  0.4854  0.9252  0.5380
  191DG      O9 4379   0.917   3.706   5.021 -0.2371  0.1343  0.3259
  191DG     O10 4380   1.245   3.889   4.829 -0.1637  0.1612 -0.0686
  191DG     C11 4381   0.981   3.641   5.129 -0.0195 -0.2443 -0.3599
  191DG     C12 4382   1.333   3.869   4.936 -0.7277  0.3855 -0.0423
  191DG     H13 4383   1.025   3.548   5.093  1.1977  1.0696 -2.4043
  191DG     H14 4384   0.914   3.627   5.215  2.3011  0.5990  1.7186
  191DG     H15 4385   1.390   3.960   4.956  0.4474 -0.8968  3.1550
  191DG     H16 4386   1.396   3.787   4.902  0.2613  2.2879 -3.1929
  191DG     C17 4387   1.091   3.729   5.174  0.0035  0.6342 -0.1198
  191DG     C18 4388   1.271   3.841   5.075  0.3320  0.3096 -0.5707
  191DG     O19 4389   1.176   3.739   5.062 -0.3276  0.4514  0.2048
  191DG     H20 4390   1.144   3.678   5.254 -2.6105 -0.5375  0.9728
  191DG     H21 4391   1.062   3.827   5.213 -0.4416  0.2965  0.4114
  191DG     H22 4392   1.339   3.835   5.160  0.5848 -0.2259 -0.8094
  191DG     H23 4393   1.208   3.929   5.092 -1.9297 -1.4693  0.9396
  192DG      C1 4394   5.480   2.938   0.477 -0.4122 -0.2995 -0.0258
  192DG      C2 4395   5.761   3.800   0.637 -0.1205 -0.3662  0.3425
  192DG      H3 4396   5.506   2.929   0.372 -1.2880  0.5360 -0.3281
  192DG      H4 4397   5.376   2.971   0.485 -0.1709  0.4115  0.3469
  192DG      H5 4398   5.493   2.840   0.522  1.0886 -1.7000 -3.2622
  192DG      H6 4399   5.720   3.855   0.552  1.5608 -0.5392 -0.6311
  192DG      H7 4400   5.801   3.871   0.710 -3.3990  1.2161  0.7685
  192DG      H8 4401   5.840   3.732   0.605 -0.7988 -0.9681 -0.0465
  192DG      O9 4402   5.555   3.030   0.559 -0.1895 -0.1795 -0.0350
  192DG     O10 4403   5.650   3.737   0.704  0.2887  0.1585  0.0022
  192DG     C11 4404   5.518   3.170   0.538 -0.2704 -0.0100  0.2033
  192DG     C12 4405   5.596   3.628   0.633  0.1508  0.0092  0.1837
  192DG     H13 4406   5.421   3.178   0.588 -0.3419 -0.1375  0.0835
  192DG     H14 4407   5.510   3.184   0.431  0.5580  0.3524  0.1880
  192DG     H15 4408   5.583   3.651   0.527 -1.7797 -0.3137  0.3027
  192DG     H16 4409   5.495   3.606   0.667 -0.0419 -1.5989 -1.2564
  192DG     C17 4410   5.628   3.263   0.599 -0.1855  0.4614  0.2371
  192DG     C18 4411   5.671   3.492   0.650  0.2037 -0.5487  0.0059
  192DG     O19 4412   5.598   3.402   0.564 -0.5765  0.3687 -0.3902
  192DG     H20 4413   5.732   3.234   0.581  0.2449  1.2692  1.3053
  192DG     H21 4414   5.625   3.258   0.708  0.4201 -0.0870  0.2339
  192DG     H22 4415   5.773   3.499   0.611  0.5066 -0.2563  0.8236
  192DG     H23 4416   5.680   3.463   0.755 -1.8584 -0.4976  0.2288
  193DG      C1 4417   3.691   4.527   0.931  0.7260 -0.0246  0.1819
  193DG      C2 4418   3.240   5.080   0.457  0.5498 -0.3535 -0.7287
  193DG      H3 4419   3.613   4.520   1.006  0.4468  1.6630  0.0800
  193DG      H4 4420   3.783   4.548   0.985 -0.1218 -1.0491  2.1323
  193DG      H5 4421   3.697   4.439   0.866  1.4718 -0.3724  0.7043
  193DG      H6 4422   3.158   5.052   0.523 -0.3864  0.6585 -1.4215
  193DG      H7 4423   3.214   5.179   0.418 -1.2236 -0.8300 -0.8393
  193DG      H8 4424   3.229   5.010   0.374  0.0789  1.0221 -1.8708
  193DG      O9 4425   3.649   4.639   0.864  0.3534  0.1678  0.0742
  193DG     O10 4426   3.371   5.075   0.514 -0.2276 -0.0043 -0.1345
  193DG     C11 4427   3.747   4.682   0.764  0.0447 -0.0924  0.3313
  193DG     C12 4428   3.406   4.937   0.552  0.8814  0.3063 -0.0722
  193DG     H13 4429   3.735   4.616   0.679 -0.0565 -1.9096  1.6991
  193DG     H14 4430   3.851   4.676   0.795 -0.1649 -0.3636  1.0178
  193DG     H15 4431   3.408   4.876   0.461  1.2223  2.5690 -1.6521
  193DG     H16 4432   3.342   4.884   0.623 -0.2339 -1.1255 -2.0399
  193DG     C17 4433   3.709   4.828   0.726  0.6719  0.1231  0.7194
  193DG     C18 4434   3.544   4.951   0.627  0.3818 -0.6781 -0.1417
  193DG     O19 4435   3.588   4.821   0.651 -0.3846  0.2650 -0.3467
  193DG     H20 4436   3.782   4.871   0.659 -0.5345 -0.3202 -0.9471
  193DG     H21 4437   3.696   4.885   0.818 -0.4836 -2.4903  2.2987
  193DG     H22 4438   3.617   5.014   0.575 -0.0096  1.5773  1.8352
  193DG     H23 4439   3.526   4.996   0.724 -1.6006 -0.7184 -0.4525
  194DG      C1 4440   4.685   5.078   1.533  0.1785 -0.3204  0.2871
  194DG      C2 4441   4.623   5.516   1.037 -0.6693 -0.4186 -0.0112
  194DG      H3 4442   4.755   5.034   1.604  2.6809 -2.2238 -3.0908
  194DG      H4 4443   4.618   5.004   1.490  0.6995 -0.6469  0.0292
  194DG      H5 4444   4.625   5.146   1.595  2.5313  1.1144  1.1330
  194DG      H6 4445   4.675   5.601   0.993  0.2176 -0.2473  1.3235
  194DG      H7 4446   4.556   5.466   0.967 -0.0365 -3.2278  1.2781
  194DG      H8 4447   4.560   5.566   1.110 -1.0990  1.6727 -1.7182
  194DG      O9 4448   4.767   5.130   1.431 -0.4295 -0.4466  0.2611
  194DG     O10 4449   4.720   5.421   1.092  0.1302 -0.9842  0.4893
  194DG     C11 4450   4.839   5.033   1.350 -0.4441 -0.4803 -0.4017
  194DG     C12 4451   4.789   5.342   0.997  0.4084 -0.7155  0.2701
  194DG     H13 4452   4.762   4.964   1.315  0.0569  0.1415 -2.9149
  194DG     H14 4453   4.904   4.981   1.421  0.2631  1.8915  0.7925
  194DG     H15 4454   4.841   5.417   0.937  0.1463  0.1267  1.0629
  194DG     H16 4455   4.719   5.290   0.931 -1.8681  2.0089  0.3340
  194DG     C17 4456   4.914   5.094   1.238  0.4521 -0.3988 -0.1273
  194DG     C18 4457   4.887   5.245   1.055  0.2521 -0.2622 -0.5887
  194DG     O19 4458   4.827   5.179   1.162 -0.7851  0.3009  0.5744
  194DG     H20 4459   4.941   5.016   1.167  1.8665 -0.3751  0.3515
  194DG     H21 4460   5.012   5.140   1.252  0.3117  0.0760 -0.6601
  194DG     H22 4461   4.923   5.180   0.976  0.8085 -1.5733  0.6886
  194DG     H23 4462   4.972   5.301   1.096 -0.6940 -0.6601  2.1443
  195DG      C1 4463   3.385   0.658   2.217 -0.2067 -0.8911 -0.2249
  195DG      C2 4464   3.375   1.238   2.506 -0.5023 -0.1958 -0.1669
  195DG      H3 4465   3.436   0.643   2.312  0.4163 -0.8530 -0.5481
  195DG      H4 4466   3.418   0.590   2.138  1.3893 -0.6983  0.2344
  195DG      H5 4467   3.280   0.644   2.241 -0.3081 -1.3690 -0.9272
  195DG      H6 4468   3.401   1.166   2.584  1.1149  1.3293  0.7750
  195DG      H7 4469   3.441   1.320   2.535 -0.5396  0.0171 -0.6770
  195DG      H8 4470   3.267   1.254   2.515 -0.2530  2.6238 -1.2284
  195DG      O9 4471   3.398   0.793   2.179  0.1753 -0.0095  0.4477
  195DG     O10 4472   3.413   1.190   2.380 -0.3373 -0.7376  0.0666
  195DG     C11 4473   3.312   0.837   2.071 -0.2569  0.3541 -0.2838
  195DG     C12 4474   3.373   1.266   2.267  0.0501 -0.2276  0.8729
  195DG     H13 4475   3.216   0.863   2.115  0.0568 -0.1697  0.7369
  195DG     H14 4476   3.300   0.766   1.990  1.4841  1.1321 -1.2925
  195DG     H15 4477   3.419   1.365   2.265  0.8763 -0.6044 -0.2091
  195DG     H16 4478   3.266   1.259   2.282  0.1363 -2.7203  0.7732
  195DG     C17 4479   3.359   0.981   2.027  0.7568  0.2245 -0.1821
  195DG     C18 4480   3.406   1.187   2.131 -0.2405  0.0027 -0.2010
  195DG     O19 4481   3.370   1.054   2.149  0.2335 -0.2209  0.1339
  195DG     H20 4482   3.289   1.026   1.958  1.5386 -0.0645 -1.1915
  195DG     H21 4483   3.458   0.987   1.981  1.9808 -0.6536  2.1288
  195DG     H22 4484   3.348   1.229   2.048  0.4392 -1.1857 -1.3192
  195DG     H23 4485   3.514   1.203   2.132 -0.2004 -0.2156 -0.5954
  196DG      C1 4486   3.015   3.303   3.887  0.3518 -0.2024  0.4844
  196DG      C2 4487   3.517   3.560   3.582  0.2349  0.4796 -0.1351
  196DG      H3 4488   2.955   3.273   3.973  0.2268 -0.5063  0.2891
  196DG      H4 4489   2.969   3.280   3.791 -0.6155  1.4777  0.4980
  196DG      H5 4490   3.024   3.412   3.889 -2.2939  0.1961 -1.8727
  196DG      H6 4491   3.579   3.515   3.504 -0.3331 -1.2669  0.3800
  196DG      H7 4492   3.427   3.600   3.535  0.8287  1.8976 -0.0988
  196DG      H8 4493   3.579   3.641   3.621 -0.5584  0.2472  1.6956
  196DG      O9 4494   3.138   3.233   3.890  0.6508  0.0810  1.0948
  196DG     O10 4495   3.488   3.465   3.691  0.0544  0.2044  0.5825
  196DG     C11 4496   3.202   3.233   4.016  0.7613 -0.1781  0.1202
  196DG     C12 4497   3.422   3.529   3.793 -0.2506  0.1794  0.1608
  196DG     H13 4498   3.167   3.159   4.088  0.8134 -1.1101 -0.7892
  196DG     H14 4499   3.187   3.336   4.049  0.7718 -0.2693  0.4066
  196DG     H15 4500   3.320   3.547   3.759 -0.2462  0.1180  0.1152
  196DG     H16 4501   3.479   3.620   3.809 -0.0047  0.4409 -1.9581
  196DG     C17 4502   3.356   3.212   3.990  0.3439 -0.0306 -0.1330
  196DG     C18 4503   3.421   3.437   3.922  0.1859  0.1177 -0.4592
  196DG     O19 4504   3.402   3.297   3.885  0.7406  0.2558  0.0931
  196DG     H20 4505   3.376   3.110   3.958 -1.6186 -0.2511 -0.7937
  196DG     H21 4506   3.416   3.241   4.077  0.6153  0.2479 -0.4097
  196DG     H22 4507   3.523   3.437   3.960  0.5366 -2.2499 -1.2125
  196DG     H23 4508   3.362   3.469   4.007  1.0428 -0.4480  0.3706
  197DG      C1 4509   4.171   3.053   3.028 -0.2420 -0.1883  0.1923
  197DG      C2 4510   4.412   3.586   2.737  0.1892 -0.4741 -0.6186
  197DG      H3 4511   4.190   3.153   3.066 -0.8784 -0.1027  0.3058
  197DG      H4 4512   4.203   2.973   3.094  2.6016 -0.6886 -1.6022
  197DG      H5 4513   4.065   3.033   3.010 -0.2320 -1.8554  1.7452
  197DG      H6 4514   4.308   3.580   2.706 -0.0632  1.0642 -0.1720
  197DG      H7 4515   4.403   3.634   2.834  0.6177  0.7083 -1.1432
  197DG      H8 4516   4.458   3.653   2.664  1.9942  0.6860  1.4623
  197DG      O9 4517   4.242   3.042   2.905  0.6340  0.1780 -0.2129
  197DG     O10 4518   4.485   3.471   2.755 -0.8560 -0.1246  0.3499
  197DG     C11 4519   4.382   3.034   2.933 -0.3378  0.1565  0.9369
  197DG     C12 4520   4.481   3.384   2.640 -0.1744 -0.1481 -0.5207
  197DG     H13 4521   4.389   2.937   2.981  1.0623 -2.2517 -3.5416
  197DG     H14 4522   4.421   3.102   3.008 -0.5352  0.9081  0.3796
  197DG     H15 4523   4.549   3.425   2.565  2.3174 -1.4546  0.8865
  197DG     H16 4524   4.382   3.376   2.597 -1.0384  3.4700  0.4130
  197DG     C17 4525   4.463   3.057   2.809 -1.0254  0.1561 -0.3279
  197DG     C18 4526   4.536   3.248   2.680 -0.6180  0.3929  0.5196
  197DG     O19 4527   4.432   3.189   2.763 -0.2498  0.0880  0.3646
  197DG     H20 4528   4.456   2.993   2.721 -0.1881 -0.4923  0.0688
  197DG     H21 4529   4.564   3.070   2.847 -1.2623 -2.3105  1.3305
  197DG     H22 4530   4.543   3.195   2.585 -1.3227 -0.1908  0.7851
  197DG     H23 4531   4.633   3.236   2.728 -1.3224 -0.1112  1.9036
  198DG      C1 4532   4.020   1.164   0.442 -0.4227 -0.2453 -0.3011
  198DG      C2 4533   3.564   0.969   0.846  0.0088  0.3632 -0.2750
  198DG      H3 4534   4.000   1.165   0.334 -1.9223  0.6330 -0.0420
  198DG      H4 4535   4.116   1.215   0.435 -1.9166  2.6230 -2.6599
  198DG      H5 4536   3.948   1.229   0.491  1.5362  0.1464  2.2299
  198DG      H6 4537   3.580   0.999   0.949 -2.4930 -0.6942  0.4997
  198DG      H7 4538   3.522   1.059   0.801  0.0625  0.7183  0.3778
  198DG      H8 4539   3.487   0.892   0.836 -0.8715  1.3286 -1.2974
  198DG      O9 4540   4.008   1.027   0.482  0.0721  0.0156 -0.0373
  198DG     O10 4541   3.679   0.927   0.780  0.0096  0.5254 -0.2938
  198DG     C11 4542   4.112   0.988   0.576  0.7586 -0.3118  0.3422
  198DG     C12 4543   3.753   0.825   0.850  0.5986  0.7858 -0.3219
  198DG     H13 4544   4.146   1.076   0.630 -3.1675  0.5278  1.7362
  198DG     H14 4545   4.192   0.944   0.515  0.2196 -0.2670 -0.4115
  198DG     H15 4546   3.692   0.736   0.869 -1.0050  2.3895  2.7645
  198DG     H16 4547   3.769   0.860   0.952  0.2492 -2.5520  1.0195
  198DG     C17 4548   4.067   0.871   0.669  0.4992  0.2012 -0.1480
  198DG     C18 4549   3.880   0.780   0.782 -0.4105 -0.7369  0.0307
  198DG     O19 4550   3.944   0.895   0.735  0.1559  0.5349 -0.2066
  198DG     H20 4551   4.148   0.842   0.736  0.5269  1.9981  0.6517
  198DG     H21 4552   4.048   0.775   0.620 -0.9520  0.1007  0.5640
  198DG     H22 4553   3.948   0.725   0.847  0.2323  0.3243  0.2615
  198DG     H23 4554   3.865   0.715   0.696  0.3342 -0.8052 -0.0539
  199DG      C1 4555   5.278   4.400   4.388 -0.0371 -0.2462  0.0055
  199DG      C2 4556   4.972   3.672   4.063 -0.6965 -0.8733 -0.0303
  199DG      H3 4557   5.192   4.420   4.325  0.0548  2.1433  0.5197
  199DG      H4 4558   5.356   4.475   4.401  1.5682 -1.9383  0.6217
  199DG      H5 4559   5.224   4.386   4.482 -1.2547 -2.7549 -0.9875
  199DG      H6 4560   5.016   3.586   4.014 -2.0343 -0.7423 -1.5723
  199DG      H7 4561   4.949   3.655   4.168 -0.1538 -1.1904  0.0419
  199DG      H8 4562   4.880   3.692   4.008 -0.1262 -1.9739 -1.4366
  199DG      O9 4563   5.331   4.271   4.362  0.5440  0.9639 -0.1542
  199DG     O10 4564   5.051   3.797   4.061 -0.5164  0.1039 -0.6459
  199DG     C11 4565   5.227   4.169   4.349 -0.2635 -0.6221  0.1363
  199DG     C12 4566   4.967   3.916   4.045  0.7161 -0.5899  0.6053
  199DG     H13 4567   5.141   4.181   4.415 -0.7392  1.6526 -0.7911
  199DG     H14 4568   5.277   4.081   4.390  1.1202  0.1281  0.1175
  199DG     H15 4569   4.887   3.910   4.118  0.1947 -3.5174 -0.0695
  199DG     H16 4570   4.925   3.893   3.947  0.2180 -1.6092  1.0352
  199DG     C17 4571   5.185   4.142   4.202 -0.3821  0.0068 -0.1530
  199DG     C18 4572   5.035   4.048   4.053  0.4851  0.1809 -0.1595
  199DG     O19 4573   5.072   4.057   4.187 -0.5018 -0.0048 -0.0491
  199DG     H20 4574   5.274   4.089   4.167 -1.0351 -0.0637 -1.7904
  199DG     H21 4575   5.169   4.236   4.149 -1.5950  0.5795  1.1525
  199DG     H22 4576   5.120   4.030   3.987 -0.3231  0.4878 -1.3212
  199DG     H23 4577   4.985   4.140   4.024  0.1932  0.8922  2.3735
  200DG      C1 4578   1.622   5.417   4.726 -0.1672 -0.3146 -0.2622
  200DG      C2 4579   1.554   5.284   5.360 -0.3201 -0.7450  0.1406
  200DG      H3 4580   1.617   5.411   4.617 -1.0642  0.2994 -0.2694
  200DG      H4 4581   1.717   5.468   4.744 -0.3169  0.0854 -0.5846
  200DG      H5 4582   1.539   5.486   4.740 -1.0701 -1.2513 -0.9087
  200DG      H6 4583   1.480   5.361   5.338  0.8233  0.0079 -1.1979
  200DG      H7 4584   1.523   5.219   5.441  0.5832 -0.5457  0.6527
  200DG      H8 4585   1.646   5.332   5.394  0.1349 -0.9238 -0.7930
  200DG      O9 4586   1.616   5.290   4.791  0.1914  0.5380 -0.5783
  200DG     O10 4587   1.568   5.208   5.239  0.2287  0.1810  0.0172
  200DG     C11 4588   1.727   5.204   4.766 -0.1498  0.5137  0.2528
  200DG     C12 4589   1.682   5.130   5.241 -0.1590  0.7608 -0.4138
  200DG     H13 4590   1.818   5.261   4.748  0.1317 -0.3149 -1.0976
  200DG     H14 4591   1.712   5.153   4.671  3.1308 -0.9598  0.3705
  200DG     H15 4592   1.691   5.054   5.319  1.1654  2.2946  0.9885
  200DG     H16 4593   1.766   5.199   5.246  1.8911 -1.5513 -1.1118
  200DG     C17 4594   1.726   5.095   4.875  0.5446  0.3965 -0.1418
  200DG     C18 4595   1.699   5.058   5.109 -0.5259 -0.8074  0.2357
  200DG     O19 4596   1.714   5.157   5.005 -0.3269  0.1775  0.4604
  200DG     H20 4597   1.807   5.022   4.877 -0.0409 -0.4205  4.3992
  200DG     H21 4598   1.630   5.044   4.863  0.4004  0.4452  0.7797
  200DG     H22 4599   1.795   5.010   5.124  1.2543  2.0535 -0.9977
  200DG     H23 4600   1.610   5.001   5.085 -0.2836 -2.4567  2.9413
  201DG      C1 4601   2.870   0.024   0.969  0.0224 -0.4263 -0.1600
  201DG      C2 4602   3.577  -0.033   0.800  0.0236 -0.0910  0.6962
  201DG      H3 4603   2.832  -0.040   0.889 -0.8877  0.0893 -0.1492
  201DG      H4 4604   2.786   0.091   0.987  0.8142  0.1597  1.4750
  201DG      H5 4605   2.873  -0.031   1.063  2.4976  0.5230  0.3810
  201DG      H6 4606   3.579  -0.139   0.775 -1.5396 -0.3126  1.4066
  201DG      H7 4607   3.550   0.013   0.705  2.3235 -2.5732 -1.3036
  201DG      H8 4608   3.675   0.001   0.833  0.4672 -0.3249 -0.3454
  201DG      O9 4609   2.994   0.090   0.952  0.2672 -0.2924  0.0858
  201DG     O10 4610   3.469  -0.000   0.891 -0.1329  0.0032  0.4218
  201DG     C11 4611   3.018   0.132   0.820  0.1996 -0.2043  0.4277
  201DG     C12 4612   3.481   0.136   0.931  0.4606 -0.5644  0.9340
  201DG     H13 4613   2.936   0.190   0.779 -0.5998 -2.5929 -1.5842
  201DG     H14 4614   3.029   0.044   0.756 -2.0602  0.7808 -1.4528
  201DG     H15 4615   3.576   0.183   0.907  0.4820 -1.9492 -2.2177
  201DG     H16 4616   3.469   0.137   1.039 -0.7147 -1.0678  0.8267
  201DG     C17 4617   3.143   0.224   0.817 -0.2867  0.1993  0.1458
  201DG     C18 4618   3.367   0.216   0.876 -0.2279 -0.5710 -0.9184
  201DG     O19 4619   3.241   0.152   0.890 -0.8391  0.0993 -0.6648
  201DG     H20 4620   3.121   0.318   0.868  1.0323 -0.1805  1.4772
  201DG     H21 4621   3.185   0.241   0.718  1.0224 -1.3621  0.3835
  201DG     H22 4622   3.362   0.311   0.930  0.6148 -1.4889  0.8226
  201DG     H23 4623   3.394   0.236   0.772  0.7675 -0.4056 -0.6350
  202DG      C1 4624   3.674   1.123   4.584  0.0541 -0.2597  0.3831
  202DG      C2 4625   3.773   0.614   4.963  0.5585  0.1993  0.0227
  202DG      H3 4626   3.744   1.129   4.501 -0.6194  0.9716 -0.1348
  202DG      H4 4627   3.722   1.141   4.680  0.4894 -1.5712  0.4285
  202DG      H5 4628   3.593   1.195   4.568 -0.1947 -0.8704 -1.4378
  202DG      H6 4629   3.864   0.589   4.909 -0.2332  0.3727 -1.4582
  202DG      H7 4630   3.806   0.687   5.037  0.4232  0.7620 -0.4603
  202DG      H8 4631   3.736   0.527   5.017 -0.0454 -0.7748 -1.8667
  202DG      O9 4632   3.623   0.992   4.604  0.3543 -0.1313  0.3722
  202DG     O10 4633   3.674   0.662   4.876  0.0083  0.5045 -0.0946
  202DG     C11 4634   3.563   0.929   4.488 -0.3779 -0.3818  0.4303
  202DG     C12 4635   3.606   0.561   4.803  0.3630 -0.2791 -0.2889
  202DG     H13 4636   3.640   0.917   4.412 -0.8380 -2.1772  0.2176
  202DG     H14 4637   3.491   1.005   4.455  0.2554 -0.1280 -0.4004
  202DG     H15 4638   3.562   0.505   4.886 -1.9091  1.4480 -0.2271
  202DG     H16 4639   3.677   0.492   4.757 -0.8977 -1.1799 -0.9656
  202DG     C17 4640   3.501   0.797   4.528  0.1423 -0.2496 -0.0839
  202DG     C18 4641   3.516   0.631   4.698 -0.1139 -0.6710 -0.5181
  202DG     O19 4642   3.593   0.720   4.622  0.0350  0.1543 -0.2441
  202DG     H20 4643   3.476   0.727   4.448  0.1422  0.2183 -0.4965
  202DG     H21 4644   3.411   0.822   4.585 -0.7419 -3.1724 -0.0197
  202DG     H22 4645   3.463   0.558   4.637 -1.2782  0.0807 -0.4211
  202DG     H23 4646   3.436   0.680   4.752  0.2940 -1.5029  0.9103
  203DG      C1 4647   3.576   4.272   0.217  0.0483  0.3823 -0.0546
  203DG      C2 4648   3.005   4.198   0.602  0.7710 -0.7867  0.2561
  203DG      H3 4649   3.579   4.356   0.147 -1.4157 -0.0915 -0.7087
  203DG      H4 4650   3.644   4.197   0.178  1.1247  0.9825  0.6217
  203DG      H5 4651   3.612   4.291   0.319  1.7131  0.2874 -0.6035
  203DG      H6 4652   3.075   4.209   0.684  0.3171 -1.4236  0.7449
  203DG      H7 4653   2.944   4.285   0.580 -1.9826 -2.8670 -0.9790
  203DG      H8 4654   2.941   4.119   0.642 -0.4581  0.6109  1.1659
  203DG      O9 4655   3.450   4.217   0.231  0.3812  0.5900  0.7811
  203DG     O10 4656   3.069   4.156   0.483  0.8253  0.1630 -1.1936
  203DG     C11 4657   3.392   4.192   0.105  0.3641  0.3395 -0.6228
  203DG     C12 4658   2.989   4.114   0.375 -0.3579 -0.2438  0.5221
  203DG     H13 4659   3.467   4.160   0.032  0.5962  0.8969 -0.6309
  203DG     H14 4660   3.343   4.282   0.069  0.0481  1.4696  2.3650
  203DG     H15 4661   2.951   4.198   0.317 -0.2340  0.5628  1.5950
  203DG     H16 4662   2.897   4.057   0.393 -1.0023  0.6240  0.0596
  203DG     C17 4663   3.281   4.086   0.130 -0.6081  0.3868 -0.2457
  203DG     C18 4664   3.092   4.044   0.274  0.0272 -0.3116 -0.1553
  203DG     O19 4665   3.182   4.141   0.221  0.0710  0.3333  0.1351
  203DG     H20 4666   3.328   4.005   0.186 -0.1814  0.9118  0.1660
  203DG     H21 4667   3.240   4.058   0.033  1.2268  0.2581 -1.0190
  203DG     H22 4668   3.144   3.969   0.333  1.2528  0.7059  0.1111
  203DG     H23 4669   3.047   4.003   0.185 -0.2396  1.0425 -0.6733
  204DG      C1 4670   3.543   4.814   3.029  0.0981  0.0352 -0.3102
  204DG      C2 4671   2.973   5.133   3.270  0.1715 -0.5547 -0.4096
  204DG      H3 4672   3.587   4.913   3.024  1.3191 -0.2586  2.6525
  204DG      H4 4673   3.567   4.773   2.930  0.1713  0.4023 -0.4461
  204DG      H5 4674   3.601   4.761   3.104  0.8517  0.3754 -0.6410
  204DG      H6 4675   2.953   5.233   3.231  1.1421 -1.1848 -2.6572
  204DG      H7 4676   2.883   5.095   3.319  1.0058 -2.7681 -0.4611
  204DG      H8 4677   3.046   5.138   3.351  1.2741 -1.0413 -1.3453
  204DG      O9 4678   3.401   4.818   3.045 -0.5860  0.1733  0.1070
  204DG     O10 4679   3.032   5.044   3.177 -0.4352 -0.3574  0.1508
  204DG     C11 4680   3.330   4.702   3.006 -0.5407 -0.2289  0.2005
  204DG     C12 4681   2.936   4.976   3.101  0.3642  0.5600 -0.1273
  204DG     H13 4682   3.329   4.628   3.086 -0.4797  1.7296  2.0994
  204DG     H14 4683   3.377   4.654   2.920  1.6120  0.4757  0.9321
  204DG     H15 4684   2.873   5.048   3.049 -1.1170 -0.0180  0.7954
  204DG     H16 4685   2.869   4.914   3.162 -2.1449  2.2365 -1.0154
  204DG     C17 4686   3.186   4.739   2.964  0.0290 -0.0636  0.0983
  204DG     C18 4687   3.015   4.890   3.003 -0.5915  0.1231  0.5400
  204DG     O19 4688   3.128   4.822   3.062  0.6788 -0.3505 -0.3672
  204DG     H20 4689   3.132   4.644   2.968  0.1636 -0.1138  0.7940
  204DG     H21 4690   3.189   4.777   2.862  0.4580 -0.8656 -0.1926
  204DG     H22 4691   2.936   4.832   2.956 -1.8521  2.0344  0.1721
  204DG     H23 4692   3.057   4.957   2.928 -0.4613 -2.0908 -1.4581
  205DG      C1 4693   5.464   0.519   2.128  0.1989 -0.5185  0.4947
  205DG      C2 4694   4.970   0.939   2.308 -0.0251 -0.0161 -0.2087
  205DG      H3 4695   5.523   0.605   2.159 -0.2091 -0.0855  0.0858
  205DG      H4 4696   5.471   0.501   2.020 -0.0296 -1.0459  0.5646
  205DG      H5 4697   5.499   0.430   2.180  0.5829 -0.3685  0.4963
  205DG      H6 4698   4.963   0.992   2.213  2.2155  1.9601  0.6350
  205DG      H7 4699   4.881   0.975   2.361 -0.3348  2.0681 -2.0048
  205DG      H8 4700   5.057   0.975   2.362 -0.3839 -3.3074  2.9914
  205DG      O9 4701   5.325   0.537   2.168 -0.2658  0.4663 -0.0224
  205DG     O10 4702   4.977   0.798   2.278  0.1149 -0.1475  0.1719
  205DG     C11 4703   5.235   0.483   2.080  0.0410 -0.9235 -0.3756
  205DG     C12 4704   4.876   0.746   2.207  0.1383  0.2666  0.4155
  205DG     H13 4705   5.278   0.391   2.042  0.0789 -0.2688 -2.0253
  205DG     H14 4706   5.227   0.552   1.996  3.0897  1.3236  0.9654
  205DG     H15 4707   4.882   0.782   2.105  0.6618  0.5414  0.5385
  205DG     H16 4708   4.781   0.770   2.256 -0.5926  0.5985 -1.1272
  205DG     C17 4709   5.095   0.455   2.141 -0.4893 -0.0408 -0.0267
  205DG     C18 4710   4.905   0.589   2.212  0.1335 -0.8909  0.1097
  205DG     O19 4711   5.023   0.577   2.137  0.3870  0.3170  0.3785
  205DG     H20 4712   5.114   0.428   2.245 -1.0763 -0.0012  0.0955
  205DG     H21 4713   5.039   0.371   2.101 -0.2429 -0.1330 -0.1812
  205DG     H22 4714   4.928   0.566   2.317  2.2621  0.4503  0.0066
  205DG     H23 4715   4.822   0.530   2.174 -1.6310  1.4416  0.1369
  206DG      C1 4716   3.053   0.542   1.855  0.1579 -0.2167  0.6285
  206DG      C2 4717   2.760   0.712   1.320 -0.2003  0.3100 -0.1629
  206DG      H3 4718   2.997   0.455   1.821 -0.3866  0.7735 -1.1895
  206DG      H4 4719   3.077   0.519   1.958 -0.7778 -2.8020  0.3338
  206DG      H5 4720   3.152   0.540   1.811  1.5413  2.2270  3.2680
  206DG      H6 4721   2.772   0.796   1.251  0.6097  0.4129  0.0868
  206DG      H7 4722   2.833   0.632   1.303 -0.0808  0.1808  0.9191
  206DG      H8 4723   2.668   0.659   1.296 -0.2442 -0.8456  2.2717
  206DG      O9 4724   2.988   0.667   1.827  0.1587 -0.3949  0.1182
  206DG     O10 4725   2.777   0.742   1.460  0.5616 -0.1510 -0.1286
  206DG     C11 4726   2.884   0.700   1.924 -0.7300  0.7193 -0.5362
  206DG     C12 4727   2.670   0.805   1.527 -0.3599 -0.3871  0.0283
  206DG     H13 4728   2.931   0.712   2.021 -2.6377 -0.0888  0.5625
  206DG     H14 4729   2.814   0.617   1.931 -0.1189  0.3251  1.2354
  206DG     H15 4730   2.571   0.767   1.501 -1.0999  1.5852 -0.2660
  206DG     H16 4731   2.668   0.911   1.500  1.0251  0.1064  1.6888
  206DG     C17 4732   2.831   0.831   1.865 -0.0294  0.5599 -0.2919
  206DG     C18 4733   2.680   0.802   1.681 -0.1422  0.1256 -0.2159
  206DG     O19 4734   2.815   0.824   1.724 -0.0131 -0.3819  0.1228
  206DG     H20 4735   2.909   0.904   1.884  1.9485 -1.3779 -0.6236
  206DG     H21 4736   2.744   0.870   1.918 -1.4926 -0.6346 -1.6708
  206DG     H22 4737   2.610   0.873   1.725 -0.1458  0.9395 -1.5024
  206DG     H23 4738   2.661   0.699   1.711 -1.2856  0.0804 -1.0240
  207DG      C1 4739   2.386   3.955   3.817 -0.2199  0.0788 -0.1164
  207DG      C2 4740   1.807   3.693   4.168  0.0206 -0.1876 -0.1612
  207DG      H3 4741   2.429   4.047   3.857  0.3661 -0.7755  1.3110
  207DG      H4 4742   2.414   3.944   3.713  2.9970 -0.5587  0.7013
  207DG      H5 4743   2.440   3.881   3.876 -2.5630 -1.8949 -0.2772
  207DG      H6 4744   1.856   3.738   4.254 -2.0302 -2.4154  2.3746
  207DG      H7 4745   1.727   3.761   4.141  0.7456  1.3541  1.4008
  207DG      H8 4746   1.760   3.602   4.206  1.3642 -0.8486 -0.0156
  207DG      O9 4747   2.253   3.932   3.842  0.8438 -0.0398 -0.2407
  207DG     O10 4748   1.906   3.666   4.072 -0.2504 -0.3209  0.5109
  207DG     C11 4749   2.199   3.818   3.783 -0.7992  0.8597 -0.6296
  207DG     C12 4750   2.011   3.587   4.125 -0.6968  1.1103 -0.8726
  207DG     H13 4751   2.242   3.802   3.684  0.3723  0.6672 -0.0973
  207DG     H14 4752   2.090   3.815   3.773 -0.8326 -2.4636 -0.3411
  207DG     H15 4753   1.978   3.498   4.179  1.4222 -0.3825 -1.9014
  207DG     H16 4754   2.063   3.640   4.205  2.3330 -0.2960 -1.8043
  207DG     C17 4755   2.229   3.690   3.864 -0.5173 -0.0811  1.0235
  207DG     C18 4756   2.115   3.550   4.023  0.0433 -0.0674 -0.2203
  207DG     O19 4757   2.141   3.677   3.967  0.2490 -0.6136 -0.3056
  207DG     H20 4758   2.333   3.672   3.893  0.3828  0.4350 -1.5389
  207DG     H21 4759   2.211   3.609   3.794  1.6083  0.3606 -0.1426
  207DG     H22 4760   2.206   3.506   4.064  0.7695  1.4021 -0.2002
  207DG     H23 4761   2.075   3.466   3.966 -0.5995 -0.3797  0.6688
  208DG      C1 4762   2.056   3.510   5.105  0.8414  0.0650  0.4980
  208DG      C2 4763   1.269   3.355   5.116  0.5390 -0.0391 -0.6632
  208DG      H3 4764   2.056   3.619   5.110 -1.3881  0.0987  0.5067
  208DG      H4 4765   2.077   3.478   5.003 -2.0012  1.5616 -0.6641
  208DG      H5 4766   2.131   3.473   5.175  0.3117  1.6908  1.9853
  208DG      H6 4767   1.319   3.338   5.020  0.0887  1.0406 -1.0995
  208DG      H7 4768   1.203   3.272   5.141 -0.2590  0.8053  0.1298
  208DG      H8 4769   1.212   3.448   5.118 -0.7716 -0.8388  0.4177
  208DG      O9 4770   1.924   3.461   5.134  0.4509 -0.6623 -0.3101
  208DG     O10 4771   1.382   3.388   5.199 -0.3871 -0.0368 -0.2817
  208DG     C11 4772   1.887   3.469   5.277  0.0276 -0.1423  0.1273
  208DG     C12 4773   1.461   3.496   5.155 -0.0902 -0.1575  0.2862
  208DG     H13 4774   1.858   3.571   5.302  0.2970  0.0718 -0.4053
  208DG     H14 4775   1.971   3.450   5.344  0.1274 -1.7153 -0.3914
  208DG     H15 4776   1.406   3.590   5.161 -0.6957 -0.4308 -0.7170
  208DG     H16 4777   1.494   3.480   5.052  0.4116 -1.4968  0.6454
  208DG     C17 4778   1.773   3.367   5.313  0.5115  0.6256  0.3018
  208DG     C18 4779   1.590   3.497   5.234  0.3561 -0.1024 -0.2297
  208DG     O19 4780   1.650   3.372   5.237 -0.3633 -0.0744 -0.2656
  208DG     H20 4781   1.751   3.366   5.419 -2.0066 -0.2773 -0.1653
  208DG     H21 4782   1.816   3.268   5.305 -0.0672  0.3395  0.7186
  208DG     H22 4783   1.655   3.577   5.197 -1.1975  0.6615 -1.4132
  208DG     H23 4784   1.577   3.532   5.337  3.9769  0.5396  0.1388
  209DG      C1 4785   2.898   4.277   3.098 -0.1987  0.2453 -0.6753
  209DG      C2 4786   3.396   4.231   3.724  0.2447 -0.0447  1.2430
  209DG      H3 4787   2.797   4.249   3.067 -0.0638  1.0490 -1.9160
  209DG      H4 4788   2.959   4.243   3.015 -0.9904  0.9014 -1.5487
  209DG      H5 4789   2.903   4.386   3.099 -0.4127  0.2795  1.2789
  209DG      H6 4790   3.439   4.316   3.777  0.3278  0.1316  0.8991
  209DG      H7 4791   3.362   4.161   3.800 -3.1767 -0.2901 -0.3119
  209DG      H8 4792   3.467   4.186   3.654 -1.2327  0.7495 -0.8709
  209DG      O9 4793   2.935   4.252   3.234 -0.3508  0.1044 -0.3872
  209DG     O10 4794   3.289   4.275   3.647 -0.2519 -0.1232  0.0661
  209DG     C11 4795   3.076   4.270   3.254 -0.3237  0.5378 -0.2102
  209DG     C12 4796   3.176   4.336   3.714 -0.0271  0.1156 -0.0844
  209DG     H13 4797   3.114   4.366   3.222  2.9260 -0.9235 -1.1139
  209DG     H14 4798   3.142   4.203   3.199 -0.3210  1.0424 -0.8358
  209DG     H15 4799   3.189   4.444   3.724  1.5185 -0.0042 -0.5556
  209DG     H16 4800   3.172   4.318   3.821  2.6207  0.1313  0.0653
  209DG     C17 4801   3.121   4.240   3.405  0.6385  0.5247 -0.9285
  209DG     C18 4802   3.047   4.285   3.639  0.3181 -0.4164  0.5638
  209DG     O19 4803   3.051   4.322   3.495  0.1707  0.3606  0.0175
  209DG     H20 4804   3.228   4.261   3.410  0.9040 -1.1058  2.3957
  209DG     H21 4805   3.099   4.134   3.413 -1.4615  0.9175 -1.0244
  209DG     H22 4806   3.043   4.177   3.651 -1.9334 -0.2779  1.5912
  209DG     H23 4807   2.966   4.336   3.692  0.1645 -0.1235  0.0481
  210DG      C1 4808   2.175   3.516   1.102 -0.0943  0.3945  0.6110
  210DG      C2 4809   1.802   3.844   0.675 -0.3986 -0.7652  0.4027
  210DG      H3 4810   2.153   3.528   1.208  1.7192 -0.0529  1.0756
  210DG      H4 4811   2.249   3.591   1.074  0.6071 -0.6057 -0.3261
  210DG      H5 4812   2.221   3.418   1.084 -1.3185 -0.2223  0.7202
  210DG      H6 4813   1.902   3.883   0.697 -0.1246 -1.4199  0.3423
  210DG      H7 4814   1.790   3.877   0.571  0.0609  2.4983  1.2675
  210DG      H8 4815   1.728   3.892   0.738  0.2205  0.1951  0.4326
  210DG      O9 4816   2.062   3.534   1.023 -0.5925  0.0602  0.3431
  210DG     O10 4817   1.808   3.703   0.693  0.4010 -0.7462  0.1242
  210DG     C11 4818   1.960   3.439   1.053  0.0706 -0.2439  0.0483
  210DG     C12 4819   1.687   3.640   0.739 -0.3732 -0.2835  0.4470
  210DG     H13 4820   1.945   3.443   1.161 -0.7629 -0.9837 -0.0250
  210DG     H14 4821   1.989   3.335   1.044 -1.5738 -1.2556  3.9726
  210DG     H15 4822   1.610   3.658   0.664 -1.0916 -1.3955  0.8885
  210DG     H16 4823   1.659   3.695   0.829  1.3024  0.0925  0.7800
  210DG     C17 4824   1.828   3.476   0.978 -0.1639  0.1242 -0.1921
  210DG     C18 4825   1.710   3.493   0.762 -0.2828 -0.2734 -0.4768
  210DG     O19 4826   1.831   3.464   0.835 -0.2811  0.0575 -0.8366
  210DG     H20 4827   1.787   3.575   1.000 -0.5885 -0.5013  2.1643
  210DG     H21 4828   1.749   3.405   1.003 -0.5225  0.4680 -0.3300
  210DG     H22 4829   1.620   3.445   0.803  0.1482 -1.3734 -0.7839
  210DG     H23 4830   1.727   3.445   0.666  0.1855  1.0766 -1.0799
  211DG      C1 4831   1.171   1.355   3.132 -0.0287 -0.1047 -0.2761
  211DG      C2 4832   0.668   0.994   3.344 -0.2034 -0.1450  0.1153
  211DG      H3 4833   1.193   1.368   3.026 -1.3923  1.5081 -0.4046
  211DG      H4 4834   1.267   1.358   3.184 -0.9644  2.4550  1.4769
  211DG      H5 4835   1.117   1.444   3.164  0.6769 -0.0845  0.9499
  211DG      H6 4836   0.581   0.931   3.326 -0.2220 -0.1770  0.3183
  211DG      H7 4837   0.728   0.953   3.424  1.2011 -1.5294 -1.5807
  211DG      H8 4838   0.623   1.093   3.359  0.3192  0.1757 -0.3926
  211DG      O9 4839   1.091   1.238   3.153  0.3821 -0.0237  0.1646
  211DG     O10 4840   0.747   1.023   3.225  0.5168  0.0820 -0.1779
  211DG     C11 4841   1.152   1.118   3.104  0.0631 -0.9461 -0.1618
  211DG     C12 4842   0.794   0.894   3.175 -0.0272  0.6373  0.4058
  211DG     H13 4843   1.234   1.096   3.172  0.6511  0.1393 -0.4886
  211DG     H14 4844   1.195   1.121   3.003 -0.5971 -2.0321 -0.4837
  211DG     H15 4845   0.729   0.808   3.191  0.9284  0.2043  2.2270
  211DG     H16 4846   0.874   0.862   3.243  1.0443  2.2474 -0.0395
  211DG     C17 4847   1.065   0.994   3.117 -0.1161  0.0885  0.3302
  211DG     C18 4848   0.846   0.924   3.032 -0.0438  0.5799 -0.6566
  211DG     O19 4849   0.946   1.028   3.046  0.0941  0.2498 -0.2463
  211DG     H20 4850   1.051   0.970   3.222 -1.5299  0.6264  0.2753
  211DG     H21 4851   1.119   0.909   3.074  3.1692  1.3230  1.6630
  211DG     H22 4852   0.886   0.843   2.971  2.0867 -0.1392  1.5092
  211DG     H23 4853   0.769   0.965   2.968  0.4147 -0.6457 -2.0461
  212DG      C1 4854   2.546   4.677   3.874  1.0623 -0.1284  0.1436
  212DG      C2 4855   1.819   4.530   3.797 -0.3803 -0.4178 -0.1980
  212DG      H3 4856   2.542   4.733   3.968  2.3734 -0.7087  0.5598
  212DG      H4 4857   2.598   4.738   3.801  1.4479 -0.9310 -0.2633
  212DG      H5 4858   2.614   4.596   3.902  1.0050 -0.5540 -0.9048
  212DG      H6 4859   1.775   4.573   3.887 -0.9049 -1.8989  0.2875
  212DG      H7 4860   1.831   4.609   3.722 -0.7113  0.2710  0.4653
  212DG      H8 4861   1.749   4.453   3.763  1.5144 -2.1633 -0.3733
  212DG      O9 4862   2.415   4.634   3.831 -0.2249  0.6692 -0.2430
  212DG     O10 4863   1.941   4.464   3.820  0.1337 -0.7042  0.6847
  212DG     C11 4864   2.413   4.569   3.708 -0.4260  0.2763  0.7904
  212DG     C12 4865   1.987   4.392   3.712 -0.6579  0.1004 -0.0060
  212DG     H13 4866   2.473   4.483   3.736 -0.2467  0.0877 -0.1530
  212DG     H14 4867   2.452   4.625   3.624  0.7203 -2.1193 -0.3692
  212DG     H15 4868   1.997   4.452   3.621 -3.0338 -0.6431 -0.8442
  212DG     H16 4869   1.917   4.309   3.697  0.5893 -1.1836  0.9793
  212DG     C17 4870   2.269   4.530   3.680  0.3961 -0.1118 -0.2488
  212DG     C18 4871   2.128   4.340   3.750 -0.2598  0.2572  0.2611
  212DG     O19 4872   2.227   4.440   3.784 -0.4397 -0.4342  0.1164
  212DG     H20 4873   2.246   4.494   3.580  2.0842 -0.9509 -0.3744
  212DG     H21 4874   2.206   4.619   3.690 -0.1949 -0.4734 -0.6433
  212DG     H22 4875   2.123   4.287   3.845  1.2409  0.1392  0.3000
  212DG     H23 4876   2.173   4.265   3.684  0.5254  0.4883  0.5117
  213DG      C1 4877   2.834   2.382   4.391  0.0482  0.3265  0.5215
  213DG      C2 4878   2.865   3.024   4.251 -0.0635 -0.4236 -0.1277
  213DG      H3 4879   2.938   2.392   4.424 -0.4691 -0.5389  2.5349
  213DG      H4 4880   2.811   2.277   4.379 -1.0540  0.4961  1.0494
  213DG      H5 4881   2.761   2.407   4.468 -0.1289 -0.9795  0.7913
  213DG      H6 4882   2.913   3.015   4.349  0.5785 -0.4245 -0.4415
  213DG      H7 4883   2.935   3.061   4.176 -0.2635  1.6775  0.6440
  213DG      H8 4884   2.778   3.090   4.256  0.9637  1.0129 -0.5404
  213DG      O9 4885   2.820   2.457   4.271 -0.1711  0.0438  0.0450
  213DG     O10 4886   2.837   2.890   4.194 -0.4415  0.6606  0.2146
  213DG     C11 4887   2.697   2.454   4.207  0.6050  0.2104 -0.5283
  213DG     C12 4888   2.772   2.890   4.070 -0.3397 -0.1397 -0.1399
  213DG     H13 4889   2.617   2.502   4.262  0.8837 -0.0941  0.1663
  213DG     H14 4890   2.672   2.350   4.187 -2.9241  0.5479  1.4605
  213DG     H15 4891   2.812   2.963   4.000 -1.4696  1.0578  0.4126
  213DG     H16 4892   2.669   2.925   4.076 -0.9843 -1.9398 -0.2948
  213DG     C17 4893   2.702   2.535   4.082  0.1129 -0.7618 -0.2599
  213DG     C18 4894   2.773   2.750   4.015 -0.4078  0.1110 -0.2670
  213DG     O19 4895   2.739   2.668   4.125  0.2741 -0.2520 -0.0507
  213DG     H20 4896   2.600   2.537   4.044  0.5873 -0.7898 -1.5684
  213DG     H21 4897   2.775   2.501   4.008 -0.6423 -2.4339 -0.2866
  213DG     H22 4898   2.694   2.737   3.940 -1.3562 -0.8606  0.8646
  213DG     H23 4899   2.864   2.712   3.970 -0.0787  0.4941  0.0734
  214DG      C1 4900   1.269   2.299   1.874 -0.2068  0.7957 -0.5012
  214DG      C2 4901   0.644   2.140   2.067 -0.1051 -0.2404 -0.2748
  214DG      H3 4902   1.312   2.204   1.844  0.2923  1.3400 -1.5692
  214DG      H4 4903   1.354   2.364   1.898  2.3359 -2.3276 -0.3639
  214DG      H5 4904   1.215   2.353   1.796 -0.4685  0.9384 -0.2205
  214DG      H6 4905   0.595   2.220   2.122  1.7258 -1.2120  3.0222
  214DG      H7 4906   0.643   2.145   1.958  3.1361  0.1280 -0.3897
  214DG      H8 4907   0.597   2.046   2.094 -0.1320  0.0356  0.6791
  214DG      O9 4908   1.174   2.284   1.986 -0.5109 -0.1456 -0.2032
  214DG     O10 4909   0.780   2.156   2.109 -0.4928  0.2502 -0.7023
  214DG     C11 4910   1.237   2.268   2.108 -0.8150 -0.0035  0.1211
  214DG     C12 4911   0.801   2.082   2.232  0.2039  0.0651 -0.0931
  214DG     H13 4912   1.296   2.358   2.124  0.6492 -0.9084 -0.0052
  214DG     H14 4913   1.298   2.179   2.095 -1.3696 -0.4946  0.8006
  214DG     H15 4914   0.814   1.979   2.200  1.6479  0.5323 -1.1345
  214DG     H16 4915   0.721   2.093   2.305  0.7659  0.6549  0.4447
  214DG     C17 4916   1.140   2.245   2.223 -0.5309 -0.2584 -0.4606
  214DG     C18 4917   0.933   2.138   2.286 -0.0022  0.3153  0.3409
  214DG     O19 4918   1.034   2.163   2.191 -0.5324 -0.2260  0.6312
  214DG     H20 4919   1.101   2.344   2.247 -0.0680 -0.5964  1.9761
  214DG     H21 4920   1.188   2.211   2.315 -0.1892 -0.4586 -0.7101
  214DG     H22 4921   0.911   2.227   2.345  0.5773 -1.1685  2.9291
  214DG     H23 4922   0.970   2.069   2.361 -1.4914  1.6081  2.3702
  215DG      C1 4923   4.309   0.952   0.156 -0.2525  0.0273 -0.0823
  215DG      C2 4924   4.265   1.174   0.922  0.6088 -0.4793 -0.3812
  215DG      H3 4925   4.346   1.038   0.100 -2.3536  1.1161  0.1138
  215DG      H4 4926   4.203   0.957   0.177  0.0391  1.5843  1.2644
  215DG      H5 4927   4.325   0.866   0.092 -0.0628 -0.1237  0.1615
  215DG      H6 4928   4.178   1.117   0.890  0.8639 -1.1937  0.1704
  215DG      H7 4929   4.278   1.145   1.026  0.2456 -1.8021 -0.6955
  215DG      H8 4930   4.230   1.277   0.927  2.6553  0.2080  1.8022
  215DG      O9 4931   4.393   0.928   0.276  0.1268 -0.1282  0.0822
  215DG     O10 4932   4.374   1.153   0.838  0.0098 -0.2437 -0.2190
  215DG     C11 4933   4.418   1.038   0.352  0.0573  0.2360 -0.3842
  215DG     C12 4934   4.412   1.013   0.831 -0.3853 -0.2686 -0.1159
  215DG     H13 4935   4.326   1.079   0.394 -0.6066 -2.6939  1.3068
  215DG     H14 4936   4.463   1.122   0.299 -0.3168  1.6412  1.4172
  215DG     H15 4937   4.327   0.951   0.802 -1.4930  1.3137 -0.4088
  215DG     H16 4938   4.456   0.975   0.923  1.6159  1.0761 -0.4592
  215DG     C17 4939   4.506   1.013   0.477 -0.3475 -0.4607  0.1806
  215DG     C18 4940   4.513   1.008   0.715  0.5520 -0.1215  0.1469
  215DG     O19 4941   4.427   1.015   0.596 -0.0005  0.9218 -0.1018
  215DG     H20 4942   4.568   1.103   0.477  1.7679 -1.8558 -0.5080
  215DG     H21 4943   4.560   0.920   0.468 -0.0160 -0.2979  0.4811
  215DG     H22 4944   4.579   1.094   0.726  0.0654  0.1233  1.2387
  215DG     H23 4945   4.571   0.916   0.710  0.6914 -0.1647  1.9248
  216DG      C1 4946   0.964   3.541   0.813 -0.2263  0.1878 -0.0108
  216DG      C2 4947   1.457   3.819   0.463  0.2022 -0.1286 -0.2328
  216DG      H3 4948   0.908   3.539   0.907  0.4933 -1.8895  0.4320
  216DG      H4 4949   1.034   3.458   0.820 -0.4723 -0.0819 -0.6901
  216DG      H5 4950   0.897   3.523   0.730 -0.2679  1.2451 -0.2235
  216DG      H6 4951   1.554   3.864   0.482 -0.1642  1.1895 -1.2963
  216DG      H7 4952   1.459   3.711   0.447  0.4072 -0.0130 -0.9953
  216DG      H8 4953   1.423   3.878   0.378 -0.2369  2.5165  1.6465
  216DG      O9 4954   1.020   3.672   0.807  0.3969 -0.1826  0.1404
  216DG     O10 4955   1.354   3.846   0.558 -0.0691  0.1264 -0.2096
  216DG     C11 4956   0.927   3.772   0.793  1.0802 -0.4097  0.1349
  216DG     C12 4957   1.297   3.975   0.568 -0.7927  0.2088  0.6183
  216DG     H13 4958   0.863   3.782   0.881  0.7652 -0.3697 -0.0970
  216DG     H14 4959   0.864   3.739   0.711  1.2587 -1.2311  0.3240
  216DG     H15 4960   1.264   4.011   0.471 -2.7891 -2.9479 -0.0119
  216DG     H16 4961   1.376   4.045   0.598  0.3352 -0.0929 -1.4662
  216DG     C17 4962   1.003   3.908   0.776 -0.1797 -0.1686  0.4467
  216DG     C18 4963   1.194   3.988   0.680  0.2244  0.7404 -0.1277
  216DG     O19 4964   1.098   3.886   0.668  0.6846 -0.2030  0.7566
  216DG     H20 4965   1.049   3.938   0.871 -0.5642 -0.5575  0.7609
  216DG     H21 4966   0.933   3.983   0.740  0.9002  0.7616  0.2158
  216DG     H22 4967   1.238   3.993   0.779 -0.7761  1.8668  0.2836
  216DG     H23 4968   1.146   4.085   0.669 -0.5198  0.2225 -1.7858
  217DG      C1 4969   0.124   4.135   0.506 -0.3087  0.2315  0.2450
  217DG      C2 4970   0.003   4.506   0.082 -0.0404 -0.4821 -0.7908
  217DG      H3 4971   0.098   4.030   0.495 -2.0525  0.7595 -1.2406
  217DG      H4 4972   0.199   4.147   0.585  2.7690 -3.4910 -1.7710
  217DG      H5 4973   0.187   4.163   0.421 -0.0852 -0.8268  0.0568
  217DG      H6 4974   0.073   4.523   0.164 -1.9106  0.1785  0.7267
  217DG      H7 4975  -0.020   4.402   0.107  1.3218 -0.3174  1.4954
  217DG      H8 4976   0.057   4.517  -0.012 -1.9732  0.0007 -1.8754
  217DG      O9 4977   0.006   4.219   0.506 -0.5779  0.1720 -0.0071
  217DG     O10 4978  -0.111   4.586   0.078  0.5146 -0.2094  0.1360
  217DG     C11 4979  -0.085   4.185   0.404 -0.2581 -0.4072  0.5457
  217DG     C12 4980  -0.160   4.618   0.211  0.4643 -0.5770  0.2250
  217DG     H13 4981  -0.124   4.085   0.424  0.4362 -0.7450  0.2455
  217DG     H14 4982  -0.030   4.185   0.309 -1.4291 -2.3705 -0.1935
  217DG     H15 4983  -0.234   4.698   0.210  1.2894  0.1934 -1.0235
  217DG     H16 4984  -0.083   4.654   0.279  2.0197 -0.8846 -1.3278
  217DG     C17 4985  -0.197   4.282   0.379  0.1732 -0.8207  0.8114
  217DG     C18 4986  -0.235   4.492   0.264  0.1643  0.3511 -0.2729
  217DG     O19 4987  -0.141   4.389   0.303 -0.2372 -0.1127  0.4900
  217DG     H20 4988  -0.228   4.330   0.472 -1.1849  0.5035 -0.2771
  217DG     H21 4989  -0.283   4.246   0.324  1.1085 -1.6133 -0.1857
  217DG     H22 4990  -0.288   4.523   0.354 -0.3316  0.4559 -0.5939
  217DG     H23 4991  -0.312   4.451   0.198 -0.0897 -0.4466  0.5039
  218DG      C1 4992   1.238   4.203   1.567  0.3609  0.1923  0.5527
  218DG      C2 4993   1.114   4.825   1.444 -0.3836  0.4825  0.1049
  218DG      H3 4994   1.244   4.138   1.654 -0.1033 -0.9853 -0.2682
  218DG      H4 4995   1.300   4.167   1.484  0.4542 -2.1677  1.5684
  218DG      H5 4996   1.134   4.197   1.536  0.1942  1.3790  0.8248
  218DG      H6 4997   1.130   4.917   1.501  1.3287 -0.7456  1.7028
  218DG      H7 4998   1.132   4.851   1.339 -2.1799  0.2324 -0.2869
  218DG      H8 4999   1.012   4.787   1.446 -0.1257 -0.1916  0.5081
  218DG      O9 5000   1.276   4.336   1.595 -0.1210  0.2176  0.3195
  218DG     O10 5001   1.194   4.720   1.492  0.7796 -0.1140 -0.6348
  218DG     C11 5002   1.418   4.342   1.609  0.0462  0.0750 -0.2792
  218DG     C12 5003   1.330   4.746   1.456  0.3465 -0.3554 -0.0961
  218DG     H13 5004   1.467   4.346   1.512 -1.2507  2.0602 -0.9163
  218DG     H14 5005   1.462   4.258   1.663 -0.1697  0.4074  0.4269
  218DG     H15 5006   1.358   4.844   1.494 -2.3920  0.6802 -0.5187
  218DG     H16 5007   1.330   4.745   1.347 -1.2916 -1.3411 -0.1225
  218DG     C17 5008   1.453   4.473   1.679 -0.3351  0.0702 -0.3779
  218DG     C18 5009   1.421   4.630   1.498 -0.1868 -0.0631 -0.4433
  218DG     O19 5010   1.384   4.590   1.631 -0.0977 -0.2684  0.0637
  218DG     H20 5011   1.561   4.483   1.668 -0.2499 -0.7841 -0.3821
  218DG     H21 5012   1.421   4.462   1.782 -1.5917 -0.7941 -0.8239
  218DG     H22 5013   1.414   4.549   1.426  0.2504  0.0966 -0.6675
  218DG     H23 5014   1.522   4.668   1.509 -0.5180  0.6783  0.1240
  219DG      C1 5015   0.161   1.658   1.549 -0.3618  0.2468 -0.4523
  219DG      C2 5016  -0.412   1.347   1.592  0.6394 -0.3526  0.0875
  219DG      H3 5017   0.117   1.757   1.544 -1.1861  0.2362  3.2704
  219DG      H4 5018   0.256   1.639   1.499  0.2097 -0.6518  0.8939
  219DG      H5 5019   0.187   1.670   1.654 -2.4394  0.2976  0.0980
  219DG      H6 5020  -0.418   1.373   1.697 -0.8871 -1.4466  0.2986
  219DG      H7 5021  -0.516   1.331   1.562  0.8175  1.2125 -1.6007
  219DG      H8 5022  -0.353   1.256   1.585  2.8715  0.9559  0.8167
  219DG      O9 5023   0.059   1.569   1.519  0.5303  0.7512 -0.4284
  219DG     O10 5024  -0.352   1.461   1.527  0.3042  0.3685 -0.4302
  219DG     C11 5025   0.055   1.534   1.375 -0.3811 -0.8766 -0.1525
  219DG     C12 5026  -0.363   1.467   1.390 -0.5116 -0.7373  0.2278
  219DG     H13 5027   0.124   1.457   1.340 -1.8005 -1.8833 -0.8721
  219DG     H14 5028   0.076   1.615   1.305  1.6329 -0.0495  1.3335
  219DG     H15 5029  -0.469   1.481   1.366 -0.0567  2.1008 -0.5870
  219DG     H16 5030  -0.338   1.375   1.337 -1.8076  0.3486 -2.4663
  219DG     C17 5031  -0.083   1.489   1.338 -0.8667 -0.8806  0.7469
  219DG     C18 5032  -0.288   1.586   1.335 -0.4369 -0.8559  0.4414
  219DG     O19 5033  -0.161   1.594   1.389 -0.0481  0.3783 -0.0059
  219DG     H20 5034  -0.106   1.389   1.375 -1.5643 -0.6507  0.9558
  219DG     H21 5035  -0.091   1.480   1.230  0.6200 -0.9247  0.6228
  219DG     H22 5036  -0.295   1.588   1.226 -0.6517  0.6281  0.4655
  219DG     H23 5037  -0.346   1.675   1.361 -0.2653 -0.1295 -1.4708
  220DG      C1 5038   0.226   3.321   4.618 -0.4672 -0.0266 -0.7768
  220DG      C2 5039   0.459   3.187   5.269  0.0068 -1.0260  0.5096
  220DG      H3 5040   0.327   3.362   4.621  0.1466 -1.5523  0.6539
  220DG      H4 5041   0.163   3.367   4.541 -2.7436 -1.5457  0.0409
  220DG      H5 5042   0.235   3.216   4.590 -1.9735 -0.8976  1.6701
  220DG      H6 5043   0.495   3.091   5.232  2.0621 -0.2029  0.2008
  220DG      H7 5044   0.533   3.263   5.243 -0.6717 -1.0118 -1.6185
  220DG      H8 5045   0.432   3.183   5.374 -1.1071  2.6734  0.4889
  220DG      O9 5046   0.171   3.330   4.747  0.6190 -0.0568 -0.0746
  220DG     O10 5047   0.344   3.228   5.188 -0.1723 -0.2455 -0.0572
  220DG     C11 5048   0.161   3.465   4.791  0.4412 -0.2858  0.8161
  220DG     C12 5049   0.279   3.346   5.240  0.0278  0.5869 -0.2669
  220DG     H13 5050   0.089   3.521   4.732 -0.4369 -2.4815 -0.3313
  220DG     H14 5051   0.263   3.503   4.783 -0.1023  1.0149 -0.2062
  220DG     H15 5052   0.355   3.423   5.248 -0.3038  0.7028  3.7188
  220DG     H16 5053   0.233   3.321   5.335  0.3575 -0.6971 -0.4189
  220DG     C17 5054   0.115   3.467   4.938  0.3079 -0.5670  0.9979
  220DG     C18 5055   0.169   3.403   5.152  1.0608  0.0614  0.3131
  220DG     O19 5056   0.212   3.404   5.018 -0.2965  0.0022  0.0361
  220DG     H20 5057   0.023   3.408   4.939 -0.8326  1.1437  0.8318
  220DG     H21 5058   0.085   3.570   4.956 -0.0477 -0.2254 -1.1869
  220DG     H22 5059   0.081   3.340   5.152  0.8574  0.2482 -2.2955
  220DG     H23 5060   0.136   3.498   5.195  1.0890 -0.0144  0.5004
  221DG      C1 5061   1.753   3.089   3.217 -0.1212  0.3630  0.6567
  221DG      C2 5062   1.012   2.922   3.475 -0.2738  0.2893 -0.2334
  221DG      H3 5063   1.815   3.041   3.294  1.0982  1.0613  0.1379
  221DG      H4 5064   1.815   3.132   3.139  0.9824 -1.0260  0.7188
  221DG      H5 5065   1.691   3.009   3.177  1.3847 -1.8229  2.4287
  221DG      H6 5066   1.055   2.855   3.550 -1.1774 -0.1539 -0.0996
  221DG      H7 5067   0.933   2.985   3.515  0.2246  1.2409 -0.7000
  221DG      H8 5068   0.970   2.865   3.392 -0.5176  0.6758 -0.3776
  221DG      O9 5069   1.689   3.185   3.292 -1.2272  0.2407  0.2107
  221DG     O10 5070   1.108   3.002   3.411 -0.1918 -0.6680  0.2076
  221DG     C11 5071   1.591   3.134   3.376  0.4677  0.0637 -0.0899
  221DG     C12 5072   1.117   3.140   3.450 -0.0830  0.8909  0.1745
  221DG     H13 5073   1.604   3.204   3.458  0.7367  1.1264 -1.0233
  221DG     H14 5074   1.605   3.034   3.419  0.0633 -0.0742 -0.2669
  221DG     H15 5075   1.137   3.141   3.557  1.0985  1.4419 -0.0359
  221DG     H16 5076   1.025   3.193   3.426  0.0170  2.2977  2.5737
  221DG     C17 5077   1.456   3.152   3.315  0.1639  0.5215 -0.1735
  221DG     C18 5078   1.246   3.196   3.383  0.1151 -0.0266 -0.5456
  221DG     O19 5079   1.356   3.115   3.410 -0.2341 -0.1569 -0.0497
  221DG     H20 5080   1.449   3.092   3.224 -3.8216 -0.3367  0.5401
  221DG     H21 5081   1.456   3.257   3.284 -1.4172  0.3874 -0.7029
  221DG     H22 5082   1.225   3.203   3.276 -1.5398 -1.3941 -0.3597
  221DG     H23 5083   1.272   3.297   3.414 -2.4439  1.5096 -3.0079
  222DG      C1 5084   4.589   1.810   3.026  0.2806  0.2152  0.0340
  222DG      C2 5085   5.116   1.383   3.147 -0.2584 -0.1786 -0.1826
  222DG      H3 5086   4.582   1.888   3.102 -0.5020  0.5042 -0.3256
  222DG      H4 5087   4.550   1.714   3.062  2.2803 -1.2867 -1.5399
  222DG      H5 5088   4.512   1.850   2.960 -0.4501  2.3436  2.0420
  222DG      H6 5089   5.070   1.404   3.243  1.6228 -2.8495  1.4383
  222DG      H7 5090   5.058   1.298   3.112 -1.8874  0.4897  0.7691
  222DG      H8 5091   5.221   1.354   3.154  0.0877  1.4176  2.1519
  222DG      O9 5092   4.717   1.796   2.958  0.0088  0.2590  0.3557
  222DG     O10 5093   5.108   1.496   3.077  0.6401  0.8997  0.5747
  222DG     C11 5094   4.713   1.703   2.857  0.5497 -0.9448  0.3398
  222DG     C12 5095   5.136   1.486   2.934  0.4313  0.1418  0.0701
  222DG     H13 5096   4.633   1.727   2.788  0.2371 -0.5164  0.8426
  222DG     H14 5097   4.688   1.605   2.898  0.8318 -0.0877  2.7174
  222DG     H15 5098   5.100   1.391   2.893  1.4319 -0.1035 -0.2725
  222DG     H16 5099   5.240   1.497   2.904 -0.5536 -0.8797 -4.3878
  222DG     C17 5100   4.853   1.684   2.800  0.9138 -0.4182  0.2071
  222DG     C18 5101   5.058   1.596   2.855  0.2723  0.8450  0.4397
  222DG     O19 5102   4.920   1.591   2.881  0.8487  0.4853  0.1362
  222DG     H20 5103   4.907   1.778   2.787  1.2706 -0.5732  0.5500
  222DG     H21 5104   4.850   1.647   2.697 -0.2617 -1.5920  0.6398
  222DG     H22 5105   5.097   1.695   2.881  0.6556  0.9224 -0.4045
  222DG     H23 5106   5.082   1.580   2.750 -0.5268  1.5286  0.1447
  223DG      C1 5107   2.085   3.375   0.570  0.1652  0.2282 -0.2918
  223DG      C2 5108   2.001   3.862   1.002 -0.4937 -0.2709 -0.7980
  223DG      H3 5109   2.081   3.332   0.470 -0.7388 -2.3641  0.7641
  223DG      H4 5110   1.986   3.357   0.610 -0.3478  2.1490 -0.5802
  223DG      H5 5111   2.153   3.312   0.628 -0.9672 -0.0985  0.7139
  223DG      H6 5112   2.026   3.794   1.083  1.8312  1.5704  0.1720
  223DG      H7 5113   2.008   3.965   1.037  0.4425 -0.1625 -1.2585
  223DG      H8 5114   1.895   3.848   0.981 -0.6843 -0.2063  0.0781
  223DG      O9 5115   2.111   3.518   0.581  0.0619 -0.0146 -0.3882
  223DG     O10 5116   2.081   3.831   0.890 -0.6449  0.3938  0.2846
  223DG     C11 5117   2.248   3.552   0.548  0.0381  0.0384  0.2097
  223DG     C12 5118   2.216   3.874   0.894  0.1165  0.5373  0.6492
  223DG     H13 5119   2.263   3.539   0.441  0.5635 -0.4707  0.3456
  223DG     H14 5120   2.321   3.490   0.600 -0.0949 -0.6968 -0.4607
  223DG     H15 5121   2.267   3.805   0.962  1.7679  0.4109 -0.6530
  223DG     H16 5122   2.226   3.979   0.923  0.7816  0.3087  1.2690
  223DG     C17 5123   2.275   3.692   0.573  0.2269 -0.0726 -0.1589
  223DG     C18 5124   2.276   3.848   0.754  0.0924  0.3995  0.2534
  223DG     O19 5125   2.228   3.724   0.703 -0.3743  0.4384 -0.2208
  223DG     H20 5126   2.234   3.759   0.497  0.9781  1.8692  1.0633
  223DG     H21 5127   2.382   3.711   0.583  0.5419 -0.7723 -1.8077
  223DG     H22 5128   2.249   3.925   0.683 -3.2861 -1.4167 -0.6343
  223DG     H23 5129   2.385   3.840   0.752  0.1490  0.1832  2.0991
  224DG      C1 5130   0.174   3.301   3.504  0.6079  0.2827 -0.5209
  224DG      C2 5131   0.982   3.346   3.690  0.0560 -0.2890  0.1260
  224DG      H3 5132   0.151   3.212   3.563 -2.0825  0.0525 -1.7885
  224DG      H4 5133   0.114   3.298   3.414  0.8840 -1.1617 -0.6808
  224DG      H5 5134   0.146   3.390   3.560  0.3385  0.5642 -1.0982
  224DG      H6 5135   1.034   3.263   3.737 -0.3001  0.0109  1.0718
  224DG      H7 5136   1.039   3.396   3.612 -0.5650 -0.9098 -0.7395
  224DG      H8 5137   0.962   3.422   3.765  0.4500 -0.3715  0.3165
  224DG      O9 5138   0.312   3.315   3.490 -0.1606  0.1321  0.2300
  224DG     O10 5139   0.859   3.305   3.628  0.3955  0.1598 -0.1021
  224DG     C11 5140   0.379   3.199   3.439  0.7920 -0.5887  0.1074
  224DG     C12 5141   0.793   3.414   3.564 -0.0824 -0.1982  0.7401
  224DG     H13 5142   0.331   3.165   3.347  0.2548 -0.1173  0.2072
  224DG     H14 5143   0.383   3.127   3.521  3.8622  2.0937  2.5835
  224DG     H15 5144   0.863   3.487   3.523 -0.5584 -0.7026 -1.1043
  224DG     H16 5145   0.737   3.473   3.635  0.7335  0.7784  0.5985
  224DG     C17 5146   0.517   3.240   3.393  0.5255 -0.3720  0.1729
  224DG     C18 5147   0.701   3.367   3.452  0.5500  0.5166  0.3215
  224DG     O19 5148   0.601   3.283   3.501 -0.0047 -0.0383  0.0063
  224DG     H20 5149   0.512   3.305   3.306  2.0197  0.2167  0.4844
  224DG     H21 5150   0.550   3.140   3.367 -1.5102 -0.5917 -1.8578
  224DG     H22 5151   0.657   3.456   3.405  0.0690  2.0271  3.3732
  224DG     H23 5152   0.759   3.301   3.387  2.1920  1.0556  1.2119
  225DG      C1 5153   3.582   0.634   4.105 -0.1613 -0.4620  0.0411
  225DG      C2 5154   2.832   0.496   4.061 -0.6069 -0.3064  0.5959
  225DG      H3 5155   3.665   0.627   4.175 -0.6349  1.7833  0.9067
  225DG      H4 5156   3.517   0.717   4.133  2.0942  1.0280  1.2273
  225DG      H5 5157   3.624   0.656   4.007 -0.9648 -0.3317 -0.2810
  225DG      H6 5158   2.770   0.581   4.090  0.2538  1.0164 -1.2255
  225DG      H7 5159   2.846   0.515   3.954  0.9064  1.2825  1.0200
  225DG      H8 5160   2.771   0.408   4.079 -1.0962 -0.4762 -1.6058
  225DG      O9 5161   3.502   0.521   4.095  0.3541 -0.8230  0.0170
  225DG     O10 5162   2.950   0.466   4.133  0.0842 -0.2619  0.0794
  225DG     C11 5163   3.470   0.460   4.217  0.4374 -0.1932 -0.1240
  225DG     C12 5164   3.010   0.355   4.074 -0.3692  0.7833  0.5172
  225DG     H13 5165   3.436   0.534   4.290  0.4669 -1.9905  1.8025
  225DG     H14 5166   3.559   0.422   4.267 -0.9695 -2.4667  0.8446
  225DG     H15 5167   3.033   0.376   3.969 -1.0627 -2.0554 -0.2941
  225DG     H16 5168   2.942   0.271   4.065  1.9534 -1.0735 -0.9082
  225DG     C17 5169   3.357   0.360   4.213  0.5332 -0.2665  0.4496
  225DG     C18 5170   3.134   0.305   4.139 -0.3045 -0.7045 -0.2585
  225DG     O19 5171   3.232   0.411   4.147 -0.2658  0.0416  0.5743
  225DG     H20 5172   3.330   0.327   4.313  1.6997  1.7647  1.5056
  225DG     H21 5173   3.385   0.275   4.151  0.2916 -0.5899  0.7802
  225DG     H22 5174   3.113   0.271   4.241 -1.2084  1.3572  0.3055
  225DG     H23 5175   3.181   0.228   4.078  0.2928  0.6576 -1.5752
  226DG      C1 5176   1.486   1.433   0.050  0.0114  0.3531 -0.2942
  226DG      C2 5177   2.200   1.502  -0.277 -0.1848  0.3356  0.4221
  226DG      H3 5178   1.394   1.488   0.067 -1.0527 -2.0602  2.4464
  226DG      H4 5179   1.500   1.349   0.119 -0.8529  0.4330 -0.0172
  226DG      H5 5180   1.484   1.389  -0.050  4.5630  0.3577 -0.6236
  226DG      H6 5181   2.269   1.573  -0.322  1.6920  0.7009  3.5629
  226DG      H7 5182   2.259   1.443  -0.207 -1.1329  0.9587  1.8070
  226DG      H8 5183   2.171   1.440  -0.362 -1.2453  2.5149 -0.8988
  226DG      O9 5184   1.606   1.504   0.063 -0.2097  0.3456  0.3480
  226DG     O10 5185   2.084   1.564  -0.225  0.3165  0.0502  0.2755
  226DG     C11 5186   1.613   1.632  -0.002 -0.0771 -0.2740 -0.5657
  226DG     C12 5187   1.980   1.465  -0.207 -0.8925 -0.6559  0.0226
  226DG     H13 5188   1.561   1.696   0.070  0.2441 -1.9384  1.2269
  226DG     H14 5189   1.564   1.639  -0.099 -3.0249 -1.2518  0.7456
  226DG     H15 5190   2.019   1.387  -0.142  0.2785  0.8415  1.2048
  226DG     H16 5191   1.952   1.423  -0.303 -3.7567 -2.0208  1.3497
  226DG     C17 5192   1.764   1.671  -0.005 -0.4505 -0.0618  0.1640
  226DG     C18 5193   1.845   1.523  -0.170 -0.0061  0.1296 -0.1526
  226DG     O19 5194   1.852   1.567  -0.035 -0.0911  0.6647  0.1082
  226DG     H20 5195   1.779   1.709   0.096  1.5191  0.4590 -0.2898
  226DG     H21 5196   1.777   1.757  -0.070 -1.2229  0.5574  0.8050
  226DG     H22 5197   1.817   1.606  -0.233 -0.9519  0.6806  0.9588
  226DG     H23 5198   1.767   1.448  -0.185 -0.0462  0.0697  0.3243
  227DG      C1 5199   3.062   2.793   1.712  1.3654  0.5780  0.6555
  227DG      C2 5200   2.662   3.498   1.942 -0.3686  0.6758  0.1340
  227DG      H3 5201   3.094   2.735   1.799 -0.8652 -1.9586 -0.0820
  227DG      H4 5202   3.097   2.736   1.627 -1.3994 -1.5026  0.7449
  227DG      H5 5203   2.953   2.780   1.718  1.2963  1.6855  2.4639
  227DG      H6 5204   2.677   3.598   1.981 -0.0985  0.3037  0.9925
  227DG      H7 5205   2.619   3.510   1.842  0.4062 -0.1537 -0.3171
  227DG      H8 5206   2.584   3.451   2.002  0.3320 -1.7698 -0.7595
  227DG      O9 5207   3.106   2.927   1.705  0.4980  0.2506  0.2997
  227DG     O10 5208   2.785   3.417   1.926  0.3594  0.0878 -0.1751
  227DG     C11 5209   3.020   3.021   1.780  0.1029 -0.6790  0.0286
  227DG     C12 5210   2.891   3.463   1.854  0.5620 -0.3034 -0.3147
  227DG     H13 5211   2.987   2.975   1.874 -0.0648 -1.6073 -0.4687
  227DG     H14 5212   2.921   3.028   1.735 -0.1994  0.8957  0.8536
  227DG     H15 5213   2.911   3.565   1.884 -0.0223  0.6071 -2.8049
  227DG     H16 5214   2.854   3.468   1.752 -0.3287  0.2952  0.0356
  227DG     C17 5215   3.086   3.158   1.800 -0.2467  0.2195  0.2029
  227DG     C18 5216   3.023   3.381   1.863  0.6222  0.0488 -0.6158
  227DG     O19 5217   2.980   3.249   1.822  0.4270  0.6199  0.4032
  227DG     H20 5218   3.127   3.187   1.703  3.5085  0.5520  1.7271
  227DG     H21 5219   3.169   3.156   1.870 -0.1686 -2.0619  0.1242
  227DG     H22 5220   3.096   3.415   1.789  0.3532 -1.8047 -1.7777
  227DG     H23 5221   3.073   3.384   1.960 -0.0570 -0.7281 -0.2333
  228DG      C1 5222   4.519   3.952   0.376 -0.5292  0.0841 -0.2233
  228DG      C2 5223   3.977   4.449   0.604 -0.2551  0.1327  0.8278
  228DG      H3 5224   4.596   3.887   0.417  0.5804  0.4823 -1.6144
  228DG      H4 5225   4.560   4.053   0.367 -1.8580  0.7822  1.0596
  228DG      H5 5226   4.491   3.916   0.277 -1.5804 -0.1614  0.1505
  228DG      H6 5227   3.917   4.442   0.513 -0.6178  0.7666  1.0118
  228DG      H7 5228   3.908   4.398   0.673  0.1954  0.4181  1.5002
  228DG      H8 5229   3.987   4.555   0.625  1.2211  0.5919 -1.7967
  228DG      O9 5230   4.402   3.965   0.459 -0.6358 -0.3464 -0.1712
  228DG     O10 5231   4.101   4.391   0.585  0.2821  0.6576  0.1514
  228DG     C11 5232   4.427   3.987   0.598  0.2029 -0.3463 -0.3841
  228DG     C12 5233   4.200   4.409   0.682  1.3016  0.0066 -0.0437
  228DG     H13 5234   4.501   3.917   0.635 -0.3735  0.1168  1.8153
  228DG     H14 5235   4.342   3.941   0.648  2.7910 -2.7210  2.1854
  228DG     H15 5236   4.172   4.370   0.780 -1.3461  2.2320  0.2109
  228DG     H16 5237   4.207   4.514   0.713 -3.8389  1.0422 -1.4292
  228DG     C17 5238   4.442   4.134   0.644 -0.0076  0.0020  0.3986
  228DG     C18 5239   4.336   4.348   0.628 -0.4480 -0.0379  0.1721
  228DG     O19 5240   4.325   4.202   0.612  0.1314  0.1505 -0.0633
  228DG     H20 5241   4.527   4.179   0.595  0.2057 -1.4526 -0.6142
  228DG     H21 5242   4.468   4.141   0.750  1.7723  1.5426 -0.1003
  228DG     H22 5243   4.361   4.391   0.531 -1.4494  0.8967  0.3028
  228DG     H23 5244   4.412   4.368   0.704 -1.6875  3.1436  0.7327
  229DG      C1 5245   5.178   2.533   0.258  0.3323  0.0461  0.0051
  229DG      C2 5246   5.230   3.439   0.300 -1.4390 -0.0076 -0.9399
  229DG      H3 5247   5.131   2.444   0.218 -1.9850  1.3854 -0.4084
  229DG      H4 5248   5.176   2.526   0.367  0.7754  0.1357  0.0220
  229DG      H5 5249   5.281   2.517   0.224 -0.1770 -1.5634 -0.8544
  229DG      H6 5250   5.138   3.490   0.272 -0.7602  0.5388 -2.2390
  229DG      H7 5251   5.275   3.453   0.399 -0.5874 -2.6042 -0.8878
  229DG      H8 5252   5.304   3.479   0.231 -0.9253 -1.5444 -1.3187
  229DG      O9 5253   5.110   2.648   0.211  0.2131  0.3734  0.2065
  229DG     O10 5254   5.227   3.298   0.277 -0.2590 -0.2904 -0.6232
  229DG     C11 5255   5.154   2.766   0.280  0.2155 -0.2035  0.4255
  229DG     C12 5256   5.124   3.241   0.352 -0.1758  0.1657  0.6332
  229DG     H13 5257   5.258   2.777   0.252  0.3708 -1.6194  0.3476
  229DG     H14 5258   5.146   2.758   0.389 -3.7488 -1.1503  0.2244
  229DG     H15 5259   5.046   3.317   0.360  0.6745  1.2963 -1.0852
  229DG     H16 5260   5.158   3.205   0.449  1.8176 -0.0938 -0.1273
  229DG     C17 5261   5.078   2.884   0.234 -0.3307 -0.7073 -0.1234
  229DG     C18 5262   5.059   3.123   0.274  0.8382  0.7099 -0.0289
  229DG     O19 5263   5.131   3.003   0.302  0.0477 -0.5977  0.2765
  229DG     H20 5264   4.970   2.873   0.247 -0.4750  0.3677 -0.3113
  229DG     H21 5265   5.095   2.896   0.127 -0.6078  1.1496  0.0044
  229DG     H22 5266   4.957   3.111   0.310  1.2416 -1.4531  0.5960
  229DG     H23 5267   5.055   3.146   0.168  0.9870 -0.3305 -0.2720
  230DG      C1 5268   2.841   1.659   2.912 -0.9828  0.5219 -0.0890
  230DG      C2 5269   2.711   2.144   2.816  0.7922 -0.0904  0.2581
  230DG      H3 5270   2.768   1.651   2.992 -0.2161 -1.3582  0.4939
  230DG      H4 5271   2.906   1.571   2.920 -0.9392  0.6077  0.5030
  230DG      H5 5272   2.785   1.665   2.819 -1.9247  2.2174  0.5345
  230DG      H6 5273   2.659   2.199   2.737  3.2124 -0.6201 -1.8269
  230DG      H7 5274   2.749   2.064   2.753 -0.5521 -0.7191  0.2092
  230DG      H8 5275   2.634   2.109   2.885 -0.7813 -1.1866 -1.9178
  230DG      O9 5276   2.921   1.775   2.939  0.0728 -0.0469  0.1430
  230DG     O10 5277   2.811   2.236   2.880 -0.2270  0.5761 -0.1296
  230DG     C11 5278   3.033   1.789   2.852 -0.1544 -0.3492  0.4320
  230DG     C12 5279   2.933   2.253   2.812  0.4149 -0.2259  0.2821
  230DG     H13 5280   3.014   1.782   2.745  0.9876 -1.1032  0.2597
  230DG     H14 5281   3.096   1.702   2.873 -2.9517 -1.9366  3.3324
  230DG     H15 5282   2.973   2.351   2.835  0.6862 -0.1758 -0.3749
  230DG     H16 5283   2.913   2.252   2.705  0.1165 -1.6171  0.3306
  230DG     C17 5284   3.092   1.929   2.880  0.1176  0.2122  0.5794
  230DG     C18 5285   3.041   2.154   2.857  0.0925 -0.2246 -0.1515
  230DG     O19 5286   2.994   2.027   2.840 -0.1000  0.1573  0.4765
  230DG     H20 5287   3.177   1.942   2.813 -2.3294  1.5335 -2.5830
  230DG     H21 5288   3.124   1.928   2.984  0.1713  1.6574  0.5991
  230DG     H22 5289   3.133   2.183   2.805  0.3651 -1.0473 -0.1517
  230DG     H23 5290   3.048   2.171   2.964  2.3264 -3.8485  0.4625
  231DG      C1 5291   1.046   4.160   4.559 -0.4068 -0.3794 -0.0478
  231DG      C2 5292   0.815   3.866   3.924 -0.1078  0.7843  0.0261
  231DG      H3 5293   1.098   4.244   4.603  1.5096 -1.3306 -0.3887
  231DG      H4 5294   1.063   4.081   4.632  2.4584  0.4005  0.2171
  231DG      H5 5295   0.939   4.181   4.552 -0.8263 -1.9078  1.1549
  231DG      H6 5296   0.708   3.864   3.946 -0.4325  0.4227 -1.4654
  231DG      H7 5297   0.819   3.877   3.815 -0.6938 -2.8561 -0.5127
  231DG      H8 5298   0.859   3.770   3.950  0.8140  0.9851 -0.7397
  231DG      O9 5299   1.107   4.117   4.437  0.5006  0.3158 -0.0316
  231DG     O10 5300   0.893   3.968   3.979 -0.2476 -0.1156 -0.0256
  231DG     C11 5301   1.057   3.996   4.383  0.3827 -0.0552  0.0115
  231DG     C12 5302   1.022   3.960   3.944 -0.7250  0.0571  0.5763
  231DG     H13 5303   0.949   4.004   4.372  0.1142  0.7420  2.5802
  231DG     H14 5304   1.071   3.914   4.454 -1.5017 -0.3264  0.1046
  231DG     H15 5305   1.023   3.985   3.838  1.0739  1.5548  0.9026
  231DG     H16 5306   1.061   3.858   3.952  0.4369  0.3970 -0.4743
  231DG     C17 5307   1.118   3.968   4.243  0.0225 -0.1476 -0.5330
  231DG     C18 5308   1.125   4.051   4.023 -0.1383  0.2409  0.2763
  231DG     O19 5309   1.088   4.072   4.159  0.4608  0.0634 -0.2804
  231DG     H20 5310   1.061   3.883   4.205 -0.1670 -0.0599 -0.4454
  231DG     H21 5311   1.224   3.943   4.248  0.1668  0.4343 -0.6391
  231DG     H22 5312   1.226   4.012   4.013  0.2986  1.7540 -1.9577
  231DG     H23 5313   1.124   4.147   3.970  1.8128 -1.0443 -2.3031
  232DG      C1 5314   2.087   4.824   3.468 -0.2200  0.8565  0.0730
  232DG      C2 5315   1.351   5.141   3.427 -0.6644  0.2460 -0.1711
  232DG      H3 5316   2.043   4.782   3.559 -0.5239 -2.0553 -1.2944
  232DG      H4 5317   2.195   4.808   3.469 -0.3319  0.0475  0.7469
  232DG      H5 5318   2.036   4.771   3.388 -0.4360  0.6060  0.3706
  232DG      H6 5319   1.296   5.077   3.357 -1.4090 -0.1099  0.7026
  232DG      H7 5320   1.287   5.155   3.514  0.7726  0.8174  0.8181
  232DG      H8 5321   1.373   5.233   3.374  0.0644  0.2552  0.1368
  232DG      O9 5322   2.050   4.954   3.449  0.2587  0.5777  0.3742
  232DG     O10 5323   1.474   5.086   3.464  0.3416  0.5454  0.4539
  232DG     C11 5324   1.910   4.980   3.465  0.2079  0.9325 -0.7909
  232DG     C12 5325   1.526   5.168   3.570 -0.4535  0.3037  0.3612
  232DG     H13 5326   1.872   4.938   3.558  2.8318  1.5122  0.6229
  232DG     H14 5327   1.870   4.922   3.382  0.9039 -2.6417  1.1585
  232DG     H15 5328   1.490   5.147   3.671 -0.1989 -1.9258  0.0458
  232DG     H16 5329   1.495   5.271   3.555  2.0568  1.3342  1.7825
  232DG     C17 5330   1.877   5.123   3.451  0.3364  0.1353 -0.1542
  232DG     C18 5331   1.679   5.155   3.579 -0.2169  0.2170 -0.2108
  232DG     O19 5332   1.742   5.145   3.452 -0.2346  0.1018  0.0614
  232DG     H20 5333   1.914   5.160   3.355  0.5568 -0.4472 -0.2996
  232DG     H21 5334   1.921   5.183   3.530 -0.3299  2.3478 -1.3708
  232DG     H22 5335   1.719   5.235   3.640 -2.0174 -0.6753  2.3430
  232DG     H23 5336   1.699   5.060   3.629 -0.3788 -0.2545 -1.0244
  233DG      C1 5337   3.791   4.359   1.811 -0.2232 -0.1847 -0.2137
  233DG      C2 5338   3.878   4.936   2.180 -0.0932 -0.7337 -0.3771
  233DG      H3 5339   3.810   4.252   1.806  2.1220  0.0786  1.4199
  233DG      H4 5340   3.865   4.414   1.753  1.4368 -1.2310  0.8487
  233DG      H5 5341   3.694   4.373   1.762  1.4329  0.6537 -3.5745
  233DG      H6 5342   3.965   4.955   2.243  1.3468 -0.1625 -2.4260
  233DG      H7 5343   3.898   4.986   2.086 -1.0007  1.9376  0.7591
  233DG      H8 5344   3.792   4.989   2.220 -0.7153 -0.4606 -2.0270
  233DG      O9 5345   3.787   4.419   1.943 -0.0938 -0.6729  0.5129
  233DG     O10 5346   3.856   4.790   2.179  0.0036 -0.0180 -0.0702
  233DG     C11 5347   3.856   4.329   2.037  0.2044 -0.0799 -0.1956
  233DG     C12 5348   3.860   4.731   2.309 -0.4644  0.3582  0.3255
  233DG     H13 5349   3.964   4.331   2.029  0.4594 -0.1580  2.4877
  233DG     H14 5350   3.827   4.224   2.033 -1.3142  0.3402 -1.1291
  233DG     H15 5351   3.812   4.789   2.388 -0.0474  0.8103  0.2433
  233DG     H16 5352   3.966   4.725   2.333 -0.3357  1.3623  0.0517
  233DG     C17 5353   3.832   4.383   2.177  0.0784  0.4709  0.3311
  233DG     C18 5354   3.808   4.584   2.301 -0.1442  0.6449  0.6715
  233DG     O19 5355   3.851   4.523   2.178 -0.1345 -0.3583  0.6282
  233DG     H20 5356   3.893   4.328   2.249 -2.0027  0.1508  1.9398
  233DG     H21 5357   3.728   4.360   2.203  0.6149 -2.8479 -0.0065
  233DG     H22 5358   3.845   4.521   2.382  0.8034 -2.0726 -1.7076
  233DG     H23 5359   3.699   4.580   2.295 -0.1238 -0.3268  0.7531
  234DG      C1 5360   0.658   0.655   5.288  0.4013  0.2748 -0.0021
  234DG      C2 5361  -0.015   0.661   4.871 -0.2827 -0.2928 -0.1554
  234DG      H3 5362   0.667   0.578   5.366 -0.5639 -1.5539 -1.6063
  234DG      H4 5363   0.595   0.733   5.331 -1.5035 -1.2968  0.2263
  234DG      H5 5364   0.751   0.698   5.252  0.1596  0.8975  0.1163
  234DG      H6 5365  -0.051   0.633   4.970  0.3578 -2.0129 -0.3783
  234DG      H7 5366  -0.032   0.768   4.854 -0.0809 -0.3209 -0.5479
  234DG      H8 5367  -0.073   0.606   4.798 -1.2908  0.5727 -0.0290
  234DG      O9 5368   0.577   0.601   5.182  0.2941  0.6005  0.2055
  234DG     O10 5369   0.128   0.636   4.862 -0.7605 -0.4051 -0.5292
  234DG     C11 5370   0.445   0.570   5.228  0.7060  1.0209  0.1907
  234DG     C12 5371   0.163   0.495   4.888  0.1984  0.8430  0.2551
  234DG     H13 5372   0.391   0.664   5.239 -1.4148  0.4925 -3.7104
  234DG     H14 5373   0.444   0.531   5.329 -1.0058 -1.6301 -0.7241
  234DG     H15 5374   0.117   0.426   4.817  1.8764 -1.4951  1.2939
  234DG     H16 5375   0.131   0.466   4.988 -2.3240  1.2032 -0.3890
  234DG     C17 5376   0.378   0.480   5.133 -0.4845  0.0814  0.8197
  234DG     C18 5377   0.317   0.482   4.882 -0.9430 -0.3120  0.3068
  234DG     O19 5378   0.377   0.546   5.003 -0.0435  0.0408  0.1287
  234DG     H20 5379   0.272   0.463   5.152 -0.4473  0.3529  1.2966
  234DG     H21 5380   0.435   0.388   5.123  0.4301  0.8503 -1.7531
  234DG     H22 5381   0.350   0.379   4.865 -0.7963  0.0567 -1.8551
  234DG     H23 5382   0.361   0.525   4.792 -0.3934 -0.4634  0.5026
  235DG      C1 5383   0.319   5.456   3.305 -0.5335 -0.0969  0.3756
  235DG      C2 5384  -0.321   5.280   3.455 -0.0395 -0.3608  0.2649
  235DG      H3 5385   0.419   5.437   3.267 -0.3587 -0.4891  1.0213
  235DG      H4 5386   0.327   5.539   3.375  0.0315  1.9373 -1.9701
  235DG      H5 5387   0.254   5.494   3.226 -0.5033 -1.0131 -0.1051
  235DG      H6 5388  -0.398   5.307   3.384 -0.2504  0.5745  0.8434
  235DG      H7 5389  -0.231   5.255   3.398  1.1673  1.1534  1.4342
  235DG      H8 5390  -0.347   5.196   3.520  0.4555  0.8111  2.0348
  235DG      O9 5391   0.272   5.328   3.342 -0.2750  0.1967 -0.2006
  235DG     O10 5392  -0.295   5.400   3.523  0.2829  0.4217 -0.4163
  235DG     C11 5393   0.138   5.321   3.391  0.1647  0.1205  0.5101
  235DG     C12 5394  -0.243   5.381   3.649 -0.7910  0.7840 -0.3308
  235DG     H13 5395   0.130   5.216   3.418 -1.4791  0.0976  0.0414
  235DG     H14 5396   0.068   5.341   3.310  1.1103  0.7810 -0.1663
  235DG     H15 5397  -0.245   5.278   3.684  1.6963  1.0591  0.8655
  235DG     H16 5398  -0.302   5.434   3.723 -0.8195 -2.1865  1.9689
  235DG     C17 5399   0.099   5.407   3.513 -0.4601  0.5690  0.3569
  235DG     C18 5400  -0.101   5.437   3.647 -0.0160 -0.2672 -0.1552
  235DG     O19 5401  -0.038   5.362   3.548  0.3627  0.2041  0.3357
  235DG     H20 5402   0.110   5.514   3.498  3.7477  1.0588  4.5495
  235DG     H21 5403   0.166   5.373   3.592  0.6643  1.7614 -0.0546
  235DG     H22 5404  -0.107   5.541   3.614 -1.2053 -0.5102 -0.7718
  235DG     H23 5405  -0.046   5.426   3.740 -2.8689  1.1775  1.8544
  236DG      C1 5406   3.907   3.939   2.406  0.4120 -0.6161 -0.6169
  236DG      C2 5407   3.782   3.764   3.001 -0.5327  0.4807  0.0273
  236DG      H3 5408   3.982   3.978   2.337  1.5690 -1.8583 -0.1105
  236DG      H4 5409   3.821   4.005   2.404  1.0774  0.3961  1.3372
  236DG      H5 5410   3.874   3.838   2.380  0.7745 -0.3236 -2.3363
  236DG      H6 5411   3.849   3.680   3.015  0.1255  0.4896 -2.5321
  236DG      H7 5412   3.750   3.822   3.088 -0.8243  1.5498 -0.7616
  236DG      H8 5413   3.688   3.720   2.967 -1.3995  2.7800 -0.7617
  236DG      O9 5414   3.955   3.926   2.537 -0.3037  0.2123  0.3144
  236DG     O10 5415   3.812   3.866   2.909 -0.1689  1.1722 -0.2112
  236DG     C11 5416   4.104   3.929   2.549 -0.6913 -0.0339  0.1471
  236DG     C12 5417   3.933   3.934   2.940  0.5389  0.0621  0.1584
  236DG     H13 5418   4.149   4.019   2.506  0.4021 -1.3532 -1.5758
  236DG     H14 5419   4.144   3.840   2.500  0.0024  0.3987 -0.0960
  236DG     H15 5420   3.926   3.973   3.042  0.5060  0.8658 -0.1422
  236DG     H16 5421   3.929   4.027   2.883  1.1859  0.0804  0.1385
  236DG     C17 5422   4.137   3.936   2.702 -0.8698  0.1465  0.4183
  236DG     C18 5423   4.059   3.856   2.911 -0.5697 -0.0442 -0.1089
  236DG     O19 5424   4.096   3.822   2.776 -0.2202 -0.4026 -0.2569
  236DG     H20 5425   4.094   4.031   2.734 -1.2400  0.0065  0.3317
  236DG     H21 5426   4.245   3.945   2.720 -0.7977 -1.5025  0.9293
  236DG     H22 5427   4.141   3.921   2.940 -2.5895  2.4003  0.4841
  236DG     H23 5428   4.060   3.770   2.978 -3.0297  0.7335  1.0490
  237DG      C1 5429   4.432   5.185   3.365  0.7309 -0.7333  0.0500
  237DG      C2 5430   4.878   5.315   3.929  0.3808 -0.6860 -0.2761
  237DG      H3 5431   4.408   5.195   3.259 -0.6846  0.2841  0.4214
  237DG      H4 5432   4.353   5.238   3.419 -0.6849 -2.3612 -0.3550
  237DG      H5 5433   4.424   5.086   3.410  1.3355  0.0877  2.0873
  237DG      H6 5434   4.852   5.216   3.968  0.3628 -0.6437 -0.1808
  237DG      H7 5435   4.984   5.337   3.930  0.0692  1.0550  2.0715
  237DG      H8 5436   4.849   5.382   4.009  0.2764 -0.5975 -0.3885
  237DG      O9 5437   4.546   5.257   3.409 -0.0978 -0.5091  0.0264
  237DG     O10 5438   4.807   5.346   3.812  0.5119  0.0199 -0.4531
  237DG     C11 5439   4.657   5.234   3.321 -0.1495  0.6097  0.2144
  237DG     C12 5440   4.860   5.279   3.704 -0.2433  0.6182  0.2173
  237DG     H13 5441   4.626   5.267   3.221  0.6085 -0.4692 -0.3989
  237DG     H14 5442   4.685   5.129   3.324 -2.0495  0.0390 -0.5831
  237DG     H15 5443   4.860   5.170   3.709  0.8218  0.4529 -1.9989
  237DG     H16 5444   4.966   5.303   3.692 -0.1153 -0.6279 -1.5838
  237DG     C17 5445   4.782   5.315   3.356  0.3656  0.2869 -0.3061
  237DG     C18 5446   4.793   5.337   3.583 -0.4347 -0.2500 -0.4675
  237DG     O19 5447   4.844   5.263   3.473  0.5845  0.5206 -0.3176
  237DG     H20 5448   4.748   5.418   3.362 -3.1321 -0.7646  0.2250
  237DG     H21 5449   4.850   5.308   3.271  0.8240 -0.6092  0.1254
  237DG     H22 5450   4.685   5.328   3.590 -0.4127 -1.0144 -1.0720
  237DG     H23 5451   4.811   5.445   3.590 -0.2975 -0.3488  0.9999
  238DG      C1 5452   1.683   3.898   4.791 -0.2478 -0.5085 -0.3433
  238DG      C2 5453   1.313   3.885   5.491  0.5606  0.1403  0.4530
  238DG      H3 5454   1.783   3.873   4.755 -1.0284 -3.4863 -0.7669
  238DG      H4 5455   1.645   3.978   4.727  0.0876  1.9777  2.3957
  238DG      H5 5456   1.625   3.808   4.767  0.8583 -1.6033  0.8972
  238DG      H6 5457   1.317   3.917   5.595 -0.2055 -0.7357  0.7714
  238DG      H7 5458   1.240   3.937   5.430 -1.8001  1.1009  3.8156
  238DG      H8 5459   1.279   3.782   5.500  0.3179 -0.0360 -1.8378
  238DG      O9 5460   1.681   3.932   4.928  0.3570  0.3214 -0.9788
  238DG     O10 5461   1.431   3.868   5.417  0.1080 -0.2076 -0.0320
  238DG     C11 5462   1.717   3.829   5.015 -0.4923  0.1195  0.0872
  238DG     C12 5463   1.516   3.978   5.432 -0.3576 -0.2979  0.3523
  238DG     H13 5464   1.809   3.779   4.983  0.0754 -0.9281  3.0331
  238DG     H14 5465   1.628   3.767   5.018 -2.0977  2.3163  0.0184
  238DG     H15 5466   1.542   3.997   5.536 -1.2103 -2.7821  1.0890
  238DG     H16 5467   1.470   4.065   5.385  1.8934  0.8199  0.0709
  238DG     C17 5468   1.741   3.875   5.164 -0.0613  0.1833  0.3306
  238DG     C18 5469   1.647   3.943   5.362 -0.2494 -0.3455  0.2073
  238DG     O19 5470   1.623   3.906   5.230 -0.3020 -0.3565  0.1923
  238DG     H20 5471   1.819   3.951   5.166  1.2305 -1.1092  1.0287
  238DG     H21 5472   1.784   3.783   5.204 -0.1721  0.1928  0.4743
  238DG     H22 5473   1.715   4.028   5.365 -1.0427  0.2819  1.2061
  238DG     H23 5474   1.700   3.864   5.415 -1.1552 -1.6787 -0.7930
  239DG      C1 5475   1.549   3.716   4.487  0.1090 -0.1356 -0.5105
  239DG      C2 5476   1.573   4.536   4.407  0.1595 -0.0933  0.4080
  239DG      H3 5477   1.605   3.696   4.579 -0.7467 -0.0722  0.0423
  239DG      H4 5478   1.565   3.636   4.415  1.4314 -2.0609  1.7709
  239DG      H5 5479   1.445   3.726   4.516 -0.2525  0.0077 -1.7985
  239DG      H6 5480   1.620   4.531   4.505 -1.2754  2.0490  1.2693
  239DG      H7 5481   1.635   4.595   4.339 -0.2823 -2.1084 -1.8686
  239DG      H8 5482   1.479   4.587   4.429 -0.3406 -1.0989  0.6876
  239DG      O9 5483   1.594   3.844   4.445  0.0646  0.2342 -0.2095
  239DG     O10 5484   1.541   4.405   4.345  0.6556 -0.1191 -0.0311
  239DG     C11 5485   1.512   3.889   4.337  0.8671 -0.1097  0.4940
  239DG     C12 5486   1.478   4.325   4.439  0.2042 -0.2824 -0.7681
  239DG     H13 5487   1.410   3.904   4.374  0.1456  0.6304 -1.6527
  239DG     H14 5488   1.520   3.811   4.261  1.2885  1.0186 -0.6623
  239DG     H15 5489   1.394   4.384   4.475  0.0647 -1.3066  0.7342
  239DG     H16 5490   1.548   4.309   4.521  1.2849  0.0648 -1.6083
  239DG     C17 5491   1.563   4.018   4.269  0.1565 -0.1211 -0.0635
  239DG     C18 5492   1.432   4.194   4.381 -0.5734 -0.0820  0.4672
  239DG     O19 5493   1.564   4.136   4.349 -0.5650  0.4501  0.3367
  239DG     H20 5494   1.512   4.047   4.177  0.8777 -1.0694 -0.7901
  239DG     H21 5495   1.666   4.003   4.234  0.3169 -0.3130  0.4771
  239DG     H22 5496   1.378   4.132   4.453  0.4291  0.0718  1.3833
  239DG     H23 5497   1.363   4.205   4.298  0.4202  2.1871 -0.1383
  240DG      C1 5498   0.370   1.182   2.203  0.3517 -0.2752  0.5713
  240DG      C2 5499   0.910   0.779   1.936  0.6796 -0.6108  0.3415
  240DG      H3 5500   0.409   1.277   2.168  0.9662 -0.5880  0.3856
  240DG      H4 5501   0.270   1.179   2.246 -0.0176 -0.9696 -0.3031
  240DG      H5 5502   0.362   1.116   2.116 -0.8666 -0.2218  0.6172
  240DG      H6 5503   1.008   0.747   1.973  1.8058 -0.1809 -2.0672
  240DG      H7 5504   0.845   0.709   1.988  0.6883 -1.9402 -1.3693
  240DG      H8 5505   0.893   0.776   1.829  0.0243 -1.5342  0.4572
  240DG      O9 5506   0.465   1.123   2.292  0.0927  0.1231  0.2917
  240DG     O10 5507   0.898   0.921   1.959 -0.0489  0.3858  0.5608
  240DG     C11 5508   0.465   0.974   2.293 -0.0935 -0.1011 -0.1478
  240DG     C12 5509   0.858   0.955   2.091  0.0152 -0.4126  0.0611
  240DG     H13 5510   0.444   0.935   2.193 -1.2876  0.5017 -0.1554
  240DG     H14 5511   0.391   0.934   2.363  1.5016 -1.3650  0.8795
  240DG     H15 5512   0.873   1.063   2.090 -1.0995 -0.2493 -0.2879
  240DG     H16 5513   0.930   0.920   2.164  0.0993 -0.3401  0.0130
  240DG     C17 5514   0.597   0.917   2.343 -1.2367 -0.5600 -0.0219
  240DG     C18 5515   0.713   0.942   2.136  0.1826  0.7920 -0.7260
  240DG     O19 5516   0.703   0.972   2.269  0.1245 -0.0309 -0.2036
  240DG     H20 5517   0.606   0.809   2.341 -0.0567 -0.4738 -1.1571
  240DG     H21 5518   0.620   0.949   2.444 -2.0614 -0.0765  0.0224
  240DG     H22 5519   0.643   1.003   2.078 -2.0099 -0.5867  0.3205
  240DG     H23 5520   0.678   0.840   2.118  2.4364  0.0103 -0.9343
  241DG      C1 5521   2.869   1.072   3.755 -0.5222 -0.3021  0.0341
  241DG      C2 5522   2.275   1.318   3.936 -0.4405  0.4448  0.9562
  241DG      H3 5523   2.798   1.036   3.681 -0.0614  1.1014 -1.1225
  241DG      H4 5524   2.959   1.011   3.766 -0.0444  0.4935  0.5726
  241DG      H5 5525   2.905   1.171   3.728 -0.9842 -0.0902  0.1767
  241DG      H6 5526   2.228   1.254   3.861  2.4129  0.5938 -1.1441
  241DG      H7 5527   2.206   1.336   4.018 -0.5532 -1.9395  1.4685
  241DG      H8 5528   2.282   1.411   3.879 -2.2658 -0.6175 -1.1836
  241DG      O9 5529   2.790   1.071   3.881 -0.1454 -0.0968  0.0391
  241DG     O10 5530   2.396   1.255   3.981 -0.0553  0.1971 -0.0980
  241DG     C11 5531   2.857   1.134   3.986  1.2401  0.2561 -0.3422
  241DG     C12 5532   2.440   1.305   4.106  1.2244 -0.4778 -0.6986
  241DG     H13 5533   2.892   1.234   3.962  0.9982  0.5475  0.4676
  241DG     H14 5534   2.947   1.073   4.000  1.1932  0.6323  1.9355
  241DG     H15 5535   2.354   1.302   4.173  0.2074 -1.6600 -1.9772
  241DG     H16 5536   2.451   1.413   4.100  0.2475 -0.2787  0.7510
  241DG     C17 5537   2.774   1.139   4.108 -0.3379 -0.9154  0.8593
  241DG     C18 5538   2.559   1.234   4.157 -0.3193 -0.0467  0.2166
  241DG     O19 5539   2.657   1.202   4.053  0.2043 -0.1368 -0.6481
  241DG     H20 5540   2.819   1.216   4.172  1.2934  0.8596 -2.1821
  241DG     H21 5541   2.768   1.042   4.157  2.3748 -0.3714  2.5280
  241DG     H22 5542   2.605   1.304   4.226 -0.2962  0.4622 -0.3126
  241DG     H23 5543   2.528   1.151   4.221 -1.3152 -0.0982 -0.3078
  242DG      C1 5544   0.445   5.075   2.705  0.2387  0.2016  0.3419
  242DG      C2 5545   0.257   4.790   3.234  0.0885 -0.5712  0.4982
  242DG      H3 5546   0.489   5.152   2.641 -1.3500  1.0305  0.2138
  242DG      H4 5547   0.339   5.066   2.684  0.5029 -0.1465 -0.9108
  242DG      H5 5548   0.483   4.974   2.689  0.1334  0.1026  0.7138
  242DG      H6 5549   0.221   4.784   3.337 -1.4765 -1.0181 -0.0533
  242DG      H7 5550   0.173   4.772   3.166 -0.1744  1.2095  0.3081
  242DG      H8 5551   0.331   4.711   3.220  0.8440  0.2579 -0.3126
  242DG      O9 5552   0.454   5.110   2.844  0.0188 -0.3591 -0.0448
  242DG     O10 5553   0.314   4.921   3.200 -0.1200  0.0812  0.8232
  242DG     C11 5554   0.581   5.161   2.874  0.1446 -0.5835  0.0582
  242DG     C12 5555   0.425   4.956   3.275 -0.5290  0.6100 -0.0192
  242DG     H13 5556   0.602   5.255   2.822 -3.0574  0.2209  0.0194
  242DG     H14 5557   0.651   5.081   2.850  0.4638 -0.5190  0.7523
  242DG     H15 5558   0.495   4.874   3.288  0.3290  1.6696  2.9746
  242DG     H16 5559   0.387   4.974   3.375 -1.1562 -0.5659 -0.0299
  242DG     C17 5560   0.599   5.189   3.025 -0.0915 -0.3556  0.1864
  242DG     C18 5561   0.505   5.080   3.228 -0.0805  0.0434 -0.1877
  242DG     O19 5562   0.529   5.074   3.085 -1.1325 -0.0958 -1.0958
  242DG     H20 5563   0.550   5.283   3.050  0.8367 -0.1092  1.1072
  242DG     H21 5564   0.702   5.198   3.058  0.1519 -1.0648 -0.3406
  242DG     H22 5565   0.443   5.161   3.266  0.6754  0.2371  0.6553
  242DG     H23 5566   0.602   5.085   3.278  0.0971 -0.4625 -0.4635
  243DG      C1 5567   2.318   0.529   0.004 -0.0934 -0.4845  0.2171
  243DG      C2 5568   2.912   0.764  -0.261  0.2952  0.0138  0.2641
  243DG      H3 5569   2.323   0.637  -0.010 -1.6820 -0.5215 -0.8746
  243DG      H4 5570   2.266   0.508   0.097  0.7488 -2.6317  0.2396
  243DG      H5 5571   2.253   0.491  -0.075 -0.9531  1.4871 -0.1023
  243DG      H6 5572   3.018   0.788  -0.248  0.2734  0.9901 -1.0460
  243DG      H7 5573   2.903   0.719  -0.360 -0.8020  0.1245  0.3058
  243DG      H8 5574   2.861   0.860  -0.254  1.1218  0.6519 -1.6555
  243DG      O9 5575   2.450   0.477   0.005 -0.2924  0.2519  0.1630
  243DG     O10 5576   2.862   0.674  -0.168  0.2494  0.2163  0.7234
  243DG     C11 5577   2.546   0.541   0.082  0.1254 -0.2018 -0.7431
  243DG     C12 5578   2.937   0.555  -0.148 -0.4860  0.1656  0.1023
  243DG     H13 5579   2.516   0.557   0.185 -1.2758  0.2792 -1.2031
  243DG     H14 5580   2.562   0.639   0.038  1.3943  0.0489  0.2370
  243DG     H15 5581   3.044   0.575  -0.136 -0.4171 -0.5743  0.8192
  243DG     H16 5582   2.932   0.498  -0.240  0.1860  0.3016 -0.0254
  243DG     C17 5583   2.679   0.462   0.086 -0.3531 -0.5924  0.2682
  243DG     C18 5584   2.886   0.471  -0.034 -0.5619  0.3965 -0.1176
  243DG     O19 5585   2.745   0.478  -0.040 -0.1713 -0.0148  0.5917
  243DG     H20 5586   2.655   0.356   0.097  1.7735 -0.9133  2.9389
  243DG     H21 5587   2.742   0.489   0.172 -1.3062  2.2087  0.1538
  243DG     H22 5588   2.935   0.373  -0.035  0.0843  0.7027  0.6088
  243DG     H23 5589   2.918   0.518   0.058  0.1267 -0.4678  0.0993
  244DG      C1 5590   2.300   3.035   0.346 -0.0305 -0.2739 -0.2829
  244DG      C2 5591   2.103   2.469   0.607  0.2730 -0.3495  0.7469
  244DG      H3 5592   2.352   3.008   0.254  1.4229 -0.6081  0.5890
  244DG      H4 5593   2.364   3.011   0.431 -0.9948  2.0152  1.2056
  244DG      H5 5594   2.279   3.142   0.342  2.5883  0.3852  0.7567
  244DG      H6 5595   2.172   2.394   0.568 -2.8744 -2.5037 -1.1909
  244DG      H7 5596   2.141   2.570   0.620  1.5550 -0.8219  0.7718
  244DG      H8 5597   2.052   2.434   0.696 -2.1052 -0.0897 -0.4162
  244DG      O9 5598   2.184   2.950   0.367  0.1016 -0.1247  0.4836
  244DG     O10 5599   2.008   2.479   0.501  0.6299  0.2547  0.0522
  244DG     C11 5600   2.212   2.811   0.328  0.2344 -0.2323 -0.9937
  244DG     C12 5601   1.892   2.557   0.533  0.2709 -0.7844 -0.3510
  244DG     H13 5602   2.272   2.784   0.414 -0.9967 -1.4504 -0.4886
  244DG     H14 5603   2.281   2.799   0.245  1.7590 -3.6723  0.5959
  244DG     H15 5604   1.897   2.616   0.625  1.5137  0.8916 -1.4324
  244DG     H16 5605   1.807   2.489   0.539 -1.3530  1.2747  2.6387
  244DG     C17 5606   2.085   2.728   0.302 -0.0272 -0.1132  0.1168
  244DG     C18 5607   1.890   2.654   0.411  0.4663  0.5398  0.6267
  244DG     O19 5608   2.006   2.734   0.417 -0.9193 -0.5317 -0.0376
  244DG     H20 5609   2.120   2.627   0.280  1.5218  0.2535  0.7891
  244DG     H21 5610   2.039   2.768   0.211  0.0953 -1.2477 -0.4716
  244DG     H22 5611   1.889   2.593   0.321  0.3343  0.3244  0.7739
  244DG     H23 5612   1.797   2.711   0.410 -1.4026 -2.2665 -1.2048
  245DG      C1 5613   1.266   4.776   0.735  0.0047  0.0741  0.2994
  245DG      C2 5614   1.737   4.368   1.264  0.0622  0.2930 -0.3643
  245DG      H3 5615   1.234   4.874   0.768 -3.4903 -0.1640 -1.9088
  245DG      H4 5616   1.183   4.746   0.671  0.4178 -0.1994 -0.1150
  245DG      H5 5617   1.352   4.784   0.668 -1.8786  0.5052 -2.1969
  245DG      H6 5618   1.763   4.346   1.161 -1.6741  0.3140 -0.8444
  245DG      H7 5619   1.772   4.465   1.301 -0.1046  0.9644 -1.9098
  245DG      H8 5620   1.768   4.298   1.341 -1.2678  0.9893  0.8725
  245DG      O9 5621   1.297   4.687   0.839 -0.0775 -0.5010 -0.1270
  245DG     O10 5622   1.593   4.371   1.273 -0.5305 -0.2108  0.5242
  245DG     C11 5623   1.193   4.668   0.935 -0.5668 -0.2473  0.0859
  245DG     C12 5624   1.546   4.472   1.179 -0.1760  0.4933 -0.5655
  245DG     H13 5625   1.096   4.662   0.886  0.0484 -1.3915 -1.0573
  245DG     H14 5626   1.196   4.752   1.005  2.0513  1.7150 -2.1551
  245DG     H15 5627   1.593   4.469   1.081  0.7537  0.5863 -0.1392
  245DG     H16 5628   1.555   4.576   1.210 -2.4562  1.3580 -2.4893
  245DG     C17 5629   1.226   4.543   1.014 -0.8988  0.5966 -0.4576
  245DG     C18 5630   1.396   4.448   1.154 -0.4537 -0.3366 -0.0839
  245DG     O19 5631   1.360   4.551   1.061  0.0185 -0.0169 -0.1833
  245DG     H20 5632   1.218   4.453   0.953 -3.1423 -0.0684  0.7113
  245DG     H21 5633   1.155   4.528   1.096 -0.3599  1.0220  0.0970
  245DG     H22 5634   1.396   4.348   1.109 -0.3966 -1.0643  1.4620
  245DG     H23 5635   1.336   4.449   1.246 -1.4602  3.8313 -0.5916
  246DG      C1 5636   2.679   2.291   3.178  0.3653 -0.1847  1.0059
  246DG      C2 5637   3.414   2.873   3.207  0.3124 -0.2694 -0.7528
  246DG      H3 5638   2.652   2.358   3.096 -1.9898 -3.0254 -0.7614
  246DG      H4 5639   2.586   2.275   3.232  1.2730 -0.8126  2.4353
  246DG      H5 5640   2.694   2.188   3.146  0.0838  0.1224 -0.1702
  246DG      H6 5641   3.523   2.867   3.211  0.2662 -0.7691  0.2805
  246DG      H7 5642   3.380   2.878   3.104 -0.9634 -2.0755 -0.4797
  246DG      H8 5643   3.392   2.958   3.271  1.9685 -0.3248 -0.0654
  246DG      O9 5644   2.783   2.333   3.266  0.3522 -0.8423  0.4707
  246DG     O10 5645   3.367   2.748   3.260 -0.0871  0.0653 -0.3569
  246DG     C11 5646   2.875   2.424   3.201 -0.8597 -0.4310  0.7178
  246DG     C12 5647   3.234   2.718   3.225 -0.1837 -0.3221 -0.5485
  246DG     H13 5648   2.830   2.513   3.158  0.5920 -0.2792 -0.5819
  246DG     H14 5649   2.920   2.365   3.121 -2.3986 -1.2918  0.4373
  246DG     H15 5650   3.223   2.713   3.116 -1.9458  0.3115 -0.4376
  246DG     H16 5651   3.171   2.806   3.239  0.3098  0.0802 -0.8291
  246DG     C17 5652   2.989   2.455   3.298 -0.7676  0.4698 -1.2438
  246DG     C18 5653   3.189   2.590   3.283  0.1346  1.1941  0.0027
  246DG     O19 5654   3.053   2.570   3.248  0.2963 -0.1807  0.2780
  246DG     H20 5655   3.055   2.368   3.301 -0.9418  0.3555  1.2162
  246DG     H21 5656   2.961   2.477   3.401 -1.3243  0.0341 -1.2938
  246DG     H22 5657   3.250   2.509   3.243  1.8665  2.5411 -0.2254
  246DG     H23 5658   3.200   2.580   3.391 -0.7504  0.1360  0.0108
  247DG      C1 5659   2.478   2.193   0.396  0.1193  0.6763 -0.1216
  247DG      C2 5660   1.958   1.811   0.505 -0.6377  0.0977  0.5176
  247DG      H3 5661   2.509   2.127   0.476  1.7698  2.6945  0.9790
  247DG      H4 5662   2.493   2.295   0.431  1.0918  1.5526 -2.8462
  247DG      H5 5663   2.531   2.178   0.302 -1.3383  0.5474 -0.9607
  247DG      H6 5664   1.865   1.756   0.487 -0.1170 -0.0818 -1.9411
  247DG      H7 5665   2.017   1.754   0.577 -0.6112 -2.4212 -1.3657
  247DG      H8 5666   1.933   1.904   0.555  2.4665  0.9032  0.7803
  247DG      O9 5667   2.337   2.164   0.381  0.1569  0.0386  0.8059
  247DG     O10 5668   2.017   1.816   0.373 -0.3675 -0.3243 -0.3483
  247DG     C11 5669   2.268   2.248   0.292  0.1972  0.0872  0.1958
  247DG     C12 5670   1.936   1.894   0.283 -0.1638 -0.0414 -0.2460
  247DG     H13 5671   2.298   2.250   0.188  0.2834  0.8503  0.2268
  247DG     H14 5672   2.288   2.347   0.334 -1.7611  0.0233  1.3854
  247DG     H15 5673   1.830   1.871   0.292 -0.1039 -0.0836  0.3977
  247DG     H16 5674   1.960   1.878   0.178  0.0423  0.1737 -0.2312
  247DG     C17 5675   2.118   2.226   0.307  0.5846 -0.4528  0.5503
  247DG     C18 5676   1.958   2.046   0.297 -0.1936 -0.0289 -0.5133
  247DG     O19 5677   2.090   2.087   0.290 -0.1003 -0.1160 -0.3253
  247DG     H20 5678   2.052   2.285   0.243  1.6937  0.3483  0.1133
  247DG     H21 5679   2.076   2.257   0.403  1.6849  2.3950  0.2080
  247DG     H22 5680   1.897   2.108   0.232 -1.7994  0.0229  0.9618
  247DG     H23 5681   1.923   2.086   0.393 -1.7890 -0.1171 -1.0295
  248DG      C1 5682   1.429   2.892   4.667  0.9496  0.0700  0.4735
  248DG      C2 5683   1.044   3.258   4.772 -0.1777  0.4396  0.0151
  248DG      H3 5684   1.482   2.807   4.623  1.6662  0.0838  1.2958
  248DG      H4 5685   1.444   2.962   4.585 -2.8940 -1.5891 -1.9770
  248DG      H5 5686   1.321   2.877   4.681  0.5434  1.2389 -1.0952
  248DG      H6 5687   1.038   3.242   4.664  0.6265 -0.3053  0.0701
  248DG      H7 5688   1.030   3.365   4.789 -3.2568  0.2307 -0.7422
  248DG      H8 5689   1.148   3.245   4.803 -0.0388 -3.8142 -1.5408
  248DG      O9 5690   1.495   2.920   4.791 -0.6046  0.0810  0.0688
  248DG     O10 5691   0.955   3.190   4.853 -0.1448  0.3508 -0.1562
  248DG     C11 5692   1.451   3.034   4.869 -0.1291  0.7453  0.5173
  248DG     C12 5693   0.962   3.050   4.853  0.3348 -0.3868  0.0168
  248DG     H13 5694   1.445   3.111   4.792  1.0314 -1.8629 -2.4359
  248DG     H14 5695   1.528   3.057   4.943  0.4995 -0.7613  0.3746
  248DG     H15 5696   0.969   3.008   4.752  2.4485 -1.9672  0.7376
  248DG     H16 5697   0.874   3.007   4.901  0.3828  0.1716  0.6173
  248DG     C17 5698   1.327   3.014   4.944 -0.2403  0.4897 -0.4746
  248DG     C18 5699   1.094   3.000   4.920 -0.0816  0.3292  0.3250
  248DG     O19 5700   1.219   3.021   4.852 -0.2042 -0.0352 -0.2200
  248DG     H20 5701   1.319   3.100   5.011 -0.8860  1.2029 -1.4370
  248DG     H21 5702   1.319   2.929   5.011 -1.9596 -0.4395 -1.7693
  248DG     H22 5703   1.089   3.045   5.020 -1.1892  0.4687  0.2236
  248DG     H23 5704   1.091   2.893   4.942  0.3461  0.0033 -1.1104
  249DG      C1 5705   4.163   2.231   4.166 -0.1031  0.4618  0.2335
  249DG      C2 5706   3.775   2.421   4.441  0.0087 -0.2571  0.4253
  249DG      H3 5707   4.209   2.288   4.247  0.3129 -2.3405  2.1049
  249DG      H4 5708   4.170   2.275   4.067 -2.9842 -0.4217 -0.4603
  249DG      H5 5709   4.215   2.136   4.167 -0.0870  0.4516 -0.6232
  249DG      H6 5710   3.704   2.495   4.404 -0.9614 -0.1842  2.3037
  249DG      H7 5711   3.840   2.466   4.516  0.3649  1.8499 -1.0552
  249DG      H8 5712   3.840   2.399   4.357 -0.5628 -1.8925  0.3671
  249DG      O9 5713   4.023   2.214   4.195 -0.0884  0.0052  0.5140
  249DG     O10 5714   3.701   2.319   4.502 -0.6587 -0.1106 -0.0741
  249DG     C11 5715   3.935   2.184   4.093 -0.2215 -0.2057 -0.4152
  249DG     C12 5716   3.608   2.250   4.427 -0.2123 -0.3446 -0.3406
  249DG     H13 5717   3.966   2.131   4.003  0.4860 -0.0082 -0.2951
  249DG     H14 5718   3.909   2.283   4.056 -1.2119 -1.4870 -3.4119
  249DG     H15 5719   3.544   2.315   4.368 -1.8467  0.0344  1.7184
  249DG     H16 5720   3.546   2.204   4.505 -0.2421  0.1619 -0.0644
  249DG     C17 5721   3.813   2.106   4.158  0.3895 -0.4878  0.3435
  249DG     C18 5722   3.664   2.137   4.338  0.5804  0.1806 -0.1865
  249DG     O19 5723   3.747   2.200   4.239 -0.7766 -0.7825  0.0486
  249DG     H20 5724   3.861   2.026   4.216 -1.5584 -0.4208  2.1576
  249DG     H21 5725   3.753   2.067   4.076 -0.8323  1.1701  0.3986
  249DG     H22 5726   3.715   2.062   4.399  2.0489 -0.8966 -2.5774
  249DG     H23 5727   3.574   2.096   4.292  0.1876 -0.5775  1.2074
  250DG      C1 5728   4.702   3.375   3.777  0.0876 -0.2767 -1.2014
  250DG      C2 5729   4.066   3.771   3.790  0.1425  0.1891  0.0327
  250DG      H3 5730   4.705   3.292   3.847  3.2106  1.3075  0.8176
  250DG      H4 5731   4.788   3.378   3.710 -0.4325  0.2025 -1.8670
  250DG      H5 5732   4.615   3.367   3.712  0.3369  0.5837 -1.6597
  250DG      H6 5733   4.039   3.724   3.884 -0.1661  0.5584  0.1322
  250DG      H7 5734   4.075   3.878   3.808  0.1005  0.2775 -0.4412
  250DG      H8 5735   3.990   3.750   3.715  0.6178  1.4229 -0.8429
  250DG      O9 5736   4.684   3.488   3.860 -0.5239 -0.0685 -0.0156
  250DG     O10 5737   4.186   3.724   3.732  0.4129  0.1312  0.2851
  250DG     C11 5738   4.677   3.620   3.799  0.4511  0.6832  0.2864
  250DG     C12 5739   4.212   3.578   3.711  0.4264 -0.7093  0.2714
  250DG     H13 5740   4.770   3.646   3.749  0.3846  1.6083  0.6162
  250DG     H14 5741   4.650   3.696   3.872 -1.1599  3.2280 -2.7036
  250DG     H15 5742   4.128   3.537   3.654  0.8096 -2.4985  0.9449
  250DG     H16 5743   4.213   3.541   3.813 -3.8839 -1.7569  0.1296
  250DG     C17 5744   4.570   3.628   3.686  1.2772  0.1151 -0.3426
  250DG     C18 5745   4.346   3.556   3.649  0.4828 -0.2561 -0.6595
  250DG     O19 5746   4.440   3.600   3.749 -0.1106  0.5332  0.3340
  250DG     H20 5747   4.581   3.554   3.606  1.3408  0.6011 -0.7844
  250DG     H21 5748   4.573   3.725   3.638 -1.0487  1.7099  2.3980
  250DG     H22 5749   4.361   3.449   3.634 -1.8529 -0.9678  1.3980
  250DG     H23 5750   4.339   3.604   3.552 -1.2891  0.8385 -0.0405
  251DG      C1 5751   3.258   0.866   2.672  0.0256  0.5733 -0.4112
  251DG      C2 5752   3.748   1.187   2.349 -0.3643  0.3344 -0.1036
  251DG      H3 5753   3.214   0.965   2.683 -0.9508 -0.0663  2.5111
  251DG      H4 5754   3.262   0.826   2.774 -1.6932  0.4835 -0.3487
  251DG      H5 5755   3.195   0.808   2.604  0.9513  0.0651 -0.8445
  251DG      H6 5756   3.687   1.257   2.292  0.6313  0.6012 -0.8801
  251DG      H7 5757   3.745   1.230   2.450 -1.1002  1.0145 -0.4047
  251DG      H8 5758   3.850   1.191   2.310  0.0434  0.3179  0.9282
  251DG      O9 5759   3.387   0.860   2.617 -0.0261  0.1831 -0.6210
  251DG     O10 5760   3.692   1.052   2.352  0.8723 -0.1268  0.2743
  251DG     C11 5761   3.452   0.731   2.622  0.6337  0.3164 -0.1621
  251DG     C12 5762   3.782   0.947   2.384  0.1077 -0.5314  0.1430
  251DG     H13 5763   3.395   0.655   2.569 -1.5609  0.2327  2.1396
  251DG     H14 5764   3.450   0.686   2.721 -1.2995 -1.2323 -0.8427
  251DG     H15 5765   3.816   0.967   2.486  2.1444  1.7313 -0.8681
  251DG     H16 5766   3.867   0.949   2.315 -0.1263  0.2708 -0.1367
  251DG     C17 5767   3.595   0.749   2.562 -0.0189  0.1061  0.6053
  251DG     C18 5768   3.714   0.818   2.365 -0.0759  0.1901  0.9039
  251DG     O19 5769   3.590   0.805   2.434 -0.7482  0.5705 -0.1343
  251DG     H20 5770   3.650   0.656   2.571  3.3019  2.0020  1.7016
  251DG     H21 5771   3.651   0.822   2.622  0.3347  1.0652 -0.8516
  251DG     H22 5772   3.693   0.798   2.260  1.2988  1.2478  0.3983
  251DG     H23 5773   3.779   0.733   2.387  0.7960 -0.0539 -2.2005
  252DG      C1 5774   0.630   2.317   3.300 -0.0645 -0.3984  0.2172
  252DG      C2 5775  -0.184   2.382   3.335 -0.2330  0.3054  0.5354
  252DG      H3 5776   0.576   2.404   3.338 -1.0927 -0.9589  0.1035
  252DG      H4 5777   0.719   2.338   3.242 -0.9775 -1.5419 -1.7122
  252DG      H5 5778   0.660   2.249   3.380  1.5501 -1.9854 -1.6460
  252DG      H6 5779  -0.164   2.488   3.348  2.7021 -0.1892  0.8041
  252DG      H7 5780  -0.260   2.365   3.259  1.0787  0.8604 -0.9572
  252DG      H8 5781  -0.209   2.328   3.427  1.6799 -3.5234 -0.9483
  252DG      O9 5782   0.533   2.251   3.224 -0.2020 -0.0369  0.9592
  252DG     O10 5783  -0.057   2.331   3.289  0.1837  0.1393  0.2463
  252DG     C11 5784   0.406   2.223   3.291  0.2954 -0.9619  0.1678
  252DG     C12 5785  -0.059   2.200   3.236 -0.5004 -0.1578  0.4572
  252DG     H13 5786   0.355   2.309   3.334 -2.5422 -3.3581  1.9869
  252DG     H14 5787   0.429   2.147   3.366  3.0637 -1.6339 -1.2263
  252DG     H15 5788  -0.123   2.196   3.148 -0.8263  1.9620  0.5530
  252DG     H16 5789  -0.086   2.122   3.308  0.4210  0.6070  1.6869
  252DG     C17 5790   0.298   2.170   3.192 -0.1308 -0.1758 -0.3824
  252DG     C18 5791   0.075   2.167   3.172 -0.2216 -0.7869  0.0966
  252DG     O19 5792   0.179   2.182   3.265  0.2104  0.3819 -0.1957
  252DG     H20 5793   0.327   2.068   3.167 -1.6433 -0.1980 -2.2131
  252DG     H21 5794   0.308   2.232   3.103 -0.5139  1.1051  0.4435
  252DG     H22 5795   0.068   2.065   3.135 -0.5777 -0.7407  0.0302
  252DG     H23 5796   0.087   2.238   3.090 -2.5623 -0.2757  0.1152
  253DG      C1 5797   0.808   0.919   0.594  0.1968 -0.4485 -0.2508
  253DG      C2 5798   1.279   0.104   0.455  0.3988  0.3905 -0.3778
  253DG      H3 5799   0.804   0.937   0.486 -0.8369 -0.7656 -0.2836
  253DG      H4 5800   0.888   0.971   0.646  0.0529  0.2242 -0.7019
  253DG      H5 5801   0.721   0.969   0.637  0.9067 -0.8390  1.7145
  253DG      H6 5802   1.286   0.017   0.522 -4.2206 -0.0197 -0.1383
  253DG      H7 5803   1.229   0.066   0.366 -0.8837 -2.0483  1.2637
  253DG      H8 5804   1.380   0.141   0.441  1.8206 -2.0816  2.0895
  253DG      O9 5805   0.815   0.783   0.621 -0.3454  0.5142  0.8637
  253DG     O10 5806   1.190   0.188   0.534  0.1365  0.1388 -0.0477
  253DG     C11 5807   0.940   0.737   0.575 -0.3312 -0.5212 -0.8161
  253DG     C12 5808   1.172   0.318   0.477 -1.1154  1.6696 -0.6294
  253DG     H13 5809   1.027   0.793   0.609 -2.2446  1.5569  0.9796
  253DG     H14 5810   0.943   0.747   0.466 -0.5647 -1.0614 -0.8716
  253DG     H15 5811   1.142   0.310   0.373  1.0491 -0.5222 -1.1534
  253DG     H16 5812   1.264   0.376   0.477 -0.5474  0.7982 -1.6006
  253DG     C17 5813   0.957   0.596   0.613 -0.3318  0.1576  0.0378
  253DG     C18 5814   1.082   0.395   0.569  0.2403  0.2592  0.0950
  253DG     O19 5815   1.074   0.535   0.548 -0.1885  0.4616  0.3607
  253DG     H20 5816   0.872   0.538   0.579 -0.5823  1.7843 -2.3648
  253DG     H21 5817   0.955   0.580   0.721  0.5949  0.0562  0.0529
  253DG     H22 5818   0.985   0.344   0.570  0.0489  0.6201  0.0441
  253DG     H23 5819   1.100   0.388   0.677 -1.6815 -0.3822  0.4174
  254DG      C1 5820   5.495   2.350   4.291 -0.5209 -0.1785 -0.7519
  254DG      C2 5821   5.676   2.124   3.560  0.6771  0.6938  0.4039
  254DG      H3 5822   5.508   2.429   4.365 -3.5942 -0.9546  0.7611
  254DG      H4 5823   5.592   2.302   4.278  0.5122  1.6821 -0.3519
  254DG      H5 5824   5.438   2.274   4.345  2.1106 -0.0473  2.5360
  254DG      H6 5825   5.776   2.141   3.520  1.7792  0.3912  2.8458
  254DG      H7 5826   5.671   2.038   3.627 -0.6930  1.5477  1.4531
  254DG      H8 5827   5.622   2.092   3.471  3.2305 -1.2426 -0.5745
  254DG      O9 5828   5.429   2.376   4.169  0.0074 -0.0640 -0.4018
  254DG     O10 5829   5.626   2.242   3.615  0.4400 -0.2082  0.3052
  254DG     C11 5830   5.495   2.478   4.089  0.3426 -0.0830 -0.3865
  254DG     C12 5831   5.506   2.215   3.684 -0.3966 -0.5573 -0.2889
  254DG     H13 5832   5.600   2.454   4.078  0.9389  2.3064 -0.5293
  254DG     H14 5833   5.483   2.574   4.141 -0.7714 -0.5074  0.1872
  254DG     H15 5834   5.506   2.127   3.749  0.0055 -0.7248 -0.5136
  254DG     H16 5835   5.437   2.184   3.605  0.4863  2.1129 -2.2562
  254DG     C17 5836   5.448   2.481   3.946  0.0238  0.1788 -0.2207
  254DG     C18 5837   5.439   2.335   3.750  0.6923  0.4541  0.3377
  254DG     O19 5838   5.471   2.355   3.888 -0.2509  0.1333 -0.0684
  254DG     H20 5839   5.497   2.560   3.889 -2.3385  4.3842  2.9444
  254DG     H21 5840   5.339   2.491   3.949  0.1311  1.7563  2.5971
  254DG     H22 5841   5.464   2.422   3.689 -0.4753  1.9050  1.8496
  254DG     H23 5842   5.331   2.322   3.744  0.4216  1.8301  1.5918
  255DG      C1 5843   3.460   1.640   3.938  0.7276  0.0907 -0.2090
  255DG      C2 5844   4.118   1.683   4.140  0.0851  0.2356 -0.9101
  255DG      H3 5845   3.375   1.647   3.871  0.2620 -1.8222  0.1162
  255DG      H4 5846   3.444   1.721   4.009 -0.0293  0.3252 -0.6423
  255DG      H5 5847   3.457   1.547   3.996 -0.6049  0.9193  1.1192
  255DG      H6 5848   4.221   1.704   4.169 -1.1554  2.5470  2.4473
  255DG      H7 5849   4.076   1.775   4.100 -0.8566  0.4604  0.5217
  255DG      H8 5850   4.079   1.672   4.241  1.8724  0.5420 -0.1467
  255DG      O9 5851   3.581   1.660   3.873  0.4785  0.2666 -0.7582
  255DG     O10 5852   4.101   1.577   4.051 -0.0246  0.1490 -0.0783
  255DG     C11 5853   3.600   1.582   3.756  0.1622 -0.0421  0.4208
  255DG     C12 5854   3.977   1.526   4.019 -0.3322 -1.0679  0.2710
  255DG     H13 5855   3.547   1.627   3.672  0.9720 -0.9356 -0.6075
  255DG     H14 5856   3.565   1.479   3.759  2.0620 -0.8925 -2.4994
  255DG     H15 5857   3.908   1.508   4.102 -0.7594 -0.2062  0.1189
  255DG     H16 5858   3.999   1.434   3.965 -1.1896  0.1550 -2.3748
  255DG     C17 5859   3.749   1.592   3.720  0.9514 -0.0831 -0.0786
  255DG     C18 5860   3.899   1.612   3.916 -0.4182 -0.3513 -0.3277
  255DG     O19 5861   3.825   1.527   3.823  0.0564 -0.0297 -0.0004
  255DG     H20 5862   3.779   1.695   3.702  0.3533 -0.3936 -3.4078
  255DG     H21 5863   3.764   1.539   3.626 -1.0956 -0.7891 -0.0438
  255DG     H22 5864   3.823   1.665   3.974  0.4287 -2.1533  2.6388
  255DG     H23 5865   3.957   1.683   3.857  1.2131 -0.5523  0.9602
  256DG      C1 5866   2.395   0.659   1.201  0.5629  0.2784  0.0889
  256DG      C2 5867   2.221   1.192   0.651 -0.1067  0.3701  0.0369
  256DG      H3 5868   2.450   0.646   1.294 -2.2228 -0.8657  1.7071
  256DG      H4 5869   2.446   0.596   1.127  0.4141  0.1251  0.1159
  256DG      H5 5870   2.292   0.624   1.211  1.0544 -0.9118  1.3353
  256DG      H6 5871   2.281   1.253   0.584 -0.3071  1.1728  0.5696
  256DG      H7 5872   2.231   1.091   0.612  1.3954  1.0241 -1.4099
  256DG      H8 5873   2.117   1.224   0.642  0.1239  0.7210 -1.5615
  256DG      O9 5874   2.397   0.790   1.158 -0.2467 -0.2746 -0.6382
  256DG     O10 5875   2.264   1.177   0.787 -0.2964 -0.0061  0.8610
  256DG     C11 5876   2.335   0.817   1.037  0.8675  0.4515  0.1956
  256DG     C12 5877   2.409   1.179   0.797 -0.3637 -0.2426  0.5882
  256DG     H13 5878   2.236   0.772   1.048  1.2769  0.0168  2.4726
  256DG     H14 5879   2.390   0.773   0.953 -1.3163  2.2504 -2.3765
  256DG     H15 5880   2.439   1.283   0.783  1.0357 -0.4793  1.5707
  256DG     H16 5881   2.459   1.119   0.721 -2.4318  1.2969 -2.1790
  256DG     C17 5882   2.330   0.969   1.014 -0.2887  0.0394  0.2639
  256DG     C18 5883   2.464   1.158   0.933  0.8896  0.0076 -0.3469
  256DG     O19 5884   2.454   1.019   0.963  0.4086  0.2029  0.3583
  256DG     H20 5885   2.315   1.013   1.113 -2.1251 -0.3390  0.1923
  256DG     H21 5886   2.240   1.007   0.965 -0.7046  1.8512  2.2844
  256DG     H22 5887   2.571   1.180   0.937  0.9055 -0.1999  3.1600
  256DG     H23 5888   2.434   1.221   1.017  0.1176 -1.6590  0.6777
  257DG      C1 5889   1.202   0.945   1.645  0.1936  0.1482  0.0912
  257DG      C2 5890   1.795   0.540   1.372 -0.1481  0.0471  1.1302
  257DG      H3 5891   1.123   0.986   1.582 -0.4796 -1.9727 -0.5354
  257DG      H4 5892   1.280   1.019   1.660  0.6177 -0.7851  3.2180
  257DG      H5 5893   1.161   0.918   1.743  1.1028 -0.7554  0.2358
  257DG      H6 5894   1.874   0.584   1.432 -0.1736  3.3856 -0.9936
  257DG      H7 5895   1.841   0.520   1.275  0.5336  0.2997  1.4021
  257DG      H8 5896   1.713   0.610   1.356  1.3369  1.3450 -1.6485
  257DG      O9 5897   1.236   0.824   1.584  0.4069  0.6160  0.4641
  257DG     O10 5898   1.751   0.410   1.409  0.2233 -0.4253  0.3830
  257DG     C11 5899   1.360   0.770   1.631  0.8874  0.3244  0.4260
  257DG     C12 5900   1.684   0.405   1.535 -0.1856 -0.3682  0.2497
  257DG     H13 5901   1.346   0.746   1.736  0.9710  1.4273  0.7064
  257DG     H14 5902   1.436   0.847   1.623  0.5590  0.6115  0.0119
  257DG     H15 5903   1.748   0.449   1.612 -1.3647  0.8160  0.5796
  257DG     H16 5904   1.693   0.300   1.565 -1.1419 -0.2744  0.9050
  257DG     C17 5905   1.399   0.646   1.553 -0.5747  0.4971  0.0485
  257DG     C18 5906   1.543   0.464   1.538  0.7767 -0.6157 -0.8285
  257DG     O19 5907   1.531   0.600   1.580  0.3601 -0.7862  0.1542
  257DG     H20 5908   1.379   0.650   1.446  0.1984 -2.6520 -0.3135
  257DG     H21 5909   1.329   0.568   1.583 -2.5842  0.8443 -3.2446
  257DG     H22 5910   1.489   0.443   1.445  0.8857 -2.7812 -0.4574
  257DG     H23 5911   1.487   0.406   1.611  2.3131  1.1761  1.9303
  258DG      C1 5912   0.619   3.958   0.986  0.2128 -0.0640  0.6984
  258DG      C2 5913   0.950   4.457   1.371  0.1568  0.7891  0.3950
  258DG      H3 5914   0.695   3.977   0.910 -0.0191 -0.4303  0.3749
  258DG      H4 5915   0.530   3.920   0.936  0.5638 -0.3691  0.3017
  258DG      H5 5916   0.664   3.881   1.048  2.4509 -1.3880 -2.3473
  258DG      H6 5917   0.971   4.402   1.463  1.2502  1.9228  0.8484
  258DG      H7 5918   1.031   4.446   1.300 -1.1288 -1.6718 -0.8043
  258DG      H8 5919   0.945   4.564   1.391 -0.3260  0.6905  0.8443
  258DG      O9 5920   0.591   4.071   1.053 -0.2803 -0.3444 -0.2648
  258DG     O10 5921   0.838   4.400   1.310 -0.2596 -0.0550  0.2705
  258DG     C11 5922   0.506   4.059   1.165 -0.0526  0.1764 -0.1289
  258DG     C12 5923   0.728   4.405   1.401  0.0537  0.0243  0.2926
  258DG     H13 5924   0.544   3.991   1.240 -3.2699 -0.7501  0.8168
  258DG     H14 5925   0.412   4.023   1.121 -0.6464  0.8951  0.5252
  258DG     H15 5926   0.716   4.507   1.438  1.0373 -0.0883  0.9505
  258DG     H16 5927   0.739   4.337   1.485  0.9557  0.8254  0.8465
  258DG     C17 5928   0.474   4.195   1.229  0.4516  0.0848  0.3651
  258DG     C18 5929   0.594   4.379   1.331 -1.0760 -1.0135  0.0129
  258DG     O19 5930   0.593   4.247   1.290  0.3839  0.1084  0.4252
  258DG     H20 5931   0.392   4.175   1.298 -1.2336 -1.1993 -1.8902
  258DG     H21 5932   0.432   4.268   1.160  1.2548  1.4608  1.2563
  258DG     H22 5933   0.517   4.401   1.405 -0.6406  2.0305 -0.3313
  258DG     H23 5934   0.585   4.452   1.251  4.4489 -0.9599 -0.9760
  259DG      C1 5935   3.377   0.280   3.634  0.1309  0.2592 -0.2578
  259DG      C2 5936   3.259   1.108   3.845 -0.3228 -0.2433 -0.5266
  259DG      H3 5937   3.416   0.218   3.714  2.0668 -0.9224 -1.9926
  259DG      H4 5938   3.448   0.257   3.554  0.6328  0.0341  0.2436
  259DG      H5 5939   3.282   0.249   3.590 -0.3453 -2.6563  2.5149
  259DG      H6 5940   3.362   1.104   3.882 -0.0043  1.4716 -1.1086
  259DG      H7 5941   3.258   1.135   3.739 -0.3642 -0.4013 -0.5654
  259DG      H8 5942   3.222   1.198   3.894  0.0509  0.9841 -2.3823
  259DG      O9 5943   3.362   0.420   3.656 -0.1799 -0.8019  0.4051
  259DG     O10 5944   3.176   1.000   3.880 -0.1027 -0.5894  0.5742
  259DG     C11 5945   3.313   0.443   3.791  0.2886  0.2367 -0.1603
  259DG     C12 5946   3.207   0.882   3.811 -0.4422 -0.0452  0.4613
  259DG     H13 5947   3.408   0.429   3.843 -1.0665  1.5434  2.8961
  259DG     H14 5948   3.244   0.373   3.835  1.9300 -1.5976 -0.3729
  259DG     H15 5949   3.214   0.896   3.703 -2.1812  0.1424  0.3529
  259DG     H16 5950   3.121   0.816   3.821  0.2189 -0.7695  1.7137
  259DG     C17 5951   3.261   0.590   3.804 -0.7537  0.0607 -0.0761
  259DG     C18 5952   3.329   0.814   3.873  0.8851 -0.1069  0.0230
  259DG     O19 5953   3.372   0.689   3.811 -0.3301 -0.2203  0.3662
  259DG     H20 5954   3.197   0.588   3.892 -1.6097 -0.9650 -0.6951
  259DG     H21 5955   3.180   0.620   3.737 -1.8810 -0.8671  0.8421
  259DG     H22 5956   3.416   0.880   3.878  1.0320 -0.3458  0.7134
  259DG     H23 5957   3.312   0.785   3.976  0.3331  1.3089  0.3546
  260DG      C1 5958   5.330   1.032   4.678 -0.0447  0.7007  0.4668
  260DG      C2 5959   6.008   1.462   4.737  0.6761 -0.0406  0.3618
  260DG      H3 5960   5.367   0.942   4.727 -0.7125  0.1596 -0.0104
  260DG      H4 5961   5.383   1.059   4.586  1.0487 -1.2728  0.4739
  260DG      H5 5962   5.227   1.010   4.653 -0.5208  1.3827  1.7538
  260DG      H6 5963   5.990   1.546   4.670 -1.0599 -1.2534 -0.7725
  260DG      H7 5964   6.069   1.508   4.815  2.3165  2.5555 -2.2294
  260DG      H8 5965   6.062   1.386   4.680  2.1730  0.7733  0.6243
  260DG      O9 5966   5.345   1.146   4.758 -0.6426 -0.3804 -0.4367
  260DG     O10 5967   5.888   1.412   4.792  0.3777  0.5614  0.9958
  260DG     C11 5968   5.481   1.184   4.776  0.0971 -0.4179 -0.1690
  260DG     C12 5969   5.825   1.498   4.886 -0.5764  0.2096 -0.0125
  260DG     H13 5970   5.539   1.198   4.685  1.4541  1.6920  0.9242
  260DG     H14 5971   5.531   1.109   4.838 -0.3150  0.4810  1.3190
  260DG     H15 5972   5.842   1.604   4.866 -1.6023  0.5411  0.8209
  260DG     H16 5973   5.860   1.470   4.985  0.8487 -1.5622 -0.9466
  260DG     C17 5974   5.498   1.322   4.855  0.0996 -0.0936 -0.3500
  260DG     C18 5975   5.673   1.475   4.894  0.4671 -0.2761  0.4672
  260DG     O19 5976   5.636   1.337   4.878 -0.7811  0.0989 -0.0519
  260DG     H20 5977   5.447   1.326   4.951 -2.5487  0.4432 -1.6902
  260DG     H21 5978   5.453   1.402   4.797  0.9883  1.8073  1.4342
  260DG     H22 5979   5.638   1.513   4.990 -0.7654 -0.7622  0.2304
  260DG     H23 5980   5.617   1.534   4.822 -0.7274  0.0139  1.5822
  261DG      C1 5981   4.007   2.536   5.274 -0.0787 -0.3132 -0.3270
  261DG      C2 5982   4.532   2.945   5.141  0.2950  0.3398  0.0241
  261DG      H3 5983   3.926   2.483   5.324  0.3638  0.3275  1.1200
  261DG      H4 5984   4.059   2.461   5.214  0.0281 -1.3601  1.0192
  261DG      H5 5985   3.975   2.610   5.200  0.4124  1.8525  1.5031
  261DG      H6 5986   4.615   2.939   5.212 -1.3840 -0.9876  1.9817
  261DG      H7 5987   4.562   2.884   5.056 -2.9330  0.1917 -1.1471
  261DG      H8 5988   4.507   3.048   5.115 -1.0788  0.4600  1.6360
  261DG      O9 5989   4.096   2.600   5.372  0.1142 -0.1832  0.3014
  261DG     O10 5990   4.419   2.896   5.206  0.0758  0.1030  0.1337
  261DG     C11 5991   4.035   2.708   5.437 -0.3247 -0.0913  0.1823
  261DG     C12 5992   4.378   2.980   5.317  0.1557 -0.1720 -0.0859
  261DG     H13 5993   3.938   2.682   5.481 -0.1826  0.0462  0.5792
  261DG     H14 5994   4.015   2.779   5.357  0.6164 -3.7108 -3.6154
  261DG     H15 5995   4.368   3.085   5.290  1.9212 -0.0839 -0.5309
  261DG     H16 5996   4.433   2.987   5.411 -0.8466  0.2706  0.4788
  261DG     C17 5997   4.141   2.770   5.532 -0.2620 -0.0161 -0.3773
  261DG     C18 5998   4.240   2.937   5.374  0.0766 -0.4132 -0.2419
  261DG     O19 5999   4.254   2.817   5.452  0.9500  0.4727 -0.3139
  261DG     H20 6000   4.173   2.695   5.604 -1.7830  0.0656  0.4388
  261DG     H21 6001   4.104   2.858   5.585 -0.7529  0.3852 -1.3599
  261DG     H22 6002   4.204   3.016   5.440 -0.8278 -0.7743 -0.2952
  261DG     H23 6003   4.167   2.924   5.294  0.4291  0.7718 -0.7765
  262DG      C1 6004   2.678   5.084   4.605 -0.2949  0.1250 -0.3652
  262DG      C2 6005   2.031   4.983   4.609 -0.1083 -0.5910 -0.8411
  262DG      H3 6006   2.722   4.985   4.615  1.0514  0.9615  3.5384
  262DG      H4 6007   2.754   5.147   4.651  0.1903  0.6364 -1.8039
  262DG      H5 6008   2.676   5.129   4.506 -0.7659  0.7926 -0.0564
  262DG      H6 6009   2.059   4.926   4.520  0.1638 -0.2520 -0.9750
  262DG      H7 6010   2.046   4.914   4.692  0.5802  0.3311 -0.1845
  262DG      H8 6011   1.928   5.017   4.600  0.4719  1.2772 -0.7525
  262DG      O9 6012   2.542   5.082   4.653 -0.2722 -0.6597  0.4145
  262DG     O10 6013   2.125   5.090   4.620  0.7167  0.0042  0.0593
  262DG     C11 6014   2.545   5.152   4.786 -0.5347  1.3472  0.3470
  262DG     C12 6015   2.109   5.168   4.734  0.3676 -0.0627 -0.1653
  262DG     H13 6016   2.594   5.249   4.789  0.9047  0.7270 -1.2775
  262DG     H14 6017   2.596   5.090   4.860  0.4712 -0.5065 -1.7574
  262DG     H15 6018   2.134   5.100   4.814  1.9447  1.1210  0.4074
  262DG     H16 6019   2.011   5.211   4.755 -1.3929 -2.9725 -1.7898
  262DG     C17 6020   2.395   5.174   4.826 -0.5993 -0.1864  0.4198
  262DG     C18 6021   2.206   5.281   4.730  0.1751  0.3506  0.3059
  262DG     O19 6022   2.343   5.237   4.712  0.0170 -0.2804 -0.4655
  262DG     H20 6023   2.407   5.231   4.918  1.3819  0.2090 -0.0342
  262DG     H21 6024   2.362   5.070   4.837  0.7816 -0.9126 -1.7056
  262DG     H22 6025   2.180   5.340   4.642 -1.4804  0.1437  0.6335
  262DG     H23 6026   2.205   5.347   4.816 -1.7405  0.1363  0.4911
  263DG      C1 6027   4.213   0.140   3.830 -0.6871  0.3426  1.3306
  263DG      C2 6028   4.615   0.578   3.471  0.1895  0.6062 -0.4140
  263DG      H3 6029   4.132   0.072   3.802  0.1776 -1.0699  2.0935
  263DG      H4 6030   4.176   0.233   3.873  3.4832  0.8576  4.4299
  263DG      H5 6031   4.269   0.094   3.911 -1.5116 -2.4689  0.4205
  263DG      H6 6032   4.563   0.653   3.530  0.9672  0.6371  0.2526
  263DG      H7 6033   4.706   0.555   3.526  1.3924  2.9570 -1.3270
  263DG      H8 6034   4.646   0.611   3.372  3.0126  0.0874  0.2180
  263DG      O9 6035   4.299   0.169   3.711 -0.1428 -0.1715  0.1409
  263DG     O10 6036   4.537   0.462   3.469  0.7362 -0.0086 -0.4415
  263DG     C11 6037   4.381   0.056   3.680 -0.3404  0.4775 -0.4987
  263DG     C12 6038   4.592   0.358   3.390  0.1740 -0.5114  0.5213
  263DG     H13 6039   4.335  -0.040   3.703 -0.3891  0.1927 -1.7606
  263DG     H14 6040   4.468   0.050   3.746 -1.9409 -0.3978  1.6498
  263DG     H15 6041   4.697   0.337   3.413  0.5074  0.1011 -0.3874
  263DG     H16 6042   4.590   0.404   3.291 -1.2564  0.1769  0.8505
  263DG     C17 6043   4.421   0.074   3.540 -0.7395  0.7972 -0.5853
  263DG     C18 6044   4.513   0.222   3.396  0.4113 -0.6175  0.1502
  263DG     O19 6045   4.486   0.200   3.534 -0.7152  0.2236 -0.0817
  263DG     H20 6046   4.331   0.062   3.481 -0.9228 -2.9620  0.1810
  263DG     H21 6047   4.506   0.017   3.502  1.0667  1.7753  1.7353
  263DG     H22 6048   4.426   0.233   3.332  1.3348 -1.4933 -1.3285
  263DG     H23 6049   4.577   0.145   3.352 -0.2299 -0.5633 -0.9111
  264DG      C1 6050   3.193   2.060   3.297  0.2992  0.4777  0.5308
  264DG      C2 6051   3.179   1.499   3.215  0.3120  0.0714  0.1484
  264DG      H3 6052   3.232   2.077   3.197 -0.3098 -2.0831 -0.2237
  264DG      H4 6053   3.184   2.153   3.353 -1.2886  0.5858  0.1456
  264DG      H5 6054   3.094   2.020   3.276  1.2722 -0.6578 -2.3316
  264DG      H6 6055   3.228   1.466   3.124  0.8873  2.4026 -0.4487
  264DG      H7 6056   3.159   1.414   3.281  0.1294 -2.2958 -2.7734
  264DG      H8 6057   3.079   1.531   3.183 -1.0610 -0.4275  3.5053
  264DG      O9 6058   3.245   1.956   3.382  0.7283 -0.4174  0.7071
  264DG     O10 6059   3.259   1.609   3.268 -0.4555 -0.0261 -1.0537
  264DG     C11 6060   3.385   1.977   3.401  0.0004  0.1972 -0.3054
  264DG     C12 6061   3.387   1.561   3.319  0.4512 -0.4922 -0.2745
  264DG     H13 6062   3.415   2.069   3.450  2.3759 -0.6425 -0.0625
  264DG     H14 6063   3.444   1.972   3.310  2.1456  1.0722  0.9665
  264DG     H15 6064   3.443   1.529   3.230  1.3476  0.2631  0.0006
  264DG     H16 6065   3.379   1.476   3.386 -1.0322 -1.8554 -2.0658
  264DG     C17 6066   3.428   1.875   3.508  0.4644 -0.3996  0.5898
  264DG     C18 6067   3.454   1.680   3.382  0.4204 -0.0512 -0.1058
  264DG     O19 6068   3.368   1.750   3.476 -0.1543  0.9364  0.1537
  264DG     H20 6069   3.394   1.904   3.608 -2.8963 -1.1351 -0.2262
  264DG     H21 6070   3.536   1.863   3.506  0.3346 -1.7384  0.4246
  264DG     H22 6071   3.544   1.640   3.428  0.2075 -1.7048 -1.0469
  264DG     H23 6072   3.476   1.748   3.300 -1.1415  1.6874  0.8160
  265DG      C1 6073   2.438   1.705   3.942 -0.6253  0.0267  0.2381
  265DG      C2 6074   2.420   1.536   3.175  0.5280  0.3167 -0.2225
  265DG      H3 6075   2.513   1.654   4.004  1.8286  0.6399 -2.0469
  265DG      H4 6076   2.367   1.630   3.907  1.9726 -2.1655 -0.7121
  265DG      H5 6077   2.400   1.776   4.016  1.9179  1.5709  0.1874
  265DG      H6 6078   2.509   1.595   3.153  1.6703 -0.4996  1.9121
  265DG      H7 6079   2.445   1.489   3.270  2.5597  0.6835 -0.5196
  265DG      H8 6080   2.422   1.458   3.100  2.7056  1.5143 -1.5218
  265DG      O9 6081   2.513   1.764   3.838 -0.3337 -0.3507 -0.2326
  265DG     O10 6082   2.297   1.599   3.190 -0.0884 -0.1791 -0.1869
  265DG     C11 6083   2.442   1.810   3.727  0.3686 -0.3776  0.1130
  265DG     C12 6084   2.292   1.702   3.291  0.1897 -0.1465  0.4594
  265DG     H13 6085   2.526   1.851   3.673  1.1094 -1.8923  0.0593
  265DG     H14 6086   2.380   1.894   3.760 -0.1233  0.0426 -1.7893
  265DG     H15 6087   2.209   1.770   3.274  0.6685  0.2923 -0.1863
  265DG     H16 6088   2.378   1.764   3.267  0.2162  0.4895  2.1270
  265DG     C17 6089   2.382   1.703   3.640  0.2236  0.2872  0.1736
  265DG     C18 6090   2.300   1.654   3.437  0.4423  0.4732  0.7357
  265DG     O19 6091   2.336   1.759   3.519 -0.4174  0.3356  0.1714
  265DG     H20 6092   2.308   1.641   3.689 -1.6493  1.4899 -1.0066
  265DG     H21 6093   2.459   1.629   3.618 -0.3515  0.1086 -1.3441
  265DG     H22 6094   2.210   1.602   3.470  0.1542  1.1123  0.9691
  265DG     H23 6095   2.372   1.573   3.444  1.2261  1.0905  0.0965
  266DG      C1 6096   2.585   0.873   3.184 -0.3289 -0.3077  0.6378
  266DG      C2 6097   2.837   0.409   2.718  0.0589 -0.0570 -0.4259
  266DG      H3 6098   2.530   0.895   3.093  0.6898 -1.1477 -0.2028
  266DG      H4 6099   2.659   0.953   3.183 -0.6099 -0.0349 -0.7443
  266DG      H5 6100   2.515   0.881   3.267 -0.1942 -0.7104  0.7897
  266DG      H6 6101   2.812   0.305   2.697  1.7613 -0.1747 -2.2330
  266DG      H7 6102   2.770   0.468   2.655 -1.2476  0.1857  1.1115
  266DG      H8 6103   2.943   0.428   2.701  0.0005  2.0063  1.1210
  266DG      O9 6104   2.634   0.738   3.168 -0.3477  0.2400  0.1244
  266DG     O10 6105   2.800   0.450   2.852 -0.3845 -0.4184 -0.3829
  266DG     C11 6106   2.717   0.697   3.277 -0.1049  0.4770 -0.1705
  266DG     C12 6107   2.893   0.383   2.939 -0.1286  0.6142 -1.0256
  266DG     H13 6108   2.666   0.692   3.373  0.9455  1.9601  0.4913
  266DG     H14 6109   2.791   0.770   3.308  1.1176 -0.2014 -1.3826
  266DG     H15 6110   2.997   0.411   2.921  0.5869  0.1037  1.8548
  266DG     H16 6111   2.892   0.277   2.916  0.3639  0.8423 -2.1550
  266DG     C17 6112   2.793   0.562   3.248 -0.0441 -0.6289  0.2134
  266DG     C18 6113   2.865   0.408   3.093  0.2671 -0.7104 -0.2196
  266DG     O19 6114   2.825   0.547   3.110 -0.1346 -0.0800  0.5672
  266DG     H20 6115   2.716   0.486   3.265 -1.4925  0.5450 -0.7732
  266DG     H21 6116   2.872   0.561   3.323  0.1041  0.3385  0.0849
  266DG     H22 6117   2.777   0.352   3.123  0.0435 -0.1585  0.1837
  266DG     H23 6118   2.947   0.385   3.162  1.1550  1.0446 -0.6245
  267DG      C1 6119   0.130   1.431   5.357 -0.4675 -0.0536 -0.2686
  267DG      C2 6120   0.005   0.698   5.314 -0.2429 -0.0209 -0.4681
  267DG      H3 6121   0.214   1.501   5.356 -1.7093  1.5015 -0.3088
  267DG      H4 6122   0.095   1.425   5.460  0.2004 -2.0845 -0.1203
  267DG      H5 6123   0.047   1.477   5.303  0.2020 -0.1705 -1.4329
  267DG      H6 6124  -0.083   0.719   5.253  0.1301 -0.0697 -1.0328
  267DG      H7 6125   0.049   0.601   5.292  2.3705  0.4461  2.0117
  267DG      H8 6126  -0.031   0.690   5.417 -1.7615  0.8300 -0.9058
  267DG      O9 6127   0.186   1.297   5.327 -0.4604 -0.5348  0.1432
  267DG     O10 6128   0.089   0.814   5.298 -0.5069  0.0815  0.1562
  267DG     C11 6129   0.212   1.280   5.186  0.1883 -0.1732 -0.6570
  267DG     C12 6130   0.129   0.817   5.165  0.5384  0.3582  0.1701
  267DG     H13 6131   0.295   1.345   5.158 -1.0768  1.6070 -0.4695
  267DG     H14 6132   0.119   1.291   5.131 -0.8114 -0.6660  0.8754
  267DG     H15 6133   0.047   0.843   5.098  1.7877  1.3719 -1.0209
  267DG     H16 6134   0.173   0.720   5.142 -0.2090  0.3802 -1.4370
  267DG     C17 6135   0.268   1.150   5.143 -0.1839  0.5884 -0.8139
  267DG     C18 6136   0.239   0.919   5.142 -0.0788  0.2269 -0.7880
  267DG     O19 6137   0.186   1.045   5.167  1.1394 -0.2304  0.0558
  267DG     H20 6138   0.360   1.125   5.194 -0.7826 -0.1537 -0.0814
  267DG     H21 6139   0.294   1.153   5.037  0.8498  2.3061 -0.5492
  267DG     H22 6140   0.327   0.892   5.201 -1.9725 -0.3126  1.9655
  267DG     H23 6141   0.269   0.918   5.037 -0.1720  2.2864 -0.8667
  268DG      C1 6142   1.193   5.154   0.216 -0.1816  0.2813 -0.5553
  268DG      C2 6143   0.744   4.660   0.553  0.2302  0.0037 -0.1652
  268DG      H3 6144   1.096   5.194   0.243 -1.2572 -2.7701  0.4669
  268DG      H4 6145   1.218   5.206   0.123 -0.8989 -0.1551 -1.0064
  268DG      H5 6146   1.256   5.183   0.300  1.0141  1.4550 -1.7888
  268DG      H6 6147   0.712   4.556   0.547  0.3313 -0.0725  0.5978
  268DG      H7 6148   0.774   4.680   0.656 -2.4650 -0.6998  0.8369
  268DG      H8 6149   0.657   4.724   0.533 -0.8992 -0.5997  2.4607
  268DG      O9 6150   1.191   5.014   0.210  0.1568  0.3824 -0.3326
  268DG     O10 6151   0.847   4.686   0.454  0.5234 -0.3749  0.0779
  268DG     C11 6152   1.077   4.974   0.138  0.6166  0.4807  0.7235
  268DG     C12 6153   0.826   4.621   0.332  0.7132  0.0465 -0.5377
  268DG     H13 6154   1.094   4.998   0.033  1.9980 -3.6290 -0.1790
  268DG     H14 6155   0.979   5.012   0.165 -0.4408 -0.8190 -1.0916
  268DG     H15 6156   0.738   4.655   0.278  0.7609  1.8135  0.4410
  268DG     H16 6157   0.817   4.516   0.359  1.2613  0.2503  0.4818
  268DG     C17 6158   1.070   4.816   0.139 -0.4616 -0.3189 -0.0157
  268DG     C18 6159   0.948   4.643   0.243 -0.1500  0.3958 -0.5160
  268DG     O19 6160   0.984   4.779   0.248 -0.2329 -0.5509  0.2935
  268DG     H20 6161   1.166   4.766   0.149 -0.9067 -0.7361  3.0992
  268DG     H21 6162   1.024   4.791   0.044  1.9434  1.7729 -1.8718
  268DG     H22 6163   1.023   4.571   0.276 -2.2536 -1.5596  0.2464
  268DG     H23 6164   0.914   4.623   0.142 -0.4514  0.1626 -0.3696
  269DG      C1 6165   2.130   5.235   1.071 -0.3679 -0.1770 -0.0641
  269DG      C2 6166   2.388   5.836   1.041 -0.1130  0.8807  0.3701
  269DG      H3 6167   2.192   5.182   0.998 -1.5528  1.3054 -2.2656
  269DG      H4 6168   2.047   5.172   1.104 -0.5165  0.0393 -0.0215
  269DG      H5 6169   2.187   5.257   1.161  3.6260 -0.6337 -2.2437
  269DG      H6 6170   2.464   5.799   0.972 -0.0406  0.3473  0.7268
  269DG      H7 6171   2.347   5.924   0.992 -0.0614  0.0805 -1.1929
  269DG      H8 6172   2.436   5.864   1.134  1.5274  0.1946 -0.2263
  269DG      O9 6173   2.074   5.352   1.014  0.6498 -0.5747  0.0416
  269DG     O10 6174   2.281   5.743   1.068 -0.1768 -0.3512  0.5641
  269DG     C11 6175   1.969   5.406   1.091 -0.7398 -0.1645  0.3884
  269DG     C12 6176   2.170   5.813   1.120 -0.0005 -0.3042  0.1567
  269DG     H13 6177   2.003   5.429   1.192 -1.4679 -1.6878  1.0165
  269DG     H14 6178   1.877   5.348   1.084 -1.6498  1.2148  0.4609
  269DG     H15 6179   2.137   5.892   1.053  1.0814 -0.2899 -0.3912
  269DG     H16 6180   2.188   5.861   1.216 -1.2416  0.5098  0.0001
  269DG     C17 6181   1.928   5.536   1.030  0.2014 -0.5133  0.0550
  269DG     C18 6182   2.058   5.711   1.126  0.0699  0.0325  0.2063
  269DG     O19 6183   2.039   5.626   1.012 -0.5332  0.4489  0.1619
  269DG     H20 6184   1.855   5.589   1.091  1.7161  1.9539 -0.1315
  269DG     H21 6185   1.875   5.529   0.935  1.3352  0.9892 -0.7245
  269DG     H22 6186   2.073   5.642   1.209 -1.2974  0.1062  0.5284
  269DG     H23 6187   1.970   5.771   1.147 -0.1470 -0.4328  0.6231
  270DG      C1 6188   3.343   2.861   3.783 -0.3185 -0.1052 -0.1504
  270DG      C2 6189   3.586   3.334   3.267 -0.5887 -0.1942  0.0779
  270DG      H3 6190   3.367   2.761   3.748  0.4664  0.3544 -0.9590
  270DG      H4 6191   3.239   2.856   3.817 -0.9040  1.5115 -1.5029
  270DG      H5 6192   3.404   2.890   3.868 -0.5843 -3.0288  1.1396
  270DG      H6 6193   3.674   3.327   3.331  0.0127  1.7714 -0.4654
  270DG      H7 6194   3.597   3.283   3.171 -2.7247 -1.1118  0.2651
  270DG      H8 6195   3.567   3.441   3.258  0.1260  0.0212  0.9509
  270DG      O9 6196   3.340   2.947   3.669  0.2563 -0.4422 -0.2763
  270DG     O10 6197   3.480   3.284   3.345 -0.2265 -0.1115  0.0560
  270DG     C11 6198   3.241   2.925   3.569 -0.0148  0.6339  0.3404
  270DG     C12 6199   3.348   3.294   3.285  0.2450 -0.4665  0.4339
  270DG     H13 6200   3.156   2.878   3.617  0.8206 -0.0140  1.2055
  270DG     H14 6201   3.273   2.853   3.493  1.1175  1.5623 -0.1082
  270DG     H15 6202   3.347   3.232   3.195 -0.3677  1.3314 -0.8570
  270DG     H16 6203   3.330   3.395   3.249  0.4916 -1.4913 -2.9972
  270DG     C17 6204   3.198   3.053   3.504  0.2590  0.4823  1.0679
  270DG     C18 6205   3.243   3.236   3.373  0.9477  0.1606  0.1567
  270DG     O19 6206   3.298   3.130   3.445 -0.4489 -0.4252  0.7566
  270DG     H20 6207   3.141   3.115   3.572 -0.6623  1.0029 -0.1477
  270DG     H21 6208   3.121   3.021   3.435 -0.6679  0.9071  1.8872
  270DG     H22 6209   3.212   3.319   3.436 -0.0022 -0.0850  0.0297
  270DG     H23 6210   3.150   3.207   3.323 -0.4813  0.9011  2.2378
  271DG      C1 6211   3.668   2.875   0.084 -0.6060 -0.1292 -0.2496
  271DG      C2 6212   3.200   3.079  -0.602  0.4247  0.5381 -0.3715
  271DG      H3 6213   3.710   2.970   0.048 -1.1642 -0.2361 -1.2144
  271DG      H4 6214   3.761   2.818   0.092  1.7521  3.4347  0.4290
  271DG      H5 6215   3.616   2.883   0.179  1.6758 -3.0448  1.4045
  271DG      H6 6216   3.282   3.135  -0.646 -0.2347  1.2217 -0.7613
  271DG      H7 6217   3.135   3.062  -0.689 -1.2646  0.4228  0.8553
  271DG      H8 6218   3.149   3.150  -0.537  1.1264 -0.2378  1.0722
  271DG      O9 6219   3.592   2.841  -0.027  0.2555 -0.2033 -0.6453
  271DG     O10 6220   3.222   2.951  -0.541 -0.3469 -0.0958 -0.3226
  271DG     C11 6221   3.654   2.827  -0.152 -0.5088 -0.3489 -0.3362
  271DG     C12 6222   3.316   2.969  -0.429  0.5613  0.2686  0.1577
  271DG     H13 6223   3.733   2.756  -0.134  1.2368  1.0374 -2.0895
  271DG     H14 6224   3.705   2.920  -0.176  2.1773 -0.7241  3.1175
  271DG     H15 6225   3.255   3.014  -0.350  0.5099  0.5360 -0.0324
  271DG     H16 6226   3.389   3.048  -0.450  0.7965  0.4948  1.6680
  271DG     C17 6227   3.565   2.772  -0.266  0.2057  0.3775  0.6826
  271DG     C18 6228   3.374   2.836  -0.380  0.2715  0.7905  0.4519
  271DG     O19 6229   3.475   2.880  -0.293  0.2093 -0.3995 -0.0591
  271DG     H20 6230   3.515   2.681  -0.233  0.2338  0.0260 -0.2222
  271DG     H21 6231   3.626   2.752  -0.354  0.6096 -0.3090  1.1147
  271DG     H22 6232   3.299   2.779  -0.325 -1.9527  2.5750 -0.5569
  271DG     H23 6233   3.413   2.781  -0.466 -0.7070  0.9020 -0.0837
  272DG      C1 6234   1.118   2.719   0.552  0.9658 -0.2698  0.1385
  272DG      C2 6235   0.850   2.152   1.088  0.4240  0.6103  0.5597
  272DG      H3 6236   1.010   2.710   0.537  0.9255  0.2555  0.0831
  272DG      H4 6237   1.165   2.692   0.457  0.6819 -1.8937  0.4401
  272DG      H5 6238   1.148   2.822   0.571  0.4118 -0.1481  0.3613
  272DG      H6 6239   0.876   2.049   1.113 -3.6048 -0.4111  1.2257
  272DG      H7 6240   0.857   2.213   1.178  1.3781 -0.0419  0.9418
  272DG      H8 6241   0.743   2.150   1.066  0.2688 -1.2735  1.2947
  272DG      O9 6242   1.162   2.647   0.661 -0.6085  0.0154 -0.8485
  272DG     O10 6243   0.934   2.195   0.976  0.7894 -0.1127  0.3237
  272DG     C11 6244   1.150   2.509   0.643 -0.4115 -0.1832 -0.2193
  272DG     C12 6245   1.071   2.205   1.011 -0.6119  0.8823  0.0332
  272DG     H13 6246   1.195   2.465   0.554  0.2248 -1.0945  0.5303
  272DG     H14 6247   1.049   2.471   0.633  0.1756 -2.2021  1.0114
  272DG     H15 6248   1.095   2.105   1.046  0.8217  1.1723 -0.0660
  272DG     H16 6249   1.088   2.280   1.088  0.6012 -0.3038  0.9693
  272DG     C17 6250   1.210   2.443   0.764 -0.4435  0.0111  0.4775
  272DG     C18 6251   1.159   2.244   0.885  0.2080 -0.6706 -0.3669
  272DG     O19 6252   1.105   2.363   0.828 -0.0087 -0.2698 -1.0243
  272DG     H20 6253   1.246   2.519   0.833 -0.4925 -0.1073  0.6347
  272DG     H21 6254   1.295   2.382   0.735  0.9217  0.3317  3.4345
  272DG     H22 6255   1.265   2.241   0.911  0.5258  1.1734 -1.2767
  272DG     H23 6256   1.147   2.185   0.794  0.2303 -0.3664 -0.5662
  273DG      C1 6257   3.224   5.155   2.122 -0.0843  0.3095  0.0645
  273DG      C2 6258   3.713   5.706   1.941 -0.1074  0.5268  0.1438
  273DG      H3 6259   3.289   5.135   2.207 -1.4421 -1.1389  0.8045
  273DG      H4 6260   3.165   5.070   2.090  1.8018 -1.1435  0.2740
  273DG      H5 6261   3.161   5.239   2.150  0.0109  0.1362  0.8044
  273DG      H6 6262   3.773   5.700   2.032 -0.5863  1.0460  0.5036
  273DG      H7 6263   3.760   5.753   1.855  0.8904 -1.2468 -0.3248
  273DG      H8 6264   3.625   5.769   1.954 -1.0145 -0.7172  0.2357
  273DG      O9 6265   3.323   5.172   2.021 -0.0946  0.8051 -0.9669
  273DG     O10 6266   3.681   5.573   1.886 -0.0843 -0.1108 -0.2480
  273DG     C11 6267   3.279   5.211   1.894 -0.1757  0.3319  0.0827
  273DG     C12 6268   3.615   5.491   1.982 -0.0433  0.1179 -0.1589
  273DG     H13 6269   3.205   5.290   1.907 -0.9748 -0.5177  0.8538
  273DG     H14 6270   3.218   5.129   1.855 -1.2263  1.3441 -0.4383
  273DG     H15 6271   3.526   5.542   2.018 -0.5987 -1.7282  1.2582
  273DG     H16 6272   3.675   5.475   2.072 -0.5471  1.7141  0.5047
  273DG     C17 6273   3.398   5.248   1.804 -0.5444  0.5300  0.9650
  273DG     C18 6274   3.576   5.353   1.923  0.1425  0.1511  0.3648
  273DG     O19 6275   3.461   5.371   1.845  0.1875  0.1281 -0.7444
  273DG     H20 6276   3.360   5.265   1.703  1.8426  1.7721  0.1769
  273DG     H21 6277   3.464   5.162   1.798 -0.6862  0.3612  1.7597
  273DG     H22 6278   3.651   5.307   1.858  1.5320  0.6045  1.5810
  273DG     H23 6279   3.553   5.287   2.006 -0.7023 -1.1981 -0.8819
  274DG      C1 6280   2.767   0.051   2.589 -0.0527  0.4533  0.3175
  274DG      C2 6281   2.798   0.031   1.790 -0.2497 -0.8954  0.3069
  274DG      H3 6282   2.705   0.140   2.591 -0.2466  0.3097  0.7378
  274DG      H4 6283   2.871   0.076   2.612 -0.2183  0.8026  0.6979
  274DG      H5 6284   2.744  -0.010   2.676  2.6957  0.6967  1.3144
  274DG      H6 6285   2.885   0.096   1.785 -1.2700  0.5302  0.4355
  274DG      H7 6286   2.805  -0.033   1.702  1.4053  0.4965 -0.6311
  274DG      H8 6287   2.706   0.085   1.765 -0.7044 -2.1444 -0.8552
  274DG      O9 6288   2.758  -0.025   2.469  0.1487 -0.0097 -0.1277
  274DG     O10 6289   2.812  -0.029   1.918 -0.2171  0.3723  0.3113
  274DG     C11 6290   2.627  -0.053   2.417 -0.1646  0.3315 -0.3654
  274DG     C12 6291   2.695  -0.105   1.951 -0.1310  0.1414 -0.4562
  274DG     H13 6292   2.573   0.037   2.387 -0.5129 -0.1323 -1.1693
  274DG     H14 6293   2.575  -0.095   2.503  1.0057 -1.0386 -0.2921
  274DG     H15 6294   2.672  -0.178   1.873  0.4341 -0.2278 -0.2863
  274DG     H16 6295   2.616  -0.030   1.956  0.7697  1.1715 -1.1712
  274DG     C17 6296   2.629  -0.163   2.308  0.1725  0.0136 -0.3058
  274DG     C18 6297   2.708  -0.183   2.084  0.0687 -0.2767  0.2048
  274DG     O19 6298   2.682  -0.100   2.196  0.1565 -0.9449  0.4244
  274DG     H20 6299   2.525  -0.192   2.290 -0.9833  3.3545  0.1282
  274DG     H21 6300   2.686  -0.242   2.357  1.5668  1.5223  0.6309
  274DG     H22 6301   2.627  -0.255   2.086 -0.0223 -0.2378 -1.4337
  274DG     H23 6302   2.802  -0.239   2.080 -0.5149 -1.2245 -0.7024
  275DG      C1 6303   1.530   0.893   1.270 -0.1691 -0.1092 -0.3243
  275DG      C2 6304   1.742   1.532   1.134 -0.1949  0.3602  0.1656
  275DG      H3 6305   1.599   0.817   1.236 -0.8335 -0.8936  0.0436
  275DG      H4 6306   1.460   0.914   1.189 -0.3979  1.2377  0.1952
  275DG      H5 6307   1.469   0.853   1.351 -1.1440  1.2143 -0.3561
  275DG      H6 6308   1.729   1.627   1.185 -1.6550 -0.1744  0.8490
  275DG      H7 6309   1.837   1.515   1.083  0.8659 -0.6638  2.3528
  275DG      H8 6310   1.656   1.531   1.067 -1.4597 -0.2748  1.7162
  275DG      O9 6311   1.604   1.012   1.311  0.0353 -0.3098  0.5472
  275DG     O10 6312   1.731   1.423   1.224 -0.5659 -0.0632 -0.3003
  275DG     C11 6313   1.705   0.984   1.413 -0.0295 -0.2135 -1.0136
  275DG     C12 6314   1.838   1.433   1.324  0.1232  0.1294  0.0492
  275DG     H13 6315   1.799   0.947   1.372  0.1944 -0.4380 -0.3043
  275DG     H14 6316   1.665   0.907   1.478 -0.5475  0.4005 -0.5848
  275DG     H15 6317   1.854   1.535   1.359  0.7298  0.1198 -0.1776
  275DG     H16 6318   1.924   1.404   1.264  0.2341  1.4312 -0.4494
  275DG     C17 6319   1.731   1.118   1.483  0.5308  0.0011 -0.1892
  275DG     C18 6320   1.827   1.337   1.445  0.0791  0.7018 -0.5736
  275DG     O19 6321   1.757   1.227   1.387  0.3437  0.2285 -0.3529
  275DG     H20 6322   1.818   1.114   1.549  1.2031  1.8932 -0.9174
  275DG     H21 6323   1.639   1.142   1.537  0.0509  0.1636 -1.0584
  275DG     H22 6324   1.924   1.293   1.467 -1.3299 -1.9396  0.8329
  275DG     H23 6325   1.783   1.376   1.537 -0.2591 -1.6409  0.3122
  276DG      C1 6326   2.337   2.336   2.840 -0.0985 -0.5779  0.2982
  276DG      C2 6327   2.584   2.286   3.519 -0.3273 -0.4543  0.2834
  276DG      H3 6328   2.354   2.406   2.759 -2.0136 -1.3299 -0.8312
  276DG      H4 6329   2.268   2.260   2.803  2.1137 -2.4014 -0.2450
  276DG      H5 6330   2.433   2.289   2.862 -0.8062 -1.8977  0.6948
  276DG      H6 6331   2.568   2.180   3.540 -1.2774 -0.5266 -0.7003
  276DG      H7 6332   2.683   2.298   3.474  0.5740 -3.6617  1.1412
  276DG      H8 6333   2.597   2.321   3.621 -0.1181  1.2881 -0.3141
  276DG      O9 6334   2.293   2.401   2.960  0.2005  0.7499  0.3999
  276DG     O10 6335   2.477   2.348   3.441  0.3188 -0.0808 -0.4431
  276DG     C11 6336   2.290   2.330   3.078 -0.0112  0.1111  0.3940
  276DG     C12 6337   2.505   2.482   3.424 -0.2601  0.4914  0.1931
  276DG     H13 6338   2.390   2.286   3.078 -0.6169 -1.3136 -0.4305
  276DG     H14 6339   2.216   2.252   3.063 -0.7063  0.7834  0.2461
  276DG     H15 6340   2.604   2.493   3.380 -0.0720  0.3490  0.5772
  276DG     H16 6341   2.511   2.533   3.520 -1.4021 -0.7820  0.9832
  276DG     C17 6342   2.273   2.419   3.200  0.4609 -0.6739  0.4027
  276DG     C18 6343   2.410   2.557   3.343  0.2296 -0.0710  0.2618
  276DG     O19 6344   2.384   2.495   3.214  0.0150  0.1727  0.5781
  276DG     H20 6345   2.261   2.348   3.282 -0.8018 -0.2012  0.6420
  276DG     H21 6346   2.179   2.472   3.190  1.3844  0.8142 -0.9969
  276DG     H22 6347   2.316   2.562   3.398  0.1747  0.3196  0.1378
  276DG     H23 6348   2.440   2.660   3.326 -0.9169 -0.0830 -2.2976
  277DG      C1 6349   1.207   4.581   1.971  0.7058  0.1545  0.0903
  277DG      C2 6350   0.928   4.271   1.733  0.0306  0.4122  0.1229
  277DG      H3 6351   1.286   4.522   1.924  0.2114  0.4966 -1.2018
  277DG      H4 6352   1.126   4.513   1.999  2.0396 -1.4094  0.3598
  277DG      H5 6353   1.233   4.621   2.069  0.3070 -0.1017  0.3033
  277DG      H6 6354   1.021   4.246   1.784  0.1429  0.6004  0.0084
  277DG      H7 6355   0.853   4.239   1.806 -0.5096  0.7836 -0.2665
  277DG      H8 6356   0.916   4.209   1.644  2.9294 -0.4472  0.2371
  277DG      O9 6357   1.166   4.681   1.879 -0.2429 -0.2709  0.3691
  277DG     O10 6358   0.920   4.414   1.723 -0.6525 -0.0889  0.1495
  277DG     C11 6359   1.077   4.771   1.932  0.2417 -0.3644  0.1868
  277DG     C12 6360   0.795   4.469   1.755 -0.3856 -0.0313  0.3647
  277DG     H13 6361   1.089   4.871   1.892 -0.0906  0.3935  1.8968
  277DG     H14 6362   1.088   4.772   2.041 -0.1755 -1.4842  0.2540
  277DG     H15 6363   0.777   4.438   1.858 -0.6809 -0.8365  0.0715
  277DG     H16 6364   0.711   4.428   1.699  0.1112 -0.0709 -0.3571
  277DG     C17 6365   0.936   4.725   1.907  0.6196  0.0464 -0.2747
  277DG     C18 6366   0.795   4.625   1.746 -0.0015 -0.5475  0.8216
  277DG     O19 6367   0.923   4.682   1.776  0.3758 -0.3551 -0.7448
  277DG     H20 6368   0.870   4.804   1.940  0.2418 -0.6294  0.6481
  277DG     H21 6369   0.903   4.637   1.963  0.9886 -0.4455 -0.8190
  277DG     H22 6370   0.791   4.662   1.643  0.0847 -2.7487 -0.0250
  277DG     H23 6371   0.713   4.669   1.802  0.0321  0.3109  0.2164
  278DG      C1 6372   4.525   1.386   4.005  0.0180  0.1935  0.2362
  278DG      C2 6373   4.844   0.854   3.790 -0.0351 -0.2112 -0.1404
  278DG      H3 6374   4.587   1.437   3.932  0.3780 -2.5333 -1.5180
  278DG      H4 6375   4.469   1.455   4.068 -0.3323  2.1675 -2.0737
  278DG      H5 6376   4.448   1.332   3.949 -1.1479 -1.3686  3.0963
  278DG      H6 6377   4.799   0.908   3.707 -0.3018 -2.2013 -1.3510
  278DG      H7 6378   4.928   0.806   3.740 -1.8647 -1.8861 -1.7625
  278DG      H8 6379   4.768   0.782   3.820 -0.1841  0.7568  1.9796
  278DG      O9 6380   4.615   1.293   4.074  0.1982 -0.1989 -0.2802
  278DG     O10 6381   4.869   0.931   3.909  0.3612 -0.0049 -0.4332
  278DG     C11 6382   4.736   1.357   4.116  0.0631  0.3951  0.1740
  278DG     C12 6383   4.983   1.013   3.908  0.0422 -0.1698 -0.3271
  278DG     H13 6384   4.711   1.434   4.189  0.1916  1.4851 -0.9005
  278DG     H14 6385   4.783   1.408   4.032 -0.5801  2.6483  1.0993
  278DG     H15 6386   4.992   1.079   3.823 -3.4177 -1.4570 -1.8726
  278DG     H16 6387   5.076   0.958   3.925 -0.0990 -0.5060 -0.6278
  278DG     C17 6388   4.841   1.257   4.150 -0.5299  0.3243  0.3325
  278DG     C18 6389   4.985   1.109   4.029 -0.0379 -0.0239 -0.7198
  278DG     O19 6390   4.862   1.182   4.031 -0.3137  0.7135  0.1078
  278DG     H20 6391   4.821   1.196   4.238 -0.6709 -1.5480 -0.9437
  278DG     H21 6392   4.933   1.312   4.172 -1.5481  1.5307  1.8450
  278DG     H22 6393   5.010   1.060   4.123 -0.3742  0.4287 -0.3858
  278DG     H23 6394   5.064   1.183   4.016  1.7809 -1.7974 -0.2349
  279DG      C1 6395   2.307   2.631   5.192  0.1593  0.4342  0.4922
  279DG      C2 6396   1.730   2.743   4.896 -0.0062 -0.1906 -1.3898
  279DG      H3 6397   2.412   2.659   5.183  0.2480 -0.4343 -1.8736
  279DG      H4 6398   2.289   2.529   5.159  0.2491  0.6334 -0.1914
  279DG      H5 6399   2.295   2.636   5.300 -1.8072 -1.2306  0.4041
  279DG      H6 6400   1.732   2.634   4.896 -0.0808 -0.2877  2.0932
  279DG      H7 6401   1.637   2.773   4.943 -0.0479 -1.7399 -0.3911
  279DG      H8 6402   1.745   2.787   4.797 -0.0634 -0.2625 -1.4305
  279DG      O9 6403   2.228   2.732   5.136 -0.5693 -0.3475 -0.5459
  279DG     O10 6404   1.844   2.806   4.958  0.8420 -0.0487  0.2208
  279DG     C11 6405   2.230   2.856   5.194  0.1762  0.0429 -0.0502
  279DG     C12 6406   1.838   2.946   4.958 -0.6016 -0.8165  0.1610
  279DG     H13 6407   2.333   2.891   5.192 -0.2526  1.5048 -3.5655
  279DG     H14 6408   2.174   2.862   5.287 -0.6883  0.2162 -0.5704
  279DG     H15 6409   1.761   2.982   5.025 -0.6590 -2.2032  0.8634
  279DG     H16 6410   1.811   2.976   4.856 -0.3204 -0.6115  0.1448
  279DG     C17 6411   2.175   2.949   5.095 -0.7097 -0.8244 -0.9585
  279DG     C18 6412   1.976   3.007   4.989 -0.3921  0.0800 -0.1657
  279DG     O19 6413   2.036   2.917   5.079 -0.3646 -0.6840 -0.3330
  279DG     H20 6414   2.236   2.949   5.005  1.7687  0.7890  0.5944
  279DG     H21 6415   2.190   3.047   5.140  3.8189 -2.3308  1.4179
  279DG     H22 6416   2.038   3.019   4.900 -1.4811 -1.0835 -1.1222
  279DG     H23 6417   1.971   3.105   5.037  1.8804 -0.3941  1.1948
  280DG      C1 6418   4.582   5.215   2.523 -0.1222 -0.3288 -0.1705
  280DG      C2 6419   5.150   5.088   2.097  0.3821 -0.0060 -0.0982
  280DG      H3 6420   4.548   5.309   2.566  0.4821 -0.4185  0.5132
  280DG      H4 6421   4.566   5.132   2.592 -0.7213 -0.4935 -0.4995
  280DG      H5 6422   4.514   5.205   2.438 -2.8002  1.2710  1.6485
  280DG      H6 6423   5.138   4.980   2.086 -0.2282  0.2484 -2.5541
  280DG      H7 6424   5.086   5.142   2.028 -0.5876 -0.0727  0.7402
  280DG      H8 6425   5.250   5.112   2.060  0.1882 -1.5325 -1.7307
  280DG      O9 6426   4.723   5.224   2.485  0.2727  0.4792  0.0669
  280DG     O10 6427   5.139   5.115   2.238  0.1442  0.8173 -0.2311
  280DG     C11 6428   4.805   5.237   2.599  0.2759 -0.4467  0.4947
  280DG     C12 6429   5.171   5.247   2.268  0.1886  0.5990 -0.1390
  280DG     H13 6430   4.834   5.139   2.639 -0.0211 -0.6942  0.1157
  280DG     H14 6431   4.764   5.298   2.680  2.0070 -0.1550  1.1930
  280DG     H15 6432   5.132   5.317   2.194 -0.5615  1.9772  1.4801
  280DG     H16 6433   5.279   5.262   2.262  0.2689  0.4557  0.8209
  280DG     C17 6434   4.939   5.301   2.554  0.3565 -0.1447  0.0196
  280DG     C18 6435   5.124   5.288   2.416  0.3708 -0.4937  0.2520
  280DG     O19 6436   4.993   5.231   2.445 -0.5253 -0.0683  0.1827
  280DG     H20 6437   5.009   5.300   2.638 -0.6199  0.8823  0.8861
  280DG     H21 6438   4.911   5.403   2.528 -0.7056  0.1542  2.1037
  280DG     H22 6439   5.195   5.243   2.485  2.4770 -1.1876 -2.1684
  280DG     H23 6440   5.126   5.396   2.427  1.1793 -0.5596  0.8407
  281DG      C1 6441   3.562   3.233   4.875 -0.2750  0.2939  0.5561
  281DG      C2 6442   3.526   3.803   5.242  0.2220 -0.7470  0.0983
  281DG      H3 6443   3.662   3.257   4.839 -0.2908  1.8411  1.4369
  281DG      H4 6444   3.493   3.285   4.808  2.3230  1.2654 -1.5604
  281DG      H5 6445   3.552   3.126   4.861  0.3946  0.1720  0.9811
  281DG      H6 6446   3.444   3.803   5.314  0.0862 -0.5219 -0.0529
  281DG      H7 6447   3.611   3.860   5.278  0.4764 -0.6510 -0.6300
  281DG      H8 6448   3.483   3.849   5.152  0.6409 -0.8797 -0.1737
  281DG      O9 6449   3.550   3.264   5.006 -0.2726 -0.3278 -0.5184
  281DG     O10 6450   3.551   3.670   5.220 -0.5487 -0.2806 -0.5176
  281DG     C11 6451   3.637   3.194   5.097 -0.4355  0.6754 -0.0375
  281DG     C12 6452   3.628   3.607   5.314 -0.8305 -0.1144 -0.2721
  281DG     H13 6453   3.741   3.203   5.063 -0.3982  1.3179  0.2339
  281DG     H14 6454   3.626   3.087   5.114  1.6147  0.5532  0.9307
  281DG     H15 6455   3.615   3.667   5.404 -0.6232  3.2332 -2.3045
  281DG     H16 6456   3.731   3.617   5.282  0.5045  0.3235  3.6142
  281DG     C17 6457   3.612   3.260   5.227 -0.4144  0.6657 -0.3560
  281DG     C18 6458   3.592   3.465   5.342  0.5872  0.1404  0.1887
  281DG     O19 6459   3.636   3.399   5.226 -0.1686  0.0643  0.0618
  281DG     H20 6460   3.660   3.210   5.311 -0.7070 -0.0742 -0.6225
  281DG     H21 6461   3.506   3.238   5.237  0.2698 -3.3575 -0.4434
  281DG     H22 6462   3.646   3.428   5.429 -1.9143 -2.6302  0.7557
  281DG     H23 6463   3.487   3.448   5.364  0.0838  1.4146 -1.1038
  282DG      C1 6464   0.636   2.653   4.977 -0.2047 -0.5001 -0.3075
  282DG      C2 6465   0.555   2.016   5.518 -0.1991  0.1616 -0.9132
  282DG      H3 6466   0.607   2.596   4.889 -1.7119  1.9803 -1.5348
  282DG      H4 6467   0.740   2.685   4.970  0.0698 -1.5684 -1.3918
  282DG      H5 6468   0.567   2.737   4.984 -1.9750 -1.9100 -0.3000
  282DG      H6 6469   0.450   2.038   5.499 -1.1881 -3.0480  0.1438
  282DG      H7 6470   0.578   1.940   5.443 -1.8407 -2.4547  1.0683
  282DG      H8 6471   0.558   1.977   5.619 -0.3802 -0.3496 -1.1019
  282DG      O9 6472   0.613   2.583   5.093  0.5001 -0.0883  0.2712
  282DG     O10 6473   0.649   2.122   5.519  0.7903 -0.0060  0.0836
  282DG     C11 6474   0.648   2.654   5.207  0.3054  0.2117 -0.1185
  282DG     C12 6475   0.634   2.215   5.410  0.3826  0.4588 -0.0359
  282DG     H13 6476   0.554   2.699   5.237  0.0968 -0.2792 -0.0340
  282DG     H14 6477   0.730   2.725   5.202  0.4413 -0.0317 -1.7442
  282DG     H15 6478   0.527   2.230   5.397  0.9511  3.1836 -2.4425
  282DG     H16 6479   0.667   2.165   5.319  2.5504  0.6290  0.5991
  282DG     C17 6480   0.711   2.556   5.308  0.4581  0.2666 -0.4215
  282DG     C18 6481   0.700   2.349   5.418  0.5024  0.4389  1.2449
  282DG     O19 6482   0.644   2.434   5.318 -0.0125 -0.3607 -0.3258
  282DG     H20 6483   0.690   2.599   5.406 -2.4093 -1.2682 -0.2689
  282DG     H21 6484   0.820   2.555   5.299  0.4142 -0.2236 -0.9517
  282DG     H22 6485   0.681   2.396   5.515 -1.9680  0.9017  0.6013
  282DG     H23 6486   0.806   2.333   5.402 -0.0997 -0.3942 -3.3401
  283DG      C1 6487   3.192   2.892   2.852 -0.1175  0.6126 -0.1184
  283DG      C2 6488   2.985   3.045   2.353  0.3233 -0.6783 -0.4829
  283DG      H3 6489   3.146   2.938   2.765 -1.3551 -0.8148 -0.2656
  283DG      H4 6490   3.278   2.829   2.828 -0.1036  0.8776 -0.7700
  283DG      H5 6491   3.245   2.967   2.911 -0.0047 -0.5264  1.2904
  283DG      H6 6492   2.942   3.015   2.257  0.7180 -1.7669 -0.3426
  283DG      H7 6493   2.997   3.152   2.363  1.7638 -0.8885  0.3878
  283DG      H8 6494   3.089   3.012   2.361  0.3201 -0.5543  0.0985
  283DG      O9 6495   3.096   2.824   2.941  0.4577 -0.5814 -0.1171
  283DG     O10 6496   2.912   2.991   2.467  0.0045 -0.1648 -0.6006
  283DG     C11 6497   3.045   2.711   2.882 -0.7159 -0.3129  0.8489
  283DG     C12 6498   2.884   2.856   2.459 -0.0233 -1.2346 -0.5710
  283DG     H13 6499   3.026   2.659   2.975  0.9173 -0.3221  1.2136
  283DG     H14 6500   3.121   2.654   2.829 -0.2646  0.0798  1.0581
  283DG     H15 6501   2.969   2.803   2.417  0.1230  0.0006 -1.9336
  283DG     H16 6502   2.814   2.830   2.379  0.4630  0.9013 -1.7612
  283DG     C17 6503   2.922   2.737   2.803  0.2404  0.6116 -0.1052
  283DG     C18 6504   2.846   2.797   2.595 -0.1252  0.7271 -0.1965
  283DG     O19 6505   2.964   2.777   2.673 -0.2169  0.1527  0.7743
  283DG     H20 6506   2.849   2.798   2.856 -0.8803 -0.0780 -0.8095
  283DG     H21 6507   2.868   2.643   2.787  1.3793  0.2711 -2.3281
  283DG     H22 6508   2.784   2.871   2.645 -0.0569 -1.0739  2.8213
  283DG     H23 6509   2.788   2.706   2.576  1.2209 -0.5432  1.4594
  284DG      C1 6510   3.695   3.037   1.289 -0.3821 -0.1166  0.4964
  284DG      C2 6511   3.629   3.669   1.459  0.1228  0.1424  0.1949
  284DG      H3 6512   3.622   2.960   1.314 -0.7615  0.1429  0.2084
  284DG      H4 6513   3.787   2.993   1.253 -0.3355 -0.8750  1.5173
  284DG      H5 6514   3.651   3.079   1.198 -1.3658 -0.0004  1.0069
  284DG      H6 6515   3.548   3.717   1.513 -0.2219 -0.8061  0.5486
  284DG      H7 6516   3.728   3.715   1.467  0.5004 -0.7367  0.8992
  284DG      H8 6517   3.603   3.670   1.354  3.3374  0.5884 -0.7022
  284DG      O9 6518   3.703   3.134   1.390  0.2139 -0.1636  0.4013
  284DG     O10 6519   3.634   3.531   1.504  0.2477 -0.1699 -0.4615
  284DG     C11 6520   3.764   3.076   1.504  0.2181 -0.5767 -0.4656
  284DG     C12 6521   3.645   3.519   1.645  0.3172 -0.7077 -0.3539
  284DG     H13 6522   3.872   3.087   1.494  0.2134  1.2078  0.9866
  284DG     H14 6523   3.726   2.975   1.518 -1.4962  0.2892  1.8250
  284DG     H15 6524   3.578   3.577   1.708  1.5627  1.4604 -0.9049
  284DG     H16 6525   3.733   3.574   1.681 -1.9687  1.7451  1.9162
  284DG     C17 6526   3.721   3.161   1.627 -0.4800  0.4522 -0.0841
  284DG     C18 6527   3.644   3.370   1.695  0.2416  0.7393  0.6174
  284DG     O19 6528   3.725   3.302   1.605  0.9356  0.4668 -0.4943
  284DG     H20 6529   3.795   3.131   1.702  1.8946 -1.0766 -2.8230
  284DG     H21 6530   3.622   3.123   1.652  0.3836 -2.4740 -0.6585
  284DG     H22 6531   3.672   3.366   1.800  2.0221  1.2415  0.1928
  284DG     H23 6532   3.542   3.333   1.692  0.8684 -1.0445  0.2033
  285DG      C1 6533   2.316   0.657   2.942  0.1344  0.2607  0.1078
  285DG      C2 6534   2.991   0.845   2.965 -0.2997 -0.9303  0.0310
  285DG      H3 6535   2.236   0.728   2.964  0.4522  0.5211  0.4242
  285DG      H4 6536   2.350   0.601   3.029  0.8244 -1.9360 -1.4810
  285DG      H5 6537   2.273   0.583   2.874  2.5909 -0.3549 -0.9001
  285DG      H6 6538   2.935   0.872   3.054 -0.2033  0.4043 -0.2824
  285DG      H7 6539   3.030   0.744   2.976  1.0648 -0.6871 -1.9835
  285DG      H8 6540   3.069   0.907   2.919  0.4325 -1.4239  0.5864
  285DG      O9 6541   2.426   0.722   2.886 -0.6865 -0.3493 -0.3257
  285DG     O10 6542   2.875   0.850   2.881  0.0065  0.1765  0.4594
  285DG     C11 6543   2.435   0.712   2.739  0.1415  0.0076 -0.8581
  285DG     C12 6544   2.901   0.803   2.748 -0.6490 -0.2461  0.3648
  285DG     H13 6545   2.333   0.716   2.701 -0.5084 -3.2465  0.2072
  285DG     H14 6546   2.449   0.604   2.729 -0.2673 -0.3659  1.8189
  285DG     H15 6547   2.921   0.697   2.762  1.6253  0.3625  2.2365
  285DG     H16 6548   2.983   0.856   2.699 -0.8559 -0.7638 -0.5733
  285DG     C17 6549   2.538   0.806   2.678  0.1903  1.5791  0.0175
  285DG     C18 6550   2.767   0.832   2.660 -0.2186 -0.1167 -0.1057
  285DG     O19 6551   2.660   0.768   2.731  0.0990  0.3573  0.3614
  285DG     H20 6552   2.509   0.911   2.692  0.1664  1.8115 -1.6040
  285DG     H21 6553   2.538   0.791   2.570 -0.6597  1.0216  0.0828
  285DG     H22 6554   2.752   0.939   2.646  0.6995  0.1081  0.5652
  285DG     H23 6555   2.770   0.783   2.563  1.2534 -0.2407 -0.0115
  286DG      C1 6556   0.349   0.722   4.159 -0.2012  0.1390  0.4134
  286DG      C2 6557   0.456   0.838   4.853 -0.4515 -0.4822 -0.3069
  286DG      H3 6558   0.263   0.655   4.153  0.5655 -0.7393 -3.3532
  286DG      H4 6559   0.397   0.721   4.061  1.0103  2.7636  0.8911
  286DG      H5 6560   0.312   0.824   4.147  1.4727  0.8213  0.6462
  286DG      H6 6561   0.363   0.792   4.888 -1.3170  0.8279 -0.8468
  286DG      H7 6562   0.528   0.826   4.935  0.2411 -1.7156 -1.0596
  286DG      H8 6563   0.440   0.942   4.827 -1.6548 -0.6091 -0.1255
  286DG      O9 6564   0.446   0.705   4.266  0.2982  0.7937 -0.6784
  286DG     O10 6565   0.511   0.768   4.743  0.2891 -0.8473 -0.1550
  286DG     C11 6566   0.548   0.793   4.272 -0.0234 -0.1344  0.3378
  286DG     C12 6567   0.648   0.796   4.727  0.1055 -0.8032 -0.1872
  286DG     H13 6568   0.503   0.892   4.288  0.7448  0.0401  1.5441
  286DG     H14 6569   0.594   0.797   4.173 -0.9001 -1.3137 -0.1436
  286DG     H15 6570   0.685   0.745   4.816 -0.3180 -2.2904 -0.8307
  286DG     H16 6571   0.670   0.902   4.736  0.0661 -0.8893  1.1295
  286DG     C17 6572   0.668   0.762   4.372 -0.6941 -0.0114  0.6261
  286DG     C18 6573   0.708   0.736   4.602 -0.6411  0.1761  0.5717
  286DG     O19 6574   0.615   0.769   4.500 -0.2539  0.5241 -0.4073
  286DG     H20 6575   0.753   0.828   4.360 -2.5079  2.4028  0.1997
  286DG     H21 6576   0.705   0.660   4.356  0.6443  0.5402  0.0802
  286DG     H22 6577   0.806   0.776   4.576  0.1313 -1.1842  1.2757
  286DG     H23 6578   0.704   0.629   4.621 -1.0727 -0.2790 -1.8273
  287DG      C1 6579   0.393   2.381   5.078  0.1751 -0.4249  0.4897
  287DG      C2 6580  -0.005   2.614   5.523  0.3040  0.8042 -0.1327
  287DG      H3 6581   0.315   2.305   5.073  0.1182 -0.4233  1.1530
  287DG      H4 6582   0.450   2.357   5.168 -0.2444 -2.8472  0.1788
  287DG      H5 6583   0.454   2.377   4.988  1.0544  0.5568  1.0190
  287DG      H6 6584  -0.005   2.505   5.516 -0.9361  0.6999  1.1674
  287DG      H7 6585   0.063   2.648   5.600 -0.3317  0.8234  0.4283
  287DG      H8 6586  -0.103   2.642   5.562 -0.5752 -1.4456 -0.5082
  287DG      O9 6587   0.325   2.504   5.092  0.0620  0.0361 -0.0882
  287DG     O10 6588   0.035   2.672   5.397 -0.2593  0.2060  0.6252
  287DG     C11 6589   0.274   2.561   4.975 -0.6026 -0.5292 -0.1073
  287DG     C12 6590  -0.066   2.651   5.297  0.0389 -0.2602 -0.2752
  287DG     H13 6591   0.222   2.481   4.923 -0.4176  0.4672 -1.9023
  287DG     H14 6592   0.360   2.583   4.912 -0.0397 -2.1093  0.0365
  287DG     H15 6593  -0.154   2.703   5.335  0.7178  0.4097  0.4280
  287DG     H16 6594  -0.102   2.551   5.276 -0.7963 -0.3082  1.2473
  287DG     C17 6595   0.178   2.673   5.017 -0.0193  0.0365 -0.8350
  287DG     C18 6596  -0.012   2.698   5.163 -0.2425 -0.6454 -0.5592
  287DG     O19 6597   0.089   2.613   5.105  0.4815 -0.1464 -0.0626
  287DG     H20 6598   0.121   2.719   4.936 -1.4592 -0.7860 -0.3157
  287DG     H21 6599   0.241   2.744   5.071 -0.2516 -0.0902 -0.3940
  287DG     H22 6600  -0.090   2.690   5.088  0.8470 -1.1087 -1.6934
  287DG     H23 6601   0.020   2.801   5.176  0.4623 -0.9269  0.0705
  288DG      C1 6602   1.419   4.997   1.963 -0.0677  0.2714  0.4861
  288DG      C2 6603   2.010   4.971   2.215 -0.2096 -0.2344  0.7437
  288DG      H3 6604   1.325   5.004   2.017 -1.6923  0.9075 -2.1803
  288DG      H4 6605   1.402   4.945   1.869  2.9738  1.6707 -0.9983
  288DG      H5 6606   1.460   5.097   1.947  1.7320 -0.2509  1.5052
  288DG      H6 6607   2.065   4.987   2.122 -0.5889 -0.2602  0.5141
  288DG      H7 6608   1.972   5.071   2.237  0.7503  0.3751 -0.2334
  288DG      H8 6609   2.087   4.938   2.284 -0.0331 -0.6888  0.3404
  288DG      O9 6610   1.520   4.921   2.031  0.1890 -0.7981  0.1260
  288DG     O10 6611   1.903   4.878   2.206 -0.2170 -0.3826  0.6397
  288DG     C11 6612   1.474   4.790   2.047 -0.1305  0.8875 -1.0025
  288DG     C12 6613   1.931   4.749   2.151  0.1213  0.1847  0.3754
  288DG     H13 6614   1.458   4.744   1.949 -2.2444 -0.9712  0.1273
  288DG     H14 6615   1.379   4.775   2.099  0.7952 -0.3040  0.4168
  288DG     H15 6616   2.015   4.699   2.200 -1.5565 -1.3191  1.8492
  288DG     H16 6617   1.967   4.767   2.050 -0.4353 -1.3939 -0.1368
  288DG     C17 6618   1.579   4.707   2.127 -0.0729  0.4679  0.4757
  288DG     C18 6619   1.806   4.660   2.147 -0.6322  0.4889 -0.2060
  288DG     O19 6620   1.708   4.737   2.082 -0.5279 -0.0456 -0.1406
  288DG     H20 6621   1.553   4.603   2.109 -3.8013  1.1478  0.9453
  288DG     H21 6622   1.572   4.721   2.235  1.2184  0.5150  0.5685
  288DG     H22 6623   1.829   4.570   2.091 -1.6884  1.5064 -2.4088
  288DG     H23 6624   1.773   4.633   2.247 -0.0145  0.9219  0.1194
  289DG      C1 6625   0.522   2.685   0.474  0.4256  0.1162 -0.1780
  289DG      C2 6626   0.537   3.499   0.415 -0.1443  0.1621  0.0245
  289DG      H3 6627   0.441   2.635   0.420  0.1777 -1.7538  1.7554
  289DG      H4 6628   0.500   2.664   0.579  0.0854  0.8651 -0.0930
  289DG      H5 6629   0.618   2.643   0.444  0.7568  0.1244  0.8562
  289DG      H6 6630   0.566   3.550   0.323 -3.0763 -0.3429 -1.3135
  289DG      H7 6631   0.443   3.538   0.454 -0.6997 -1.4836  0.4358
  289DG      H8 6632   0.617   3.517   0.486  0.6088 -0.8346 -0.5313
  289DG      O9 6633   0.534   2.824   0.455  0.7482 -0.0547  0.0564
  289DG     O10 6634   0.522   3.359   0.396  0.0933 -0.3837 -0.1826
  289DG     C11 6635   0.401   2.876   0.462 -0.8692  0.3313  0.3880
  289DG     C12 6636   0.430   3.308   0.305 -0.1850 -0.3653 -0.4300
  289DG     H13 6637   0.343   2.837   0.545  1.1605  0.3861  1.9002
  289DG     H14 6638   0.356   2.850   0.366  1.0989  0.9574 -0.7824
  289DG     H15 6639   0.433   3.376   0.220  0.7180  1.1419  0.7589
  289DG     H16 6640   0.330   3.333   0.342  0.4814  1.5561  0.1919
  289DG     C17 6641   0.406   3.036   0.473 -0.2435  0.0735 -0.2112
  289DG     C18 6642   0.448   3.157   0.277 -0.0813  0.4235  0.0507
  289DG     O19 6643   0.508   3.093   0.390 -0.1320 -0.2505  0.0163
  289DG     H20 6644   0.423   3.061   0.577 -2.1836  0.5751  0.0279
  289DG     H21 6645   0.306   3.063   0.440 -1.0851 -2.0456  0.4223
  289DG     H22 6646   0.363   3.110   0.227  0.6738 -0.2507 -0.6455
  289DG     H23 6647   0.516   3.140   0.193 -1.0897  1.7895 -1.0872
  290DG      C1 6648   2.963   3.827   3.253 -0.3875 -0.4113  0.3416
  290DG      C2 6649   2.417   3.573   3.527  0.0863 -0.6970 -0.2424
  290DG      H3 6650   3.069   3.801   3.249  0.0541  1.4133 -1.3757
  290DG      H4 6651   2.972   3.935   3.246 -2.8739 -0.2739 -2.8012
  290DG      H5 6652   2.915   3.784   3.165 -1.0188 -0.5098  0.7318
  290DG      H6 6653   2.419   3.506   3.441  0.5656  0.9776 -1.5792
  290DG      H7 6654   2.346   3.526   3.595 -0.8110 -0.5576 -1.0748
  290DG      H8 6655   2.382   3.673   3.504  0.3118 -0.4054  0.6343
  290DG      O9 6656   2.920   3.765   3.375 -0.0538 -0.3082  0.2939
  290DG     O10 6657   2.552   3.583   3.577  0.3058  0.2051  0.1271
  290DG     C11 6658   2.934   3.848   3.485  0.5084 -0.1528 -0.4337
  290DG     C12 6659   2.552   3.653   3.696  0.2044 -0.0364 -0.2967
  290DG     H13 6660   2.891   3.947   3.466 -0.3167 -0.7245 -1.6496
  290DG     H14 6661   3.040   3.869   3.495  0.0894  3.2252 -1.6389
  290DG     H15 6662   2.515   3.582   3.770 -0.4489 -0.1746 -0.7486
  290DG     H16 6663   2.485   3.738   3.684 -1.5012 -1.4891 -1.6980
  290DG     C17 6664   2.883   3.791   3.627 -0.0466 -0.2303  0.3159
  290DG     C18 6665   2.690   3.709   3.729  0.5760  0.3915 -0.7530
  290DG     O19 6666   2.744   3.763   3.614 -0.1061 -0.0240  0.4001
  290DG     H20 6667   2.897   3.872   3.699  3.4850  0.5631 -1.0376
  290DG     H21 6668   2.947   3.706   3.652  1.6565  0.5428 -1.1496
  290DG     H22 6669   2.713   3.771   3.817  1.2358 -0.5359 -0.2531
  290DG     H23 6670   2.750   3.622   3.756  0.1634 -0.4402 -2.4329
  291DG      C1 6671   5.390   3.138   1.705 -0.3179 -0.4637 -0.4375
  291DG      C2 6672   5.340   3.354   2.002 -0.0198  0.3773  0.2315
  291DG      H3 6673   5.387   3.245   1.720 -1.5163 -0.6425  0.8576
  291DG      H4 6674   5.360   3.100   1.607 -0.3168 -1.3217 -0.1160
  291DG      H5 6675   5.491   3.102   1.726 -0.2612 -0.7532 -1.1783
  291DG      H6 6676   5.449   3.356   2.004  0.1047  2.7909 -2.2665
  291DG      H7 6677   5.297   3.338   1.903 -0.4357 -2.9798  0.8577
  291DG      H8 6678   5.313   3.457   2.026 -1.3927  0.2090 -0.4922
  291DG      O9 6679   5.305   3.078   1.801  0.8455  0.4889 -0.1320
  291DG     O10 6680   5.294   3.274   2.108  0.3073  0.3896 -0.0221
  291DG     C11 6681   5.170   3.101   1.755  0.1938  0.3165  0.5022
  291DG     C12 6682   5.158   3.281   2.133 -0.0791  0.3542  0.0241
  291DG     H13 6683   5.158   3.050   1.659 -0.0160  0.5259  0.4160
  291DG     H14 6684   5.149   3.208   1.743 -2.6220  0.0441  2.2268
  291DG     H15 6685   5.125   3.377   2.173 -0.2320 -0.5774  2.3477
  291DG     H16 6686   5.147   3.212   2.217 -0.2594  1.3317  0.8221
  291DG     C17 6687   5.087   3.044   1.868  0.1969 -0.6219 -0.0789
  291DG     C18 6688   5.069   3.238   2.022  0.0314  0.2260  0.7434
  291DG     O19 6689   5.120   3.105   1.989 -0.6796 -0.6357 -0.7670
  291DG     H20 6690   5.094   2.936   1.880 -1.5148 -0.6070  1.5481
  291DG     H21 6691   4.979   3.058   1.862  0.1110 -0.1292  1.8723
  291DG     H22 6692   4.966   3.233   2.056  0.2204  2.1741  1.7322
  291DG     H23 6693   5.054   3.302   1.935 -1.7019 -0.1747  0.7157
  292DG      C1 6694   0.555   3.593   0.786 -0.0924 -0.0785  0.2209
  292DG      C2 6695   1.168   3.726   1.187 -0.2842  0.3218  0.0604
  292DG      H3 6696   0.449   3.577   0.808  0.3405 -2.9723  0.6186
  292DG      H4 6697   0.589   3.509   0.726 -0.3723 -0.7478  0.9713
  292DG      H5 6698   0.560   3.686   0.730 -0.5045  0.2842  0.7707
  292DG      H6 6699   1.203   3.801   1.116  0.5142 -1.1602 -1.1530
  292DG      H7 6700   1.211   3.749   1.285 -1.9416 -1.3704  1.2483
  292DG      H8 6701   1.206   3.627   1.164  0.5197  0.5075  0.5676
  292DG      O9 6702   0.646   3.615   0.892  0.2309 -0.5426  0.0887
  292DG     O10 6703   1.021   3.731   1.187 -0.4150  0.1347  0.3914
  292DG     C11 6704   0.626   3.503   0.978 -0.2876 -0.4467  0.0279
  292DG     C12 6705   0.965   3.636   1.284  0.5714 -0.1973  0.2919
  292DG     H13 6706   0.686   3.419   0.946 -0.0643 -0.7070  1.0819
  292DG     H14 6707   0.519   3.484   0.991 -0.0529 -0.1383  3.2172
  292DG     H15 6708   0.993   3.669   1.384  0.0052 -0.0929  0.4178
  292DG     H16 6709   1.003   3.535   1.273  0.7316 -0.2466  1.1991
  292DG     C17 6710   0.654   3.546   1.125 -0.2530 -0.7590  0.7078
  292DG     C18 6711   0.814   3.641   1.264 -0.3487 -0.1514 -0.6058
  292DG     O19 6712   0.789   3.584   1.137  0.5848  0.5963 -0.4309
  292DG     H20 6713   0.635   3.467   1.198 -1.9187 -1.6902 -0.6778
  292DG     H21 6714   0.598   3.629   1.168  1.1724 -0.6490  2.5087
  292DG     H22 6715   0.775   3.584   1.349 -1.5762  0.6882 -0.5793
  292DG     H23 6716   0.789   3.746   1.281 -1.5647 -0.7316  1.5139
  293DG      C1 6717   0.645   3.390   2.250 -0.5027 -0.2392 -0.2741
  293DG      C2 6718   0.380   2.933   2.721  0.1206 -0.3562 -0.2874
  293DG      H3 6719   0.586   3.404   2.159 -1.4628  3.2356  0.7546
  293DG      H4 6720   0.749   3.419   2.234 -1.0010  0.9051 -1.6313
  293DG      H5 6721   0.603   3.452   2.329 -2.4336  0.8111 -2.0272
  293DG      H6 6722   0.436   2.872   2.792  2.2536 -0.0758 -1.6572
  293DG      H7 6723   0.371   3.035   2.760 -2.0882 -0.1467 -1.1996
  293DG      H8 6724   0.281   2.887   2.714  0.9522 -2.8402  2.2332
  293DG      O9 6725   0.622   3.255   2.294  0.2590 -0.5927  0.1744
  293DG     O10 6726   0.445   2.961   2.597 -0.2973  0.1102  0.2562
  293DG     C11 6727   0.642   3.162   2.192  0.1567  0.0104  1.0847
  293DG     C12 6728   0.469   2.842   2.518 -0.4083 -0.6389 -0.2175
  293DG     H13 6729   0.733   3.187   2.138  0.8131  0.3858  2.3483
  293DG     H14 6730   0.556   3.170   2.125  0.6755 -1.6590  0.1579
  293DG     H15 6731   0.375   2.793   2.494 -2.2022  1.2775  2.2697
  293DG     H16 6732   0.523   2.777   2.586  2.0927  0.9641 -0.5227
  293DG     C17 6733   0.646   3.011   2.239  0.1737 -0.8418  0.2858
  293DG     C18 6734   0.564   2.861   2.397  0.9101  0.2707  0.3362
  293DG     O19 6735   0.544   2.989   2.339 -0.0200 -0.2377 -0.0474
  293DG     H20 6736   0.749   2.994   2.270  0.2153  0.0932  0.6985
  293DG     H21 6737   0.638   2.954   2.146  1.4746  0.7403 -0.8635
  293DG     H22 6738   0.664   2.849   2.439  1.0191 -1.7566 -0.3754
  293DG     H23 6739   0.549   2.772   2.335 -1.9663  0.9397 -0.0490
  294DG      C1 6740   3.147   3.348   5.338 -0.1518 -0.2109  0.1290
  294DG      C2 6741   3.663   3.594   4.741  0.3229  0.5092 -0.3774
  294DG      H3 6742   3.228   3.387   5.399 -1.2082  0.2656  1.2654
  294DG      H4 6743   3.164   3.242   5.319  0.0397 -0.1935  0.2049
  294DG      H5 6744   3.056   3.376   5.392  0.0428  0.1245  0.2857
  294DG      H6 6745   3.750   3.563   4.798  0.1250  2.6411  1.1760
  294DG      H7 6746   3.657   3.516   4.665 -3.2148 -0.4644  0.6919
  294DG      H8 6747   3.696   3.692   4.706  1.2656  0.3979  0.1797
  294DG      O9 6748   3.136   3.430   5.224 -0.3185  0.4630  0.0801
  294DG     O10 6749   3.533   3.600   4.812 -0.1012  0.5404  0.1976
  294DG     C11 6750   3.251   3.425   5.144 -0.4055  0.2295  0.0542
  294DG     C12 6751   3.424   3.575   4.731  0.2755 -0.3205  0.4085
  294DG     H13 6752   3.244   3.340   5.076 -1.5549  0.9300 -0.7343
  294DG     H14 6753   3.336   3.413   5.212 -1.1932 -0.9372  0.8608
  294DG     H15 6754   3.432   3.477   4.685 -1.3555 -0.2719 -0.0701
  294DG     H16 6755   3.420   3.643   4.646 -1.0472 -0.4510  0.3445
  294DG     C17 6756   3.240   3.539   5.053 -0.3346 -0.8176  0.6207
  294DG     C18 6757   3.302   3.583   4.828 -0.4770 -0.5350 -0.1747
  294DG     O19 6758   3.337   3.517   4.948  0.0378  0.9832 -0.4165
  294DG     H20 6759   3.264   3.630   5.108  0.0042 -0.7470  0.3626
  294DG     H21 6760   3.137   3.543   5.018 -0.2628 -1.2808  0.3445
  294DG     H22 6761   3.274   3.688   4.844 -3.4320 -0.9620 -1.6641
  294DG     H23 6762   3.219   3.533   4.777  0.1105 -1.5678 -0.1383
  295DG      C1 6763   3.370   5.391   2.695  0.2342 -0.8534 -0.2010
  295DG      C2 6764   2.723   4.927   2.702 -0.4837 -0.4961 -0.4027
  295DG      H3 6765   3.455   5.341   2.740 -0.3941 -3.2011 -1.4860
  295DG      H4 6766   3.309   5.429   2.777  0.3439 -1.8707  0.3670
  295DG      H5 6767   3.412   5.473   2.637  0.4119 -0.3181  0.6611
  295DG      H6 6768   2.660   4.861   2.643 -2.8398  1.7801 -0.6415
  295DG      H7 6769   2.780   4.874   2.778  0.7262  0.3354 -0.6866
  295DG      H8 6770   2.652   4.994   2.751 -2.4191 -2.7767  0.0399
  295DG      O9 6771   3.300   5.296   2.626 -0.5104 -0.1764 -0.2933
  295DG     O10 6772   2.809   5.020   2.632  0.4278 -0.4085  0.5585
  295DG     C11 6773   3.181   5.355   2.567 -0.3509 -0.0822 -0.2810
  295DG     C12 6774   2.920   4.947   2.583  0.5034 -0.4168 -0.2115
  295DG     H13 6775   3.222   5.437   2.507 -2.0449 -0.4251 -2.0406
  295DG     H14 6776   3.123   5.405   2.644 -0.5150  1.8679 -1.5946
  295DG     H15 6777   2.889   4.849   2.546  1.1808 -1.2109  1.2361
  295DG     H16 6778   2.998   4.925   2.656 -0.7002  0.0711  1.2637
  295DG     C17 6779   3.093   5.257   2.475 -0.1739 -0.5598 -0.1783
  295DG     C18 6780   2.996   5.038   2.483 -0.1364  0.3779  0.9359
  295DG     O19 6781   3.047   5.151   2.558  0.0067  0.4179 -0.1446
  295DG     H20 6782   3.161   5.242   2.392  1.0493  0.1760  0.6647
  295DG     H21 6783   3.001   5.301   2.435  0.5757  0.8471 -0.4225
  295DG     H22 6784   3.067   4.977   2.427 -0.5150 -0.5569  1.4404
  295DG     H23 6785   2.918   5.072   2.415  0.2326  0.7676  0.7065
  296DG      C1 6786   4.300   0.589   3.280  0.2579 -0.2756  0.4960
  296DG      C2 6787   4.227   0.713   3.651  0.1349  0.3328 -0.0320
  296DG      H3 6788   4.227   0.637   3.345  1.0220  0.4895  0.8069
  296DG      H4 6789   4.286   0.601   3.173  1.7633 -2.0981  0.0559
  296DG      H5 6790   4.392   0.636   3.315 -0.4731  3.6579 -2.1976
  296DG      H6 6791   4.225   0.785   3.569  0.1185  0.0027 -0.3242
  296DG      H7 6792   4.179   0.742   3.745 -0.7299 -0.2643 -0.2736
  296DG      H8 6793   4.334   0.709   3.671  0.1276 -1.6525 -0.2098
  296DG      O9 6794   4.306   0.447   3.302  0.3402 -0.2050 -0.1036
  296DG     O10 6795   4.200   0.582   3.614 -0.0262  0.5791  0.3249
  296DG     C11 6796   4.198   0.367   3.259  0.4425  0.0947  0.5025
  296DG     C12 6797   4.065   0.560   3.583  0.6510  0.8677  0.1772
  296DG     H13 6798   4.220   0.260   3.262  1.4581  0.2539 -0.4425
  296DG     H14 6799   4.187   0.386   3.152  0.9877  0.6019  0.5322
  296DG     H15 6800   4.035   0.614   3.493 -2.1965 -1.4403 -0.4020
  296DG     H16 6801   4.005   0.596   3.667 -1.5090  0.1236 -0.9899
  296DG     C17 6802   4.074   0.385   3.343 -0.6744  0.3680 -0.9900
  296DG     C18 6803   4.029   0.413   3.573 -0.2292  0.4695  0.2226
  296DG     O19 6804   4.115   0.359   3.481 -0.2174 -0.4509  0.7091
  296DG     H20 6805   3.996   0.309   3.330  0.7677 -1.0728 -1.4893
  296DG     H21 6806   4.024   0.481   3.328  0.1562  1.1007  0.6518
  296DG     H22 6807   4.032   0.373   3.674  3.5931  1.5281  0.6860
  296DG     H23 6808   3.929   0.402   3.530 -0.0904  2.3157 -0.7058
  297DG      C1 6809   0.694   4.466   2.613 -0.2981  0.0221  0.2383
  297DG      C2 6810   0.333   3.930   2.376  0.9529 -0.1900  0.3232
  297DG      H3 6811   0.768   4.386   2.614 -0.9973 -0.6696 -0.7258
  297DG      H4 6812   0.650   4.483   2.712  1.0549  1.0521  0.6847
  297DG      H5 6813   0.737   4.555   2.570 -1.2647  0.4338  0.0936
  297DG      H6 6814   0.417   3.886   2.322  2.6450  1.8224  1.1713
  297DG      H7 6815   0.331   3.906   2.482  0.3972  0.0868  0.3839
  297DG      H8 6816   0.247   3.872   2.343  0.8942  0.5518 -0.9062
  297DG      O9 6817   0.591   4.411   2.531  0.0517  0.3021 -0.0521
  297DG     O10 6818   0.339   4.074   2.350  0.1441  0.2561 -0.1718
  297DG     C11 6819   0.486   4.501   2.514 -0.3283 -0.4050  0.4062
  297DG     C12 6820   0.225   4.139   2.380 -0.0901  0.5297  0.4973
  297DG     H13 6821   0.527   4.595   2.479  1.2954 -1.4790 -0.6903
  297DG     H14 6822   0.430   4.523   2.605 -1.3801 -1.0919 -0.0619
  297DG     H15 6823   0.201   4.125   2.485 -0.1313  0.9122  0.5412
  297DG     H16 6824   0.138   4.103   2.325 -0.5161  3.3951 -0.8822
  297DG     C17 6825   0.397   4.454   2.396 -0.2578 -0.2419 -0.5049
  297DG     C18 6826   0.242   4.282   2.339 -0.5362 -0.1739 -0.0368
  297DG     O19 6827   0.341   4.329   2.429 -0.1781  0.3082 -0.2813
  297DG     H20 6828   0.439   4.442   2.297  0.1417 -1.6009 -0.1889
  297DG     H21 6829   0.319   4.529   2.388  2.0415  2.6073  1.6636
  297DG     H22 6830   0.256   4.279   2.231 -1.9505 -0.7712 -0.2232
  297DG     H23 6831   0.146   4.331   2.357 -1.1110 -0.6785 -1.5444
  298DG      C1 6832   1.607   4.329   2.343  0.0532 -0.3230 -0.2530
  298DG      C2 6833   1.555   3.547   2.555 -0.2374 -0.1469 -0.2504
  298DG      H3 6834   1.692   4.382   2.300 -0.9704  0.6592 -1.1176
  298DG      H4 6835   1.596   4.345   2.450 -0.6938 -2.0474 -0.0432
  298DG      H5 6836   1.525   4.353   2.277  1.3248 -0.1806 -1.8496
  298DG      H6 6837   1.532   3.577   2.657 -0.7473 -0.9323 -0.1296
  298DG      H7 6838   1.470   3.495   2.512  0.5580 -1.7672  0.0508
  298DG      H8 6839   1.636   3.474   2.563  1.5451  1.4819 -2.0634
  298DG      O9 6840   1.629   4.187   2.332  0.1389  0.5750 -0.6327
  298DG     O10 6841   1.596   3.659   2.472 -0.2439 -0.3065 -0.0302
  298DG     C11 6842   1.525   4.101   2.383  0.6003  0.0056 -0.5246
  298DG     C12 6843   1.727   3.699   2.492 -0.0197 -0.7975  0.4011
  298DG     H13 6844   1.431   4.118   2.331 -1.7120 -2.5509  2.3981
  298DG     H14 6845   1.504   4.120   2.488 -0.8648  2.2602 -1.1685
  298DG     H15 6846   1.787   3.608   2.481  0.1067 -0.8964  1.6877
  298DG     H16 6847   1.729   3.741   2.593  0.6622 -0.7079  0.3534
  298DG     C17 6848   1.575   3.956   2.350 -0.7261  0.1902  0.2842
  298DG     C18 6849   1.758   3.803   2.383  0.7608 -0.1573 -0.4877
  298DG     O19 6850   1.708   3.932   2.399  0.1225  0.2540 -0.0779
  298DG     H20 6851   1.583   3.930   2.245  1.2796 -1.4981  0.7921
  298DG     H21 6852   1.507   3.889   2.403 -0.7324 -0.3412 -0.3929
  298DG     H22 6853   1.862   3.832   2.396  0.7462  1.3057 -3.0328
  298DG     H23 6854   1.742   3.775   2.279 -0.7417  0.1737 -0.3720
  299DG      C1 6855   0.446   3.719   1.437  0.0110  0.4198  0.2395
  299DG      C2 6856   0.268   3.556   2.113 -0.0779 -0.2403 -0.1599
  299DG      H3 6857   0.437   3.690   1.333  0.8277  0.6204  0.1066
  299DG      H4 6858   0.540   3.706   1.492  0.7479  0.9707 -0.8651
  299DG      H5 6859   0.434   3.827   1.430 -0.4159  0.3795  0.3251
  299DG      H6 6860   0.349   3.483   2.116  1.8137  1.7789  0.4063
  299DG      H7 6861   0.311   3.650   2.147 -1.3492  0.4571 -0.4151
  299DG      H8 6862   0.197   3.525   2.189  2.1512  1.5730  2.8652
  299DG      O9 6863   0.346   3.663   1.524  0.2760  0.3778 -0.3402
  299DG     O10 6864   0.203   3.557   1.983  0.3183  0.3534 -0.7929
  299DG     C11 6865   0.216   3.715   1.507  0.6023 -0.4214  0.1412
  299DG     C12 6866   0.086   3.643   1.978 -0.6587 -0.0425 -0.0194
  299DG     H13 6867   0.182   3.728   1.404  1.8609  2.0670 -0.0367
  299DG     H14 6868   0.220   3.821   1.533  0.7140 -0.2016 -0.7466
  299DG     H15 6869   0.116   3.739   2.020 -1.4101  0.7594 -1.2533
  299DG     H16 6870   0.003   3.606   2.038 -0.2240 -0.2994  0.4327
  299DG     C17 6871   0.118   3.646   1.604 -0.0724  0.8241  0.1307
  299DG     C18 6872   0.043   3.655   1.829 -0.2238  0.0114  0.5962
  299DG     O19 6873   0.159   3.662   1.740 -0.4004 -0.4118 -0.1518
  299DG     H20 6874   0.087   3.542   1.590 -1.3008  1.3141 -0.9932
  299DG     H21 6875   0.031   3.712   1.594 -1.6682 -1.0703  0.7335
  299DG     H22 6876  -0.022   3.571   1.803  1.2972 -0.5359 -1.7738
  299DG     H23 6877  -0.025   3.740   1.821  0.7588  0.7993  0.4495
  300DG      C1 6878   4.124   3.780   4.145 -0.2769  0.6668  0.0165
  300DG      C2 6879   4.220   3.223   4.445  0.3201 -0.6974 -0.9028
  300DG      H3 6880   4.201   3.831   4.203  1.7496  0.9307 -2.7335
  300DG      H4 6881   4.058   3.846   4.089  2.4714  2.1553 -1.6712
  300DG      H5 6882   4.186   3.733   4.069 -0.2009 -0.5658  0.8014
  300DG      H6 6883   4.196   3.128   4.492  2.6776 -0.5380  0.7906
  300DG      H7 6884   4.286   3.206   4.360  2.1288 -0.9026  0.4807
  300DG      H8 6885   4.277   3.288   4.511  0.3557 -1.0904 -0.5448
  300DG      O9 6886   4.062   3.689   4.224  0.8000 -0.0369 -0.2066
  300DG     O10 6887   4.107   3.291   4.395  0.3643 -0.0701  0.4782
  300DG     C11 6888   4.003   3.738   4.338  0.0460 -0.5479 -0.0055
  300DG     C12 6889   4.011   3.329   4.501 -0.2579 -0.3295  0.2505
  300DG     H13 6890   3.942   3.826   4.319 -1.1288 -1.2211  0.5497
  300DG     H14 6891   4.085   3.769   4.403 -2.0126 -0.6985  2.8679
  300DG     H15 6892   4.073   3.389   4.567  1.9302 -0.2791 -1.6989
  300DG     H16 6893   3.975   3.238   4.549 -0.8829 -0.1539  0.1145
  300DG     C17 6894   3.926   3.627   4.411  0.2392  0.0059 -0.2594
  300DG     C18 6895   3.898   3.395   4.429 -0.1265  0.3127  0.4461
  300DG     O19 6896   3.957   3.501   4.357 -0.2734  0.0188 -0.6807
  300DG     H20 6897   3.818   3.634   4.398 -0.2468 -4.1142  0.2908
  300DG     H21 6898   3.948   3.635   4.517  2.3601  0.3096 -0.6795
  300DG     H22 6899   3.863   3.320   4.357 -0.2649 -0.3774  1.2212
  300DG     H23 6900   3.815   3.427   4.492 -1.7311 -2.7282  0.0952
  301DG      C1 6901   3.424   2.546   2.938 -0.0816  0.3021 -0.2708
  301DG      C2 6902   3.943   2.345   3.467  0.4898  0.0910 -0.4907
  301DG      H3 6903   3.337   2.582   2.884  0.8178 -0.8474 -2.6373
  301DG      H4 6904   3.499   2.520   2.863 -1.3872 -0.8588 -1.2261
  301DG      H5 6905   3.473   2.626   2.993  0.3239  0.2967 -0.6171
  301DG      H6 6906   3.945   2.287   3.559 -0.8754  2.2776  1.0073
  301DG      H7 6907   4.027   2.328   3.400 -0.6835 -2.9536 -1.3673
  301DG      H8 6908   3.961   2.442   3.513  1.3034 -0.6675  0.8576
  301DG      O9 6909   3.389   2.435   3.021  0.4274 -0.4212 -0.1006
  301DG     O10 6910   3.819   2.338   3.387  0.2683  0.7014  1.0971
  301DG     C11 6911   3.482   2.404   3.124 -0.4554 -0.6583  0.4705
  301DG     C12 6912   3.767   2.200   3.371  0.5168  0.2089  0.3856
  301DG     H13 6913   3.486   2.469   3.211  3.1237 -0.9342  0.6415
  301DG     H14 6914   3.586   2.413   3.096 -0.6606  1.7406  0.3135
  301DG     H15 6915   3.727   2.169   3.468  1.5066 -0.1897  0.6818
  301DG     H16 6916   3.855   2.145   3.338 -0.7600 -0.9747 -1.2175
  301DG     C17 6917   3.459   2.271   3.194  0.3380 -0.3346  0.6572
  301DG     C18 6918   3.675   2.188   3.255  0.8379  0.3658 -0.5012
  301DG     O19 6919   3.549   2.247   3.296 -0.0002 -0.2528 -0.3267
  301DG     H20 6920   3.449   2.189   3.123  0.6624 -0.1391  0.3851
  301DG     H21 6921   3.359   2.276   3.237  0.4171  0.9168  0.7352
  301DG     H22 6922   3.715   2.233   3.164 -1.1582  1.6661 -0.7847
  301DG     H23 6923   3.645   2.083   3.246 -0.0738  0.5314  0.5155
  302DG      C1 6924   2.752   0.328   1.941  0.4708  0.3157  0.7106
  302DG      C2 6925   2.375   0.462   2.500 -0.2002 -0.4649  0.6312
  302DG      H3 6926   2.855   0.361   1.953  1.1451 -1.0593 -0.8686
  302DG      H4 6927   2.754   0.300   1.836  2.1051 -2.0314  1.2843
  302DG      H5 6928   2.730   0.241   2.004 -3.4853 -0.1310 -0.9611
  302DG      H6 6929   2.321   0.408   2.578  2.2993  0.2791  3.0304
  302DG      H7 6930   2.479   0.455   2.530  0.1064 -0.0938 -0.3085
  302DG      H8 6931   2.340   0.564   2.487  0.2894 -0.4151 -0.3302
  302DG      O9 6932   2.646   0.416   1.972 -0.0266  0.0390  0.4489
  302DG     O10 6933   2.359   0.406   2.370 -0.0647  0.3261 -0.0886
  302DG     C11 6934   2.514   0.384   1.915 -0.6565 -0.4745  1.1577
  302DG     C12 6935   2.418   0.279   2.359 -0.4000 -0.1170 -0.7082
  302DG     H13 6936   2.511   0.343   1.814 -3.8718  0.0223  0.9561
  302DG     H14 6937   2.442   0.465   1.916 -0.6765 -0.4533 -0.0405
  302DG     H15 6938   2.363   0.215   2.427 -0.4229  0.5001 -0.1420
  302DG     H16 6939   2.523   0.283   2.389 -0.5267 -0.9443 -0.1257
  302DG     C17 6940   2.452   0.272   1.995  0.3012 -0.4238 -0.6837
  302DG     C18 6941   2.401   0.216   2.223 -0.0580  0.0246  0.3124
  302DG     O19 6942   2.460   0.305   2.128 -0.0637 -0.0355 -0.3760
  302DG     H20 6943   2.502   0.177   1.978  0.8588 -0.5417  1.3818
  302DG     H21 6944   2.346   0.267   1.973 -0.0026  0.8720  0.3580
  302DG     H22 6945   2.464   0.127   2.224 -0.4470 -0.2811  2.7983
  302DG     H23 6946   2.296   0.199   2.198 -0.0312  0.3264 -0.0099
  303DG      C1 6947   1.087   4.699   3.611 -0.2175 -0.5012 -0.0249
  303DG      C2 6948   1.604   5.196   4.054  0.1637 -0.5865 -0.4472
  303DG      H3 6949   1.050   4.798   3.585  1.0720  1.1968  3.8748
  303DG      H4 6950   1.018   4.616   3.600  0.1017 -0.9535  1.2603
  303DG      H5 6951   1.168   4.689   3.539 -1.0120  0.9821 -1.1771
  303DG      H6 6952   1.570   5.298   4.069 -0.2651 -0.8683  0.6177
  303DG      H7 6953   1.668   5.185   4.142  0.1671  2.7050  0.0557
  303DG      H8 6954   1.667   5.182   3.966 -0.3876 -2.0516 -0.6475
  303DG      O9 6955   1.135   4.696   3.744 -0.4485 -0.2143 -0.1366
  303DG     O10 6956   1.492   5.109   4.061 -0.0295 -0.6879 -0.5452
  303DG     C11 6957   1.211   4.816   3.777  0.3160  0.0106  0.1861
  303DG     C12 6958   1.519   4.971   4.045  0.3736  0.3762  0.1729
  303DG     H13 6959   1.148   4.878   3.842  0.4301  0.6296 -0.2813
  303DG     H14 6960   1.240   4.868   3.686  0.3778  1.1973  0.8591
  303DG     H15 6961   1.439   4.914   4.093  0.1304 -0.1156 -0.7921
  303DG     H16 6962   1.617   4.958   4.091  0.2549  2.3124  1.0316
  303DG     C17 6963   1.344   4.798   3.843  0.0086 -0.5871 -0.3967
  303DG     C18 6964   1.543   4.921   3.900 -0.0609  0.1930 -0.2684
  303DG     O19 6965   1.427   4.913   3.829  0.3197 -0.2106  0.1329
  303DG     H20 6966   1.385   4.714   3.786 -1.9233 -2.5656  0.9785
  303DG     H21 6967   1.340   4.766   3.947  2.1324  0.6817  0.1334
  303DG     H22 6968   1.616   4.985   3.850 -0.1434  0.7841  0.3537
  303DG     H23 6969   1.595   4.825   3.904 -1.3353 -0.5788 -1.2901
  304DG      C1 6970   4.161   2.197   5.177  0.3103  0.2106 -0.3796
  304DG      C2 6971   4.539   2.146   5.815  0.4111 -0.5327 -0.8902
  304DG      H3 6972   4.095   2.260   5.116 -1.5179 -0.0593  1.2224
  304DG      H4 6973   4.116   2.098   5.173 -1.3968  0.9733 -1.5181
  304DG      H5 6974   4.257   2.206   5.127 -0.0030  0.4938 -0.9456
  304DG      H6 6975   4.561   2.185   5.915  3.5803 -2.3326 -0.7476
  304DG      H7 6976   4.508   2.042   5.830 -0.0280 -0.4201 -1.0029
  304DG      H8 6977   4.639   2.154   5.771  1.8197  2.8076  2.3856
  304DG      O9 6978   4.170   2.250   5.312  1.0156 -0.0868 -0.1782
  304DG     O10 6979   4.441   2.227   5.752 -0.1222  1.1119 -0.4833
  304DG     C11 6980   4.060   2.225   5.394  0.4143 -0.1408 -0.1424
  304DG     C12 6981   4.316   2.217   5.816 -0.1713  0.2549 -0.2796
  304DG     H13 6982   4.027   2.121   5.396 -0.6413  0.1578 -0.8636
  304DG     H14 6983   3.974   2.269   5.344  0.2338  1.5041  1.5167
  304DG     H15 6984   4.318   2.265   5.913 -0.9563  0.2677 -0.2625
  304DG     H16 6985   4.286   2.114   5.835 -0.0343  0.0517 -1.0972
  304DG     C17 6986   4.082   2.303   5.526 -0.0357 -0.2443  0.1307
  304DG     C18 6987   4.207   2.292   5.733  0.1240 -0.2031 -0.1563
  304DG     O19 6988   4.185   2.237   5.608  0.3693 -0.1527  0.0642
  304DG     H20 6989   3.985   2.313   5.573 -0.7476  1.8890 -1.6089
  304DG     H21 6990   4.106   2.409   5.519 -2.2043  0.2778  0.0213
  304DG     H22 6991   4.107   2.298   5.776  0.3935 -1.1050  0.6495
  304DG     H23 6992   4.236   2.397   5.741 -0.9923  0.0982  0.2449
  305DG      C1 6993   4.006   1.661   1.003 -0.1050  0.1013 -0.2746
  305DG      C2 6994   3.577   1.742   0.648  0.4949  0.2675 -0.5770
  305DG      H3 6995   4.074   1.659   0.918  1.7422  1.7208  1.0696
  305DG      H4 6996   3.980   1.571   1.059 -1.6737  1.0131  0.5311
  305DG      H5 6997   4.049   1.739   1.065  0.5014  0.5863 -1.2826
  305DG      H6 6998   3.598   1.713   0.751  0.1771  1.6122 -0.1110
  305DG      H7 6999   3.484   1.693   0.618 -1.1738  2.6735  0.3247
  305DG      H8 7000   3.655   1.710   0.580 -0.7004 -1.4168 -1.2126
  305DG      O9 7001   3.878   1.709   0.964 -0.0650  0.1653  0.6535
  305DG     O10 7002   3.548   1.889   0.640 -0.7698  0.1713  0.2447
  305DG     C11 7003   3.803   1.771   1.064  0.0447  0.9724 -0.5260
  305DG     C12 7004   3.475   1.940   0.751  0.3348  0.5217 -0.5442
  305DG     H13 7005   3.865   1.811   1.144  0.1902  1.5097 -0.8989
  305DG     H14 7006   3.735   1.689   1.086  1.9643 -0.8126 -0.9410
  305DG     H15 7007   3.392   1.872   0.773  1.4389 -0.1657  1.8853
  305DG     H16 7008   3.426   2.030   0.713  1.7104  0.3329 -2.9645
  305DG     C17 7009   3.720   1.895   1.021 -0.7464  0.6650  0.2221
  305DG     C18 7010   3.566   1.982   0.860 -0.1629  0.1206 -0.4374
  305DG     O19 7011   3.628   1.868   0.919  0.0117  0.3535  0.4867
  305DG     H20 7012   3.796   1.965   0.985 -1.3180  0.4055 -1.5876
  305DG     H21 7013   3.658   1.942   1.097  0.5185  3.6597 -0.4304
  305DG     H22 7014   3.644   2.034   0.805  0.0260  0.6317  0.3060
  305DG     H23 7015   3.514   2.046   0.930  1.3686  2.5347 -1.3866
  306DG      C1 7016   3.373   4.962   1.515 -0.0374 -0.8446 -0.6089
  306DG      C2 7017   3.986   5.016   0.942  0.5645  0.5843 -0.4587
  306DG      H3 7018   3.330   4.883   1.577 -0.7960 -1.8919 -2.3819
  306DG      H4 7019   3.306   5.002   1.439 -0.1915  1.4919  0.6600
  306DG      H5 7020   3.392   5.048   1.579 -0.5703 -2.4033  1.7826
  306DG      H6 7021   3.919   4.980   0.864  0.2396  0.7670 -0.2701
  306DG      H7 7022   3.957   5.119   0.964 -2.5824  0.2269 -2.2022
  306DG      H8 7023   4.076   5.013   0.881  0.6817 -1.3936 -0.2498
  306DG      O9 7024   3.493   4.910   1.472 -0.7107  0.5106 -0.0658
  306DG     O10 7025   3.977   4.936   1.059  0.3429  0.1387  1.0365
  306DG     C11 7026   3.468   4.824   1.360 -0.0711 -0.1428  0.1507
  306DG     C12 7027   3.856   4.972   1.123  0.3918 -0.0789  0.7949
  306DG     H13 7028   3.404   4.867   1.283  0.8219  3.5181  1.2292
  306DG     H14 7029   3.422   4.732   1.395 -1.4605 -0.9706 -3.4530
  306DG     H15 7030   3.778   4.983   1.048  0.5176 -0.9612  0.5325
  306DG     H16 7031   3.865   5.064   1.182  2.3128 -0.5644  1.3530
  306DG     C17 7032   3.608   4.793   1.300  0.2749  0.2242 -0.1331
  306DG     C18 7033   3.807   4.865   1.217 -0.8754 -0.0569  0.6777
  306DG     O19 7034   3.675   4.905   1.247  0.0122 -0.4986 -0.0020
  306DG     H20 7035   3.603   4.713   1.226  0.5877 -1.8353  1.9212
  306DG     H21 7036   3.668   4.746   1.379  0.7927  0.1196 -0.5809
  306DG     H22 7037   3.820   4.762   1.182 -1.7771 -0.1342  0.5563
  306DG     H23 7038   3.864   4.874   1.310 -0.7115  1.1524  0.4741
  307DG      C1 7039   0.830   3.242   0.614  0.2722  0.1710 -0.1393
  307DG      C2 7040   0.965   3.117   1.398 -0.0103  0.0538  0.0843
  307DG      H3 7041   0.843   3.341   0.571  1.3983 -0.9221 -2.4881
  307DG      H4 7042   0.771   3.253   0.705  2.4529 -1.3661  1.5469
  307DG      H5 7043   0.772   3.183   0.541  0.6214  1.0401 -1.1484
  307DG      H6 7044   0.955   3.014   1.366 -2.6358  0.5615 -0.9572
  307DG      H7 7045   1.041   3.131   1.475  0.8991  2.9388 -1.2123
  307DG      H8 7046   0.871   3.139   1.448 -0.3546  0.4805 -0.7420
  307DG      O9 7047   0.955   3.192   0.653  0.2042  0.2562  0.1746
  307DG     O10 7048   0.979   3.210   1.292 -0.6014  0.6904  0.3097
  307DG     C11 7049   0.952   3.070   0.724  0.3391 -0.0757 -0.4285
  307DG     C12 7050   0.984   3.146   1.164  0.0028 -0.4476 -0.2526
  307DG     H13 7051   1.053   3.030   0.713  0.4135 -0.0247  0.0449
  307DG     H14 7052   0.888   2.994   0.679  0.6136  1.1734 -3.0541
  307DG     H15 7053   0.923   3.058   1.141  1.0918 -0.9630 -1.2930
  307DG     H16 7054   1.085   3.107   1.149 -0.1513 -1.3381  0.9019
  307DG     C17 7055   0.932   3.088   0.876 -0.4225 -0.1166 -0.4668
  307DG     C18 7056   0.952   3.247   1.056 -0.0686  0.0402 -0.1697
  307DG     O19 7057   1.003   3.204   0.924 -0.1341 -0.2604 -0.7754
  307DG     H20 7058   0.984   3.009   0.930 -0.4685  0.0002 -0.2517
  307DG     H21 7059   0.830   3.097   0.912  0.1392  1.7514  0.8140
  307DG     H22 7060   0.845   3.269   1.057 -0.1850 -0.3225 -1.6071
  307DG     H23 7061   1.001   3.341   1.082 -0.7640  0.1872  0.6356
  308DG      C1 7062   1.197   2.900   5.315  0.0395 -0.0504 -0.1298
  308DG      C2 7063   1.674   2.497   5.512 -0.3819  0.7004 -0.9990
  308DG      H3 7064   1.151   2.958   5.235  1.0061  1.0623  0.0936
  308DG      H4 7065   1.250   2.971   5.377 -2.3934  0.6289  1.2956
  308DG      H5 7066   1.125   2.850   5.379 -0.0333 -0.3039 -0.4069
  308DG      H6 7067   1.637   2.408   5.562 -0.2304  1.2990  0.2090
  308DG      H7 7068   1.782   2.486   5.500 -0.0504 -0.2326  1.9880
  308DG      H8 7069   1.671   2.585   5.577 -2.9342  1.8523 -2.5134
  308DG      O9 7070   1.288   2.813   5.252  0.5102 -0.3857 -0.6761
  308DG     O10 7071   1.609   2.535   5.390 -0.2926  0.7723  0.3367
  308DG     C11 7072   1.221   2.707   5.189 -0.6664  0.4510  0.1143
  308DG     C12 7073   1.586   2.426   5.303 -0.1433  0.8857 -0.2331
  308DG     H13 7074   1.155   2.735   5.106 -0.3490 -2.4890 -1.2414
  308DG     H14 7075   1.172   2.664   5.277 -0.3766 -0.4135 -0.1443
  308DG     H15 7076   1.521   2.350   5.346  1.3093 -0.1217  0.2485
  308DG     H16 7077   1.676   2.368   5.285 -1.4841 -1.4786  0.3024
  308DG     C17 7078   1.319   2.615   5.125  0.1359 -0.4748  0.8988
  308DG     C18 7079   1.514   2.498   5.181 -0.0298  0.8097  0.2039
  308DG     O19 7080   1.405   2.567   5.223  0.7062 -0.5758  0.2297
  308DG     H20 7081   1.371   2.668   5.045 -0.2441 -0.2344  0.8048
  308DG     H21 7082   1.256   2.536   5.082 -1.2366  0.5775  0.9011
  308DG     H22 7083   1.581   2.566   5.129  0.3364  0.8433  0.7074
  308DG     H23 7084   1.488   2.419   5.110  1.4633 -0.5881  1.1308
  309DG      C1 7085   0.744   5.306   0.152  0.4179  0.6168  0.2540
  309DG      C2 7086   0.093   5.014   0.213  0.0171  0.8054 -0.0256
  309DG      H3 7087   0.706   5.404   0.183  2.3627  1.3436  0.5145
  309DG      H4 7088   0.716   5.307   0.047 -1.1339 -0.4428  0.6326
  309DG      H5 7089   0.852   5.299   0.170  0.3178  0.3809  0.7912
  309DG      H6 7090   0.039   5.108   0.206 -0.8367  0.2716 -0.7107
  309DG      H7 7091   0.090   4.981   0.109 -0.5339 -0.0201  0.2459
  309DG      H8 7092   0.026   4.943   0.260  0.6901  0.1205 -0.0793
  309DG      O9 7093   0.665   5.216   0.227  0.1297  0.4769  0.0229
  309DG     O10 7094   0.228   5.005   0.261  0.4685  0.7246 -0.1148
  309DG     C11 7095   0.713   5.083   0.224  0.1028  1.5339  0.0862
  309DG     C12 7096   0.273   4.869   0.254 -0.1427  0.6362  0.0720
  309DG     H13 7097   0.816   5.081   0.259  1.4738  0.5970 -3.5080
  309DG     H14 7098   0.721   5.048   0.121 -1.4270 -0.3391  0.5393
  309DG     H15 7099   0.284   4.825   0.155  0.5783 -2.6307  1.4920
  309DG     H16 7100   0.211   4.803   0.314  0.5986 -1.1871 -1.0891
  309DG     C17 7101   0.619   4.988   0.306  0.8265 -0.3066 -0.8126
  309DG     C18 7102   0.418   4.865   0.302  0.1450  0.5545 -0.4451
  309DG     O19 7103   0.489   4.972   0.243  0.1941  0.3863 -0.3036
  309DG     H20 7104   0.604   5.031   0.405 -4.2749 -2.3587 -0.3632
  309DG     H21 7105   0.668   4.891   0.297 -0.3431 -0.8364 -1.6908
  309DG     H22 7106   0.418   4.881   0.410  4.1568 -1.6402  0.0549
  309DG     H23 7107   0.468   4.772   0.275  0.6301  0.9578 -0.9303
  310DG      C1 7108   0.787   0.191   2.920  0.1143  0.0136  0.4236
  310DG      C2 7109   1.360  -0.075   2.532  0.0197 -0.2495 -0.3427
  310DG      H3 7110   0.689   0.143   2.926  0.4567 -1.2345 -2.2593
  310DG      H4 7111   0.772   0.299   2.913 -1.1411 -0.2109 -1.2002
  310DG      H5 7112   0.831   0.176   3.018 -0.1740  0.6781  0.6608
  310DG      H6 7113   1.377  -0.000   2.455 -0.6636 -1.0330 -1.2739
  310DG      H7 7114   1.423  -0.040   2.614 -0.9394 -0.8312  0.6655
  310DG      H8 7115   1.404  -0.172   2.509 -0.3008 -0.1921 -1.2228
  310DG      O9 7116   0.865   0.134   2.818  0.3877  0.3286 -0.8108
  310DG     O10 7117   1.225  -0.079   2.562  0.1899  0.0961 -0.1352
  310DG     C11 7118   0.811   0.159   2.689  0.4879  0.1646 -0.6708
  310DG     C12 7119   1.146  -0.094   2.447  0.3649 -0.0395 -0.2781
  310DG     H13 7120   0.865   0.249   2.660  2.0797  0.1100  1.8056
  310DG     H14 7121   0.703   0.169   2.680  0.1991  2.5562  2.8891
  310DG     H15 7122   1.168  -0.191   2.403 -0.2719  0.2363 -1.2307
  310DG     H16 7123   1.170  -0.022   2.368  1.0788 -1.4623 -1.4042
  310DG     C17 7124   0.840   0.050   2.595 -0.1036  0.2388  0.1722
  310DG     C18 7125   0.995  -0.081   2.476 -0.2109 -0.6882  0.1112
  310DG     O19 7126   0.975   0.034   2.570 -0.7160 -0.1819  0.6488
  310DG     H20 7127   0.784   0.059   2.502 -1.1377 -1.7766  0.5333
  310DG     H21 7128   0.803  -0.045   2.634  2.4209 -2.4213 -3.3556
  310DG     H22 7129   0.932  -0.067   2.389  1.1256 -1.5099 -1.0263
  310DG     H23 7130   0.954  -0.170   2.525 -0.6495 -1.0466 -0.8812
  311DG      C1 7131   0.920   1.451   2.889  0.0009 -0.2433  0.0542
  311DG      C2 7132   0.978   1.104   3.473  0.0248  0.1279 -0.4902
  311DG      H3 7133   0.837   1.456   2.818 -1.0943 -0.5643  1.2796
  311DG      H4 7134   0.996   1.378   2.864  1.9656  1.2921  1.2699
  311DG      H5 7135   0.976   1.543   2.875 -1.0909  0.1222 -2.4212
  311DG      H6 7136   0.973   1.011   3.416 -0.1757 -0.2776  0.1857
  311DG      H7 7137   1.082   1.134   3.480 -0.2572  0.8138  0.9582
  311DG      H8 7138   0.945   1.073   3.572 -0.3490  2.6458  0.2341
  311DG      O9 7139   0.884   1.446   3.022  0.7102 -0.1362 -0.4196
  311DG     O10 7140   0.891   1.199   3.411  0.1834 -0.2651  0.0208
  311DG     C11 7141   0.849   1.576   3.078  0.1552  0.6208 -0.1360
  311DG     C12 7142   0.878   1.317   3.495 -0.4790  0.3319  0.8316
  311DG     H13 7143   0.781   1.615   3.003  0.5026 -1.4737 -1.6441
  311DG     H14 7144   0.943   1.631   3.068  0.3327  0.2664 -0.4574
  311DG     H15 7145   0.978   1.350   3.521  0.0385 -0.2640 -0.3145
  311DG     H16 7146   0.831   1.294   3.591  1.8528  0.5262  2.0844
  311DG     C17 7147   0.792   1.554   3.218 -0.2764 -0.5390 -0.2590
  311DG     C18 7148   0.797   1.423   3.411 -0.0089  0.1674 -0.0311
  311DG     O19 7149   0.871   1.469   3.296  0.3758  0.0571 -0.1650
  311DG     H20 7150   0.690   1.521   3.198 -0.4797 -0.9169  1.2738
  311DG     H21 7151   0.777   1.647   3.272  0.1474 -1.4938  1.5945
  311DG     H22 7152   0.709   1.369   3.377 -1.7996  3.9242 -2.0437
  311DG     H23 7153   0.766   1.511   3.467 -1.1453 -0.9628  1.1677
  312DG      C1 7154   1.121   2.804   4.106  0.2597 -0.1689  0.8036
  312DG      C2 7155   1.661   2.636   3.860  0.5347  0.0198  0.6977
  312DG      H3 7156   1.034   2.823   4.169 -1.2615  1.5545 -1.6332
  312DG      H4 7157   1.102   2.725   4.032 -0.2536  0.5605  0.1397
  312DG      H5 7158   1.119   2.898   4.052 -1.2935 -0.1534  0.8463
  312DG      H6 7159   1.765   2.604   3.863  0.5783  0.1936  1.1289
  312DG      H7 7160   1.606   2.550   3.824  0.9842  0.8562 -2.2782
  312DG      H8 7161   1.655   2.719   3.789 -1.3639 -1.4050 -0.9157
  312DG      O9 7162   1.240   2.787   4.178 -0.3603 -0.8244 -0.1062
  312DG     O10 7163   1.633   2.670   3.991 -0.5206 -0.3017  0.6554
  312DG     C11 7164   1.228   2.690   4.278 -0.2284 -0.0261 -0.6183
  312DG     C12 7165   1.658   2.577   4.094 -0.1133  0.2701  0.0306
  312DG     H13 7166   1.183   2.598   4.240 -0.4504 -0.2886  0.2586
  312DG     H14 7167   1.164   2.724   4.359  0.1665 -0.0292 -0.3046
  312DG     H15 7168   1.765   2.576   4.116 -0.1707  1.1764  0.3964
  312DG     H16 7169   1.630   2.480   4.055 -1.4777  0.5646  0.2240
  312DG     C17 7170   1.370   2.637   4.318  0.2795 -0.2178 -0.4520
  312DG     C18 7171   1.583   2.601   4.227  0.0095 -0.3346 -0.0360
  312DG     O19 7172   1.447   2.631   4.199  0.4681 -0.2714 -0.2924
  312DG     H20 7173   1.372   2.541   4.370  1.8760  0.8849  1.6761
  312DG     H21 7174   1.409   2.710   4.389  2.1610  0.1706 -1.8089
  312DG     H22 7175   1.590   2.509   4.284  0.4972 -0.5806 -0.4875
  312DG     H23 7176   1.625   2.684   4.284 -0.5490 -0.7479  1.0062
  313DG      C1 7177   1.378   0.805   0.318  0.5095 -0.1836 -0.2726
  313DG      C2 7178   1.276   0.445  -0.266  0.6807  0.0823 -0.1045
  313DG      H3 7179   1.332   0.903   0.330 -0.0856 -0.5946  0.9445
  313DG      H4 7180   1.470   0.830   0.264 -1.6603  1.6820 -3.5110
  313DG      H5 7181   1.395   0.758   0.415  2.1176  1.5535  0.3608
  313DG      H6 7182   1.240   0.437  -0.368  1.2473  0.7691 -0.3668
  313DG      H7 7183   1.383   0.458  -0.280  0.2180  2.1336 -2.5119
  313DG      H8 7184   1.259   0.352  -0.211  0.2374  0.4415  0.3774
  313DG      O9 7185   1.301   0.726   0.223  0.0522 -0.0956  0.4330
  313DG     O10 7186   1.209   0.536  -0.185 -0.1766 -0.3505 -0.2367
  313DG     C11 7187   1.164   0.715   0.275 -0.5372 -0.0978  0.0555
  313DG     C12 7188   1.082   0.492  -0.146 -0.3095 -0.8452 -0.1554
  313DG     H13 7189   1.130   0.800   0.335 -0.1949  0.4923 -0.5761
  313DG     H14 7190   1.165   0.642   0.356  1.0470  0.3499  0.4794
  313DG     H15 7191   1.092   0.395  -0.097  3.3863 -0.7968 -0.4997
  313DG     H16 7192   1.018   0.493  -0.234 -1.4952 -0.7342  0.6794
  313DG     C17 7193   1.056   0.689   0.172 -0.3967 -0.5420  0.0216
  313DG     C18 7194   1.020   0.587  -0.037 -0.1584  0.4625 -0.1466
  313DG     O19 7195   1.113   0.613   0.064 -0.1659 -0.7076 -0.3607
  313DG     H20 7196   1.027   0.786   0.130  2.5283  0.3426 -0.1976
  313DG     H21 7197   0.971   0.632   0.211 -2.5034 -0.2691 -3.6486
  313DG     H22 7198   1.005   0.685  -0.083  0.0388 -0.6289 -2.7448
  313DG     H23 7199   0.936   0.542   0.015  0.7622  0.6048  1.5281
  314DG      C1 7200   0.058   3.235   2.576 -0.6769  0.1858 -0.2174
  314DG      C2 7201   0.714   3.120   2.660  0.3171  0.4717 -0.6731
  314DG      H3 7202  -0.007   3.291   2.643 -1.9570 -1.3523 -0.1160
  314DG      H4 7203   0.055   3.133   2.615 -1.1637  0.7844  1.3810
  314DG      H5 7204   0.023   3.222   2.473  0.3535  2.3384 -0.8974
  314DG      H6 7205   0.656   3.039   2.703 -0.7102  0.4383 -2.0367
  314DG      H7 7206   0.727   3.094   2.554  1.3007  0.0064 -0.4535
  314DG      H8 7207   0.814   3.121   2.703  0.6162 -2.2563 -1.1371
  314DG      O9 7208   0.188   3.279   2.571  0.1373 -0.2343  0.3023
  314DG     O10 7209   0.618   3.215   2.659  0.1392 -0.0736  0.8040
  314DG     C11 7210   0.192   3.419   2.528 -0.3092  0.4109  0.5601
  314DG     C12 7211   0.663   3.336   2.607 -0.7874  0.3335 -0.3407
  314DG     H13 7212   0.113   3.479   2.573 -0.6328 -0.2329  0.8552
  314DG     H14 7213   0.187   3.414   2.419  0.9110 -1.5317  0.5364
  314DG     H15 7214   0.703   3.319   2.507 -0.6585 -0.0678 -0.2231
  314DG     H16 7215   0.749   3.353   2.671 -0.2683 -2.6962 -0.0677
  314DG     C17 7216   0.320   3.474   2.580  0.4090 -0.0298  0.1364
  314DG     C18 7217   0.548   3.439   2.617 -0.1368  0.1810 -0.0010
  314DG     O19 7218   0.433   3.403   2.543  0.5385  0.0485  0.2208
  314DG     H20 7219   0.305   3.452   2.686 -1.6676  0.9143  0.0890
  314DG     H21 7220   0.326   3.582   2.564 -2.6373  0.6836  2.7840
  314DG     H22 7221   0.520   3.462   2.720 -0.2322 -0.3601  0.0962
  314DG     H23 7222   0.580   3.540   2.592 -0.1113  0.0567 -0.4811
  315DG      C1 7223   4.134   2.513   4.923  0.0558  0.4165 -0.3499
  315DG      C2 7224   4.402   2.530   5.536  0.0759  0.6046  0.4786
  315DG      H3 7225   4.126   2.621   4.914 -0.3410  0.4763  0.5495
  315DG      H4 7226   4.040   2.477   4.966  1.0449 -1.5366  0.2948
  315DG      H5 7227   4.136   2.459   4.829 -0.9412 -1.7907  0.8204
  315DG      H6 7228   4.464   2.448   5.572  0.1480  0.2402 -0.4391
  315DG      H7 7229   4.417   2.625   5.588  2.5848  0.2200  0.5559
  315DG      H8 7230   4.295   2.511   5.538  0.1895  0.0258  1.1117
  315DG      O9 7231   4.245   2.476   5.002  0.5585 -0.1271  0.1446
  315DG     O10 7232   4.429   2.536   5.395 -0.9154  0.2252  0.4311
  315DG     C11 7233   4.366   2.471   4.930 -0.0108  0.0605 -0.0648
  315DG     C12 7234   4.555   2.587   5.354 -0.0175  1.0644 -0.2855
  315DG     H13 7235   4.390   2.568   4.886 -0.8716 -0.2859 -1.3364
  315DG     H14 7236   4.372   2.387   4.860 -0.7269  0.3242 -0.4529
  315DG     H15 7237   4.626   2.565   5.433  0.0395 -0.5303 -0.7479
  315DG     H16 7238   4.544   2.694   5.338 -0.2098  1.1646  0.4921
  315DG     C17 7239   4.477   2.442   5.033 -0.2775 -0.2434  0.2411
  315DG     C18 7240   4.592   2.506   5.228  0.9101  0.3878  0.2158
  315DG     O19 7241   4.477   2.523   5.150 -0.1698 -0.1751 -0.4247
  315DG     H20 7242   4.574   2.453   4.984  0.2281 -0.9635  1.0394
  315DG     H21 7243   4.467   2.337   5.059 -0.7325 -0.1200  0.5675
  315DG     H22 7244   4.674   2.554   5.176 -0.4262  0.5078 -1.8978
  315DG     H23 7245   4.614   2.401   5.248 -0.7968  0.2931  1.9226
  316DG      C1 7246   0.482   2.145   2.875  0.0879 -0.1820 -0.1735
  316DG      C2 7247   0.484   1.761   3.338  0.7878  0.3073  0.2170
  316DG      H3 7248   0.442   2.246   2.875 -0.6346 -0.4493  0.7801
  316DG      H4 7249   0.555   2.157   2.955  0.8849 -0.4145 -0.8601
  316DG      H5 7250   0.410   2.074   2.917  0.2270  0.1756  0.6956
  316DG      H6 7251   0.569   1.758   3.406  1.0574  0.7116 -0.0964
  316DG      H7 7252   0.447   1.862   3.354  0.5071 -0.2224  3.6530
  316DG      H8 7253   0.403   1.691   3.360  2.0073 -0.9374  0.8580
  316DG      O9 7254   0.540   2.098   2.760 -0.0113 -0.0040  0.2439
  316DG     O10 7255   0.530   1.749   3.207  0.0683  0.0059 -0.7649
  316DG     C11 7256   0.659   2.020   2.767  0.2722  0.9324 -0.1206
  316DG     C12 7257   0.436   1.750   3.108  0.0744 -0.7931 -0.2068
  316DG     H13 7258   0.741   2.051   2.831  0.8747 -1.8688  0.5853
  316DG     H14 7259   0.705   2.019   2.668  2.2735  1.9550  0.7402
  316DG     H15 7260   0.369   1.836   3.108 -0.0881 -0.8886  1.4221
  316DG     H16 7261   0.378   1.663   3.139  0.5217 -0.3627  2.0290
  316DG     C17 7262   0.620   1.870   2.806  0.3524  0.3535  0.4518
  316DG     C18 7263   0.504   1.728   2.972  0.3673 -0.4272 -0.4794
  316DG     O19 7264   0.569   1.856   2.944  0.4800 -0.7944  0.3443
  316DG     H20 7265   0.717   1.821   2.801 -0.3463 -0.9294 -1.4972
  316DG     H21 7266   0.549   1.825   2.737 -0.9456 -0.9997  2.5358
  316DG     H22 7267   0.572   1.644   2.977 -1.3561 -1.9062 -0.7833
  316DG     H23 7268   0.431   1.706   2.894  0.3009 -1.8555 -0.0429
  317DG      C1 7269   2.675   1.413   3.791 -0.4714  0.0537  0.3599
  317DG      C2 7270   2.227   0.884   3.900 -0.0858  0.3389  0.1303
  317DG      H3 7271   2.772   1.394   3.838 -0.2410 -0.8647 -0.4522
  317DG      H4 7272   2.602   1.451   3.862  0.4928  0.3674  1.2165
  317DG      H5 7273   2.717   1.485   3.719  1.5488 -1.4684 -0.0818
  317DG      H6 7274   2.201   0.780   3.878 -1.0992  0.5175  0.4337
  317DG      H7 7275   2.277   0.863   3.995 -1.1534 -1.8956  0.2617
  317DG      H8 7276   2.129   0.928   3.912 -1.0441 -1.0248 -2.0381
  317DG      O9 7277   2.631   1.288   3.737  0.0625  0.1304  0.3518
  317DG     O10 7278   2.312   0.938   3.794  0.1213  0.2137  0.0522
  317DG     C11 7279   2.557   1.306   3.621 -0.2105  0.4224 -0.0611
  317DG     C12 7280   2.249   0.957   3.667  0.3626 -1.0698  0.2567
  317DG     H13 7281   2.610   1.370   3.550  1.2407 -1.4097 -0.7206
  317DG     H14 7282   2.458   1.347   3.636 -1.4371 -1.8711 -1.3540
  317DG     H15 7283   2.169   1.030   3.680  2.4014  1.3071  0.2355
  317DG     H16 7284   2.204   0.862   3.638  0.3509 -1.0029  0.0487
  317DG     C17 7285   2.531   1.172   3.549  0.1027 -0.7244  0.3205
  317DG     C18 7286   2.349   1.001   3.565  0.2275 -0.5176  0.3545
  317DG     O19 7287   2.422   1.109   3.619  0.2260 -0.0927 -0.1894
  317DG     H20 7288   2.618   1.106   3.554 -1.0326 -2.3190 -0.0495
  317DG     H21 7289   2.506   1.187   3.444  0.8453 -1.4827  0.0193
  317DG     H22 7290   2.425   0.926   3.544 -0.1969 -1.4022  1.8553
  317DG     H23 7291   2.292   1.033   3.478 -1.5549  1.7956  2.2268
  318DG      C1 7292   1.361   5.479   0.119  0.1202  0.8782  0.4975
  318DG      C2 7293   0.628   5.712   0.383  1.1922 -0.0494 -0.3136
  318DG      H3 7294   1.401   5.429   0.031 -0.5509  0.7357  0.2633
  318DG      H4 7295   1.355   5.406   0.199  0.2951 -0.6168 -0.8015
  318DG      H5 7296   1.442   5.548   0.142  2.9194 -1.5769 -1.2996
  318DG      H6 7297   0.690   5.759   0.460  1.4674 -0.5404 -0.2303
  318DG      H7 7298   0.547   5.781   0.359  1.6874 -0.0836 -2.2222
  318DG      H8 7299   0.584   5.621   0.425 -0.7888  0.4800 -1.1261
  318DG      O9 7300   1.247   5.558   0.092 -0.3077 -0.4011 -0.1358
  318DG     O10 7301   0.715   5.686   0.269 -0.3251  0.5799 -0.4662
  318DG     C11 7302   1.130   5.484   0.089  0.1585  0.0725  0.2360
  318DG     C12 7303   0.798   5.795   0.241  0.7476 -0.5398 -0.0816
  318DG     H13 7304   1.111   5.443   0.189 -0.8101 -0.6276 -0.2201
  318DG     H14 7305   1.152   5.397   0.028 -0.1512 -0.7711  1.2956
  318DG     H15 7306   0.846   5.836   0.330 -2.5693 -2.9039  3.1484
  318DG     H16 7307   0.741   5.878   0.199 -0.0519 -0.4029  1.2101
  318DG     C17 7308   1.014   5.572   0.048  0.6984 -0.3379 -0.7707
  318DG     C18 7309   0.899   5.767   0.135  0.0554  1.1922  0.3900
  318DG     O19 7310   0.973   5.650   0.156 -0.3824 -0.2285  0.2393
  318DG     H20 7311   0.928   5.516   0.011  0.6981 -0.4984 -0.5331
  318DG     H21 7312   1.050   5.632  -0.035  0.3370  0.8410 -0.0916
  318DG     H22 7313   0.859   5.747   0.035  1.4834  1.7268 -0.3238
  318DG     H23 7314   0.969   5.850   0.122 -0.7535  1.8859  0.3716
  319DG      C1 7315   4.963   3.366   1.236 -0.1481 -0.0659 -0.1839
  319DG      C2 7316   5.603   2.871   1.224 -0.3475  0.3816  0.2407
  319DG      H3 7317   4.894   3.398   1.314 -0.6917  0.0909 -0.7219
  319DG      H4 7318   4.911   3.298   1.168  0.3578  1.8358 -2.6147
  319DG      H5 7319   5.000   3.451   1.179  1.5343 -0.5108  0.1670
  319DG      H6 7320   5.677   2.791   1.231  0.1743  0.9486  1.6972
  319DG      H7 7321   5.527   2.836   1.154  0.2901 -0.3664 -0.1021
  319DG      H8 7322   5.660   2.960   1.198  1.3490 -1.1504 -1.6611
  319DG      O9 7323   5.080   3.299   1.282  0.4148  0.1928 -0.4490
  319DG     O10 7324   5.550   2.900   1.349  0.1282 -0.0747  0.4944
  319DG     C11 7325   5.166   3.370   1.380  0.2671  0.3145 -0.2715
  319DG     C12 7326   5.417   2.951   1.347 -0.5708  0.7786 -0.0046
  319DG     H13 7327   5.125   3.350   1.479 -0.7090 -2.4223 -1.1511
  319DG     H14 7328   5.173   3.475   1.352  0.5237  1.2971  2.9734
  319DG     H15 7329   5.373   2.937   1.445 -0.0749  3.1411  0.6228
  319DG     H16 7330   5.346   2.906   1.278  0.4648  1.2699 -1.4618
  319DG     C17 7331   5.301   3.301   1.363  0.1896 -0.4758 -0.0921
  319DG     C18 7332   5.422   3.099   1.327  0.2759 -0.3953  0.5981
  319DG     O19 7333   5.299   3.162   1.382  0.2178  0.3717  0.3806
  319DG     H20 7334   5.371   3.345   1.434  1.2755 -1.4280 -0.5425
  319DG     H21 7335   5.347   3.325   1.267 -0.1460  0.2210 -0.0859
  319DG     H22 7336   5.516   3.142   1.364  0.0716  0.6164 -0.0262
  319DG     H23 7337   5.426   3.124   1.221  1.4222  0.9676  0.9188
  320DG      C1 7338   4.102   3.544   2.466  0.1525 -0.1623 -0.7952
  320DG      C2 7339   3.587   3.968   2.721 -0.3229 -0.7403 -0.0037
  320DG      H3 7340   4.116   3.445   2.421 -1.7785 -1.0272  0.3891
  320DG      H4 7341   4.178   3.565   2.541 -0.4595  0.2816 -0.2872
  320DG      H5 7342   4.111   3.621   2.389  1.3628 -0.5094 -1.0332
  320DG      H6 7343   3.641   4.026   2.796 -0.3122 -0.5462 -0.1622
  320DG      H7 7344   3.554   4.042   2.648 -1.2690 -1.4595 -0.3322
  320DG      H8 7345   3.514   3.933   2.794  0.6326 -0.4592  1.1255
  320DG      O9 7346   3.973   3.535   2.517 -0.1556  0.1584  0.5349
  320DG     O10 7347   3.642   3.846   2.670 -0.1400  0.1309  0.0326
  320DG     C11 7348   3.871   3.515   2.424 -0.0959  0.2066 -0.8020
  320DG     C12 7349   3.549   3.769   2.599 -0.9833 -0.3749  0.3521
  320DG     H13 7350   3.897   3.436   2.354  2.9740  0.9394 -0.6248
  320DG     H14 7351   3.854   3.611   2.376  0.5016  0.9580  0.4087
  320DG     H15 7352   3.493   3.842   2.541 -0.1210  1.4669  1.7332
  320DG     H16 7353   3.466   3.729   2.657 -1.3180 -1.6033 -0.9246
  320DG     C17 7354   3.747   3.469   2.500 -0.0208 -0.4960  0.5582
  320DG     C18 7355   3.610   3.661   2.501  0.1094  0.8908 -0.6449
  320DG     O19 7356   3.705   3.583   2.575 -0.0853  0.0399 -0.0808
  320DG     H20 7357   3.774   3.394   2.574 -0.0087 -0.1648  0.8904
  320DG     H21 7358   3.675   3.426   2.430 -1.4353  1.7547  0.5483
  320DG     H22 7359   3.528   3.594   2.477  1.5057 -0.5329 -1.6822
  320DG     H23 7360   3.643   3.711   2.411 -1.1875  0.3597 -1.4427
  321DG      C1 7361   4.277   3.354   0.888  0.3682  0.0156  0.0155
  321DG      C2 7362   3.578   3.097   0.929  0.0038  0.0718  0.1628
  321DG      H3 7363   4.329   3.438   0.841 -0.3520 -0.2909 -1.3671
  321DG      H4 7364   4.344   3.269   0.884  1.7559  1.0582  0.3366
  321DG      H5 7365   4.258   3.384   0.991 -0.6742  0.9103 -0.4168
  321DG      H6 7366   3.482   3.064   0.890 -1.3908  2.3431  1.4146
  321DG      H7 7367   3.614   3.015   0.991  0.8251  0.2285 -0.1054
  321DG      H8 7368   3.554   3.180   0.996 -0.6120  0.9806 -1.1399
  321DG      O9 7369   4.153   3.335   0.816  0.2503 -0.4063 -0.2078
  321DG     O10 7370   3.668   3.143   0.833 -0.0280 -0.1348 -0.4220
  321DG     C11 7371   4.073   3.443   0.789  0.3413  0.0107  0.0532
  321DG     C12 7372   3.626   3.258   0.751  0.2870 -0.0946  0.2530
  321DG     H13 7373   4.144   3.512   0.743 -0.6876  0.8872 -0.2403
  321DG     H14 7374   4.027   3.489   0.877  0.4666  0.4717 -0.1211
  321DG     H15 7375   3.598   3.353   0.796  0.7935  0.8508 -1.3425
  321DG     H16 7376   3.542   3.228   0.689 -0.3692  0.8934  0.6345
  321DG     C17 7377   3.955   3.407   0.685  0.1083  0.3503 -0.0846
  321DG     C18 7378   3.748   3.283   0.662  0.0330 -0.0013 -0.4154
  321DG     O19 7379   3.843   3.341   0.749 -0.6393  0.2009  0.4566
  321DG     H20 7380   3.992   3.355   0.596  4.6576  0.9591  1.1799
  321DG     H21 7381   3.930   3.504   0.642 -0.5713  0.7985  1.2939
  321DG     H22 7382   3.794   3.195   0.618  0.6328 -0.3653  0.8761
  321DG     H23 7383   3.728   3.359   0.586 -0.9073  0.1880  0.0011
  322DG      C1 7384   0.416   1.095   4.494  0.7645 -0.9024  0.3152
  322DG      C2 7385   0.322   0.416   4.461  0.3025  0.5714 -0.4312
  322DG      H3 7386   0.481   1.102   4.581 -2.8909 -1.2212  3.3624
  322DG      H4 7387   0.371   1.194   4.488  4.0837  0.6442 -2.7289
  322DG      H5 7388   0.479   1.080   4.407  1.9941 -1.1901  1.2253
  322DG      H6 7389   0.274   0.320   4.442  0.7269  0.7039 -2.3450
  322DG      H7 7390   0.361   0.442   4.363 -0.2027 -2.2493 -1.4761
  322DG      H8 7391   0.404   0.404   4.531 -1.2341  0.3680  1.4425
  322DG      O9 7392   0.330   0.983   4.509 -0.0075  0.3879  0.6613
  322DG     O10 7393   0.233   0.510   4.514  0.5390 -0.1445  0.2986
  322DG     C11 7394   0.218   0.994   4.419  0.7256  0.1985 -0.1210
  322DG     C12 7395   0.102   0.517   4.456 -0.0611 -0.5864  0.2745
  322DG     H13 7396   0.232   0.975   4.312 -0.7003  0.7727 -0.4414
  322DG     H14 7397   0.156   1.084   4.424 -1.0431 -1.0156  0.5795
  322DG     H15 7398   0.034   0.440   4.491 -1.2037  0.7630  1.1009
  322DG     H16 7399   0.103   0.507   4.347 -2.1086 -2.2829  0.3593
  322DG     C17 7400   0.116   0.893   4.467  0.1726 -0.0109  0.0046
  322DG     C18 7401   0.049   0.664   4.479 -0.1102 -0.6940 -0.3528
  322DG     O19 7402   0.146   0.755   4.447 -0.5609 -0.3240  0.1921
  322DG     H20 7403   0.035   0.913   4.397  0.3503  1.0962  0.0894
  322DG     H21 7404   0.086   0.902   4.572  1.1930  0.1733  0.2856
  322DG     H22 7405  -0.041   0.694   4.425 -0.1135 -2.8804 -1.6712
  322DG     H23 7406   0.023   0.681   4.583  2.9663  0.1594  0.3674
  323DG      C1 7407   2.525   0.656   4.464  0.2142  0.4772  0.5649
  323DG      C2 7408   2.018   0.610   4.101  0.1843  0.0873  0.4081
  323DG      H3 7409   2.474   0.568   4.504 -1.0117 -0.0151 -1.8194
  323DG      H4 7410   2.578   0.712   4.541 -0.4653 -1.0426  2.1987
  323DG      H5 7411   2.596   0.620   4.390  0.2271  0.5082  0.5620
  323DG      H6 7412   2.074   0.517   4.107 -0.1224 -0.0453  1.3188
  323DG      H7 7413   1.928   0.589   4.157  1.1907 -1.9743  1.3527
  323DG      H8 7414   1.991   0.632   3.998  0.1988 -0.8176  0.2044
  323DG      O9 7415   2.419   0.744   4.421  0.8163 -0.4207  0.0896
  323DG     O10 7416   2.094   0.710   4.164 -0.3568 -0.5116 -0.9542
  323DG     C11 7417   2.451   0.876   4.367  0.1142 -0.0196 -0.1338
  323DG     C12 7418   2.022   0.832   4.176  0.1661  0.2453  0.9192
  323DG     H13 7419   2.506   0.868   4.273 -0.0437  0.8744 -0.3084
  323DG     H14 7420   2.520   0.921   4.438 -0.1945 -3.0527  2.3317
  323DG     H15 7421   1.940   0.822   4.248 -1.5244 -1.3786 -1.1228
  323DG     H16 7422   1.977   0.879   4.088  0.3654  1.0499  1.2319
  323DG     C17 7423   2.328   0.960   4.347  0.3672 -0.0338 -0.2016
  323DG     C18 7424   2.108   0.948   4.235 -0.4286 -0.5357  0.3208
  323DG     O19 7425   2.220   0.878   4.308 -0.2779  0.6747  0.6092
  323DG     H20 7426   2.360   1.028   4.269  2.0484 -0.3940  0.1263
  323DG     H21 7427   2.293   1.018   4.433 -2.1189  1.2766 -1.9858
  323DG     H22 7428   2.151   0.995   4.146  2.2784 -2.1284  0.6826
  323DG     H23 7429   2.062   1.028   4.293  2.9154  0.8800  1.2814
  324DG      C1 7430   1.393   1.033   0.019 -0.3928  0.0097  0.6443
  324DG      C2 7431   1.329   0.371   0.128 -0.0708 -0.2670 -0.1999
  324DG      H3 7432   1.410   1.081  -0.078  0.9547  1.1797  1.4258
  324DG      H4 7433   1.437   1.095   0.097  0.6023  0.5914 -0.3355
  324DG      H5 7434   1.285   1.036   0.033 -0.5353 -0.3884 -0.2580
  324DG      H6 7435   1.342   0.354   0.235  2.2895  1.8567 -0.0773
  324DG      H7 7436   1.223   0.393   0.120 -0.6701 -2.5674  0.5567
  324DG      H8 7437   1.338   0.280   0.068 -1.2345 -0.6320  0.1385
  324DG      O9 7438   1.458   0.909   0.003  0.3722 -0.2284 -0.3184
  324DG     O10 7439   1.404   0.472   0.056 -0.0979  0.2695  0.1675
  324DG     C11 7440   1.592   0.909  -0.036  0.7311 -0.0994  0.7186
  324DG     C12 7441   1.543   0.445   0.061 -0.4531 -0.4724  0.6484
  324DG     H13 7442   1.639   0.946   0.055 -0.2283 -1.0826  1.6341
  324DG     H14 7443   1.612   0.985  -0.112 -0.4258 -0.3836  0.1138
  324DG     H15 7444   1.553   0.341   0.032 -0.3744 -0.8153  1.8244
  324DG     H16 7445   1.584   0.460   0.161  0.7244 -0.0137  0.1110
  324DG     C17 7446   1.647   0.778  -0.081 -0.1112  0.1366  0.5272
  324DG     C18 7447   1.610   0.544  -0.040  0.0535  1.1074 -0.4805
  324DG     O19 7448   1.567   0.678  -0.015 -0.3472  0.3346  0.3653
  324DG     H20 7449   1.754   0.778  -0.062 -0.2217  0.3249  1.1858
  324DG     H21 7450   1.623   0.772  -0.187 -1.9408  0.4581  0.8903
  324DG     H22 7451   1.718   0.535  -0.029  0.1649  4.0312  2.1332
  324DG     H23 7452   1.583   0.514  -0.142  1.0328 -0.3203 -0.3545
  325DG      C1 7453   2.717   5.002   0.740 -0.2655  1.4039 -0.0194
  325DG      C2 7454   3.315   4.679   1.012  0.3258 -0.1249 -0.8569
  325DG      H3 7455   2.662   5.055   0.817  0.2375 -0.3488  1.6273
  325DG      H4 7456   2.654   4.975   0.656  2.4675  3.6944 -3.0514
  325DG      H5 7457   2.800   5.061   0.701 -0.9804  1.2797 -1.8415
  325DG      H6 7458   3.300   4.740   1.101  0.4988  1.1833 -1.7025
  325DG      H7 7459   3.386   4.596   1.023  0.3112 -0.1562 -0.9964
  325DG      H8 7460   3.364   4.744   0.940  0.7494  0.5579  0.0226
  325DG      O9 7461   2.754   4.870   0.791 -0.4608  0.2321  0.2397
  325DG     O10 7462   3.200   4.641   0.935 -0.0791  0.0484  0.0766
  325DG     C11 7463   2.822   4.796   0.691 -0.8679  1.2755 -0.3171
  325DG     C12 7464   3.125   4.531   0.979  0.2949 -0.0891 -0.8892
  325DG     H13 7465   2.905   4.843   0.638  1.0863 -2.2660 -0.7012
  325DG     H14 7466   2.750   4.781   0.611 -0.3543 -1.1887 -0.3843
  325DG     H15 7467   3.078   4.543   1.077  1.3477 -0.7045 -0.2845
  325DG     H16 7468   3.184   4.439   0.976 -0.7673 -0.8384  0.2249
  325DG     C17 7469   2.859   4.653   0.739  0.1089  0.2943  0.4903
  325DG     C18 7470   3.017   4.525   0.874 -0.0792  0.2411 -0.5532
  325DG     O19 7471   2.963   4.653   0.838  0.0194 -0.0647  0.1159
  325DG     H20 7472   2.878   4.591   0.651 -0.2365  0.5955  0.1970
  325DG     H21 7473   2.775   4.609   0.792 -1.3721  0.0451 -1.9079
  325DG     H22 7474   3.057   4.469   0.790  0.5056 -0.6959  0.3207
  325DG     H23 7475   2.938   4.463   0.917  0.5376  0.3710  0.8417
  326DG      C1 7476   2.249   3.111   2.611 -0.4061  0.9322 -0.6244
  326DG      C2 7477   2.486   3.615   2.270  0.3538  0.6742 -0.5991
  326DG      H3 7478   2.288   3.077   2.515  0.5238  2.2932 -0.7556
  326DG      H4 7479   2.158   3.052   2.621  0.4759 -0.4172 -0.1909
  326DG      H5 7480   2.320   3.086   2.690 -0.4168  0.8556 -0.6394
  326DG      H6 7481   2.558   3.534   2.288 -0.4345 -0.4938 -2.4294
  326DG      H7 7482   2.435   3.592   2.177 -0.4110 -1.3268  0.2448
  326DG      H8 7483   2.536   3.712   2.269  1.0840  0.4007  1.8761
  326DG      O9 7484   2.218   3.247   2.605 -0.5418 -0.6745 -0.0029
  326DG     O10 7485   2.390   3.614   2.378  0.7905  0.5278  0.1922
  326DG     C11 7486   2.246   3.310   2.726 -0.1058 -0.5046 -0.3104
  326DG     C12 7487   2.431   3.682   2.493  0.1541  0.7410  0.7184
  326DG     H13 7488   2.350   3.298   2.755  0.0274  1.3186  0.0623
  326DG     H14 7489   2.182   3.277   2.808  3.1460  1.0079  3.0914
  326DG     H15 7490   2.418   3.785   2.460 -0.9757  0.0481 -1.1554
  326DG     H16 7491   2.531   3.657   2.529  0.1928 -1.1664 -0.5627
  326DG     C17 7492   2.233   3.456   2.715 -0.4209 -0.2451  0.4388
  326DG     C18 7493   2.334   3.649   2.609  0.1507 -0.7422 -0.8439
  326DG     O19 7494   2.330   3.505   2.621  0.3645 -0.1628  0.5901
  326DG     H20 7495   2.232   3.484   2.820  0.7826 -1.7565  0.8874
  326DG     H21 7496   2.138   3.491   2.674 -0.7931 -0.6615  0.9472
  326DG     H22 7497   2.373   3.678   2.706  1.6723 -2.7358 -0.8010
  326DG     H23 7498   2.236   3.696   2.603 -0.2660 -1.5924 -0.7455
  327DG      C1 7499   3.586   2.739   3.532 -0.0102 -0.1866  0.0349
  327DG      C2 7500   3.530   2.591   4.129  0.0787  0.2267  0.1751
  327DG      H3 7501   3.692   2.721   3.552  0.1975 -0.2698 -1.0548
  327DG      H4 7502   3.556   2.835   3.573 -0.0399  0.7525 -2.0464
  327DG      H5 7503   3.579   2.750   3.424  0.0747 -1.1616 -0.0769
  327DG      H6 7504   3.608   2.650   4.176 -0.4791  1.9268 -0.9376
  327DG      H7 7505   3.444   2.658   4.120 -0.0798  0.3061  1.9173
  327DG      H8 7506   3.507   2.503   4.190 -0.3491 -0.7775 -1.3668
  327DG      O9 7507   3.501   2.626   3.573  0.0292  0.2614  0.0051
  327DG     O10 7508   3.561   2.554   4.001 -0.3361  0.1396 -0.4423
  327DG     C11 7509   3.556   2.502   3.544 -0.0717 -0.2996  0.5732
  327DG     C12 7510   3.648   2.438   3.996 -0.3045 -0.6390 -0.1864
  327DG     H13 7511   3.584   2.508   3.439 -2.4811 -0.7399 -0.1664
  327DG     H14 7512   3.474   2.431   3.559 -0.5113  0.2786  0.9471
  327DG     H15 7513   3.605   2.342   4.025  0.0031 -0.4492  0.9323
  327DG     H16 7514   3.728   2.450   4.069  0.3221 -1.1209 -0.7772
  327DG     C17 7515   3.672   2.462   3.626  0.1355 -0.7621 -0.4759
  327DG     C18 7516   3.705   2.426   3.856 -0.3278  0.2027  0.6517
  327DG     O19 7517   3.617   2.475   3.760 -0.2314  0.1428  0.1372
  327DG     H20 7518   3.757   2.529   3.613  0.9914 -1.9620 -1.2712
  327DG     H21 7519   3.702   2.362   3.595 -1.9090 -1.1247 -1.4151
  327DG     H22 7520   3.802   2.473   3.853  0.1160 -0.5112  2.3719
  327DG     H23 7521   3.719   2.320   3.834  0.9416  0.5601 -0.3838
  328DG      C1 7522   0.793   1.157   0.870  0.4500 -0.5643 -0.3106
  328DG      C2 7523   0.933   1.704   0.387 -0.4567  0.5886 -0.6402
  328DG      H3 7524   0.700   1.149   0.813  0.3005  0.7955 -0.3026
  328DG      H4 7525   0.770   1.160   0.976  2.5381 -1.7840  0.2235
  328DG      H5 7526   0.853   1.067   0.867 -1.6506 -2.1282  1.5753
  328DG      H6 7527   0.908   1.697   0.281 -0.2104  0.1659 -0.6704
  328DG      H7 7528   0.843   1.735   0.441  0.8617 -1.0699  2.7390
  328DG      H8 7529   1.001   1.784   0.415 -0.3586 -0.2271  1.6772
  328DG      O9 7530   0.850   1.274   0.825 -0.4902  0.1143 -0.0525
  328DG     O10 7531   0.979   1.574   0.424  0.1222 -0.3804 -0.2856
  328DG     C11 7532   0.976   1.313   0.888  0.3391 -0.2885 -0.0506
  328DG     C12 7533   1.022   1.572   0.562  0.2390  0.0625  0.1169
  328DG     H13 7534   1.051   1.234   0.893  1.5288  0.7569 -0.7796
  328DG     H14 7535   0.953   1.347   0.989  0.2476 -0.4708 -0.0097
  328DG     H15 7536   0.944   1.618   0.623 -0.7656 -3.7643  2.0174
  328DG     H16 7537   1.120   1.618   0.576 -0.6496  1.4500  2.4688
  328DG     C17 7538   1.027   1.447   0.825  0.3332  0.3047  0.1200
  328DG     C18 7539   1.028   1.422   0.597  0.0384 -0.1633 -0.1632
  328DG     O19 7540   1.100   1.398   0.712 -0.1058 -0.1487 -0.4533
  328DG     H20 7541   1.102   1.491   0.891 -0.2960 -0.1007  1.1284
  328DG     H21 7542   0.948   1.519   0.809 -0.7476 -0.2325  2.5227
  328DG     H22 7543   0.925   1.390   0.608 -0.8309  2.4574  0.1924
  328DG     H23 7544   1.065   1.368   0.510 -1.8278 -0.0496 -1.0844
  329DG      C1 7545   3.757   1.236   1.944  0.0877  0.4551 -0.4668
  329DG      C2 7546   4.140   0.729   2.358  0.5135  0.0701 -0.0578
  329DG      H3 7547   3.753   1.268   2.048  1.7769  2.1083 -0.8588
  329DG      H4 7548   3.661   1.222   1.893  0.1731  0.9887 -0.7893
  329DG      H5 7549   3.790   1.329   1.897 -1.3032 -0.1173 -2.7446
  329DG      H6 7550   4.236   0.707   2.406  0.3539 -1.3880 -0.3761
  329DG      H7 7551   4.068   0.731   2.440  1.4294  3.4647  0.8158
  329DG      H8 7552   4.112   0.651   2.288 -2.7079 -0.6705  1.8465
  329DG      O9 7553   3.844   1.125   1.919 -0.4450  0.2831  0.7525
  329DG     O10 7554   4.138   0.866   2.309 -0.0307  0.7990 -0.4415
  329DG     C11 7555   3.779   1.011   1.978 -0.5994  0.2663 -0.4674
  329DG     C12 7556   4.192   0.878   2.178  0.3029 -0.9132 -0.1585
  329DG     H13 7557   3.699   0.981   1.910 -0.4910 -3.6496  0.9296
  329DG     H14 7558   3.725   1.032   2.070 -0.6684 -0.5078 -0.3255
  329DG     H15 7559   4.279   0.814   2.166  0.5337 -0.4327 -1.1785
  329DG     H16 7560   4.237   0.977   2.167  2.9161 -1.9360  0.5897
  329DG     C17 7561   3.875   0.896   1.996  0.1071  0.3459  0.6312
  329DG     C18 7562   4.093   0.862   2.056  0.6794 -0.6958  0.1536
  329DG     O19 7563   3.973   0.946   2.074 -0.2982 -0.1471 -0.1466
  329DG     H20 7564   3.902   0.861   1.897 -1.4840 -0.0428  0.3127
  329DG     H21 7565   3.825   0.807   2.034  1.9416 -1.7069 -1.5288
  329DG     H22 7566   4.135   0.876   1.956  0.0018 -0.2360 -0.0711
  329DG     H23 7567   4.073   0.754   2.058  0.0605 -0.5883 -0.0649
  330DG      C1 7568   4.376   3.569   2.171 -0.4288 -0.3643  0.9754
  330DG      C2 7569   4.441   3.214   1.478  0.6497  0.5562 -0.3098
  330DG      H3 7570   4.400   3.657   2.111 -1.4673 -0.9659 -0.3771
  330DG      H4 7571   4.473   3.536   2.209 -0.4145 -0.4036  0.9053
  330DG      H5 7572   4.302   3.574   2.250  1.1148  0.4775  2.4245
  330DG      H6 7573   4.504   3.289   1.432 -1.4324  0.8415 -2.9664
  330DG      H7 7574   4.498   3.133   1.524  1.4812  1.4717  0.3192
  330DG      H8 7575   4.374   3.183   1.397 -1.8947  0.7794  1.5943
  330DG      O9 7576   4.334   3.478   2.071 -0.0796  0.7054  0.0395
  330DG     O10 7577   4.353   3.269   1.579 -0.1993  0.0296  0.8499
  330DG     C11 7578   4.229   3.529   1.986 -0.2433 -0.7734 -0.4382
  330DG     C12 7579   4.266   3.186   1.656  0.2467  0.6471 -0.6247
  330DG     H13 7580   4.265   3.608   1.920 -2.7493  3.5629  2.8003
  330DG     H14 7581   4.161   3.589   2.047  1.4568 -0.1525  0.9368
  330DG     H15 7582   4.331   3.125   1.720 -1.0693 -1.1361 -0.8926
  330DG     H16 7583   4.208   3.118   1.593 -1.5300 -0.6979  2.2365
  330DG     C17 7584   4.156   3.418   1.913  0.1321 -0.6253  0.0731
  330DG     C18 7585   4.172   3.275   1.733  0.4874 -0.3536 -0.0865
  330DG     O19 7586   4.238   3.370   1.815  0.5126  0.4078 -0.1490
  330DG     H20 7587   4.065   3.469   1.879  0.8135 -0.7170 -2.0478
  330DG     H21 7588   4.134   3.333   1.977 -0.9844  0.2684  0.9157
  330DG     H22 7589   4.106   3.332   1.668  1.3859  0.0462 -0.6687
  330DG     H23 7590   4.117   3.200   1.789 -2.8225 -0.1770 -2.7950
  331DG      C1 7591   4.883   0.994   2.899  0.1112  0.1912  0.2166
  331DG      C2 7592   5.347   0.575   3.054  0.7163 -0.3009 -0.4781
  331DG      H3 7593   4.792   1.007   2.841 -0.5481 -0.5829  1.0409
  331DG      H4 7594   4.949   1.079   2.884  1.2209 -0.7157 -0.1677
  331DG      H5 7595   4.862   0.967   3.003 -2.0204  0.7581 -0.0298
  331DG      H6 7596   5.326   0.654   3.126  0.3377 -1.6351  0.9371
  331DG      H7 7597   5.362   0.487   3.117 -4.9056  0.3841  2.4109
  331DG      H8 7598   5.432   0.611   2.996 -0.2892  1.7356 -0.7755
  331DG      O9 7599   4.942   0.867   2.860 -0.2789  0.2070  0.1948
  331DG     O10 7600   5.234   0.577   2.969  0.5961 -0.1712 -0.0848
  331DG     C11 7601   4.979   0.873   2.721  0.0745 -0.2933  0.0033
  331DG     C12 7602   5.260   0.518   2.841  0.0445 -0.5826  0.0424
  331DG     H13 7603   5.066   0.939   2.724  2.0557 -2.7477 -0.4676
  331DG     H14 7604   4.898   0.912   2.659 -0.2566 -0.7355  0.1515
  331DG     H15 7605   5.281   0.411   2.845  2.1124 -0.1715  1.7671
  331DG     H16 7606   5.356   0.559   2.810  1.0922 -2.0644  1.1735
  331DG     C17 7607   5.012   0.737   2.677  0.0675  0.2831 -0.6745
  331DG     C18 7608   5.156   0.555   2.726 -0.9349 -0.5150  0.6376
  331DG     O19 7609   5.119   0.687   2.757  0.9273  0.3736 -0.2605
  331DG     H20 7610   5.032   0.738   2.570 -2.1927  0.1804 -1.1579
  331DG     H21 7611   4.920   0.679   2.683 -0.7289  1.5375 -0.1548
  331DG     H22 7612   5.201   0.565   2.628 -1.5013 -0.0510  0.4179
  331DG     H23 7613   5.068   0.494   2.705 -2.3005  1.5841  0.0162
  332DG      C1 7614   2.253   5.306   2.132  0.2097  0.9138 -0.4030
  332DG      C2 7615   1.916   5.235   1.519  0.1311 -0.8544 -0.0744
  332DG      H3 7616   2.360   5.291   2.142 -0.1040 -0.7513  0.9068
  332DG      H4 7617   2.205   5.214   2.100  1.7205  0.2661 -0.9088
  332DG      H5 7618   2.219   5.327   2.234 -0.1059  0.5097 -0.4203
  332DG      H6 7619   1.882   5.284   1.428  2.6316  1.2694  0.0173
  332DG      H7 7620   2.008   5.178   1.501  0.8759  0.3386 -0.1428
  332DG      H8 7621   1.835   5.174   1.559 -0.3957 -0.0288  0.1191
  332DG      O9 7622   2.221   5.399   2.026 -0.2431  0.4451  0.6003
  332DG     O10 7623   1.922   5.355   1.606  0.0597  0.8886  0.0468
  332DG     C11 7624   2.294   5.370   1.907 -0.0550  0.2296 -0.8481
  332DG     C12 7625   1.993   5.460   1.545 -0.4225  0.2588 -0.0244
  332DG     H13 7626   2.286   5.265   1.878  3.1280 -0.6314  0.8865
  332DG     H14 7627   2.398   5.387   1.932  0.3854 -1.8132 -1.1215
  332DG     H15 7628   1.940   5.548   1.580 -1.5217  0.2473 -1.5523
  332DG     H16 7629   1.985   5.464   1.436 -0.3147 -2.6388 -0.2188
  332DG     C17 7630   2.266   5.471   1.794  0.3253 -0.3476  0.3052
  332DG     C18 7631   2.143   5.468   1.587  0.5400 -0.1390  0.3732
  332DG     O19 7632   2.155   5.420   1.722  0.2236  0.1175  0.6099
  332DG     H20 7633   2.344   5.467   1.719 -0.5631 -0.5950 -0.6328
  332DG     H21 7634   2.258   5.573   1.831 -0.5752 -0.6119  0.8921
  332DG     H22 7635   2.207   5.428   1.508  1.4562  1.9307  0.0051
  332DG     H23 7636   2.168   5.571   1.563  2.0454 -1.0300 -2.2703
  333DG      C1 7637   0.603   3.808   1.995 -0.4723  0.5483  0.3140
  333DG      C2 7638   0.275   3.305   1.692 -0.2082 -0.3125  0.5459
  333DG      H3 7639   0.512   3.864   1.973 -0.8257 -0.3546 -0.5899
  333DG      H4 7640   0.673   3.868   1.937  0.0567 -2.4661 -2.4796
  333DG      H5 7641   0.601   3.820   2.104  0.1820 -3.4664  0.9424
  333DG      H6 7642   0.309   3.250   1.779  0.2063 -1.7351 -0.4766
  333DG      H7 7643   0.198   3.377   1.720 -0.1266 -0.1250  0.2984
  333DG      H8 7644   0.231   3.240   1.617 -0.3952  0.3375  0.0821
  333DG      O9 7645   0.589   3.673   1.943 -0.2437 -0.0999 -0.3239
  333DG     O10 7646   0.382   3.393   1.648 -0.0566  0.1167 -0.4520
  333DG     C11 7647   0.713   3.607   1.929  0.5500 -0.0740 -0.2695
  333DG     C12 7648   0.509   3.327   1.640  0.2270 -0.7548  0.3379
  333DG     H13 7649   0.761   3.573   2.022  0.6635  0.2912 -0.1914
  333DG     H14 7650   0.786   3.665   1.873  0.2131  0.0731 -0.5565
  333DG     H15 7651   0.498   3.259   1.555  0.5390 -0.6965  0.2529
  333DG     H16 7652   0.532   3.265   1.727 -0.8824 -1.3104  0.2541
  333DG     C17 7653   0.697   3.485   1.840  0.0992 -0.3628  1.1892
  333DG     C18 7654   0.620   3.427   1.624  0.9593 -0.6536 -0.1469
  333DG     O19 7655   0.609   3.524   1.730  0.3005  0.4440  0.6160
  333DG     H20 7656   0.674   3.396   1.897  0.6688 -2.0370 -1.0709
  333DG     H21 7657   0.794   3.465   1.796 -0.5780 -1.7879  0.2781
  333DG     H22 7658   0.716   3.378   1.602  1.9330  0.5298  1.2596
  333DG     H23 7659   0.599   3.483   1.533  0.2020  0.3099  0.6053
  334DG      C1 7660   1.281   4.209   2.006  0.1943 -0.1628 -0.3948
  334DG      C2 7661   1.883   4.427   1.864 -0.0323  0.3642  0.2260
  334DG      H3 7662   1.191   4.248   1.958 -0.5299  0.1824  1.1677
  334DG      H4 7663   1.311   4.294   2.067  1.3480  0.1613 -1.3572
  334DG      H5 7664   1.248   4.130   2.073 -2.7794  2.4495  1.5412
  334DG      H6 7665   1.874   4.532   1.832 -0.9096 -0.0218 -0.8780
  334DG      H7 7666   1.782   4.399   1.893 -1.0157  1.6384 -1.6999
  334DG      H8 7667   1.951   4.421   1.949  0.1269 -0.5901  0.0359
  334DG      O9 7668   1.381   4.168   1.919 -0.5160  0.3488  0.3054
  334DG     O10 7669   1.926   4.343   1.753 -0.3655 -0.0232  0.3489
  334DG     C11 7670   1.505   4.122   1.973 -0.7957 -0.2708 -0.1674
  334DG     C12 7671   1.813   4.332   1.657 -0.2112 -0.1839  0.6097
  334DG     H13 7672   1.489   4.027   2.026  1.1747 -0.4305  0.1893
  334DG     H14 7673   1.561   4.182   2.044 -1.9272  0.7830 -0.1256
  334DG     H15 7674   1.839   4.316   1.553 -0.6185  0.2923  0.4365
  334DG     H16 7675   1.757   4.425   1.652  1.6205  0.9643  0.4554
  334DG     C17 7676   1.609   4.098   1.866 -0.5495 -0.2180 -1.1689
  334DG     C18 7677   1.740   4.204   1.701  0.1083  0.0954 -0.0196
  334DG     O19 7678   1.672   4.222   1.827 -0.3057 -0.1310  0.1803
  334DG     H20 7679   1.574   4.026   1.791  0.8855 -1.9107 -0.2994
  334DG     H21 7680   1.677   4.039   1.927 -1.7768  1.2545  1.7945
  334DG     H22 7681   1.660   4.178   1.632 -0.4400  2.3230 -0.3103
  334DG     H23 7682   1.807   4.120   1.719  1.0962  0.6345 -1.0676
  335DG      C1 7683   1.612   5.476   1.576  0.9954 -0.1152 -0.6172
  335DG      C2 7684   1.138   5.683   1.134 -0.0320 -0.2339 -0.5107
  335DG      H3 7685   1.578   5.392   1.515 -0.7631  0.1912 -0.1259
  335DG      H4 7686   1.637   5.448   1.678 -0.0070  0.9682 -0.0564
  335DG      H5 7687   1.705   5.519   1.538 -0.5027  3.7657 -0.2542
  335DG      H6 7688   1.223   5.746   1.110 -0.0323  1.2757  2.8986
  335DG      H7 7689   1.152   5.591   1.077 -0.9235 -1.8932  1.8084
  335DG      H8 7690   1.052   5.732   1.089 -2.0514 -2.2185  0.9189
  335DG      O9 7691   1.507   5.569   1.576 -0.0764 -0.1807  0.5559
  335DG     O10 7692   1.139   5.659   1.280 -0.2365 -0.8525 -0.0625
  335DG     C11 7693   1.400   5.538   1.666 -0.3251  0.6453  0.3337
  335DG     C12 7694   1.152   5.779   1.351  0.5752 -0.5620 -0.3283
  335DG     H13 7695   1.437   5.535   1.769  0.0683 -0.0319  0.1792
  335DG     H14 7696   1.364   5.439   1.640  1.8014 -0.3913  1.0380
  335DG     H15 7697   1.058   5.834   1.344 -0.3683 -2.0149  0.5482
  335DG     H16 7698   1.233   5.847   1.324  0.3675  0.4943  1.5191
  335DG     C17 7699   1.301   5.650   1.658  0.1816  0.3814 -0.8430
  335DG     C18 7700   1.166   5.760   1.503  0.0426  0.3752  0.0087
  335DG     O19 7701   1.284   5.681   1.524 -0.0117 -0.3430 -0.3616
  335DG     H20 7702   1.340   5.739   1.709 -1.4631  0.7346 -0.1409
  335DG     H21 7703   1.208   5.618   1.705 -0.1042  1.3504 -0.7187
  335DG     H22 7704   1.180   5.858   1.549 -1.0255 -0.4934  2.3295
  335DG     H23 7705   1.083   5.701   1.542  0.6127 -1.8038 -1.8802
  336DG      C1 7706   3.422   0.641   5.171  0.0953  0.3159  0.1107
  336DG      C2 7707   3.671   1.379   5.582  0.7778  0.2333 -0.9670
  336DG      H3 7708   3.325   0.592   5.174 -0.0391  0.5885  0.3988
  336DG      H4 7709   3.488   0.567   5.216 -1.2102  0.1744  1.8830
  336DG      H5 7710   3.446   0.659   5.066 -2.4625 -0.4580 -0.6635
  336DG      H6 7711   3.650   1.485   5.597 -0.1224 -0.1360  0.5746
  336DG      H7 7712   3.685   1.340   5.683  0.5255 -0.3975 -1.1677
  336DG      H8 7713   3.763   1.377   5.523  0.3723 -0.9615 -1.6138
  336DG      O9 7714   3.433   0.764   5.240  0.3101 -0.2530 -0.0552
  336DG     O10 7715   3.562   1.318   5.512 -0.4586 -0.0331 -0.3446
  336DG     C11 7716   3.367   0.870   5.177  0.5091  0.1893 -0.0633
  336DG     C12 7717   3.596   1.195   5.453  0.3242 -0.0459  0.2797
  336DG     H13 7718   3.268   0.840   5.143 -0.3355  0.8963  1.6511
  336DG     H14 7719   3.401   0.910   5.081  1.0767 -0.6534 -0.2240
  336DG     H15 7720   3.645   1.134   5.529 -0.6679 -1.4955 -0.2065
  336DG     H16 7721   3.665   1.210   5.370 -1.2458  0.2872 -1.0116
  336DG     C17 7722   3.340   0.970   5.290 -0.2435 -0.2067  0.3192
  336DG     C18 7723   3.458   1.144   5.406  0.1562  0.3218  0.2715
  336DG     O19 7724   3.464   1.027   5.328 -0.1500 -0.3058 -0.3603
  336DG     H20 7725   3.289   0.914   5.369  1.0842 -0.3981  1.0743
  336DG     H21 7726   3.280   1.053   5.255 -0.7685 -0.4286  0.6777
  336DG     H22 7727   3.383   1.151   5.485  0.8597  2.5226  0.8106
  336DG     H23 7728   3.415   1.226   5.348 -1.2651 -0.3520  0.3173
  337DG      C1 7729   5.046   4.753   1.110  0.3655 -0.2922 -0.0443
  337DG      C2 7730   4.476   4.298   1.402 -0.2144  0.2436  0.1151
  337DG      H3 7731   5.127   4.725   1.177 -0.0212  0.0184  0.5577
  337DG      H4 7732   5.053   4.860   1.093  3.6971 -0.2824  0.7243
  337DG      H5 7733   5.074   4.713   1.012  1.7657  1.7302 -0.5448
  337DG      H6 7734   4.558   4.265   1.466 -0.6181 -1.3356 -0.1255
  337DG      H7 7735   4.401   4.343   1.466  2.1159  1.7915  1.8951
  337DG      H8 7736   4.428   4.209   1.361  0.0639  0.1178  0.0536
  337DG      O9 7737   4.915   4.712   1.151 -0.5302 -0.5743  0.4588
  337DG     O10 7738   4.508   4.402   1.313  0.0507  0.2452 -0.2355
  337DG     C11 7739   4.812   4.741   1.061 -0.2199  0.0173 -0.3182
  337DG     C12 7740   4.612   4.363   1.218  0.4064  0.0179  0.3140
  337DG     H13 7741   4.821   4.670   0.979 -0.9754 -0.3127 -0.1240
  337DG     H14 7742   4.809   4.841   1.017 -0.2586 -0.5116 -1.5419
  337DG     H15 7743   4.585   4.280   1.152  2.2562 -1.0663  0.8351
  337DG     H16 7744   4.702   4.343   1.276  1.4723 -0.5930 -1.4786
  337DG     C17 7745   4.667   4.718   1.113  0.3767 -0.1307 -0.2488
  337DG     C18 7746   4.634   4.476   1.122 -1.1448  0.4539  0.8316
  337DG     O19 7747   4.663   4.594   1.193 -0.0017  0.2890  0.1383
  337DG     H20 7748   4.583   4.735   1.046 -0.1739  1.4758  0.8003
  337DG     H21 7749   4.659   4.791   1.192 -0.1533 -0.5255  0.0672
  337DG     H22 7750   4.710   4.452   1.047 -0.4382 -0.1282  1.7114
  337DG     H23 7751   4.547   4.488   1.058 -1.2049 -1.0428  0.6087
  338DG      C1 7752   4.503   0.972   2.535  0.1102 -0.3873 -0.1086
  338DG      C2 7753   5.034   0.265   2.534 -0.0811 -0.0305 -0.6804
  338DG      H3 7754   4.511   1.070   2.580  1.2813 -0.1820 -0.7168
  338DG      H4 7755   4.399   0.960   2.504  0.2218 -0.9445 -0.2972
  338DG      H5 7756   4.572   0.987   2.452  0.1032  0.4033  0.0262
  338DG      H6 7757   5.128   0.292   2.583 -0.6732 -1.1214  1.1639
  338DG      H7 7758   5.001   0.176   2.587  0.7322 -2.2043 -3.5831
  338DG      H8 7759   5.053   0.247   2.429 -1.8706 -0.2009 -1.0035
  338DG      O9 7760   4.553   0.867   2.614  0.1374  0.3184 -0.2133
  338DG     O10 7761   4.930   0.369   2.538 -0.0904  0.2179 -0.1740
  338DG     C11 7762   4.632   0.777   2.536 -0.4077 -0.3251 -0.6668
  338DG     C12 7763   4.804   0.321   2.508 -0.4956  0.3200  0.1260
  338DG     H13 7764   4.730   0.822   2.518 -0.6828  0.5651  0.0096
  338DG     H14 7765   4.600   0.768   2.432 -0.5381 -1.1585 -0.5616
  338DG     H15 7766   4.797   0.219   2.547 -1.0945  0.6633  0.9352
  338DG     H16 7767   4.795   0.309   2.400 -0.7015  1.6352 -0.0166
  338DG     C17 7768   4.647   0.641   2.603  0.4072  0.1849  0.8373
  338DG     C18 7769   4.702   0.420   2.562  0.4069  0.4102 -0.0673
  338DG     O19 7770   4.712   0.550   2.520 -0.0897  0.5533  0.4944
  338DG     H20 7771   4.548   0.600   2.622 -0.4366  1.7216 -0.0301
  338DG     H21 7772   4.693   0.655   2.701 -1.5183 -0.8553  1.9561
  338DG     H22 7773   4.604   0.378   2.539  0.2550  0.6437  0.1552
  338DG     H23 7774   4.703   0.422   2.671 -3.4621 -3.2491  0.2912
  339DG      C1 7775   4.683   0.753   1.699 -0.3142 -0.0684  0.0075
  339DG      C2 7776   3.871   1.122   1.584 -0.4081 -0.5586  0.0207
  339DG      H3 7777   4.767   0.684   1.688  0.7427  1.1012  0.4743
  339DG      H4 7778   4.732   0.846   1.727 -0.9831  0.4836 -0.6091
  339DG      H5 7779   4.642   0.784   1.603  1.4824 -1.1151 -1.1551
  339DG      H6 7780   3.810   1.132   1.494  1.2710  1.0713 -1.0155
  339DG      H7 7781   3.803   1.096   1.665 -1.7865 -0.7089 -1.1438
  339DG      H8 7782   3.914   1.217   1.615 -1.1155 -0.3177  0.2635
  339DG      O9 7783   4.584   0.721   1.795 -0.0643 -0.9910 -0.2333
  339DG     O10 7784   3.972   1.029   1.568 -0.0547 -0.0672 -0.4263
  339DG     C11 7785   4.472   0.815   1.804 -0.5145  0.1249  0.5605
  339DG     C12 7786   4.083   1.037   1.659 -0.2696 -0.7101  0.0050
  339DG     H13 7787   4.509   0.917   1.816 -2.1413  0.7768  0.3579
  339DG     H14 7788   4.429   0.790   1.900 -3.9423  1.6992 -0.3898
  339DG     H15 7789   4.052   1.021   1.762  1.4007  0.0165  0.6575
  339DG     H16 7790   4.127   1.137   1.662 -0.1757 -0.6799 -1.5424
  339DG     C17 7791   4.370   0.817   1.685 -0.4474  0.7861 -0.6893
  339DG     C18 7792   4.187   0.929   1.612 -0.0577  0.2341  0.2943
  339DG     O19 7793   4.287   0.923   1.708 -0.2625 -0.4022  0.6069
  339DG     H20 7794   4.323   0.720   1.672 -1.4140  1.3856 -1.8753
  339DG     H21 7795   4.413   0.820   1.585  0.4910 -1.9948 -0.4522
  339DG     H22 7796   4.130   0.837   1.598 -1.0508  0.8738  0.0593
  339DG     H23 7797   4.233   0.952   1.515  0.9115 -0.3066  0.6076
  340DG      C1 7798   2.204   0.372   3.790 -0.0284 -0.3336 -0.0843
  340DG      C2 7799   2.100  -0.016   3.277 -0.0907 -0.7658 -0.6841
  340DG      H3 7800   2.132   0.446   3.827  0.4416 -0.5756  1.3852
  340DG      H4 7801   2.274   0.420   3.722 -0.0482 -0.1919 -0.0057
  340DG      H5 7802   2.257   0.334   3.877  1.7375  0.5034 -0.7534
  340DG      H6 7803   2.196   0.029   3.253 -1.2523  3.4246  1.3832
  340DG      H7 7804   2.129  -0.087   3.355  1.9733  1.3030  0.5754
  340DG      H8 7805   2.051  -0.068   3.195 -0.8635 -0.4653 -0.4292
  340DG      O9 7806   2.142   0.268   3.714  0.2525 -0.3957 -0.5062
  340DG     O10 7807   2.007   0.079   3.327  0.1818 -0.0235 -0.1334
  340DG     C11 7808   2.055   0.182   3.793 -1.0501  0.0406 -0.3083
  340DG     C12 7809   1.889   0.021   3.379  0.0566 -0.5055  0.0910
  340DG     H13 7810   1.968   0.235   3.830  1.4375  2.9598  1.8655
  340DG     H14 7811   2.101   0.163   3.890 -0.9601  1.6266 -0.0231
  340DG     H15 7812   1.863  -0.063   3.315  2.8494 -0.1438 -1.7122
  340DG     H16 7813   1.810   0.095   3.380  1.2458  0.8288 -1.1376
  340DG     C17 7814   2.019   0.047   3.722 -0.1323 -0.8275 -0.4597
  340DG     C18 7815   1.912  -0.013   3.527  0.1295  0.1889 -0.1463
  340DG     O19 7816   1.970   0.093   3.594  0.2994 -0.3130  0.1641
  340DG     H20 7817   1.941  -0.010   3.772  1.3847 -1.9110  0.7885
  340DG     H21 7818   2.106  -0.019   3.713 -0.4791 -1.5226  1.0601
  340DG     H22 7819   1.815  -0.032   3.574 -0.2699  0.1637 -0.9645
  340DG     H23 7820   1.978  -0.100   3.524  0.7207  0.6622 -1.5388
  341DG      C1 7821   4.871   5.338   0.093 -0.0078 -0.2433 -0.6733
  341DG      C2 7822   4.527   5.413   0.639 -0.7442 -0.4480  0.5770
  341DG      H3 7823   4.923   5.254   0.139 -0.6771 -0.8677 -1.0229
  341DG      H4 7824   4.930   5.422   0.129 -2.5676  0.7736  1.5034
  341DG      H5 7825   4.877   5.326  -0.015  0.0802  0.5530 -0.7572
  341DG      H6 7826   4.568   5.512   0.658 -1.8108 -0.0285  0.7667
  341DG      H7 7827   4.422   5.409   0.669 -0.5658  0.6647  1.4254
  341DG      H8 7828   4.586   5.349   0.705  0.2283 -0.0361  0.1352
  341DG      O9 7829   4.736   5.341   0.141  0.4512 -0.6935 -0.6854
  341DG     O10 7830   4.544   5.369   0.506 -0.4199 -0.6977 -0.7281
  341DG     C11 7831   4.658   5.230   0.096  0.1180 -0.0344  0.1948
  341DG     C12 7832   4.502   5.234   0.492 -0.7206 -0.7202 -0.2754
  341DG     H13 7833   4.702   5.136   0.128  1.1443  0.6674  0.9190
  341DG     H14 7834   4.662   5.233  -0.013 -0.6404 -0.3964  0.1506
  341DG     H15 7835   4.395   5.235   0.511 -0.6572 -0.1587  0.0776
  341DG     H16 7836   4.564   5.169   0.554  1.6125 -0.5546 -2.2720
  341DG     C17 7837   4.503   5.250   0.123 -0.7730 -0.1499 -0.1932
  341DG     C18 7838   4.523   5.189   0.352 -0.2947  0.6821 -0.2569
  341DG     O19 7839   4.485   5.289   0.262  0.2523  0.0674  0.3541
  341DG     H20 7840   4.444   5.161   0.103 -0.7261 -0.2207 -0.0157
  341DG     H21 7841   4.471   5.333   0.061  0.8674 -0.8886 -2.1654
  341DG     H22 7842   4.627   5.163   0.339 -0.5255 -1.2940  1.4274
  341DG     H23 7843   4.456   5.107   0.327 -0.5027  1.3898 -2.1700
  342DG      C1 7844   2.766   2.084   4.621  0.1183 -0.4246 -0.3406
  342DG      C2 7845   3.268   2.402   4.509  0.4247  0.0010 -0.2744
  342DG      H3 7846   2.731   2.163   4.688 -1.4630  0.6574 -2.3267
  342DG      H4 7847   2.731   1.987   4.657  0.2395 -0.9621 -1.5998
  342DG      H5 7848   2.693   2.094   4.540 -1.8225  0.0087  1.3754
  342DG      H6 7849   3.243   2.460   4.599 -0.0228  0.3989 -0.6492
  342DG      H7 7850   3.269   2.300   4.546 -1.9742  0.4047  1.1098
  342DG      H8 7851   3.369   2.430   4.478 -0.1364  1.9995 -0.4457
  342DG      O9 7852   2.898   2.100   4.561 -0.3370 -1.0062 -0.5155
  342DG     O10 7853   3.165   2.432   4.407 -0.6364  0.0490  0.1348
  342DG     C11 7854   2.918   2.001   4.461  0.0700  0.3756  0.8606
  342DG     C12 7855   3.182   2.369   4.281  0.1829 -0.0712  0.4914
  342DG     H13 7856   2.850   1.982   4.378  1.8026  0.1955 -0.5681
  342DG     H14 7857   2.934   1.906   4.513 -1.7581  0.7542  2.2310
  342DG     H15 7858   3.271   2.397   4.226 -0.5423 -1.2621 -1.4085
  342DG     H16 7859   3.098   2.398   4.218  0.5802 -0.0106 -0.0126
  342DG     C17 7860   3.054   2.042   4.399 -0.2145 -0.6483  0.1976
  342DG     C18 7861   3.180   2.211   4.292 -1.0517 -0.4211 -0.3235
  342DG     O19 7862   3.064   2.182   4.360  0.3186  0.1949  0.0347
  342DG     H20 7863   3.064   1.975   4.314  3.1947  0.9261 -0.8137
  342DG     H21 7864   3.131   2.021   4.474  0.8746 -3.6323 -1.5698
  342DG     H22 7865   3.184   2.164   4.194  2.5630 -0.5774 -0.2249
  342DG     H23 7866   3.262   2.186   4.360  0.0024 -0.5689 -1.6137
  343DG      C1 7867   4.183   0.138   2.007 -0.1886  0.0493  0.2445
  343DG      C2 7868   4.944   0.102   2.189  0.7995 -0.2061 -0.8400
  343DG      H3 7869   4.138   0.215   2.070  0.8250  0.7000  0.1816
  343DG      H4 7870   4.088   0.096   1.972 -1.0473  2.3206 -0.3281
  343DG      H5 7871   4.244   0.185   1.930 -0.2114  0.1987  0.3174
  343DG      H6 7872   4.996   0.034   2.257  0.4691  0.9664  0.6102
  343DG      H7 7873   5.003   0.114   2.097  2.9225  0.1551  0.4987
  343DG      H8 7874   4.936   0.198   2.238 -2.5910 -0.7493 -0.0773
  343DG      O9 7875   4.263   0.051   2.090 -0.0298 -0.1726 -0.4677
  343DG     O10 7876   4.816   0.053   2.156 -0.1794 -0.4441 -0.0710
  343DG     C11 7877   4.334  -0.048   2.017  0.1042  0.2320  0.5927
  343DG     C12 7878   4.749  -0.016   2.264 -0.1251 -0.5409 -0.3327
  343DG     H13 7879   4.382  -0.008   1.928  1.4609 -2.2741  0.1168
  343DG     H14 7880   4.259  -0.120   1.984  1.0782 -0.5907  0.1277
  343DG     H15 7881   4.714   0.057   2.337 -0.6918 -0.3638 -0.7737
  343DG     H16 7882   4.808  -0.088   2.321 -0.8154 -1.9113 -1.2753
  343DG     C17 7883   4.436  -0.123   2.101 -0.5200 -0.0852 -0.3914
  343DG     C18 7884   4.648  -0.111   2.193 -0.6214  0.7889 -0.8097
  343DG     O19 7885   4.543  -0.034   2.137 -0.6657 -0.0488  0.2712
  343DG     H20 7886   4.474  -0.207   2.043 -2.4022 -0.6490 -0.8851
  343DG     H21 7887   4.384  -0.162   2.189  0.1862 -1.6266 -0.6222
  343DG     H22 7888   4.713  -0.167   2.125  0.3443  1.0091 -0.0888
  343DG     H23 7889   4.613  -0.182   2.268 -1.2391  1.0351 -0.8605
  344DG      C1 7890   3.080   2.579   0.893  0.2718 -0.1790  0.0277
  344DG      C2 7891   2.486   3.052   1.311  0.1756 -0.3179  0.3167
  344DG      H3 7892   3.136   2.521   0.966 -0.0190  1.1150  1.3124
  344DG      H4 7893   3.156   2.629   0.832  1.8889 -2.7249 -0.1708
  344DG      H5 7894   3.025   2.504   0.837  0.7298 -1.0332  0.7067
  344DG      H6 7895   2.526   2.997   1.396  1.5520 -0.4058 -0.3568
  344DG      H7 7896   2.547   3.142   1.308  1.5489 -1.2342 -0.1026
  344DG      H8 7897   2.382   3.080   1.330  0.7252  1.8528  0.3327
  344DG      O9 7898   3.006   2.665   0.958 -0.0027 -0.6606 -0.5624
  344DG     O10 7899   2.478   2.989   1.186 -0.7815 -0.0570 -0.3938
  344DG     C11 7900   2.917   2.751   0.879 -0.3393  0.1526  0.2203
  344DG     C12 7901   2.604   2.948   1.137 -0.4941 -0.4801 -0.0963
  344DG     H13 7902   2.856   2.689   0.814 -1.4332 -0.0091  1.3665
  344DG     H14 7903   2.967   2.829   0.821  1.2939 -1.3865 -0.5151
  344DG     H15 7904   2.652   2.882   1.210  0.5658  2.7625  2.3945
  344DG     H16 7905   2.668   3.036   1.133  1.3237 -1.7294  0.2329
  344DG     C17 7906   2.828   2.804   0.996 -0.3642 -0.4292  0.0984
  344DG     C18 7907   2.603   2.891   0.998 -0.7929  0.0469 -0.3242
  344DG     O19 7908   2.733   2.880   0.931  0.3231 -0.2671  0.1901
  344DG     H20 7909   2.887   2.856   1.072 -0.6606 -0.9318  0.6879
  344DG     H21 7910   2.786   2.716   1.044  2.2852 -1.3089  0.9861
  344DG     H22 7911   2.566   2.791   1.020  0.4071 -0.1693  0.8626
  344DG     H23 7912   2.536   2.953   0.939 -1.0733 -0.7798 -0.8895
  345DG      C1 7913   1.081   4.415   4.209  0.3980 -0.3242 -0.1025
  345DG      C2 7914   0.561   4.111   3.940  0.0032  0.3810  0.3192
  345DG      H3 7915   1.036   4.501   4.258 -2.0972 -1.8236  0.4264
  345DG      H4 7916   1.181   4.442   4.176  0.7766 -1.4972  0.0499
  345DG      H5 7917   1.087   4.329   4.276 -1.2932 -0.3370  0.0814
  345DG      H6 7918   0.523   4.097   4.041 -1.3382 -3.6669 -0.5434
  345DG      H7 7919   0.480   4.169   3.895  1.6139  0.9970 -1.9573
  345DG      H8 7920   0.554   4.013   3.893  1.9481  0.8347 -1.0201
  345DG      O9 7921   1.008   4.378   4.087  0.3993 -0.1888 -0.4634
  345DG     O10 7922   0.675   4.182   3.923 -0.5574 -0.0684  0.2223
  345DG     C11 7923   1.015   4.482   3.996  0.8243 -0.0212  0.1112
  345DG     C12 7924   0.691   4.209   3.783 -0.6613  0.4199 -0.1387
  345DG     H13 7925   1.101   4.549   3.998  0.5269  0.3870  2.3736
  345DG     H14 7926   0.925   4.542   4.013  0.5475 -0.5483  0.5407
  345DG     H15 7927   0.623   4.288   3.751 -1.4664  0.6029  1.8315
  345DG     H16 7928   0.695   4.119   3.722  3.5766 -0.2424  0.7843
  345DG     C17 7929   0.988   4.419   3.861 -0.2552  0.8654  0.4530
  345DG     C18 7930   0.830   4.276   3.764 -0.0676 -0.4090  0.1732
  345DG     O19 7931   0.862   4.355   3.872 -0.2759  0.0795 -0.5148
  345DG     H20 7932   1.065   4.347   3.835  0.1894  1.4938 -0.0007
  345DG     H21 7933   0.981   4.499   3.787 -2.2644 -1.3119 -1.9218
  345DG     H22 7934   0.906   4.198   3.760  0.0491 -0.2809 -0.1076
  345DG     H23 7935   0.845   4.323   3.667  1.0802  0.2592  0.6685
  346DG      C1 7936   2.118   3.193   0.027 -0.0076  0.1684 -0.7073
  346DG      C2 7937   1.295   3.444   0.059  0.3206 -0.4201 -0.5911
  346DG      H3 7938   2.186   3.259   0.081  0.7259 -1.3930  0.3501
  346DG      H4 7939   2.139   3.193  -0.080  0.8078 -0.1867 -0.5592
  346DG      H5 7940   2.145   3.101   0.078 -0.1086  0.8664  0.6360
  346DG      H6 7941   1.316   3.399  -0.038 -1.5374  1.7749 -2.1125
  346DG      H7 7942   1.197   3.404   0.082  0.4396  0.2471  1.2514
  346DG      H8 7943   1.287   3.550   0.038 -0.0453 -0.5854 -1.3214
  346DG      O9 7944   1.980   3.214   0.051 -0.1037  0.1322 -0.0351
  346DG     O10 7945   1.388   3.405   0.161 -0.1534  0.3204  0.1711
  346DG     C11 7946   1.961   3.240   0.194  0.8359 -0.0104  0.6993
  346DG     C12 7947   1.528   3.432   0.146 -1.0181 -0.5419 -0.6558
  346DG     H13 7948   1.967   3.348   0.201 -1.9745  0.2555  0.1582
  346DG     H14 7949   2.041   3.196   0.255  1.8047 -1.6844 -1.6266
  346DG     H15 7950   1.554   3.535   0.173  1.7878 -0.5769 -2.7557
  346DG     H16 7951   1.548   3.419   0.040  2.1566  0.0661 -0.2538
  346DG     C17 7952   1.820   3.213   0.247 -0.3920 -0.0048  0.3550
  346DG     C18 7953   1.615   3.324   0.232  1.0537  0.3744  0.3875
  346DG     O19 7954   1.740   3.308   0.177  0.4239  0.1835  0.0961
  346DG     H20 7955   1.813   3.240   0.353  2.5008  1.4146  0.2702
  346DG     H21 7956   1.795   3.109   0.227  1.6245 -0.0328 -2.5904
  346DG     H22 7957   1.612   3.344   0.339 -0.2606 -2.1497  0.9041
  346DG     H23 7958   1.564   3.229   0.216  1.0345  0.6361 -1.3040
  347DG      C1 7959   3.276   2.555   0.199  0.7371 -0.0224 -0.0477
  347DG      C2 7960   2.813   2.930   0.410 -0.5346 -0.2765 -0.6663
  347DG      H3 7961   3.333   2.483   0.141  1.5481  0.3753  0.2466
  347DG      H4 7962   3.207   2.501   0.264 -0.0443  0.3229 -0.5693
  347DG      H5 7963   3.340   2.605   0.271 -1.8958  3.4245  0.1672
  347DG      H6 7964   2.716   2.971   0.381 -1.2987 -2.0439 -0.7400
  347DG      H7 7965   2.807   2.833   0.458  0.4127 -0.6534 -1.3029
  347DG      H8 7966   2.855   2.999   0.483 -2.4291  0.7210 -0.4354
  347DG      O9 7967   3.196   2.644   0.118 -0.3400  0.7027  0.0543
  347DG     O10 7968   2.897   2.914   0.302  0.6354  0.5334  0.4932
  347DG     C11 7969   3.269   2.752   0.071  0.4110 -0.4198  0.4702
  347DG     C12 7970   2.934   3.034   0.233 -0.3263 -0.8330  0.9747
  347DG     H13 7971   3.337   2.733  -0.012  0.7348  2.9854 -0.1721
  347DG     H14 7972   3.332   2.805   0.142 -0.1277  0.1875  0.5046
  347DG     H15 7973   2.984   3.099   0.305  0.4726  1.5661 -1.5570
  347DG     H16 7974   2.853   3.104   0.213  0.2080 -0.5700 -0.4372
  347DG     C17 7975   3.180   2.869   0.016 -0.1895  0.3082  0.1657
  347DG     C18 7976   3.024   3.019   0.102  0.3859  1.0869 -0.4565
  347DG     O19 7977   3.116   2.912   0.132 -0.4819  0.2012 -0.3547
  347DG     H20 7978   3.111   2.832  -0.060  0.7729  0.3648 -0.7530
  347DG     H21 7979   3.249   2.944  -0.022 -1.3561  1.6767  0.6512
  347DG     H22 7980   2.961   2.992   0.017 -0.3172 -0.7075  0.5808
  347DG     H23 7981   3.074   3.115   0.087  0.4923  1.0973 -0.0458
  348DG      C1 7982   4.348   5.119   1.420 -0.0385 -0.1745  0.0961
  348DG      C2 7983   4.914   5.460   1.384 -0.1738  0.1398 -0.9122
  348DG      H3 7984   4.358   5.073   1.518  0.7251  1.2935  0.7296
  348DG      H4 7985   4.389   5.057   1.340  1.8119  3.0700 -1.6778
  348DG      H5 7986   4.242   5.136   1.397  0.1500 -0.4697 -1.0836
  348DG      H6 7987   4.927   5.367   1.329  0.1464  0.1668 -0.8845
  348DG      H7 7988   4.903   5.542   1.313  1.0727 -0.5226 -1.9040
  348DG      H8 7989   4.998   5.476   1.453  0.3615  1.1707 -1.7640
  348DG      O9 7990   4.416   5.242   1.420 -0.5339 -0.0724  0.0154
  348DG     O10 7991   4.793   5.432   1.458 -0.6141 -0.1197 -0.3147
  348DG     C11 7992   4.343   5.340   1.501 -0.3421 -0.1284 -0.4044
  348DG     C12 7993   4.738   5.545   1.528 -0.0930 -0.1002 -0.5722
  348DG     H13 7994   4.362   5.326   1.607 -0.8492  0.9763 -0.1460
  348DG     H14 7995   4.234   5.348   1.495 -0.5595  1.5018  3.0535
  348DG     H15 7996   4.743   5.634   1.466  0.3258  0.8419  0.7625
  348DG     H16 7997   4.790   5.555   1.624  0.6548  0.1195 -0.9872
  348DG     C17 7998   4.383   5.478   1.444  0.2236  0.1038 -0.0271
  348DG     C18 7999   4.592   5.512   1.568  0.6522 -0.2870  0.4370
  348DG     O19 8000   4.526   5.480   1.445 -0.6369 -0.2235  0.2655
  348DG     H20 8001   4.322   5.554   1.494 -2.1953 -2.8196  1.8739
  348DG     H21 8002   4.352   5.486   1.340 -0.9297 -1.7940  0.1229
  348DG     H22 8003   4.586   5.417   1.622 -2.3612 -1.7527 -2.1548
  348DG     H23 8004   4.535   5.594   1.612 -2.5817 -1.7470 -0.7101
  349DG      C1 8005   5.278   4.795   0.755 -0.4030 -0.5328 -0.0640
  349DG      C2 8006   5.957   4.743   0.795  0.5116  0.9771  1.0114
  349DG      H3 8007   5.325   4.887   0.717 -0.2339 -0.4123  0.4300
  349DG      H4 8008   5.235   4.815   0.853  0.1786 -2.3273  0.5919
  349DG      H5 8009   5.194   4.778   0.689 -1.2039 -0.5723  0.9480
  349DG      H6 8010   5.978   4.815   0.716 -0.7243 -0.1559 -0.4287
  349DG      H7 8011   5.933   4.794   0.888 -3.0503 -1.5162  1.6747
  349DG      H8 8012   6.038   4.671   0.803  0.6719  0.6576 -2.0960
  349DG      O9 8013   5.375   4.697   0.750 -0.3832 -0.6325 -0.0221
  349DG     O10 8014   5.836   4.676   0.755 -0.0951  0.9921 -0.3218
  349DG     C11 8015   5.377   4.637   0.619 -0.1871 -0.1241  0.1966
  349DG     C12 8016   5.853   4.581   0.650  0.5435  0.1866  0.4309
  349DG     H13 8017   5.375   4.721   0.548 -0.3038 -0.2765  0.0175
  349DG     H14 8018   5.286   4.588   0.584 -0.1963 -0.1079  0.1977
  349DG     H15 8019   5.934   4.510   0.665  0.4777 -0.4574 -1.8369
  349DG     H16 8020   5.874   4.638   0.560  0.8368  0.8838  0.9356
  349DG     C17 8021   5.492   4.547   0.597 -0.2478 -0.2656 -0.1483
  349DG     C18 8022   5.717   4.510   0.637 -0.0706 -0.3467  0.5178
  349DG     O19 8023   5.613   4.610   0.642  0.3592 -0.3361  0.4012
  349DG     H20 8024   5.496   4.520   0.492  1.9610  0.7342 -0.3707
  349DG     H21 8025   5.467   4.460   0.658 -0.1766 -0.3328 -0.2157
  349DG     H22 8026   5.718   4.440   0.554  0.5186  3.4201 -2.9591
  349DG     H23 8027   5.705   4.459   0.733  0.1119  0.1197  0.7931
  350DG      C1 8028   4.259   4.374   2.827 -0.3819 -0.4915  0.0735
  350DG      C2 8029   4.869   4.366   3.294 -0.4255 -0.0480 -0.4462
  350DG      H3 8030   4.182   4.313   2.873 -1.0721  1.6151  1.8865
  350DG      H4 8031   4.269   4.346   2.722 -0.0427  0.5592 -0.1903
  350DG      H5 8032   4.229   4.477   2.806  1.6746  0.0272 -0.6212
  350DG      H6 8033   4.899   4.436   3.372 -0.4420  0.4244 -0.8542
  350DG      H7 8034   4.834   4.273   3.339 -1.4933  0.2103 -0.7145
  350DG      H8 8035   4.962   4.340   3.243  1.2739 -0.2484  2.5017
  350DG      O9 8036   4.365   4.385   2.920  0.5173 -0.2321  0.3450
  350DG     O10 8037   4.774   4.431   3.207 -0.6043  0.1430  0.7657
  350DG     C11 8038   4.474   4.458   2.874  1.0534 -0.4415 -0.0799
  350DG     C12 8039   4.833   4.541   3.138 -0.3486 -0.3355  0.2147
  350DG     H13 8040   4.435   4.543   2.818 -0.4473 -0.6365  0.6206
  350DG     H14 8041   4.541   4.403   2.807  1.1872 -0.8988  0.4273
  350DG     H15 8042   4.900   4.501   3.062 -1.0292 -1.4179  0.1665
  350DG     H16 8043   4.890   4.606   3.204  0.1834 -1.4298  0.8633
  350DG     C17 8044   4.539   4.518   2.996 -0.0998  0.0686  0.4160
  350DG     C18 8045   4.721   4.632   3.073 -0.9938 -0.8444  0.1542
  350DG     O19 8046   4.651   4.593   2.963  0.2266  0.2365  0.4222
  350DG     H20 8047   4.561   4.434   3.061 -1.1797 -0.9283 -0.4452
  350DG     H21 8048   4.465   4.574   3.054 -1.0591 -3.0713  2.4921
  350DG     H22 8049   4.657   4.685   3.144  2.8493  2.1493  1.7777
  350DG     H23 8050   4.789   4.710   3.038  0.1854 -1.6436  0.5866
  351DG      C1 8051   4.272   1.776   0.025  0.7379 -0.4639 -0.3362
  351DG      C2 8052   4.882   1.823  -0.144 -0.0089  0.5289  0.5476
  351DG      H3 8053   4.188   1.820   0.080  1.0806 -1.2392  0.8497
  351DG      H4 8054   4.308   1.712   0.106 -0.9877 -3.0713 -1.4996
  351DG      H5 8055   4.235   1.708  -0.051  2.3297 -2.7187  0.7939
  351DG      H6 8056   4.867   1.730  -0.089  0.3231  0.4529  0.5160
  351DG      H7 8057   4.845   1.802  -0.244 -1.1084 -1.9080  1.3766
  351DG      H8 8058   4.990   1.835  -0.157  0.2734 -0.8742  1.3917
  351DG      O9 8059   4.377   1.871  -0.008  0.0393  0.1322  0.4271
  351DG     O10 8060   4.802   1.922  -0.075  0.0937  0.7081  0.2842
  351DG     C11 8061   4.328   1.991  -0.058 -0.0538  0.4781 -1.1656
  351DG     C12 8062   4.802   2.052  -0.134 -0.1822 -0.1582  0.2950
  351DG     H13 8063   4.262   2.038   0.015  0.4250 -0.6340  0.0208
  351DG     H14 8064   4.269   1.971  -0.147  0.8170 -0.4739 -1.5508
  351DG     H15 8065   4.801   2.046  -0.243  2.5188 -0.3664  0.2248
  351DG     H16 8066   4.898   2.098  -0.112 -0.7173  1.1046  0.0949
  351DG     C17 8067   4.435   2.100  -0.085  0.5780  0.4271 -0.1144
  351DG     C18 8068   4.677   2.124  -0.085 -0.2852 -0.0764 -0.1809
  351DG     O19 8069   4.567   2.047  -0.124  0.6421  0.0414  0.0588
  351DG     H20 8070   4.443   2.150   0.012 -2.3255  1.5414 -0.3700
  351DG     H21 8071   4.403   2.175  -0.158  0.3938  1.1924  0.7345
  351DG     H22 8072   4.677   2.132   0.023 -0.0354  2.3325 -0.2999
  351DG     H23 8073   4.667   2.227  -0.121 -2.7982  0.0011  0.5386
  352DG      C1 8074   5.178   2.021   3.661 -0.7571  0.4646  0.0625
  352DG      C2 8075   4.992   1.618   4.228  0.6827 -0.7303 -0.6043
  352DG      H3 8076   5.104   1.962   3.606  0.8018 -1.5057 -0.0362
  352DG      H4 8077   5.265   1.956   3.645  0.0014  1.7189 -1.1042
  352DG      H5 8078   5.201   2.118   3.618  1.7469 -0.4576 -0.8432
  352DG      H6 8079   4.987   1.619   4.337 -2.2474  0.6996 -0.6552
  352DG      H7 8080   4.893   1.581   4.200 -0.0532  0.0022  0.8987
  352DG      H8 8081   5.059   1.534   4.208  0.8756 -0.4378 -1.2301
  352DG      O9 8082   5.161   2.020   3.800  0.4977  0.3250  0.2581
  352DG     O10 8083   5.042   1.742   4.178  0.0520 -0.7648  0.1095
  352DG     C11 8084   5.097   2.138   3.852  0.2356 -0.9249  0.2015
  352DG     C12 8085   4.967   1.859   4.223  0.3589  0.5422  0.0616
  352DG     H13 8086   4.996   2.152   3.812 -0.3373  0.0404  1.8919
  352DG     H14 8087   5.152   2.226   3.819  0.0834 -0.7258  0.4726
  352DG     H15 8088   4.954   1.850   4.331  2.5270 -0.4153  0.2824
  352DG     H16 8089   4.867   1.850   4.180  1.1008  1.2972 -1.9502
  352DG     C17 8090   5.095   2.133   4.005 -0.7861 -0.7492  0.0562
  352DG     C18 8091   5.038   1.992   4.189  0.1092  0.1679  0.2434
  352DG     O19 8092   5.069   2.000   4.045 -0.8010  0.6536  0.1155
  352DG     H20 8093   5.027   2.208   4.047  1.8511  1.9750 -0.1811
  352DG     H21 8094   5.192   2.156   4.049 -0.3511 -2.1847 -0.1203
  352DG     H22 8095   4.972   2.071   4.222  1.3825  0.7928  1.3777
  352DG     H23 8096   5.135   2.001   4.238 -0.3786 -0.1720  1.2925
  353DG      C1 8097   5.197   2.218   1.310 -0.5710  0.2460 -0.5692
  353DG      C2 8098   4.400   2.047   1.362 -0.0612  0.0159  0.2581
  353DG      H3 8099   5.228   2.302   1.372 -1.7515  0.5187 -0.3265
  353DG      H4 8100   5.149   2.267   1.226  0.5967 -0.6563 -1.8031
  353DG      H5 8101   5.292   2.177   1.274 -1.2036 -2.8574  0.9001
  353DG      H6 8102   4.387   2.054   1.254 -0.1760 -1.2421  0.1770
  353DG      H7 8103   4.350   1.963   1.409  0.9454  0.4982  2.3262
  353DG      H8 8104   4.358   2.135   1.412 -1.4981 -0.9146  0.7357
  353DG      O9 8105   5.133   2.124   1.392  0.0884 -0.5604 -0.1158
  353DG     O10 8106   4.536   2.019   1.396  0.1464  0.0377  0.0258
  353DG     C11 8107   4.991   2.160   1.404 -0.2518 -0.1717 -0.4596
  353DG     C12 8108   4.560   2.019   1.533 -0.1115 -0.2416 -0.1205
  353DG     H13 8109   4.947   2.162   1.305  0.9171 -1.1252 -1.0318
  353DG     H14 8110   4.966   2.257   1.447  0.2508 -0.7132  1.1160
  353DG     H15 8111   4.501   1.944   1.586 -0.0335  0.0123  0.3325
  353DG     H16 8112   4.544   2.117   1.578 -2.9709  0.4426 -2.3434
  353DG     C17 8113   4.936   2.057   1.492 -0.0654  0.6501 -0.3481
  353DG     C18 8114   4.711   1.985   1.548  0.0176  0.0119 -0.0936
  353DG     O19 8115   4.799   2.088   1.500  0.3340  0.2390 -0.1944
  353DG     H20 8116   4.979   2.067   1.592 -0.6885  0.2824 -0.0365
  353DG     H21 8117   4.959   1.958   1.450  2.3074  0.3682  1.3955
  353DG     H22 8118   4.726   1.964   1.654 -0.9978  3.7741  0.9352
  353DG     H23 8119   4.726   1.895   1.488  0.0802  1.2550 -2.0361
  354DG      C1 8120   3.947   3.716   3.373  0.1883 -0.4104 -0.2410
  354DG      C2 8121   3.961   4.538   3.041 -0.2256 -0.8820 -0.5016
  354DG      H3 8122   3.928   3.649   3.289  0.5716 -2.3612  1.1467
  354DG      H4 8123   3.864   3.723   3.443 -0.1554  0.9587 -0.7561
  354DG      H5 8124   4.026   3.664   3.429  0.1573 -0.0833  0.1138
  354DG      H6 8125   3.907   4.599   3.113 -0.6357  0.5700 -2.0058
  354DG      H7 8126   4.035   4.602   2.993  0.2029  1.3401  2.8021
  354DG      H8 8127   3.907   4.491   2.959 -0.4433  0.2293 -1.0069
  354DG      O9 8128   3.981   3.848   3.332 -0.0158  0.7373 -0.4016
  354DG     O10 8129   4.050   4.445   3.113  0.1266  0.3950 -0.2885
  354DG     C11 8130   4.032   3.930   3.438 -0.1632 -0.3992  0.5429
  354DG     C12 8131   3.987   4.344   3.187  0.3068 -0.3831 -0.1252
  354DG     H13 8132   4.080   3.870   3.515  0.1476 -0.0612  0.6180
  354DG     H14 8133   3.941   3.971   3.482  1.1785  3.6804 -0.0766
  354DG     H15 8134   3.920   4.289   3.120  1.5598 -3.1512  0.7571
  354DG     H16 8135   3.923   4.387   3.264 -1.1211  0.2906 -1.6161
  354DG     C17 8136   4.118   4.046   3.379 -0.1484 -0.1337 -0.3138
  354DG     C18 8137   4.090   4.252   3.257 -0.9625 -0.4048 -0.7356
  354DG     O19 8138   4.029   4.146   3.322  0.3416  0.4961  0.4940
  354DG     H20 8139   4.195   4.014   3.310  1.7447  3.5987 -0.2013
  354DG     H21 8140   4.176   4.085   3.463 -0.9243  0.6391 -0.1220
  354DG     H22 8141   4.150   4.208   3.177  1.6694  1.2883  0.1385
  354DG     H23 8142   4.159   4.306   3.322 -1.5290 -2.8732  2.1439
  355DG      C1 8143   0.309   2.707   2.139 -0.2704 -0.4575  1.1870
  355DG      C2 8144  -0.073   2.045   2.208  0.0901  0.3160 -0.4984
  355DG      H3 8145   0.410   2.686   2.101  0.1595  2.6314  0.3460
  355DG      H4 8146   0.319   2.777   2.222 -0.6341  1.8454 -0.6098
  355DG      H5 8147   0.255   2.768   2.067 -2.0983 -0.0892  2.8047
  355DG      H6 8148  -0.165   1.998   2.244  1.0469 -0.3126  1.2606
  355DG      H7 8149  -0.013   1.966   2.163 -0.2949 -0.3526  0.1297
  355DG      H8 8150  -0.016   2.074   2.296  0.0677 -1.3311  0.1005
  355DG      O9 8151   0.231   2.589   2.167 -0.0978  0.1741  1.2563
  355DG     O10 8152  -0.092   2.157   2.119 -0.4195  0.3018  0.1912
  355DG     C11 8153   0.116   2.627   2.247  0.2037 -0.1262  0.3348
  355DG     C12 8154   0.038   2.200   2.060  0.0736  0.9243  0.1711
  355DG     H13 8155   0.051   2.693   2.189  0.9733  0.3291 -0.0222
  355DG     H14 8156   0.149   2.677   2.338  1.1626 -0.0821 -0.0332
  355DG     H15 8157   0.027   2.228   1.955 -1.2123  0.4033  0.1474
  355DG     H16 8158   0.106   2.117   2.041 -2.8681 -0.9099 -3.8045
  355DG     C17 8159   0.051   2.493   2.279  0.2928 -0.6648 -0.7144
  355DG     C18 8160   0.112   2.303   2.145 -0.1985 -0.6501 -0.3790
  355DG     O19 8161   0.022   2.420   2.161 -0.6886  0.1332 -0.5307
  355DG     H20 8162  -0.045   2.516   2.324 -0.7548 -1.9638 -2.1938
  355DG     H21 8163   0.110   2.446   2.358  0.2204  0.4416  0.0197
  355DG     H22 8164   0.142   2.263   2.242  1.1016  1.7186  0.2869
  355DG     H23 8165   0.204   2.342   2.102  0.0996 -0.3868  0.4700
  356DG      C1 8166   0.372   1.201   1.570 -0.6482  0.0504 -0.2644
  356DG      C2 8167   0.701   0.884   1.506  0.1102 -0.6383  0.2675
  356DG      H3 8168   0.455   1.234   1.633 -0.1376 -0.3458 -0.7253
  356DG      H4 8169   0.338   1.115   1.627  0.4429 -1.6449 -2.0654
  356DG      H5 8170   0.306   1.288   1.570 -0.5910  0.1006  0.3423
  356DG      H6 8171   0.662   0.984   1.522 -2.1244 -1.0767 -1.9136
  356DG      H7 8172   0.660   0.819   1.583  0.3898 -0.1977  0.7939
  356DG      H8 8173   0.810   0.884   1.510  0.0808 -0.5685  1.1305
  356DG      O9 8174   0.409   1.142   1.449 -0.6760  0.2900  0.5114
  356DG     O10 8175   0.646   0.826   1.387  0.4678  0.0419 -0.0530
  356DG     C11 8176   0.429   1.237   1.347 -0.5303  0.3425 -0.9387
  356DG     C12 8177   0.722   0.872   1.277 -0.4098  0.2941  0.3538
  356DG     H13 8178   0.413   1.342   1.373 -1.2517  0.1777 -0.7033
  356DG     H14 8179   0.364   1.216   1.262 -1.8441  0.9459 -0.1170
  356DG     H15 8180   0.687   0.815   1.190  0.1273 -0.9924  0.9573
  356DG     H16 8181   0.827   0.844   1.277 -0.5068 -0.1793 -0.9763
  356DG     C17 8182   0.575   1.207   1.298  0.3090  0.2011 -0.0890
  356DG     C18 8183   0.716   1.022   1.255  0.1160 -0.0818  0.0948
  356DG     O19 8184   0.587   1.066   1.276  0.2609 -0.3611 -0.0227
  356DG     H20 8185   0.655   1.250   1.359 -0.0868  0.8362 -0.0038
  356DG     H21 8186   0.582   1.262   1.205 -0.5725  1.3537  0.4976
  356DG     H22 8187   0.777   1.071   1.331 -1.5229  1.6074  0.4125
  356DG     H23 8188   0.760   1.059   1.162 -2.1460  1.2562 -0.5283
  357DG      C1 8189   4.040   1.924   0.772 -0.2178  0.9992  0.2697
  357DG      C2 8190   4.563   1.939   0.959  0.1074 -0.0885  0.3170
  357DG      H3 8191   3.933   1.900   0.769  0.2839 -1.4076 -0.2848
  357DG      H4 8192   4.039   2.008   0.702 -1.8267  0.3889 -0.5107
  357DG      H5 8193   4.069   1.963   0.870 -2.0269 -0.3893  1.4206
  357DG      H6 8194   4.613   1.846   0.986 -1.3413 -1.3440 -1.0931
  357DG      H7 8195   4.629   2.026   0.967 -0.4055  0.4760 -1.1512
  357DG      H8 8196   4.482   1.945   1.031 -0.5606  1.3972 -0.5053
  357DG      O9 8197   4.120   1.811   0.733 -0.1317 -0.3793 -0.1477
  357DG     O10 8198   4.475   1.922   0.844  0.0304 -0.3509 -0.0013
  357DG     C11 8199   4.130   1.793   0.593  0.3874  0.8081  0.2541
  357DG     C12 8200   4.547   1.924   0.720  0.0170  0.0910 -0.8411
  357DG     H13 8201   4.030   1.795   0.550  0.7290  0.8620 -0.5448
  357DG     H14 8202   4.158   1.688   0.580  1.1111  0.7916  1.6890
  357DG     H15 8203   4.596   1.827   0.726 -2.3778 -1.1844 -0.2530
  357DG     H16 8204   4.624   2.000   0.723 -1.3460  1.6856 -3.2391
  357DG     C17 8205   4.243   1.884   0.534  0.6416  0.0397 -0.0979
  357DG     C18 8206   4.459   1.939   0.594 -0.0147 -0.0597  0.1768
  357DG     O19 8207   4.347   1.859   0.625  0.2488 -0.6611 -0.5068
  357DG     H20 8208   4.207   1.987   0.525 -2.5046 -1.0356 -1.0998
  357DG     H21 8209   4.267   1.854   0.432  1.6300  0.0034  0.1398
  357DG     H22 8210   4.433   2.043   0.575 -1.5969 -0.3542  0.6183
  357DG     H23 8211   4.513   1.906   0.505  0.8501 -0.2697  0.7692
  358DG      C1 8212   4.767   2.785   2.727  0.1847 -0.3313  0.1146
  358DG      C2 8213   4.268   2.466   3.194 -0.0940 -0.2785  0.1362
  358DG      H3 8214   4.836   2.708   2.761 -0.7855 -1.3577 -0.1729
  358DG      H4 8215   4.803   2.871   2.783 -1.7643  0.6381 -0.0390
  358DG      H5 8216   4.790   2.828   2.629 -1.5114  0.1731 -0.1087
  358DG      H6 8217   4.283   2.374   3.250  1.3944 -0.4471 -0.5135
  358DG      H7 8218   4.172   2.510   3.223 -0.2372 -0.1871 -0.4551
  358DG      H8 8219   4.256   2.425   3.094 -2.0673  1.3440 -0.3643
  358DG      O9 8220   4.635   2.768   2.756 -0.3241  0.6574 -0.2150
  358DG     O10 8221   4.375   2.558   3.213 -0.6146  0.0870  0.4556
  358DG     C11 8222   4.587   2.637   2.736  0.4815 -0.5643  0.1119
  358DG     C12 8223   4.372   2.669   3.122 -0.1994 -0.5429  0.4630
  358DG     H13 8224   4.630   2.580   2.653 -0.5855 -2.4337  0.7642
  358DG     H14 8225   4.482   2.655   2.714  0.3388 -0.6375  0.7021
  358DG     H15 8226   4.427   2.752   3.166 -1.1423  0.5273 -0.3606
  358DG     H16 8227   4.278   2.723   3.123  1.5195  2.7551 -1.0628
  358DG     C17 8228   4.593   2.538   2.857 -0.5589  0.0922  0.4017
  358DG     C18 8229   4.425   2.635   2.985 -0.4451  0.4488 -0.5376
  358DG     O19 8230   4.559   2.587   2.985 -0.9073 -0.2941  0.2345
  358DG     H20 8231   4.694   2.498   2.872 -0.0312  1.1706 -0.1189
  358DG     H21 8232   4.535   2.448   2.837  0.1478 -0.5157  1.0146
  358DG     H22 8233   4.359   2.566   2.933 -1.3532  0.7040  0.2547
  358DG     H23 8234   4.410   2.725   2.926  2.4010  0.6164 -1.1750
  359DG      C1 8235   1.664   3.117   1.590  0.2050  0.3586  0.3552
  359DG      C2 8236   1.382   2.702   1.967  0.4323 -0.0077 -0.2768
  359DG      H3 8237   1.600   3.184   1.648 -1.3929 -1.4768  0.8137
  359DG      H4 8238   1.611   3.127   1.495 -3.7682 -1.3067  2.1495
  359DG      H5 8239   1.768   3.148   1.593  0.2880 -0.0085  1.9380
  359DG      H6 8240   1.330   2.627   2.026  0.3865  1.2717  1.3855
  359DG      H7 8241   1.321   2.789   1.990 -0.2726 -0.6967  0.5364
  359DG      H8 8242   1.374   2.694   1.859 -0.6381 -1.6970 -0.1071
  359DG      O9 8243   1.653   2.990   1.649 -0.4350  0.3104 -0.1360
  359DG     O10 8244   1.511   2.750   2.010 -0.4804 -0.0227  0.3437
  359DG     C11 8245   1.732   2.892   1.595 -0.1223 -0.3401 -0.3241
  359DG     C12 8246   1.622   2.658   1.997 -0.1537 -0.1440 -0.5545
  359DG     H13 8247   1.838   2.917   1.608  0.2508 -2.0469  0.1503
  359DG     H14 8248   1.706   2.883   1.489 -2.3321  2.1899 -0.1012
  359DG     H15 8249   1.592   2.562   2.039  2.8185 -1.0151 -0.1844
  359DG     H16 8250   1.709   2.700   2.046  1.2536 -0.5580 -2.5747
  359DG     C17 8251   1.686   2.761   1.652  0.5274 -0.4173 -0.1807
  359DG     C18 8252   1.657   2.632   1.848 -0.7985  0.0874 -0.4169
  359DG     O19 8253   1.694   2.755   1.789 -0.0204 -0.3750 -0.1181
  359DG     H20 8254   1.747   2.680   1.612  0.8241  0.0050 -0.5934
  359DG     H21 8255   1.581   2.740   1.627  0.1894  0.5842  0.3677
  359DG     H22 8256   1.743   2.566   1.836 -0.7144  0.2065 -0.4736
  359DG     H23 8257   1.570   2.588   1.800 -1.4090 -0.4895  1.1582
  360DG      C1 8258   3.246   2.460   1.851  0.3316 -0.3260 -0.5815
  360DG      C2 8259   3.864   2.314   2.304 -0.2206 -0.4481  0.5020
  360DG      H3 8260   3.158   2.434   1.910  1.4508 -1.4063  0.6710
  360DG      H4 8261   3.236   2.440   1.744 -0.6540  0.1291 -0.5858
  360DG      H5 8262   3.258   2.568   1.862 -0.7178 -0.3067  0.5061
  360DG      H6 8263   3.861   2.403   2.366  0.2386 -0.1354  0.0908
  360DG      H7 8264   3.827   2.233   2.366 -0.6168 -1.7711 -1.3791
  360DG      H8 8265   3.964   2.288   2.268 -0.0805 -0.5828  0.9800
  360DG      O9 8266   3.364   2.405   1.909  0.4844 -0.2487  0.1933
  360DG     O10 8267   3.771   2.330   2.200 -0.5562  0.1180 -0.1464
  360DG     C11 8268   3.361   2.263   1.883 -0.5828 -0.4046  0.0865
  360DG     C12 8269   3.639   2.348   2.239 -0.1932  0.1184 -0.0889
  360DG     H13 8270   3.345   2.239   1.778 -0.9253 -0.4753  0.1531
  360DG     H14 8271   3.281   2.221   1.945  1.1868 -2.5993  1.0493
  360DG     H15 8272   3.626   2.426   2.314 -3.0461  0.7438 -1.0973
  360DG     H16 8273   3.612   2.256   2.290  1.3442 -0.5898 -0.5017
  360DG     C17 8274   3.496   2.209   1.926 -0.4732 -0.2321 -0.4495
  360DG     C18 8275   3.553   2.357   2.113 -0.1409 -0.1655 -0.7350
  360DG     O19 8276   3.529   2.219   2.066 -0.0915 -0.8138  0.2321
  360DG     H20 8277   3.583   2.245   1.872 -1.3194  1.7861 -0.5611
  360DG     H21 8278   3.490   2.102   1.906  1.8652 -0.3371 -0.8663
  360DG     H22 8279   3.456   2.395   2.144  0.5318  0.1447  1.0724
  360DG     H23 8280   3.595   2.427   2.041  1.1015 -1.1945 -1.0511
  361DG      C1 8281   3.522   1.204   3.697 -0.5040  0.0513 -0.2364
  361DG      C2 8282   4.059   0.912   3.216 -0.3739  0.3414 -0.1515
  361DG      H3 8283   3.430   1.202   3.638 -0.2918  1.2296 -0.6491
  361DG      H4 8284   3.512   1.256   3.792 -2.0107 -0.1300 -0.2756
  361DG      H5 8285   3.550   1.101   3.720  0.5442 -0.0927 -2.0103
  361DG      H6 8286   4.018   0.828   3.159 -0.2150 -0.7154  1.2392
  361DG      H7 8287   4.149   0.950   3.168  1.8619 -0.5770  3.0266
  361DG      H8 8288   4.092   0.869   3.311 -1.0846 -0.7639 -0.3822
  361DG      O9 8289   3.636   1.266   3.636 -0.5723  0.0418  0.1609
  361DG     O10 8290   3.956   1.008   3.227  0.1149 -0.4306  0.5023
  361DG     C11 8291   3.652   1.233   3.501 -0.0961  0.4284  0.2907
  361DG     C12 8292   4.005   1.134   3.270 -0.4278  0.5052  0.3222
  361DG     H13 8293   3.576   1.275   3.435 -1.6319 -1.8701  0.4953
  361DG     H14 8294   3.646   1.124   3.502  0.2418  0.3724  2.5272
  361DG     H15 8295   4.099   1.159   3.221 -1.1894 -0.9447 -2.0311
  361DG     H16 8296   4.017   1.138   3.378  0.1869  0.8207  0.2487
  361DG     C17 8297   3.785   1.279   3.441 -0.2587  0.9752 -0.0083
  361DG     C18 8298   3.898   1.248   3.241 -0.6520  0.6164  0.3020
  361DG     O19 8299   3.784   1.225   3.308  0.1359  0.2648  0.2409
  361DG     H20 8300   3.856   1.229   3.507 -0.5433  0.6788  0.0770
  361DG     H21 8301   3.795   1.387   3.444  1.4987  0.8673 -0.7856
  361DG     H22 8302   3.952   1.339   3.267  2.2833 -0.4362 -1.6095
  361DG     H23 8303   3.877   1.248   3.134 -2.2013 -0.2869  0.5846
  362DG      C1 8304   2.458   5.439   4.366 -0.5157  0.4388 -0.3576
  362DG      C2 8305   2.347   4.830   4.654 -0.1678  0.3689  0.5159
  362DG      H3 8306   2.567   5.442   4.372 -0.3551 -3.3298  0.6101
  362DG      H4 8307   2.419   5.478   4.460 -2.6672 -2.8926  0.2843
  362DG      H5 8308   2.417   5.495   4.281  0.6339  0.1887 -1.0940
  362DG      H6 8309   2.268   4.875   4.713 -1.8272 -0.3184 -1.0886
  362DG      H7 8310   2.332   4.724   4.675 -2.0320  0.5174  0.1015
  362DG      H8 8311   2.449   4.856   4.682  0.1216 -0.4523  0.2776
  362DG      O9 8312   2.412   5.306   4.349 -0.0803 -0.3800 -0.6055
  362DG     O10 8313   2.327   4.879   4.525  0.0254  0.0785  0.1926
  362DG     C11 8314   2.477   5.237   4.236  0.5561  0.7813  0.0892
  362DG     C12 8315   2.423   4.821   4.430  0.5719 -0.0509 -0.7556
  362DG     H13 8316   2.583   5.234   4.262  0.1182 -0.2597  1.9199
  362DG     H14 8317   2.478   5.304   4.149  0.2830  1.3125  0.4879
  362DG     H15 8318   2.402   4.715   4.418  1.3531 -0.1067 -1.8167
  362DG     H16 8319   2.529   4.839   4.453  0.9730 -1.7655 -1.1498
  362DG     C17 8320   2.434   5.098   4.196 -0.5209 -0.1639 -0.3692
  362DG     C18 8321   2.408   4.886   4.297  0.2575  0.1317  0.7323
  362DG     O19 8322   2.444   5.022   4.310  0.0574 -0.2555 -0.2905
  362DG     H20 8323   2.497   5.066   4.113  2.3929 -0.0324  1.6663
  362DG     H21 8324   2.334   5.105   4.152 -0.5777 -1.0731 -0.4122
  362DG     H22 8325   2.474   4.848   4.220 -0.5981  2.2937 -1.1741
  362DG     H23 8326   2.306   4.868   4.263  0.2945  2.5314 -0.8592
  363DG      C1 8327   3.843   5.343   2.866  0.3164  0.5796 -0.3267
  363DG      C2 8328   4.472   5.614   2.539 -0.0453 -0.4199  0.1933
  363DG      H3 8329   3.740   5.331   2.832  0.3708  2.9184 -1.5366
  363DG      H4 8330   3.848   5.450   2.888 -2.0161  0.9398 -1.2631
  363DG      H5 8331   3.868   5.290   2.957  1.4085  0.8544 -0.4494
  363DG      H6 8332   4.539   5.631   2.624 -1.0666 -0.0338  0.9423
  363DG      H7 8333   4.544   5.571   2.469 -2.6551  0.2440 -3.1367
  363DG      H8 8334   4.444   5.711   2.499 -1.5563 -0.4922  0.9736
  363DG      O9 8335   3.932   5.310   2.757  0.2783 -0.1123  0.3087
  363DG     O10 8336   4.371   5.521   2.554  0.6612  0.1692 -0.4264
  363DG     C11 8337   4.067   5.333   2.792  0.6537 -0.0347 -0.4012
  363DG     C12 8338   4.282   5.516   2.434 -0.2794  0.1908 -0.0608
  363DG     H13 8339   4.099   5.251   2.856 -0.7199 -2.4682 -2.6534
  363DG     H14 8340   4.081   5.432   2.835  2.9107 -0.7214  0.5892
  363DG     H15 8341   4.347   5.508   2.347 -1.2708 -1.1975 -0.6959
  363DG     H16 8342   4.229   5.611   2.422  0.9106  0.8550 -0.1726
  363DG     C17 8343   4.158   5.316   2.674 -0.3746 -0.5496 -0.1603
  363DG     C18 8344   4.202   5.392   2.446  0.2305  0.3574  0.1456
  363DG     O19 8345   4.120   5.397   2.566  0.2585  0.0179  0.6548
  363DG     H20 8346   4.149   5.210   2.649 -2.5689 -0.2088 -1.0943
  363DG     H21 8347   4.261   5.339   2.700 -0.4668  1.5910 -1.4367
  363DG     H22 8348   4.144   5.372   2.355  1.6111  1.3866 -1.0183
  363DG     H23 8349   4.272   5.308   2.448 -3.4024 -3.0328 -1.5898
  364DG      C1 8350   0.722   2.420   1.391  0.4342 -0.1929  0.2345
  364DG      C2 8351   1.224   2.452   1.520 -0.4002  0.1322 -0.1772
  364DG      H3 8352   0.733   2.429   1.283  2.1911 -3.3534  0.0092
  364DG      H4 8353   0.615   2.425   1.411  0.7255  2.1950  1.6385
  364DG      H5 8354   0.745   2.315   1.410  0.7009 -0.2697 -0.4725
  364DG      H6 8355   1.223   2.349   1.557 -0.9136 -0.1210 -0.8656
  364DG      H7 8356   1.131   2.464   1.465 -0.9562  0.3288  0.7711
  364DG      H8 8357   1.311   2.457   1.455 -0.1133  0.2907  0.2142
  364DG      O9 8358   0.801   2.506   1.473 -0.1978  0.4577  0.1291
  364DG     O10 8359   1.242   2.550   1.614  0.7548  0.2183  0.0770
  364DG     C11 8360   0.792   2.647   1.447 -0.6372  0.6035 -0.4748
  364DG     C12 8361   1.263   2.679   1.567 -0.1176 -1.3368  0.3142
  364DG     H13 8362   0.691   2.677   1.476 -0.7958  0.6781 -1.0968
  364DG     H14 8363   0.802   2.664   1.340 -0.1113  1.2591 -0.3260
  364DG     H15 8364   1.313   2.697   1.472 -1.2240 -2.4785 -0.5250
  364DG     H16 8365   1.329   2.726   1.640 -2.1160 -1.2659  2.1713
  364DG     C17 8366   0.896   2.743   1.518 -0.6577  0.4855 -0.3602
  364DG     C18 8367   1.125   2.748   1.568 -0.4695 -0.1865 -0.9037
  364DG     O19 8368   1.028   2.682   1.494  0.4873 -0.5051  0.4152
  364DG     H20 8369   0.881   2.760   1.624  2.5206 -1.4688  0.5304
  364DG     H21 8370   0.889   2.838   1.465  0.1447  1.2128  0.8026
  364DG     H22 8371   1.096   2.767   1.672  0.3796 -0.3678 -0.6297
  364DG     H23 8372   1.143   2.850   1.533 -0.5620 -0.0801 -0.6447
  365DG      C1 8373   0.835   4.723   3.324 -0.2627  0.4083  0.7270
  365DG      C2 8374   0.651   5.569   3.464  0.1205  0.0477 -0.8336
  365DG      H3 8375   0.932   4.676   3.307 -0.4964 -0.3172  1.3443
  365DG      H4 8376   0.774   4.718   3.234  2.4855 -1.7109 -1.1794
  365DG      H5 8377   0.798   4.681   3.417  1.1252  0.4674  1.3393
  365DG      H6 8378   0.549   5.533   3.478  0.2450  0.0691  0.1795
  365DG      H7 8379   0.694   5.578   3.564 -0.2970  0.9408 -0.7249
  365DG      H8 8380   0.648   5.669   3.420 -0.1272  0.5273  0.2347
  365DG      O9 8381   0.861   4.858   3.341  0.2494  0.0629  0.5935
  365DG     O10 8382   0.742   5.488   3.386 -0.6590 -0.4630 -0.2266
  365DG     C11 8383   0.909   4.924   3.229  0.2058  0.5372  0.4917
  365DG     C12 8384   0.728   5.350   3.385  0.0788 -0.1342  0.1653
  365DG     H13 8385   0.827   4.926   3.157  1.2675 -0.3358 -0.7931
  365DG     H14 8386   0.999   4.877   3.190 -0.6424  0.1062 -1.0100
  365DG     H15 8387   0.633   5.326   3.338  0.1509  0.7605 -0.4719
  365DG     H16 8388   0.711   5.311   3.485  2.5311 -0.1941  0.6302
  365DG     C17 8389   0.948   5.067   3.270  0.0672 -0.0107 -0.4446
  365DG     C18 8390   0.849   5.283   3.311 -0.5085 -0.0450  0.3569
  365DG     O19 8391   0.830   5.142   3.306 -0.1816 -0.6043  0.0053
  365DG     H20 8392   0.991   5.116   3.182 -0.7943  4.7150  1.4354
  365DG     H21 8393   1.024   5.062   3.347  0.0075 -1.6992 -0.4666
  365DG     H22 8394   0.865   5.326   3.212  0.1400 -1.2623 -0.0771
  365DG     H23 8395   0.946   5.306   3.354 -0.0802 -1.4959  0.1988
  366DG      C1 8396   4.159   3.790   0.328  0.4352 -0.4072  0.4805
  366DG      C2 8397   3.817   4.144   0.442  0.3174 -0.5216  0.4097
  366DG      H3 8398   4.097   3.714   0.281 -0.3058 -0.3957  1.4021
  366DG      H4 8399   4.255   3.738   0.333 -0.1106 -1.4510  0.3793
  366DG      H5 8400   4.167   3.880   0.268 -1.6645  0.1434  0.9327
  366DG      H6 8401   3.729   4.195   0.481  1.5172  2.0212 -0.0434
  366DG      H7 8402   3.850   4.201   0.355 -2.1738  0.1624 -0.1845
  366DG      H8 8403   3.787   4.045   0.407 -0.5628 -0.1989  0.2193
  366DG      O9 8404   4.090   3.837   0.444 -0.0775  0.4440  0.0635
  366DG     O10 8405   3.910   4.132   0.546  0.4029  0.1781  0.3566
  366DG     C11 8406   4.102   3.757   0.558 -0.8021 -0.2822 -0.1385
  366DG     C12 8407   3.851   4.074   0.661  0.1344  0.3493 -0.2011
  366DG     H13 8408   4.205   3.737   0.586 -1.3424 -0.9910  1.4920
  366DG     H14 8409   4.065   3.656   0.537  1.2414 -1.6971  2.4327
  366DG     H15 8410   3.785   3.989   0.642 -0.7568  1.2042 -1.0144
  366DG     H16 8411   3.794   4.154   0.707  1.4210  1.2823 -0.1650
  366DG     C17 8412   4.012   3.817   0.666  0.2894  0.1726 -0.2927
  366DG     C18 8413   3.962   4.034   0.756  0.7054 -0.5347  0.3032
  366DG     O19 8414   4.062   3.946   0.695 -0.4427  0.1444 -0.3338
  366DG     H20 8415   4.017   3.749   0.750 -0.8355 -1.9204 -1.8335
  366DG     H21 8416   3.911   3.806   0.626 -0.0014 -1.5786  0.8290
  366DG     H22 8417   4.012   4.127   0.783  1.2853 -0.9865  0.8279
  366DG     H23 8418   3.924   3.990   0.848  2.3292 -0.8435  0.8622
  367DG      C1 8419   1.493   5.034   3.103  0.8386  0.0719  0.3163
  367DG      C2 8420   1.887   4.740   2.555 -0.0609  0.1848  0.0548
  367DG      H3 8421   1.498   5.107   3.183 -2.3295  2.1168 -1.1590
  367DG      H4 8422   1.434   4.952   3.144  2.5032 -0.7893  1.0895
  367DG      H5 8423   1.437   5.089   3.028 -2.0483 -2.0549  0.7343
  367DG      H6 8424   1.900   4.632   2.543  3.5466  0.4365  0.6121
  367DG      H7 8425   1.786   4.765   2.524 -0.0951  0.7183  0.6026
  367DG      H8 8426   1.969   4.773   2.490 -0.7277  1.7825 -0.0092
  367DG      O9 8427   1.625   4.994   3.070  0.0143 -0.0607  0.2942
  367DG     O10 8428   1.896   4.790   2.680  0.3707  0.3253 -0.1316
  367DG     C11 8429   1.730   5.085   3.102  0.2852 -0.0408  0.1083
  367DG     C12 8430   1.908   4.930   2.671  0.1964 -0.6154 -0.5189
  367DG     H13 8431   1.758   5.097   3.207 -2.1369 -1.7044  1.0254
  367DG     H14 8432   1.696   5.178   3.057  0.6565 -0.3744 -0.8983
  367DG     H15 8433   1.816   4.971   2.630  0.4254 -0.1100 -0.5483
  367DG     H16 8434   1.990   4.946   2.600 -1.0409  1.5722 -1.5551
  367DG     C17 8435   1.858   5.034   3.023  0.1865  0.4396  0.1743
  367DG     C18 8436   1.941   4.991   2.813  0.1720  0.0698  0.5623
  367DG     O19 8437   1.823   5.009   2.887  0.4154  0.1255  0.3816
  367DG     H20 8438   1.906   4.950   3.072 -2.1757 -1.2862 -0.2459
  367DG     H21 8439   1.921   5.122   3.023 -1.3826  1.6217  1.1791
  367DG     H22 8440   2.018   4.931   2.862 -0.7238 -1.5673  0.0704
  367DG     H23 8441   1.980   5.092   2.805 -0.7213  0.5234  1.5916
  368DG      C1 8442   4.758   3.340   5.029  0.0096  0.1492 -0.3943
  368DG      C2 8443   3.977   3.242   5.276  0.6748  0.8331 -0.1739
  368DG      H3 8444   4.712   3.294   4.942  2.4082  0.2681 -1.7998
  368DG      H4 8445   4.791   3.260   5.096 -0.0016  1.7872  1.6925
  368DG      H5 8446   4.843   3.396   4.989  0.1461 -0.9088 -1.6201
  368DG      H6 8447   4.002   3.151   5.330  0.3806  0.2387 -1.0133
  368DG      H7 8448   3.890   3.292   5.319  0.0450  1.0277 -1.6173
  368DG      H8 8449   3.952   3.208   5.175  0.1925  1.1170 -0.1563
  368DG      O9 8450   4.666   3.416   5.111 -0.0035  0.5232  0.1054
  368DG     O10 8451   4.090   3.320   5.277  0.1320 -0.3350 -0.2821
  368DG     C11 8452   4.538   3.359   5.140  0.0701 -0.5252  0.0897
  368DG     C12 8453   4.148   3.359   5.402  0.4810  0.0109 -0.0005
  368DG     H13 8454   4.556   3.257   5.174  0.3296 -0.4232  0.2644
  368DG     H14 8455   4.481   3.331   5.052  1.3048 -3.6088  0.1431
  368DG     H15 8456   4.181   3.275   5.463 -0.3696 -1.0551 -0.9652
  368DG     H16 8457   4.081   3.421   5.461  2.6766  0.9997  1.5730
  368DG     C17 8458   4.470   3.456   5.243 -0.0480  0.9091 -0.4770
  368DG     C18 8459   4.269   3.441   5.377 -0.0710  0.2693  0.5288
  368DG     O19 8460   4.352   3.378   5.280 -0.2373  0.5514  0.2511
  368DG     H20 8461   4.440   3.549   5.195 -1.5084 -0.0931 -1.5922
  368DG     H21 8462   4.534   3.496   5.322 -1.1344  0.5647  0.6046
  368DG     H22 8463   4.239   3.542   5.347  0.3378  0.5527  1.0585
  368DG     H23 8464   4.330   3.445   5.468 -0.4184 -0.8558  0.8216
  369DG      C1 8465   0.281   5.219   1.572  0.1907  0.1009  0.1308
  369DG      C2 8466  -0.215   4.982   1.292 -0.4820 -0.1037 -0.2676
  369DG      H3 8467   0.327   5.236   1.475  1.4014  1.2658  0.8721
  369DG      H4 8468   0.362   5.209   1.645  0.8377  2.6012 -0.1564
  369DG      H5 8469   0.227   5.307   1.608  0.7813 -0.0199  1.3985
  369DG      H6 8470  -0.114   4.973   1.252 -0.1219 -0.8086  0.7630
  369DG      H7 8471  -0.283   4.914   1.242  0.1126  0.0015 -1.2505
  369DG      H8 8472  -0.242   5.088   1.295  0.4183  0.1293 -0.0236
  369DG      O9 8473   0.187   5.111   1.579  0.1591 -0.3741 -0.3328
  369DG     O10 8474  -0.198   4.944   1.425  0.1314 -0.1590 -0.1056
  369DG     C11 8475   0.247   4.986   1.548  0.9720  0.2229 -0.4486
  369DG     C12 8476  -0.154   4.806   1.453  0.3983 -0.6763 -0.1593
  369DG     H13 8477   0.326   4.952   1.616  0.9582 -1.6434 -1.2928
  369DG     H14 8478   0.300   4.984   1.452  2.1749 -1.5862  0.1820
  369DG     H15 8479  -0.219   4.728   1.413  1.2342 -0.9717 -0.9761
  369DG     H16 8480  -0.159   4.798   1.562 -1.4478 -0.9027 -0.2243
  369DG     C17 8481   0.133   4.884   1.550  0.0907 -0.2692 -0.2488
  369DG     C18 8482  -0.019   4.778   1.391 -0.5662  0.1069  0.5291
  369DG     O19 8483   0.083   4.877   1.415  0.2909 -0.0308 -0.2815
  369DG     H20 8484   0.057   4.907   1.626  0.9449 -0.7114  0.7697
  369DG     H21 8485   0.178   4.785   1.562  1.3674  0.0073 -2.3388
  369DG     H22 8486   0.014   4.677   1.416  0.3016  0.5975  1.4342
  369DG     H23 8487  -0.041   4.779   1.285 -1.3595  2.1089  0.6683
  370DG      C1 8488   0.076   5.213   2.015 -1.1877 -0.1826 -0.0369
  370DG      C2 8489  -0.618   5.294   1.840 -0.6797  0.2014  0.1619
  370DG      H3 8490   0.164   5.150   2.030 -0.5482  0.9009  0.9678
  370DG      H4 8491   0.053   5.242   2.117  0.7001  0.4831  0.2449
  370DG      H5 8492   0.111   5.308   1.973  0.5319  1.6335  4.8087
  370DG      H6 8493  -0.690   5.221   1.802 -0.0786  0.0448 -0.7018
  370DG      H7 8494  -0.625   5.313   1.947 -1.6227  1.6181 -0.1261
  370DG      H8 8495  -0.631   5.384   1.780 -1.3499  0.2068  0.3036
  370DG      O9 8496  -0.033   5.156   1.959  0.1316  0.0906  0.9799
  370DG     O10 8497  -0.490   5.235   1.817 -0.2597  0.2223  0.2528
  370DG     C11 8498  -0.011   5.132   1.818  0.1533  0.1564 -0.1190
  370DG     C12 8499  -0.452   5.237   1.683  0.9182  0.4665  0.9680
  370DG     H13 8500   0.066   5.056   1.809 -1.1629 -1.7454  2.8446
  370DG     H14 8501   0.023   5.217   1.758  1.5019 -1.1039 -1.2213
  370DG     H15 8502  -0.439   5.339   1.646  0.7500  0.7365  1.6381
  370DG     H16 8503  -0.526   5.197   1.613  0.0040  3.2274  0.2035
  370DG     C17 8504  -0.143   5.084   1.760 -0.0092  0.1037  0.6665
  370DG     C18 8505  -0.336   5.141   1.660 -0.4957 -0.6072 -0.2270
  370DG     O19 8506  -0.232   5.189   1.744  0.0598 -0.7321  0.5044
  370DG     H20 8507  -0.192   5.001   1.810 -0.5611 -0.1424 -0.2597
  370DG     H21 8508  -0.113   5.041   1.664 -1.1791 -2.3373  1.3122
  370DG     H22 8509  -0.379   5.047   1.693 -1.0520  0.5144  2.5256
  370DG     H23 8510  -0.306   5.144   1.555  0.2229 -2.0321 -0.0781
  371DG      C1 8511   1.223   1.117   1.200 -0.1777  0.0929  0.2984
  371DG      C2 8512   1.648   1.717   1.502  0.3392 -0.8174  0.7142
  371DG      H3 8513   1.286   1.071   1.124 -0.0046  0.0495  0.4663
  371DG      H4 8514   1.150   1.179   1.148 -1.2165 -1.4884 -0.1849
  371DG      H5 8515   1.174   1.038   1.256 -0.9137  0.4766  0.2121
  371DG      H6 8516   1.664   1.708   1.395 -0.6405  2.3080  0.1985
  371DG      H7 8517   1.618   1.818   1.530 -0.5893 -1.0211  0.5033
  371DG      H8 8518   1.753   1.709   1.529  1.3498  3.3805 -1.1714
  371DG      O9 8519   1.314   1.199   1.280 -0.1580 -0.5185 -0.2370
  371DG     O10 8520   1.573   1.613   1.560  0.0802 -0.0018  0.2134
  371DG     C11 8521   1.260   1.244   1.403  0.2852  0.0921  0.2409
  371DG     C12 8522   1.448   1.604   1.488 -0.3571 -0.4382 -0.0364
  371DG     H13 8523   1.214   1.158   1.453  1.1116 -2.5958 -3.2367
  371DG     H14 8524   1.192   1.326   1.380 -0.4281 -1.0574 -2.0690
  371DG     H15 8525   1.419   1.701   1.448 -0.1109 -0.8325 -1.1950
  371DG     H16 8526   1.383   1.585   1.574  1.3734 -2.0151  0.9923
  371DG     C17 8527   1.375   1.300   1.487 -0.1806  0.5411 -0.3176
  371DG     C18 8528   1.434   1.504   1.368 -1.2634 -0.2248 -0.2228
  371DG     O19 8529   1.474   1.369   1.410 -0.0368  0.0938 -0.3779
  371DG     H20 8530   1.408   1.205   1.530 -3.7433 -1.7054 -2.0525
  371DG     H21 8531   1.341   1.354   1.576  0.4995  1.6330 -0.7038
  371DG     H22 8532   1.337   1.511   1.319 -0.7285  0.7664 -1.2076
  371DG     H23 8533   1.501   1.534   1.287  0.3403  1.9474  1.7532
  372DG      C1 8534   0.781   4.946   1.485 -0.1302 -0.3334 -0.1250
  372DG      C2 8535   0.471   4.526   2.004  0.5069 -0.4380  0.1606
  372DG      H3 8536   0.849   4.969   1.567  0.4295 -0.4698 -0.5421
  372DG      H4 8537   0.735   5.044   1.471 -1.8140 -1.0427  0.2440
  372DG      H5 8538   0.840   4.929   1.395 -1.7626  0.1173 -1.3272
  372DG      H6 8539   0.550   4.467   2.050 -1.1220 -3.6617 -0.8925
  372DG      H7 8540   0.460   4.618   2.061  0.6047 -0.4518  0.2021
  372DG      H8 8541   0.387   4.463   2.032 -1.1551  1.7199  0.3647
  372DG      O9 8542   0.697   4.837   1.516  0.2013 -0.4598 -0.3089
  372DG     O10 8543   0.502   4.548   1.868 -0.1477 -0.3874 -0.1211
  372DG     C11 8544   0.569   4.845   1.455 -0.1228  0.3236  0.3831
  372DG     C12 8545   0.381   4.585   1.801  0.1014  0.1007 -0.3219
  372DG     H13 8546   0.574   4.858   1.347  3.9754  0.8533  0.4900
  372DG     H14 8547   0.524   4.932   1.503  1.2841  1.2100  0.1641
  372DG     H15 8548   0.343   4.680   1.839 -1.1394 -0.0321 -1.1616
  372DG     H16 8549   0.299   4.514   1.816  0.5636 -0.5226 -0.7055
  372DG     C17 8550   0.490   4.722   1.482 -0.6484  0.2648 -0.0902
  372DG     C18 8551   0.406   4.582   1.648 -0.6899  0.1405 -1.2590
  372DG     O19 8552   0.488   4.692   1.622 -0.2998 -0.5671 -0.1842
  372DG     H20 8553   0.546   4.642   1.434  2.0429  0.7602  2.0296
  372DG     H21 8554   0.389   4.737   1.442  0.2131 -1.1548 -3.1169
  372DG     H22 8555   0.452   4.489   1.616  0.8527 -0.0570  1.3159
  372DG     H23 8556   0.315   4.590   1.588  0.9524 -0.6193 -4.0428
  373DG      C1 8557   0.948   3.752   0.405  0.0831  0.4882  0.4101
  373DG      C2 8558   1.360   3.600   0.892 -0.3262  1.2164  0.7816
  373DG      H3 8559   0.850   3.734   0.449 -0.9583 -0.7964 -2.2025
  373DG      H4 8560   0.936   3.730   0.299 -1.0458  1.8256  0.2370
  373DG      H5 8561   0.974   3.856   0.426 -1.7424  0.6273  2.3266
  373DG      H6 8562   1.360   3.708   0.907  0.5833  1.5804 -1.4002
  373DG      H7 8563   1.270   3.560   0.938  0.3520 -0.8183  0.4624
  373DG      H8 8564   1.445   3.564   0.950  0.0602  0.2755 -0.3302
  373DG      O9 8565   1.038   3.658   0.457 -0.7949 -0.4420  1.1191
  373DG     O10 8566   1.369   3.568   0.749  0.0803 -0.5754 -0.0698
  373DG     C11 8567   1.039   3.524   0.406  0.3069 -0.0905  0.0531
  373DG     C12 8568   1.337   3.438   0.712  0.0382  0.3125  0.1001
  373DG     H13 8569   1.062   3.529   0.299  0.5720 -1.1371  0.0494
  373DG     H14 8570   0.939   3.481   0.405 -0.4351  1.5036 -1.9623
  373DG     H15 8571   1.239   3.405   0.746 -0.2359  1.2843  0.2865
  373DG     H16 8572   1.404   3.371   0.766 -1.6242 -1.9750 -0.4834
  373DG     C17 8573   1.139   3.432   0.476 -0.1319 -0.8159 -0.6880
  373DG     C18 8574   1.357   3.420   0.561  0.9451 -0.4540 -0.3393
  373DG     O19 8575   1.266   3.496   0.482 -0.2705 -0.2595 -0.5347
  373DG     H20 8576   1.124   3.343   0.413 -1.1483  0.5092 -2.4157
  373DG     H21 8577   1.092   3.412   0.572  1.0004 -3.0082 -0.5307
  373DG     H22 8578   1.457   3.457   0.540  0.7487  1.7570  2.1132
  373DG     H23 8579   1.341   3.316   0.531 -1.6934  0.4205 -2.4102
  374DG      C1 8580   5.082   4.577   3.517  0.1735  0.0923 -0.0825
  374DG      C2 8581   5.758   4.136   3.415  0.2438  0.1461  0.1752
  374DG      H3 8582   4.994   4.635   3.490  0.3905  1.3635  1.7982
  374DG      H4 8583   5.151   4.631   3.582 -1.6440  0.6848  1.4254
  374DG      H5 8584   5.050   4.490   3.575 -1.7665  0.3490 -0.6937
  374DG      H6 8585   5.790   4.133   3.519  0.0108  1.7198  0.3168
  374DG      H7 8586   5.717   4.040   3.382 -0.2526 -0.1988  1.7371
  374DG      H8 8587   5.851   4.159   3.363  0.7215 -0.0579  0.9277
  374DG      O9 8588   5.145   4.533   3.398  0.2355 -0.3250 -0.5638
  374DG     O10 8589   5.664   4.234   3.378  0.1513 -0.2274  0.2718
  374DG     C11 8590   5.242   4.434   3.424 -0.6376  0.2730 -0.2532
  374DG     C12 8591   5.702   4.367   3.415 -0.8759  0.3953  0.2394
  374DG     H13 8592   5.225   4.363   3.343  1.9070  0.9166 -1.4560
  374DG     H14 8593   5.221   4.380   3.517 -1.7919 -0.6397 -1.0025
  374DG     H15 8594   5.791   4.398   3.359 -0.6730  0.3502  0.5352
  374DG     H16 8595   5.733   4.371   3.519 -0.0336 -2.8236  0.2334
  374DG     C17 8596   5.369   4.511   3.414  0.1208  0.4093  0.3518
  374DG     C18 8597   5.588   4.470   3.391 -0.0273 -0.7738 -0.2556
  374DG     O19 8598   5.469   4.418   3.440  0.2492  0.0955  0.0241
  374DG     H20 8599   5.367   4.585   3.494 -1.0343 -0.2379  0.9354
  374DG     H21 8600   5.382   4.560   3.318 -0.2472  0.4038  0.2994
  374DG     H22 8601   5.607   4.555   3.457  0.1092 -0.0155 -1.2403
  374DG     H23 8602   5.585   4.501   3.287 -1.4633  1.4211  0.3437
  375DG      C1 8603   3.140   1.364   4.321  0.3614  0.3423  0.6027
  375DG      C2 8604   2.908   1.592   4.986 -0.9730  0.6019  0.0322
  375DG      H3 8605   3.118   1.258   4.309 -3.7069  0.7723  2.4963
  375DG      H4 8606   3.143   1.419   4.227 -0.3106  2.4907  1.7634
  375DG      H5 8607   3.047   1.399   4.365  0.3597  0.3450  0.5974
  375DG      H6 8608   2.873   1.490   4.972  0.1323  0.0530  1.0797
  375DG      H7 8609   2.988   1.585   5.060  1.4935 -1.8231 -2.6216
  375DG      H8 8610   2.832   1.663   5.019 -1.5470  0.8088 -1.6464
  375DG      O9 8611   3.260   1.398   4.390  0.2704 -0.6936 -0.0219
  375DG     O10 8612   2.951   1.652   4.862 -0.2219  0.3735  0.0835
  375DG     C11 8613   3.293   1.535   4.385 -0.4402  0.0234  1.0593
  375DG     C12 8614   3.060   1.580   4.816  0.2613 -0.4804  0.6625
  375DG     H13 8615   3.296   1.557   4.279  1.0380 -3.2240  0.2981
  375DG     H14 8616   3.392   1.553   4.427  0.0909 -1.2010  0.3938
  375DG     H15 8617   3.046   1.473   4.831 -1.5733 -0.3178  0.4337
  375DG     H16 8618   3.156   1.602   4.861 -0.1995 -0.8119  1.8453
  375DG     C17 8619   3.192   1.615   4.467 -0.5869 -0.0122 -0.5399
  375DG     C18 8620   3.073   1.613   4.665  0.5834 -1.1183  0.2070
  375DG     O19 8621   3.196   1.573   4.603  0.1789 -0.0412  0.2138
  375DG     H20 8622   3.091   1.610   4.426 -1.7390 -3.1724  2.2052
  375DG     H21 8623   3.220   1.720   4.468  0.0147 -0.1747 -0.1746
  375DG     H22 8624   2.988   1.568   4.614 -2.2891  1.4579  2.3602
  375DG     H23 8625   3.048   1.717   4.643 -1.9063 -2.0114 -1.6778
  376DG      C1 8626   3.135   2.711   4.029  0.1267 -0.4898  0.3479
  376DG      C2 8627   2.703   2.697   4.540 -0.3207 -0.5541  0.1941
  376DG      H3 8628   3.237   2.704   3.990  0.5911  1.8396  0.9889
  376DG      H4 8629   3.092   2.798   3.979  1.7455  0.7656  1.0416
  376DG      H5 8630   3.092   2.616   3.998 -0.9671  0.4130 -1.0057
  376DG      H6 8631   2.662   2.624   4.470 -0.9371 -0.3283  0.3132
  376DG      H7 8632   2.671   2.678   4.642  0.3342 -1.4971  0.2385
  376DG      H8 8633   2.659   2.793   4.516 -1.0791  0.2541  4.1032
  376DG      O9 8634   3.132   2.714   4.170 -0.6407 -0.4973  0.0930
  376DG     O10 8635   2.844   2.709   4.515 -0.1318 -0.0087 -0.2325
  376DG     C11 8636   3.202   2.829   4.223  0.0584 -0.5772  0.2953
  376DG     C12 8637   2.913   2.784   4.614  0.3546  0.2704  0.2143
  376DG     H13 8638   3.147   2.921   4.202 -0.2088 -0.8597 -0.2816
  376DG     H14 8639   3.306   2.843   4.190 -0.9099  1.1686 -2.4315
  376DG     H15 8640   2.899   2.739   4.713  0.0004 -3.1808 -1.2502
  376DG     H16 8641   2.861   2.880   4.613 -1.8121 -0.8428 -0.5236
  376DG     C17 8642   3.200   2.809   4.367  0.3658  0.3108  0.1107
  376DG     C18 8643   3.055   2.792   4.567 -0.4940 -0.4245  0.4398
  376DG     O19 8644   3.064   2.793   4.419  0.2836  0.2933 -0.2557
  376DG     H20 8645   3.258   2.889   4.414  2.3976  0.5751 -2.6142
  376DG     H21 8646   3.256   2.720   4.396  3.5699  2.2294  0.3290
  376DG     H22 8647   3.100   2.883   4.606  2.6466 -1.6347 -0.0579
  376DG     H23 8648   3.119   2.714   4.609  1.5309  0.2113 -1.3196
  377DG      C1 8649   1.487   4.508   4.035  0.0464  0.0544  0.4154
  377DG      C2 8650   0.968   4.042   3.531 -0.8185 -0.5211  0.0012
  377DG      H3 8651   1.392   4.535   4.080 -1.1219 -0.7061 -1.4687
  377DG      H4 8652   1.560   4.586   4.057 -0.8378  1.3876 -1.1371
  377DG      H5 8653   1.517   4.413   4.080 -1.3089  0.4255  2.1638
  377DG      H6 8654   0.943   3.959   3.598 -0.1740 -0.8160 -0.1122
  377DG      H7 8655   0.876   4.098   3.514 -1.9378 -2.0927  0.6513
  377DG      H8 8656   0.997   4.003   3.434  2.1115 -1.1740  1.0231
  377DG      O9 8657   1.479   4.475   3.895 -0.1525 -0.3536 -0.4590
  377DG     O10 8658   1.086   4.106   3.581 -0.2252 -0.2458 -0.0732
  377DG     C11 8659   1.371   4.389   3.865  0.3212  0.5484 -0.0034
  377DG     C12 8660   1.118   4.210   3.491 -0.0711 -0.1996  0.6231
  377DG     H13 8661   1.279   4.416   3.917 -0.2290  0.4354 -0.9133
  377DG     H14 8662   1.393   4.287   3.898  0.0174  0.4732 -0.0356
  377DG     H15 8663   1.050   4.296   3.490  2.5500  2.0716  2.3738
  377DG     H16 8664   1.119   4.176   3.388  2.1282  0.4564  0.3851
  377DG     C17 8665   1.363   4.391   3.712 -0.1875 -0.2336  0.4776
  377DG     C18 8666   1.257   4.260   3.533 -0.1832  0.3154  0.3694
  377DG     O19 8667   1.255   4.307   3.669  0.0260  0.2357  0.3338
  377DG     H20 8668   1.454   4.358   3.662 -0.0947  1.8824 -0.8832
  377DG     H21 8669   1.343   4.490   3.671 -2.0087 -1.1674 -1.0436
  377DG     H22 8670   1.323   4.174   3.540 -1.0778 -0.2648  2.4786
  377DG     H23 8671   1.292   4.333   3.460 -2.6012 -0.4298 -1.7078
  378DG      C1 8672   1.000   1.829   2.759 -0.8902  0.0833 -0.2510
  378DG      C2 8673   0.367   1.996   2.437 -0.5694 -0.2004  0.0087
  378DG      H3 8674   1.082   1.778   2.810  0.1915 -1.1370 -2.9893
  378DG      H4 8675   0.950   1.892   2.833  0.4698  2.0181 -0.9066
  378DG      H5 8676   1.053   1.897   2.693 -0.3194 -0.9381 -0.8678
  378DG      H6 8677   0.379   1.940   2.530  3.0343 -1.9692 -1.3275
  378DG      H7 8678   0.354   2.103   2.455 -0.7095 -0.1655 -0.3073
  378DG      H8 8679   0.275   1.961   2.391 -0.3434  1.3961 -1.7495
  378DG      O9 8680   0.923   1.727   2.697  0.3071  0.3771  0.0471
  378DG     O10 8681   0.479   1.969   2.352 -0.6766  0.5047 -0.7072
  378DG     C11 8682   0.897   1.733   2.556 -0.2117 -0.2987 -0.2690
  378DG     C12 8683   0.496   1.836   2.313 -0.1131 -0.2074 -0.3458
  378DG     H13 8684   0.977   1.700   2.489 -0.6294  2.5194 -2.2983
  378DG     H14 8685   0.898   1.838   2.525 -0.1249 -0.1681  0.1656
  378DG     H15 8686   0.564   1.834   2.227  0.5429 -2.3798  0.1546
  378DG     H16 8687   0.399   1.801   2.276 -1.3723  2.5179  0.1283
  378DG     C17 8688   0.763   1.671   2.524 -0.3474 -0.2014 -0.0453
  378DG     C18 8689   0.556   1.743   2.416  0.0079 -0.3975 -0.0654
  378DG     O19 8690   0.692   1.777   2.455  0.1228  0.5190 -0.5462
  378DG     H20 8691   0.705   1.661   2.616  0.7611  2.3453  1.0038
  378DG     H21 8692   0.773   1.582   2.462  1.7561  0.8486 -1.3084
  378DG     H22 8693   0.502   1.750   2.510  0.2664 -0.2496  0.0706
  378DG     H23 8694   0.550   1.646   2.366  0.6788  0.3268 -1.6367
  379DG      C1 8695   0.131   3.699   3.837  0.9093 -0.5105 -0.9688
  379DG      C2 8696  -0.117   3.993   3.282 -0.0100  0.0642 -0.2490
  379DG      H3 8697   0.208   3.639   3.789 -0.4916 -2.4151 -0.9408
  379DG      H4 8698   0.122   3.651   3.934  2.2164 -0.3339 -0.7498
  379DG      H5 8699   0.170   3.800   3.850 -1.1029  0.2572 -0.5081
  379DG      H6 8700  -0.205   4.056   3.268  1.1057  1.6670 -0.3509
  379DG      H7 8701  -0.024   4.049   3.273  0.6702 -0.5881  1.9716
  379DG      H8 8702  -0.108   3.917   3.204  1.3173 -1.0574  0.9400
  379DG      O9 8703   0.007   3.691   3.780  0.4241 -0.6464 -0.1672
  379DG     O10 8704  -0.119   3.931   3.415 -0.2039  0.2835  0.1994
  379DG     C11 8705  -0.088   3.758   3.864  0.0368  0.2583 -0.4217
  379DG     C12 8706  -0.155   4.021   3.522 -0.7190 -1.2433  0.2425
  379DG     H13 8707  -0.060   3.860   3.890 -0.3318  0.0232  0.9512
  379DG     H14 8708  -0.095   3.704   3.958  2.9306  0.3585 -0.0529
  379DG     H15 8709  -0.262   4.041   3.517 -0.4427  0.4837  0.5653
  379DG     H16 8710  -0.106   4.116   3.504 -0.0094 -1.8484 -1.1730
  379DG     C17 8711  -0.214   3.762   3.783  0.5622 -0.1255 -0.0047
  379DG     C18 8712  -0.139   3.958   3.654  0.1407 -0.8967  0.1262
  379DG     O19 8713  -0.198   3.829   3.661  0.3149  0.4924  0.1608
  379DG     H20 8714  -0.294   3.817   3.832 -0.1668 -0.0547 -1.2418
  379DG     H21 8715  -0.248   3.661   3.760 -2.6904  0.7461  0.4811
  379DG     H22 8716  -0.033   3.944   3.676  0.3564 -0.3370 -0.5372
  379DG     H23 8717  -0.172   4.021   3.736  1.3302  2.5784 -1.8596
  380DG      C1 8718   0.230   4.182   0.868 -0.7348  0.0917 -0.0196
  380DG      C2 8719  -0.022   4.394   1.579 -0.1467  0.8730  0.0981
  380DG      H3 8720   0.144   4.236   0.827 -3.1929 -2.0726  1.8845
  380DG      H4 8721   0.252   4.085   0.823  1.5046  0.2683  0.5773
  380DG      H5 8722   0.306   4.254   0.838  0.5128 -1.0086  0.4015
  380DG      H6 8723   0.015   4.398   1.682  1.3958 -0.9347 -0.3356
  380DG      H7 8724  -0.093   4.476   1.577 -1.7073 -0.4179 -2.9315
  380DG      H8 8725  -0.086   4.307   1.574 -1.1911  1.6648 -0.8776
  380DG      O9 8726   0.215   4.175   1.006 -0.1170  0.2555  0.2300
  380DG     O10 8727   0.076   4.414   1.477 -0.1355  0.0849  0.1735
  380DG     C11 8728   0.089   4.115   1.048 -0.1640  0.0201  1.0511
  380DG     C12 8729   0.165   4.302   1.476 -0.4922  0.0887  0.2481
  380DG     H13 8730   0.068   4.036   0.977 -1.3984  1.3382 -0.1280
  380DG     H14 8731   0.014   4.193   1.036 -0.0874  0.6091  3.6690
  380DG     H15 8732   0.209   4.278   1.573  2.1954 -0.7481 -1.0834
  380DG     H16 8733   0.263   4.330   1.438 -0.6098 -0.9961 -0.9018
  380DG     C17 8734   0.096   4.080   1.196  0.5396 -0.1476  0.6479
  380DG     C18 8735   0.131   4.179   1.400  0.0100  0.2243 -0.0490
  380DG     O19 8736   0.111   4.208   1.263 -0.2572 -0.1823  0.3612
  380DG     H20 8737   0.182   4.013   1.202  0.8751  0.1011 -0.9104
  380DG     H21 8738   0.006   4.027   1.226 -0.0249  1.1384  1.2821
  380DG     H22 8739   0.215   4.115   1.424  0.8546  0.9647 -0.9490
  380DG     H23 8740   0.044   4.132   1.447  0.6691  0.5505  1.5614
  381DG      C1 8741   2.672   3.225   2.234 -0.4037 -0.6390  0.7090
  381DG      C2 8742   2.092   3.603   2.267 -0.0752  0.2497 -0.0167
  381DG      H3 8743   2.720   3.304   2.291 -1.2561  1.4422 -1.2621
  381DG      H4 8744   2.728   3.220   2.141  1.0659 -1.6191  1.6067
  381DG      H5 8745   2.659   3.126   2.278 -1.9143 -0.3750  0.9392
  381DG      H6 8746   2.154   3.621   2.179  0.4297  0.4054  0.3653
  381DG      H7 8747   1.987   3.632   2.262 -0.5546 -0.8564  2.0710
  381DG      H8 8748   2.137   3.654   2.352  1.0677  0.6702 -0.8585
  381DG      O9 8749   2.552   3.286   2.199  0.3357 -0.1408  0.3627
  381DG     O10 8750   2.096   3.467   2.308  0.2910 -0.4049 -0.0996
  381DG     C11 8751   2.476   3.192   2.119  0.3959  0.5710 -0.1471
  381DG     C12 8752   2.049   3.374   2.213  0.2735  0.5488  0.0901
  381DG     H13 8753   2.449   3.103   2.176  1.6828  0.9146  1.0699
  381DG     H14 8754   2.528   3.152   2.032 -0.3356  1.1128 -0.8520
  381DG     H15 8755   1.950   3.399   2.175 -0.3285  0.5850  1.6141
  381DG     H16 8756   2.034   3.285   2.273 -1.3241  2.3245  2.4855
  381DG     C17 8757   2.353   3.251   2.058 -0.1623 -0.7099  0.4415
  381DG     C18 8758   2.150   3.349   2.101 -0.4797  0.2870  0.0728
  381DG     O19 8759   2.266   3.299   2.160  0.5492  0.1807  0.4509
  381DG     H20 8760   2.303   3.173   2.002 -1.1409  1.5073 -1.9856
  381DG     H21 8761   2.380   3.329   1.987 -0.3396  0.5271  1.6661
  381DG     H22 8762   2.111   3.277   2.030  0.5827 -0.6953  0.4634
  381DG     H23 8763   2.181   3.437   2.044 -0.4887 -0.1570 -0.6212
  382DG      C1 8764   3.519   3.394   1.253 -0.3935 -0.2616 -0.0321
  382DG      C2 8765   4.023   3.635   1.553  0.1194 -0.0716 -0.2744
  382DG      H3 8766   3.464   3.318   1.199 -0.4535 -1.1350  1.2163
  382DG      H4 8767   3.463   3.487   1.246  0.3551  0.6723  3.7905
  382DG      H5 8768   3.535   3.359   1.355 -0.7392 -0.5036 -0.0622
  382DG      H6 8769   4.126   3.665   1.571 -0.0749  1.6233 -1.6477
  382DG      H7 8770   3.958   3.713   1.594  0.7095 -0.5566  1.6884
  382DG      H8 8771   3.995   3.558   1.625 -1.9803  1.8834  1.1692
  382DG      O9 8772   3.640   3.415   1.195 -0.0507  0.3352 -0.4607
  382DG     O10 8773   3.991   3.589   1.419 -0.6232 -0.3324  0.0621
  382DG     C11 8774   3.631   3.505   1.080 -0.9625 -0.5573  0.2409
  382DG     C12 8775   4.005   3.682   1.312 -0.4687  0.3605 -0.6753
  382DG     H13 8776   3.561   3.583   1.108  0.2910  1.1753 -1.2669
  382DG     H14 8777   3.591   3.458   0.990 -1.3244 -1.0274  0.6365
  382DG     H15 8778   4.107   3.718   1.326  0.3597 -1.7576 -0.8377
  382DG     H16 8779   3.943   3.770   1.328  0.0170  0.3310  1.6949
  382DG     C17 8780   3.768   3.561   1.052 -0.1025 -0.4106 -0.8088
  382DG     C18 8781   3.965   3.632   1.170  0.0265  0.1953 -0.3281
  382DG     O19 8782   3.825   3.600   1.179 -0.3580 -0.6357 -0.9405
  382DG     H20 8783   3.767   3.642   0.979  1.4150  0.6583  0.2904
  382DG     H21 8784   3.840   3.492   1.008 -0.6606 -0.5938 -1.4530
  382DG     H22 8785   3.979   3.715   1.100 -1.1703  2.3794  1.8898
  382DG     H23 8786   4.028   3.546   1.144 -1.6406 -1.2813  0.3446
  383DG      C1 8787   1.934   4.508   0.322 -0.1153  0.0452  0.3333
  383DG      C2 8788   1.485   4.950  -0.012  0.5663  0.1419 -0.3210
  383DG      H3 8789   1.875   4.465   0.403 -1.3731 -0.8495 -1.0202
  383DG      H4 8790   1.982   4.601   0.353 -0.8348  0.2668  0.8017
  383DG      H5 8791   2.021   4.449   0.291  0.0644  1.0736 -1.2236
  383DG      H6 8792   1.399   4.940   0.054  1.3968 -1.4399  0.5808
  383DG      H7 8793   1.547   5.025   0.037 -0.4864  1.1794 -0.5421
  383DG      H8 8794   1.455   4.984  -0.111 -0.5021  1.3210  0.3643
  383DG      O9 8795   1.859   4.545   0.205 -0.2618  0.4037 -0.4369
  383DG     O10 8796   1.552   4.821  -0.019  0.6795 -0.3943  0.0662
  383DG     C11 8797   1.807   4.437   0.128 -0.2714 -0.0809 -0.9430
  383DG     C12 8798   1.472   4.716  -0.062 -0.5445 -0.1886  0.6700
  383DG     H13 8799   1.743   4.382   0.196 -0.9839  2.2382  0.3490
  383DG     H14 8800   1.887   4.369   0.097 -0.3594 -0.1191 -1.0857
  383DG     H15 8801   1.415   4.745  -0.151 -0.4271  0.9280  0.9453
  383DG     H16 8802   1.390   4.687   0.003 -0.0049 -0.7813  1.0892
  383DG     C17 8803   1.747   4.481  -0.006 -0.6342  0.6227  1.0431
  383DG     C18 8804   1.557   4.596  -0.097  0.5786  0.5155  0.4538
  383DG     O19 8805   1.646   4.584   0.014  0.3328 -0.2789  0.1727
  383DG     H20 8806   1.702   4.392  -0.050  1.3660  0.4797 -0.8563
  383DG     H21 8807   1.819   4.510  -0.082 -2.5503  1.0535 -0.6913
  383DG     H22 8808   1.503   4.510  -0.135 -0.5386  1.5910 -0.5115
  383DG     H23 8809   1.617   4.621  -0.184 -0.7568  1.8478 -0.1502
  384DG      C1 8810   3.193   0.140   1.884  0.3184  0.3797  0.5068
  384DG      C2 8811   3.059   0.588   2.443 -0.5733  0.2131 -0.1487
  384DG      H3 8812   3.284   0.139   1.944  0.9367  0.4983 -0.4061
  384DG      H4 8813   3.201   0.221   1.811 -1.3237  0.3800  0.3036
  384DG      H5 8814   3.190   0.047   1.829  1.5632  1.5546 -1.6938
  384DG      H6 8815   3.057   0.642   2.348 -1.3070  1.2169  0.4209
  384DG      H7 8816   2.973   0.628   2.495  0.5073  1.9705  0.3671
  384DG      H8 8817   3.151   0.593   2.502  0.1627 -1.1458 -1.1103
  384DG      O9 8818   3.080   0.162   1.965  0.5313  0.0010 -0.0999
  384DG     O10 8819   3.041   0.454   2.407  0.9203  0.0872 -0.1092
  384DG     C11 8820   3.082   0.062   2.065  0.2634 -0.0612 -0.3371
  384DG     C12 8821   2.917   0.421   2.334  0.0819  0.1511 -0.2808
  384DG     H13 8822   3.179   0.042   2.110 -0.0395 -1.8454 -0.3990
  384DG     H14 8823   3.056  -0.035   2.022  1.4974 -0.6777  0.2708
  384DG     H15 8824   2.933   0.460   2.233  0.6274  0.1752 -0.1860
  384DG     H16 8825   2.833   0.464   2.388  1.2474  1.9006  0.2383
  384DG     C17 8826   2.984   0.099   2.181 -0.1705  0.0592  0.6446
  384DG     C18 8827   2.910   0.270   2.318 -0.3703  0.4090  0.8096
  384DG     O19 8828   3.016   0.224   2.231 -0.3754 -0.2226 -0.4245
  384DG     H20 8829   2.988   0.043   2.275 -2.0881  1.4750  1.6444
  384DG     H21 8830   2.879   0.092   2.152 -0.1471  1.5778  0.1406
  384DG     H22 8831   2.909   0.223   2.417  1.8560 -1.8461 -0.1243
  384DG     H23 8832   2.808   0.255   2.282 -0.0172 -2.5834  0.8109
  385DG      C1 8833   4.206   0.210   4.289 -0.4463  1.2766  0.2465
  385DG      C2 8834   3.627   0.078   3.994  0.0550 -0.1235  0.0290
  385DG      H3 8835   4.281   0.177   4.217 -1.2272  4.1746 -2.1005
  385DG      H4 8836   4.159   0.121   4.330 -0.1449  0.8032 -0.4189
  385DG      H5 8837   4.252   0.263   4.373 -0.1254 -0.8818  1.5051
  385DG      H6 8838   3.629   0.010   4.079 -2.3299 -0.5315 -0.1808
  385DG      H7 8839   3.529   0.126   3.995 -0.1658 -0.5797  0.6737
  385DG      H8 8840   3.639   0.025   3.899 -1.8364 -0.2825 -0.1656
  385DG      O9 8841   4.102   0.296   4.239 -0.2033  0.0717 -0.4200
  385DG     O10 8842   3.729   0.170   4.014 -0.5622  0.0129 -0.0562
  385DG     C11 8843   4.145   0.391   4.143 -0.1248 -0.2562  0.1479
  385DG     C12 8844   3.722   0.281   3.935 -0.3355 -0.4316  0.3304
  385DG     H13 8845   4.194   0.355   4.053 -0.6603  0.1568 -0.3151
  385DG     H14 8846   4.219   0.461   4.183 -0.7950  0.6591 -0.1780
  385DG     H15 8847   3.622   0.320   3.922  0.1498  0.5851 -0.4937
  385DG     H16 8848   3.747   0.262   3.830  0.0495  0.4744  0.2475
  385DG     C17 8849   4.020   0.458   4.096  0.7068  0.3276 -0.2767
  385DG     C18 8850   3.803   0.398   4.001  0.0816  0.4694 -0.7388
  385DG     O19 8851   3.936   0.353   4.029 -0.3302 -0.1464 -0.0116
  385DG     H20 8852   4.043   0.535   4.023  4.8738  0.5938  1.0833
  385DG     H21 8853   3.964   0.491   4.184 -4.0087 -2.0382 -2.0136
  385DG     H22 8854   3.803   0.491   3.944  1.5908 -0.1840 -1.8594
  385DG     H23 8855   3.758   0.414   4.099  0.5439  0.0732 -0.4599
  386DG      C1 8856   0.775   2.943   4.321  0.6796 -0.6167  0.3820
  386DG      C2 8857   0.516   3.165   3.782  0.3980  0.0899  0.6695
  386DG      H3 8858   0.788   2.870   4.241 -1.2904  2.1865 -2.7517
  386DG      H4 8859   0.792   2.897   4.419 -0.0641  0.3134  0.9628
  386DG      H5 8860   0.860   3.010   4.313  0.7670 -0.9014 -1.7466
  386DG      H6 8861   0.466   3.262   3.791  0.6600  0.0798  2.5456
  386DG      H7 8862   0.622   3.179   3.760  1.6485 -3.9915  3.0904
  386DG      H8 8863   0.462   3.124   3.697  1.9850  1.8681 -1.3279
  386DG      O9 8864   0.656   3.018   4.303 -0.2670 -0.3128 -0.6316
  386DG     O10 8865   0.507   3.087   3.898 -0.6276 -0.0548  0.2978
  386DG     C11 8866   0.535   2.947   4.328  0.3238 -0.0063  0.3309
  386DG     C12 8867   0.378   3.027   3.917 -0.6820 -0.1363 -0.2571
  386DG     H13 8868   0.531   2.921   4.434 -1.1268 -1.8050 -0.1215
  386DG     H14 8869   0.534   2.850   4.280  1.8608  0.3240 -0.4419
  386DG     H15 8870   0.368   2.933   3.862  0.1241 -0.2764 -0.1754
  386DG     H16 8871   0.297   3.098   3.900  0.6601  2.3574  2.6746
  386DG     C17 8872   0.414   3.041   4.288 -0.2757 -0.1421  0.1779
  386DG     C18 8873   0.375   2.987   4.071 -0.5784 -0.9237 -0.6750
  386DG     O19 8874   0.423   3.090   4.158  0.6580 -0.0485 -0.0275
  386DG     H20 8875   0.431   3.128   4.352 -0.8416 -0.6855  1.0844
  386DG     H21 8876   0.313   3.009   4.313 -0.9972  0.1941 -2.0760
  386DG     H22 8877   0.277   2.959   4.111  0.7639 -2.1620  1.9676
  386DG     H23 8878   0.433   2.895   4.081  1.3613  0.4956  2.0272
  387DG      C1 8879   1.997   2.796   3.992  0.2467 -0.3073 -0.0173
  387DG      C2 8880   2.388   3.172   4.330  0.2356 -0.0054  0.0773
  387DG      H3 8881   1.915   2.818   4.061  0.7787 -0.3276  0.6282
  387DG      H4 8882   1.967   2.707   3.936  0.1635  0.3744 -1.0896
  387DG      H5 8883   2.000   2.876   3.917  0.6061  0.1312  0.4579
  387DG      H6 8884   2.475   3.214   4.381  0.9657 -1.2338 -0.0982
  387DG      H7 8885   2.393   3.200   4.224  2.8371 -1.2659 -0.2187
  387DG      H8 8886   2.301   3.220   4.374 -0.8244 -1.1725 -0.6784
  387DG      O9 8887   2.117   2.783   4.061 -0.0762  0.1943 -0.0320
  387DG     O10 8888   2.387   3.033   4.341 -0.2484  0.0921  0.1872
  387DG     C11 8889   2.106   2.702   4.174  0.2855 -0.4286 -0.3995
  387DG     C12 8890   2.490   2.965   4.277  0.7745 -0.0132  0.2246
  387DG     H13 8891   2.067   2.603   4.153  1.4341 -1.1322  0.6288
  387DG     H14 8892   2.043   2.746   4.251 -0.0639 -0.7268 -0.5120
  387DG     H15 8893   2.585   2.978   4.328  1.7601 -0.5056 -1.4244
  387DG     H16 8894   2.499   3.004   4.176  0.0165 -0.0704  0.1252
  387DG     C17 8895   2.254   2.688   4.216  0.4678  0.1126  0.3693
  387DG     C18 8896   2.437   2.817   4.288  0.1094 -0.5854  0.2693
  387DG     O19 8897   2.316   2.812   4.219 -0.2266 -0.5897  0.5140
  387DG     H20 8898   2.309   2.612   4.161  0.3679 -1.0336  1.7994
  387DG     H21 8899   2.259   2.651   4.319  3.5021  2.7848  1.3304
  387DG     H22 8900   2.511   2.749   4.247  0.2797 -0.2615  0.0405
  387DG     H23 8901   2.425   2.774   4.388  0.9408  2.4818  1.8223
  388DG      C1 8902   2.673   2.212   5.314  0.9065 -0.3614  0.0342
  388DG      C2 8903   3.310   2.109   5.040  0.1042 -0.3826 -0.5389
  388DG      H3 8904   2.691   2.157   5.406  0.2528 -0.5909  0.0256
  388DG      H4 8905   2.571   2.225   5.280  1.2489  0.3183 -0.7944
  388DG      H5 8906   2.701   2.310   5.353  0.5631 -1.4591  3.3322
  388DG      H6 8907   3.354   2.053   4.957 -0.3886 -1.7499  0.0870
  388DG      H7 8908   3.384   2.187   5.052 -0.9128  1.1500 -3.3659
  388DG      H8 8909   3.313   2.048   5.130  1.2465  0.6632  0.1613
  388DG      O9 8910   2.751   2.175   5.203 -0.6101  0.5673  0.1374
  388DG     O10 8911   3.178   2.141   5.003  0.5558  0.0652 -0.4153
  388DG     C11 8912   2.751   2.032   5.191 -0.5030 -0.2432 -0.0687
  388DG     C12 8913   3.119   2.022   4.943  0.6105 -0.4527  0.6083
  388DG     H13 8914   2.656   1.985   5.217 -0.9174  1.7023  2.2718
  388DG     H14 8915   2.822   2.001   5.268 -0.4323  3.1135  1.3841
  388DG     H15 8916   3.119   1.935   5.009  2.2415 -0.6616  0.3665
  388DG     H16 8917   3.179   1.995   4.856  0.6228  0.6495  0.2510
  388DG     C17 8918   2.799   1.987   5.050  0.3412  0.2203 -0.8352
  388DG     C18 8919   2.976   2.036   4.909  0.2552 -0.2211  0.0167
  388DG     O19 8920   2.919   2.059   5.034  0.1904  1.0398 -0.4184
  388DG     H20 8921   2.729   2.014   4.970 -0.5109 -1.1746 -0.5958
  388DG     H21 8922   2.805   1.879   5.047 -1.4838  0.0440  0.0938
  388DG     H22 8923   2.960   2.112   4.832  2.7032  0.1326 -0.2326
  388DG     H23 8924   2.938   1.946   4.860 -0.9922  0.2117  0.1505
  389DG      C1 8925   3.605   4.948   3.361  0.2870 -0.2069 -0.1610
  389DG      C2 8926   2.852   4.737   3.554 -1.0102  0.5401  0.4659
  389DG      H3 8927   3.585   5.016   3.444 -1.1116  0.6682 -1.1723
  389DG      H4 8928   3.600   5.009   3.271  1.3731  0.3589  0.1492
  389DG      H5 8929   3.703   4.900   3.356  0.7386 -0.3955  5.0065
  389DG      H6 8930   2.756   4.703   3.515 -2.7374  1.7948  3.3091
  389DG      H7 8931   2.900   4.662   3.617  0.8707  2.2199  1.1325
  389DG      H8 8932   2.832   4.818   3.624 -0.2031  1.0642  0.1095
  389DG      O9 8933   3.504   4.860   3.341  0.6242 -0.4112  0.4941
  389DG     O10 8934   2.944   4.792   3.462 -0.1609 -0.0871  0.0968
  389DG     C11 8935   3.467   4.795   3.459 -0.3257 -0.0673  0.0224
  389DG     C12 8936   2.995   4.698   3.380 -0.0737  0.1942 -0.1254
  389DG     H13 8937   3.435   4.865   3.537  1.5091 -0.0864  0.8599
  389DG     H14 8938   3.553   4.745   3.503 -0.6448  0.9322  1.8857
  389DG     H15 8939   3.007   4.748   3.283 -1.9592  2.7193  0.8447
  389DG     H16 8940   2.925   4.619   3.355  0.2639 -0.5721  1.2505
  389DG     C17 8941   3.363   4.690   3.437  0.8311  0.4177 -0.2313
  389DG     C18 8942   3.139   4.649   3.411 -0.3408 -0.1051  0.0035
  389DG     O19 8943   3.240   4.749   3.401 -0.0933 -0.3031  0.4149
  389DG     H20 8944   3.356   4.636   3.531  0.9402  0.5164 -0.1668
  389DG     H21 8945   3.389   4.624   3.354  0.4054  0.4324 -0.3843
  389DG     H22 8946   3.126   4.603   3.509  0.5837  4.4252  2.5483
  389DG     H23 8947   3.155   4.557   3.355 -0.4774 -1.1078  1.5566
  390DG      C1 8948   2.751   2.328   2.472  0.3376  0.4350  0.0549
  390DG      C2 8949   2.024   2.090   2.481 -0.5618 -0.5056 -0.1269
  390DG      H3 8950   2.789   2.416   2.525 -1.3036  0.4085  1.3287
  390DG      H4 8951   2.818   2.312   2.387  1.3753  0.0985  0.9098
  390DG      H5 8952   2.767   2.245   2.540  1.3602 -0.3502 -1.0944
  390DG      H6 8953   2.011   1.985   2.506 -0.5570 -1.2735 -3.0010
  390DG      H7 8954   1.932   2.148   2.496  0.0615  0.7326 -0.9220
  390DG      H8 8955   2.038   2.105   2.374 -2.0203  2.0282 -0.0580
  390DG      O9 8956   2.611   2.334   2.429  0.9942  0.3904  0.2930
  390DG     O10 8957   2.121   2.142   2.565 -0.0210  0.0360 -0.1553
  390DG     C11 8958   2.571   2.227   2.341 -0.3038  0.3743  0.5465
  390DG     C12 8959   2.152   2.280   2.535  0.2729  0.4374  0.3230
  390DG     H13 8960   2.575   2.134   2.397  3.3701 -0.5730 -1.0006
  390DG     H14 8961   2.622   2.217   2.246 -1.8361  0.8051 -0.3520
  390DG     H15 8962   2.206   2.332   2.614  1.0746 -1.0654  0.7921
  390DG     H16 8963   2.059   2.334   2.518  0.7968  0.9751 -0.9149
  390DG     C17 8964   2.430   2.246   2.301 -0.0197 -0.2631 -0.7273
  390DG     C18 8965   2.219   2.300   2.399 -0.1569 -0.0139 -0.4997
  390DG     O19 8966   2.356   2.295   2.412  0.2429  0.1862 -0.9611
  390DG     H20 8967   2.381   2.153   2.269 -1.1576  0.4797 -1.2158
  390DG     H21 8968   2.421   2.315   2.217  1.2876  0.3325 -0.4024
  390DG     H22 8969   2.181   2.231   2.323  0.6908  2.9297 -3.9009
  390DG     H23 8970   2.201   2.399   2.357  0.1449  0.3952  0.3177
  391DG      C1 8971   5.461   1.211   2.858 -0.1084  0.2909 -0.5354
  391DG      C2 8972   4.882   1.319   2.636  0.4575  0.6677 -0.0651
  391DG      H3 8973   5.475   1.191   2.964  2.7420 -1.5558 -1.1575
  391DG      H4 8974   5.512   1.124   2.815 -0.5810 -1.4315  2.1267
  391DG      H5 8975   5.354   1.201   2.839 -0.1788 -0.6868  0.2779
  391DG      H6 8976   4.820   1.331   2.725 -0.4106 -0.6613 -0.4700
  391DG      H7 8977   4.885   1.405   2.569  0.0988  1.1887  0.5758
  391DG      H8 8978   4.837   1.235   2.583 -1.2827  1.0008  0.8279
  391DG      O9 8979   5.508   1.337   2.817 -0.3546 -0.0364  0.2704
  391DG     O10 8980   5.022   1.287   2.673 -0.2303 -0.0135  0.4981
  391DG     C11 8981   5.522   1.386   2.683 -0.1750 -0.8133 -0.3048
  391DG     C12 8982   5.106   1.258   2.558  0.0507 -0.0771  0.8319
  391DG     H13 8983   5.562   1.299   2.630 -1.3457 -1.3148 -0.3899
  391DG     H14 8984   5.600   1.461   2.697 -2.3121  1.0855  2.6606
  391DG     H15 8985   5.083   1.336   2.486  0.6231  0.7862  1.5691
  391DG     H16 8986   5.093   1.159   2.514  1.4910 -0.4685  1.2389
  391DG     C17 8987   5.397   1.444   2.627  0.1226 -0.4909  0.4740
  391DG     C18 8988   5.257   1.263   2.593 -0.0441  0.2459 -0.2646
  391DG     O19 8989   5.279   1.383   2.665  0.1306  0.7871  0.0362
  391DG     H20 8990   5.394   1.454   2.519 -1.2872 -0.0185  0.5401
  391DG     H21 8991   5.387   1.545   2.667  0.8601 -0.7762  1.4152
  391DG     H22 8992   5.295   1.172   2.639 -0.8528  1.4680  3.0800
  391DG     H23 8993   5.306   1.264   2.496 -0.6867  1.2199 -0.5952
  392DG      C1 8994   4.816   3.646   2.429  0.2124 -0.3442  0.8909
  392DG      C2 8995   4.962   4.160   1.777  0.0008 -0.0467  0.0262
  392DG      H3 8996   4.875   3.614   2.516 -1.4998 -0.3711  2.0899
  392DG      H4 8997   4.777   3.573   2.359 -1.1090  0.7757  0.4156
  392DG      H5 8998   4.728   3.680   2.484  0.4353  0.4030  0.8039
  392DG      H6 8999   5.040   4.097   1.733  1.1953 -0.3674  2.4173
  392DG      H7 9000   4.861   4.124   1.756 -1.3579  3.6657 -0.5534
  392DG      H8 9001   4.965   4.263   1.742 -1.9122 -0.2979 -1.0151
  392DG      O9 9002   4.875   3.755   2.354  0.3107 -0.7340  0.2807
  392DG     O10 9003   5.013   4.170   1.915 -0.0533  0.0601  0.3462
  392DG     C11 9004   5.014   3.736   2.314  1.1084 -0.3243 -0.3124
  392DG     C12 9005   4.979   4.053   1.990 -0.2671 -0.1165 -0.2685
  392DG     H13 9006   5.042   3.640   2.271  2.9280 -1.2320  2.5955
  392DG     H14 9007   5.086   3.762   2.391  0.1231  1.4047  0.0820
  392DG     H15 9008   5.026   3.967   1.941 -1.6516 -0.7234 -0.5754
  392DG     H16 9009   4.871   4.038   1.992  0.0853 -3.0547  0.7462
  392DG     C17 9010   5.044   3.832   2.195  0.1285 -0.2439 -0.1265
  392DG     C18 9011   5.033   4.064   2.137 -0.1327 -0.3123  0.7798
  392DG     O19 9012   4.991   3.964   2.217  0.3296 -0.4296 -0.7885
  392DG     H20 9013   4.996   3.798   2.103 -1.6219  0.0708  0.6216
  392DG     H21 9014   5.151   3.836   2.177  0.3252  0.4249  1.0559
  392DG     H22 9015   5.142   4.067   2.136 -0.1412  2.3189 -0.6893
  392DG     H23 9016   5.006   4.158   2.184  0.9216 -1.3642  3.6893
  393DG      C1 9017   5.498   2.239   1.564  0.4441 -0.3201 -0.2587
  393DG      C2 9018   4.804   2.240   1.828  0.0222 -0.0533  0.3255
  393DG      H3 9019   5.586   2.176   1.553  0.3218 -0.5213 -0.0849
  393DG      H4 9020   5.530   2.339   1.534 -0.3894  0.9970  2.8678
  393DG      H5 9021   5.419   2.206   1.496  0.6961 -2.3304  0.3515
  393DG      H6 9022   4.726   2.165   1.824 -0.0605  0.0616 -0.2260
  393DG      H7 9023   4.763   2.331   1.786 -0.8993 -0.2176  0.8494
  393DG      H8 9024   4.889   2.210   1.767 -1.3064 -0.3044 -1.4665
  393DG      O9 9025   5.449   2.253   1.702 -0.2243 -0.0720  0.3610
  393DG     O10 9026   4.841   2.256   1.961 -0.4439 -0.2733 -0.2338
  393DG     C11 9027   5.316   2.296   1.716 -0.1074 -0.2849  0.0558
  393DG     C12 9028   4.941   2.349   2.007  0.2834  0.1365 -0.9530
  393DG     H13 9029   5.243   2.239   1.659  0.6621 -0.9692 -0.2615
  393DG     H14 9030   5.298   2.394   1.672  1.5167  0.4334  0.8882
  393DG     H15 9031   4.914   2.352   2.113 -0.8660  1.6690 -1.2521
  393DG     H16 9032   4.912   2.447   1.969  0.1332  0.5004  0.0655
  393DG     C17 9033   5.276   2.299   1.856 -0.9144  0.5327 -0.4174
  393DG     C18 9034   5.082   2.296   1.986  0.7023 -0.4263 -0.1857
  393DG     O19 9035   5.139   2.338   1.867 -0.3823  0.5647 -0.2701
  393DG     H20 9036   5.340   2.361   1.919 -0.0994  1.9346 -2.5078
  393DG     H21 9037   5.291   2.196   1.885 -1.6979 -0.9610 -4.6125
  393DG     H22 9038   5.149   2.339   2.060  1.6420 -0.3700 -1.0438
  393DG     H23 9039   5.091   2.188   1.993 -0.9132 -0.7859 -2.4385
  394DG      C1 9040   1.681   4.752   4.702 -0.2860 -0.4720 -0.6243
  394DG      C2 9041   1.120   4.605   4.545 -0.1490 -0.4169 -0.3036
  394DG      H3 9042   1.768   4.705   4.655  0.0293  1.8665 -2.5455
  394DG      H4 9043   1.594   4.692   4.677 -0.6630  1.6335 -5.2909
  394DG      H5 9044   1.700   4.751   4.810  3.0118  0.4372 -1.0738
  394DG      H6 9045   1.145   4.503   4.517  4.0013 -0.0669  1.3174
  394DG      H7 9046   1.064   4.605   4.639 -1.4217  1.8989 -0.9760
  394DG      H8 9047   1.057   4.647   4.467 -0.6324 -1.0047 -0.2400
  394DG      O9 9048   1.671   4.886   4.655 -0.4213  0.0337  0.2177
  394DG     O10 9049   1.237   4.672   4.573  0.6311 -0.4269 -0.0250
  394DG     C11 9050   1.655   4.910   4.519  0.0130 -0.0024  0.5930
  394DG     C12 9051   1.211   4.800   4.631 -0.1759 -0.1467 -0.6638
  394DG     H13 9052   1.689   4.826   4.457  0.4287 -0.3237  1.2438
  394DG     H14 9053   1.730   4.985   4.495  1.0622 -0.4602  2.2555
  394DG     H15 9054   1.193   4.793   4.738 -0.7885  0.2124 -0.7350
  394DG     H16 9055   1.129   4.854   4.583 -0.8298 -1.1136 -0.6689
  394DG     C17 9056   1.518   4.964   4.476  0.1676  0.0063  0.1121
  394DG     C18 9057   1.340   4.880   4.625 -0.1706 -0.0514  0.4188
  394DG     O19 9058   1.401   4.880   4.500  0.0663 -0.2896  0.6845
  394DG     H20 9059   1.520   4.995   4.371 -0.7102  0.8744  0.3404
  394DG     H21 9060   1.489   5.066   4.504 -1.0919 -0.1813 -0.4440
  394DG     H22 9061   1.324   4.986   4.644  1.1654 -0.0316  1.5928
  394DG     H23 9062   1.413   4.845   4.698  0.1839  0.0211  0.1051
  395DG      C1 9063   4.080   2.693   3.741  0.3672  0.0472 -0.0643
  395DG      C2 9064   4.664   2.099   3.732 -0.5164  0.6921  0.3092
  395DG      H3 9065   4.017   2.612   3.780  0.6207  0.0014  0.2536
  395DG      H4 9066   4.015   2.767   3.695  1.7001  1.0961 -0.3294
  395DG      H5 9067   4.136   2.736   3.824  1.7249 -0.5747 -0.6382
  395DG      H6 9068   4.730   2.057   3.656 -1.6023 -0.9487  0.2141
  395DG      H7 9069   4.731   2.133   3.811  0.2788  1.4890 -0.6877
  395DG      H8 9070   4.614   2.008   3.765  0.0551 -1.0666 -3.2634
  395DG      O9 9071   4.181   2.640   3.650  0.2402  0.2291  0.2462
  395DG     O10 9072   4.584   2.202   3.676  0.1512 -0.3598 -0.2614
  395DG     C11 9073   4.288   2.563   3.701 -0.0236 -0.1492  0.2231
  395DG     C12 9074   4.659   2.298   3.614 -0.3618 -0.0827  0.8851
  395DG     H13 9075   4.250   2.472   3.747 -0.1970 -0.2822 -0.1796
  395DG     H14 9076   4.345   2.613   3.779 -1.1786  0.1760  0.8756
  395DG     H15 9077   4.734   2.252   3.549 -1.0996 -0.9766  0.6468
  395DG     H16 9078   4.728   2.348   3.682  0.3354  0.5393 -0.2640
  395DG     C17 9079   4.376   2.526   3.587 -0.8432  0.2751  0.6353
  395DG     C18 9080   4.568   2.396   3.534  0.3487  0.2612 -0.5729
  395DG     O19 9081   4.482   2.451   3.630  0.6800  0.3720 -0.2482
  395DG     H20 9082   4.411   2.612   3.530 -1.4938  1.2091  1.6043
  395DG     H21 9083   4.321   2.469   3.512  1.7306  0.9868 -1.9214
  395DG     H22 9084   4.628   2.466   3.476  0.1749  1.8730  1.1164
  395DG     H23 9085   4.512   2.345   3.455  2.3054 -1.2032 -1.1045
  396DG      C1 9086   0.735   3.225   4.552 -0.2406 -0.1955  0.4205
  396DG      C2 9087   0.770   2.898   3.932  0.2831  0.4033  0.0986
  396DG      H3 9088   0.702   3.306   4.617 -1.1844 -0.2584  0.0381
  396DG      H4 9089   0.770   3.149   4.622  1.6641  0.1119 -0.1350
  396DG      H5 9090   0.643   3.193   4.504  1.6105 -0.2811 -3.4994
  396DG      H6 9091   0.707   2.936   3.852 -0.8553 -1.2153  0.1782
  396DG      H7 9092   0.851   2.842   3.885  1.5462  1.8785  0.4016
  396DG      H8 9093   0.713   2.832   3.998 -1.3326 -0.3804 -1.9692
  396DG      O9 9094   0.845   3.251   4.463 -0.2465  0.9776 -0.2230
  396DG     O10 9095   0.812   3.001   4.017 -0.2453 -0.0109  0.1969
  396DG     C11 9096   0.818   3.343   4.360  0.7125 -0.6700  0.4013
  396DG     C12 9097   0.897   3.093   3.957  0.3150 -0.2202  0.5522
  396DG     H13 9098   0.804   3.445   4.395 -1.7719 -0.5726 -0.7076
  396DG     H14 9099   0.729   3.311   4.307 -0.0432  0.2198  1.1086
  396DG     H15 9100   0.844   3.157   3.887  2.1183 -0.8901 -1.5240
  396DG     H16 9101   0.982   3.043   3.910 -0.8285 -0.3260 -1.4989
  396DG     C17 9102   0.918   3.326   4.247  0.2019 -0.3127 -0.0127
  396DG     C18 9103   0.960   3.194   4.060  0.2400  0.0819  0.6214
  396DG     O19 9104   0.864   3.240   4.149  0.0111 -0.3364 -0.0615
  396DG     H20 9105   1.021   3.305   4.276  0.0245 -1.2297  0.0010
  396DG     H21 9106   0.913   3.420   4.192 -0.6776 -1.5739 -2.2303
  396DG     H22 9107   1.045   3.149   4.112  2.6118  1.0369 -2.1752
  396DG     H23 9108   1.006   3.275   4.004  1.1695 -0.1938  0.9590
  397DG      C1 9109   2.530   4.771   1.494  0.4793  0.8344 -0.1373
  397DG      C2 9110   2.340   4.233   1.110  0.4612 -0.4163 -0.1421
  397DG      H3 9111   2.492   4.870   1.468 -2.1436 -0.0280  0.0971
  397DG      H4 9112   2.617   4.750   1.432  0.7245  1.9142 -0.1906
  397DG      H5 9113   2.557   4.767   1.599  4.3399  1.7525 -0.9671
  397DG      H6 9114   2.442   4.199   1.127  0.3163 -0.3439  0.9882
  397DG      H7 9115   2.286   4.142   1.138 -0.8527  0.6180  0.8447
  397DG      H8 9116   2.334   4.256   1.004 -0.0824  1.4394  0.2443
  397DG      O9 9117   2.438   4.670   1.464 -0.2662 -0.3709  0.6772
  397DG     O10 9118   2.293   4.333   1.209 -0.5660 -0.1507 -0.1390
  397DG     C11 9119   2.306   4.691   1.520 -0.4681 -0.4600  0.1390
  397DG     C12 9120   2.155   4.337   1.219  0.4145 -0.5136 -0.0851
  397DG     H13 9121   2.263   4.790   1.501  1.6398  0.6319  0.6951
  397DG     H14 9122   2.337   4.704   1.624  1.2109  0.2405 -0.4068
  397DG     H15 9123   2.107   4.239   1.220  1.3201 -0.9835  1.5848
  397DG     H16 9124   2.112   4.400   1.141 -1.3131 -0.0791  1.1556
  397DG     C17 9125   2.217   4.567   1.504 -0.3591  0.0429  0.1109
  397DG     C18 9126   2.133   4.406   1.356  0.7915  0.4743 -0.1152
  397DG     O19 9127   2.225   4.513   1.368 -0.6879 -0.0848  0.2580
  397DG     H20 9128   2.114   4.588   1.530 -0.3108 -1.3993  1.6263
  397DG     H21 9129   2.252   4.497   1.580  1.9163  2.5560  1.5724
  397DG     H22 9130   2.034   4.451   1.351 -1.0032 -3.0421  0.5881
  397DG     H23 9131   2.144   4.344   1.445 -0.6265 -1.1816 -1.0229
  398DG      C1 9132   2.895   3.451   1.226  0.4492 -0.2537  0.1618
  398DG      C2 9133   3.159   3.444   0.496  0.0468  0.0766  0.1620
  398DG      H3 9134   2.787   3.466   1.232  0.5386  0.2033  0.7205
  398DG      H4 9135   2.944   3.548   1.233  1.6048 -0.6796 -1.4137
  398DG      H5 9136   2.918   3.381   1.306 -0.0385 -0.6467 -0.0331
  398DG      H6 9137   3.262   3.450   0.530  0.6991 -1.3449 -1.4444
  398DG      H7 9138   3.161   3.365   0.422  1.2930 -0.7047  0.9981
  398DG      H8 9139   3.114   3.538   0.463  0.8231  1.0357  1.7013
  398DG      O9 9140   2.934   3.386   1.100  0.0163 -0.6020  0.0429
  398DG     O10 9141   3.084   3.398   0.611  0.2658  0.3831 -0.0042
  398DG     C11 9142   2.853   3.277   1.068 -0.2331  0.0745  0.2879
  398DG     C12 9143   2.961   3.331   0.587  0.0159 -0.2685  0.5298
  398DG     H13 9144   2.748   3.303   1.054 -0.5989 -0.8796  1.1261
  398DG     H14 9145   2.863   3.201   1.146  2.7856  0.5288  0.4554
  398DG     H15 9146   2.970   3.265   0.500 -0.7946 -0.6617  0.7390
  398DG     H16 9147   2.881   3.399   0.560  0.1612  0.0689  0.9547
  398DG     C17 9148   2.892   3.212   0.938  0.9847 -0.0391  0.0802
  398DG     C18 9149   2.932   3.235   0.710 -0.4988 -0.2157  0.0262
  398DG     O19 9150   2.885   3.304   0.825 -0.3427 -0.2865 -0.5191
  398DG     H20 9151   2.811   3.142   0.918 -0.7310  2.0254 -0.4638
  398DG     H21 9152   2.979   3.146   0.948 -0.4274 -2.0923 -0.6350
  398DG     H22 9153   2.864   3.153   0.686 -1.2532  0.4425 -0.1434
  398DG     H23 9154   3.030   3.192   0.728  0.5243  1.7871 -0.5644
  399DG      C1 9155   2.162   3.882   2.979  0.0493  0.3837 -0.4165
  399DG      C2 9156   2.314   3.168   3.030  0.3582 -0.5162  0.1633
  399DG      H3 9157   2.078   3.951   2.990 -0.2083 -0.0171  0.2281
  399DG      H4 9158   2.216   3.902   2.887 -0.1646  2.3406 -0.1494
  399DG      H5 9159   2.228   3.910   3.061 -0.2229  1.7282 -0.6311
  399DG      H6 9160   2.377   3.152   2.943  0.4275 -2.1550  0.4915
  399DG      H7 9161   2.375   3.135   3.114  1.4743  0.6369 -0.1619
  399DG      H8 9162   2.231   3.098   3.018  1.5963 -1.7376 -1.8686
  399DG      O9 9163   2.123   3.753   2.996  0.3468 -0.0423  0.4872
  399DG     O10 9164   2.276   3.303   3.028  0.3655 -0.6605 -0.7020
  399DG     C11 9165   2.024   3.707   2.904 -0.4042  0.2192  0.7865
  399DG     C12 9166   2.167   3.327   3.117  0.3904 -0.3456  0.3228
  399DG     H13 9167   2.071   3.672   2.811 -1.5545 -2.4244  1.1098
  399DG     H14 9168   1.953   3.785   2.876 -1.5937 -1.0023  0.3014
  399DG     H15 9169   2.202   3.326   3.220  2.4674  1.7080 -0.2669
  399DG     H16 9170   2.086   3.259   3.093  0.4780 -0.1957 -0.4047
  399DG     C17 9171   1.953   3.581   2.962 -0.5285  0.6465  0.1038
  399DG     C18 9172   2.120   3.472   3.091 -0.3625  0.4351  0.4743
  399DG     O19 9173   2.038   3.470   2.978 -0.2356 -0.6011 -0.1335
  399DG     H20 9174   1.882   3.553   2.885 -0.1346  1.4547 -0.5679
  399DG     H21 9175   1.904   3.591   3.059 -0.2813  0.3028  0.2654
  399DG     H22 9176   2.063   3.491   3.182 -0.4854 -3.3918  1.3853
  399DG     H23 9177   2.201   3.543   3.077 -2.0035  2.6583  1.7576
  400DG      C1 9178   1.128   5.013   2.464 -0.0552 -0.7505 -0.7901
  400DG      C2 9179   1.707   5.310   2.637  0.4570  0.5655 -0.1955
  400DG      H3 9180   1.163   5.001   2.567 -2.1088 -3.3514 -0.3009
  400DG      H4 9181   1.080   4.917   2.446 -1.0278 -0.4142 -0.0744
  400DG      H5 9182   1.050   5.089   2.461  0.2079 -0.4638 -0.4777
  400DG      H6 9183   1.784   5.295   2.713 -0.9492  1.8868  1.6085
  400DG      H7 9184   1.751   5.362   2.553  0.7158 -1.4170 -1.3543
  400DG      H8 9185   1.648   5.382   2.694  1.1451  0.7075  0.3588
  400DG      O9 9186   1.229   5.040   2.369 -0.2467  0.3002  0.7294
  400DG     O10 9187   1.645   5.191   2.602  0.1336 -0.1378 -0.4055
  400DG     C11 9188   1.321   4.932   2.348 -0.0240 -0.3953  0.1775
  400DG     C12 9189   1.572   5.134   2.710  0.4785 -0.5327  0.1973
  400DG     H13 9190   1.389   4.952   2.264 -1.0325 -0.8866 -0.7880
  400DG     H14 9191   1.252   4.856   2.311 -2.0232  0.0874  2.6519
  400DG     H15 9192   1.497   5.205   2.744  0.5035 -0.2470 -0.3249
  400DG     H16 9193   1.637   5.123   2.797  0.5450 -0.3978  0.1647
  400DG     C17 9194   1.412   4.891   2.470  0.2718  0.2529  0.2080
  400DG     C18 9195   1.512   5.000   2.664 -0.2125  0.1090 -0.7455
  400DG     O19 9196   1.472   5.010   2.530  0.9313  0.3450 -0.1462
  400DG     H20 9197   1.494   4.823   2.448  0.8151  0.8349  0.4067
  400DG     H21 9198   1.356   4.831   2.542 -0.3957 -2.9222 -2.6988
  400DG     H22 9199   1.582   4.918   2.676  1.3499  1.5344  0.1895
  400DG     H23 9200   1.432   4.971   2.732  0.5215 -0.1876 -0.0011
  401DG      C1 9201   2.882   2.399   1.735  0.1177 -0.4418  0.1134
  401DG      C2 9202   2.726   2.387   1.113 -0.2421  0.6178 -0.4542
  401DG      H3 9203   2.777   2.369   1.734 -0.5936  1.8113 -1.7598
  401DG      H4 9204   2.886   2.507   1.719 -0.0104 -0.7571 -2.4818
  401DG      H5 9205   2.936   2.374   1.826 -1.1994  1.8521  1.6128
  401DG      H6 9206   2.672   2.472   1.155  0.6371  0.8577  0.2077
  401DG      H7 9207   2.771   2.395   1.014  1.1728 -0.6276  0.0430
  401DG      H8 9208   2.652   2.309   1.092  0.9501 -0.0472 -2.4736
  401DG      O9 9209   2.936   2.348   1.621 -0.1417  0.1363  0.1976
  401DG     O10 9210   2.814   2.333   1.212 -0.2424 -0.5728 -0.2568
  401DG     C11 9211   2.964   2.211   1.636 -0.0720 -0.3517 -0.7093
  401DG     C12 9212   2.840   2.198   1.185 -0.2504  0.2608 -0.3097
  401DG     H13 9213   2.872   2.163   1.670 -0.6526  0.4288 -1.1730
  401DG     H14 9214   3.038   2.181   1.711 -1.1496 -1.5412 -0.0761
  401DG     H15 9215   2.881   2.190   1.085 -1.0535  1.0217 -0.7201
  401DG     H16 9216   2.749   2.138   1.179 -0.9672  1.4186 -1.6020
  401DG     C17 9217   3.007   2.154   1.507  0.5578  0.0122  0.2096
  401DG     C18 9218   2.945   2.143   1.279 -0.3760  0.2620  0.1796
  401DG     O19 9219   2.912   2.192   1.412  0.0119 -0.0248  0.0541
  401DG     H20 9220   3.008   2.045   1.517 -2.6348 -0.0241  1.3447
  401DG     H21 9221   3.097   2.207   1.479  1.2460 -1.0723  0.2999
  401DG     H22 9222   2.943   2.035   1.260 -0.3355  0.1375  0.8627
  401DG     H23 9223   3.042   2.185   1.253 -1.0291  1.3158 -0.6383
  402DG      C1 9224   4.868   2.007   0.576 -0.2108 -0.3503  0.3904
  402DG      C2 9225   5.289   2.295  -0.046  0.1089 -0.0098 -1.0994
  402DG      H3 9226   4.835   1.913   0.534  2.6699 -1.5925  0.6885
  402DG      H4 9227   4.786   2.079   0.584 -0.1606 -0.3509  0.9460
  402DG      H5 9228   4.888   1.983   0.681 -2.3620  0.6940  1.1055
  402DG      H6 9229   5.238   2.376   0.006 -0.0995 -0.5261 -0.4839
  402DG      H7 9230   5.393   2.290  -0.012 -0.2429 -0.8612 -0.0828
  402DG      H8 9231   5.285   2.316  -0.152 -0.1019  1.4324 -0.8181
  402DG      O9 9232   4.978   2.055   0.500  0.5086  0.5658 -0.4160
  402DG     O10 9233   5.226   2.169  -0.030 -0.9342  0.1962  0.0607
  402DG     C11 9234   5.070   1.945   0.468  0.5614 -0.3062 -0.0248
  402DG     C12 9235   5.198   2.142   0.105 -0.0725 -0.5803 -0.3635
  402DG     H13 9236   5.022   1.848   0.457 -0.0291  0.0830 -1.1193
  402DG     H14 9237   5.134   1.934   0.555  1.6970  1.0505 -0.6450
  402DG     H15 9238   5.127   2.220   0.135  0.8672  0.0597  0.2505
  402DG     H16 9239   5.287   2.129   0.167 -1.4913  0.1051  1.9599
  402DG     C17 9240   5.146   1.973   0.339 -0.0498 -0.1295  0.3917
  402DG     C18 9241   5.126   2.003   0.099 -0.1214 -0.2298 -0.1760
  402DG     O19 9242   5.062   1.989   0.224  0.3571  0.3021  0.5165
  402DG     H20 9243   5.223   1.896   0.335 -0.6545 -0.7010 -0.7601
  402DG     H21 9244   5.197   2.068   0.358  0.8218 -0.9064  2.2573
  402DG     H22 9245   5.046   2.015   0.027 -0.6264 -1.6349  0.1383
  402DG     H23 9246   5.194   1.920   0.081 -0.6347 -0.2276 -2.4069
  403DG      C1 9247   0.556   1.197   3.703 -0.1922  0.1028  0.7693
  403DG      C2 9248   1.208   0.740   3.849  0.3513  0.0339 -0.4905
  403DG      H3 9249   0.448   1.210   3.710 -0.4811 -0.6076 -1.5136
  403DG      H4 9250   0.589   1.178   3.601 -0.3050 -1.9539  1.0897
  403DG      H5 9251   0.607   1.288   3.733 -3.1115  2.3263 -0.4552
  403DG      H6 9252   1.186   0.690   3.755  0.3282 -1.1774  0.1443
  403DG      H7 9253   1.295   0.805   3.836  1.6638 -1.3248  1.0697
  403DG      H8 9254   1.230   0.662   3.921 -3.2660 -1.1513 -0.4623
  403DG      O9 9255   0.608   1.095   3.785  0.0775 -0.1341 -0.0276
  403DG     O10 9256   1.093   0.806   3.901  0.1740  0.2785 -0.0271
  403DG     C11 9257   0.614   0.966   3.731 -0.4376  0.7235 -0.5825
  403DG     C12 9258   0.973   0.742   3.909 -0.3903 -0.5901 -0.3940
  403DG     H13 9259   0.689   0.968   3.652  2.2520  0.8258  1.8370
  403DG     H14 9260   0.528   0.921   3.680 -0.4812 -3.5583  2.6406
  403DG     H15 9261   0.989   0.656   3.974 -2.1539 -0.4244  0.3093
  403DG     H16 9262   0.941   0.705   3.811 -2.6107 -0.0819  0.0905
  403DG     C17 9263   0.684   0.872   3.831 -0.1329  0.5494 -0.0835
  403DG     C18 9264   0.872   0.834   3.981  0.1218  0.9151 -0.6184
  403DG     O19 9265   0.800   0.924   3.890 -0.1690 -0.3841 -0.6259
  403DG     H20 9266   0.693   0.778   3.776  0.7163  1.5416 -1.6928
  403DG     H21 9267   0.618   0.848   3.915  2.0304  0.3331  1.6194
  403DG     H22 9268   0.807   0.775   4.045 -1.1962  0.4957 -2.2760
  403DG     H23 9269   0.932   0.894   4.050  0.0898 -0.0455  0.2770
  404DG      C1 9270   1.430   4.803   0.356 -0.2758 -0.6282 -0.2115
  404DG      C2 9271   1.936   4.843  -0.111  0.0350  0.2928  0.0866
  404DG      H3 9272   1.377   4.861   0.281 -0.2765  3.4682  2.5893
  404DG      H4 9273   1.390   4.828   0.454  0.5990 -1.3439  0.3445
  404DG      H5 9274   1.411   4.698   0.332 -2.2175 -0.3388 -0.1382
  404DG      H6 9275   1.892   4.750  -0.148 -1.8322  1.0821  0.2047
  404DG      H7 9276   1.892   4.916  -0.180  1.1471  1.6113  0.7376
  404DG      H8 9277   2.041   4.837  -0.137  0.0152 -0.0519  0.0903
  404DG      O9 9278   1.567   4.838   0.352  0.7180 -0.0387  0.1244
  404DG     O10 9279   1.886   4.888   0.016  0.0667 -0.1362 -0.3740
  404DG     C11 9280   1.572   4.978   0.365  0.0784  0.5879  0.2175
  404DG     C12 9281   1.959   4.996   0.072  0.1025  0.3233  0.4505
  404DG     H13 9282   1.523   5.017   0.454 -1.6091 -0.1272 -0.3573
  404DG     H14 9283   1.510   5.025   0.288 -0.6537 -0.2156  0.2995
  404DG     H15 9284   1.952   5.080   0.003 -0.3351 -0.9216 -1.0586
  404DG     H16 9285   2.065   4.972   0.069  0.1549  0.6926 -1.2037
  404DG     C17 9286   1.715   5.036   0.346  0.0649 -0.0097  0.8141
  404DG     C18 9287   1.912   5.030   0.213  0.5864  0.0569  1.2417
  404DG     O19 9288   1.776   4.976   0.234 -0.1395  0.3207  0.6101
  404DG     H20 9289   1.779   5.013   0.432  1.3315 -1.7916 -0.5240
  404DG     H21 9290   1.711   5.144   0.344  1.0950  0.0898  2.3702
  404DG     H22 9291   1.984   4.992   0.285 -0.9295 -1.9175  1.8172
  404DG     H23 9292   1.920   5.136   0.236  1.3692  0.2927  0.0054
  405DG      C1 9293   0.524   0.041   5.477  0.6017 -0.1357 -0.0058
  405DG      C2 9294  -0.167  -0.074   5.314 -0.0857  1.0995  0.6581
  405DG      H3 9295   0.604  -0.033   5.473 -0.1134 -0.9097 -0.3195
  405DG      H4 9296   0.541   0.126   5.543  2.0735  0.3713 -0.9966
  405DG      H5 9297   0.530   0.072   5.373 -0.2345 -0.8774 -0.2885
  405DG      H6 9298  -0.139  -0.173   5.276 -1.8478  1.4339 -1.7313
  405DG      H7 9299  -0.240  -0.093   5.393 -0.0656 -0.2566  0.3901
  405DG      H8 9300  -0.215  -0.022   5.231 -1.5302 -0.7795  0.2394
  405DG      O9 9301   0.400  -0.015   5.511  0.0234  0.0279 -0.3316
  405DG     O10 9302  -0.056  -0.002   5.372 -0.3255 -0.3815 -0.2176
  405DG     C11 9303   0.392  -0.079   5.637  0.3421 -0.0662 -0.3129
  405DG     C12 9304   0.018  -0.094   5.455 -0.0743  0.3506 -0.4606
  405DG     H13 9305   0.403  -0.009   5.720  3.0302 -1.7928  0.9108
  405DG     H14 9306   0.470  -0.155   5.634  0.5310  0.1407 -0.7971
  405DG     H15 9307   0.089  -0.138   5.385  1.0186 -0.8288  1.2997
  405DG     H16 9308  -0.054  -0.161   5.503  0.2415 -1.8938 -2.8959
  405DG     C17 9309   0.257  -0.153   5.634 -0.1757  0.0776  0.1705
  405DG     C18 9310   0.077  -0.009   5.562  0.2161 -0.0701  0.0719
  405DG     O19 9311   0.139  -0.077   5.667 -0.4657  0.1208  0.0990
  405DG     H20 9312   0.281  -0.226   5.711  1.3419 -0.0459 -0.3842
  405DG     H21 9313   0.242  -0.218   5.547 -1.5592 -1.0525  1.1885
  405DG     H22 9314   0.152   0.056   5.516  0.1546 -1.1647 -1.6930
  405DG     H23 9315  -0.007   0.045   5.605 -2.2482 -1.8259 -2.1773
  406DG      C1 9316   5.408   3.794   2.252  0.3519 -0.3311 -0.0098
  406DG      C2 9317   5.264   3.548   2.963  0.1186 -0.2045  0.3229
  406DG      H3 9318   5.515   3.812   2.257  0.2519  0.2991  0.0287
  406DG      H4 9319   5.360   3.892   2.257 -2.4918 -1.6041 -0.4389
  406DG      H5 9320   5.365   3.763   2.157 -0.6503  1.6648 -0.2641
  406DG      H6 9321   5.163   3.539   3.002  0.1426  0.1721  0.4741
  406DG      H7 9322   5.335   3.482   3.015  0.7680  1.7871  2.0996
  406DG      H8 9323   5.291   3.653   2.976  3.1382 -0.3628 -3.0097
  406DG      O9 9324   5.365   3.713   2.362  0.5625 -0.2612  0.6506
  406DG     O10 9325   5.267   3.543   2.823 -0.3591  0.1294 -0.0662
  406DG     C11 9326   5.395   3.579   2.331 -0.7332  0.6344 -0.6839
  406DG     C12 9327   5.265   3.407   2.775  0.4958 -0.3377  0.2725
  406DG     H13 9328   5.501   3.566   2.356 -0.7623  1.5132 -0.0632
  406DG     H14 9329   5.388   3.555   2.225  0.8580  0.0439 -0.6817
  406DG     H15 9330   5.183   3.362   2.831 -0.9275 -1.8860 -2.8054
  406DG     H16 9331   5.348   3.341   2.801  1.9565  0.3713 -2.2187
  406DG     C17 9332   5.308   3.469   2.405 -0.4504 -0.2948 -0.0790
  406DG     C18 9333   5.237   3.409   2.624  0.0928 -0.0108 -0.3777
  406DG     O19 9334   5.335   3.481   2.547 -0.0500 -0.4628  0.4298
  406DG     H20 9335   5.324   3.364   2.378  1.4665  0.1527 -0.8301
  406DG     H21 9336   5.202   3.487   2.387 -0.2398  0.7600 -0.3492
  406DG     H22 9337   5.258   3.309   2.585  1.8693 -0.5964  1.8098
  406DG     H23 9338   5.132   3.423   2.601  0.4245  2.4548 -0.6476
  407DG      C1 9339   1.577   2.326   1.620 -0.2262 -0.7337  0.4802
  407DG      C2 9340   1.453   1.799   1.059  0.4917  0.2411  0.1307
  407DG      H3 9341   1.514   2.396   1.674  0.6802 -0.0414  0.6695
  407DG      H4 9342   1.641   2.379   1.550  0.4653 -0.8749  0.9904
  407DG      H5 9343   1.644   2.272   1.688  2.0971  0.1136 -0.9851
  407DG      H6 9344   1.354   1.821   1.019  1.3133 -2.4646 -4.1293
  407DG      H7 9345   1.512   1.743   0.986 -1.2678 -1.5059 -0.0365
  407DG      H8 9346   1.442   1.731   1.143  0.1247  2.1149  1.6624
  407DG      O9 9347   1.507   2.219   1.560 -0.4432 -0.2293  0.2469
  407DG     O10 9348   1.526   1.911   1.117 -0.2525  0.2164 -0.0181
  407DG     C11 9349   1.596   2.121   1.510 -0.4766  0.4654 -0.3713
  407DG     C12 9350   1.470   2.042   1.088  0.2223  0.6764 -0.3651
  407DG     H13 9351   1.614   2.035   1.574  0.1203 -2.6166 -4.2673
  407DG     H14 9352   1.695   2.157   1.482 -0.9450  2.6867  0.5877
  407DG     H15 9353   1.417   2.053   0.993 -2.3265 -0.6454  0.7806
  407DG     H16 9354   1.554   2.109   1.075 -0.0941  0.7895 -2.1857
  407DG     C17 9355   1.536   2.055   1.390  0.0195 -0.0400  0.5249
  407DG     C18 9356   1.389   2.083   1.205  0.7471  0.0196 -0.5197
  407DG     O19 9357   1.464   2.146   1.306 -0.4733 -0.0997  0.0464
  407DG     H20 9358   1.468   1.974   1.416 -1.7716  1.6266  1.2914
  407DG     H21 9359   1.615   2.007   1.333  0.3680  1.4088 -0.2820
  407DG     H22 9360   1.320   2.149   1.152  1.5249  0.7688 -0.6291
  407DG     H23 9361   1.337   2.003   1.257 -1.2545  0.7851 -1.2682
  408DG      C1 9362   0.872   1.982   3.103  0.5449  0.0845 -0.5084
  408DG      C2 9363   1.258   2.126   2.634 -0.7351 -0.8124 -0.2639
  408DG      H3 9364   0.921   2.078   3.089  0.3248  0.0748 -1.4145
  408DG      H4 9365   0.842   1.964   3.207  1.1616  1.2378 -0.1076
  408DG      H5 9366   0.778   1.980   3.048  0.0310  0.8303  0.3136
  408DG      H6 9367   1.156   2.101   2.603 -0.1588 -1.8639 -1.3676
  408DG      H7 9368   1.284   2.229   2.610  2.2772 -0.5857  3.2068
  408DG      H8 9369   1.328   2.060   2.583 -1.1047 -2.7185  1.5314
  408DG      O9 9370   0.961   1.881   3.065  0.0215  0.9078 -0.0021
  408DG     O10 9371   1.257   2.104   2.773 -0.1284 -0.6462 -0.3452
  408DG     C11 9372   1.096   1.906   3.105 -1.0663 -0.1726 -0.2791
  408DG     C12 9373   1.384   2.099   2.820 -0.1012 -0.1792  0.1270
  408DG     H13 9374   1.163   1.821   3.122  0.0506  0.6742 -0.2898
  408DG     H14 9375   1.098   1.958   3.200  0.1810 -0.8578  0.1023
  408DG     H15 9376   1.447   2.182   2.787 -0.3179  0.6348  1.6816
  408DG     H16 9377   1.429   2.006   2.786 -0.2503 -0.1560 -0.1353
  408DG     C17 9378   1.173   1.988   3.005 -0.4028 -0.1349  0.1951
  408DG     C18 9379   1.393   2.099   2.974 -0.4707 -0.4127  0.0217
  408DG     O19 9380   1.312   1.996   3.033 -0.3552  0.7351 -0.4881
  408DG     H20 9381   1.133   2.089   3.005  1.2295  0.5479  0.4151
  408DG     H21 9382   1.169   1.948   2.904 -1.6302  1.5347 -0.4616
  408DG     H22 9383   1.497   2.085   3.002 -0.5690 -2.7318 -0.5902
  408DG     H23 9384   1.362   2.195   3.017 -0.5212 -1.0118  1.3601
  409DG      C1 9385   1.355   3.015   1.792 -0.4902 -0.1304  0.0919
  409DG      C2 9386   1.951   2.891   2.146 -0.6304 -0.1553  0.5763
  409DG      H3 9387   1.393   2.931   1.733  1.5976 -0.0768  1.2844
  409DG      H4 9388   1.326   3.106   1.738 -3.0336 -0.0814  1.4274
  409DG      H5 9389   1.265   2.974   1.837  1.1285 -1.0056  2.7148
  409DG      H6 9390   2.036   2.950   2.183 -0.1567  0.1926 -1.0156
  409DG      H7 9391   1.933   2.819   2.226 -1.0716  0.0130  0.6316
  409DG      H8 9392   1.969   2.850   2.047  0.2922  2.0555 -0.2471
  409DG      O9 9393   1.452   3.061   1.885 -0.6402  0.7744  0.4407
  409DG     O10 9394   1.837   2.980   2.132 -0.3098 -0.0142  0.2448
  409DG     C11 9395   1.394   3.133   1.993  0.0464 -0.1502 -0.2154
  409DG     C12 9396   1.779   3.029   2.254  0.2097 -0.3868  0.1250
  409DG     H13 9397   1.354   3.059   2.062 -1.3385  1.9689  1.3815
  409DG     H14 9398   1.319   3.206   1.964 -0.7079 -0.4798  0.8725
  409DG     H15 9399   1.863   3.062   2.315  1.5865 -0.9950 -1.3360
  409DG     H16 9400   1.722   2.942   2.288 -1.4092 -0.5717 -2.7342
  409DG     C17 9401   1.506   3.204   2.071  0.0694 -0.7060  0.2592
  409DG     C18 9402   1.684   3.143   2.218  0.2234 -0.6624 -0.0294
  409DG     O19 9403   1.618   3.121   2.092 -0.5972  0.2577  0.0451
  409DG     H20 9404   1.468   3.242   2.166  1.9657 -0.4185  0.9302
  409DG     H21 9405   1.544   3.292   2.019 -1.4191 -1.0289 -1.4851
  409DG     H22 9406   1.623   3.146   2.308  0.3068  1.7620  0.0041
  409DG     H23 9407   1.745   3.233   2.209  1.1255 -1.2985 -0.4478
  410DG      C1 9408   1.674   4.609   0.619 -0.7966  0.1112  1.1294
  410DG      C2 9409   1.090   4.231   0.370 -0.2894 -0.2356  0.3726
  410DG      H3 9410   1.728   4.629   0.527 -0.6684  0.4556  1.2794
  410DG      H4 9411   1.750   4.608   0.697  0.1233  1.4896  0.2827
  410DG      H5 9412   1.611   4.696   0.636 -0.0423  1.2340 -1.3442
  410DG      H6 9413   1.120   4.263   0.271 -1.8222 -0.1820 -0.0985
  410DG      H7 9414   1.060   4.126   0.374  0.3669 -0.4779 -0.7361
  410DG      H8 9415   0.996   4.283   0.388 -0.0978  0.2241  0.0508
  410DG      O9 9416   1.615   4.483   0.623 -0.0585 -0.4249 -0.4585
  410DG     O10 9417   1.176   4.269   0.478  0.0679  0.4853  1.1887
  410DG     C11 9418   1.557   4.462   0.752  0.7498 -0.2035 -0.2487
  410DG     C12 9419   1.204   4.405   0.500 -0.3639  0.3564  0.0499
  410DG     H13 9420   1.504   4.553   0.781  1.6492  0.2197  0.1060
  410DG     H14 9421   1.639   4.446   0.821  0.5187  0.3251  0.1560
  410DG     H15 9422   1.110   4.462   0.497 -1.5391 -1.5128 -0.5781
  410DG     H16 9423   1.270   4.445   0.422  0.9154 -1.0749  0.3663
  410DG     C17 9424   1.463   4.342   0.759  0.6229 -0.0959  0.0267
  410DG     C18 9425   1.285   4.421   0.623 -0.4351  0.3173 -0.1834
  410DG     O19 9426   1.388   4.335   0.639 -0.1098  0.4537  0.5815
  410DG     H20 9427   1.406   4.351   0.851  1.1239 -0.4265  0.3742
  410DG     H21 9428   1.512   4.245   0.754 -0.9874 -1.1967  2.9665
  410DG     H22 9429   1.320   4.523   0.640 -1.0517  0.6887 -1.0538
  410DG     H23 9430   1.212   4.383   0.695  0.3050 -1.0767 -0.1364
  411THF     O1 9431   4.714   2.192   3.190 -0.4034 -0.8347  0.5438
  411THF     C2 9432   4.655   2.191   3.060  0.2640 -1.3748  0.7832
  411THF     C3 9433   4.626   2.134   3.285  0.4247  0.5275  0.5639
  411THF     H4 9434   4.664   2.089   3.023  0.8423 -1.1334  0.2527
  411THF     H5 9435   4.696   2.262   2.989 -0.3191  0.6620  2.3871
  411THF     H6 9436   4.659   2.038   3.324  2.8432  1.6495  1.4433
  411THF     H7 9437   4.618   2.197   3.373 -0.0531 -0.7342  1.4521
  411THF     C8 9438   4.484   2.139   3.214 -0.0057 -0.1106  0.1910
  411THF     C9 9439   4.509   2.225   3.093  0.3897  0.6619 -0.0750
  411THF    H10 9440   4.402   2.172   3.278  1.0117  2.4148  0.3128
  411THF    H11 9441   4.459   2.040   3.176  0.0255 -0.2433  0.5159
  411THF    H12 9442   4.438   2.218   3.010 -1.6488 -0.6253  1.6877
  411THF    H13 9443   4.512   2.330   3.124  2.5889  0.6893 -0.2137
  412THF     O1 9444   5.366   0.578   0.930 -0.0460 -0.0262 -0.4327
  412THF     C2 9445   5.477   0.574   0.844 -0.5489 -0.0289  0.2253
  412THF     C3 9446   5.348   0.717   0.972  0.2598  0.6447  0.3056
  412THF     H4 9447   5.487   0.483   0.784  0.1081  1.9547 -2.9065
  412THF     H5 9448   5.569   0.596   0.899 -0.7087  0.5073  0.2737
  412THF     H6 9449   5.248   0.737   1.011 -0.1953  0.3567 -0.6655
  412THF     H7 9450   5.419   0.744   1.049 -2.0908 -0.3419  2.9756
  412THF     C8 9451   5.379   0.782   0.837  0.3708 -0.0345  0.0789
  412THF     C9 9452   5.452   0.685   0.750  0.2966  0.3910 -0.1520
  412THF    H10 9453   5.432   0.876   0.853 -0.0309  0.1834  0.1455
  412THF    H11 9454   5.283   0.806   0.790  1.2286 -1.6221 -2.6891
  412THF    H12 9455   5.381   0.652   0.673 -1.6530  3.0024  0.3586
  412THF    H13 9456   5.542   0.715   0.697 -0.2307 -0.1057 -1.3688
  413THF     O1 9457   3.702   3.156   3.585 -0.4433  0.2887  0.4974
  413THF     C2 9458   3.816   3.136   3.491  0.0618 -0.1227 -0.2540
  413THF     C3 9459   3.763   3.200   3.703 -0.1549 -0.4313 -0.1488
  413THF     H4 9460   3.786   3.133   3.387 -2.5650 -0.2494  0.4177
  413THF     H5 9461   3.857   3.036   3.506  0.1982 -0.1946 -1.0847
  413THF     H6 9462   3.687   3.257   3.758 -0.9313 -0.5129 -1.1001
  413THF     H7 9463   3.793   3.122   3.772 -0.7199 -1.5836 -1.1668
  413THF     C8 9464   3.872   3.300   3.661  0.2518 -0.3195 -0.3144
  413THF     C9 9465   3.922   3.249   3.530  0.6834 -0.0979  0.4162
  413THF    H10 9466   3.948   3.317   3.738 -0.8197  0.1491  0.6644
  413THF    H11 9467   3.821   3.395   3.645 -2.4590 -1.4768  0.8490
  413THF    H12 9468   3.933   3.327   3.455 -0.2427 -0.8115 -0.4861
  413THF    H13 9469   4.024   3.211   3.531  1.5865  2.1477 -0.1955
  414THF     O1 9470   5.363   3.820   5.460  0.6064  0.0951 -0.0097
  414THF     C2 9471   5.485   3.753   5.464 -0.2690  0.3952 -0.0249
  414THF     C3 9472   5.283   3.771   5.360  0.3938  0.6400  0.0649
  414THF     H4 9473   5.534   3.776   5.558 -0.3835  2.6983 -0.4596
  414THF     H5 9474   5.552   3.788   5.384 -0.2916 -1.7969 -1.0803
  414THF     H6 9475   5.184   3.760   5.405  1.5167  0.3718  2.6280
  414THF     H7 9476   5.280   3.836   5.272  1.8128  0.3969 -0.1827
  414THF     C8 9477   5.346   3.634   5.319 -0.2325 -0.3927 -0.8025
  414THF     C9 9478   5.446   3.609   5.431  0.6164 -0.0485 -0.0776
  414THF    H10 9479   5.396   3.653   5.223  0.1705  0.4545 -0.4350
  414THF    H11 9480   5.272   3.554   5.310 -1.6319  0.5833  1.2708
  414THF    H12 9481   5.393   3.574   5.520  2.1110 -1.3109  0.3642
  414THF    H13 9482   5.526   3.540   5.403 -1.6800 -2.0799 -2.1474
  415THF     O1 9483   0.257   0.255   1.671  0.0267 -0.0690 -0.1311
  415THF     C2 9484   0.114   0.242   1.658 -0.5342 -0.1824 -0.2179
  415THF     C3 9485   0.296   0.184   1.786 -0.0620  0.0756 -0.1695
  415THF     H4 9486   0.084   0.138   1.645  3.0404 -1.2436 -1.0246
  415THF     H5 9487   0.084   0.310   1.578 -1.6422 -3.4224 -2.7638
  415THF     H6 9488   0.312   0.077   1.775 -0.9487  0.0175 -1.0615
  415THF     H7 9489   0.383   0.231   1.832  3.8105 -3.5845 -2.9519
  415THF     C8 9490   0.170   0.211   1.880  0.1591 -0.0867  0.8555
  415THF     C9 9491   0.079   0.294   1.793 -0.3419  0.0679  0.4463
  415THF    H10 9492   0.188   0.274   1.967 -1.5974 -0.4350  1.5201
  415THF    H11 9493   0.119   0.117   1.903 -0.2535  0.3516  1.7926
  415THF    H12 9494  -0.027   0.273   1.808 -0.4417  1.4047  1.8753
  415THF    H13 9495   0.089   0.402   1.809 -0.4174 -0.1622  2.2390
  416THF     O1 9496   0.022   0.881   1.789  0.0540  0.5156 -0.0704
  416THF     C2 9497   0.072   0.822   1.914  0.2327 -0.1867 -1.0193
  416THF     C3 9498  -0.119   0.858   1.779 -0.4992  0.2338  0.2909
  416THF     H4 9499   0.175   0.856   1.926 -0.2223  0.7396  0.5068
  416THF     H5 9500   0.073   0.713   1.903  3.1011 -0.4853  1.0844
  416THF     H6 9501  -0.172   0.937   1.726 -2.8413 -1.3385  0.1405
  416THF     H7 9502  -0.142   0.769   1.721  0.9508  1.4697 -2.3343
  416THF     C8 9503  -0.175   0.842   1.917 -0.0610 -0.0038 -0.3988
  416THF     C9 9504  -0.049   0.872   1.998 -0.6214  0.3838  0.6847
  416THF    H10 9505  -0.200   0.738   1.937  1.8348 -1.2576 -3.6451
  416THF    H11 9506  -0.260   0.902   1.948  0.9790  0.9192  0.8196
  416THF    H12 9507  -0.038   0.980   2.010  0.7068  0.3339  0.0501
  416THF    H13 9508  -0.051   0.832   2.099  0.8019  0.4646  0.7654
  417THF     O1 9509   3.875   0.422   0.707  0.1334 -0.2073 -0.4430
  417THF     C2 9510   3.999   0.401   0.652 -0.4805 -0.0386 -0.4730
  417THF     C3 9511   3.809   0.299   0.740  0.2690  0.6918  0.2249
  417THF     H4 9512   4.073   0.383   0.729 -0.4457 -0.7931 -0.6787
  417THF     H5 9513   4.011   0.488   0.587 -2.0823 -0.3828 -1.2951
  417THF     H6 9514   3.825   0.286   0.847  1.7723  1.1511  0.0786
  417THF     H7 9515   3.702   0.294   0.721  0.5093  0.0698 -1.0758
  417THF     C8 9516   3.872   0.189   0.655  0.1039 -0.7977  0.7552
  417THF     C9 9517   3.984   0.266   0.581 -0.2771 -0.3018 -0.5743
  417THF    H10 9518   3.808   0.150   0.577 -0.2001  1.7725 -0.3528
  417THF    H11 9519   3.924   0.109   0.709 -2.5278 -2.8105  0.4879
  417THF    H12 9520   4.072   0.201   0.579 -0.9905 -1.2812 -2.2392
  417THF    H13 9521   3.963   0.289   0.477  1.3776  1.5545 -0.5631
  418THF     O1 9522   4.377   4.768   0.264 -0.7180  0.2433 -0.4486
  418THF     C2 9523   4.289   4.822   0.170  0.0264 -0.0902  0.8123
  418THF     C3 9524   4.436   4.650   0.217  0.0084  0.8226  0.6352
  418THF     H4 9525   4.269   4.927   0.189  0.0745  0.7168 -2.8559
  418THF     H5 9526   4.191   4.774   0.170  1.0634 -2.3447  1.1749
  418THF     H6 9527   4.542   4.660   0.240 -0.2776 -0.4952  2.7549
  418THF     H7 9528   4.404   4.570   0.284 -1.7258 -0.2324 -1.3306
  418THF     C8 9529   4.404   4.641   0.057  0.2617  0.3572 -1.0508
  418THF     C9 9530   4.360   4.787   0.041  0.2802  0.1486  0.5250
  418THF    H10 9531   4.316   4.581   0.031 -0.5605 -0.3873  2.8053
  418THF    H11 9532   4.500   4.607   0.018  1.6133  0.3492  1.9545
  418THF    H12 9533   4.449   4.850   0.036  0.6835 -0.4181  0.4518
  418THF    H13 9534   4.291   4.800  -0.042 -0.1911 -1.9127  0.5296
  419THF     O1 9535   1.615   3.421   4.779  0.5094  0.1818  0.2859
  419THF     C2 9536   1.693   3.358   4.880  0.0360 -0.2310 -0.2843
  419THF     C3 9537   1.708   3.452   4.677 -0.1011 -0.6466  0.4490
  419THF     H4 9538   1.637   3.304   4.956 -0.1836  0.9350  0.3953
  419THF     H5 9539   1.754   3.429   4.936  0.7528 -0.9721 -0.0942
  419THF     H6 9540   1.639   3.451   4.592 -2.1147  1.8731  1.9422
  419THF     H7 9541   1.747   3.553   4.682  0.0006 -0.6434 -0.2999
  419THF     C8 9542   1.819   3.352   4.685 -0.6475  0.4020  0.1976
  419THF     C9 9543   1.778   3.260   4.800  0.3106  0.2053 -0.1526
  419THF    H10 9544   1.899   3.411   4.729  0.9272  0.1612 -2.1570
  419THF    H11 9545   1.849   3.303   4.592  0.5489  1.1685  0.1671
  419THF    H12 9546   1.712   3.180   4.767 -2.1240  2.3667 -0.9535
  419THF    H13 9547   1.863   3.219   4.853  0.2518 -0.3119 -0.4553
  420THF     O1 9548   4.196   4.439   4.606 -0.1253  0.1890  0.1020
  420THF     C2 9549   4.082   4.473   4.530  0.7490  0.3152  0.1479
  420THF     C3 9550   4.161   4.460   4.740  0.1626 -0.0237 -1.0425
  420THF     H4 9551   3.998   4.408   4.553  1.1444 -0.1589  0.2834
  420THF     H5 9552   4.107   4.467   4.424 -1.7503 -1.5773 -0.4234
  420THF     H6 9553   4.091   4.388   4.783 -1.1184  1.9713  0.3958
  420THF     H7 9554   4.254   4.457   4.797 -0.8879  0.3953  0.7884
  420THF     C8 9555   4.105   4.604   4.723 -0.1911 -0.7041 -0.2103
  420THF     C9 9556   4.068   4.619   4.572 -0.0333 -0.3511 -0.0485
  420THF    H10 9557   4.182   4.680   4.737 -1.5910  0.3795  2.3516
  420THF    H11 9558   4.028   4.631   4.795 -1.3100  2.0373 -2.2666
  420THF    H12 9559   3.965   4.643   4.547 -0.7208 -1.4434  1.5475
  420THF    H13 9560   4.130   4.689   4.515 -0.0085  0.8414  1.3599
  421THF     O1 9561   1.223   1.544   5.135 -0.2979  0.4894 -0.6067
  421THF     C2 9562   1.191   1.494   5.259  0.3773  0.1907 -0.8502
  421THF     C3 9563   1.107   1.597   5.071 -0.1251 -0.8099  0.8824
  421THF     H4 9564   1.199   1.581   5.325  3.1565 -0.1298 -0.6286
  421THF     H5 9565   1.259   1.411   5.282 -0.5004 -0.3139 -0.0111
  421THF     H6 9566   1.080   1.693   5.116  1.2650  0.5869 -1.0750
  421THF     H7 9567   1.107   1.614   4.963  0.6157 -1.1372  0.8224
  421THF     C8 9568   1.011   1.483   5.087 -0.7497  0.5471 -0.6493
  421THF     C9 9569   1.048   1.433   5.229  0.5029  0.4820  0.3823
  421THF    H10 9570   1.032   1.410   5.009  3.5298  0.8416  0.0124
  421THF    H11 9571   0.906   1.511   5.079 -0.7518  0.9411  0.4639
  421THF    H12 9572   0.971   1.469   5.297  0.2256 -1.0809  0.9387
  421THF    H13 9573   1.042   1.324   5.237 -1.3030  0.3518 -1.7915
  422THF     O1 9574   3.947   3.273   1.226  0.1822  0.4728 -0.1379
  422THF     C2 9575   4.079   3.254   1.275  0.1553 -0.1384 -0.2790
  422THF     C3 9576   3.961   3.242   1.087 -0.4589 -0.1089 -0.0370
  422THF     H4 9577   4.064   3.225   1.379  1.3610 -1.2449 -0.3892
  422THF     H5 9578   4.130   3.350   1.273 -0.3543  0.1174 -1.1855
  422THF     H6 9579   3.866   3.227   1.035  0.0872 -0.1870 -1.0405
  422THF     H7 9580   4.012   3.327   1.042  1.7732 -0.6574  1.2907
  422THF     C8 9581   4.046   3.116   1.091 -0.0302  0.4750  0.0746
  422THF     C9 9582   4.147   3.148   1.195  0.8347 -0.0656  0.1726
  422THF    H10 9583   4.093   3.090   0.996 -0.4663 -1.2165  0.2957
  422THF    H11 9584   3.990   3.028   1.121 -0.0026 -0.1158 -1.5431
  422THF    H12 9585   4.179   3.058   1.248  0.9351 -0.4635 -0.5432
  422THF    H13 9586   4.237   3.193   1.152  0.9666 -0.7071 -0.2460
  423THF     O1 9587   0.194   0.867   0.473 -0.2748  0.6952 -0.0223
  423THF     C2 9588   0.333   0.892   0.495 -0.5557  0.1044  0.2999
  423THF     C3 9589   0.120   0.969   0.546 -0.3357  0.2990 -0.3900
  423THF     H4 9590   0.369   0.985   0.451  0.7333 -0.1815  0.7009
  423THF     H5 9591   0.405   0.814   0.468 -0.1501 -0.4434  2.6683
  423THF     H6 9592   0.119   1.065   0.493 -1.7296 -0.0667 -1.0793
  423THF     H7 9593   0.017   0.941   0.568 -1.1750  3.0881 -0.3675
  423THF     C8 9594   0.193   0.990   0.675  0.0122 -0.1469  0.2802
  423THF     C9 9595   0.319   0.916   0.646  0.5770  0.3722  0.1549
  423THF    H10 9596   0.136   0.937   0.751 -1.2209 -0.9051 -1.1107
  423THF    H11 9597   0.218   1.096   0.683 -0.0432 -0.0173 -1.0315
  423THF    H12 9598   0.401   0.962   0.701  1.6030  0.6057 -1.5120
  423THF    H13 9599   0.321   0.818   0.694 -1.9593 -0.6078 -1.5872
  424THF     O1 9600   2.204   4.124   2.087  0.4306 -0.5056  0.5838
  424THF     C2 9601   2.191   4.053   2.211 -0.6641 -0.1722  0.1343
  424THF     C3 9602   2.092   4.125   2.006  0.6831 -0.7453  0.0877
  424THF     H4 9603   2.232   4.099   2.301 -2.0586  0.9570  0.2199
  424THF     H5 9604   2.259   3.969   2.198 -0.3698 -0.1458  1.3725
  424THF     H6 9605   2.051   4.225   1.988 -0.4618 -0.9594  1.3475
  424THF     H7 9606   2.097   4.081   1.907 -0.6824 -0.1374 -0.2732
  424THF     C8 9607   1.986   4.039   2.080 -0.3848 -0.1997  0.5633
  424THF     C9 9608   2.054   4.013   2.217  0.1949 -0.4015  0.1920
  424THF    H10 9609   1.971   3.950   2.020 -2.1971  0.0983  0.5173
  424THF    H11 9610   1.891   4.091   2.090 -0.3252  0.2520 -0.9520
  424THF    H12 9611   2.012   4.085   2.287  0.8008  1.4676 -1.2591
  424THF    H13 9612   2.047   3.911   2.255 -1.9762 -1.9334 -3.6792
  425THF     O1 9613   3.399   3.324   0.087 -0.1385 -0.5820 -0.5136
  425THF     C2 9614   3.387   3.181   0.078  0.5558 -0.6032  0.1742
  425THF     C3 9615   3.371   3.351   0.227 -0.3905  0.2957  0.0891
  425THF     H4 9616   3.435   3.148  -0.015 -1.0398 -0.0726 -0.8699
  425THF     H5 9617   3.285   3.145   0.077  0.7771 -1.2283 -0.6644
  425THF     H6 9618   3.406   3.450   0.258  0.6474  0.1107 -0.4614
  425THF     H7 9619   3.262   3.358   0.231 -0.3141  1.4465  0.8284
  425THF     C8 9620   3.442   3.238   0.307  0.4406 -0.0710 -0.0448
  425THF     C9 9621   3.449   3.123   0.210 -0.0879  0.4068  0.4147
  425THF    H10 9622   3.412   3.213   0.408  0.5735  0.6021  0.1635
  425THF    H11 9623   3.545   3.269   0.325  0.8911 -1.3441 -0.2757
  425THF    H12 9624   3.553   3.094   0.193 -0.4119 -1.1535  0.8888
  425THF    H13 9625   3.395   3.034   0.243 -0.5099  0.9162  1.1299
  426THF     O1 9626   3.702   1.758   4.871 -0.0285 -0.1450  0.0286
  426THF     C2 9627   3.561   1.755   4.882 -0.7820 -0.2366  0.8142
  426THF     C3 9628   3.741   1.862   4.786 -0.1364 -0.2314  0.2226
  426THF     H4 9629   3.532   1.818   4.966 -0.2547 -1.5630  2.0279
  426THF     H5 9630   3.521   1.659   4.917 -0.6379 -0.7344 -0.3400
  426THF     H6 9631   3.773   1.947   4.846 -2.3344  1.1063 -0.3592
  426THF     H7 9632   3.832   1.844   4.728  0.6930 -1.3549  1.8075
  426THF     C8 9633   3.615   1.898   4.708  0.4080  0.7572 -0.5348
  426THF     C9 9634   3.517   1.788   4.743 -0.0908 -0.1325  0.6006
  426THF    H10 9635   3.648   1.910   4.605  1.2886 -1.3458 -0.5439
  426THF    H11 9636   3.585   1.994   4.751  1.0563  1.4380 -1.5617
  426THF    H12 9637   3.416   1.828   4.737  0.8825  2.4049 -0.0310
  426THF    H13 9638   3.524   1.704   4.674  1.7561 -0.1971  0.8067
  427THF     O1 9639   5.427   3.664   4.239  0.4463  0.1778 -0.5135
  427THF     C2 9640   5.519   3.627   4.347  0.6294 -0.2618 -0.2335
  427THF     C3 9641   5.385   3.792   4.275  0.4032 -0.0910 -0.2447
  427THF     H4 9642   5.612   3.682   4.331  1.4666 -1.2880  0.8566
  427THF     H5 9643   5.542   3.521   4.360  0.0258 -0.3603  0.0403
  427THF     H6 9644   5.466   3.859   4.247  0.4749 -0.8555 -2.0081
  427THF     H7 9645   5.290   3.827   4.235 -0.6570 -1.5929  0.7933
  427THF     C8 9646   5.371   3.789   4.432 -0.5137 -0.4107 -0.7818
  427THF     C9 9647   5.454   3.677   4.478 -0.0421  0.3185 -0.0874
  427THF    H10 9648   5.267   3.765   4.455  0.0396 -1.8505  0.3694
  427THF    H11 9649   5.391   3.881   4.487 -0.3550 -1.1243  0.3876
  427THF    H12 9650   5.530   3.708   4.550  0.1026 -1.5632  0.6092
  427THF    H13 9651   5.389   3.601   4.521 -1.0091  0.6917 -0.8432
  428THF     O1 9652   0.709   1.546   2.046  0.1465  0.8073  0.8655
  428THF     C2 9653   0.615   1.452   2.101 -0.0064 -0.2676  0.2298
  428THF     C3 9654   0.806   1.567   2.150 -0.0426 -0.2130  0.7655
  428THF     H4 9655   0.554   1.393   2.033  1.7130 -0.3287 -1.3648
  428THF     H5 9656   0.555   1.517   2.164 -0.0854  0.8963 -0.9952
  428THF     H6 9657   0.888   1.621   2.104  0.0083 -0.0286  1.0667
  428THF     H7 9658   0.761   1.635   2.223 -0.2906  0.5762 -0.1069
  428THF     C8 9659   0.828   1.423   2.199 -0.3501  0.5483 -0.1949
  428THF     C9 9660   0.702   1.352   2.164 -0.7727 -0.8542 -0.0944
  428THF    H10 9661   0.851   1.420   2.306 -0.3132 -1.8580 -0.2119
  428THF    H11 9662   0.927   1.395   2.161 -0.0780  0.5304  0.4948
  428THF    H12 9663   0.719   1.267   2.097  0.3934  1.0282 -2.3728
  428THF    H13 9664   0.655   1.314   2.255 -2.6775 -1.1842 -1.1569
  429THF     O1 9665   0.488   5.476   2.767 -0.1466  0.5476 -0.1248
  429THF     C2 9666   0.422   5.563   2.859 -0.2714 -0.3032  0.2256
  429THF     C3 9667   0.442   5.511   2.641 -0.4394  0.3023  0.1403
  429THF     H4 9668   0.473   5.659   2.858 -1.4212  0.3184 -0.4344
  429THF     H5 9669   0.439   5.520   2.958  3.4662 -0.3820 -0.3001
  429THF     H6 9670   0.529   5.544   2.584  0.9821 -1.9531  0.8698
  429THF     H7 9671   0.396   5.422   2.599  1.2496 -1.2229  1.3744
  429THF     C8 9672   0.331   5.615   2.653  0.1961 -0.5004 -0.0151
  429THF     C9 9673   0.288   5.592   2.795 -0.1729  0.1440 -0.8867
  429THF    H10 9674   0.245   5.611   2.587 -1.6022 -1.1453  2.2221
  429THF    H11 9675   0.363   5.719   2.656  0.4425 -0.5873  1.7799
  429THF    H12 9676   0.240   5.676   2.846 -0.4741 -0.6985  0.2517
  429THF    H13 9677   0.213   5.514   2.796  0.2238 -0.2408 -0.4921
  430THF     O1 9678   1.846   2.918   2.581  0.3340  0.3468 -0.3556
  430THF     C2 9679   1.892   2.792   2.527 -0.3610  0.3846  0.2607
  430THF     C3 9680   1.705   2.916   2.612  0.5492 -0.1753  0.4042
  430THF     H4 9681   1.997   2.781   2.554 -0.3145  0.2860  0.0420
  430THF     H5 9682   1.863   2.802   2.422 -0.6264 -0.9967  0.1871
  430THF     H6 9683   1.664   2.990   2.680  0.3420 -1.7964  2.1151
  430THF     H7 9684   1.650   2.924   2.518 -1.0515  0.5043  1.3615
  430THF     C8 9685   1.699   2.777   2.677 -0.0836  0.6598  0.8478
  430THF     C9 9686   1.810   2.697   2.607  0.7392 -0.2617 -0.0339
  430THF    H10 9687   1.602   2.730   2.662  0.2429  0.4526 -0.8275
  430THF    H11 9688   1.739   2.777   2.778  2.2088 -0.3131  0.0155
  430THF    H12 9689   1.870   2.635   2.674  3.1490  2.6853  0.8138
  430THF    H13 9690   1.774   2.623   2.536 -0.1844 -0.9427  1.0926
  431THF     O1 9691   4.719   2.539   0.243 -0.5193  0.2465 -0.8876
  431THF     C2 9692   4.769   2.408   0.244 -0.1963 -0.9819 -0.0673
  431THF     C3 9693   4.769   2.610   0.362  0.3696 -0.0866  0.2571
  431THF     H4 9694   4.871   2.388   0.214  0.3071  1.4560 -0.1733
  431THF     H5 9695   4.705   2.346   0.181  1.2147 -0.7101 -1.8188
  431THF     H6 9696   4.841   2.689   0.340  2.4471 -1.7087  0.8859
  431THF     H7 9697   4.681   2.651   0.412 -0.0352  2.2227 -2.1591
  431THF     C8 9698   4.816   2.498   0.453 -0.5654  0.2488 -0.4839
  431THF     C9 9699   4.762   2.373   0.392  0.2348 -0.1592 -0.6032
  431THF    H10 9700   4.793   2.521   0.557  1.3568  2.2475 -0.4180
  431THF    H11 9701   4.924   2.491   0.443 -0.2107  0.6487  2.2713
  431THF    H12 9702   4.826   2.289   0.420  1.8099  1.6259  1.5805
  431THF    H13 9703   4.660   2.367   0.431  0.1549 -0.3052 -0.8378
  432THF     O1 9704   1.097   5.154   1.635  0.2930 -0.0278  0.4749
  432THF     C2 9705   1.226   5.148   1.678 -0.0327 -0.1291  0.5984
  432THF     C3 9706   1.075   5.280   1.559  0.0803  0.4073 -1.4311
  432THF     H4 9707   1.237   5.048   1.720  0.6630 -0.0218  0.6786
  432THF     H5 9708   1.235   5.219   1.760 -1.0868 -1.0391  1.5381
  432THF     H6 9709   0.975   5.290   1.517  0.6260 -1.1136 -3.2294
  432THF     H7 9710   1.080   5.360   1.633 -4.0017 -1.1523  0.8940
  432THF     C8 9711   1.198   5.282   1.471 -0.4539  0.8148  0.0016
  432THF     C9 9712   1.299   5.175   1.539  0.7572 -0.0801 -0.3586
  432THF    H10 9713   1.237   5.384   1.468  0.8006  0.3367 -1.1605
  432THF    H11 9714   1.180   5.257   1.366 -2.7274  1.5969  0.1584
  432THF    H12 9715   1.291   5.086   1.477 -0.5225  0.6069 -1.2099
  432THF    H13 9716   1.400   5.213   1.552  0.1084  1.3707  0.8170
  433THF     O1 9717   3.419   0.385   2.388 -0.7603 -0.1253  0.0203
  433THF     C2 9718   3.542   0.305   2.407  0.2831 -0.8902 -1.1068
  433THF     C3 9719   3.317   0.303   2.338 -0.1881  0.1505 -0.0647
  433THF     H4 9720   3.550   0.272   2.511 -1.0386  0.1174 -0.6472
  433THF     H5 9721   3.628   0.369   2.386 -1.0100  1.5197  0.3977
  433THF     H6 9722   3.238   0.301   2.412  0.7632  0.4150  0.9832
  433THF     H7 9723   3.277   0.328   2.240 -1.4215 -1.5069 -0.0216
  433THF     C8 9724   3.386   0.165   2.313  0.1701 -0.1833 -0.4858
  433THF     C9 9725   3.530   0.198   2.303 -0.1426 -0.4287 -0.2952
  433THF    H10 9726   3.346   0.135   2.216 -2.0358  1.1274 -0.0405
  433THF    H11 9727   3.369   0.089   2.389 -0.4468  0.6696  0.2444
  433THF    H12 9728   3.600   0.117   2.325  0.4368  0.3324  0.7844
  433THF    H13 9729   3.552   0.248   2.208 -1.7868 -1.7181 -1.4212
  434THF     O1 9730   4.358   4.944   3.024 -0.5614 -0.4618  0.6549
  434THF     C2 9731   4.496   4.922   3.002 -0.4541  0.4506  0.3694
  434THF     C3 9732   4.325   5.072   2.956 -1.1348 -0.0354 -0.2660
  434THF     H4 9733   4.514   4.815   3.014 -0.1108  0.1395 -2.3331
  434THF     H5 9734   4.553   4.986   3.069 -3.0532  1.2568  1.9627
  434THF     H6 9735   4.221   5.063   2.924 -0.7703  0.8537 -1.7778
  434THF     H7 9736   4.336   5.150   3.030 -0.3048 -0.4020  0.0112
  434THF     C8 9737   4.424   5.082   2.835  0.0911 -0.0950 -0.2953
  434THF     C9 9738   4.521   4.966   2.856  0.2104 -0.5304  0.0632
  434THF    H10 9739   4.476   5.178   2.832  3.4306 -1.7045  0.7047
  434THF    H11 9740   4.375   5.076   2.738 -2.0244  0.6247  0.6646
  434THF    H12 9741   4.503   4.879   2.793 -0.9467 -1.9456  2.2659
  434THF    H13 9742   4.621   5.006   2.840 -0.2234  0.8211  0.5433
  435THF     O1 9743   0.851   1.774   4.899  0.8005 -0.0518 -0.0537
  435THF     C2 9744   0.859   1.871   5.007  0.7128  0.9881  0.7037
  435THF     C3 9745   0.744   1.812   4.817  0.4743  0.3256 -0.2554
  435THF     H4 9746   0.910   1.957   4.964  0.6828 -0.0184 -1.4621
  435THF     H5 9747   0.912   1.825   5.091  0.0763 -2.7268 -0.7297
  435THF     H6 9748   0.788   1.882   4.745  1.9138  0.2657  0.5270
  435THF     H7 9749   0.702   1.730   4.759  0.4526  0.9336 -1.1264
  435THF     C8 9750   0.635   1.885   4.903 -0.0269 -0.2641  0.0176
  435THF     C9 9751   0.711   1.897   5.041 -0.0015 -0.3446  0.8172
  435THF    H10 9752   0.552   1.814   4.898 -0.6898  0.5149 -0.2653
  435THF    H11 9753   0.601   1.981   4.864  0.1832 -0.5602 -0.9144
  435THF    H12 9754   0.702   1.995   5.087  0.6184 -0.2256  0.6891
  435THF    H13 9755   0.673   1.832   5.121  0.2107 -1.7807 -0.2154
  436THF     O1 9756   0.893   2.227   5.110  0.7365 -0.1166 -0.3588
  436THF     C2 9757   1.016   2.285   5.140 -0.3958 -0.3913  0.7318
  436THF     C3 9758   0.853   2.260   4.977 -0.9324 -0.4060  0.1199
  436THF     H4 9759   1.071   2.224   5.212  2.6918 -0.2432 -1.3011
  436THF     H5 9760   1.000   2.388   5.173 -1.0873 -0.5527  0.9300
  436THF     H6 9761   0.779   2.190   4.937 -2.0959  0.3593  0.8478
  436THF     H7 9762   0.801   2.356   4.979  0.2368  0.2413  0.4023
  436THF     C8 9763   0.978   2.268   4.894 -0.2438  0.2014  0.7112
  436THF     C9 9764   1.085   2.266   5.007  0.1754 -0.1534  0.1688
  436THF    H10 9765   0.980   2.350   4.823  0.6588 -0.8065 -0.4675
  436THF    H11 9766   0.985   2.171   4.844  1.1077  0.2639  0.7342
  436THF    H12 9767   1.134   2.169   5.018 -1.5788 -1.1288 -0.2690
  436THF    H13 9768   1.161   2.342   4.990 -0.7990  0.8375  0.1262
  437THF     O1 9769   4.496   5.220   1.118 -0.3931 -0.4308  0.4391
  437THF     C2 9770   4.367   5.277   1.087 -0.3414  0.3912 -0.5773
  437THF     C3 9771   4.515   5.096   1.056  0.1717  0.1065  0.4438
  437THF     H4 9772   4.371   5.359   1.016 -0.4858  0.0491 -0.9871
  437THF     H5 9773   4.305   5.313   1.170 -1.6772 -0.3140 -1.2361
  437THF     H6 9774   4.604   5.098   0.992 -0.7840 -2.3136 -1.1288
  437THF     H7 9775   4.526   5.020   1.134  0.3124 -0.2647  0.0689
  437THF     C8 9776   4.395   5.070   0.968  0.2359 -0.9577  0.6160
  437THF     C9 9777   4.287   5.164   1.027 -0.4242  0.1612 -0.0522
  437THF    H10 9778   4.354   4.970   0.959  1.7467 -1.4112 -3.0697
  437THF    H11 9779   4.408   5.088   0.861 -1.2668 -1.1308  0.3803
  437THF    H12 9780   4.214   5.209   0.961  0.1982 -0.1525 -0.9697
  437THF    H13 9781   4.235   5.126   1.115  0.1336  2.1491  1.2049
  438THF     O1 9782   5.010   0.397   3.592  0.2724  0.2253  0.6707
  438THF     C2 9783   5.080   0.465   3.698  0.6445 -0.0324  0.3879
  438THF     C3 9784   5.056   0.260   3.585 -0.1258 -0.6328 -0.5078
  438THF     H4 9785   5.020   0.544   3.742 -0.7645  0.3692 -2.1183
  438THF     H5 9786   5.176   0.500   3.659  0.1997  0.4043 -0.3264
  438THF     H6 9787   4.993   0.194   3.525  1.1745 -2.0267 -0.3944
  438THF     H7 9788   5.148   0.273   3.530 -0.1894 -1.4962 -0.8213
  438THF     C8 9789   5.096   0.222   3.736 -0.0996 -0.2903  0.6508
  438THF     C9 9790   5.089   0.361   3.809  0.0488 -0.0454  0.2787
  438THF    H10 9791   5.195   0.176   3.734  1.3036  2.4771 -2.0972
  438THF    H11 9792   5.025   0.149   3.777  0.4032 -0.9449  0.3702
  438THF    H12 9793   4.992   0.362   3.860  0.6204 -0.3046  1.3994
  438THF    H13 9794   5.170   0.375   3.880  0.8849  2.4342 -1.0447
  439THF     O1 9795   1.243   2.866   2.922 -0.4291 -0.1707 -0.0304
  439THF     C2 9796   1.235   2.998   2.972  0.2640  0.5201 -0.5133
  439THF     C3 9797   1.265   2.875   2.777 -0.1887  0.9979 -0.2972
  439THF     H4 9798   1.255   2.993   3.079 -1.0137 -0.8182 -0.2945
  439THF     H5 9799   1.132   3.035   2.963  0.4217  1.6322  1.6117
  439THF     H6 9800   1.303   2.778   2.744 -0.9785  0.7327 -0.4534
  439THF     H7 9801   1.170   2.902   2.732 -0.2864 -0.0877 -0.7841
  439THF     C8 9802   1.369   2.982   2.768  0.6867 -0.3297  0.1799
  439THF     C9 9803   1.338   3.072   2.889  0.4228 -0.0261  0.1245
  439THF    H10 9804   1.362   3.035   2.673 -0.4040 -0.2563  0.2782
  439THF    H11 9805   1.470   2.942   2.769  1.8884  2.4756 -0.0936
  439THF    H12 9806   1.430   3.076   2.947 -0.2820 -1.1539  1.3762
  439THF    H13 9807   1.305   3.173   2.863 -0.9089 -1.0474 -2.5459
  440THF     O1 9808   0.534   1.589   0.823 -0.2789  0.2522  0.1435
  440THF     C2 9809   0.418   1.634   0.899  0.3258 -0.4919 -0.3082
  440THF     C3 9810   0.559   1.453   0.863  0.4195 -0.2391 -0.2553
  440THF     H4 9811   0.326   1.602   0.851  0.5631 -0.3695 -0.8547
  440THF     H5 9812   0.410   1.742   0.904 -0.9189 -0.5874  0.1030
  440THF     H6 9813   0.499   1.392   0.795 -1.5039  1.4788 -0.2089
  440THF     H7 9814   0.657   1.408   0.845  0.3621  0.0819 -1.4881
  440THF     C8 9815   0.504   1.447   1.006 -0.1215  0.0326 -0.3057
  440THF     C9 9816   0.449   1.581   1.044 -0.3620 -0.2944  0.1701
  440THF    H10 9817   0.589   1.437   1.072  1.4960 -0.6019 -2.3843
  440THF    H11 9818   0.433   1.365   1.018  2.0831 -2.1060 -1.1132
  440THF    H12 9819   0.364   1.565   1.109  0.5847 -1.7465  1.0852
  440THF    H13 9820   0.518   1.650   1.093 -0.7966  1.9112 -2.0849
  441THF     O1 9821   3.969   3.517   2.811  0.5410 -0.4949  0.1059
  441THF     C2 9822   3.898   3.391   2.833 -0.5020 -0.4301  0.2868
  441THF     C3 9823   4.094   3.491   2.865  0.2463 -0.3406  0.1008
  441THF     H4 9824   3.911   3.330   2.744 -2.5213  0.7223 -0.8442
  441THF     H5 9825   3.791   3.408   2.839 -0.8550 -2.4563  0.4752
  441THF     H6 9826   4.150   3.420   2.804  0.1741  0.5043 -0.9857
  441THF     H7 9827   4.147   3.585   2.882  0.0129 -0.4816  1.7662
  441THF     C8 9828   4.065   3.435   2.999  0.2811 -0.5869 -0.5413
  441THF     C9 9829   3.944   3.353   2.970 -0.2366  0.2330  1.0385
  441THF    H10 9830   4.049   3.510   3.077  0.0402 -2.4079  1.2663
  441THF    H11 9831   4.147   3.372   3.034  0.0961 -0.2334  0.5941
  441THF    H12 9832   3.972   3.248   2.960 -1.3970  0.0728 -1.3573
  441THF    H13 9833   3.869   3.360   3.049 -2.3685  2.4599 -1.0127
  442THF     O1 9834   2.209   3.920   1.312 -0.5949 -0.7742 -0.2591
  442THF     C2 9835   2.108   3.929   1.409 -0.1290  0.3525 -0.5652
  442THF     C3 9836   2.338   3.944   1.378  0.2974 -0.8624 -0.1745
  442THF     H4 9837   2.104   3.835   1.464  1.4603  0.5512 -0.0600
  442THF     H5 9838   2.006   3.937   1.373  0.0823  1.5285 -0.9433
  442THF     H6 9839   2.402   3.860   1.401  3.8718  1.6575 -0.1549
  442THF     H7 9840   2.404   3.991   1.305 -1.3207 -1.0922 -1.8902
  442THF     C8 9841   2.303   4.029   1.501 -0.4093  0.3478 -0.1312
  442THF     C9 9842   2.150   4.046   1.495  0.2711 -0.2614 -0.4413
  442THF    H10 9843   2.356   4.123   1.491 -0.8980  0.6629  0.1617
  442THF    H11 9844   2.329   3.997   1.602 -0.0578 -0.8094 -0.5782
  442THF    H12 9845   2.105   4.058   1.593  0.4243 -1.6622 -0.1690
  442THF    H13 9846   2.123   4.132   1.435 -1.1947  0.6384  1.4128
  443THF     O1 9847   1.000   5.211   2.895  0.2958 -0.4697  0.8301
  443THF     C2 9848   1.119   5.222   2.823  0.2929  0.3866 -0.1557
  443THF     C3 9849   0.960   5.343   2.920  0.2096  0.3710 -0.2112
  443THF     H4 9850   1.104   5.264   2.724 -0.9880  0.1969 -0.0564
  443THF     H5 9851   1.171   5.127   2.828  3.1067  1.8689  1.5065
  443THF     H6 9852   0.922   5.398   2.834  1.4344  0.4694 -0.7019
  443THF     H7 9853   0.888   5.340   3.002 -0.3045 -0.3396 -0.6725
  443THF     C8 9854   1.088   5.404   2.970 -0.5810 -0.5463  0.0540
  443THF     C9 9855   1.195   5.321   2.907 -0.3415 -0.4153 -0.5774
  443THF    H10 9856   1.100   5.399   3.078  1.5971 -1.7874 -0.1905
  443THF    H11 9857   1.094   5.509   2.942  0.5694 -1.1136 -2.0059
  443THF    H12 9858   1.272   5.376   2.852 -1.9722  2.9827  0.2265
  443THF    H13 9859   1.252   5.268   2.983  2.4631 -0.0356 -2.2683
  444THF     O1 9860   3.580   2.216   4.904  0.0487 -0.1805 -0.0823
  444THF     C2 9861   3.677   2.183   5.012  0.1001  0.5115 -0.2609
  444THF     C3 9862   3.641   2.290   4.803  0.1964 -0.1914 -0.0004
  444THF     H4 9863   3.708   2.079   5.011  1.3841  0.8406  1.3783
  444THF     H5 9864   3.624   2.202   5.105 -1.3523  2.6087 -1.4122
  444THF     H6 9865   3.696   2.219   4.740 -2.3146 -1.3754 -0.9840
  444THF     H7 9866   3.559   2.344   4.756 -0.7694 -1.8825 -0.3469
  444THF     C8 9867   3.740   2.363   4.887 -0.4295 -1.1599 -0.1756
  444THF     C9 9868   3.799   2.258   4.980 -0.7732 -0.7463  0.1507
  444THF    H10 9869   3.687   2.438   4.945  0.2644 -0.6342 -0.2106
  444THF    H11 9870   3.810   2.405   4.815 -2.2529  0.1869 -1.2451
  444THF    H12 9871   3.883   2.204   4.937  1.2128  0.6025  2.0916
  444THF    H13 9872   3.834   2.301   5.074  0.1371  1.7624 -1.2366
  445THF     O1 9873   3.446   2.416   0.414 -0.2301  0.6410 -0.1375
  445THF     C2 9874   3.328   2.377   0.487 -1.2220  0.6135  0.0836
  445THF     C3 9875   3.549   2.336   0.463 -0.6574 -0.1177 -0.4467
  445THF     H4 9876   3.299   2.291   0.426 -1.6757  0.2320  0.8249
  445THF     H5 9877   3.249   2.451   0.485 -0.1891  1.7828  0.9428
  445THF     H6 9878   3.541   2.241   0.410  0.1478 -1.2611  1.4070
  445THF     H7 9879   3.650   2.374   0.447 -0.2845 -0.9961 -0.2636
  445THF     C8 9880   3.522   2.300   0.605 -0.1313 -0.6230  0.1690
  445THF     C9 9881   3.376   2.332   0.620  0.1847  0.4562 -0.2857
  445THF    H10 9882   3.581   2.352   0.680  1.6504 -1.3181 -0.6931
  445THF    H11 9883   3.543   2.193   0.613 -1.5964 -0.9190  0.3174
  445THF    H12 9884   3.324   2.242   0.654 -0.8205  0.7324 -1.0315
  445THF    H13 9885   3.379   2.418   0.687 -0.7018  0.5746 -0.3753
  446THF     O1 9886   3.283   4.829   2.554  0.1795  0.1887 -0.7756
  446THF     C2 9887   3.338   4.941   2.487 -0.3355 -0.1412 -0.4464
  446THF     C3 9888   3.380   4.729   2.541  0.1790 -0.5869  0.9155
  446THF     H4 9889   3.411   4.998   2.544  0.2933  0.5523 -1.9063
  446THF     H5 9890   3.262   5.017   2.468 -0.3261 -0.1942 -0.7058
  446THF     H6 9891   3.453   4.746   2.620  1.1682 -0.4006 -0.0045
  446THF     H7 9892   3.353   4.625   2.559 -0.0741 -0.5995  0.4720
  446THF     C8 9893   3.452   4.747   2.397  0.0740 -0.1608 -0.0366
  446THF     C9 9894   3.394   4.881   2.356 -0.1873 -0.4086  0.2937
  446THF    H10 9895   3.415   4.668   2.332 -1.7503  0.0352  0.7055
  446THF    H11 9896   3.559   4.729   2.407  0.0137 -1.1805 -1.0813
  446THF    H12 9897   3.482   4.940   2.330 -0.3113  0.1609  1.1248
  446THF    H13 9898   3.326   4.860   2.274  0.8102  3.4309 -1.7999
  447THF     O1 9899   5.092   4.691   3.028  0.2476 -0.1019 -0.7793
  447THF     C2 9900   5.115   4.627   2.909 -0.0734  0.7476  0.3404
  447THF     C3 9901   5.210   4.678   3.099  0.5522  0.2182  0.1082
  447THF     H4 9902   5.170   4.689   2.838  2.2398 -0.2047  1.2195
  447THF     H5 9903   5.025   4.615   2.848  0.6856  0.7906 -0.8137
  447THF     H6 9904   5.278   4.755   3.063 -0.2288  0.6079 -0.5634
  447THF     H7 9905   5.201   4.682   3.208 -0.8824  1.2208 -0.0281
  447THF     C8 9906   5.268   4.542   3.065 -0.3061  0.1392  0.4217
  447THF     C9 9907   5.191   4.505   2.947  0.9522  1.3513  0.4612
  447THF    H10 9908   5.255   4.470   3.146 -2.0515  0.2119  0.2378
  447THF    H11 9909   5.375   4.548   3.043 -0.1443 -1.8358  0.5082
  447THF    H12 9910   5.257   4.463   2.872 -0.8553 -1.1483  0.1567
  447THF    H13 9911   5.115   4.430   2.970  0.3526  1.2525 -1.5929
  448THF     O1 9912   1.662   3.343   3.687  0.0263  0.0416  0.3351
  448THF     C2 9913   1.747   3.438   3.622 -0.2412  0.2093 -0.1856
  448THF     C3 9914   1.601   3.413   3.798 -0.7052  0.5774  0.3933
  448THF     H4 9915   1.698   3.494   3.542  0.3605 -0.6611 -1.1985
  448THF     H5 9916   1.835   3.384   3.587 -1.1053 -0.6081 -1.1726
  448THF     H6 9917   1.512   3.462   3.759 -1.1140 -0.8534 -0.5392
  448THF     H7 9918   1.566   3.345   3.876 -1.8229 -1.5631 -1.8389
  448THF     C8 9919   1.722   3.497   3.847  0.6334  0.2510  0.6870
  448THF     C9 9920   1.794   3.544   3.719 -0.1019 -0.1777  0.3224
  448THF    H10 9921   1.789   3.433   3.904 -0.6162  0.2205  2.1986
  448THF    H11 9922   1.690   3.573   3.919  2.0721  0.3895  1.2280
  448THF    H12 9923   1.766   3.646   3.693  0.0240  0.0550  1.0801
  448THF    H13 9924   1.901   3.537   3.737 -0.0794 -2.0857 -0.2807
  449THF     O1 9925   5.499   5.378   1.399  0.4057 -0.2063  0.2229
  449THF     C2 9926   5.377   5.436   1.357  0.2427 -0.2340  0.0627
  449THF     C3 9927   5.522   5.275   1.305  0.0479  0.2694  0.0890
  449THF     H4 9928   5.362   5.537   1.395 -3.0281 -0.4422 -0.3722
  449THF     H5 9929   5.292   5.385   1.403  1.6309 -2.3037  0.4570
  449THF     H6 9930   5.629   5.255   1.312 -0.4124 -2.3018  1.0743
  449THF     H7 9931   5.477   5.179   1.329  0.9326 -0.3948 -0.7696
  449THF     C8 9932   5.481   5.332   1.165  0.3194 -0.4846  0.0394
  449THF     C9 9933   5.361   5.422   1.205  0.9035  0.0621 -0.4482
  449THF    H10 9934   5.457   5.251   1.096 -0.2353 -0.5915  0.3507
  449THF    H11 9935   5.564   5.390   1.124  1.4770 -2.2007 -0.1385
  449THF    H12 9936   5.373   5.520   1.159 -0.6215  0.5976  0.2170
  449THF    H13 9937   5.264   5.378   1.180  0.7161  1.6948 -2.8469
  450THF     O1 9938   3.847   0.679   2.749 -0.1820  0.2698  0.0490
  450THF     C2 9939   3.864   0.538   2.740 -0.4231 -0.8155  0.8315
  450THF     C3 9940   3.943   0.726   2.851 -0.0608  0.4842 -0.0034
  450THF     H4 9941   3.956   0.517   2.685  1.4105  0.0292  3.4038
  450THF     H5 9942   3.780   0.497   2.683 -1.1596 -1.6383  2.4448
  450THF     H6 9943   4.032   0.758   2.796  0.1735  0.1282  0.1628
  450THF     H7 9944   3.884   0.807   2.894  0.1529  0.0689  1.1131
  450THF     C8 9945   3.960   0.610   2.946 -0.2468  0.5008  0.1419
  450THF     C9 9946   3.887   0.494   2.879  0.2535  0.4427  0.4825
  450THF    H10 9947   3.909   0.640   3.038 -0.9425  0.5461 -0.2495
  450THF    H11 9948   4.066   0.591   2.960 -0.2292  0.5860  0.1246
  450THF    H12 9949   3.934   0.396   2.883 -0.7527 -0.0112  1.9220
  450THF    H13 9950   3.788   0.485   2.924 -0.4370  0.7213 -0.9250
  451THF     O1 9951   0.958   5.283   3.859 -0.1433 -0.5275  1.1238
  451THF     C2 9952   1.019   5.385   3.783  0.4878 -0.4339 -0.1208
  451THF     C3 9953   1.038   5.172   3.836 -0.1808 -0.2915  0.4337
  451THF     H4 9954   0.993   5.484   3.820  2.4413 -0.1874  0.7166
  451THF     H5 9955   0.985   5.379   3.680  0.6580 -0.2522 -0.1888
  451THF     H6 9956   1.033   5.109   3.926  2.1720 -0.8397  0.2525
  451THF     H7 9957   1.008   5.123   3.743 -1.5299  0.6802  0.3257
  451THF     C8 9958   1.184   5.218   3.823 -0.2539  0.4323  0.1983
  451THF     C9 9959   1.165   5.366   3.808 -0.5807 -0.6616  0.0013
  451THF    H10 9960   1.247   5.178   3.743  1.7626 -0.2073  2.0242
  451THF    H11 9961   1.247   5.197   3.909  1.4575 -1.5922 -1.4229
  451THF    H12 9962   1.194   5.431   3.890  0.8578  1.4619 -2.0625
  451THF    H13 9963   1.222   5.402   3.723 -0.5090  0.1363  0.3738
  452THF     O1 9964   1.842   2.145   2.949  0.8665 -0.3526 -0.2265
  452THF     C2 9965   1.867   2.019   3.009  0.2305  0.7904 -0.7033
  452THF     C3 9966   1.967   2.200   2.934 -0.6123 -0.0130  0.2713
  452THF     H4 9967   1.792   1.944   2.986  0.5261  0.5337 -0.8363
  452THF     H5 9968   1.862   2.037   3.117  2.1863  1.1171 -0.6306
  452THF     H6 9969   1.937   2.280   2.866 -1.0677 -0.9137 -0.6058
  452THF     H7 9970   2.003   2.238   3.030  2.2297 -1.7433  0.0238
  452THF     C8 9971   2.046   2.088   2.871  0.2900 -0.4432  0.0271
  452THF     C9 9972   2.007   1.973   2.968 -0.0386 -0.2843 -0.3479
  452THF    H10 9973   2.154   2.102   2.861  0.0104  1.2130 -1.0786
  452THF    H11 9974   2.019   2.062   2.769  0.9732 -0.4619 -0.1586
  452THF    H12 9975   2.012   1.872   2.926  1.8630 -0.6929  0.7473
  452THF    H13 9976   2.072   1.979   3.055  0.9330 -1.1593 -0.9847
  453THF     O1 9977   3.661   4.867   4.673  0.0502 -0.0426  0.0292
  453THF     C2 9978   3.797   4.885   4.697 -0.4290  0.2768 -0.0833
  453THF     C3 9979   3.609   4.975   4.598  0.9322 -0.5855 -0.3543
  453THF     H4 9980   3.857   4.851   4.612  0.5156  0.5495  0.4616
  453THF     H5 9981   3.828   4.824   4.782  0.8843 -0.7014 -1.2127
  453THF     H6 9982   3.608   4.953   4.491 -0.6415 -0.2781 -0.4321
  453THF     H7 9983   3.506   4.975   4.633  1.1891  1.6280  0.5696
  453THF     C8 9984   3.698   5.091   4.651  0.7409 -0.0013  0.4963
  453THF     C9 9985   3.813   5.028   4.721 -0.1620  0.3994  0.3587
  453THF    H10 9986   3.662   5.166   4.722  0.1306  1.6686 -1.4887
  453THF    H11 9987   3.732   5.144   4.562  0.6949 -0.2083  0.3544
  453THF    H12 9988   3.910   5.061   4.682  0.5529 -0.7959  1.0642
  453THF    H13 9989   3.816   5.035   4.829  3.3902 -1.0104  0.4698
  454THF     O1 9990   2.246   1.227   2.720 -0.0926 -0.5226  0.0412
  454THF     C2 9991   2.312   1.233   2.849  0.1135  0.3618 -0.1355
  454THF     C3 9992   2.187   1.100   2.697  0.2350 -0.2263  0.2853
  454THF     H4 9993   2.332   1.332   2.890 -2.4776  1.4488 -1.2850
  454THF     H5 9994   2.413   1.192   2.847 -0.6336 -1.6000 -0.1465
  454THF     H6 9995   2.085   1.108   2.661  0.4626 -0.8871 -0.5394
  454THF     H7 9996   2.244   1.053   2.617 -0.5618  0.4560 -0.7186
  454THF     C8 9997   2.213   1.020   2.829  0.7402 -0.1231  0.3465
  454THF     C9 9998   2.235   1.133   2.938 -0.3414  0.1418 -0.3250
  454THF    H10 9999   2.309   0.970   2.814  0.0637 -1.0573 -1.0058
  454THF    H1110000   2.137   0.949   2.858 -0.0200  0.2934 -0.5805
  454THF    H1210001   2.134   1.165   2.962 -1.0046 -1.5876 -0.6636
  454THF    H1310002   2.285   1.115   3.033 -2.0047  1.0379  0.7661
  455THF     O110003   3.216   0.506   3.143  0.3659  0.0092  0.0097
  455THF     C210004   3.171   0.509   3.286  0.0334  0.6141 -0.3649
  455THF     C310005   3.303   0.610   3.126  0.3240  0.4983  0.0970
  455THF     H410006   3.254   0.472   3.347 -0.6179  0.0720  0.2153
  455THF     H510007   3.091   0.438   3.307  0.2701 -0.7141 -3.3709
  455THF     H610008   3.403   0.578   3.158 -0.1915 -0.2765  0.9634
  455THF     H710009   3.311   0.640   3.021  1.3171 -0.6386 -0.1767
  455THF     C810010   3.264   0.717   3.219  0.2865  0.5511 -0.2828
  455THF     C910011   3.153   0.658   3.303  0.4774  0.3188 -0.6300
  455THF    H1010012   3.217   0.798   3.164 -3.1378 -0.6101  0.6588
  455THF    H1110013   3.339   0.765   3.283  0.5924  1.2455 -1.1476
  455THF    H1210014   3.164   0.688   3.408  1.7212  3.0732 -1.4645
  455THF    H1310015   3.050   0.676   3.272  0.0979  0.6092  0.7008
  456THF     O110016   2.276   4.845   0.661 -0.4074 -0.3330  0.4747
  456THF     C210017   2.313   4.721   0.706 -0.5679 -0.1700  0.1179
  456THF     C310018   2.321   4.865   0.528  0.0961 -0.6247  0.4780
  456THF     H410019   2.243   4.652   0.658 -2.6901  2.7986 -1.3854
  456THF     H510020   2.310   4.719   0.815  1.4001  1.5812  0.2573
  456THF     H610021   2.233   4.852   0.464 -1.6603 -1.4142  2.8910
  456THF     H710022   2.357   4.966   0.511  0.9181 -1.0627 -0.4780
  456THF     C810023   2.440   4.761   0.515 -0.1551 -0.2523 -1.1943
  456THF     C910024   2.456   4.703   0.651 -0.2050 -0.6755 -0.7335
  456THF    H1010025   2.532   4.790   0.465 -0.4141  0.4169 -1.2903
  456THF    H1110026   2.409   4.682   0.446  0.5570 -1.5405 -0.0903
  456THF    H1210027   2.484   4.598   0.638  2.6080  0.2436 -3.1711
  456THF    H1310028   2.534   4.755   0.707  0.5928 -2.8615  0.2987
  457THF     O110029   3.534   1.274   4.036  0.7698 -0.0043 -0.0619
  457THF     C210030   3.673   1.290   4.037 -0.1349 -0.5192 -0.7176
  457THF     C310031   3.481   1.279   4.168 -0.1049 -0.4384  0.2567
  457THF     H410032   3.687   1.398   4.044 -0.4754 -0.4439 -1.1528
  457THF     H510033   3.729   1.264   3.947  0.1314  0.7607 -0.9432
  457THF     H610034   3.450   1.380   4.197 -3.1174  0.3981 -4.6759
  457THF     H710035   3.388   1.225   4.187 -1.2992  1.5341  0.3715
  457THF     C810036   3.595   1.234   4.261  0.5592 -0.0007  0.0231
  457THF     C910037   3.721   1.230   4.166  0.0758  0.3762 -0.2749
  457THF    H1010038   3.562   1.134   4.287 -0.1297  0.0554 -0.6149
  457THF    H1110039   3.615   1.292   4.351  0.7380  0.3673 -0.2501
  457THF    H1210040   3.805   1.282   4.211  0.2497 -0.7191  0.7278
  457THF    H1310041   3.758   1.128   4.151 -0.5588  0.2289 -0.9182
  458THF     O110042   3.327   0.342   5.282 -0.0801  0.1694 -0.2915
  458THF     C210043   3.203   0.287   5.255  0.2193 -0.1503 -0.1555
  458THF     C310044   3.421   0.231   5.297 -0.9872 -0.5790  0.4440
  458THF     H410045   3.135   0.357   5.207 -0.3290  0.2407  1.1553
  458THF     H510046   3.151   0.239   5.338  1.1738  0.9618  1.1370
  458THF     H610047   3.516   0.255   5.250 -2.4914  0.8689 -2.0636
  458THF     H710048   3.442   0.182   5.392  1.1550 -0.7750 -0.0678
  458THF     C810049   3.356   0.118   5.206  0.3615 -0.6286 -0.3238
  458THF     C910050   3.225   0.180   5.158 -0.2199 -0.6612 -0.0842
  458THF    H1010051   3.339   0.022   5.253  1.4598 -0.1573  1.1289
  458THF    H1110052   3.420   0.100   5.120  0.6039  1.0377 -0.5413
  458THF    H1210053   3.238   0.235   5.065  1.9070 -0.7865  0.1007
  458THF    H1310054   3.146   0.106   5.145 -0.3701 -0.5231  0.0426
  459THF     O110055   3.803   1.811   1.801  0.0979 -0.4496 -0.2007
  459THF     C210056   3.662   1.844   1.775 -0.1945  0.5353 -0.3598
  459THF     C310057   3.809   1.699   1.887  0.2359 -0.0882 -0.3561
  459THF     H410058   3.666   1.918   1.695  0.4417 -0.1017 -0.9300
  459THF     H510059   3.624   1.882   1.870 -0.1931 -1.1914  0.3745
  459THF     H610060   3.910   1.662   1.874  0.2961 -0.2130  0.4472
  459THF     H710061   3.781   1.726   1.989  1.5878  1.7414 -0.4204
  459THF     C810062   3.703   1.611   1.834 -0.0059 -0.2130 -0.2508
  459THF     C910063   3.611   1.702   1.751 -0.5443 -0.1735 -0.4312
  459THF    H1010064   3.651   1.557   1.913  1.8925 -0.1966  1.0821
  459THF    H1110065   3.747   1.535   1.769  1.4255  0.3750 -0.0163
  459THF    H1210066   3.616   1.669   1.648 -4.2689  0.0273 -0.7930
  459THF    H1310067   3.507   1.698   1.782 -0.8591 -1.5520 -1.5780
  460THF     O110068   4.459   1.384   2.813 -0.8187 -0.4554  0.0639
  460THF     C210069   4.347   1.374   2.891  0.1236  0.3328 -0.1444
  460THF     C310070   4.503   1.268   2.750  0.5386 -0.0025  0.0405
  460THF     H410071   4.255   1.378   2.833 -0.8718 -1.4222  1.2240
  460THF     H510072   4.346   1.448   2.970  0.0323  0.3268 -0.1395
  460THF     H610073   4.457   1.264   2.652 -1.1668 -0.6022  0.8249
  460THF     H710074   4.610   1.260   2.729  0.0879  0.6719 -2.8897
  460THF     C810075   4.452   1.165   2.850 -0.5132  1.0125  0.5957
  460THF     C910076   4.358   1.233   2.943 -0.8711  0.5139 -0.1077
  460THF    H1010077   4.539   1.127   2.904 -1.1083 -1.7896 -0.2115
  460THF    H1110078   4.403   1.076   2.810  0.0920  0.4490  1.0757
  460THF    H1210079   4.266   1.187   2.979 -0.6239 -1.0930 -1.4080
  460THF    H1310080   4.412   1.241   3.037  1.3847 -2.5015 -0.9807
  461THF     O110081   3.569   4.595   1.929  0.8789  0.0783  0.5745
  461THF     C210082   3.500   4.533   2.042 -0.1388 -0.3677 -0.2211
  461THF     C310083   3.473   4.588   1.825  0.0408  0.1189 -0.0489
  461THF     H410084   3.543   4.561   2.138 -1.5271 -0.6494  0.4974
  461THF     H510085   3.511   4.425   2.030  0.6461 -0.3488  0.2584
  461THF     H610086   3.515   4.661   1.755 -0.0629 -0.7080 -0.9854
  461THF     H710087   3.475   4.497   1.765 -1.0555 -0.4701  0.7798
  461THF     C810088   3.336   4.618   1.891 -0.3404  0.9189  0.0880
  461THF     C910089   3.364   4.596   2.037 -0.2607  0.7037 -0.2816
  461THF    H1010090   3.263   4.547   1.851 -0.2562  1.5126 -1.1687
  461THF    H1110091   3.302   4.718   1.865 -2.6627  0.4947  1.2468
  461THF    H1210092   3.367   4.695   2.081 -1.0264  0.6930 -0.1912
  461THF    H1310093   3.285   4.544   2.091 -1.5945 -0.0024 -2.7193
  462THF     O110094   1.035   0.599   2.882  0.4478  0.3389 -0.0263
  462THF     C210095   1.048   0.576   2.742 -0.1858 -0.5831  0.1241
  462THF     C310096   1.038   0.481   2.949  0.3998  0.2344 -0.3177
  462THF     H410097   1.071   0.666   2.686  0.0096 -2.1306 -2.4481
  462THF     H510098   0.956   0.536   2.699 -0.2549 -1.2831  0.8811
  462THF     H610099   1.071   0.487   3.053 -0.2443  0.7424 -0.1331
  462THF     H710100   0.934   0.448   2.949  0.2756  0.5149 -2.2274
  462THF     C810101   1.132   0.390   2.864 -0.3325  1.1381  0.6915
  462THF     C910102   1.159   0.476   2.748 -0.4280  0.3022  0.1461
  462THF    H1010103   1.073   0.303   2.832  0.9346 -0.5778  2.7470
  462THF    H1110104   1.223   0.359   2.915  1.0057  3.6147 -0.0441
  462THF    H1210105   1.251   0.534   2.761  0.6026 -1.5370  1.4233
  462THF    H1310106   1.163   0.427   2.650 -2.4516 -0.2727  0.3023
  463THF     O110107   3.938   4.963   3.365 -0.3601  0.3316  0.1703
  463THF     C210108   4.002   5.074   3.422  0.0885  0.5178  0.3838
  463THF     C310109   3.974   4.947   3.239 -0.0904 -0.4159  0.1924
  463THF     H410110   4.103   5.039   3.445 -0.6856 -1.3346  1.1502
  463THF     H510111   3.953   5.115   3.510 -0.2679  0.1508  0.3603
  463THF     H610112   4.078   4.913   3.239  0.1728  0.2211 -1.9788
  463THF     H710113   3.908   4.881   3.183  0.2949  1.9059 -3.2651
  463THF     C810114   3.973   5.093   3.183  0.1186 -0.2532  0.3409
  463THF     C910115   4.014   5.171   3.305  1.0162 -0.2341 -0.9138
  463THF    H1010116   3.873   5.124   3.153  0.0186 -0.9010 -0.0265
  463THF    H1110117   4.039   5.102   3.097 -0.7705  1.3472 -0.2052
  463THF    H1210118   4.111   5.219   3.312  1.6862 -1.7281  1.5993
  463THF    H1310119   3.944   5.251   3.331  0.5702 -1.4357  2.0932
  464THF     O110120   0.149   2.538   2.611  0.5003  0.0183 -0.2512
  464THF     C210121   0.084   2.664   2.644 -0.8376  0.3194  0.4004
  464THF     C310122   0.222   2.495   2.721 -0.1318  0.0489  0.6006
  464THF     H410123  -0.008   2.674   2.585 -1.6034  0.7406  1.6222
  464THF     H510124   0.150   2.744   2.608  1.3728 -1.5464  0.1001
  464THF     H610125   0.264   2.395   2.719  1.6797  0.7750 -0.8541
  464THF     H710126   0.308   2.562   2.733 -1.0241  1.3769 -0.2207
  464THF     C810127   0.135   2.514   2.837  1.1063 -0.0716 -0.4279
  464THF     C910128   0.053   2.641   2.797  0.0033  0.1944  0.1321
  464THF    H1010129   0.181   2.535   2.933 -2.1477 -2.7977  1.9208
  464THF    H1110130   0.069   2.430   2.857  2.7038 -0.7578  2.3884
  464THF    H1210131  -0.055   2.632   2.810  0.3888 -1.4367  3.0290
  464THF    H1310132   0.083   2.721   2.865 -0.5406  0.4419  0.0876
  465THF     O110133   4.655   1.524   0.706  0.5810 -0.4264  0.6208
  465THF     C210134   4.693   1.425   0.612 -0.3329  0.2340  0.1962
  465THF     C310135   4.514   1.536   0.703 -0.2819  0.1023  0.0725
  465THF     H410136   4.698   1.326   0.657  0.8460  0.2247  0.0718
  465THF     H510137   4.790   1.445   0.568 -0.7045  0.9958 -0.2997
  465THF     H610138   4.472   1.445   0.747 -0.2964 -0.4276 -1.0207
  465THF     H710139   4.483   1.621   0.763 -0.9471 -1.3170  1.8620
  465THF     C810140   4.492   1.550   0.552 -0.4407  0.2422  0.2924
  465THF     C910141   4.586   1.442   0.495 -1.3844 -0.0890  0.1187
  465THF    H1010142   4.528   1.643   0.509 -1.0013 -0.2551 -1.3412
  465THF    H1110143   4.385   1.548   0.532 -0.5837  0.7800  0.9604
  465THF    H1210144   4.551   1.347   0.453 -1.1001 -0.4328  0.6497
  465THF    H1310145   4.638   1.482   0.407  0.4541 -3.0956 -0.3165
  466THF     O110146   0.810   0.374   1.086  0.1203  0.1884 -0.3406
  466THF     C210147   0.709   0.423   0.998  0.9958  0.3918  0.3671
  466THF     C310148   0.739   0.342   1.212 -0.4038  0.0405  0.6397
  466THF     H410149   0.654   0.335   0.965 -1.5313  1.3461  1.7277
  466THF     H510150   0.745   0.484   0.915  0.9858 -0.4555 -0.2704
  466THF     H610151   0.691   0.244   1.210 -3.1876  1.2667  1.8307
  466THF     H710152   0.807   0.336   1.297 -0.4514 -0.9563  0.6133
  466THF     C810153   0.621   0.443   1.213  0.5499 -0.2384 -0.5861
  466THF     C910154   0.621   0.508   1.076 -0.1346  0.6520 -0.7350
  466THF    H1010155   0.628   0.520   1.290  0.7744  0.3058 -1.1436
  466THF    H1110156   0.532   0.381   1.225 -0.8598  0.9542 -3.8845
  466THF    H1210157   0.525   0.510   1.024  0.1930 -0.3245 -1.4072
  466THF    H1310158   0.646   0.614   1.075 -0.0700  0.6481 -2.3802
  467THF     O110159   3.411   5.466   0.369  0.7900 -0.0080  0.5656
  467THF     C210160   3.527   5.406   0.423  0.7417  0.0606  0.6423
  467THF     C310161   3.437   5.486   0.232 -0.2385  0.2707 -0.5097
  467THF     H410162   3.510   5.355   0.518  2.1178  0.2377  1.0063
  467THF     H510163   3.604   5.478   0.449  1.4466 -0.5362  0.2461
  467THF     H610164   3.352   5.522   0.174 -0.4847  0.7468  0.1346
  467THF     H710165   3.507   5.569   0.226  0.7606 -0.5376 -0.3623
  467THF     C810166   3.498   5.353   0.185 -0.1322  0.0251 -0.2986
  467THF     C910167   3.586   5.319   0.310  0.1401  0.2115 -0.4031
  467THF    H1010168   3.544   5.353   0.086  0.9547 -1.1611  0.1812
  467THF    H1110169   3.420   5.277   0.182  0.4409 -0.7047  1.6255
  467THF    H1210170   3.600   5.215   0.341 -1.4357  0.2737  0.6315
  467THF    H1310171   3.684   5.362   0.294 -0.2988  1.1848 -0.5525
  468THF     O110172   1.680   4.601   3.470 -0.2715 -1.2384  0.1732
  468THF     C210173   1.593   4.674   3.551  0.3082  0.3750 -0.0726
  468THF     C310174   1.679   4.659   3.340 -0.5347 -0.5260  0.6489
  468THF     H410175   1.658   4.752   3.592  0.9687 -1.1953  2.0824
  468THF     H510176   1.556   4.612   3.633 -0.5095  0.9438 -0.0071
  468THF     H610177   1.772   4.710   3.317 -1.3772  0.9274  0.3621
  468THF     H710178   1.670   4.577   3.268 -1.0561 -2.2802  2.6097
  468THF     C810179   1.560   4.756   3.326  0.0772 -0.3283 -0.5711
  468THF     C910180   1.485   4.716   3.457 -0.8959  0.3608 -0.3766
  468THF    H1010181   1.484   4.751   3.248 -0.1772 -1.7143 -0.2710
  468THF    H1110182   1.592   4.860   3.337  1.3826 -0.8692  1.2515
  468THF    H1210183   1.428   4.801   3.494  0.0818  1.4009 -1.1735
  468THF    H1310184   1.421   4.630   3.436  1.2003 -1.3553 -0.0754
  469THF     O110185   2.324   4.253   5.323 -0.7654 -0.4059 -0.4395
  469THF     C210186   2.194   4.300   5.302  0.5277 -0.1995  0.5163
  469THF     C310187   2.337   4.151   5.413 -0.0694  0.6142  0.0299
  469THF     H410188   2.169   4.286   5.196  0.7246 -1.1138  0.5769
  469THF     H510189   2.173   4.404   5.324  0.1122 -0.1303 -0.1713
  469THF     H610190   2.409   4.079   5.373 -2.0750 -1.3835 -0.1568
  469THF     H710191   2.374   4.192   5.506  0.9401  0.6053 -0.3554
  469THF     C810192   2.201   4.091   5.411  0.1020  0.2697  0.7961
  469THF     C910193   2.112   4.213   5.397 -0.6552 -0.9972 -0.1663
  469THF    H1010194   2.172   4.034   5.499  1.9509 -0.2203  1.1383
  469THF    H1110195   2.197   4.021   5.327  1.0853  1.8508 -0.6258
  469THF    H1210196   2.011   4.182   5.371 -0.7203 -0.9297  0.0048
  469THF    H1310197   2.101   4.257   5.496  0.6809  0.6427 -0.7104
  470THF     O110198   0.493   1.939   0.391  0.1689 -0.4039 -0.4463
  470THF     C210199   0.560   1.826   0.402 -0.8695 -0.1810  0.2090
  470THF     C310200   0.435   1.966   0.515  0.4594  0.2776  0.0713
  470THF     H410201   0.668   1.823   0.385 -0.8561 -0.8159  0.3836
  470THF     H510202   0.515   1.778   0.315  1.0375 -1.0063 -0.3881
  470THF     H610203   0.505   2.017   0.581  0.2085  0.9785 -0.2034
  470THF     H710204   0.350   2.033   0.505 -1.4770 -2.3457 -2.9942
  470THF     C810205   0.401   1.831   0.581 -0.0819  0.2286  0.1766
  470THF     C910206   0.512   1.746   0.526  0.3225  0.1328  0.6081
  470THF    H1010207   0.310   1.783   0.543 -0.5898  1.2153  0.1100
  470THF    H1110208   0.399   1.827   0.690  2.3677  0.1793  0.2725
  470THF    H1210209   0.596   1.734   0.594 -0.3680 -0.6236  1.3369
  470THF    H1310210   0.487   1.644   0.498  1.5112  0.5489 -2.3380
  471THF     O110211   4.978   4.416   0.504 -0.2002 -0.6548  0.0330
  471THF     C210212   4.962   4.528   0.584 -0.1554 -0.3725  0.3080
  471THF     C310213   4.981   4.300   0.589  0.2995 -0.2293  0.1112
  471THF     H410214   4.857   4.552   0.602  0.0913  0.3975  0.7438
  471THF     H510215   5.017   4.611   0.541 -1.2618 -0.1303 -0.7009
  471THF     H610216   4.883   4.251   0.585 -0.3442  1.0847 -1.1365
  471THF     H710217   5.055   4.240   0.536  0.7113 -0.1219  0.5612
  471THF     C810218   5.020   4.350   0.728  0.1944 -0.4993  0.3403
  471THF     C910219   5.023   4.504   0.720 -0.6119  0.0035 -0.1493
  471THF    H1010220   5.122   4.319   0.752  0.0479  0.1980  1.9403
  471THF    H1110221   4.944   4.327   0.802 -2.1827 -0.6772 -1.9813
  471THF    H1210222   4.973   4.573   0.788 -1.9165  0.4599 -1.4968
  471THF    H1310223   5.125   4.542   0.715  0.0698 -1.8778 -2.4518
  472THF     O110224   4.344   3.131   3.683  0.6402  0.0237 -0.3552
  472THF     C210225   4.345   3.170   3.546 -0.0630 -0.3776 -0.2027
  472THF     C310226   4.232   3.044   3.709 -0.0167 -0.1209  0.2917
  472THF     H410227   4.445   3.199   3.516 -0.4607 -1.0893 -2.4711
  472THF     H510228   4.266   3.243   3.530 -1.4054 -1.3970  1.4853
  472THF     H610229   4.237   2.983   3.799  0.6986 -0.1122  0.2605
  472THF     H710230   4.145   3.109   3.724  0.2207  0.3443 -0.3182
  472THF     C810231   4.213   2.977   3.574  0.1657 -0.3696 -0.7917
  472THF     C910232   4.302   3.045   3.476  0.6892  0.0007 -0.0487
  472THF    H1010233   4.108   2.987   3.543 -0.5642 -1.4315  1.1690
  472THF    H1110234   4.238   2.871   3.576  1.1358 -0.1447  0.3789
  472THF    H1210235   4.392   2.985   3.464  0.1637 -0.6960 -0.6383
  472THF    H1310236   4.265   3.055   3.374  0.6967 -1.2995 -0.1931
  473THF     O110237   4.617   3.486   0.588  0.1949 -0.7199 -0.4204
  473THF     C210238   4.490   3.555   0.586 -0.8372  0.4512 -0.6359
  473THF     C310239   4.586   3.343   0.578  0.2711  0.1460 -0.2356
  473THF     H410240   4.501   3.660   0.561  0.7855  0.0302 -1.9296
  473THF     H510241   4.451   3.544   0.687  0.3954 -0.7402 -0.2456
  473THF     H610242   4.670   3.296   0.527  1.4290  1.3267  0.5158
  473THF     H710243   4.566   3.296   0.674  0.7892  1.8565  0.7475
  473THF     C810244   4.452   3.331   0.504  0.1609  0.1587 -0.3075
  473THF     C910245   4.426   3.479   0.471  0.4186  0.5627  0.3970
  473THF    H1010246   4.370   3.298   0.568 -0.3908  0.6962 -0.7324
  473THF    H1110247   4.453   3.252   0.428  0.0281 -0.2917  0.1531
  473THF    H1210248   4.473   3.506   0.376 -1.4458  1.2797 -0.3809
  473THF    H1310249   4.322   3.507   0.454  0.2797 -1.3223 -2.5809
  474THF     O110250   0.580   1.307   3.134 -0.3558 -0.1491 -0.0648
  474THF     C210251   0.559   1.339   2.999 -0.5910 -0.2322  0.0511
  474THF     C310252   0.466   1.344   3.199 -0.7306  0.1198 -0.5654
  474THF     H410253   0.632   1.282   2.942  0.6299  1.2933  0.0580
  474THF     H510254   0.581   1.445   2.993 -0.1358 -0.3104  0.2639
  474THF     H610255   0.437   1.268   3.271 -0.8307  0.3684 -0.3385
  474THF     H710256   0.462   1.443   3.245  0.7707  1.0310 -2.2792
  474THF     C810257   0.353   1.319   3.098 -0.6602 -0.3362  0.4915
  474THF     C910258   0.424   1.294   2.970  0.2109 -0.8395  0.5331
  474THF    H1010259   0.279   1.398   3.091  1.5265  1.8912  1.0997
  474THF    H1110260   0.309   1.226   3.134 -0.1733  0.2553  2.8281
  474THF    H1210261   0.427   1.187   2.948 -1.0585 -0.5017 -1.4971
  474THF    H1310262   0.387   1.353   2.887  0.4180 -0.1419  0.9341
  475THF     O110263   0.285   3.891   0.058 -0.8291 -0.6498 -0.4806
  475THF     C210264   0.291   3.920   0.197 -0.7476  0.4425 -0.5731
  475THF     C310265   0.365   3.781   0.021 -0.0565  0.4732  0.1437
  475THF     H410266   0.210   3.985   0.232  0.4700  0.8219  1.7045
  475THF     H510267   0.386   3.964   0.226  0.7369 -1.3839 -2.4181
  475THF     H610268   0.337   3.730  -0.071  4.3549  0.3508 -1.3629
  475THF     H710269   0.468   3.814   0.009  0.4966 -0.6232  1.5024
  475THF     C810270   0.345   3.696   0.148  0.4570 -0.3261  0.2138
  475THF     C910271   0.288   3.782   0.257  0.5507  0.4249 -0.1131
  475THF    H1010272   0.440   3.658   0.185 -0.1403 -1.1687  0.9127
  475THF    H1110273   0.278   3.614   0.121 -1.3745  1.5543 -1.3199
  475THF    H1210274   0.193   3.740   0.288  2.6404 -2.4077  3.2975
  475THF    H1310275   0.350   3.785   0.347  1.2032 -2.2478 -0.3824
  476THF     O110276   4.673   1.587   2.492 -0.2101 -0.1755  0.2021
  476THF     C210277   4.633   1.718   2.430  0.5914 -0.0308 -0.2076
  476THF     C310278   4.605   1.480   2.434  0.4493  0.4825 -0.0195
  476THF     H410279   4.719   1.783   2.416 -0.1211  0.8990 -0.3001
  476THF     H510280   4.557   1.771   2.487  1.2729  1.6808 -0.8413
  476THF     H610281   4.662   1.387   2.426 -0.8585 -0.4281  0.7784
  476THF     H710282   4.510   1.462   2.484  1.6710  0.7600  2.5476
  476THF     C810283   4.583   1.535   2.290  0.1279  0.3264  0.0361
  476THF     C910284   4.561   1.684   2.298  0.5700  0.0575 -0.1557
  476THF    H1010285   4.501   1.481   2.243  1.8506 -2.6928  0.2506
  476THF    H1110286   4.668   1.509   2.227  0.3619  0.3418  0.3407
  476THF    H1210287   4.607   1.735   2.214  0.7253 -0.4486 -0.3836
  476THF    H1310288   4.455   1.708   2.297  0.1657 -1.5984 -1.5341
  477THF     O110289   5.017   1.585   5.162 -0.9403  0.6043 -0.0029
  477THF     C210290   4.919   1.483   5.179  0.1489  0.9086 -0.7888
  477THF     C310291   5.103   1.533   5.065  1.3054  0.1303  0.3943
  477THF     H410292   4.828   1.511   5.233  0.0043 -1.0723  0.0583
  477THF     H510293   4.948   1.402   5.246 -1.4130  0.9292 -0.0492
  477THF     H610294   5.153   1.618   5.018  0.5633  0.5486  0.3479
  477THF     H710295   5.173   1.460   5.105  0.5670 -0.3394  0.8448
  477THF     C810296   5.005   1.458   4.964 -0.0175  0.1434  0.0373
  477THF     C910297   4.885   1.431   5.044 -0.0650 -0.5142 -0.5219
  477THF    H1010298   5.046   1.366   4.923 -1.0799  0.2196 -1.2753
  477THF    H1110299   4.991   1.530   4.882  3.3245 -0.2240 -1.0085
  477THF    H1210300   4.794   1.472   5.001 -0.9626 -1.8654  0.0253
  477THF    H1310301   4.869   1.324   5.052  1.1481 -0.6676  0.2058
  478THF     O110302   3.847   2.830   0.472  0.1324  0.3654 -0.6634
  478THF     C210303   3.772   2.712   0.462  0.4888  0.5325  0.1338
  478THF     C310304   3.815   2.891   0.599  0.3758  0.1432  0.3523
  478THF     H410305   3.827   2.626   0.501 -0.3992 -0.7020 -1.2349
  478THF     H510306   3.727   2.693   0.365  0.5041  0.9950  0.0370
  478THF     H610307   3.875   2.833   0.669  1.2860 -0.2873 -0.7436
  478THF     H710308   3.854   2.993   0.608 -1.4717  0.9835 -0.5778
  478THF     C810309   3.665   2.884   0.595  0.1115  0.8305  0.3216
  478THF     C910310   3.656   2.731   0.562  0.8174 -1.0104  0.0192
  478THF    H1010311   3.643   2.940   0.503 -0.0767  1.2572  0.6203
  478THF    H1110312   3.603   2.910   0.681 -0.2630 -0.3526  0.4175
  478THF    H1210313   3.659   2.672   0.653  1.5310 -0.4691  0.3556
  478THF    H1310314   3.557   2.729   0.517  0.3075 -0.7118  1.0920
  479THF     O110315   0.206   0.263   1.206  0.5232  0.2044  0.3481
  479THF     C210316   0.067   0.262   1.222 -0.0454 -0.5648  0.0008
  479THF     C310317   0.241   0.221   1.076  0.2977  0.0048  0.4790
  479THF     H410318   0.029   0.327   1.301 -0.5812  0.5165 -1.1069
  479THF     H510319   0.033   0.163   1.252 -2.0569 -0.7066 -2.3526
  479THF     H610320   0.342   0.248   1.044 -0.4015  0.7120 -1.2664
  479THF     H710321   0.244   0.112   1.076  1.6346 -0.0208 -1.5125
  479THF     C810322   0.138   0.286   0.984  0.5339  0.3730 -0.6408
  479THF     C910323   0.017   0.293   1.071  0.6859 -0.0712 -0.3718
  479THF    H1010324   0.125   0.234   0.889 -3.0668 -0.5398  0.2134
  479THF    H1110325   0.178   0.384   0.960  1.6732 -0.1016 -0.7644
  479THF    H1210326  -0.036   0.388   1.062 -1.3075 -1.2760 -2.4547
  479THF    H1310327  -0.050   0.216   1.032 -0.9775 -0.4509  2.9004
  480THF     O110328   4.803   0.587   2.982  0.2196 -0.4532  0.9358
  480THF     C210329   4.702   0.686   2.999  0.9933 -0.4696  0.7810
  480THF     C310330   4.760   0.465   3.026 -0.0208  0.1988 -0.0271
  480THF     H410331   4.698   0.771   2.932  2.0531 -0.9793  0.0416
  480THF     H510332   4.719   0.723   3.100  0.1154 -0.6446  1.0020
  480THF     H610333   4.810   0.384   2.974  0.4005  1.5249 -1.7916
  480THF     H710334   4.759   0.448   3.133  0.5835  0.5729  0.0427
  480THF     C810335   4.617   0.457   2.979 -0.5192  0.1850 -0.2891
  480THF     C910336   4.572   0.605   2.988  0.8875 -0.0993  0.3312
  480THF    H1010337   4.557   0.380   3.029  0.9817 -1.1455 -0.4339
  480THF    H1110338   4.610   0.434   2.872 -0.6972 -0.0898 -0.2197
  480THF    H1210339   4.499   0.634   2.913  1.3503 -1.8311 -0.8507
  480THF    H1310340   4.512   0.619   3.078 -0.5694  0.7758 -0.7459
  481THF     O110341   4.234   3.967   1.642 -0.0009 -0.0901  0.5250
  481THF     C210342   4.149   4.046   1.729  0.2665 -0.2806  0.2688
  481THF     C310343   4.215   4.021   1.516  0.1219  0.3832 -0.1348
  481THF     H410344   4.187   4.146   1.748 -0.2234 -0.3914  1.9294
  481THF     H510345   4.136   3.994   1.823 -0.6435  1.8577  1.3837
  481THF     H610346   4.275   4.111   1.503  1.1248  0.2602  2.8725
  481THF     H710347   4.241   3.952   1.435 -1.7176 -2.3183  1.4360
  481THF     C810348   4.069   4.047   1.507  0.3098  0.6455  0.0114
  481THF     C910349   4.017   4.062   1.651  0.2805  0.3388 -1.3493
  481THF    H1010350   4.014   3.961   1.469 -0.2606  0.0044  2.1557
  481THF    H1110351   4.042   4.125   1.436  0.4216  0.3231 -0.3897
  481THF    H1210352   3.955   4.147   1.679  1.0093  0.3339  0.4454
  481THF    H1310353   3.959   3.976   1.686 -0.1501  1.0619 -0.2243
  482THF     O110354   4.628   3.018   4.714 -0.2762  0.3613  0.2010
  482THF     C210355   4.538   2.977   4.607 -0.4705 -0.2107 -0.1012
  482THF     C310356   4.548   3.097   4.794 -0.1574  0.3796  0.8836
  482THF     H410357   4.577   2.894   4.549 -1.5340  0.5688 -2.0429
  482THF     H510358   4.532   3.063   4.539  0.0409 -0.9369 -1.0827
  482THF     H610359   4.589   3.091   4.895  1.5848 -1.0591  0.1378
  482THF     H710360   4.568   3.199   4.760  0.4421 -0.3592 -1.1053
  482THF     C810361   4.402   3.054   4.781  0.2579  0.1306 -0.1298
  482THF     C910362   4.400   2.952   4.675 -0.0819  0.0400 -0.2030
  482THF    H1010363   4.347   3.145   4.755  0.7136  0.9810  1.7403
  482THF    H1110364   4.356   3.016   4.872 -2.0587 -0.6592 -1.5403
  482THF    H1210365   4.396   2.847   4.707  1.3058 -0.4627 -1.5926
  482THF    H1310366   4.323   2.964   4.599  1.9237  2.0231 -2.0410
  483THF     O110367   3.246   1.144   3.449  0.1942 -0.3684  0.3421
  483THF     C210368   3.106   1.136   3.431  0.2354  0.1985  0.9671
  483THF     C310369   3.321   1.109   3.334 -0.5344  0.8476  0.1478
  483THF     H410370   3.047   1.222   3.400 -0.7673 -0.7358  0.1738
  483THF     H510371   3.049   1.090   3.511 -1.5237 -0.0630 -0.3672
  483THF     H610372   3.398   1.184   3.313  0.6772 -0.2253  0.6300
  483THF     H710373   3.374   1.019   3.367  0.6717  0.3717 -2.7495
  483THF     C810374   3.211   1.083   3.234 -0.4300  1.0075 -0.0125
  483THF     C910375   3.112   1.024   3.327  0.1745  0.4392 -0.7237
  483THF    H1010376   3.259   1.010   3.168  0.6013  0.3978  1.3499
  483THF    H1110377   3.177   1.176   3.188 -3.1027 -0.1888 -0.6839
  483THF    H1210378   3.019   0.990   3.280  0.3103  0.3647 -0.9384
  483THF    H1310379   3.142   0.933   3.378 -1.7691 -0.1440 -0.5309
  484THF     O110380   5.264   1.674   4.488 -0.0434  0.1021  0.2510
  484THF     C210381   5.211   1.628   4.611 -0.5941  0.3515  0.4492
  484THF     C310382   5.252   1.814   4.472 -0.0129  0.4938  0.2841
  484THF     H410383   5.279   1.557   4.659  3.2399  2.0602 -2.0110
  484THF     H510384   5.126   1.562   4.593 -0.5133 -0.4392  2.6199
  484THF     H610385   5.352   1.852   4.495 -0.9392  2.9479  0.5498
  484THF     H710386   5.235   1.839   4.367  0.0242 -0.0171  0.1500
  484THF     C810387   5.155   1.859   4.573 -0.1355 -0.9014  0.3382
  484THF     C910388   5.190   1.758   4.686  0.6056  0.0156  0.0590
  484THF    H1010389   5.051   1.864   4.541  0.1720  0.2472 -0.5505
  484THF    H1110390   5.178   1.950   4.629  0.6607 -2.7216  3.2132
  484THF    H1210391   5.282   1.782   4.740  0.4690  1.0710 -0.1549
  484THF    H1310392   5.104   1.741   4.750 -0.0582  0.7737 -0.6072
  485THF     O110393   0.912   1.395   3.794 -0.8452  0.1471 -0.0746
  485THF     C210394   1.000   1.310   3.869 -0.2354  0.2634 -0.2020
  485THF     C310395   0.807   1.416   3.880  0.4013 -0.2830 -0.0850
  485THF     H410396   1.097   1.295   3.821 -0.8499 -1.4593 -0.9793
  485THF     H510397   0.952   1.213   3.884  0.8405 -0.8943 -3.3423
  485THF     H610398   0.740   1.489   3.834 -0.5911 -1.4642 -0.5709
  485THF     H710399   0.752   1.323   3.893  0.6924 -0.3013  1.1451
  485THF     C810400   0.873   1.466   4.005 -0.2789 -0.3909 -0.1716
  485THF     C910401   1.005   1.392   4.000 -0.3373  0.8033 -0.4321
  485THF    H1010402   0.813   1.441   4.092 -0.0641 -2.7779 -0.6389
  485THF    H1110403   0.874   1.575   4.001 -0.9832 -0.4012 -1.1458
  485THF    H1210404   1.088   1.462   4.008  0.9382 -0.8469  2.2699
  485THF    H1310405   1.010   1.317   4.079 -0.8539  1.2424  0.0257
  486THF     O110406   0.295   2.427   1.435  0.2224 -0.2141 -0.3427
  486THF     C210407   0.348   2.305   1.380  0.9513  0.5733  0.8928
  486THF     C310408   0.300   2.536   1.340 -0.2054  0.3605 -0.0342
  486THF     H410409   0.271   2.228   1.385 -0.8859  2.2983  0.2335
  486THF     H510410   0.431   2.264   1.437  0.2334 -2.5118 -0.0815
  486THF     H610411   0.201   2.557   1.301 -0.3863 -0.1407  0.1508
  486THF     H710412   0.341   2.631   1.373  2.1195  0.0820 -1.8314
  486THF     C810413   0.387   2.481   1.225 -0.5483  0.0698 -0.5212
  486THF     C910414   0.389   2.337   1.242  0.2002 -0.5200 -0.4454
  486THF    H1010415   0.488   2.520   1.231  0.1881 -1.9470  1.6483
  486THF    H1110416   0.353   2.507   1.125  0.8079  2.3583 -0.4683
  486THF    H1210417   0.317   2.293   1.174  1.1777 -0.6312 -1.4418
  486THF    H1310418   0.481   2.293   1.203  0.9849  0.2213  0.5013
  487THF     O110419   4.190   0.698   1.311  0.6532  0.7715 -0.0998
  487THF     C210420   4.072   0.748   1.247  0.0089  0.6406 -0.0712
  487THF     C310421   4.289   0.682   1.214 -0.1421  0.1502  0.3356
  487THF     H410422   4.005   0.808   1.308 -0.8080 -1.3368  1.0831
  487THF     H510423   4.005   0.671   1.207 -0.5457  1.3672 -0.5716
  487THF     H610424   4.380   0.730   1.250  0.4378 -1.9318  1.8496
  487THF     H710425   4.319   0.577   1.204  1.4204  0.4626  1.4470
  487THF     C810426   4.239   0.742   1.084  0.0451  0.2567  0.0726
  487THF     C910427   4.120   0.827   1.125 -0.0851  0.0846  0.5806
  487THF    H1010428   4.209   0.667   1.010  1.0931  0.3182 -0.4267
  487THF    H1110429   4.318   0.792   1.028 -0.2388  0.5601 -0.0644
  487THF    H1210430   4.167   0.922   1.151  2.5506 -0.9796  0.0605
  487THF    H1310431   4.059   0.845   1.037  0.7685 -2.1212 -0.5550
  488THF     O110432   1.007   2.609   2.169 -0.2273 -0.4715  0.1758
  488THF     C210433   0.992   2.737   2.119  0.6435 -0.6442  0.0910
  488THF     C310434   0.888   2.530   2.143  0.2530  0.1029 -0.3787
  488THF     H410435   1.064   2.761   2.040  0.0416  0.4554 -0.1462
  488THF     H510436   1.011   2.810   2.198  2.5510  0.5838 -1.4007
  488THF     H610437   0.889   2.485   2.044  1.5725  1.5874 -1.0902
  488THF     H710438   0.870   2.444   2.207 -1.3483  0.5390 -0.2016
  488THF     C810439   0.782   2.637   2.156 -0.0635  0.0260  0.3257
  488THF     C910440   0.844   2.739   2.070  0.5356 -0.4346  0.1115
  488THF    H1010441   0.760   2.669   2.258 -3.4131 -1.9847  0.3884
  488THF    H1110442   0.695   2.596   2.106 -0.6247  1.3621  0.1808
  488THF    H1210443   0.832   2.699   1.969  0.2196  0.7630 -0.3488
  488THF    H1310444   0.792   2.835   2.081  0.2560 -0.2429 -2.3301
  489THF     O110445   4.992   4.158   0.139 -0.3795 -0.9400  0.0508
  489THF     C210446   4.947   4.257   0.052  0.1147 -0.4106 -0.1103
  489THF     C310447   5.103   4.081   0.080 -0.2163 -0.4532 -0.3704
  489THF     H410448   4.919   4.346   0.108  0.9944 -0.9407  1.2108
  489THF     H510449   4.860   4.229  -0.009  0.8882  1.1862 -2.0358
  489THF     H610450   5.196   4.076   0.135  0.1169  1.4124 -0.6745
  489THF     H710451   5.073   3.977   0.068 -0.2978 -0.3046 -1.6434
  489THF     C810452   5.131   4.162  -0.052  0.9473  0.4911 -0.1067
  489THF     C910453   5.056   4.292  -0.047  0.2890  0.0202 -0.5458
  489THF    H1010454   5.086   4.094  -0.125 -0.8088  1.6022 -0.1286
  489THF    H1110455   5.234   4.174  -0.085  1.7242 -0.0669  1.9867
  489THF    H1210456   5.108   4.371   0.007  0.1277 -0.2775  0.0608
  489THF    H1310457   5.023   4.324  -0.146 -2.0978 -1.1255 -0.1923
  490THF     O110458   4.856   4.931   3.152  0.5077 -0.4323  0.2655
  490THF     C210459   4.952   4.961   3.246 -0.0352  0.0002  0.0356
  490THF     C310460   4.877   5.013   3.043 -0.1429  0.0311 -0.3716
  490THF     H410461   4.987   4.860   3.267  0.1401 -0.5075 -2.3837
  490THF     H510462   4.910   5.002   3.338 -0.5997  1.5887 -0.8961
  490THF     H610463   4.844   4.965   2.951 -0.1605  0.3233 -0.5171
  490THF     H710464   4.811   5.099   3.043 -0.5805 -0.2836 -1.8541
  490THF     C810465   5.023   5.049   3.029 -0.0465  0.2430  0.1809
  490THF     C910466   5.047   5.067   3.174 -0.1471 -0.0547 -0.2741
  490THF    H1010467   5.043   5.138   2.969  1.0663  0.7935  1.3275
  490THF    H1110468   5.074   4.961   2.991 -0.0592  0.8958 -1.4389
  490THF    H1210469   5.153   5.067   3.200 -0.3091  2.2284  0.6098
  490THF    H1310470   5.007   5.167   3.190 -1.5647 -0.4248 -1.4003
  491THF     O110471   0.625   2.052   1.354  0.6952  0.8717 -0.4828
  491THF     C210472   0.611   1.947   1.271 -0.6469 -0.0950  0.3409
  491THF     C310473   0.580   2.022   1.486 -0.4910  0.3284  0.3742
  491THF     H410474   0.701   1.889   1.295 -0.7762 -0.2348  0.4907
  491THF     H510475   0.608   1.975   1.166  1.7018  1.1136  0.5379
  491THF     H610476   0.657   1.970   1.542  0.5208  0.6144 -0.7060
  491THF     H710477   0.565   2.115   1.541  1.5146  1.4360 -0.8165
  491THF     C810478   0.456   1.934   1.460 -0.6268 -0.2473  0.2945
  491THF     C910479   0.474   1.881   1.323 -0.4704  0.6839  0.9987
  491THF    H1010480   0.364   1.992   1.462  0.5379  1.6814  2.5622
  491THF    H1110481   0.443   1.855   1.534  0.0446 -0.2263  0.4376
  491THF    H1210482   0.465   1.772   1.330  0.7338  0.5598  0.9031
  491THF    H1310483   0.394   1.903   1.253  1.7372 -0.5414 -2.1289
  492THF     O110484   2.493   2.826   2.535  0.1192  0.3355  0.3543
  492THF     C210485   2.444   2.803   2.665 -0.1598 -0.5615 -0.7596
  492THF     C310486   2.451   2.708   2.464 -0.2384 -0.0396 -0.1033
  492THF     H410487   2.335   2.809   2.671 -0.2370 -0.8401 -1.6347
  492THF     H510488   2.487   2.870   2.739  1.7430 -1.2855 -1.1635
  492THF     H610489   2.345   2.722   2.444 -0.3297 -0.1464  0.3070
  492THF     H710490   2.510   2.713   2.373 -0.1332 -0.1495 -0.0414
  492THF     C810491   2.491   2.601   2.567 -0.7010 -0.3296  0.3204
  492THF     C910492   2.498   2.669   2.703 -0.4545  0.6512 -0.3208
  492THF    H1010493   2.585   2.552   2.544 -0.3356  0.5560 -0.0835
  492THF    H1110494   2.406   2.533   2.577 -0.8995 -0.0306  0.7444
  492THF    H1210495   2.424   2.625   2.769 -1.7831  2.8868 -0.2389
  492THF    H1310496   2.600   2.668   2.740 -0.1744  1.2846 -1.0429
  493THF     O110497   1.364   1.203   4.760  0.5765  0.0908 -0.2098
  493THF     C210498   1.359   1.174   4.903  0.1268  0.4187 -0.6393
  493THF     C310499   1.381   1.348   4.747 -0.0003 -0.2201  0.1134
  493THF     H410500   1.444   1.110   4.926  1.4699  2.6694  1.0891
  493THF     H510501   1.269   1.121   4.933 -0.7318  1.9135 -0.4589
  493THF     H610502   1.486   1.376   4.734 -0.3352  1.4904  0.8684
  493THF     H710503   1.339   1.383   4.654  1.4262 -2.4921 -1.5083
  493THF     C810504   1.319   1.398   4.876  0.5374 -1.0069  0.1550
  493THF     C910505   1.381   1.307   4.984 -0.0073 -0.2308  0.7856
  493THF    H1010506   1.210   1.399   4.878  0.5188  0.4850  0.1132
  493THF    H1110507   1.354   1.500   4.894 -2.2687  0.3622 -1.4912
  493THF    H1210508   1.487   1.327   4.995 -0.4085  3.0273 -0.0135
  493THF    H1310509   1.337   1.299   5.083 -0.2063 -2.5873  0.5704
  494THF     O110510   2.996   4.878   2.120 -0.1428  0.3471  0.8157
  494THF     C210511   2.876   4.820   2.165  0.9925  0.7114 -0.0480
  494THF     C310512   3.087   4.778   2.087  0.7409  0.5614 -0.5603
  494THF     H410513   2.820   4.788   2.078  1.1399  1.3414 -0.3798
  494THF     H510514   2.806   4.887   2.215 -1.2745 -1.3632 -0.2533
  494THF     H610515   3.053   4.714   2.006  0.8361 -0.2768  0.0446
  494THF     H710516   3.184   4.819   2.057  1.8109 -0.2843  1.4881
  494THF     C810517   3.074   4.690   2.213 -0.2330  0.3311  0.3809
  494THF     C910518   2.924   4.697   2.245 -0.2606 -0.1766  0.0384
  494THF    H1010519   3.123   4.737   2.298 -0.2859  0.0387  0.5732
  494THF    H1110520   3.110   4.588   2.205 -0.5291  0.2138  0.5212
  494THF    H1210521   2.883   4.601   2.212  1.6849 -0.5207 -1.5329
  494THF    H1310522   2.923   4.715   2.352  2.4318  1.8940 -0.1892
  495THF     O110523   4.606   0.450   4.551  0.0775 -0.3224  0.5738
  495THF     C210524   4.551   0.375   4.445 -0.3767  0.4412 -0.4406
  495THF     C310525   4.734   0.502   4.502  0.0622  0.1581  0.2818
  495THF     H410526   4.446   0.400   4.425 -0.7095  2.1306  2.7153
  495THF     H510527   4.551   0.268   4.462 -0.8812  0.7579  1.9111
  495THF     H610528   4.727   0.609   4.487 -0.6331  0.3859  2.0010
  495THF     H710529   4.816   0.496   4.574  2.3165 -0.5661 -2.1665
  495THF     C810530   4.772   0.430   4.370  0.5569  0.2032 -0.0041
  495THF     C910531   4.632   0.403   4.316 -0.1346  0.1469 -0.5544
  495THF    H1010532   4.832   0.340   4.383 -0.1835 -0.5218 -1.3455
  495THF    H1110533   4.832   0.494   4.306 -2.4302  1.4952 -1.7437
  495THF    H1210534   4.583   0.491   4.274 -2.2495 -1.1616 -0.9572
  495THF    H1310535   4.621   0.325   4.242  1.9123 -0.6292 -0.1028
  496THF     O110536   2.976   2.548   0.421 -0.3187  0.1597  0.8142
  496THF     C210537   2.945   2.483   0.540  0.1905  0.3641  0.2874
  496THF     C310538   2.881   2.517   0.321 -0.4145 -0.1381  0.5301
  496THF     H410539   2.864   2.527   0.597 -0.8214  0.8641 -1.4433
  496THF     H510540   3.022   2.494   0.616 -0.2151 -0.9804  0.9324
  496THF     H610541   2.789   2.574   0.337 -0.5784 -0.3683  0.4199
  496THF     H710542   2.916   2.527   0.218  1.5038  0.8665  1.2254
  496THF     C810543   2.865   2.365   0.360  0.5326 -1.0089 -0.9050
  496THF     C910544   2.923   2.338   0.501 -0.0722 -0.8506  0.4020
  496THF    H1010545   2.915   2.309   0.280  0.2251 -2.4866 -0.1002
  496THF    H1110546   2.764   2.325   0.359  0.0944  0.0606 -0.7237
  496THF    H1210547   2.856   2.303   0.580  1.5335  1.8091  3.1796
  496THF    H1310548   3.006   2.267   0.501  0.4426 -0.3126  2.4338
  497THF     O110549   3.794   3.577   5.042  0.4484  0.2281 -0.1792
  497THF     C210550   3.906   3.498   5.080  0.3009 -0.2748  0.1576
  497THF     C310551   3.844   3.706   5.044  0.0548  0.1467  0.0551
  497THF     H410552   3.884   3.398   5.044 -1.2042  0.5545 -1.3734
  497THF     H510553   3.912   3.509   5.189  1.4327 -0.5092  0.1304
  497THF     H610554   3.770   3.777   5.008 -0.2319 -0.5974 -0.8771
  497THF     H710555   3.876   3.726   5.146  1.8874 -1.4073 -0.1468
  497THF     C810556   3.969   3.686   4.950  0.2744 -0.1401 -0.0230
  497THF     C910557   4.028   3.558   5.000  0.1685  0.1765 -0.0613
  497THF    H1010558   4.042   3.765   4.972  0.8094  0.1852 -2.6818
  497THF    H1110559   3.950   3.678   4.844  0.6639 -0.6300 -0.0615
  497THF    H1210560   4.048   3.493   4.915 -0.6801 -1.0890  0.6560
  497THF    H1310561   4.112   3.572   5.068 -0.3245  2.5485  0.1294
  498THF     O110562   5.500   0.912   3.423 -0.2921  0.1752  0.0390
  498THF     C210563   5.559   0.980   3.313 -0.5971 -0.5326 -0.2382
  498THF     C310564   5.596   0.865   3.516  0.3837  0.1708  0.0607
  498THF     H410565   5.577   1.086   3.331 -2.2757 -0.0538 -1.1401
  498THF     H510566   5.490   0.980   3.228 -0.7945 -3.9414 -0.2032
  498THF     H610567   5.591   0.920   3.610  2.0313 -0.7551  0.7319
  498THF     H710568   5.586   0.759   3.540  0.2999  0.2749  0.4864
  498THF     C810569   5.724   0.882   3.444  0.2088 -0.6757  0.1913
  498THF     C910570   5.689   0.905   3.291 -0.1806 -0.5339 -0.5073
  498THF    H1010571   5.805   0.811   3.461  1.3445  0.1253 -1.5264
  498THF    H1110572   5.769   0.977   3.475 -1.0571  1.2886 -3.3734
  498THF    H1210573   5.754   0.958   3.221 -2.4381  2.0752 -0.8171
  498THF    H1310574   5.677   0.807   3.245  0.6062 -0.9054  0.0442
  499THF     O110575   0.360   3.375   1.189 -0.5508  0.7617 -0.7398
  499THF     C210576   0.279   3.331   1.080 -0.1321 -0.7658 -1.0078
  499THF     C310577   0.301   3.361   1.317 -0.1879  0.0104  0.6207
  499THF     H410578   0.299   3.237   1.030 -1.7388 -1.0174 -1.2474
  499THF     H510579   0.286   3.416   1.012  0.2760  1.7236  1.9131
  499THF     H610580   0.303   3.257   1.349 -1.2271 -0.3474 -0.4069
  499THF     H710581   0.355   3.420   1.391 -0.0421 -0.1722  0.6599
  499THF     C810582   0.156   3.408   1.275 -0.0492 -0.5744 -0.2462
  499THF     C910583   0.142   3.335   1.145 -0.1253 -0.3169 -0.1390
  499THF    H1010584   0.150   3.517   1.266  0.1991 -0.6284 -1.2520
  499THF    H1110585   0.087   3.356   1.341 -0.6232 -2.0688 -1.9479
  499THF    H1210586   0.122   3.229   1.160  0.0512 -0.6558 -2.0550
  499THF    H1310587   0.070   3.386   1.082 -0.6748 -1.2471 -0.2740
  500THF     O110588   0.714   1.218   1.656 -0.2857  0.5058  0.3438
  500THF     C210589   0.764   1.143   1.765  0.0032  0.8801 -0.3643
  500THF     C310590   0.813   1.305   1.610  0.6308  0.5106 -0.2642
  500THF     H410591   0.783   1.043   1.725  0.7551  0.7208  0.3785
  500THF     H510592   0.691   1.108   1.838  0.1404 -0.4789 -0.8551
  500THF     H610593   0.875   1.253   1.537  0.9256 -1.9650  1.6613
  500THF     H710594   0.763   1.388   1.559 -3.0010 -0.0269  2.0889
  500THF     C810595   0.900   1.332   1.733 -0.1445  0.9029  0.7897
  500THF     C910596   0.888   1.215   1.828  0.6698  0.6415  0.3113
  500THF    H1010597   0.872   1.422   1.788  0.0805  2.2431 -1.2133
  500THF    H1110598   1.002   1.350   1.700 -0.8509  0.7440 -1.6511
  500THF    H1210599   0.980   1.156   1.830  0.3597  0.1746  1.7117
  500THF    H1310600   0.869   1.243   1.932 -0.3618 -0.8185  0.5434
  501THF     O110601   2.721   5.422   0.641 -0.5185  0.1395  0.3594
  501THF     C210602   2.744   5.551   0.599 -0.4763  0.0376 -0.6187
  501THF     C310603   2.710   5.334   0.533  0.2474 -0.1174  0.0536
  501THF     H410604   2.852   5.559   0.595 -0.4522  1.0666  1.1530
  501THF     H510605   2.710   5.632   0.664  1.6825  1.4312 -1.1055
  501THF     H610606   2.811   5.313   0.498  0.2957 -0.9562  0.6571
  501THF     H710607   2.659   5.245   0.571  1.7791  0.0887  2.8218
  501THF     C810608   2.648   5.420   0.420  0.2113 -0.2444  0.2820
  501THF     C910609   2.675   5.561   0.459  0.2507 -0.4732  0.3496
  501THF    H1010610   2.539   5.417   0.424  0.1603  0.6179 -0.1994
  501THF    H1110611   2.680   5.397   0.319  1.9209  2.1345  0.1984
  501THF    H1210612   2.749   5.598   0.389  0.9088  1.2106  1.8577
  501THF    H1310613   2.595   5.635   0.460  1.6970  1.2818 -2.0952
  502THF     O110614   0.536   1.614   4.402  0.3340 -0.0100 -0.6638
  502THF     C210615   0.670   1.606   4.430  0.5489  0.3110 -0.4581
  502THF     C310616   0.504   1.657   4.275 -0.1215  0.3539  0.5402
  502THF     H410617   0.707   1.504   4.413  0.1248  0.1770 -0.5842
  502THF     H510618   0.685   1.639   4.533  0.0121 -1.2871  0.1676
  502THF     H610619   0.424   1.607   4.220  0.4086  1.3364 -1.2025
  502THF     H710620   0.457   1.755   4.271 -1.2137 -0.1855 -1.0077
  502THF     C810621   0.639   1.655   4.206 -0.1546  0.3127 -0.4959
  502THF     C910622   0.732   1.691   4.316 -0.0444  0.0529 -1.3577
  502THF    H1010623   0.638   1.730   4.126  0.0914 -0.7762 -1.5456
  502THF    H1110624   0.660   1.560   4.157  2.7776 -0.1786  1.4755
  502THF    H1210625   0.837   1.662   4.304  0.5320  1.2805  0.3215
  502THF    H1310626   0.726   1.795   4.349 -1.9306 -0.3991 -0.1272
  503THF     O110627   3.934   2.430   2.862 -0.8096 -0.3439  0.3520
  503THF     C210628   3.921   2.531   2.756 -0.2016 -0.2567 -1.1602
  503THF     C310629   3.815   2.354   2.877  0.1845  0.0606  0.5596
  503THF     H410630   4.001   2.514   2.684 -0.6536 -0.3185 -1.6452
  503THF     H510631   3.946   2.631   2.792 -0.0265 -0.5650 -0.3987
  503THF     H610632   3.835   2.247   2.883 -1.4373 -0.5279 -2.2557
  503THF     H710633   3.757   2.400   2.957 -0.1779  0.1699  0.2395
  503THF     C810634   3.741   2.375   2.738 -0.3922 -1.3319  0.0940
  503THF     C910635   3.787   2.512   2.697 -0.3291 -0.3023 -0.0051
  503THF    H1010636   3.633   2.371   2.751 -0.8421 -1.5757 -3.0485
  503THF    H1110637   3.758   2.294   2.668 -2.3506 -0.7709 -1.1017
  503THF    H1210638   3.792   2.515   2.588 -1.2500 -0.6745 -0.0639
  503THF    H1310639   3.711   2.579   2.740  0.3373  0.7926 -0.4911
  504THF     O110640   5.251   4.916   0.298  1.0330  0.1039 -0.2327
  504THF     C210641   5.274   4.989   0.418 -0.3340  0.4567 -0.0592
  504THF     C310642   5.177   4.999   0.210  0.4456 -0.5940  0.5503
  504THF     H410643   5.365   4.952   0.464 -0.8326  0.4131  0.9306
  504THF     H510644   5.189   4.983   0.487  0.1393 -0.9208  0.4361
  504THF     H610645   5.192   4.966   0.107 -1.4595  1.0790 -0.3528
  504THF     H710646   5.072   4.999   0.240  0.4873 -1.6999  0.7411
  504THF     C810647   5.237   5.137   0.229  0.4637  0.7909  0.1599
  504THF     C910648   5.290   5.136   0.374 -0.0245  0.8484  0.3581
  504THF    H1010649   5.165   5.218   0.223  0.8641  1.0675 -1.2449
  504THF    H1110650   5.317   5.149   0.155 -2.0489  1.9408 -2.5906
  504THF    H1210651   5.394   5.170   0.378  1.0138 -1.9452 -0.5125
  504THF    H1310652   5.226   5.200   0.434  1.0740  2.0341  0.3149
  505THF     O110653   2.606   4.945   3.051 -0.1073 -0.5005 -0.1222
  505THF     C210654   2.573   4.807   3.014  0.5461 -0.7492 -0.0697
  505THF     C310655   2.584   4.957   3.194 -0.0651 -0.8062  0.5101
  505THF     H410656   2.612   4.784   2.915  0.5365  0.5587 -0.3907
  505THF     H510657   2.464   4.804   3.008  0.5208  0.1256 -0.2189
  505THF     H610658   2.645   5.038   3.233 -0.3074  0.0027 -0.7411
  505THF     H710659   2.478   4.983   3.200  0.3287  1.5715 -1.2154
  505THF     C810660   2.611   4.820   3.247 -0.6894 -0.2755 -0.5191
  505THF     C910661   2.626   4.728   3.128 -0.8279 -0.1228  0.7357
  505THF    H1010662   2.524   4.789   3.305 -1.3008  2.5802  0.2948
  505THF    H1110663   2.699   4.817   3.311 -2.3344  0.7703  1.9694
  505THF    H1210664   2.732   4.708   3.111 -0.6494  1.0134  0.4195
  505THF    H1310665   2.596   4.625   3.142 -0.6932 -0.2462  0.1263
  506THF     O110666   1.315   3.558   1.653  0.9296  0.2538  0.0374
  506THF     C210667   1.390   3.532   1.531 -0.0060  0.2170 -0.7131
  506THF     C310668   1.184   3.507   1.650 -0.6819  0.0904 -0.1347
  506THF     H410669   1.493   3.505   1.553  0.0547  0.5869 -0.5342
  506THF     H510670   1.372   3.610   1.456 -0.6012  1.0113  0.2304
  506THF     H610671   1.155   3.477   1.751 -2.2481 -1.3484 -0.9569
  506THF     H710672   1.124   3.586   1.606 -0.5355  1.2934  1.7048
  506THF     C810673   1.205   3.380   1.574  0.1396  0.0845  0.6066
  506THF     C910674   1.324   3.402   1.484  0.3874 -0.3973  0.5298
  506THF    H1010675   1.117   3.350   1.517  2.0476  0.9078 -3.1143
  506THF    H1110676   1.221   3.295   1.641  0.3211 -0.9955 -0.7666
  506THF    H1210677   1.395   3.320   1.495  0.5449 -0.3183  0.0977
  506THF    H1310678   1.297   3.404   1.379  0.8903  0.2713  0.4040
  507THF     O110679   0.519   4.517   0.246  0.1098  0.4191  0.6034
  507THF     C210680   0.414   4.515   0.149  0.9832 -0.4547  0.4621
  507THF     C310681   0.571   4.386   0.269 -0.7051 -0.5796 -0.7352
  507THF     H410682   0.422   4.592   0.072 -1.1049 -2.5418 -2.0224
  507THF     H510683   0.319   4.524   0.201  0.1659  2.1392 -1.2869
  507THF     H610684   0.672   4.389   0.227 -0.8307  0.0032 -1.0078
  507THF     H710685   0.571   4.368   0.376  1.4010  1.3129 -0.3447
  507THF     C810686   0.479   4.290   0.191 -0.4151  0.6031  0.1925
  507THF     C910687   0.427   4.378   0.086 -0.2144 -0.3583  0.8440
  507THF    H1010688   0.398   4.256   0.256  0.1905 -1.5004 -0.1093
  507THF    H1110689   0.535   4.202   0.162 -0.2658  0.5937  0.5062
  507THF    H1210690   0.489   4.378  -0.004 -1.7507  1.2241 -0.2842
  507THF    H1310691   0.331   4.339   0.049  0.3957  0.4369 -1.7847
  508THF     O110692   4.873   0.631   0.250 -0.1860 -0.0959  0.5141
  508THF     C210693   4.741   0.583   0.283  0.5934  0.1842 -0.7050
  508THF     C310694   4.866   0.681   0.120  0.7297 -0.5028 -0.4690
  508THF     H410695   4.730   0.576   0.391  0.0986 -0.9350 -0.8113
  508THF     H510696   4.718   0.487   0.235  0.2272 -0.5771  0.9413
  508THF     H610697   4.930   0.769   0.115  0.0258  0.0004 -0.7544
  508THF     H710698   4.900   0.602   0.054  0.7685 -1.3158  0.5001
  508THF     C810699   4.718   0.725   0.098  0.5713 -0.9566 -0.3487
  508THF     C910700   4.651   0.700   0.235  0.5574  0.6624 -0.3908
  508THF    H1010701   4.686   0.646   0.031  0.1813 -1.7568  0.7536
  508THF    H1110702   4.709   0.818   0.043 -0.2308 -0.3035  0.8450
  508THF    H1210703   4.660   0.789   0.297  1.3230 -0.3400  1.0006
  508THF    H1310704   4.549   0.665   0.222  0.9447 -0.8997  0.5393
  509THF     O110705   4.859   4.548   5.109  0.0133 -0.0618  0.2265
  509THF     C210706   4.872   4.483   4.984  0.2912 -0.1459 -0.6265
  509THF     C310707   4.742   4.489   5.168 -0.0443  0.1320 -0.0135
  509THF     H410708   4.905   4.380   4.990  0.3989 -0.2138 -2.0059
  509THF     H510709   4.941   4.535   4.917  1.0978  1.8089  1.5843
  509THF     H610710   4.772   4.389   5.199  0.9850  0.6559  0.7498
  509THF     H710711   4.705   4.544   5.254  1.4026 -0.1371  0.8300
  509THF     C810712   4.646   4.471   5.054 -0.9291 -0.2949 -0.3339
  509THF     C910713   4.735   4.478   4.931 -0.2204 -0.6403 -0.7813
  509THF    H1010714   4.562   4.539   5.053 -0.4551  0.3002 -0.9436
  509THF    H1110715   4.605   4.370   5.050 -0.0076 -0.6983  0.0692
  509THF    H1210716   4.711   4.404   4.855 -3.9864  0.0765 -0.4618
  509THF    H1310717   4.713   4.572   4.881 -1.1371 -0.6927 -0.5010
  510THF     O110718   0.498   4.154   2.726 -0.1615  0.2549 -0.2508
  510THF     C210719   0.503   4.249   2.831 -1.1083  0.1389 -0.4065
  510THF     C310720   0.377   4.084   2.746  0.0830  1.0852  0.2954
  510THF     H410721   0.472   4.351   2.806 -0.2730 -0.0800 -2.4985
  510THF     H510722   0.605   4.263   2.866 -2.0848  1.7908  2.0683
  510THF     H610723   0.295   4.146   2.709 -0.3368 -0.1024 -0.8651
  510THF     H710724   0.392   3.993   2.687  1.7876  1.5372 -0.0259
  510THF     C810725   0.366   4.058   2.899  0.1031  0.4678  0.1439
  510THF     C910726   0.422   4.185   2.949 -0.0432  0.0993 -0.0701
  510THF    H1010727   0.428   3.975   2.933  0.4411 -0.5675 -2.7157
  510THF    H1110728   0.263   4.059   2.935  0.4925  1.4833  1.3127
  510THF    H1210729   0.347   4.256   2.985  1.7109  1.5920  0.8496
  510THF    H1310730   0.486   4.171   3.037 -0.9867 -0.3762  0.5484
  511THF     O110731   4.695   2.314   3.989 -0.1411  0.0716 -0.2714
  511THF     C210732   4.597   2.415   3.951 -0.4087 -0.1012 -0.3636
  511THF     C310733   4.689   2.297   4.132 -1.0760  0.2349 -0.1865
  511THF     H410734   4.536   2.379   3.868  0.4561  0.1801 -1.1311
  511THF     H510735   4.639   2.511   3.922 -3.4525  1.6025  0.4563
  511THF     H610736   4.668   2.191   4.150  4.0275 -0.5245  3.0114
  511THF     H710737   4.789   2.306   4.173 -0.4623 -2.2049 -0.9407
  511THF     C810738   4.581   2.394   4.190 -0.9009  0.2118 -0.8335
  511THF     C910739   4.496   2.421   4.066  0.1051 -0.7524 -0.5953
  511THF    H1010740   4.614   2.495   4.215  0.1021 -0.8139  2.5173
  511THF    H1110741   4.529   2.348   4.274 -1.1240 -1.1326 -1.6639
  511THF    H1210742   4.420   2.343   4.066 -0.3145 -0.3434 -0.9443
  511THF    H1310743   4.438   2.513   4.074  0.7813 -0.0254 -3.2284
  512THF     O110744   1.484   0.409   2.548  0.1795  0.3127 -0.3633
  512THF     C210745   1.525   0.341   2.427 -0.3813 -0.0717  0.1004
  512THF     C310746   1.463   0.303   2.642 -0.1452  0.4049 -0.2703
  512THF     H410747   1.583   0.408   2.363 -1.6892  1.3657  0.3617
  512THF     H510748   1.443   0.303   2.367  0.7653 -1.8367 -0.4153
  512THF     H610749   1.437   0.344   2.739  0.9222 -1.6427  0.9713
  512THF     H710750   1.377   0.240   2.616 -2.0822  2.0875  1.7444
  512THF     C810751   1.591   0.225   2.627  0.7140  0.7795  0.4700
  512THF     C910752   1.610   0.230   2.474 -0.1225  0.0391  0.2733
  512THF    H1010753   1.573   0.121   2.653 -0.5178 -0.1562 -3.4227
  512THF    H1110754   1.675   0.265   2.684  0.5828  0.2908  1.0118
  512THF    H1210755   1.717   0.235   2.452  0.3151 -1.7202  1.7125
  512THF    H1310756   1.582   0.134   2.429 -0.0375  0.8339 -1.5480
  513THF     O110757   0.378   2.651   3.522 -0.6553 -0.3768  0.4744
  513THF     C210758   0.276   2.736   3.564 -0.0216 -0.0949 -0.3397
  513THF     C310759   0.493   2.697   3.593  0.0732  0.4793  0.1353
  513THF     H410760   0.242   2.709   3.663  0.4840 -0.8905 -0.3707
  513THF     H510761   0.187   2.734   3.501  0.1818 -1.3632 -0.6273
  513THF     H610762   0.479   2.652   3.691  0.3146 -3.5287 -1.4719
  513THF     H710763   0.587   2.677   3.542  0.2378 -0.8776  0.9356
  513THF     C810764   0.480   2.850   3.605 -0.3354  0.2179 -0.0816
  513THF     C910765   0.330   2.880   3.581 -0.4613  0.6818 -0.7600
  513THF    H1010766   0.537   2.908   3.532  1.5378 -1.2837  0.0995
  513THF    H1110767   0.524   2.871   3.702 -1.5489 -1.1033  0.7745
  513THF    H1210768   0.282   2.930   3.665 -2.5455  0.1326 -1.5573
  513THF    H1310769   0.324   2.931   3.484 -2.2042  1.1949 -0.4267
  514THF     O110770   3.782   4.467   2.672 -0.3786 -0.0495 -0.2720
  514THF     C210771   3.921   4.461   2.664  0.2609 -0.0724 -0.4429
  514THF     C310772   3.728   4.338   2.643  0.1724 -0.6664  0.4602
  514THF     H410773   3.972   4.474   2.760 -0.4186 -3.4104  0.5041
  514THF     H510774   3.959   4.538   2.597  3.0625  0.2051  1.2760
  514THF     H610775   3.642   4.312   2.705 -0.3245  0.5358  0.3113
  514THF     H710776   3.682   4.336   2.544 -1.5957  1.8391  1.1181
  514THF     C810777   3.838   4.243   2.655 -1.4075 -0.1694  0.4056
  514THF     C910778   3.959   4.324   2.610  0.1098 -0.3740 -0.5180
  514THF    H1010779   3.816   4.161   2.587  0.4436 -0.2321 -0.1638
  514THF    H1110780   3.848   4.212   2.759 -0.3745  0.3103  0.4644
  514THF    H1210781   4.044   4.272   2.653  0.6253  1.5584  0.8803
  514THF    H1310782   3.964   4.326   2.501  0.3472  0.5014 -0.4907
  515THF     O110783   2.306   4.280   4.212 -0.5973 -0.4265 -0.3882
  515THF     C210784   2.336   4.289   4.075 -0.0735 -0.8514 -0.1232
  515THF     C310785   2.422   4.281   4.289 -0.9941 -0.1549 -0.8685
  515THF     H410786   2.260   4.353   4.031  0.2755 -0.6345 -0.4247
  515THF     H510787   2.346   4.193   4.024  0.4986 -0.5328 -0.6199
  515THF     H610788   2.421   4.303   4.396 -2.2666 -2.0826 -0.4321
  515THF     H710789   2.461   4.179   4.290  2.6220  1.0717  0.1375
  515THF     C810790   2.530   4.353   4.207  0.2044  0.4337  0.3201
  515THF     C910791   2.467   4.362   4.060  0.3035  0.2618 -0.2428
  515THF    H1010792   2.620   4.294   4.190  0.9126  1.8000 -0.9524
  515THF    H1110793   2.560   4.447   4.254  0.2473  0.1630  0.8317
  515THF    H1210794   2.450   4.469   4.045  0.2612  0.6980  2.4228
  515THF    H1310795   2.537   4.334   3.982 -0.4164 -0.8375 -0.5048
  516THF     O110796   2.910   1.764   3.397 -0.1566  0.2728 -0.0668
  516THF     C210797   2.794   1.793   3.473  0.0618  0.2395 -0.0803
  516THF     C310798   2.891   1.821   3.264 -0.2541 -0.6003  0.2042
  516THF     H410799   2.784   1.901   3.484 -0.9754  0.3964 -2.0614
  516THF     H510800   2.778   1.751   3.572  0.0113  0.4206 -0.0103
  516THF     H610801   2.898   1.930   3.257  0.9412 -0.6719  0.1277
  516THF     H710802   2.966   1.774   3.201  0.0886  1.5711 -1.1104
  516THF     C810803   2.742   1.784   3.248 -0.2640 -0.0431  0.3080
  516THF     C910804   2.675   1.767   3.378 -0.4683  0.4366 -0.5611
  516THF    H1010805   2.747   1.682   3.212 -1.5995 -0.0189  0.0167
  516THF    H1110806   2.689   1.842   3.172  1.1296  0.9725  0.0537
  516THF    H1210807   2.594   1.840   3.381 -0.6668  0.1906  1.5935
  516THF    H1310808   2.625   1.670   3.379 -0.1769  0.1428 -3.6200
  517THF     O110809   2.894   3.745   1.543  0.1975 -0.0067  0.4197
  517THF     C210810   2.823   3.762   1.420  0.1158 -0.3470  0.3886
  517THF     C310811   2.797   3.743   1.645 -0.6055  0.3063 -0.4315
  517THF     H410812   2.781   3.672   1.375 -0.2026 -0.8393  1.6108
  517THF     H510813   2.885   3.806   1.343 -1.1144 -2.1037 -1.7171
  517THF     H610814   2.756   3.651   1.687 -0.4356  0.8884  1.0650
  517THF     H710815   2.867   3.777   1.721  0.9677 -3.8444  0.2007
  517THF     C810816   2.692   3.849   1.605 -0.2588 -0.3033  0.2973
  517THF     C910817   2.718   3.873   1.459 -0.5360  0.1434  1.1455
  517THF    H1010818   2.701   3.942   1.662  1.1955 -0.7181  0.7845
  517THF    H1110819   2.599   3.798   1.630  0.2900 -0.5757  1.9231
  517THF    H1210820   2.629   3.884   1.397  0.9132 -0.1797 -1.1182
  517THF    H1310821   2.762   3.972   1.445 -1.2410  0.2995 -0.0446
  518THF     O110822   1.216   1.140   1.899 -0.0172 -0.1850  0.0960
  518THF     C210823   1.257   1.063   2.012  0.0338  0.0503  0.8317
  518THF     C310824   1.300   1.259   1.896 -0.3158  0.2546  0.0861
  518THF     H410825   1.346   1.005   1.989 -0.0420  0.7611 -1.5611
  518THF     H510826   1.172   1.001   2.041 -0.7735  1.2624  1.1325
  518THF     H610827   1.391   1.232   1.841  0.1920  1.5142  0.2684
  518THF     H710828   1.246   1.345   1.855 -3.0784 -1.6172 -0.4723
  518THF     C810829   1.350   1.279   2.045  0.4947 -0.0582 -0.1333
  518THF     C910830   1.279   1.165   2.116  0.0320  0.5335 -0.7446
  518THF    H1010831   1.329   1.375   2.092 -0.4187  0.8091 -2.1631
  518THF    H1110832   1.457   1.261   2.049  1.2575  3.7766  0.7572
  518THF    H1210833   1.339   1.136   2.203 -0.0655  0.1896 -0.7906
  518THF    H1310834   1.182   1.203   2.149  0.3962  2.1830 -1.4648
  519THF     O110835   1.049   1.172   2.650  0.0960  0.8120 -0.0113
  519THF     C210836   1.029   1.029   2.642  0.3331 -0.1751 -0.2154
  519THF     C310837   1.044   1.228   2.522  0.3191  0.2362  0.6312
  519THF     H410838   0.944   0.995   2.702 -0.9291  1.4447 -1.0091
  519THF     H510839   1.122   0.989   2.684  0.2153 -1.0165 -0.7381
  519THF     H610840   0.944   1.264   2.499  0.8521  2.0013  0.9047
  519THF     H710841   1.112   1.311   2.539  1.3105 -0.7963  1.9933
  519THF     C810842   1.084   1.114   2.427 -0.1585 -0.9544 -0.3326
  519THF     C910843   1.033   0.991   2.497  0.0654  0.3363 -0.2213
  519THF    H1010844   1.192   1.101   2.419  0.1025  1.1537 -0.8285
  519THF    H1110845   1.041   1.129   2.328  1.4010  0.8572 -0.7927
  519THF    H1210846   0.934   0.965   2.461 -0.1089  0.6291  0.0360
  519THF    H1310847   1.089   0.898   2.487 -0.7336 -0.2467  0.5671
  520THF     O110848   0.940   4.276   5.384  0.0410  0.2242  0.8520
  520THF     C210849   0.974   4.330   5.256  0.0799  0.3010 -0.3206
  520THF     C310850   1.065   4.250   5.446  0.6972  0.2831  0.7066
  520THF     H410851   0.884   4.378   5.219 -0.0939  0.0476 -0.2292
  520THF     H510852   0.993   4.242   5.195 -0.0379  0.8201 -1.1076
  520THF     H610853   1.045   4.251   5.554 -3.8737  0.7852  0.0845
  520THF     H710854   1.104   4.155   5.410 -2.7020 -0.8993 -0.3279
  520THF     C810855   1.157   4.367   5.393  0.9584  1.1257 -0.4873
  520THF     C910856   1.101   4.415   5.267 -0.6673 -0.2342  0.6321
  520THF    H1010857   1.263   4.342   5.391  0.8052  0.4269 -0.0966
  520THF    H1110858   1.160   4.433   5.480  0.3068  1.2420 -0.5533
  520THF    H1210859   1.091   4.523   5.273  0.1302 -0.1112 -0.0742
  520THF    H1310860   1.172   4.408   5.185  0.3607  1.1316  1.3460
  521THF     O110861   0.681   3.011   1.195 -0.1479  0.0445  0.3817
  521THF     C210862   0.571   3.043   1.119 -0.0523 -0.3159 -0.3603
  521THF     C310863   0.648   3.037   1.332 -0.7736  0.2335  0.6209
  521THF     H410864   0.573   2.993   1.022 -2.3612 -0.7141 -0.2600
  521THF     H510865   0.567   3.152   1.112  0.1416 -0.3535 -1.1444
  521THF     H610866   0.713   2.975   1.394 -1.5007 -0.1041  1.0577
  521THF     H710867   0.660   3.137   1.373  0.8637  0.7851 -1.0765
  521THF     C810868   0.497   3.004   1.346  0.0696  0.4970  0.9140
  521THF     C910869   0.455   2.991   1.196 -0.5329 -0.0762  0.7900
  521THF    H1010870   0.445   3.084   1.397  0.4816  2.8134 -2.0245
  521THF    H1110871   0.486   2.910   1.400  1.5102  0.3829  1.0527
  521THF    H1210872   0.440   2.885   1.174 -0.0107 -0.0046  0.0645
  521THF    H1310873   0.372   3.051   1.158  0.6345  0.7273 -0.5744
  522THF     O110874   2.627   1.600   1.872  0.3290 -0.1712  0.3138
  522THF     C210875   2.743   1.668   1.826  0.1095 -0.1851  0.1448
  522THF     C310876   2.506   1.649   1.814 -0.8238 -0.4061 -0.0163
  522THF     H410877   2.813   1.593   1.788  3.3943  2.2358  0.9799
  522THF     H510878   2.804   1.718   1.901 -0.8243  0.3851  0.5331
  522THF     H610879   2.441   1.566   1.787 -2.0216  0.6176 -0.3740
  522THF     H710880   2.454   1.721   1.878  0.0483  2.3969 -2.2324
  522THF     C810881   2.554   1.736   1.701 -0.3475 -0.2060  0.1926
  522THF     C910882   2.692   1.780   1.739  0.4457 -0.6635  0.3705
  522THF    H1010883   2.488   1.819   1.674  0.6678  0.6430  0.2399
  522THF    H1110884   2.551   1.682   1.606 -1.1013 -0.2092  0.2163
  522THF    H1210885   2.760   1.784   1.654 -0.4323 -2.0877 -0.4494
  522THF    H1310886   2.686   1.872   1.796  0.4475 -0.3447 -0.1416
  523THF     O110887   4.057   0.021   1.104 -0.1133 -0.0323 -0.3522
  523THF     C210888   3.955   0.028   1.007  0.5810  0.1345 -0.1692
  523THF     C310889   4.005  -0.019   1.236 -0.1790  0.3302  0.2425
  523THF     H410890   3.967  -0.044   0.926  0.6618 -1.4491  1.2010
  523THF     H510891   3.959   0.125   0.956 -0.3279  0.8975  1.1723
  523THF     H610892   4.008  -0.127   1.251 -0.3769 -0.0302 -2.0416
  523THF     H710893   4.063   0.014   1.323 -1.3992  0.6208  0.9684
  523THF     C810894   3.866   0.038   1.230 -0.4392 -0.1799  0.2142
  523THF     C910895   3.826   0.010   1.082 -0.4412 -0.6056 -0.4751
  523THF    H1010896   3.863   0.146   1.245 -1.2799 -0.1925  0.2227
  523THF    H1110897   3.786   0.013   1.301 -0.1236 -1.3799  0.1640
  523THF    H1210898   3.785  -0.091   1.074 -2.1208 -0.2196  1.9149
  523THF    H1310899   3.760   0.080   1.031  2.2529  1.2092 -1.6508
  524THF     O110900   3.257   3.800   1.441  0.0880  0.3344  0.0028
  524THF     C210901   3.220   3.784   1.579 -0.3112  0.1021 -0.1301
  524THF     C310902   3.222   3.686   1.360 -0.2227  0.5107 -0.1369
  524THF     H410903   3.121   3.821   1.607  0.7298  0.7483  3.1130
  524THF     H510904   3.290   3.825   1.652  0.3071  1.0644 -1.2178
  524THF     H610905   3.123   3.707   1.319 -0.3455  0.3669  0.0845
  524THF     H710906   3.294   3.667   1.280  1.0240  0.9224  0.8494
  524THF     C810907   3.231   3.578   1.461 -0.0811  0.5457 -0.6041
  524THF     C910908   3.212   3.637   1.599  0.5049  0.4485 -0.2155
  524THF    H1010909   3.332   3.541   1.444  0.4716  2.0747 -0.7669
  524THF    H1110910   3.162   3.498   1.431  1.4248 -0.1320 -2.5133
  524THF    H1210911   3.114   3.600   1.631  1.1597 -0.9994  0.2143
  524THF    H1310912   3.284   3.595   1.669  0.6143 -0.1916 -0.6955
  525THF     O110913   2.708   1.214   1.808 -0.7479 -0.5728  0.4856
  525THF     C210914   2.588   1.258   1.747  0.8717 -0.0051 -1.4358
  525THF     C310915   2.693   1.206   1.950 -0.5828  0.3693 -0.0818
  525THF     H410916   2.590   1.232   1.641 -0.2760 -0.3462 -1.3925
  525THF     H510917   2.588   1.366   1.763  1.5188 -0.4175  1.9892
  525THF     H610918   2.744   1.125   2.002  0.9192  0.8700 -0.7259
  525THF     H710919   2.725   1.304   1.984 -0.2800  0.0715  0.5108
  525THF     C810920   2.542   1.198   1.976  0.0295 -0.1482 -0.1926
  525THF     C910921   2.482   1.191   1.831  0.3740 -0.7572 -0.5871
  525THF    H1010922   2.510   1.290   2.026  3.0039  1.8380 -1.6057
  525THF    H1110923   2.506   1.109   2.027  0.9030 -2.9568 -4.0593
  525THF    H1210924   2.471   1.084   1.813  0.1941 -0.9617  0.6174
  525THF    H1310925   2.388   1.245   1.823 -0.1740 -1.1455  2.2792
  526THF     O110926   2.346   4.280   3.259 -0.1683 -0.3744  1.1501
  526THF     C210927   2.410   4.299   3.133  0.1896 -0.2638  0.0453
  526THF     C310928   2.417   4.346   3.362 -0.5343 -0.0760  0.1960
  526THF     H410929   2.383   4.388   3.077  1.3817  1.0230  1.4164
  526THF     H510930   2.381   4.212   3.074 -0.4830 -0.0078 -0.0144
  526THF     H610931   2.394   4.452   3.355  1.7581  0.3860 -1.4695
  526THF     H710932   2.382   4.321   3.462  1.3814  0.8097  1.1345
  526THF     C810933   2.561   4.318   3.321 -0.2811  0.4029 -0.0204
  526THF     C910934   2.557   4.297   3.169 -0.7715 -0.0837  0.1612
  526THF    H1010935   2.599   4.226   3.366  1.3823 -0.8541 -3.6385
  526THF    H1110936   2.624   4.404   3.346 -0.7777  1.3150 -1.7999
  526THF    H1210937   2.603   4.374   3.108 -0.6520  0.1051  0.4889
  526THF    H1310938   2.610   4.208   3.134  0.8435  1.2946 -1.0790
  527THF     O110939   3.227   1.087   4.683  0.4175 -0.1227  0.4124
  527THF     C210940   3.247   1.234   4.691 -0.1786 -0.0260  0.2813
  527THF     C310941   3.288   1.027   4.794  0.5754  0.5998  0.2292
  527THF     H410942   3.150   1.280   4.673  0.7110  1.7954 -0.1056
  527THF     H510943   3.323   1.268   4.620  0.1407 -0.1281  0.5716
  527THF     H610944   3.230   0.936   4.801 -0.0187  0.9246 -0.3405
  527THF     H710945   3.393   1.000   4.789  0.3175 -0.4810  0.4405
  527THF     C810946   3.258   1.131   4.908  0.0747  0.7638  0.8001
  527THF     C910947   3.303   1.260   4.831 -0.0289 -0.0914  0.2219
  527THF    H1010948   3.306   1.111   5.004  0.6424 -0.7996  0.2221
  527THF    H1110949   3.152   1.122   4.932 -0.1039  1.4360  0.3006
  527THF    H1210950   3.279   1.354   4.881  1.4202  0.4349 -0.0157
  527THF    H1310951   3.411   1.258   4.821 -0.1187 -1.3488 -0.6706
  528THF     O110952   5.434   1.184   4.025  0.3340 -0.6481 -0.1166
  528THF     C210953   5.514   1.185   3.912  0.6705  0.0896 -0.8066
  528THF     C310954   5.434   1.059   4.091  0.4224  0.1842 -0.2263
  528THF     H410955   5.593   1.258   3.926 -0.7051  1.5523 -0.4387
  528THF     H510956   5.455   1.226   3.830 -3.7790 -0.6558  1.7368
  528THF     H610957   5.445   1.054   4.199 -1.1390  0.2679 -0.0374
  528THF     H710958   5.332   1.021   4.078  0.4052 -0.7436  2.2067
  528THF     C810959   5.538   0.975   4.019  0.4103  0.2611 -0.3246
  528THF     C910960   5.552   1.042   3.886 -0.2590 -0.0045  0.7187
  528THF    H1010961   5.503   0.873   4.004  3.0887 -0.7148 -0.4758
  528THF    H1110962   5.639   0.974   4.060  0.9777  1.7448 -1.5832
  528THF    H1210963   5.654   1.034   3.849 -0.1139  3.3783  0.0610
  528THF    H1310964   5.487   0.997   3.812 -1.7770  0.8574  1.4694
  529THF     O110965   2.223   4.127   4.945 -0.0986 -0.4496  0.5613
  529THF     C210966   2.091   4.127   4.893 -0.2729  0.0874 -0.5245
  529THF     C310967   2.267   3.997   4.983  0.3688  0.1415 -0.4188
  529THF     H410968   2.098   4.183   4.799 -1.1844 -0.6789 -1.0778
  529THF     H510969   2.046   4.204   4.956  3.5064 -0.6612  3.5063
  529THF     H610970   2.345   3.942   4.930 -0.5963 -1.8388  0.1156
  529THF     H710971   2.307   4.012   5.083  2.4011 -1.3516 -0.9440
  529THF     C810972   2.142   3.904   4.974 -0.4251 -0.4148  0.6528
  529THF     C910973   2.043   3.980   4.881 -0.9818 -0.2641  0.6138
  529THF    H1010974   2.089   3.870   5.063 -1.5539  0.1023  0.2048
  529THF    H1110975   2.175   3.810   4.929  1.9932  1.6122 -2.1903
  529THF    H1210976   2.056   3.940   4.780 -1.5840 -0.1484  0.4854
  529THF    H1310977   1.940   3.978   4.917 -2.0659  2.1324 -1.9753
  530THF     O110978   1.538   2.991   4.120  0.1504 -0.1249 -0.4477
  530THF     C210979   1.622   2.968   4.238 -0.5824 -0.8280  0.3635
  530THF     C310980   1.430   3.076   4.159  0.0050 -0.3246 -0.2107
  530THF     H410981   1.714   2.912   4.229  1.4584  1.6468  3.5830
  530THF     H510982   1.560   2.917   4.312 -1.6603 -2.0706 -1.3229
  530THF     H610983   1.400   3.130   4.069  0.0265  0.3224  0.1638
  530THF     H710984   1.335   3.045   4.203 -0.7204  1.7668 -0.1788
  530THF     C810985   1.498   3.171   4.254  0.0688  0.0468 -0.3973
  530THF     C910986   1.642   3.108   4.274 -0.2658  0.3249  0.0579
  530THF    H1010987   1.442   3.171   4.347 -0.0940 -2.0320 -0.4525
  530THF    H1110988   1.504   3.274   4.218 -0.5723 -0.2334 -1.3566
  530THF    H1210989   1.702   3.159   4.199 -0.3057 -0.5902 -0.6175
  530THF    H1310990   1.691   3.125   4.369 -1.0932  0.9930  0.3755
  531THF     O110991   0.077   4.373   2.994 -0.0523 -0.1281  0.2912
  531THF     C210992   0.065   4.348   2.856 -0.3300  0.1588  1.3232
  531THF     C310993  -0.012   4.279   3.060 -0.7805  0.7501  0.5287
  531THF     H410994   0.164   4.363   2.812 -0.3784 -1.2387  0.6847
  531THF     H510995  -0.006   4.420   2.815  0.4971 -0.3688 -1.2032
  531THF     H610996   0.055   4.221   3.123 -0.2226  0.8242  0.0150
  531THF     H710997  -0.086   4.312   3.133 -0.6118 -0.6177  1.3533
  531THF     C810998  -0.080   4.185   2.950 -0.2777 -0.2906 -0.8071
  531THF     C910999   0.008   4.206   2.832  0.5493 -0.2901  0.1613
  531THF    H1011000  -0.182   4.211   2.922  0.2265  0.1770 -2.3596
  531THF    H1111001  -0.073   4.077   2.964  1.5826  0.0228  1.0876
  531THF    H1211002   0.093   4.138   2.825  0.7076 -0.1473  0.6526
  531THF    H1311003  -0.050   4.194   2.740 -0.6306 -0.7673  0.9364
  532THF     O111004   0.267   2.800   0.871  0.3138  0.0777 -0.5577
  532THF     C211005   0.146   2.856   0.819 -0.4347  0.1118 -0.0694
  532THF     C311006   0.273   2.667   0.828 -0.5342  0.5861  0.5644
  532THF     H411007   0.152   2.884   0.714  1.5382 -1.2873 -0.3730
  532THF     H511008   0.118   2.941   0.881 -2.2206 -0.1652 -0.4466
  532THF     H611009   0.319   2.676   0.730 -1.5406 -0.3138 -0.0191
  532THF     H711010   0.340   2.606   0.888 -1.1033  1.7937  2.5152
  532THF     C811011   0.127   2.628   0.805 -0.0295  0.3486  0.8113
  532THF     C911012   0.046   2.753   0.836  0.1258  0.2622 -0.5921
  532THF    H1011013   0.094   2.543   0.865  0.2522  0.4876  1.1716
  532THF    H1111014   0.110   2.603   0.701  1.2577 -1.8919  1.0858
  532THF    H1211015  -0.040   2.767   0.770  1.3327  0.0675 -2.2605
  532THF    H1311016   0.005   2.738   0.937 -0.3120  0.1890 -0.7776
  533THF     O111017   3.102   0.032   0.090  0.0828 -0.1056 -0.2409
  533THF     C211018   3.037   0.037   0.213  0.0662 -0.9450  0.0954
  533THF     C311019   3.050  -0.073   0.016 -1.0530 -0.4429  0.4692
  533THF     H411020   2.940   0.081   0.195  0.0244 -1.7513 -1.8462
  533THF     H511021   3.098   0.098   0.280 -3.1401  2.2268  0.4258
  533THF     H611022   2.957  -0.037  -0.028 -1.9818 -2.5855  0.5831
  533THF     H711023   3.122  -0.105  -0.059 -1.5726  0.2897 -0.3681
  533THF     C811024   3.032  -0.177   0.129 -0.7011 -0.6338  0.0011
  533THF     C911025   3.014  -0.102   0.258  0.0670 -0.0857 -0.2663
  533THF    H1011026   3.114  -0.249   0.135  1.4391  1.5510 -1.4354
  533THF    H1111027   2.941  -0.237   0.120 -0.8166 -0.2103 -2.0748
  533THF    H1211028   2.919  -0.112   0.310  0.4138 -1.5443  0.1173
  533THF    H1311029   3.096  -0.137   0.320  0.8472  1.8229 -0.1775
  534THF     O111030   4.930   1.093   1.085 -0.2929  0.0987  0.6580
  534THF     C211031   4.953   1.046   0.955  0.4613 -0.1023  0.9817
  534THF     C311032   5.027   1.193   1.111  0.0920  0.1770 -0.0060
  534THF     H411033   4.883   1.097   0.889 -0.8367  0.6843  2.8556
  534THF     H511034   4.925   0.940   0.952 -2.6635  0.6265 -2.6556
  534THF     H611035   4.995   1.294   1.084 -0.6346  0.5225  2.0118
  534THF     H711036   5.034   1.206   1.219 -1.6172 -0.4250  0.2177
  534THF     C811037   5.153   1.149   1.042 -0.0648 -0.3724 -0.3466
  534THF     C911038   5.098   1.079   0.921 -0.3469 -0.0971 -0.6467
  534THF    H1011039   5.205   1.085   1.113 -1.1522  0.0392  0.8503
  534THF    H1111040   5.210   1.238   1.017 -1.8820  0.3035 -2.4282
  534THF    H1211041   5.098   1.132   0.826 -1.4791  0.6029 -0.2735
  534THF    H1311042   5.155   0.986   0.911  1.4971  0.8060  0.7694
  535THF     O111043   5.430   4.737   1.867 -0.5636  0.1542 -0.8508
  535THF     C211044   5.568   4.705   1.887  0.2448 -0.5550 -0.2908
  535THF     C311045   5.374   4.762   1.996  0.2240 -0.4060  0.5305
  535THF     H411046   5.622   4.798   1.870  0.7670 -0.8022 -0.0047
  535THF     H511047   5.592   4.630   1.812  0.8018  0.0199 -0.6987
  535THF     H611048   5.409   4.862   2.022  0.4177 -0.6687  1.3300
  535THF     H711049   5.267   4.747   1.987  0.3760 -0.3675 -1.9908
  535THF     C811050   5.436   4.662   2.087  0.1112 -0.4361 -0.0428
  535THF     C911051   5.572   4.665   2.031 -0.1460  0.9180  0.0377
  535THF    H1011052   5.386   4.566   2.079  1.3614 -1.4680  3.2039
  535THF    H1111053   5.439   4.692   2.191  1.0930 -1.3958  0.2174
  535THF    H1211054   5.633   4.740   2.081 -0.4190 -0.2318  2.1692
  535THF    H1311055   5.624   4.572   2.052 -0.3628  0.3194 -1.8608
  536THF     O111056   1.601   0.098   1.022  0.0584 -0.2842  0.0772
  536THF     C211057   1.555   0.231   0.989  0.1622 -0.2504 -0.3189
  536THF     C311058   1.527   0.061   1.142 -0.1901  0.0559  0.4818
  536THF     H411059   1.453   0.225   0.950  0.8363  3.1511 -3.0890
  536THF     H511060   1.608   0.272   0.904 -0.6848  0.9932 -0.2782
  536THF     H611061   1.421   0.042   1.125  0.4727 -1.4185 -3.0871
  536THF     H711062   1.582  -0.021   1.189  0.0485  0.3425  0.7045
  536THF     C811063   1.542   0.185   1.226 -0.6549  0.7554 -0.1758
  536THF     C911064   1.577   0.298   1.124 -0.3032  0.2147  0.0372
  536THF    H1011065   1.629   0.193   1.292 -1.0078  1.2719  0.2319
  536THF    H1111066   1.459   0.208   1.293 -0.6608 -1.9890  0.8860
  536THF    H1211067   1.508   0.381   1.140 -2.8591 -1.6751 -0.4754
  536THF    H1311068   1.681   0.330   1.134 -0.4983  0.3867  1.8003
  537THF     O111069   3.479   2.679   4.820 -0.0093  0.7349 -0.8842
  537THF     C211070   3.435   2.706   4.690  0.3840  0.4182 -0.0421
  537THF     C311071   3.616   2.731   4.820  0.7386  0.3285  0.1771
  537THF     H411072   3.412   2.812   4.684  1.9947  0.8303  0.4039
  537THF     H511073   3.362   2.631   4.660  0.0035  0.8772 -0.2633
  537THF     H611074   3.624   2.809   4.896 -0.0021  1.1516 -0.5665
  537THF     H711075   3.667   2.638   4.845 -1.4535 -1.2410 -0.8412
  537THF     C811076   3.653   2.775   4.678 -1.0158  0.0016 -0.1494
  537THF     C911077   3.557   2.685   4.600 -0.1976  0.7413 -0.4560
  537THF    H1011078   3.761   2.764   4.665 -0.7676  0.3524  1.3606
  537THF    H1111079   3.629   2.879   4.655 -2.2495 -0.2001  0.1360
  537THF    H1211080   3.545   2.732   4.502 -0.1309  0.4049 -0.6275
  537THF    H1311081   3.578   2.578   4.598  0.3225  0.8220  0.3413
  538THF     O111082   2.547   1.355   2.441  0.3105  0.8916  0.0662
  538THF     C211083   2.566   1.340   2.586 -0.1095  0.5114 -0.0132
  538THF     C311084   2.565   1.223   2.381  0.6570  0.2128 -0.1963
  538THF     H411085   2.466   1.331   2.629 -0.2970  0.8866 -0.3668
  538THF     H511086   2.611   1.433   2.619  0.6236 -0.7861  2.9713
  538THF     H611087   2.483   1.182   2.323 -0.5651 -1.7560  2.7147
  538THF     H711088   2.643   1.223   2.304 -0.6101  0.5255 -1.5236
  538THF     C811089   2.602   1.128   2.496 -0.0602 -0.0531 -0.4860
  538THF     C911090   2.657   1.219   2.609  0.0109  0.4259  0.5688
  538THF    H1011091   2.679   1.059   2.462 -1.1539 -1.5723 -0.0204
  538THF    H1111092   2.515   1.066   2.519 -0.2625 -0.1039 -1.3688
  538THF    H1211093   2.650   1.184   2.712  1.3413 -0.8173  0.2744
  538THF    H1311094   2.764   1.233   2.595  0.5426 -2.3903  1.0419
  539THF     O111095   4.852   4.756   1.591  0.0954 -0.1303 -0.3388
  539THF     C211096   4.968   4.678   1.640  0.0081 -0.2390 -0.1500
  539THF     C311097   4.817   4.694   1.469 -0.0355 -0.5087 -0.2802
  539THF     H411098   4.987   4.685   1.747 -0.6751  2.6503 -0.1287
  539THF     H511099   5.055   4.726   1.596  0.2458 -1.5409 -1.1555
  539THF     H611100   4.726   4.721   1.416  1.1408  1.6452 -1.3485
  539THF     H711101   4.890   4.713   1.390 -0.5654  1.3590 -0.3647
  539THF     C811102   4.814   4.544   1.508  0.4939  0.3888  0.1596
  539THF     C911103   4.946   4.530   1.587  0.6988 -0.3549  0.1398
  539THF    H1011104   4.817   4.470   1.428  1.3406  0.5647  0.0160
  539THF    H1111105   4.727   4.515   1.567  0.9234 -0.8651  0.2224
  539THF    H1211106   4.928   4.462   1.670  0.4140  0.7283  0.9765
  539THF    H1311107   5.018   4.490   1.515 -1.6734 -2.4178 -1.2400
  540THF     O111108   4.990   2.638   3.201 -0.9012 -0.6314 -0.4784
  540THF     C211109   4.902   2.615   3.098  0.3086  0.4381 -0.0721
  540THF     C311110   5.119   2.647   3.129  0.1666  0.2494  0.2799
  540THF     H411111   4.877   2.711   3.052 -0.6138  0.3305  0.1884
  540THF     H511112   4.799   2.590   3.122  0.2672  0.0789 -0.5994
  540THF     H611113   5.124   2.749   3.088  1.7201 -0.2936 -1.0074
  540THF     H711114   5.209   2.639   3.190  2.3308  0.9869 -2.5642
  540THF     C811115   5.118   2.548   3.010  0.5468  0.4864 -0.0346
  540THF     C911116   4.964   2.526   2.990 -0.4933 -0.8883 -0.1315
  540THF    H1011117   5.160   2.455   3.048 -1.6714  0.1355  1.8105
  540THF    H1111118   5.160   2.586   2.917 -0.9894  3.1495  0.2438
  540THF    H1211119   4.930   2.544   2.889 -2.2030 -0.2125  0.5240
  540THF    H1311120   4.939   2.423   3.017 -0.8228 -0.6906  0.3382
  541THF     O111121   3.664   3.898   4.293 -0.6330 -0.0094 -0.4866
  541THF     C211122   3.652   3.803   4.195 -0.6049  0.6267 -0.0969
  541THF     C311123   3.686   4.024   4.239  0.1791  0.1886  0.1312
  541THF     H411124   3.545   3.794   4.176 -0.4453 -1.6738 -0.2474
  541THF     H511125   3.707   3.713   4.222 -0.8935  0.7119  0.7779
  541THF     H611126   3.590   4.059   4.201  0.5588  2.3186  0.9863
  541THF     H711127   3.732   4.104   4.297  2.2394 -1.4406  0.8825
  541THF     C811128   3.774   4.000   4.118  0.1050 -0.4102  0.6038
  541THF     C911129   3.729   3.863   4.078  0.0299 -0.3463 -0.0444
  541THF    H1011130   3.878   3.998   4.151 -0.0373  1.4938  1.3581
  541THF    H1111131   3.755   4.064   4.032  1.2434 -0.7721  0.0795
  541THF    H1211132   3.661   3.863   3.993  0.0635  0.3717 -0.0791
  541THF    H1311133   3.817   3.802   4.057  0.0857 -0.4777  0.5487
  542THF     O111134   0.195   4.629   4.938  0.0058  0.0232  0.4208
  542THF     C211135   0.169   4.516   5.025  0.1542 -0.1049 -0.7740
  542THF     C311136   0.321   4.685   4.976 -0.4592  0.3207  0.4226
  542THF     H411137   0.197   4.417   4.988 -0.7505  0.0223 -1.8695
  542THF     H511138   0.060   4.518   5.029  0.1370 -1.3738  1.7681
  542THF     H611139   0.397   4.630   4.922  0.4225  2.2860 -0.4290
  542THF     H711140   0.322   4.783   4.928 -1.4009 -0.0363 -0.3537
  542THF     C811141   0.321   4.677   5.125  0.9126  0.6249 -0.0629
  542THF     C911142   0.227   4.559   5.164 -0.3325  0.6972 -0.2291
  542THF    H1011143   0.272   4.764   5.167  1.8725  0.9795  0.3610
  542THF    H1111144   0.421   4.670   5.168  0.2771 -1.3324  1.2419
  542THF    H1211145   0.293   4.482   5.204 -0.1255  1.2407  0.4934
  542THF    H1311146   0.155   4.585   5.241  0.6421 -0.2488  1.0500
  543THF     O111147   1.759   0.512   0.494 -0.1353 -0.0002  0.0723
  543THF     C211148   1.734   0.372   0.463  0.0903  0.3758  0.3085
  543THF     C311149   1.663   0.592   0.421 -0.0973 -0.5057  0.7612
  543THF     H411150   1.763   0.319   0.554  0.6807 -0.8094 -0.5376
  543THF     H511151   1.783   0.343   0.370 -0.3017 -0.3045  0.3022
  543THF     H611152   1.661   0.696   0.453  0.0018  0.2106 -1.4323
  543THF     H711153   1.680   0.607   0.314  1.2723  0.4836  1.0861
  543THF     C811154   1.540   0.512   0.444 -0.6998  0.1105 -0.5814
  543THF     C911155   1.583   0.363   0.436  0.5894  0.4532 -0.4598
  543THF    H1011156   1.455   0.523   0.377  1.0477 -3.1976 -3.7548
  543THF    H1111157   1.509   0.519   0.548  1.2806 -0.9750  0.1331
  543THF    H1211158   1.521   0.304   0.504  0.0332  2.0030  0.4224
  543THF    H1311159   1.571   0.312   0.340  0.8220 -0.3187 -0.0868
  544THF     O111160   3.069   2.563   3.734  1.1329 -0.0727  0.0774
  544THF     C211161   3.189   2.526   3.684 -0.3892  0.2867  0.0763
  544THF     C311162   3.001   2.442   3.768 -0.1591  0.6079  0.3322
  544THF     H411163   3.262   2.606   3.671  0.9737 -1.0367 -0.7817
  544THF     H511164   3.194   2.464   3.595 -0.4543  0.3031  0.0610
  544THF     H611165   2.909   2.467   3.821  0.0821  0.0734  1.0105
  544THF     H711166   2.972   2.389   3.677 -4.6302  1.3618  1.0598
  544THF     C811167   3.107   2.363   3.844  0.0950 -0.3056  0.0559
  544THF     C911168   3.238   2.431   3.791  0.0273 -0.6057  0.3119
  544THF    H1011169   3.115   2.255   3.831  2.2513 -0.2028  0.2638
  544THF    H1111170   3.084   2.371   3.950  1.7290 -0.7838  0.4687
  544THF    H1211171   3.281   2.489   3.873 -0.9475  3.0716 -1.5424
  544THF    H1311172   3.312   2.360   3.755  1.0150  0.9483 -0.8264
  545THF     O111173   3.028   5.053   1.728  0.0458  0.0142 -0.2566
  545THF     C211174   3.026   4.913   1.740  0.4325  0.1130 -0.3596
  545THF     C311175   2.891   5.095   1.754  0.6106 -0.3184  0.4006
  545THF     H411176   3.088   4.887   1.826 -2.5246 -2.7501  1.1449
  545THF     H511177   3.077   4.874   1.652  1.7504  4.3443 -1.6676
  545THF     H611178   2.881   5.194   1.797  1.5409  0.6664 -1.5165
  545THF     H711179   2.832   5.101   1.663  0.2796 -0.1094  0.6294
  545THF     C811180   2.828   4.989   1.838  0.7252  0.1179 -0.0278
  545THF     C911181   2.881   4.869   1.762 -0.4594 -0.2385  0.0656
  545THF    H1011182   2.719   4.988   1.830  0.6598 -1.0299  0.7093
  545THF    H1111183   2.841   4.996   1.945 -0.8500 -1.1510  0.2976
  545THF    H1211184   2.867   4.781   1.825 -0.1186  1.7189  3.0847
  545THF    H1311185   2.834   4.844   1.667  1.0085 -1.9684 -0.2597
  546THF     O111186   4.565   4.183   1.938 -0.4383 -0.5004  0.4614
  546THF     C211187   4.543   4.211   1.802  0.0795  0.0838 -0.2549
  546THF     C311188   4.645   4.286   1.999  0.2355 -0.2492  0.2655
  546THF     H411189   4.437   4.238   1.800 -0.8288 -2.9432  0.7850
  546THF     H511190   4.559   4.122   1.743 -0.6666 -1.2023  1.3879
  546THF     H611191   4.618   4.309   2.102 -1.8297  0.8367 -0.4682
  546THF     H711192   4.749   4.256   1.990  0.7281  0.4639  2.7457
  546THF     C811193   4.623   4.402   1.901 -1.1469 -0.2225  0.9600
  546THF     C911194   4.618   4.338   1.773 -0.3981  0.7140  0.1212
  546THF    H1011195   4.701   4.472   1.931 -1.1173  0.5368 -0.8034
  546THF    H1111196   4.533   4.463   1.912 -0.3217  1.4451 -0.8594
  546THF    H1211197   4.571   4.405   1.701 -0.7209 -1.8180 -2.1898
  546THF    H1311198   4.718   4.323   1.735 -0.8616  0.6161 -1.0976
  547THF     O111199   0.412   1.779   3.938 -0.5227 -0.1217 -0.4412
  547THF     C211200   0.386   1.660   3.878 -0.4667 -0.4270 -0.0340
  547THF     C311201   0.376   1.880   3.845 -0.6563 -0.2574  0.0133
  547THF     H411202   0.279   1.641   3.880 -0.2197 -2.0460  2.3284
  547THF     H511203   0.430   1.575   3.929  2.7053  0.5024 -0.9799
  547THF     H611204   0.268   1.883   3.836 -0.6414  1.5515  0.0496
  547THF     H711205   0.404   1.977   3.887  0.5522 -1.3289  1.8600
  547THF     C811206   0.433   1.824   3.712  0.3168  0.5524  0.2710
  547THF     C911207   0.452   1.678   3.738 -0.1926  0.1574 -0.6627
  547THF    H1011208   0.526   1.874   3.684 -0.9105  1.3219 -2.8428
  547THF    H1111209   0.357   1.844   3.637  0.1947 -1.4009 -0.1986
  547THF    H1211210   0.405   1.614   3.664 -1.6244  0.9089 -0.4410
  547THF    H1311211   0.556   1.647   3.749 -0.2799 -0.8814 -2.4417
  548THF     O111212   3.962   0.392   1.715 -0.5984  0.4639  0.5029
  548THF     C211213   3.984   0.494   1.617  0.2257  0.8599 -0.1948
  548THF     C311214   4.041   0.276   1.673 -0.1216 -0.7667 -0.6073
  548THF     H411215   4.072   0.547   1.651  1.4868 -0.3070 -1.5334
  548THF     H511216   3.906   0.569   1.603 -1.2162 -0.2327  1.4944
  548THF     H611217   4.136   0.303   1.719 -0.1687 -3.0687  1.0305
  548THF     H711218   4.005   0.183   1.717  0.0252 -0.7966 -0.5502
  548THF     C811219   4.034   0.273   1.522 -0.0549 -0.9345  0.0279
  548THF     C911220   4.022   0.420   1.487 -0.0196  0.2674 -0.3953
  548THF    H1011221   3.945   0.215   1.498 -0.4314 -0.0772 -0.7283
  548THF    H1111222   4.120   0.225   1.476  0.1712 -0.9494  0.4704
  548THF    H1211223   4.112   0.455   1.437 -0.3605 -0.3077 -1.4431
  548THF    H1311224   3.946   0.435   1.409 -0.4570 -0.1395 -0.0529
  549THF     O111225   3.727   2.294   5.493 -0.7770  0.1824  0.2356
  549THF     C211226   3.711   2.153   5.461  0.1460 -0.4234  0.0119
  549THF     C311227   3.646   2.316   5.607 -0.6224 -0.5037 -0.3928
  549THF     H411228   3.764   2.100   5.540  0.3393  0.6084  0.5904
  549THF     H511229   3.752   2.120   5.365 -0.2062 -1.0866  0.0795
  549THF     H611230   3.699   2.289   5.698 -0.6855  1.0580  0.1341
  549THF     H711231   3.609   2.417   5.623 -1.2634 -1.0538  1.9111
  549THF     C811232   3.525   2.227   5.592 -0.4442 -0.1964  0.1082
  549THF     C911233   3.556   2.141   5.469 -0.1021  0.3453 -0.2773
  549THF    H1011234   3.434   2.286   5.581  0.7660  1.6340 -0.5125
  549THF    H1111235   3.524   2.156   5.674 -2.2737 -1.8795 -1.2751
  549THF    H1211236   3.522   2.038   5.466  1.2782 -0.1049 -1.1181
  549THF    H1311237   3.528   2.185   5.373  1.0844  0.1208 -0.7440
  550THF     O111238   3.098   1.442   2.732 -0.5501  0.6433 -0.2049
  550THF     C211239   3.149   1.395   2.857  0.7879 -0.4265 -0.6503
  550THF     C311240   2.999   1.351   2.686  0.2407 -0.1642  0.6260
  550THF     H411241   3.073   1.430   2.926 -0.5429  1.2964 -2.8324
  550THF     H511242   3.245   1.432   2.892  0.2830  0.3818 -0.0997
  550THF     H611243   2.896   1.386   2.680  0.0272 -0.8331  0.2958
  550THF     H711244   3.026   1.326   2.583 -3.9961 -0.2961 -0.6434
  550THF     C811245   3.013   1.227   2.777 -0.0984 -0.3479 -0.4326
  550THF     C911246   3.140   1.249   2.849  0.1458 -0.1749  0.5218
  550THF    H1011247   3.020   1.136   2.718 -1.4473 -0.2553 -0.7623
  550THF    H1111248   2.936   1.216   2.854  1.8291  1.1943  1.8622
  550THF    H1211249   3.140   1.190   2.941  1.4614 -0.5216  0.3208
  550THF    H1311250   3.224   1.220   2.786 -1.8270  0.4365 -2.6357
  551THF     O111251   2.102   1.942   4.401 -0.3460  0.0208  0.2506
  551THF     C211252   2.142   2.064   4.328  0.9812  0.2075  0.1009
  551THF     C311253   2.216   1.903   4.485  0.7112 -0.0338  0.2530
  551THF     H411254   2.149   2.147   4.398  2.7733 -0.1304  0.3832
  551THF     H511255   2.079   2.078   4.240 -0.4230  1.7439  1.2974
  551THF     H611256   2.213   1.964   4.575 -0.1511 -2.1399  1.7409
  551THF     H711257   2.193   1.809   4.535 -0.4880  0.4225  0.5894
  551THF     C811258   2.336   1.920   4.393 -0.5316  0.7028  0.0483
  551THF     C911259   2.282   2.027   4.288 -1.0167 -0.3877 -0.6846
  551THF    H1011260   2.363   1.820   4.358 -0.7613 -0.4080  2.8318
  551THF    H1111261   2.421   1.960   4.448  0.7141  0.1879 -1.4136
  551THF    H1211262   2.337   2.120   4.300  0.9205 -1.3343 -1.6088
  551THF    H1311263   2.302   1.986   4.189 -0.3785 -0.9270 -0.3441
  552THF     O111264   0.094   3.182   0.011  0.0372  0.5807 -0.3573
  552THF     C211265  -0.017   3.262  -0.022  0.3282  0.4572  0.3645
  552THF     C311266   0.059   3.099   0.119 -0.7284  0.2004  0.1703
  552THF     H411267  -0.012   3.312  -0.119 -0.9909  1.7793  0.9405
  552THF     H511268  -0.000   3.337   0.054 -0.0011  0.4683  0.4252
  552THF     H611269   0.121   3.010   0.125 -0.2989  0.5422  1.0166
  552THF     H711270   0.071   3.157   0.211 -2.4363 -0.8234  1.0904
  552THF     C811271  -0.086   3.061   0.093  0.4067  0.3748  0.1692
  552THF     C911272  -0.133   3.162  -0.006 -0.0164 -0.7285 -0.1401
  552THF    H1011273  -0.148   3.058   0.183 -3.0420 -1.1232 -2.0629
  552THF    H1111274  -0.090   2.963   0.047 -2.1226  0.0094  1.0122
  552THF    H1211275  -0.155   3.116  -0.102  1.3097 -0.1002 -0.7732
  552THF    H1311276  -0.226   3.216   0.011  1.0621  1.1167  0.2138
  553THF     O111277   2.298   1.026   5.410  0.0144 -0.2973  0.6235
  553THF     C211278   2.245   1.132   5.329 -0.4465 -0.1687  0.0919
  553THF     C311279   2.424   0.998   5.352  0.5183  0.0064 -0.2359
  553THF     H411280   2.294   1.217   5.375 -0.4354 -1.3908  2.4777
  553THF     H511281   2.140   1.152   5.351  0.2249  1.6733  1.9275
  553THF     H611282   2.489   1.075   5.393 -0.6368  1.2266 -0.6087
  553THF     H711283   2.463   0.898   5.370 -1.2206 -0.8865 -1.2143
  553THF     C811284   2.404   1.004   5.208 -0.5745 -0.3329  0.3604
  553THF     C911285   2.296   1.112   5.183  0.3535 -0.0940 -0.7744
  553THF    H1011286   2.362   0.912   5.169 -0.4007  1.0031 -3.4619
  553THF    H1111287   2.493   1.041   5.156  0.3931  1.2765  2.9291
  553THF    H1211288   2.330   1.207   5.141 -0.5538  0.4557 -0.3229
  553THF    H1311289   2.210   1.068   5.132 -0.1549 -1.6111  1.2744
  554THF     O111290   4.030   4.134   4.782 -0.4793  0.5113 -0.2381
  554THF     C211291   4.104   4.032   4.718  0.5979  0.8871  0.5729
  554THF     C311292   3.892   4.128   4.750  0.1193  0.4195  0.0413
  554THF     H411293   4.138   3.958   4.790  0.4349 -1.3960 -1.5704
  554THF     H511294   4.191   4.071   4.666  1.0800 -0.0742  0.6340
  554THF     H611295   3.821   4.143   4.831  1.7673 -0.9666  1.8596
  554THF     H711296   3.879   4.213   4.684 -1.2341 -0.0450 -0.3104
  554THF     C811297   3.867   3.998   4.690 -0.9080  0.4322  0.4662
  554THF     C911298   4.003   3.964   4.629 -0.1420 -0.4614 -0.3929
  554THF    H1011299   3.784   3.997   4.619 -0.4924  1.4545 -0.0545
  554THF    H1111300   3.847   3.917   4.761 -3.3492 -1.5499 -2.2528
  554THF    H1211301   4.017   3.858   4.611  0.6985 -0.6198  1.0439
  554THF    H1311302   4.020   4.021   4.537  2.7372  1.8220  1.3639
  555THF     O111303   1.801   4.269   3.237  0.3744 -0.2978 -0.5102
  555THF     C211304   1.825   4.315   3.374  0.2146  0.1687  0.0594
  555THF     C311305   1.728   4.145   3.243 -0.3785 -0.1132  0.0170
  555THF     H411306   1.835   4.422   3.390 -0.1072  0.2595 -0.3372
  555THF     H511307   1.923   4.272   3.394 -0.3861 -1.3224  0.0067
  555THF     H611308   1.686   4.126   3.145  1.2442  0.3096 -0.8074
  555THF     H711309   1.797   4.065   3.270 -1.8128 -1.6521 -0.7720
  555THF     C811310   1.632   4.163   3.360  0.3099 -0.0628 -0.0376
  555THF     C911311   1.705   4.259   3.454 -0.1037  0.2922  0.9884
  555THF    H1011312   1.609   4.074   3.419 -3.3551  0.2522 -0.7651
  555THF    H1111313   1.538   4.205   3.324  1.1596  2.7756  0.8092
  555THF    H1211314   1.648   4.341   3.498  0.1007 -0.2201  2.2401
  555THF    H1311315   1.744   4.206   3.541  1.7599 -2.5959 -1.3834
  556THF     O111316   2.330   5.258   2.598 -0.4781  0.1055  0.5049
  556THF     C211317   2.225   5.163   2.566 -0.2785 -0.1624  0.1108
  556THF     C311318   2.441   5.171   2.635 -0.3273 -0.0579  0.1535
  556THF     H411319   2.136   5.206   2.521  1.9979  2.3389 -2.3800
  556THF     H511320   2.191   5.125   2.663 -1.8823  0.4736 -0.1804
  556THF     H611321   2.536   5.224   2.633  0.2827 -1.0615  1.2500
  556THF     H711322   2.425   5.146   2.740 -0.9321  1.1952  0.3884
  556THF     C811323   2.449   5.069   2.524  0.5624 -0.6899  0.1747
  556THF     C911324   2.306   5.056   2.481  0.2870 -0.2637  0.4708
  556THF    H1011325   2.493   4.974   2.553  1.1913 -0.4960 -0.1222
  556THF    H1111326   2.503   5.108   2.438  0.2057 -2.9438 -1.1488
  556THF    H1211327   2.295   5.077   2.375 -0.8888 -0.9904  0.4328
  556THF    H1311328   2.260   4.960   2.503 -0.6833 -0.0227 -0.4142
  557THF     O111329   0.652   4.222   2.263  0.3068  0.8567 -0.5699
  557THF     C211330   0.790   4.227   2.268 -0.4705 -0.8501 -0.0557
  557THF     C311331   0.603   4.148   2.159  0.0172  0.0827  0.7898
  557THF     H411332   0.826   4.130   2.303 -0.2963 -1.2623 -1.3245
  557THF     H511333   0.837   4.304   2.329  2.7293 -1.4455 -1.5770
  557THF     H611334   0.586   4.043   2.180 -1.3249 -0.1990 -1.4334
  557THF     H711335   0.500   4.165   2.130  0.0529 -1.3041 -0.2314
  557THF     C811336   0.703   4.182   2.048 -0.2898 -0.0226  0.1458
  557THF     C911337   0.809   4.255   2.125 -0.0043  0.3187  0.3720
  557THF    H1011338   0.652   4.223   1.960 -0.1566 -1.2818 -0.5508
  557THF    H1111339   0.734   4.084   2.011 -1.1584 -0.8318  1.4982
  557THF    H1211340   0.909   4.235   2.086 -0.2051 -0.5146  0.2705
  557THF    H1311341   0.787   4.362   2.117 -0.8236  0.1131 -0.2050
  558THF     O111342   0.951   5.424   4.685 -0.5120  0.0802 -0.1542
  558THF     C211343   0.906   5.346   4.580  0.7012  0.3960  0.4162
  558THF     C311344   0.881   5.549   4.692  0.0679 -0.5060 -0.0846
  558THF     H411345   0.913   5.242   4.611 -1.1406  0.3622  0.8317
  558THF     H511346   0.981   5.360   4.502 -0.5178  1.0377 -0.6630
  558THF     H611347   0.826   5.546   4.786  0.2436  0.3980  0.0568
  558THF     H711348   0.936   5.642   4.702  0.3087 -0.4930 -1.3597
  558THF     C811349   0.795   5.552   4.572  0.6967  0.1966  0.0648
  558THF     C911350   0.773   5.404   4.543 -0.7633 -0.7174  0.1165
  558THF    H1011351   0.846   5.618   4.502  2.6785 -0.4550  0.8239
  558THF    H1111352   0.698   5.598   4.591  1.4739  1.8269  0.2794
  558THF    H1211353   0.695   5.368   4.610 -0.9953  0.6113  0.5959
  558THF    H1311354   0.765   5.382   4.437  0.4358  1.5023 -0.4953
  559THF     O111355   5.149   2.566   0.814  1.0643 -0.1216 -0.4553
  559THF     C211356   5.221   2.462   0.879  0.2139 -0.0483  0.4989
  559THF     C311357   5.133   2.535   0.677 -0.1413 -0.1003  0.3568
  559THF     H411358   5.217   2.467   0.988  0.3136 -2.3913  0.6654
  559THF     H511359   5.322   2.452   0.840 -0.4760  0.8222 -1.6793
  559THF     H611360   5.037   2.577   0.648  0.1588  0.6902  0.4947
  559THF     H711361   5.217   2.576   0.621 -1.1125  1.3018 -0.1258
  559THF     C811362   5.124   2.378   0.670  0.1424 -0.2201 -0.5933
  559THF     C911363   5.139   2.348   0.821 -0.2097  0.4376  0.2292
  559THF    H1011364   5.206   2.332   0.615 -1.0194 -1.3466 -1.4412
  559THF    H1111365   5.035   2.339   0.620 -0.3754  1.2065 -0.8469
  559THF    H1211366   5.042   2.351   0.869 -1.2882 -0.6190 -1.7571
  559THF    H1311367   5.179   2.249   0.843 -2.5056 -0.1841  2.0144
  560THF     O111368   1.510   0.748   0.935  0.6270 -0.8384 -0.1072
  560THF     C211369   1.576   0.854   0.870 -0.4173 -0.0643 -0.1505
  560THF     C311370   1.563   0.623   0.899 -0.7490 -0.3734  0.5546
  560THF     H411371   1.651   0.896   0.938 -2.1692  3.0886  0.0593
  560THF     H511372   1.514   0.938   0.837  1.7184  1.4456 -0.5734
  560THF     H611373   1.605   0.582   0.991 -1.1359  0.6392  1.2083
  560THF     H711374   1.509   0.550   0.838  1.9814 -1.4582 -0.7021
  560THF     C811375   1.682   0.651   0.809 -0.1352 -0.0369  0.0504
  560THF     C911376   1.645   0.791   0.751  0.4272  0.1395 -0.2254
  560THF    H1011377   1.698   0.578   0.730  0.1728  0.5915 -0.4717
  560THF    H1111378   1.773   0.648   0.869  1.8487  0.8567 -2.7239
  560THF    H1211379   1.737   0.844   0.726 -0.1993  1.2322 -0.2579
  560THF    H1311380   1.583   0.785   0.662  0.6092  2.6969 -0.5823
  561THF     O111381   3.123   1.416   0.414 -0.2844  0.5669 -0.0863
  561THF     C211382   3.089   1.536   0.344  0.2188  0.2009  0.4902
  561THF     C311383   3.256   1.384   0.389 -0.6423  0.3912  0.0049
  561THF     H411384   3.074   1.614   0.419  0.3429  2.7326 -1.9493
  561THF     H511385   2.997   1.518   0.289  1.3111 -0.5387 -1.2022
  561THF     H611386   3.328   1.425   0.460  0.7057  0.9254 -1.6077
  561THF     H711387   3.271   1.276   0.396 -3.2500  0.0633  1.9507
  561THF     C811388   3.281   1.430   0.247  0.0791 -0.0333  0.6326
  561THF     C911389   3.201   1.562   0.250  0.0166 -0.7370 -0.0781
  561THF    H1011390   3.235   1.364   0.174 -0.8567  1.1492  0.1260
  561THF    H1111391   3.386   1.444   0.222  0.1489 -0.8843  0.4308
  561THF    H1211392   3.271   1.636   0.289 -0.5823  0.3407 -0.9795
  561THF    H1311393   3.174   1.607   0.155 -0.6386 -2.0520 -0.5397
  562THF     O111394   3.928   2.639   0.940 -0.2125 -0.1049 -0.0126
  562THF     C211395   3.919   2.712   1.063  0.5428  0.3143  0.5681
  562THF     C311396   3.828   2.543   0.925  1.1493 -0.2700 -0.4427
  562THF     H411397   3.966   2.810   1.061  0.2661  0.4560 -2.2121
  562THF     H511398   3.962   2.644   1.137 -0.8001 -1.1383  0.0858
  562THF     H611399   3.810   2.529   0.818  0.3220  1.3403 -0.5446
  562THF     H711400   3.856   2.447   0.969 -0.2443 -0.3848  0.2577
  562THF     C811401   3.714   2.606   1.000  0.5026  0.0487 -0.4603
  562THF     C911402   3.763   2.732   1.070  0.4746  0.2668 -0.0043
  562THF    H1011403   3.688   2.540   1.083 -0.5650  0.1173 -0.7166
  562THF    H1111404   3.624   2.609   0.938  1.2816 -0.8614 -1.6934
  562THF    H1211405   3.727   2.818   1.012 -3.0651 -0.6188  0.6602
  562THF    H1311406   3.730   2.746   1.173 -1.6418 -2.6988 -0.1747
  563THF     O111407   0.778   0.178   1.923 -0.4147  0.1597  0.2691
  563THF     C211408   0.886   0.167   2.014 -0.6219 -0.1906  0.0700
  563THF     C311409   0.674   0.092   1.961  0.8313  0.2205  0.6139
  563THF     H411410   0.955   0.252   2.010  0.2468 -0.7505  1.9717
  563THF     H511411   0.941   0.076   1.993 -1.7739 -0.7605 -0.5597
  563THF     H611412   0.574   0.117   1.925  1.1271  0.3799 -0.1125
  563THF     H711413   0.695  -0.006   1.920 -0.6885  0.4135 -0.7219
  563THF     C811414   0.676   0.089   2.106 -0.5549 -0.7069  0.1856
  563THF     C911415   0.815   0.147   2.146  0.0314  0.5307 -0.3325
  563THF    H1011416   0.655  -0.015   2.131 -0.1070 -0.8109  0.1465
  563THF    H1111417   0.592   0.146   2.147 -0.2882 -2.1856  3.0296
  563THF    H1211418   0.795   0.247   2.185 -0.5990 -0.4107  1.9247
  563THF    H1311419   0.866   0.092   2.225  0.2539  3.2403  1.5609
  564THF     O111420   0.918   5.322   2.089 -0.1334  0.6407 -0.4338
  564THF     C211421   0.865   5.194   2.130 -0.4380  0.7538  0.1087
  564THF     C311422   0.961   5.302   1.956 -0.0673 -0.2147 -0.3046
  564THF     H411423   0.767   5.180   2.084  0.6160  0.0265 -2.0803
  564THF     H511424   0.858   5.175   2.237  1.2963 -0.0910  0.1164
  564THF     H611425   0.859   5.298   1.919 -0.9996  3.6427  1.3170
  564THF     H711426   1.025   5.380   1.914  1.8226 -0.2443  2.3027
  564THF     C811427   1.033   5.163   1.961 -0.0842 -0.3676 -0.5001
  564THF     C911428   0.961   5.094   2.080  0.2202  0.9639  1.0001
  564THF    H1011429   1.139   5.177   1.980 -0.3555  0.5937  0.3958
  564THF    H1111430   1.027   5.099   1.873 -1.5699 -1.1515  0.1487
  564THF    H1211431   0.920   4.994   2.065 -0.2613  1.0533  1.7179
  564THF    H1311432   1.036   5.079   2.158 -0.4378  0.2855  1.5155
  565THF     O111433   3.113   2.379   2.528  0.2490 -0.1585  0.1385
  565THF     C211434   3.160   2.308   2.413 -0.9671 -0.1950  0.1086
  565THF     C311435   3.221   2.418   2.611 -0.8725 -0.3152 -0.4168
  565THF     H411436   3.175   2.376   2.329  0.8518 -1.3716 -0.5802
  565THF     H511437   3.080   2.238   2.389 -0.3359 -1.1981  0.8357
  565THF     H611438   3.266   2.512   2.578  1.1261 -1.2781 -0.5706
  565THF     H711439   3.192   2.418   2.717 -5.2528 -1.9441 -1.3856
  565THF     C811440   3.321   2.305   2.591  0.2762  0.4667  0.0289
  565THF     C911441   3.294   2.249   2.452  0.5035  0.1058 -1.0904
  565THF    H1011442   3.301   2.228   2.666 -0.6397  0.6356 -0.0385
  565THF    H1111443   3.424   2.339   2.597  0.1159  1.2546 -1.3992
  565THF    H1211444   3.370   2.273   2.378  1.1546 -0.2967 -0.5681
  565THF    H1311445   3.292   2.141   2.461 -0.2932  0.2748  1.8165
  566THF     O111446   2.966   0.907   0.263  0.2855 -0.0381 -0.0017
  566THF     C211447   2.919   0.845   0.142 -0.1505  0.3969  0.6058
  566THF     C311448   3.008   1.038   0.229 -0.6625  0.0774 -0.5307
  566THF     H411449   2.844   0.769   0.160  0.3608  0.1024  1.5791
  566THF     H511450   2.998   0.808   0.077 -0.4320  0.6685  0.1043
  566THF     H611451   3.018   1.105   0.315  2.2834 -1.7566  0.7168
  566THF     H711452   3.107   1.032   0.184 -1.3424 -1.6637 -1.8816
  566THF     C811453   2.901   1.083   0.130  0.2533  0.1129 -0.0063
  566THF     C911454   2.859   0.955   0.065 -0.6853 -0.3860  0.5146
  566THF    H1011455   2.935   1.162   0.064  0.7414 -0.8399 -0.9252
  566THF    H1111456   2.816   1.126   0.184 -0.4189 -1.3971  0.1860
  566THF    H1211457   2.751   0.968   0.058 -0.6952  0.0984  1.4786
  566THF    H1311458   2.899   0.957  -0.037  1.3550  1.5139  1.2728
  567THF     O111459   4.554   3.654   1.874  0.0889 -0.3321 -0.0134
  567THF     C211460   4.583   3.792   1.859  0.5603 -0.1183 -0.2408
  567THF     C311461   4.652   3.597   1.963  0.1288 -0.3170 -0.3095
  567THF     H411462   4.483   3.837   1.860  0.3743 -0.4848 -1.4429
  567THF     H511463   4.640   3.815   1.770  0.2432  1.8362  0.0157
  567THF     H611464   4.619   3.507   2.015  0.8687 -1.6456 -2.0440
  567THF     H711465   4.735   3.573   1.896 -0.1223  1.9690 -1.5455
  567THF     C811466   4.708   3.707   2.058 -0.5782 -1.1034 -0.7332
  567THF     C911467   4.641   3.830   1.995  0.7614 -0.2959  0.6163
  567THF    H1011468   4.816   3.705   2.041 -0.2975  1.6824  0.2529
  567THF    H1111469   4.681   3.697   2.163  0.6734 -0.4815 -0.3278
  567THF    H1211470   4.565   3.877   2.057  0.6755  0.3191  0.0535
  567THF    H1311471   4.720   3.904   1.979  1.4808 -1.3555 -0.9932
  568THF     O111472   3.215   1.554   5.239 -0.0741  0.2492 -0.2637
  568THF     C211473   3.336   1.523   5.183  0.7267  0.2068  0.3259
  568THF     C311474   3.246   1.599   5.372 -0.1285 -0.3155 -0.7784
  568THF     H411475   3.325   1.504   5.076 -1.4060 -0.9819  0.6963
  568THF     H511476   3.376   1.444   5.246 -1.6698 -1.0005  0.4494
  568THF     H611477   3.158   1.655   5.401  0.2388  0.7798 -1.6675
  568THF     H711478   3.265   1.524   5.449 -0.1259  1.2509  0.8023
  568THF     C811479   3.370   1.692   5.336 -0.4899  0.6718 -0.6714
  568THF     C911480   3.426   1.643   5.202  1.2611 -0.1922  0.5202
  568THF    H1011481   3.439   1.683   5.420  0.4725  0.0285 -1.5215
  568THF    H1111482   3.344   1.798   5.336  0.1268  0.8841  1.8688
  568THF    H1211483   3.406   1.718   5.125  2.1641 -0.6900 -0.2198
  568THF    H1311484   3.533   1.623   5.201  1.2073 -0.5484 -1.1830
  569THF     O111485   4.892   3.853   3.300  0.6243  0.3918 -0.2408
  569THF     C211486   4.885   3.981   3.250 -0.4318 -0.3605  0.2554
  569THF     C311487   5.025   3.789   3.276  0.3144  0.3077  0.5069
  569THF     H411488   4.908   4.054   3.328  1.0316 -0.2544 -0.2433
  569THF     H511489   4.785   4.010   3.218 -0.2699  0.6172  0.6160
  569THF     H611490   5.085   3.827   3.358  1.5294 -1.1509  0.3358
  569THF     H711491   5.015   3.680   3.280 -1.3689  0.4483  0.8326
  569THF     C811492   5.070   3.845   3.143  0.4818  0.4654  0.0577
  569THF     C911493   4.996   3.977   3.136 -0.1392 -0.2166  0.3687
  569THF    H1011494   5.046   3.766   3.071  1.8560  0.7241 -0.7191
  569THF    H1111495   5.177   3.855   3.127  0.6720  1.6211  1.8228
  569THF    H1211496   5.064   4.056   3.165  2.2757 -1.9165 -0.3817
  569THF    H1311497   4.958   4.004   3.038 -0.3548  0.2160  0.5678
  570THF     O111498   2.386   2.222   4.011  0.2709 -0.0256 -0.2203
  570THF     C211499   2.357   2.213   3.868  0.2856 -0.4310  0.5467
  570THF     C311500   2.290   2.315   4.063  0.1727 -0.4404 -0.0633
  570THF     H411501   2.289   2.128   3.862  0.7436 -0.8257  0.8008
  570THF     H511502   2.452   2.184   3.823  0.2010  0.3806 -0.1749
  570THF     H611503   2.193   2.265   4.065 -0.8672  1.4362 -0.7381
  570THF     H711504   2.325   2.350   4.160  0.1488  2.6730 -1.0859
  570THF     C811505   2.284   2.420   3.952 -0.2166 -1.0871  0.0472
  570THF     C911506   2.300   2.340   3.826  0.2012  0.2121  0.4116
  570THF    H1011507   2.372   2.485   3.959  0.4753 -1.6087 -2.5321
  570THF    H1111508   2.194   2.480   3.965  0.9689  0.6535  0.5662
  570THF    H1211509   2.202   2.323   3.780  0.8549  0.0296 -0.9571
  570THF    H1311510   2.361   2.378   3.744  1.6847 -0.1576  1.3053
  571THF     O111511   4.262   5.263   3.866  0.6119 -0.3590 -0.0207
  571THF     C211512   4.215   5.134   3.822  0.0359 -0.3799 -0.0885
  571THF     C311513   4.388   5.246   3.930 -0.5594 -0.0171 -0.3059
  571THF     H411514   4.140   5.139   3.743 -0.6202 -1.8271  0.4252
  571THF     H511515   4.186   5.054   3.889  1.2815  0.2322  1.2351
  571THF     H611516   4.444   5.339   3.922 -1.7312  0.7070 -0.3247
  571THF     H711517   4.373   5.229   4.037  3.1569 -0.8459  0.2206
  571THF     C811518   4.449   5.128   3.858  0.1107 -0.2923  0.5994
  571THF     C911519   4.344   5.089   3.756 -0.1367  0.2995 -0.0197
  571THF    H1011520   4.473   5.066   3.944  1.0141 -0.7894  0.0046
  571THF    H1111521   4.548   5.142   3.816  0.5301 -2.6536  0.6655
  571THF    H1211522   4.356   5.139   3.661 -0.2077 -0.6770 -0.5567
  571THF    H1311523   4.352   4.981   3.743  1.8027  0.2437  1.2393
  572THF     O111524   2.008   4.124   0.639  0.4797  0.0425 -0.2844
  572THF     C211525   1.889   4.165   0.715 -0.1998 -0.0191 -0.2187
  572THF     C311526   2.110   4.215   0.673 -0.5888  0.0802  0.0713
  572THF     H411527   1.885   4.147   0.822 -1.5639 -0.7241 -0.3696
  572THF     H511528   1.804   4.115   0.669  0.0729 -2.0517  1.3511
  572THF     H611529   2.155   4.188   0.768  0.6571 -1.2218 -0.8372
  572THF     H711530   2.188   4.214   0.597 -0.5467 -0.0140  0.1155
  572THF     C811531   2.040   4.348   0.688  0.1581  0.4527 -0.0506
  572THF     C911532   1.895   4.312   0.697 -0.3432 -0.5090  0.6099
  572THF    H1011533   2.067   4.414   0.605  2.0295 -0.4925 -0.2646
  572THF    H1111534   2.069   4.406   0.776 -3.2997  1.2199  0.7055
  572THF    H1211535   1.844   4.369   0.774 -1.4833  0.4916 -0.8473
  572THF    H1311536   1.855   4.344   0.602 -1.9595 -0.7540  1.1803
  573THF     O111537   2.105   4.807   4.163 -0.0577 -0.8721 -0.7481
  573THF     C211538   2.000   4.900   4.163 -0.2000 -0.3061  0.3029
  573THF     C311539   2.061   4.709   4.066 -0.3707 -1.1655 -0.3472
  573THF     H411540   2.024   4.991   4.218 -1.0206  0.6082 -0.8000
  573THF     H511541   1.916   4.853   4.213  0.1982 -3.0163 -1.3419
  573THF     H611542   2.151   4.657   4.035 -0.9119 -1.8789 -0.7352
  573THF     H711543   1.975   4.650   4.099  0.2484 -2.8827 -1.6864
  573THF     C811544   2.008   4.802   3.951  0.5180  0.0678 -0.0842
  573THF     C911545   1.973   4.935   4.018 -0.4187  0.2932  0.2184
  573THF    H1011546   1.921   4.768   3.895  0.8341  0.6270 -0.9354
  573THF    H1111547   2.084   4.820   3.875  0.2167 -2.0255 -0.9441
  573THF    H1211548   2.046   5.009   3.985 -0.2498 -0.1637 -0.4485
  573THF    H1311549   1.872   4.967   3.995 -0.2668 -0.3288 -1.4625
  574THF     O111550   4.780   3.277   0.032 -0.6866  0.2040 -0.2275
  574THF     C211551   4.673   3.231   0.114 -0.3688  0.2016 -0.4687
  574THF     C311552   4.768   3.192  -0.075 -0.3671  0.7351 -0.0434
  574THF     H411553   4.573   3.260   0.081 -0.8707  0.1138  0.9138
  574THF     H511554   4.676   3.260   0.219  2.3910 -3.1450  0.5776
  574THF     H611555   4.686   3.223  -0.140 -1.1774  0.1935  0.6974
  574THF     H711556   4.853   3.202  -0.144 -0.2059  1.3810  0.2403
  574THF     C811557   4.760   3.048  -0.018  0.2350  0.3053  1.0221
  574THF     C911558   4.677   3.076   0.106 -0.5459  0.2161  0.5073
  574THF    H1011559   4.864   3.026   0.006  0.7163 -0.1021 -1.2721
  574THF    H1111560   4.743   2.966  -0.087 -0.0118 -0.8099  2.3527
  574THF    H1211561   4.575   3.038   0.098 -0.0248 -1.5333  1.5769
  574THF    H1311562   4.727   3.022   0.187 -2.5902 -1.0035  1.0207
  575THF     O111563   1.329   1.598   3.353 -0.4154 -0.0957  0.4021
  575THF     C211564   1.209   1.663   3.390 -0.8120 -0.1504  0.3507
  575THF     C311565   1.440   1.681   3.385  0.6553  0.1896 -0.1635
  575THF     H411566   1.127   1.598   3.420 -3.2515  3.9407  3.4851
  575THF     H511567   1.168   1.728   3.312  1.6946 -0.2028 -1.1345
  575THF     H611568   1.520   1.624   3.430 -0.0667  0.2044  1.1780
  575THF     H711569   1.466   1.734   3.293 -0.2548 -0.1101 -0.6114
  575THF     C811570   1.390   1.784   3.480 -0.6916  0.0483  0.6982
  575THF     C911571   1.253   1.737   3.521 -0.0048  0.1290 -0.7620
  575THF    H1011572   1.373   1.877   3.426 -0.2477 -0.7951 -0.9610
  575THF    H1111573   1.448   1.786   3.572 -0.7279  0.3327  0.7162
  575THF    H1211574   1.268   1.684   3.615 -3.2895  1.0843  0.4346
  575THF    H1311575   1.184   1.817   3.547  0.7967  0.5211  0.2275
  576THF     O111576   0.255   2.819   3.149 -0.5248  0.2690  0.3785
  576THF     C211577   0.161   2.882   3.235  0.4942 -0.0314  0.2259
  576THF     C311578   0.258   2.682   3.170 -0.1279 -0.5066 -0.0274
  576THF     H411579   0.120   2.971   3.187 -2.3526 -0.7564  1.1301
  576THF     H511580   0.196   2.917   3.333 -0.9014  0.5409  0.5489
  576THF     H611581   0.294   2.624   3.085  1.9715 -0.6480  0.8936
  576THF     H711582   0.315   2.657   3.260 -0.3273  2.0981  0.9075
  576THF     C811583   0.113   2.647   3.193  0.4372  0.9205  0.4448
  576THF     C911584   0.048   2.776   3.246 -1.1191  0.1974  0.1863
  576THF    H1011585   0.112   2.588   3.285  1.9168  1.4733  0.8482
  576THF    H1111586   0.058   2.599   3.112 -1.5365 -0.0020  2.2143
  576THF    H1211587  -0.027   2.792   3.168  0.3390 -1.4159 -1.6384
  576THF    H1311588  -0.004   2.772   3.342 -2.3180  3.1150 -0.2244
  577THF     O111589   0.354   5.381   5.040  0.1145 -0.1201  0.1328
  577THF     C211590   0.270   5.463   5.122  0.5630  0.8607 -0.1355
  577THF     C311591   0.478   5.435   5.058 -0.8858  0.4183 -0.0460
  577THF     H411592   0.272   5.419   5.222  2.1214  0.1298 -0.4534
  577THF     H511593   0.170   5.463   5.079 -0.1831 -0.0042  1.4855
  577THF     H611594   0.528   5.396   5.147 -1.5907 -2.6896 -0.8862
  577THF     H711595   0.537   5.409   4.970 -0.8599  1.0967 -0.2347
  577THF     C811596   0.465   5.584   5.062  0.2533  0.0118 -0.2764
  577THF     C911597   0.327   5.609   5.111 -0.4481  0.7945 -0.0513
  577THF    H1011598   0.485   5.631   4.965 -1.2843  0.3846 -0.4332
  577THF    H1111599   0.536   5.625   5.134  0.0339 -2.1383  1.2712
  577THF    H1211600   0.335   5.661   5.207 -0.3633  1.0789 -0.2125
  577THF    H1311601   0.273   5.668   5.038 -0.3465 -0.4326 -1.1607
  578THF     O111602   0.233   4.131   5.150  0.0462 -0.5165  0.2785
  578THF     C211603   0.091   4.150   5.140  0.1098  0.2964 -0.6978
  578THF     C311604   0.254   4.084   5.282  0.2221  0.0458 -0.2649
  578THF     H411605   0.025   4.065   5.123 -0.4370  0.9127 -1.7462
  578THF     H511606   0.065   4.224   5.064  2.3253  1.3087 -0.5606
  578THF     H611607   0.274   3.977   5.287 -2.4798 -0.5159  0.2205
  578THF     H711608   0.341   4.133   5.325 -0.0055 -0.5860  0.9579
  578THF     C811609   0.136   4.134   5.369  0.1216  0.6807 -0.3984
  578THF     C911610   0.058   4.209   5.271  0.0549 -0.2960 -0.3574
  578THF    H1011611   0.172   4.194   5.452  0.4649 -0.6173  0.4144
  578THF    H1111612   0.080   4.047   5.402  0.6567  0.2504 -0.6038
  578THF    H1211613  -0.050   4.213   5.283  0.2735 -0.0872  1.9977
  578THF    H1311614   0.094   4.312   5.276  1.7579 -0.9105  1.6011
  579THF     O111615   2.752   4.549   0.273  0.2188 -0.2668  0.8746
  579THF     C211616   2.628   4.596   0.218  0.1416  0.1250 -0.1000
  579THF     C311617   2.719   4.491   0.389 -0.5207  0.2629 -0.5261
  579THF     H411618   2.631   4.636   0.117 -1.4311  0.2725 -0.1031
  579THF     H511619   2.597   4.684   0.273 -0.5099  0.3062 -0.7379
  579THF     H611620   2.797   4.425   0.428 -0.5523 -0.0395 -0.9738
  579THF     H711621   2.697   4.560   0.471 -0.4493 -1.5354  1.0806
  579THF     C811622   2.603   4.405   0.356 -0.7502  0.6289  0.7318
  579THF     C911623   2.535   4.481   0.242 -0.0570  0.5383  0.0858
  579THF    H1011624   2.539   4.354   0.428 -0.3521 -1.1846 -0.1579
  579THF    H1111625   2.654   4.323   0.306  0.9249  1.7697  0.4827
  579THF    H1211626   2.523   4.429   0.147  1.2691 -2.3829  1.3916
  579THF    H1311627   2.441   4.522   0.279 -0.2016  0.6128 -0.3506
  580THF     O111628   2.447   1.920   0.268  0.0018  0.3131  0.3373
  580THF     C211629   2.580   1.869   0.299  0.4206 -0.5913  0.1356
  580THF     C311630   2.442   1.947   0.132  0.5649 -0.0099  0.7081
  580THF     H411631   2.583   1.817   0.394  0.3530  1.7415  1.4735
  580THF     H511632   2.643   1.957   0.303 -0.1912 -0.1527  4.5583
  580THF     H611633   2.338   1.935   0.106  0.4401 -0.1460  1.2429
  580THF     H711634   2.466   2.054   0.130  1.7767 -0.2736 -0.8022
  580THF     C811635   2.543   1.842   0.070  0.2312 -0.1316  0.0927
  580THF     C911636   2.603   1.773   0.189  0.3725 -0.2485 -0.5119
  580THF    H1011637   2.629   1.890   0.024  1.5663 -1.4607  1.0961
  580THF    H1111638   2.505   1.774  -0.006 -1.5234  1.3326 -0.4211
  580THF    H1211639   2.550   1.680   0.210  1.1388 -0.7225 -0.6570
  580THF    H1311640   2.706   1.749   0.164 -0.3958 -2.6497 -1.6660
  581THF     O111641   0.494   0.720   2.013 -0.0647 -0.7285  0.0287
  581THF     C211642   0.571   0.608   1.985  0.2121 -1.0413 -0.2191
  581THF     C311643   0.383   0.672   2.088 -0.0923 -0.2835  0.2334
  581THF     H411644   0.618   0.575   2.078 -0.5840  1.3474  1.0877
  581THF     H511645   0.651   0.616   1.910  2.5102 -0.7172  2.1353
  581THF     H611646   0.404   0.663   2.194 -3.5276  0.3692  1.0942
  581THF     H711647   0.303   0.746   2.082  0.3879  0.1885 -0.5756
  581THF     C811648   0.341   0.542   2.010  1.0245 -0.0331 -0.1168
  581THF     C911649   0.468   0.497   1.949 -0.2087 -0.5058 -0.4658
  581THF    H1011650   0.274   0.556   1.926 -0.3303 -0.7958  0.8015
  581THF    H1111651   0.307   0.464   2.078 -0.6540  0.7209 -0.0454
  581THF    H1211652   0.501   0.400   1.985  0.4054  0.5469  2.1220
  581THF    H1311653   0.464   0.484   1.841  0.0453  0.5722 -0.6251
  582THF     O111654   0.598   3.388   4.073  0.6950 -0.4853  0.2111
  582THF     C211655   0.471   3.436   4.118  0.0301 -0.3607  0.2947
  582THF     C311656   0.646   3.504   4.002  0.5017  0.1704  0.2308
  582THF     H411657   0.490   3.513   4.193  0.2870  2.3199 -2.3603
  582THF     H511658   0.408   3.351   4.148 -1.2061  0.0987 -0.9316
  582THF     H611659   0.681   3.580   4.072 -1.6705  2.0379 -0.5868
  582THF     H711660   0.729   3.480   3.935  0.0421  1.2266 -0.7602
  582THF     C811661   0.526   3.564   3.931  0.2841 -0.0186 -0.2581
  582THF     C911662   0.400   3.501   3.999 -0.6872  0.2354 -0.0563
  582THF    H1011663   0.537   3.505   3.840  1.3497 -1.9264  1.0568
  582THF    H1111664   0.533   3.672   3.916 -1.5719  0.2862  0.7307
  582THF    H1211665   0.322   3.567   4.039 -0.3642 -1.2091  3.2555
  582THF    H1311666   0.358   3.425   3.933 -0.7360  1.1495 -1.1213
  583THF     O111667   0.816   4.812   3.700  0.0758  0.0168  0.5852
  583THF     C211668   0.826   4.853   3.838  0.2544 -0.4088  0.3416
  583THF     C311669   0.759   4.920   3.623  0.2439  0.1884  0.0119
  583THF     H411670   0.928   4.893   3.843  0.3340 -0.5588 -0.0479
  583THF     H511671   0.814   4.770   3.908  0.4552  0.8921  1.9688
  583THF     H611672   0.830   4.970   3.558  0.7330 -0.1341  0.2931
  583THF     H711673   0.699   4.874   3.544  4.4904 -1.4205 -2.6397
  583THF     C811674   0.679   5.006   3.721 -0.8071  0.5604  0.3963
  583THF     C911675   0.735   4.976   3.860  0.2415  0.4131  0.1276
  583THF    H1011676   0.577   4.966   3.715 -0.3549 -0.4085 -2.3287
  583THF    H1111677   0.656   5.110   3.698 -1.1743  0.6666  1.2079
  583THF    H1211678   0.793   5.061   3.899 -0.5905  1.3806 -0.6775
  583THF    H1311679   0.659   4.952   3.934  1.4985  1.1705  1.7515
  584THF     O111680   3.818   1.815   4.400  0.0425 -0.6211  0.0135
  584THF     C211681   3.867   1.694   4.454 -0.6911  0.5558  0.3273
  584THF     C311682   3.755   1.777   4.286 -0.1284 -0.1081 -0.2163
  584THF     H411683   3.906   1.702   4.556  0.4908  0.6076 -0.1131
  584THF     H511684   3.952   1.661   4.394 -1.9390 -0.1908 -1.0909
  584THF     H611685   3.676   1.844   4.252 -0.8808 -1.4207 -1.1355
  584THF     H711686   3.834   1.769   4.211  0.5381  0.4111  0.4105
  584THF     C811687   3.687   1.641   4.321 -0.1619 -0.1422  0.4047
  584THF     C911688   3.766   1.595   4.438 -0.9465 -0.0388 -0.3228
  584THF    H1011689   3.660   1.573   4.240  0.2919 -0.2945  0.3779
  584THF    H1111690   3.590   1.673   4.361 -0.3756 -1.4858  1.0061
  584THF    H1211691   3.706   1.593   4.529 -1.6156  1.5657 -0.6953
  584THF    H1311692   3.808   1.497   4.414  1.0559  0.3454  1.3476
  585THF     O111693   5.302   3.414   3.252  0.1377  0.0414 -0.3443
  585THF     C211694   5.301   3.465   3.386 -0.3254 -0.5183  0.3175
  585THF     C311695   5.315   3.278   3.272  0.8856  0.6342  0.3778
  585THF     H411696   5.243   3.557   3.384 -2.3396 -1.6941  1.6128
  585THF     H511697   5.406   3.485   3.407  0.0581 -1.3910 -0.6859
  585THF     H611698   5.295   3.231   3.176  1.9095  3.8211 -1.5634
  585THF     H711699   5.418   3.257   3.300  0.7793 -0.7986 -0.2325
  585THF     C811700   5.221   3.235   3.384 -0.6601  0.1838  0.1489
  585THF     C911701   5.242   3.354   3.475  0.0798  0.2749  0.1364
  585THF    H1011702   5.247   3.142   3.436 -0.9062  0.0677  0.0658
  585THF    H1111703   5.123   3.222   3.338 -1.2610  0.5719  1.2676
  585THF    H1211704   5.149   3.390   3.519 -1.2987  0.4741 -2.7555
  585THF    H1311705   5.318   3.327   3.548  0.2647 -1.8362 -0.7720
  586THF     O111706   3.536   0.870   3.088  0.0554 -0.1729 -0.1895
  586THF     C211707   3.497   0.896   2.964  0.1688 -0.7774 -0.2268
  586THF     C311708   3.651   0.957   3.122  0.2098  0.3704 -0.4901
  586THF     H411709   3.401   0.855   2.930 -0.4563  0.1243  0.4026
  586THF     H511710   3.568   0.864   2.888 -1.5367  0.5812 -2.5407
  586THF     H611711   3.649   0.979   3.229 -0.8203 -1.7322 -0.0308
  586THF     H711712   3.748   0.923   3.084  0.2147  0.6946 -0.7711
  586THF     C811713   3.609   1.091   3.057  0.0874 -0.0031 -0.1631
  586THF     C911714   3.499   1.053   2.961  0.3880  0.3552  0.3916
  586THF    H1011715   3.691   1.148   3.014 -0.4318  2.4199  1.8356
  586THF    H1111716   3.572   1.155   3.137 -2.2781  0.1759 -1.3144
  586THF    H1211717   3.406   1.104   2.987  1.3426  2.0179  0.7514
  586THF    H1311718   3.520   1.092   2.861 -1.5882  0.8555  0.1300
  587THF     O111719   4.576   0.415   2.138  0.5246  0.1734 -0.2953
  587THF     C211720   4.521   0.526   2.204  0.0681  0.1501  0.2477
  587THF     C311721   4.529   0.301   2.209 -0.1290 -0.1083  0.5153
  587THF     H411722   4.512   0.611   2.137  0.7902 -0.6375 -0.8735
  587THF     H511723   4.577   0.557   2.293  0.5789  2.5868 -0.8328
  587THF     H611724   4.566   0.216   2.152  2.4601  1.1335  0.2124
  587THF     H711725   4.566   0.294   2.312 -0.1928  1.5876  0.6843
  587THF     C811726   4.380   0.338   2.214 -0.7706 -0.0181 -0.1217
  587THF     C911727   4.382   0.488   2.247 -0.1796 -0.2530 -0.6780
  587THF    H1011728   4.308   0.279   2.271 -1.3494  0.6561 -0.1477
  587THF    H1111729   4.336   0.334   2.114  0.4988 -0.1702 -0.6877
  587THF    H1211730   4.308   0.538   2.184  0.0608 -2.2191 -2.6546
  587THF    H1311731   4.358   0.523   2.347  0.4020 -2.8140  0.4443
  588THF     O111732   5.211   0.087   0.204  0.4078 -0.2475  0.5752
  588THF     C211733   5.188   0.150   0.334 -0.0189 -0.3834 -0.1827
  588THF     C311734   5.202   0.189   0.103 -0.6358  0.5378 -0.2374
  588THF     H411735   5.275   0.129   0.396 -1.1652 -1.2783  1.1960
  588THF     H511736   5.101   0.102   0.378 -0.7232 -0.4670 -1.5928
  588THF     H611737   5.269   0.164   0.020 -1.2787 -0.5760 -0.4406
  588THF     H711738   5.101   0.189   0.064 -1.5503 -0.9348  1.9275
  588THF     C811739   5.218   0.325   0.171 -0.1664  0.1366  0.3568
  588THF     C911740   5.165   0.301   0.312  0.3348 -0.2104 -0.3496
  588THF    H1011741   5.173   0.403   0.110  0.1230  1.5709  1.9038
  588THF    H1111742   5.324   0.350   0.166 -0.0446 -0.4145  0.1098
  588THF    H1211743   5.208   0.360   0.393  0.5608  1.2738 -1.4813
  588THF    H1311744   5.057   0.318   0.306  0.1321 -1.7857 -1.8242
  589THF     O111745   3.845   1.588   2.207  0.2906  0.0993 -0.1735
  589THF     C211746   3.935   1.603   2.314 -0.2877 -0.0406  0.1966
  589THF     C311747   3.711   1.627   2.257 -0.4541  0.4835 -0.2905
  589THF     H411748   3.961   1.709   2.316 -0.9067  0.1050  1.7511
  589THF     H511749   4.013   1.528   2.305 -0.7373 -0.5861  0.7670
  589THF     H611750   3.658   1.710   2.210 -0.5576 -0.0874 -1.2119
  589THF     H711751   3.662   1.531   2.236  3.1763 -2.0130  1.5368
  589THF     C811752   3.709   1.643   2.413 -0.0092  0.3433  0.3653
  589THF     C911753   3.846   1.572   2.439  0.6475  0.2127  0.3686
  589THF    H1011754   3.623   1.589   2.454 -0.1118  1.3019  1.4491
  589THF    H1111755   3.697   1.743   2.455 -0.3242  0.6036 -0.3185
  589THF    H1211756   3.897   1.604   2.530 -0.2684  3.3842 -0.1046
  589THF    H1311757   3.834   1.464   2.446 -0.9473  0.3021 -0.4724
  590THF     O111758   5.314   4.473   4.969 -0.2868 -0.7550 -0.0023
  590THF     C211759   5.225   4.426   4.871  0.3159  0.4085 -0.7228
  590THF     C311760   5.255   4.458   5.098  0.1818  0.6485 -0.2799
  590THF     H411761   5.283   4.418   4.780  3.1775  1.0343  0.9373
  590THF     H511762   5.142   4.497   4.861  1.4839  2.0034  0.4251
  590THF     H611763   5.326   4.460   5.181 -0.4442 -1.5939  0.3816
  590THF     H711764   5.181   4.536   5.115  0.5326  0.9152  0.0395
  590THF     C811765   5.192   4.319   5.092 -0.1545 -0.0419  0.3616
  590THF     C911766   5.182   4.294   4.938  0.5149  0.5958 -1.2179
  590THF    H1011767   5.097   4.305   5.143  0.2871  1.1795  1.5815
  590THF    H1111768   5.253   4.239   5.133 -2.8268 -0.4390  3.9898
  590THF    H1211769   5.246   4.210   4.911  0.6393  0.2916 -0.0366
  590THF    H1311770   5.084   4.266   4.899  1.6078  0.2900 -4.0030
  591THF     O111771   2.513   3.088   5.295 -0.1213  0.0587 -0.4509
  591THF     C211772   2.563   3.176   5.399  0.3645 -0.2237 -0.2090
  591THF     C311773   2.556   2.956   5.327  0.2470 -0.5738 -0.1748
  591THF     H411774   2.513   3.171   5.496 -0.1869  0.8328 -0.4284
  591THF     H511775   2.553   3.281   5.374 -0.2242 -0.4279 -0.8728
  591THF     H611776   2.487   2.919   5.403  1.4165 -0.2150  1.1080
  591THF     H711777   2.552   2.888   5.241  2.7936 -1.7345  0.5095
  591THF     C811778   2.693   2.974   5.390 -0.4581 -0.5064  0.2347
  591THF     C911779   2.710   3.124   5.407  0.7531 -0.0528 -0.3105
  591THF    H1011780   2.764   2.931   5.319 -0.6300  2.7386 -2.1622
  591THF    H1111781   2.688   2.909   5.478  1.9895 -1.8430 -0.5091
  591THF    H1211782   2.748   3.162   5.502 -0.5170  0.8861 -0.1587
  591THF    H1311783   2.771   3.160   5.324 -0.9385 -0.7368 -1.9171
  592THF     O111784   4.384   3.515   3.325  0.1826  0.1284  0.4952
  592THF     C211785   4.293   3.618   3.270 -0.6312  0.1077  0.1472
  592THF     C311786   4.517   3.556   3.308 -0.3695 -0.0955  0.8737
  592THF     H411787   4.296   3.699   3.344  0.9943 -0.8923  1.2512
  592THF     H511788   4.194   3.586   3.238 -0.3344 -0.5884 -0.1028
  592THF     H611789   4.540   3.632   3.382  2.0278 -0.2656  0.3572
  592THF     H711790   4.594   3.482   3.329 -1.6519 -1.9937 -0.7554
  592THF     C811791   4.515   3.627   3.170  0.1501  0.4982 -0.0422
  592THF     C911792   4.368   3.665   3.147 -0.4650 -0.3051  0.5552
  592THF    H1011793   4.539   3.556   3.091  0.9327 -0.8526  1.3521
  592THF    H1111794   4.580   3.714   3.179  0.2906  0.2750  1.3866
  592THF    H1211795   4.359   3.773   3.147 -1.5842 -0.2659  4.0744
  592THF    H1311796   4.324   3.611   3.063 -1.1111  0.0319  0.6758
  593THF     O111797   1.177   2.605   0.017  0.0330 -0.2303  0.0971
  593THF     C211798   1.206   2.465   0.038 -0.2579  0.1875  0.3696
  593THF     C311799   1.073   2.638   0.102 -0.9144 -0.1937 -0.0296
  593THF     H411800   1.280   2.450   0.117  0.9575  2.4301 -0.2440
  593THF     H511801   1.246   2.420  -0.053 -0.1981  0.5303  0.2260
  593THF     H611802   1.114   2.689   0.189 -1.6160 -0.4791  0.4785
  593THF     H711803   1.010   2.708   0.046 -3.6185 -3.9004 -2.0196
  593THF     C811804   1.008   2.509   0.138 -0.2713  0.5741  0.4080
  593THF     C911805   1.072   2.394   0.062 -0.0415  0.6494  0.5931
  593THF    H1011806   0.899   2.513   0.128 -0.2841  0.4709  0.4941
  593THF    H1111807   1.040   2.475   0.236  1.9047  0.7091 -0.2106
  593THF    H1211808   1.062   2.303   0.121  0.4326  0.0000 -0.3118
  593THF    H1311809   1.019   2.376  -0.031  0.5801  0.5947  0.2409
  594THF     O111810   4.760   2.685   1.118 -0.2012  0.1483 -0.1586
  594THF     C211811   4.887   2.622   1.154  0.3914  0.5099  0.1382
  594THF     C311812   4.661   2.590   1.137  0.0042 -0.0717 -0.0515
  594THF     H411813   4.879   2.606   1.262 -3.2112 -1.8491 -0.3004
  594THF     H511814   4.977   2.675   1.121 -0.7814  0.7798 -2.9392
  594THF     H611815   4.660   2.570   1.244 -0.6404 -0.9890 -0.2192
  594THF     H711816   4.567   2.620   1.091  0.2553 -0.3906 -0.7890
  594THF     C811817   4.721   2.470   1.073 -0.5406 -0.2509  0.1235
  594THF     C911818   4.873   2.480   1.086  0.4382  0.3646 -0.1426
  594THF    H1011819   4.718   2.452   0.965  2.6934  0.0512 -0.0951
  594THF    H1111820   4.682   2.380   1.121 -1.0021 -1.5093 -2.4627
  594THF    H1211821   4.912   2.398   1.145  1.4333 -0.1909 -1.5085
  594THF    H1311822   4.910   2.487   0.983 -1.2620 -0.0706 -0.8225
  595THF     O111823   1.522   5.385   0.549  0.6645  0.4981 -0.2969
  595THF     C211824   1.619   5.456   0.483  0.2443 -0.2477 -0.1474
  595THF     C311825   1.574   5.350   0.679  0.3088 -0.5190 -0.2040
  595THF     H411826   1.594   5.515   0.395  0.0308  1.6504  1.1105
  595THF     H511827   1.700   5.399   0.436  0.2895  0.8149 -1.4141
  595THF     H611828   1.506   5.314   0.756 -0.8980 -0.4513 -1.2263
  595THF     H711829   1.647   5.270   0.664  1.6505  0.7230 -0.5748
  595THF     C811830   1.629   5.488   0.717  0.1161  0.3908  0.1389
  595THF     C911831   1.682   5.543   0.590  0.7874 -0.0476 -1.0724
  595THF    H1011832   1.710   5.488   0.791  1.1141 -3.1400 -0.7428
  595THF    H1111833   1.554   5.554   0.759  0.8779  1.4436 -0.1046
  595THF    H1211834   1.647   5.647   0.584 -2.8901 -1.1957 -2.4086
  595THF    H1311835   1.789   5.556   0.575  0.8141  0.0614 -0.7966
  596THF     O111836   0.912   3.876   5.478 -0.4284  0.2781 -0.0331
  596THF     C211837   0.805   3.854   5.386 -0.0146  0.1126  1.1686
  596THF     C311838   0.857   3.938   5.594 -0.3266 -0.2646 -0.2533
  596THF     H411839   0.754   3.765   5.421 -0.3300 -0.7952 -1.4538
  596THF     H511840   0.831   3.826   5.284 -1.5656 -1.2921  1.1328
  596THF     H611841   0.816   3.875   5.673  0.3379 -0.2241  0.1363
  596THF     H711842   0.936   4.001   5.634 -1.0437  0.5390 -0.0830
  596THF     C811843   0.741   4.020   5.536  0.2268 -0.5059 -0.4095
  596THF     C911844   0.728   3.983   5.385  0.0886 -0.1628  0.3380
  596THF    H1011845   0.749   4.127   5.554 -1.7883 -0.4662  0.4984
  596THF    H1111846   0.649   3.992   5.588 -0.2555  0.2882 -0.8101
  596THF    H1211847   0.630   3.975   5.338  0.6163 -0.5568 -0.7343
  596THF    H1311848   0.784   4.054   5.324 -0.4148  1.3561  1.5629
  597THF     O111849   1.999   1.510   4.136 -0.0053  0.6336 -0.3254
  597THF     C211850   1.911   1.487   4.244  0.0784 -0.2288  0.1764
  597THF     C311851   2.122   1.573   4.193 -0.5660 -0.2124  0.0993
  597THF     H411852   1.845   1.403   4.226 -1.3502  0.7940  0.4613
  597THF     H511853   1.846   1.573   4.261 -0.8800 -0.5363 -1.6432
  597THF     H611854   2.219   1.543   4.153  0.8212  1.1711  2.2391
  597THF     H711855   2.128   1.681   4.182  1.0383 -0.1014  1.6605
  597THF     C811856   2.123   1.550   4.345  0.3734 -0.6232  0.3359
  597THF     C911857   2.006   1.448   4.357 -0.8575 -0.8840  0.3642
  597THF    H1011858   2.091   1.645   4.386  1.0667 -0.2247 -0.0404
  597THF    H1111859   2.210   1.506   4.394  0.8121 -0.9979 -0.7538
  597THF    H1211860   2.046   1.347   4.358  1.8332  0.1112  1.1974
  597THF    H1311861   1.949   1.464   4.450  0.6233 -0.9161  1.3052
  598THF     O111862   0.085   3.745   3.197  0.3622 -0.0502  0.1710
  598THF     C211863   0.046   3.714   3.325 -0.4134  0.8351  0.3713
  598THF     C311864   0.229   3.738   3.184  0.2076  0.9553  0.0725
  598THF     H411865  -0.060   3.691   3.320 -0.5288  1.6108 -1.4000
  598THF     H511866   0.072   3.796   3.391 -2.1535  1.7263  0.0006
  598THF     H611867   0.241   3.718   3.077 -0.2197  0.5659  0.0917
  598THF     H711868   0.274   3.830   3.218  2.1559  0.3672 -0.8010
  598THF     C811869   0.272   3.621   3.281  0.2976 -0.5345 -0.0556
  598THF     C911870   0.147   3.596   3.357  0.6800 -0.1094  0.2515
  598THF    H1011871   0.353   3.659   3.343 -0.0883 -1.5839  1.1182
  598THF    H1111872   0.327   3.537   3.239  2.9036  1.1538 -0.2916
  598THF    H1211873   0.104   3.500   3.327  0.8917 -0.8524  2.1819
  598THF    H1311874   0.167   3.598   3.464  0.3639  0.4121  0.3054
  599THF     O111875   5.406   0.750   0.293  0.6095 -0.1762 -0.2017
  599THF     C211876   5.287   0.800   0.356  0.3698 -0.4717 -0.4114
  599THF     C311877   5.361   0.635   0.228  0.6182 -0.0487  0.3068
  599THF     H411878   5.299   0.894   0.409 -0.5343 -0.9956  0.7704
  599THF     H511879   5.265   0.733   0.439 -1.7955  0.6319 -0.0250
  599THF     H611880   5.447   0.600   0.171  1.6303  3.1239 -0.3135
  599THF     H711881   5.325   0.555   0.294  1.8393 -0.3039  0.6781
  599THF     C811882   5.248   0.693   0.140 -1.0372 -0.0189  0.1857
  599THF     C911883   5.188   0.792   0.240 -0.0315  0.4318 -0.2262
  599THF    H1011884   5.181   0.612   0.111 -0.1441 -0.7471  0.1137
  599THF    H1111885   5.286   0.748   0.054  0.4619  0.8946  1.3731
  599THF    H1211886   5.161   0.882   0.186 -0.3002 -1.0677 -2.7528
  599THF    H1311887   5.091   0.751   0.271  0.2977 -1.8716 -1.9233
  600THF     O111888   0.436   1.554   5.472  0.0910  0.2748  0.5357
  600THF     C211889   0.466   1.616   5.593  0.4838  0.2464 -0.0644
  600THF     C311890   0.532   1.463   5.429 -0.3382  0.0728  0.1462
  600THF     H411891   0.424   1.550   5.670 -0.6467  0.8896 -0.1117
  600THF     H511892   0.409   1.708   5.588 -0.8126 -0.5858 -3.2523
  600THF     H611893   0.499   1.361   5.451 -0.7735  0.1790  0.0027
  600THF     H711894   0.536   1.466   5.320  0.0642  1.1102  0.1760
  600THF     C811895   0.657   1.493   5.512 -0.4084 -0.7346 -0.5776
  600THF     C911896   0.614   1.627   5.579  1.1970 -0.0847  0.3967
  600THF    H1011897   0.749   1.498   5.453 -0.4466  2.1382 -0.5632
  600THF    H1111898   0.665   1.414   5.586  0.9840 -1.2493 -1.2454
  600THF    H1211899   0.664   1.648   5.673  1.8329  0.1667  0.0151
  600THF    H1311900   0.629   1.713   5.513 -2.1612  0.2930 -0.0191
  601THF     O111901   4.089   1.049   2.796  0.3896  0.2293  0.0553
  601THF     C211902   4.015   1.168   2.807 -0.3369 -0.2227  1.0428
  601THF     C311903   4.084   1.011   2.659 -0.4581  0.0298  0.1140
  601THF     H411904   4.072   1.233   2.873 -0.4159 -0.1554  1.0447
  601THF     H511905   3.917   1.150   2.852 -1.2152 -1.1701 -1.1338
  601THF     H611906   4.166   0.945   2.631 -0.2903  1.1776 -2.3517
  601THF     H711907   3.989   0.962   2.637 -0.9091  1.3593 -1.0056
  601THF     C811908   4.099   1.143   2.586 -0.4678  1.0339 -0.2815
  601THF     C911909   4.007   1.232   2.666  0.3770  0.1103 -0.0190
  601THF    H1011910   4.063   1.124   2.485  0.1315 -0.6967 -0.1964
  601THF    H1111911   4.200   1.183   2.592  0.4015 -1.1868  1.1119
  601THF    H1211912   4.040   1.335   2.662  1.4741 -0.1595  1.3384
  601THF    H1311913   3.901   1.221   2.643  0.1265 -1.0881  1.5303
  602THF     O111914   0.259   5.050   4.484 -0.3264  0.2434 -0.0458
  602THF     C211915   0.290   5.081   4.616  0.0500 -0.2249 -0.0194
  602THF     C311916   0.118   5.031   4.463 -0.1034 -0.0427  0.5947
  602THF     H411917   0.382   5.140   4.619 -0.3324  0.4572 -1.1250
  602THF     H511918   0.313   4.989   4.669  2.5497  0.9909  1.2231
  602THF     H611919   0.087   5.080   4.370 -0.1677 -0.4666  0.3905
  602THF     H711920   0.086   4.927   4.472 -2.1799  0.3916 -0.9662
  602THF     C811921   0.058   5.121   4.569 -0.4099 -0.4362 -0.2585
  602THF     C911922   0.163   5.147   4.673 -0.4098  0.4698 -0.2565
  602THF    H1011923  -0.037   5.094   4.616  0.2699 -0.5313  1.1117
  602THF    H1111924   0.038   5.215   4.517 -0.0119 -0.6060 -0.7245
  602THF    H1211925   0.183   5.252   4.695  0.6648 -0.0586  1.5897
  602THF    H1311926   0.132   5.101   4.767 -1.7879  1.8681  0.0169
  603THF     O111927   3.202   3.796   1.997 -0.7176  0.5544 -0.6925
  603THF     C211928   3.334   3.774   1.950  0.0378  0.5159  0.1198
  603THF     C311929   3.213   3.907   2.100  0.5223 -0.6128 -0.0070
  603THF     H411930   3.366   3.843   1.873  1.2878 -0.4533 -0.2580
  603THF     H511931   3.345   3.682   1.892  0.8307  0.6645  0.0236
  603THF     H611932   3.212   4.006   2.055  0.2892  0.0541  1.4000
  603THF     H711933   3.127   3.896   2.167  1.3576 -1.1166  1.0098
  603THF     C811934   3.347   3.888   2.175  0.3536  0.1580 -0.4814
  603THF     C911935   3.412   3.770   2.087  0.2999  0.2222 -0.8421
  603THF    H1011936   3.341   3.856   2.279 -0.5516 -3.5739 -1.5114
  603THF    H1111937   3.408   3.975   2.155  2.3430  0.1251  4.2548
  603THF    H1211938   3.517   3.782   2.062  0.8497  1.0389  1.5719
  603THF    H1311939   3.412   3.679   2.147  0.0047  2.2175  2.4421
  604THF     O111940   4.778   1.206   0.384  0.1325  0.1717 -0.0352
  604THF     C211941   4.900   1.173   0.451 -0.3106  0.1017  0.1293
  604THF     C311942   4.775   1.146   0.258  0.1097  0.1383  0.1263
  604THF     H411943   4.883   1.141   0.554  0.7279  0.3937  0.4023
  604THF     H511944   4.955   1.267   0.445 -0.5096  0.5534  3.6397
  604THF     H611945   4.690   1.077   0.255 -0.0136  0.0708 -5.0028
  604THF     H711946   4.758   1.214   0.174 -0.9304 -0.9308 -0.5677
  604THF     C811947   4.904   1.081   0.232 -0.7306 -0.3104 -0.5620
  604THF     C911948   4.958   1.056   0.370 -0.1030  0.1610  0.6607
  604THF    H1011949   4.969   1.141   0.169  1.3062 -3.3057 -1.5714
  604THF    H1111950   4.893   0.982   0.186 -2.0563  0.3726 -1.7838
  604THF    H1211951   4.909   0.965   0.407  0.0696 -0.3113 -0.2429
  604THF    H1311952   5.066   1.055   0.381  0.2259 -0.7146 -1.8950
  605THF     O111953   0.827   1.098   4.967  0.0702 -0.1002  0.4710
  605THF     C211954   0.820   1.126   5.105 -0.5105 -0.0226  0.0527
  605THF     C311955   0.745   1.192   4.903 -0.3380 -0.1862  0.2656
  605THF     H411956   0.887   1.208   5.133 -1.0174  0.1928  0.6508
  605THF     H511957   0.840   1.034   5.158 -3.4503 -0.4412  0.5948
  605THF     H611958   0.800   1.277   4.862 -1.0980  1.4948  2.5141
  605THF     H711959   0.687   1.163   4.815 -0.7081  0.8311  0.1527
  605THF     C811960   0.651   1.243   5.006  0.7400 -0.1507 -0.1306
  605THF     C911961   0.675   1.163   5.126 -0.0523 -0.0208 -0.1930
  605THF    H1011962   0.544   1.244   4.984  0.4039 -0.9491  1.3344
  605THF    H1111963   0.678   1.346   5.029  1.9130 -0.2854 -0.8180
  605THF    H1211964   0.650   1.203   5.224  0.1918  0.5832 -0.3754
  605THF    H1311965   0.622   1.068   5.131 -1.9564  1.0479  3.1989
  606THF     O111966   3.409   0.144   4.590  0.1200 -0.1534  0.0011
  606THF     C211967   3.318   0.055   4.645 -0.2126 -0.0280 -0.6294
  606THF     C311968   3.497   0.184   4.686 -0.1713 -0.2460  0.8445
  606THF     H411969   3.360  -0.043   4.667  0.9778  0.5182 -0.3947
  606THF     H511970   3.230   0.039   4.583 -0.3395 -0.8355 -0.2598
  606THF     H611971   3.581   0.116   4.701  0.6852  0.5675 -0.0585
  606THF     H711972   3.533   0.284   4.659 -2.3142  0.2516 -0.4188
  606THF     C811973   3.410   0.183   4.816  0.3374  0.1323 -0.1534
  606THF     C911974   3.276   0.132   4.774  0.2904 -0.8918  0.3602
  606THF    H1011975   3.396   0.275   4.872  0.7437  0.1285 -0.0422
  606THF    H1111976   3.460   0.118   4.888 -1.3654 -3.0541 -1.6037
  606THF    H1211977   3.229   0.073   4.852  1.5572  0.6640  2.4155
  606THF    H1311978   3.199   0.208   4.763  1.9375  1.0807  1.6465
  607THF     O111979   1.580   0.168   3.465  0.3019 -0.1300 -0.7551
  607THF     C211980   1.522   0.052   3.519  0.4436 -1.0450  0.4093
  607THF     C311981   1.563   0.285   3.542 -0.3285  0.0836 -0.3203
  607THF     H411982   1.580  -0.034   3.484  4.3676  1.3429  0.5255
  607THF     H511983   1.418   0.040   3.487  0.0808  1.2959  0.5865
  607THF     H611984   1.659   0.336   3.540 -0.4932  0.3829 -0.7568
  607THF     H711985   1.481   0.340   3.496 -0.4984  0.8098  0.8122
  607THF     C811986   1.514   0.234   3.671  0.3672  0.6457 -0.2021
  607THF     C911987   1.531   0.081   3.668 -0.6456  0.1271  0.4611
  607THF    H1011988   1.406   0.235   3.685  0.1743 -1.2207 -1.1002
  607THF    H1111989   1.561   0.280   3.757  0.6551 -1.0630  0.6114
  607THF    H1211990   1.626   0.051   3.711  0.4591  4.4320  1.5297
  607THF    H1311991   1.463   0.023   3.730  1.8129 -2.6087  0.7858
  608THF     O111992   5.047   0.229   0.779  0.2988 -0.1414 -0.5443
  608THF     C211993   5.136   0.324   0.834  0.3451 -0.0512 -0.3489
  608THF     C311994   4.932   0.226   0.871  0.8714 -0.7816  0.0781
  608THF     H411995   5.111   0.417   0.782 -0.1059  0.3347  0.5294
  608THF     H511996   5.239   0.296   0.811  0.6579  0.9266 -0.1954
  608THF     H611997   4.875   0.319   0.859  0.7564 -0.9226 -0.4606
  608THF     H711998   4.864   0.142   0.854 -1.9281  1.2028  0.6043
  608THF     C811999   4.991   0.221   1.006 -0.0869 -0.0154 -0.6048
  608THF     C912000   5.102   0.323   0.988 -0.1806 -0.2038 -0.3611
  608THF    H1012001   5.042   0.128   1.030  0.2935  0.7388  1.7727
  608THF    H1112002   4.922   0.249   1.086  2.1943 -0.2648  1.5613
  608THF    H1212003   5.074   0.424   1.020 -1.4714 -0.8882  0.7922
  608THF    H1312004   5.188   0.290   1.046 -0.8409 -0.1762  0.6712
  609THF     O112005   0.451   3.657   5.096  0.0852  0.2601 -0.3144
  609THF     C212006   0.470   3.787   5.149 -0.0705 -0.1928 -0.4701
  609THF     C312007   0.404   3.667   4.962 -0.2746 -0.4716 -0.1281
  609THF     H412008   0.549   3.793   5.224  0.4643 -1.3621 -0.9290
  609THF     H512009   0.373   3.812   5.193 -0.7219  0.3180 -2.0987
  609THF     H612010   0.442   3.587   4.898 -0.1899 -0.6211  0.1077
  609THF     H712011   0.296   3.654   4.963 -0.0936 -2.4624 -1.0603
  609THF     C812012   0.454   3.802   4.907  0.4018 -0.5049  0.2491
  609THF     C912013   0.500   3.881   5.032 -0.7182 -0.0804  0.4724
  609THF    H1012014   0.373   3.861   4.863  1.3857  0.9763  0.3477
  609THF    H1112015   0.544   3.796   4.846  1.2404 -0.3964  1.4419
  609THF    H1212016   0.606   3.905   5.027 -0.5264 -0.7026  1.3548
  609THF    H1312017   0.446   3.970   5.064 -0.7472 -0.1637  0.6569
  610THF     O112018   2.610   1.446   0.070 -0.7784  0.1135  0.3589
  610THF     C212019   2.721   1.456  -0.018 -0.0741  0.3513  0.2225
  610THF     C312020   2.489   1.428   0.005  0.1427 -0.3933  0.4511
  610THF     H412021   2.747   1.354  -0.047  1.9220 -0.4631  4.0534
  610THF     H512022   2.810   1.505   0.023  1.1935 -0.6620 -1.1701
  610THF     H612023   2.482   1.321  -0.016 -0.9419 -0.5240  1.3800
  610THF     H712024   2.408   1.466   0.066  0.0504 -0.7525  0.5523
  610THF     C812025   2.511   1.506  -0.124 -0.3596 -0.3798 -0.3467
  610THF     C912026   2.656   1.544  -0.130  0.4860  0.2533  0.3656
  610THF    H1012027   2.451   1.596  -0.117  1.5504  1.0700 -1.5326
  610THF    H1112028   2.480   1.441  -0.206  0.7130  2.2100 -3.0233
  610THF    H1212029   2.696   1.518  -0.228  0.8792  0.2564  0.5235
  610THF    H1312030   2.661   1.650  -0.106  0.0580  0.3191  0.1720
  611THF     O112031   0.079   2.068   1.235 -0.1437  0.3276  0.3325
  611THF     C212032   0.086   1.932   1.196 -0.0061 -0.0267  0.6134
  611THF     C312033   0.051   2.148   1.118  0.5427  0.3448  0.1426
  611THF     H412034   0.102   1.872   1.286  0.6010  2.5328  2.3331
  611THF     H512035   0.177   1.908   1.141 -0.9370  0.8252 -1.3691
  611THF     H612036   0.015   2.246   1.152  2.8913  1.6740 -0.9563
  611THF     H712037   0.148   2.161   1.070  1.5572 -1.6187  1.5358
  611THF     C812038  -0.056   2.055   1.044  0.0836 -0.7478 -0.4094
  611THF     C912039  -0.041   1.920   1.116 -0.3225 -0.4247 -0.2534
  611THF    H1012040  -0.019   2.034   0.944  2.2144 -1.2938  0.4349
  611THF    H1112041  -0.159   2.090   1.038 -0.1433 -1.6203 -2.0103
  611THF    H1212042  -0.124   1.907   1.186 -0.0325  0.5123  0.2767
  611THF    H1312043  -0.042   1.840   1.042  2.8047 -0.2293 -0.6309
  612THF     O112044   2.063   0.978   1.631  0.2100 -0.1517 -0.7735
  612THF     C212045   2.133   1.098   1.640  0.4201 -0.2463  0.8376
  612THF     C312046   2.134   0.888   1.547 -0.0407  0.0348 -0.3207
  612THF     H412047   2.203   1.095   1.724  0.5521 -1.3040  0.7071
  612THF     H512048   2.065   1.178   1.668  1.5889  1.8097 -1.7178
  612THF     H612049   2.230   0.856   1.588  0.4583  1.1484 -0.5857
  612THF     H712050   2.070   0.804   1.517 -0.8955  0.7359 -0.5192
  612THF     C812051   2.172   0.984   1.429  0.7231  0.1271  0.2819
  612THF     C912052   2.196   1.116   1.497 -0.6373  0.5702 -0.4643
  612THF    H1012053   2.083   1.011   1.373  2.8053  3.6841 -1.6519
  612THF    H1112054   2.255   0.955   1.365  2.9403  3.3651  1.4491
  612THF    H1212055   2.302   1.140   1.513 -0.6449 -0.4373  1.3653
  612THF    H1312056   2.158   1.203   1.443 -1.6358  0.4480  0.0336
  613THF     O112057   1.061   0.771   1.125 -0.0098 -0.4745  0.1478
  613THF     C212058   0.997   0.660   1.077  0.8296 -0.0703 -0.1454
  613THF     C312059   1.172   0.719   1.198  0.6621 -0.2404 -0.4973
  613THF     H412060   0.926   0.692   1.001 -2.2811  1.1681  2.9914
  613THF     H512061   0.938   0.613   1.155 -1.1181  0.1821 -1.3978
  613THF     H612062   1.245   0.790   1.235  0.8823 -1.0046  0.5833
  613THF     H712063   1.134   0.678   1.292  0.3743  0.4514 -0.3034
  613THF     C812064   1.227   0.600   1.114  0.5747 -0.6157  0.1025
  613THF     C912065   1.106   0.569   1.023  0.0109  0.4374 -0.7362
  613THF    H1012066   1.264   0.513   1.168  1.9884 -0.4689 -0.5635
  613THF    H1112067   1.307   0.638   1.051  0.3840 -0.6045 -0.1360
  613THF    H1212068   1.123   0.598   0.920 -1.9046  1.8151 -0.7171
  613THF    H1312069   1.081   0.463   1.035  0.1537  0.3770 -0.9624
  614THF     O112070   3.459   3.666   3.276  0.2961 -0.2708 -0.5809
  614THF     C212071   3.326   3.709   3.278 -0.5376  0.3100 -0.2506
  614THF     C312072   3.543   3.776   3.285 -0.1296 -0.6154  0.2147
  614THF     H412073   3.262   3.630   3.318  3.2721 -2.9749  0.0376
  614THF     H512074   3.300   3.720   3.173  1.1924  0.7122 -0.6708
  614THF     H612075   3.642   3.748   3.319 -0.5248 -0.5800  1.4475
  614THF     H712076   3.554   3.824   3.188  0.3797  1.4561  1.2391
  614THF     C812077   3.474   3.866   3.386 -0.2880 -0.5907 -0.6864
  614THF     C912078   3.327   3.832   3.368  0.1934 -0.0602  0.2765
  614THF    H1012079   3.503   3.971   3.390  2.6361 -1.3075  3.3519
  614THF    H1112080   3.505   3.821   3.480 -0.1064  0.1327 -0.3958
  614THF    H1212081   3.272   3.800   3.456  0.3786 -1.3842 -0.0629
  614THF    H1312082   3.270   3.916   3.330 -0.8591 -0.4181  1.0300
  615THF     O112083   1.458   5.493   3.101  0.5427  0.4541 -0.0856
  615THF     C212084   1.558   5.514   3.197  0.2488 -0.4300  0.8794
  615THF     C312085   1.505   5.479   2.965  0.0626 -0.1000  0.4333
  615THF     H412086   1.541   5.436   3.270  1.5922 -1.1474  0.4608
  615THF     H512087   1.536   5.613   3.237  3.2293  0.2914  1.0056
  615THF     H612088   1.517   5.378   2.925 -0.3752  1.1236 -3.0514
  615THF     H712089   1.439   5.534   2.899 -0.6806 -3.5046 -1.9446
  615THF     C812090   1.639   5.548   2.973  0.0938  0.5273  1.0261
  615THF     C912091   1.685   5.514   3.111 -0.2472 -0.0386  0.0511
  615THF    H1012092   1.623   5.656   2.972 -0.0929  0.4989  0.9255
  615THF    H1112093   1.702   5.506   2.894 -0.6835  1.9990 -0.4251
  615THF    H1212094   1.747   5.424   3.115 -0.9380 -0.4923  2.1367
  615THF    H1312095   1.754   5.587   3.155  0.9187 -0.6123 -0.7557
  616THF     O112096   2.875   2.202   3.942 -0.4661  0.3889 -0.3990
  616THF     C212097   2.891   2.136   4.065 -0.6359  0.6548 -0.2118
  616THF     C312098   2.749   2.163   3.884 -0.6117 -0.0796  0.2818
  616THF     H412099   2.877   2.204   4.148  1.6734  2.5392 -1.2521
  616THF     H512100   2.995   2.103   4.076 -0.6511 -0.5742 -2.9242
  616THF     H612101   2.675   2.225   3.934 -0.1104  0.0498  0.8870
  616THF     H712102   2.753   2.191   3.779  3.4874  0.1683  0.3098
  616THF     C812103   2.732   2.017   3.922  0.2168  0.3618  0.8959
  616THF     C912104   2.787   2.025   4.069 -0.8910  0.2328 -0.5290
  616THF    H1012105   2.792   1.945   3.865 -0.4601 -0.0980  0.7442
  616THF    H1112106   2.630   1.985   3.902  0.6634 -0.3066 -0.4959
  616THF    H1212107   2.717   2.050   4.150  2.3634  1.0496  2.2677
  616THF    H1312108   2.833   1.932   4.102 -0.1329  0.0014 -2.1724
  617THF     O112109   0.693   3.550   5.468  0.4595  0.1998  0.2942
  617THF     C212110   0.760   3.546   5.594  0.8191  0.5148  0.8149
  617THF     C312111   0.736   3.431   5.397  0.0189 -0.3949  0.1463
  617THF     H412112   0.705   3.484   5.666  0.3144 -0.2407 -0.1965
  617THF     H512113   0.769   3.649   5.629 -1.6000  0.6224  1.3422
  617THF     H612114   0.671   3.351   5.434  1.4079 -0.6189  2.3219
  617THF     H712115   0.708   3.447   5.293 -0.5491 -0.4295  0.2912
  617THF     C812116   0.885   3.413   5.432  0.1980  0.4614 -0.4300
  617THF     C912117   0.896   3.479   5.565 -0.9317 -0.0041 -0.0456
  617THF    H1012118   0.935   3.460   5.348  0.6373  0.5069 -0.1422
  617THF    H1112119   0.907   3.306   5.425 -3.3962 -0.3667 -1.1466
  617THF    H1212120   0.928   3.408   5.641  1.2005 -1.0280 -1.7743
  617THF    H1312121   0.973   3.556   5.573 -1.0764  0.0887  0.5137
  618THF     O112122   3.436   4.299   4.245  0.1052  0.3473 -0.5063
  618THF     C212123   3.349   4.395   4.293  0.5544 -0.4385  0.2068
  618THF     C312124   3.364   4.196   4.167  0.1228 -0.4846  0.0021
  618THF     H412125   3.361   4.484   4.232 -0.7861 -1.0885 -1.0696
  618THF     H512126   3.356   4.412   4.400 -1.1528 -0.7629  0.3966
  618THF     H612127   3.413   4.181   4.070  0.0089  2.1203 -0.5209
  618THF     H712128   3.349   4.100   4.216 -2.4902  0.0713  0.4387
  618THF     C812129   3.228   4.258   4.138  0.7441 -0.2579  0.5164
  618THF     C912130   3.209   4.340   4.267  0.3664  0.0289 -0.4092
  618THF    H1012131   3.154   4.178   4.136  0.6385 -0.1656  0.6950
  618THF    H1112132   3.245   4.312   4.045 -0.0710  1.9171  1.5557
  618THF    H1212133   3.127   4.413   4.260 -0.9208 -1.3558 -0.3734
  618THF    H1312134   3.175   4.268   4.341  0.6464 -0.0549 -0.3624
  619THF     O112135   3.499   0.131   3.140 -0.8897  0.6739  0.5635
  619THF     C212136   3.451   0.234   3.224  0.1571  1.0769  0.5616
  619THF     C312137   3.640   0.153   3.124 -0.2048  0.1242  0.2557
  619THF     H412138   3.403   0.175   3.302 -1.7276  2.6880  0.7121
  619THF     H512139   3.368   0.289   3.179 -0.4383  0.1970  0.5512
  619THF     H612140   3.683   0.087   3.200 -2.0150 -1.1949  0.2067
  619THF     H712141   3.664   0.106   3.028 -1.8394 -1.0310  0.3728
  619THF     C812142   3.658   0.305   3.152 -0.0751  0.1587 -0.2264
  619THF     C912143   3.561   0.323   3.271 -0.6092  0.1615 -0.2076
  619THF    H1012144   3.630   0.369   3.068 -0.8474 -0.6993 -0.6469
  619THF    H1112145   3.762   0.325   3.175 -0.0100 -1.3518  0.9647
  619THF    H1212146   3.604   0.291   3.366  0.2857  0.8977 -0.3527
  619THF    H1312147   3.528   0.427   3.276 -1.4219 -0.0919 -0.0846
  620THF     O112148   5.099   0.113   4.310  0.7635  0.2627 -0.4568
  620THF     C212149   5.007   0.053   4.220 -0.8484  0.0365 -0.0988
  620THF     C312150   5.093   0.254   4.295 -0.3516 -0.6446  0.2551
  620THF     H412151   4.902   0.064   4.248 -0.2254  0.2192  2.3453
  620THF     H512152   5.026  -0.053   4.202 -1.0436 -0.0821  0.4016
  620THF     H612153   5.030   0.309   4.364 -2.4333 -0.0581 -2.0127
  620THF     H712154   5.190   0.300   4.319 -0.4056 -1.4958  2.2637
  620THF     C812155   5.066   0.276   4.142 -0.1184  0.3519  0.0114
  620THF     C912156   5.040   0.134   4.099 -0.7203 -0.3722 -0.1093
  620THF    H1012157   5.150   0.312   4.083  0.8351  2.3780  2.4028
  620THF    H1112158   4.978   0.336   4.116 -0.7490 -1.7175 -3.1970
  620THF    H1212159   4.959   0.140   4.026 -1.6322  1.1583  0.9852
  620THF    H1312160   5.128   0.096   4.048 -0.1670 -0.5859  0.9778
  621THF     O112161   0.604   0.535   2.375  0.6426 -0.3860  0.0335
  621THF     C212162   0.618   0.521   2.516 -0.2848 -0.5737  0.1495
  621THF     C312163   0.554   0.411   2.327 -0.3711  0.4293  0.1578
  621THF     H412164   0.630   0.625   2.547  0.7393 -0.3377 -0.9572
  621THF     H512165   0.706   0.462   2.538  0.1388  0.2755  0.7938
  621THF     H612166   0.516   0.427   2.226  2.9636 -0.5487 -1.3914
  621THF     H712167   0.638   0.343   2.320 -0.1623  0.7591 -0.5960
  621THF     C812168   0.449   0.378   2.431 -0.1775 -0.4787  0.0305
  621THF     C912169   0.482   0.465   2.552  0.8186  0.4835  0.2803
  621THF    H1012170   0.453   0.271   2.450 -1.0743 -0.6994 -0.9307
  621THF    H1112171   0.350   0.393   2.388 -0.1881  0.0457  0.2293
  621THF    H1212172   0.404   0.541   2.561  1.6090  1.6471 -1.8686
  621THF    H1312173   0.490   0.403   2.641 -0.8174  0.5267  0.4902
  622THF     O112174   1.618   2.831   0.801 -0.6664  0.1320 -0.3243
  622THF     C212175   1.554   2.806   0.923 -0.3353 -0.1875 -0.8340
  622THF     C312176   1.567   2.737   0.707  0.3247 -0.2988  0.2275
  622THF     H412177   1.459   2.860   0.920  1.5497  3.4472 -1.3369
  622THF     H512178   1.602   2.841   1.014 -1.1941 -0.6098 -0.2053
  622THF     H612179   1.462   2.761   0.691  0.8463  0.5620 -2.4442
  622THF     H712180   1.621   2.746   0.613 -0.4460 -0.3454 -0.2240
  622THF     C812181   1.570   2.609   0.781  0.3427  0.3845  0.3239
  622THF     C912182   1.545   2.655   0.926 -0.2423 -0.1167 -0.5853
  622THF    H1012183   1.670   2.565   0.778  1.7735  3.2779  1.3067
  622THF    H1112184   1.493   2.539   0.748  0.5593 -1.2865  2.9898
  622THF    H1212185   1.453   2.622   0.974 -0.4386 -0.0168 -0.8905
  622THF    H1312186   1.614   2.612   0.999 -0.3356 -1.4981 -1.2671
  623THF     O112187   5.012   1.877   3.193 -0.1463 -0.0191  0.1311
  623THF     C212188   5.004   2.015   3.204  0.3094 -0.5379 -0.0525
  623THF     C312189   5.151   1.846   3.188 -0.2007  0.3128  0.6629
  623THF     H412190   5.042   2.049   3.301  2.5387  0.6903 -1.2651
  623THF     H512191   4.898   2.036   3.191 -0.3202 -2.2911  1.8036
  623THF     H612192   5.193   1.868   3.287  0.4370 -0.1305  0.4964
  623THF     H712193   5.166   1.742   3.160  0.8556  0.4586  0.6586
  623THF     C812194   5.204   1.952   3.080  0.7634  0.0436 -0.2112
  623THF     C912195   5.102   2.064   3.094 -0.5820  0.6115 -0.0932
  623THF    H1012196   5.186   1.909   2.982  1.2386  0.9008 -0.6862
  623THF    H1112197   5.306   1.984   3.099  1.2931 -1.6523 -0.0663
  623THF    H1212198   5.151   2.160   3.112  1.6752 -0.5368  0.1594
  623THF    H1312199   5.055   2.072   2.995  0.2029  0.6371 -0.4679
  624THF     O112200   0.741   2.198   4.657 -0.1339  0.2677 -0.5943
  624THF     C212201   0.846   2.128   4.585  0.3616  0.2029  0.2044
  624THF     C312202   0.617   2.174   4.590  0.8694  0.1620  0.2780
  624THF     H412203   0.905   2.084   4.665 -2.8495  0.9991  3.2757
  624THF     H512204   0.911   2.208   4.549  0.5173  0.1348  0.3305
  624THF     H612205   0.530   2.187   4.654  0.2091  1.4713 -0.8236
  624THF     H712206   0.612   2.247   4.510 -2.8735 -0.3872 -0.1651
  624THF     C812207   0.630   2.032   4.537 -0.6657 -0.5916 -0.9103
  624THF     C912208   0.776   2.028   4.490  0.4301  0.0781 -0.0435
  624THF    H1012209   0.561   2.019   4.453 -1.6874  3.0177 -0.8157
  624THF    H1112210   0.594   1.954   4.604  0.7038 -1.4254 -1.1248
  624THF    H1212211   0.817   1.927   4.500 -0.3482 -0.3543 -1.0527
  624THF    H1312212   0.786   2.053   4.384  0.9523 -0.9079 -0.2370
  625THF     O112213   0.889   4.601   2.825 -0.5012  0.4796 -0.2599
  625THF     C212214   0.864   4.701   2.918  0.1529 -0.7694 -0.7154
  625THF     C312215   0.970   4.659   2.726 -0.3617 -0.1722 -0.6213
  625THF     H412216   0.948   4.715   2.985  0.6237 -0.8902 -1.2689
  625THF     H512217   0.779   4.680   2.982 -0.1974  2.9313  0.2480
  625THF     H612218   1.073   4.662   2.760 -0.6298  0.3247  0.1792
  625THF     H712219   0.966   4.614   2.626  2.9725 -0.2558 -0.8274
  625THF     C812220   0.922   4.804   2.714 -0.2059 -0.1027 -0.2109
  625THF     C912221   0.851   4.835   2.844 -0.2502 -0.0757 -0.2952
  625THF    H1012222   0.855   4.823   2.631  1.9282  1.9251 -1.5962
  625THF    H1112223   1.003   4.876   2.710 -0.8876  0.7373  0.6895
  625THF    H1212224   0.889   4.921   2.898 -0.4848 -0.7448  0.9538
  625THF    H1312225   0.748   4.863   2.820 -1.2076 -0.4873  2.9463
  626THF     O112226   3.269   5.498   1.232  0.5817  0.3778  0.0917
  626THF     C212227   3.217   5.623   1.279  0.0710  0.4002  1.2053
  626THF     C312228   3.177   5.395   1.277 -0.0828 -0.3412 -0.8036
  626THF     H412229   3.133   5.660   1.220 -0.2273 -0.1076  1.3101
  626THF     H512230   3.299   5.695   1.284  0.5831 -0.0520 -0.1081
  626THF     H612231   3.081   5.393   1.227  0.2572 -2.4357 -1.4664
  626THF     H712232   3.214   5.295   1.258  1.2929  0.2694 -1.4284
  626THF     C812233   3.177   5.434   1.426  0.0565 -0.4234  0.6231
  626THF     C912234   3.165   5.582   1.417 -0.1686 -0.2378  0.6776
  626THF    H1012235   3.268   5.399   1.476 -1.5933 -1.7452  2.9028
  626THF    H1112236   3.093   5.396   1.483  0.6801 -0.5447  1.4887
  626THF    H1212237   3.059   5.605   1.425 -0.1505 -0.6835  2.8290
  626THF    H1312238   3.226   5.617   1.500  0.3269  1.0706 -0.1963
  627THF     O112239   4.340   4.468   3.888  0.4529  0.2691 -0.2435
  627THF     C212240   4.419   4.463   3.767  0.7542  0.1342  0.0464
  627THF     C312241   4.235   4.557   3.859 -0.4242  0.9083 -0.2284
  627THF     H412242   4.497   4.387   3.760 -0.1170 -0.7349 -0.5857
  627THF     H512243   4.476   4.555   3.772  0.6466  0.1689  0.6163
  627THF     H612244   4.157   4.569   3.934 -0.7297  0.6157 -0.4984
  627THF     H712245   4.282   4.655   3.866 -0.2620  0.7123  3.1777
  627THF     C812246   4.189   4.512   3.724 -0.2371 -0.7225  0.0652
  627THF     C912247   4.315   4.469   3.658 -0.1159  0.4093 -0.8924
  627THF    H1012248   4.143   4.589   3.662 -0.6046  0.5069  1.7790
  627THF    H1112249   4.119   4.429   3.727  1.1509 -2.0472 -1.8903
  627THF    H1212250   4.312   4.369   3.616  0.8989  0.0385 -0.1214
  627THF    H1312251   4.352   4.528   3.575 -0.6790  0.1842 -1.3107
  628THF     O112252   1.057   3.860   1.678 -0.2629 -0.0393 -0.7899
  628THF     C212253   1.032   3.840   1.815  0.5527  0.2816  0.3643
  628THF     C312254   1.189   3.843   1.638  0.5253  0.1660 -0.4921
  628THF     H412255   1.014   3.733   1.830 -0.2523  0.2421 -0.7468
  628THF     H512256   0.944   3.897   1.843 -0.1750 -0.9911  0.7525
  628THF     H612257   1.218   3.764   1.569  3.4119 -0.0943  0.9135
  628THF     H712258   1.227   3.923   1.575  1.7145  0.1256  0.1465
  628THF     C812259   1.259   3.842   1.769 -0.0397  0.3971 -0.1442
  628THF     C912260   1.165   3.902   1.875  0.6291 -0.1061  0.1013
  628THF    H1012261   1.355   3.894   1.765  0.3036 -0.0545  1.3290
  628THF    H1112262   1.288   3.743   1.805 -1.3006 -0.9397 -2.5881
  628THF    H1212263   1.193   3.877   1.977 -0.0922  1.0182  0.5903
  628THF    H1312264   1.165   4.010   1.862 -0.2378 -0.1190 -0.0696
  629THF     O112265   3.746   3.361   0.137  0.0188  0.0059 -0.0438
  629THF     C212266   3.840   3.285   0.217  0.3178 -0.0001 -0.3620
  629THF     C312267   3.728   3.487   0.203  0.6638  0.0957  0.5150
  629THF     H412268   3.894   3.212   0.158  1.1366 -0.0988  0.4930
  629THF     H512269   3.790   3.243   0.304  1.4239  1.8778  1.2811
  629THF     H612270   3.685   3.556   0.130 -3.2447 -2.7758 -0.3002
  629THF     H712271   3.648   3.489   0.277  1.2239  0.6599  1.1138
  629THF     C812272   3.861   3.515   0.263 -0.4284 -0.0667  0.2316
  629THF     C912273   3.947   3.395   0.246 -0.3551 -0.4139  0.1392
  629THF    H1012274   3.856   3.539   0.369 -0.8597  0.1885  0.1584
  629THF    H1112275   3.918   3.590   0.208 -0.9584 -0.6698 -1.1874
  629THF    H1212276   4.014   3.411   0.161  0.8889  2.1149  1.4815
  629THF    H1312277   4.004   3.373   0.336 -0.2489  1.0468  0.4510
  630THF     O112278   3.338   2.610   1.517 -0.0631 -0.6616  0.3483
  630THF     C212279   3.379   2.734   1.462 -0.5706  0.4320 -0.4650
  630THF     C312280   3.414   2.497   1.463 -0.2085  0.2942 -0.4892
  630THF     H412281   3.447   2.794   1.522 -0.5586 -0.3830  0.3444
  630THF     H512282   3.291   2.798   1.450 -1.4865 -1.0134 -1.9029
  630THF     H612283   3.485   2.458   1.535 -2.0377 -0.0894  1.1873
  630THF     H712284   3.340   2.418   1.448 -0.4556  0.4621 -0.1613
  630THF     C812285   3.470   2.552   1.331 -0.8497  0.2613 -0.1696
  630THF     C912286   3.439   2.700   1.325  0.8679 -0.7857 -0.2310
  630THF    H1012287   3.422   2.512   1.241 -0.6011  0.9675 -0.6236
  630THF    H1112288   3.576   2.529   1.331 -1.3461 -2.5549  1.2520
  630THF    H1212289   3.531   2.758   1.324  1.4032 -1.3605  2.8941
  630THF    H1312290   3.379   2.721   1.237 -2.6973 -1.9507  1.6825
  631THF     O112291   1.666   0.982   1.750  0.7900  0.0872 -0.9804
  631THF     C212292   1.699   1.084   1.850 -0.0541  0.8289 -0.1656
  631THF     C312293   1.711   0.855   1.790  0.2886 -0.4772 -0.2576
  631THF     H412294   1.617   1.152   1.873  0.1654  0.9269  0.3423
  631THF     H512295   1.787   1.135   1.811 -0.3032  0.6508 -0.9828
  631THF     H612296   1.630   0.791   1.825  0.8193  0.1677  2.3841
  631THF     H712297   1.765   0.812   1.705 -0.5482  1.1039 -1.6577
  631THF     C812298   1.805   0.876   1.907 -0.0503 -0.3303  1.0471
  631THF     C912299   1.747   1.002   1.970 -0.1063  0.5717 -0.8739
  631THF    H1012300   1.906   0.894   1.871 -0.1429  1.9657  1.7869
  631THF    H1112301   1.804   0.798   1.984  1.1046 -2.2786 -0.8177
  631THF    H1212302   1.659   0.964   2.021  1.2196 -4.6809 -1.8974
  631THF    H1312303   1.802   1.056   2.048 -0.2597 -3.0256  2.0164
  632THF     O112304   0.535   5.156   1.842  0.2005 -0.5425 -0.1049
  632THF     C212305   0.621   5.049   1.840 -0.3066  0.2055  0.1686
  632THF     C312306   0.454   5.154   1.960 -0.4436 -0.6753 -0.1273
  632THF     H412307   0.689   5.076   1.921 -1.5118  0.7235  1.0464
  632THF     H512308   0.669   5.037   1.743  1.2455 -0.9775  1.0314
  632THF     H612309   0.512   5.180   2.049  0.7971  1.8116 -1.5715
  632THF     H712310   0.375   5.228   1.955  0.5886  0.4109 -0.7414
  632THF     C812311   0.407   5.008   1.962  0.7478 -0.6435  0.1160
  632THF     C912312   0.525   4.933   1.888 -0.2082  0.7327 -0.7466
  632THF    H1012313   0.317   5.008   1.900  0.0247  0.9660  1.0978
  632THF    H1112314   0.385   4.971   2.062 -0.1688  1.2603  0.6608
  632THF    H1212315   0.584   4.866   1.950 -0.1962 -0.1564 -1.7024
  632THF    H1312316   0.480   4.877   1.806 -0.4521 -0.6494  0.2921
  633THF     O112317   4.922   1.016   4.700  0.0964  0.0537  0.1501
  633THF     C212318   4.915   1.013   4.842  0.2964 -0.5019 -0.7084
  633THF     C312319   4.945   0.887   4.646 -0.5943 -0.7161 -0.2759
  633THF     H412320   4.818   0.983   4.881  0.8315  0.5362  1.6587
  633THF     H512321   4.952   1.097   4.901  2.7457 -1.9440 -0.0475
  633THF     H612322   4.863   0.847   4.587 -1.0350 -1.1520  0.6193
  633THF     H712323   5.035   0.907   4.587  0.5091  1.8956  2.0693
  633THF     C812324   4.991   0.799   4.769 -0.6986 -0.5026 -0.0368
  633THF     C912325   5.012   0.901   4.881  0.1954  0.3113 -0.4050
  633THF    H1012326   5.073   0.733   4.743 -1.1731 -1.0705 -0.1100
  633THF    H1112327   4.905   0.739   4.798 -2.5885  1.9363 -0.2376
  633THF    H1212328   5.009   0.846   4.975 -0.1822 -2.9615 -2.2182
  633THF    H1312329   5.114   0.941   4.881 -0.2053  1.3861  0.1978
  634THF     O112330   3.645   4.206   5.325  0.2143 -0.0298 -0.1565
  634THF     C212331   3.784   4.209   5.308  0.3213 -0.4200  0.2624
  634THF     C312332   3.586   4.247   5.208  0.3796  0.6930  0.0726
  634THF     H412333   3.832   4.140   5.378 -1.0500  1.1506  2.9149
  634THF     H512334   3.824   4.307   5.331  0.8276 -0.7994  1.0349
  634THF     H612335   3.482   4.216   5.212  0.3501  0.5910 -0.9959
  634THF     H712336   3.598   4.353   5.184  1.4138  0.3954 -0.8331
  634THF     C812337   3.664   4.170   5.111 -0.2962  0.4574  0.6556
  634THF     C912338   3.806   4.177   5.158 -0.1627 -0.7146 -0.1414
  634THF    H1012339   3.651   4.210   5.010 -0.3760  0.2072  0.5662
  634THF    H1112340   3.634   4.067   5.094  0.3939  0.2688  0.5949
  634THF    H1212341   3.846   4.076   5.152 -1.3659 -1.1262 -2.6216
  634THF    H1312342   3.867   4.249   5.104 -1.3208 -0.6483 -1.4372
  635THF     O112343   5.394   1.941   4.029  0.3663  0.2256  0.1731
  635THF     C212344   5.454   2.059   4.072 -0.0217 -0.5752 -0.4707
  635THF     C312345   5.467   1.843   4.097 -0.8286 -0.8723 -0.1822
  635THF     H412346   5.407   2.097   4.163 -0.8902 -0.2885 -1.0279
  635THF     H512347   5.424   2.132   3.996 -0.3075 -0.3273 -0.1243
  635THF     H612348   5.433   1.829   4.200 -1.0004 -1.5480 -0.3300
  635THF     H712349   5.456   1.745   4.052  1.3515 -1.5961  0.7210
  635THF     C812350   5.614   1.887   4.096 -0.1652 -0.0201 -0.2239
  635THF     C912351   5.611   2.039   4.074  0.8243 -0.0703 -0.5304
  635THF    H1012352   5.674   1.841   4.017  1.1267  2.2488 -0.6816
  635THF    H1112353   5.668   1.867   4.188 -0.0617 -0.5883 -0.4084
  635THF    H1212354   5.653   2.103   4.152 -0.3936 -0.2495  0.3087
  635THF    H1312355   5.654   2.076   3.980 -0.6465  1.3958 -0.6639
  636THF     O112356   2.564   3.368   0.877  0.5997  0.2714  0.4828
  636THF     C212357   2.444   3.298   0.914 -0.2323  0.2525 -0.2546
  636THF     C312358   2.585   3.362   0.736  0.3315  0.9742 -0.5056
  636THF     H412359   2.370   3.376   0.933  0.4329  0.5324  1.4515
  636THF     H512360   2.462   3.249   1.010 -1.1530  2.0152  0.8874
  636THF     H612361   2.513   3.435   0.699 -0.5802  1.4510  1.9879
  636THF     H712362   2.688   3.380   0.706  0.3505 -0.0829 -1.1258
  636THF     C812363   2.539   3.217   0.703 -0.2735 -0.2904  0.0916
  636THF     C912364   2.419   3.198   0.806  0.0994  0.2662 -0.4466
  636THF    H1012365   2.624   3.162   0.743 -2.4594 -1.3966  3.6439
  636THF    H1112366   2.525   3.194   0.597 -0.2422 -0.7848  0.1946
  636THF    H1212367   2.323   3.226   0.763 -0.5318  0.2725  0.9319
  636THF    H1312368   2.415   3.095   0.842 -0.3885  1.3992  3.0747
  637THF     O112369   2.008   4.122   2.716 -0.0506 -0.4480 -0.6658
  637THF     C212370   2.015   4.257   2.746  0.0449 -0.0386  0.3008
  637THF     C312371   1.973   4.100   2.580 -0.3792 -0.7272  0.4455
  637THF     H412372   2.115   4.297   2.729  0.3349 -1.3087 -1.2251
  637THF     H512373   1.979   4.265   2.849 -2.4771 -1.4609 -0.3868
  637THF     H612374   2.058   4.103   2.512 -1.0732  1.0640 -0.4192
  637THF     H712375   1.925   4.004   2.559 -1.2415 -0.4159  0.9305
  637THF     C812376   1.880   4.217   2.550 -0.2353  0.2275  0.6124
  637THF     C912377   1.927   4.325   2.644  0.4571 -0.1794  0.4788
  637THF    H1012378   1.778   4.189   2.575  0.8660 -5.3095  0.0836
  637THF    H1112379   1.883   4.246   2.445  1.0220 -0.6725  0.3821
  637THF    H1212380   1.972   4.402   2.581 -1.5060  0.1239 -0.6519
  637THF    H1312381   1.847   4.378   2.696 -0.5961 -1.4172  0.1642
  638THF     O112382   4.777   3.529   3.019 -0.0145 -0.3012  0.4185
  638THF     C212383   4.857   3.489   3.130 -0.1654 -0.1966  0.7297
  638THF     C312384   4.773   3.405   2.941  1.0499  0.6601 -0.1354
  638THF     H412385   4.848   3.556   3.216  1.4796  1.7769 -0.5427
  638THF     H512386   4.960   3.498   3.098 -0.2453  1.9362  0.8896
  638THF     H612387   4.702   3.407   2.858  1.6431  0.8360 -0.6466
  638THF     H712388   4.870   3.384   2.897  0.9171  0.4147 -0.3138
  638THF     C812389   4.742   3.294   3.043 -0.3531 -0.0203  0.1881
  638THF     C912390   4.812   3.351   3.166  0.4554 -0.2518  0.3660
  638THF    H1012391   4.782   3.196   3.019  1.3572  0.5694  0.4402
  638THF    H1112392   4.634   3.300   3.058 -0.6054 -0.2453 -1.3550
  638THF    H1212393   4.739   3.339   3.246 -0.4614  0.5972 -0.3274
  638THF    H1312394   4.895   3.282   3.182 -0.3090 -0.8532  1.9237
  639THF     O112395   3.281   5.279   3.854 -0.3733 -0.1453 -0.0357
  639THF     C212396   3.338   5.410   3.829  0.5175 -0.1386  0.3292
  639THF     C312397   3.154   5.288   3.915 -0.4243 -0.0316  0.0709
  639THF     H412398   3.416   5.417   3.754  0.4153  1.3483  0.3202
  639THF     H512399   3.382   5.450   3.921  0.1437  0.3339  0.3100
  639THF     H612400   3.088   5.218   3.864  0.1456  1.9430 -3.7937
  639THF     H712401   3.163   5.282   4.024 -2.3517 -0.3293  0.2546
  639THF     C812402   3.114   5.434   3.900 -0.5130 -0.2044 -0.5702
  639THF     C912403   3.216   5.496   3.801  0.6127  0.9311 -0.3562
  639THF    H1012404   3.112   5.491   3.993 -0.1783  0.8247 -1.1823
  639THF    H1112405   3.014   5.447   3.859 -0.4336  1.1604 -0.3744
  639THF    H1212406   3.195   5.468   3.698 -0.7773 -0.8946  0.3403
  639THF    H1312407   3.231   5.602   3.816  0.5246  0.6552  2.2802
  640THF     O112408   1.255   3.195   2.316  0.2832 -0.5499  0.3264
  640THF     C212409   1.139   3.137   2.249 -0.0514 -0.5439 -0.2268
  640THF     C312410   1.243   3.186   2.459  0.4436 -0.3614 -0.0980
  640THF     H412411   1.158   3.050   2.187  0.9547  1.3323 -2.7141
  640THF     H512412   1.095   3.219   2.193  2.1451  3.5418  3.4202
  640THF     H612413   1.343   3.172   2.499  0.6778 -0.0255 -0.5490
  640THF     H712414   1.204   3.280   2.498  0.9787 -1.5203  3.5764
  640THF     C812415   1.145   3.072   2.470  0.6793 -0.0603 -0.8363
  640THF     C912416   1.049   3.098   2.360 -0.3276 -0.7049 -0.3362
  640THF    H1012417   1.108   3.070   2.573  2.6089  1.4597 -0.0488
  640THF    H1112418   1.204   2.981   2.460  1.0035 -0.3317  2.4284
  640THF    H1212419   0.993   3.012   2.324  1.7224 -1.4136 -2.0163
  640THF    H1312420   0.981   3.180   2.383 -0.8483 -1.0231 -0.7120
  641THF     O112421   0.181   1.331   4.344  0.3527 -0.1128  0.7342
  641THF     C212422   0.179   1.420   4.459  0.1141 -0.3934  0.3736
  641THF     C312423   0.061   1.347   4.263 -0.6167 -0.2659 -0.4862
  641THF     H412424   0.268   1.482   4.462 -0.2139  0.0525  1.0474
  641THF     H512425   0.170   1.350   4.542 -1.1744  0.3569  0.8983
  641THF     H612426   0.093   1.336   4.159 -0.1585  0.6930 -0.4525
  641THF     H712427  -0.012   1.270   4.287 -0.3103 -1.1908 -2.3217
  641THF     C812428   0.018   1.492   4.298  0.3367  0.1762 -0.6393
  641THF     C912429   0.047   1.500   4.449 -0.4229  0.3969 -0.5212
  641THF    H1012430  -0.085   1.510   4.265  0.9384  2.1934 -1.5653
  641THF    H1112431   0.072   1.569   4.243  1.1482 -0.7668 -1.1924
  641THF    H1212432   0.052   1.601   4.488 -1.3531 -0.3424  1.6711
  641THF    H1312433  -0.033   1.444   4.499 -0.0655  0.6684  0.3725
  642THF     O112434   3.689   4.371   3.157 -0.2553 -0.7104 -0.5187
  642THF     C212435   3.597   4.379   3.266  0.3997 -0.0220  0.2451
  642THF     C312436   3.650   4.276   3.063  0.1959 -0.3054 -0.3091
  642THF     H412437   3.581   4.484   3.292  0.2602  0.1524 -0.5143
  642THF     H512438   3.632   4.328   3.356  1.0125 -1.3562 -0.7226
  642THF     H612439   3.604   4.324   2.976 -3.2471  2.5702  2.7070
  642THF     H712440   3.731   4.215   3.024 -0.1477  0.5922 -2.6320
  642THF     C812441   3.543   4.190   3.119 -0.9094  0.0633 -0.0757
  642THF     C912442   3.479   4.296   3.208  0.0335  0.3479 -0.3093
  642THF    H1012443   3.584   4.100   3.166 -1.7254  0.1595  0.8545
  642THF    H1112444   3.467   4.153   3.050  0.8144  0.3457 -2.2364
  642THF    H1212445   3.413   4.356   3.146 -0.5880  0.9702  0.9113
  642THF    H1312446   3.417   4.252   3.287 -0.4647  0.2198 -0.7671
  643THF     O112447   2.621   2.485   0.562 -0.1831 -1.0843 -0.4995
  643THF     C212448   2.613   2.442   0.698 -0.5396 -0.3183  0.3197
  643THF     C312449   2.590   2.622   0.543  0.2083 -0.5202 -0.3089
  643THF     H412450   2.715   2.434   0.736 -0.9184  0.5714  1.6004
  643THF     H512451   2.553   2.352   0.708 -1.2550  0.0516 -0.4838
  643THF     H612452   2.681   2.668   0.506  0.6090  1.0855  2.3828
  643THF     H712453   2.508   2.641   0.474  0.5340  1.7041 -0.1505
  643THF     C812454   2.566   2.669   0.681  0.3937  0.6390 -0.9496
  643THF     C912455   2.536   2.551   0.764  0.0715 -0.3608  0.0425
  643THF    H1012456   2.493   2.750   0.683  1.7777  1.9170  1.3013
  643THF    H1112457   2.663   2.710   0.707  0.8240 -0.5976 -0.5481
  643THF    H1212458   2.563   2.567   0.869 -1.2916  0.9373  0.2407
  643THF    H1312459   2.429   2.531   0.754 -0.0239  0.7820 -1.6066
  644THF     O112460   0.042   0.445   3.577 -0.0309  0.3285 -0.1174
  644THF     C212461   0.016   0.514   3.458 -0.2189  0.8596 -0.2394
  644THF     C312462   0.107   0.318   3.543  0.7801  0.4090  0.9264
  644THF     H412463   0.105   0.568   3.427 -0.8123  1.7310 -0.4767
  644THF     H512464  -0.056   0.595   3.471 -2.1761 -0.9989  1.3062
  644THF     H612465   0.208   0.340   3.509 -0.2012  1.7896 -1.3543
  644THF     H712466   0.116   0.245   3.624  1.2047 -0.0456  0.4731
  644THF     C812467   0.020   0.276   3.432  0.2976 -0.1803  0.1627
  644THF     C912468  -0.029   0.406   3.360 -0.7615  0.5949 -0.0686
  644THF    H1012469  -0.068   0.228   3.475  0.6035 -1.5062 -0.6350
  644THF    H1112470   0.063   0.203   3.363 -3.1669 -2.5651  0.2816
  644THF    H1212471   0.029   0.408   3.268  0.4167 -1.2170  0.5694
  644THF    H1312472  -0.135   0.403   3.337 -0.2112 -1.6080 -2.9553
  645THF     O112473   4.470   1.095   1.993  0.3340 -0.7004 -0.1580
  645THF     C212474   4.587   1.061   2.074  0.3114  0.7047  0.1134
  645THF     C312475   4.511   1.194   1.891  0.7466  0.2588 -0.2105
  645THF     H412476   4.578   0.964   2.122 -0.1096  0.6552 -0.0626
  645THF     H512477   4.596   1.131   2.157 -0.6407 -0.8475  1.5721
  645THF     H612478   4.490   1.145   1.796  0.9206  0.4008 -0.3228
  645THF     H712479   4.462   1.291   1.889  0.5134  0.1603  0.3526
  645THF     C812480   4.660   1.202   1.903  0.2372  0.3393 -0.1311
  645THF     C912481   4.696   1.074   1.972  0.6536  0.4076 -0.5192
  645THF    H1012482   4.672   1.287   1.970  0.5468  1.0657 -1.0866
  645THF    H1112483   4.712   1.218   1.809  1.3410  0.8414  0.5326
  645THF    H1212484   4.700   0.988   1.906  1.3582  0.6191 -0.7650
  645THF    H1312485   4.790   1.079   2.028  0.1654 -0.1419  0.3744
  646THF     O112486   4.568   3.946   3.900 -0.3973  0.3307  0.4274
  646THF     C212487   4.437   3.899   3.875 -0.0297 -0.4839  1.0850
  646THF     C312488   4.574   4.095   3.909 -0.4725  0.3705  0.5784
  646THF     H412489   4.430   3.793   3.899 -1.6951 -0.1181  2.3894
  646THF     H512490   4.414   3.908   3.769  2.2950 -3.6156  0.1526
  646THF     H612491   4.644   4.136   3.981  1.0923  1.3188 -1.3877
  646THF     H712492   4.599   4.130   3.809  0.4985 -0.3926  0.5397
  646THF     C812493   4.434   4.129   3.946  0.0546 -0.4797  0.3187
  646THF     C912494   4.360   3.996   3.962 -0.8702 -0.1850  0.0906
  646THF    H1012495   4.380   4.193   3.876  1.1888 -1.1845 -1.2627
  646THF    H1112496   4.438   4.180   4.042 -0.4429 -0.3008  0.2491
  646THF    H1212497   4.361   3.963   4.067 -0.9147  0.3379  0.2555
  646THF    H1312498   4.251   4.002   3.960 -0.8769  1.1592  1.6666
  647THF     O112499   2.000   2.076   3.431 -0.1369 -0.2230 -0.2533
  647THF     C212500   2.136   2.059   3.423  0.1411  0.1434  0.3751
  647THF     C312501   1.971   2.217   3.443  0.0724 -0.6050  0.0201
  647THF     H412502   2.180   2.096   3.330  0.5716  0.4231  0.6861
  647THF     H512503   2.175   1.958   3.437  2.8181  1.2671  1.7685
  647THF     H612504   1.977   2.271   3.348 -0.0782  2.2398  1.5183
  647THF     H712505   1.872   2.232   3.485  0.6487 -1.4115  1.7506
  647THF     C812506   2.084   2.266   3.533 -0.4145  0.1569 -0.9658
  647THF     C912507   2.177   2.141   3.540  0.2105 -0.4054  0.5965
  647THF    H1012508   2.047   2.317   3.621  0.4618  0.1831 -0.6012
  647THF    H1112509   2.142   2.346   3.487  0.7523 -0.2293 -0.2075
  647THF    H1212510   2.284   2.155   3.555  0.3054 -1.5403  1.1280
  647THF    H1312511   2.154   2.085   3.631  1.7200 -0.5277  0.9184
  648THF     O112512   2.543   5.276   3.231  0.9704  0.3398 -0.1970
  648THF     C212513   2.401   5.284   3.195  0.4917  0.0149 -0.1351
  648THF     C312514   2.616   5.353   3.142  0.3820 -0.4520 -0.3063
  648THF     H412515   2.363   5.383   3.221 -0.9620 -0.5389 -0.0559
  648THF     H512516   2.328   5.219   3.245  1.7377  0.7025  2.7906
  648THF     H612517   2.613   5.454   3.180 -2.3576  0.2684 -2.1676
  648THF     H712518   2.718   5.315   3.142 -0.2687 -2.3831 -1.5608
  648THF     C812519   2.556   5.334   3.004  0.7700  0.0327 -0.0336
  648THF     C912520   2.415   5.272   3.039  0.2747  0.2406 -0.4359
  648THF    H1012521   2.608   5.256   2.948 -1.4945 -2.4620  1.1233
  648THF    H1112522   2.549   5.424   2.945  1.8300 -0.2600 -0.6432
  648THF    H1212523   2.333   5.318   2.984  0.7839  1.0259 -0.5629
  648THF    H1312524   2.423   5.165   3.018  0.8217 -0.0858  1.2250
  649THF     O112525   5.357   1.871   5.004 -0.0807  0.9778 -0.1688
  649THF     C212526   5.378   1.811   5.139 -0.2165  0.6203 -0.5408
  649THF     C312527   5.228   1.932   5.004 -0.2683  0.2760  0.2137
  649THF     H412528   5.482   1.793   5.166 -0.6020  2.0828  2.3711
  649THF     H512529   5.334   1.711   5.141 -1.0238  0.9557  1.7034
  649THF     H612530   5.222   2.004   4.923 -0.1221 -0.7771 -0.7606
  649THF     H712531   5.150   1.857   4.990  0.3166 -0.7015  1.8554
  649THF     C812532   5.218   1.999   5.140 -1.0495 -0.0972  0.3100
  649THF     C912533   5.309   1.914   5.225  0.3331  0.2930 -0.5189
  649THF    H1012534   5.112   1.996   5.167 -1.6007  1.7611 -1.3914
  649THF    H1112535   5.264   2.098   5.146  0.4355 -0.7850  0.4526
  649THF    H1212536   5.392   1.970   5.268  2.9771 -2.1348 -2.1756
  649THF    H1312537   5.247   1.874   5.305 -0.5421  0.0686 -1.2917
  650THF     O112538   2.571   5.223   5.320  0.0725 -0.4246  0.7820
  650THF     C212539   2.602   5.266   5.189 -0.3715  0.8395  0.2983
  650THF     C312540   2.694   5.170   5.374  0.3561  0.5284 -0.1141
  650THF     H412541   2.649   5.362   5.207  2.3312 -0.3353 -0.0973
  650THF     H512542   2.528   5.287   5.112  1.0569 -3.8232 -2.7209
  650THF     H612543   2.732   5.230   5.456  0.1793 -1.1292  1.2305
  650THF     H712544   2.671   5.071   5.414 -3.3327  0.2519 -2.3976
  650THF     C812545   2.794   5.160   5.258 -0.2344 -0.3686  0.0931
  650THF     C912546   2.715   5.181   5.134  1.4232 -0.1964 -0.6015
  650THF    H1012547   2.841   5.063   5.243 -0.8872 -0.3861 -2.3268
  650THF    H1112548   2.868   5.240   5.255 -2.8273  2.1776 -1.0875
  650THF    H1212549   2.754   5.238   5.050  0.8030 -0.0028 -0.7652
  650THF    H1312550   2.677   5.086   5.097  2.8348 -0.8311 -0.4765
  651THF     O112551   2.400   1.757   2.696  0.0781 -0.0022 -0.4059
  651THF     C212552   2.313   1.866   2.739 -0.0817  0.1278  0.3229
  651THF     C312553   2.442   1.694   2.816  0.1010 -0.3999 -0.1119
  651THF     H412554   2.210   1.833   2.749 -0.1719  0.7896  2.0653
  651THF     H512555   2.309   1.954   2.675 -0.6040  1.3509  1.9678
  651THF     H612556   2.366   1.623   2.849 -0.8267 -0.4242 -2.2010
  651THF     H712557   2.529   1.634   2.791 -0.1461 -0.7368 -0.1741
  651THF     C812558   2.466   1.803   2.918 -0.1923  1.1873  0.6908
  651THF     C912559   2.358   1.906   2.885  0.0936 -0.5841  0.5951
  651THF    H1012560   2.559   1.856   2.899  1.2942 -1.3787  0.3144
  651THF    H1112561   2.472   1.771   3.022 -2.0048 -0.2721  0.4085
  651THF    H1212562   2.276   1.905   2.957 -2.4805  0.1098 -2.1419
  651THF    H1312563   2.410   2.002   2.881  0.3485 -0.7684 -1.0167
  652THF     O112564   0.194   3.224   3.099 -0.0748 -0.5185  0.1636
  652THF     C212565   0.119   3.329   3.040  1.2446 -0.8778  0.4424
  652THF     C312566   0.274   3.180   2.999  0.4161  0.2965 -0.2674
  652THF     H412567   0.087   3.414   3.101  2.7253  0.4204 -0.5255
  652THF     H512568   0.037   3.289   2.980  2.8063  0.2591 -2.6451
  652THF     H612569   0.362   3.139   3.047  0.7984  2.0943  0.6530
  652THF     H712570   0.219   3.096   2.957 -1.5040  0.6916  1.3004
  652THF     C812571   0.318   3.282   2.902  0.0551 -0.3015  0.0557
  652THF     C912572   0.206   3.389   2.934  0.0696  1.0428  0.2739
  652THF    H1012573   0.312   3.255   2.796  2.0921 -0.0531 -0.1696
  652THF    H1112574   0.422   3.307   2.924  0.2809 -1.2138  0.0579
  652THF    H1212575   0.248   3.487   2.953 -0.2755  1.0270  1.1369
  652THF    H1312576   0.145   3.412   2.847  0.3356  0.9999  0.0762
  653THF     O112577   0.044   1.849   5.493  0.5980  0.0457  0.9594
  653THF     C212578   0.086   1.934   5.595  0.4915  0.2817 -0.0980
  653THF     C312579   0.058   1.717   5.540 -0.3049  0.1546  0.2252
  653THF     H412580   0.017   2.018   5.592 -1.1424 -1.0077 -0.1120
  653THF     H512581   0.191   1.952   5.572  0.9683 -3.4055 -1.5411
  653THF     H612582  -0.006   1.645   5.489  0.1421 -1.0487  1.3193
  653THF     H712583   0.165   1.703   5.527 -0.2209  1.5772 -0.8863
  653THF     C812584   0.016   1.728   5.686 -0.5320 -0.8227  0.1037
  653THF     C912585   0.071   1.860   5.728 -0.9744 -0.6250 -0.4592
  653THF    H1012586   0.080   1.659   5.741  0.2772 -0.8302 -0.8419
  653THF    H1112587  -0.089   1.698   5.688 -0.5776 -0.6533  0.2821
  653THF    H1212588  -0.004   1.918   5.782  1.0058  1.6038  0.0537
  653THF    H1312589   0.161   1.842   5.785 -0.6883  0.8954 -0.3978
  654THF     O112590   2.455   0.130   4.811  0.4337  0.0514 -0.0903
  654THF     C212591   2.459   0.210   4.688 -0.2585  0.0037 -0.1323
  654THF     C312592   2.533   0.014   4.773  0.4588 -0.3782 -0.5730
  654THF     H412593   2.435   0.315   4.704  1.0600  0.1245  1.4178
  654THF     H512594   2.379   0.168   4.627 -0.6844 -0.3438  0.6495
  654THF     H612595   2.556  -0.030   4.869 -2.7764 -0.7648  0.1501
  654THF     H712596   2.473  -0.052   4.710  1.4009 -0.7257 -1.1113
  654THF     C812597   2.653   0.068   4.684 -0.2469 -0.3932  0.5214
  654THF     C912598   2.595   0.191   4.621 -0.3548 -0.4117  0.3225
  654THF    H1012599   2.675  -0.008   4.610  1.7935 -0.2903  0.9654
  654THF    H1112600   2.742   0.095   4.741 -1.5887  1.2885  1.9437
  654THF    H1212601   2.656   0.278   4.647 -1.1028  0.0676  0.4901
  654THF    H1312602   2.584   0.184   4.513  1.2993 -0.8080  0.1538
  655THF     O112603   5.282   5.268   0.726 -0.6422  0.2799 -0.2197
  655THF     C212604   5.142   5.296   0.729 -0.2655 -0.4001  0.6281
  655THF     C312605   5.351   5.363   0.805  0.0140 -1.3553  0.0750
  655THF     H412606   5.099   5.249   0.817 -1.6912  0.4915  0.4392
  655THF     H512607   5.097   5.241   0.647 -2.1688 -0.0955  1.4225
  655THF     H612608   5.322   5.343   0.908 -0.6364 -0.0225  0.1691
  655THF     H712609   5.459   5.367   0.793  0.1942  1.6813  1.7761
  655THF     C812610   5.276   5.493   0.764  1.4485  0.6425 -0.0283
  655THF     C912611   5.130   5.446   0.739 -0.3282  0.2136  0.4716
  655THF    H1012612   5.311   5.538   0.671 -2.3990 -0.2038 -2.0991
  655THF    H1112613   5.273   5.573   0.839  0.4061  1.6646 -1.1159
  655THF    H1212614   5.061   5.465   0.822 -1.6309 -2.6057  0.1743
  655THF    H1312615   5.086   5.489   0.649 -1.0992 -2.5526 -0.5911
  656THF     O112616   3.438   5.180   4.330 -0.1475 -0.3198 -0.2717
  656THF     C212617   3.492   5.306   4.299 -0.4944 -0.1115 -0.2605
  656THF     C312618   3.323   5.200   4.411  0.0496 -0.1118  0.1716
  656THF     H412619   3.557   5.310   4.212  0.8591  1.8398  0.7461
  656THF     H512620   3.533   5.338   4.395 -3.3459  0.1453  0.9677
  656THF     H612621   3.261   5.111   4.401  1.1010 -0.7342 -1.1076
  656THF     H712622   3.346   5.216   4.517  0.0211 -0.8226  0.2884
  656THF     C812623   3.254   5.320   4.342 -0.2274 -0.2545 -0.0445
  656THF     C912624   3.370   5.396   4.279  0.0852  0.5572  0.0195
  656THF    H1012625   3.195   5.371   4.419 -1.1509 -1.0779 -0.1872
  656THF    H1112626   3.182   5.285   4.268 -1.2622  0.3093  0.6608
  656THF    H1212627   3.341   5.403   4.175  2.6083  2.8017 -0.6668
  656THF    H1312628   3.387   5.494   4.325 -3.0190  0.5287  1.4614
  657THF     O112629   4.980   2.368   3.654  0.3555 -0.3133 -0.4570
  657THF     C212630   4.984   2.474   3.745 -0.1499  0.0485 -1.0849
  657THF     C312631   4.996   2.427   3.526  0.2574  0.3448  0.7729
  657THF     H412632   5.087   2.482   3.778 -0.1404  0.4653 -1.2193
  657THF     H512633   4.923   2.455   3.834  1.1480  0.8230 -0.0031
  657THF     H612634   5.082   2.396   3.467  0.3760  2.2320 -0.1025
  657THF     H712635   4.903   2.405   3.475  1.4488 -1.7849 -0.6111
  657THF     C812636   4.992   2.578   3.540 -0.5150  0.4467  0.4932
  657THF     C912637   4.950   2.602   3.678 -0.4098  0.0825  0.1818
  657THF    H1012638   4.933   2.620   3.458  0.6053 -0.1535 -0.6747
  657THF    H1112639   5.095   2.613   3.536 -0.1954 -0.4797  0.3025
  657THF    H1212640   5.003   2.677   3.736 -0.5033 -0.9279  1.6438
  657THF    H1312641   4.844   2.624   3.682  0.0870  2.7195  0.3566
  658THF     O112642   1.977   3.072   1.053  0.7539 -0.1503 -0.1731
  658THF     C212643   2.079   3.054   1.150 -0.3023  0.4243  0.8717
  658THF     C312644   1.851   3.047   1.118  0.4420  0.4218  0.9112
  658THF     H412645   2.172   3.095   1.112  1.0497 -2.4120  0.8782
  658THF     H512646   2.103   2.949   1.165  0.1200  0.5485  1.0624
  658THF     H612647   1.777   3.089   1.050  0.2293  0.6223  1.2613
  658THF     H712648   1.836   2.941   1.136  0.9853  0.1917  0.0691
  658THF     C812649   1.875   3.109   1.251 -0.1168  0.0927 -0.0905
  658THF     C912650   2.023   3.117   1.281 -0.1561 -0.1197  0.6247
  658THF    H1012651   1.821   3.054   1.327 -2.4715 -0.1084 -1.7903
  658THF    H1112652   1.836   3.211   1.254 -1.0182 -0.2675  1.9766
  658THF    H1212653   2.066   3.215   1.299  1.0909 -0.8893  2.0204
  658THF    H1312654   2.056   3.063   1.369 -0.6425  1.2559  1.6782
  659THF     O112655   3.223   0.630   0.183 -0.5211  0.4878 -0.0522
  659THF     C212656   3.294   0.735   0.134  0.2694 -0.0206  0.3875
  659THF     C312657   3.311   0.556   0.263  0.2109  0.1169  1.0291
  659THF     H412658   3.323   0.808   0.210 -0.0535 -1.2118  1.6891
  659THF     H512659   3.246   0.788   0.051  1.5308  1.6388  0.6605
  659THF     H612660   3.337   0.607   0.355  0.4866  1.6197  0.1516
  659THF     H712661   3.272   0.460   0.296 -1.1601 -0.7477 -2.5884
  659THF     C812662   3.434   0.548   0.176 -0.2516 -1.1806 -0.0434
  659THF     C912663   3.417   0.669   0.087 -0.9446  0.2642 -0.1008
  659THF    H1012664   3.429   0.456   0.117 -0.9047  0.2082 -2.2486
  659THF    H1112665   3.525   0.555   0.236 -0.2928  1.0714 -0.1910
  659THF    H1212666   3.507   0.731   0.084 -1.6620  1.2980 -1.3482
  659THF    H1312667   3.397   0.631  -0.013  0.0419 -2.1685  0.5444
  660THF     O112668   2.928   5.065   4.080 -0.0221  0.4935  0.0762
  660THF     C212669   2.979   5.043   4.209  0.6950 -0.5633 -0.3366
  660THF     C312670   2.840   4.962   4.042 -0.4565  0.5639  0.1726
  660THF     H412671   2.941   5.122   4.275 -1.1021 -1.3260 -0.4049
  660THF     H512672   3.088   5.032   4.214  0.8781  0.8776 -0.7432
  660THF     H612673   2.759   5.014   3.990 -1.1649  0.1825  0.8730
  660THF     H712674   2.890   4.896   3.971 -1.4428 -1.6033  1.4206
  660THF     C812675   2.793   4.886   4.168 -0.4605 -0.5240 -0.0445
  660THF     C912676   2.921   4.913   4.261  0.3943  0.3782 -0.1733
  660THF    H1012677   2.770   4.780   4.169  0.1352 -0.6666 -0.4859
  660THF    H1112678   2.704   4.940   4.199 -0.2245  0.0570 -0.3575
  660THF    H1212679   2.878   4.904   4.361 -2.5344 -1.0523 -1.4189
  660THF    H1312680   2.987   4.829   4.241 -2.3667 -2.0425  0.1247
  661THF     O112681   0.279   1.957   4.718 -0.2877  0.0811 -0.3571
  661THF     C212682   0.259   1.851   4.626  0.6089  0.4320  0.2442
  661THF     C312683   0.184   2.062   4.689 -0.2416  0.6365  0.4554
  661THF     H412684   0.176   1.787   4.655  0.9120 -0.5282 -0.9440
  661THF     H512685   0.342   1.782   4.610  0.9334  1.1103 -1.1809
  661THF     H612686   0.082   2.041   4.721 -0.2267  1.3870  1.0297
  661THF     H712687   0.208   2.151   4.746 -2.4444  2.6027 -1.4543
  661THF     C812688   0.181   2.062   4.537  0.7755 -0.3256 -0.8255
  661THF     C912689   0.232   1.927   4.492 -0.2548  0.0708  0.0259
  661THF    H1012690   0.232   2.146   4.490  0.0095  0.5333 -0.1632
  661THF    H1112691   0.076   2.070   4.510  0.1504  1.6564  1.7514
  661THF    H1212692   0.153   1.869   4.445  1.1704 -1.8018 -0.1854
  661THF    H1312693   0.326   1.939   4.438 -0.6568  0.5220 -0.5857
  662THF     O112694   5.080   1.216   2.226  0.3346 -0.3876  0.5655
  662THF     C212695   5.210   1.253   2.195 -0.8433  0.0116 -0.0736
  662THF     C312696   4.989   1.281   2.133  0.1955  0.3825  0.8343
  662THF     H412697   5.278   1.170   2.211 -2.5526 -1.3027  0.7499
  662THF     H512698   5.260   1.329   2.256  1.3515 -0.3776 -1.2786
  662THF     H612699   4.896   1.226   2.116  0.5146  0.1686 -0.3125
  662THF     H712700   4.962   1.378   2.173 -1.5972  0.1973  0.1920
  662THF     C812701   5.066   1.296   2.004  0.3217  0.2353  0.5001
  662THF     C912702   5.212   1.311   2.051 -0.4819  0.2046 -0.3699
  662THF    H1012703   5.034   1.373   1.933 -0.8318 -1.1666 -0.5608
  662THF    H1112704   5.063   1.199   1.953 -1.3325  0.4850  0.0648
  662THF    H1212705   5.283   1.258   1.988 -0.2985 -2.0767  1.6170
  662THF    H1312706   5.236   1.418   2.057  1.5773 -0.2311 -0.0471
  663THF     O112707   2.185   1.193   4.610 -0.0426  0.3599  0.4991
  663THF     C212708   2.096   1.223   4.718 -0.7411  0.0533 -0.1484
  663THF     C312709   2.303   1.267   4.629 -0.0652 -0.9442 -0.6175
  663THF     H412710   2.009   1.158   4.721 -0.0710 -0.8971 -0.7886
  663THF     H512711   2.058   1.324   4.702  0.9652  0.7251 -0.1930
  663THF     H612712   2.382   1.210   4.580  1.5844 -0.8186  1.7076
  663THF     H712713   2.280   1.361   4.580 -1.4955 -0.2577  1.2521
  663THF     C812714   2.316   1.266   4.783 -0.1392 -0.6379 -0.0277
  663THF     C912715   2.187   1.218   4.844 -0.0143  0.0427  0.2748
  663THF    H1012716   2.334   1.367   4.821 -0.5513 -0.5929  0.0462
  663THF    H1112717   2.396   1.200   4.816 -0.7242 -1.0642  0.5403
  663THF    H1212718   2.198   1.115   4.880  1.1869 -0.6041 -1.7718
  663THF    H1312719   2.144   1.288   4.915 -1.1254 -0.6847  0.3580
  664THF     O112720   2.554   3.255   2.620  0.6339 -0.3568  0.3377
  664THF     C212721   2.619   3.356   2.692  0.1486 -0.6723  0.1274
  664THF     C312722   2.612   3.131   2.650  0.0633 -0.3919  0.0731
  664THF     H412723   2.551   3.436   2.720  1.0951  0.7002 -1.3040
  664THF     H512724   2.695   3.400   2.627 -0.2155  2.4783  1.6505
  664THF     H612725   2.555   3.045   2.615  0.6908 -0.2408 -1.3834
  664THF     H712726   2.710   3.114   2.605  0.3293 -3.3131  1.5091
  664THF     C812727   2.642   3.148   2.798 -0.1589  0.1441 -0.1453
  664THF     C912728   2.685   3.291   2.813 -0.4817  0.0152 -0.3506
  664THF    H1012729   2.722   3.084   2.835  1.1705  0.9980 -1.4132
  664THF    H1112730   2.550   3.124   2.851 -0.6096 -0.6971 -1.2650
  664THF    H1212731   2.647   3.337   2.905  0.8489 -0.9900  0.7502
  664THF    H1312732   2.792   3.313   2.814 -0.3762 -0.3452  1.5589
  665THF     O112733   4.396   2.987   0.937  0.6290  0.1344  0.5852
  665THF     C212734   4.421   2.861   1.001 -0.0211 -0.5155  0.3681
  665THF     C312735   4.325   2.953   0.823 -0.4858  0.1636 -0.2759
  665THF     H412736   4.474   2.884   1.092 -0.4868  2.1128  0.0585
  665THF     H512737   4.488   2.799   0.941  1.6381  1.2213  0.3205
  665THF     H612738   4.271   3.034   0.774 -0.4756  0.8578  0.8333
  665THF     H712739   4.398   2.907   0.756  2.9808  0.7547  2.8051
  665THF     C812740   4.221   2.857   0.877  0.2200  0.5239  0.1546
  665THF     C912741   4.284   2.800   1.001  0.8559 -0.3606 -0.1240
  665THF    H1012742   4.204   2.767   0.818 -0.2987 -1.4867  3.1264
  665THF    H1112743   4.124   2.895   0.907  1.2802  1.6466  2.4063
  665THF    H1212744   4.235   2.837   1.091  2.5317 -0.8763  1.0481
  665THF    H1312745   4.285   2.692   1.008  1.2284 -0.3723 -0.3067
  666THF     O112746   0.754   4.865   5.407  0.4195 -0.6674  0.3813
  666THF     C212747   0.677   4.762   5.471  0.0101 -0.2265 -0.2475
  666THF     C312748   0.766   4.828   5.270 -0.2225  0.0815  0.1724
  666THF     H412749   0.572   4.791   5.478  0.2889  0.5347  1.2721
  666THF     H512750   0.701   4.756   5.578  0.2454 -1.9175 -0.3669
  666THF     H612751   0.669   4.838   5.222 -0.2493 -1.0268 -0.0171
  666THF     H712752   0.835   4.892   5.216  0.4406 -0.0037  0.8992
  666THF     C812753   0.803   4.682   5.279  0.6190 -0.5393 -0.4817
  666THF     C912754   0.708   4.634   5.383  0.1205  0.0036 -0.2116
  666THF    H1012755   0.901   4.655   5.319 -0.0946 -2.2703  0.1960
  666THF    H1112756   0.786   4.626   5.187  2.9092 -1.9627 -0.1337
  666THF    H1212757   0.613   4.596   5.347 -0.1820  0.1376  0.4228
  666THF    H1312758   0.752   4.556   5.446 -2.7588 -1.5087  0.1108
  667THF     O112759   2.774   4.294   3.880  0.3211  0.3753 -0.3814
  667THF     C212760   2.869   4.318   3.988  0.2306  0.1639  0.2776
  667THF     C312761   2.753   4.148   3.871  0.7253  0.1599  0.2421
  667THF     H412762   2.823   4.386   4.060 -1.5640 -1.3630  0.6616
  667THF     H512763   2.952   4.378   3.951  0.9567  0.2723  1.9869
  667THF     H612764   2.647   4.149   3.847  0.8266 -1.6455 -0.4210
  667THF     H712765   2.810   4.111   3.786  1.3207  1.1181  0.2084
  667THF     C812766   2.777   4.098   4.010 -0.2158 -0.5114 -0.1773
  667THF     C912767   2.899   4.184   4.047 -0.3760 -0.0555  0.1762
  667THF    H1012768   2.800   3.994   4.035  0.1322 -0.1587  1.0561
  667THF    H1112769   2.686   4.119   4.066 -1.5355 -1.2181 -1.9653
  667THF    H1212770   2.902   4.203   4.154  1.0581  2.6159 -0.2661
  667THF    H1312771   2.988   4.140   4.003 -0.0226  0.1482  0.6787
  668THF     O112772   0.723   0.553   3.551 -0.5797  0.0822 -0.0705
  668THF     C212773   0.635   0.508   3.652 -0.0849  0.7945 -0.8860
  668THF     C312774   0.645   0.561   3.432  0.0830 -0.2764  0.0524
  668THF     H412775   0.677   0.524   3.751  1.2659 -0.2810 -1.2522
  668THF     H512776   0.614   0.403   3.634 -0.1535  0.6820 -0.1814
  668THF     H612777   0.702   0.608   3.352 -0.5833  1.0217  0.3201
  668THF     H712778   0.637   0.455   3.408  0.0338 -0.2814  0.0906
  668THF     C812779   0.513   0.616   3.475 -0.2181  0.5030  0.2566
  668THF     C912780   0.518   0.595   3.622  0.0761 -0.2264 -0.4647
  668THF    H1012781   0.424   0.560   3.445 -1.1000  0.2335  3.0545
  668THF    H1112782   0.499   0.717   3.436 -1.2529  0.0250 -0.6737
  668THF    H1212783   0.526   0.691   3.674  3.2690 -2.4437  3.6995
  668THF    H1312784   0.426   0.547   3.655  0.7981 -0.8866  0.6613
  669THF     O112785   4.622   4.969   5.197  0.3357 -0.0801 -0.0124
  669THF     C212786   4.621   4.891   5.081  0.1339  0.4461  0.1817
  669THF     C312787   4.541   4.911   5.293  0.5482 -0.7292  0.1313
  669THF     H412788   4.681   4.800   5.085  0.4548  0.6301 -0.3936
  669THF     H512789   4.647   4.948   4.992  1.8017 -2.0648 -1.0547
  669THF     H612790   4.601   4.859   5.368  2.1188  0.3022 -0.3485
  669THF     H712791   4.491   4.988   5.352 -1.2746 -1.2133 -0.7197
  669THF     C812792   4.444   4.813   5.220 -0.1467  0.3998  0.1124
  669THF     C912793   4.473   4.843   5.075  0.1291 -0.3990  0.0209
  669THF    H1012794   4.337   4.816   5.242  0.4396  1.2080  3.3978
  669THF    H1112795   4.480   4.713   5.243  0.3681  0.7897  1.0757
  669THF    H1212796   4.459   4.753   5.015  2.6024 -1.3773  0.7752
  669THF    H1312797   4.405   4.922   5.044  1.3431  0.6460 -0.0756
  670THF     O112798   2.958   0.897   4.256  0.3885  0.3510  0.0928
  670THF     C212799   3.082   0.953   4.240 -0.1883  0.2982  0.1068
  670THF     C312800   2.964   0.770   4.201 -0.7974  0.3322  0.1427
  670THF     H412801   3.093   1.036   4.309  1.6132  0.7803 -0.6984
  670THF     H512802   3.094   0.989   4.138  0.0785 -1.6838 -0.6099
  670THF     H612803   2.884   0.704   4.234 -0.8612 -1.0058 -2.4123
  670THF     H712804   2.956   0.769   4.093 -1.2074  0.9890  0.1579
  670THF     C812805   3.106   0.722   4.224 -1.3065  0.0658  0.0608
  670THF     C912806   3.179   0.842   4.271 -0.3817  1.3336 -0.0034
  670THF    H1012807   3.157   0.669   4.144  1.4062 -1.0618  2.3411
  670THF    H1112808   3.108   0.648   4.304 -1.9437  0.6145  0.5990
  670THF    H1212809   3.190   0.821   4.377  0.8382 -0.5347 -0.4642
  670THF    H1312810   3.274   0.852   4.220  0.2865 -2.3009  0.2653
  671THF     O112811   4.543   4.007   3.257  0.0796 -0.6451 -0.3149
  671THF     C212812   4.522   3.947   3.382  0.3147  0.3810 -0.3758
  671THF     C312813   4.493   4.143   3.278 -0.6500  0.2235 -1.1539
  671THF     H412814   4.594   3.866   3.392  1.0191  1.0484  0.0365
  671THF     H512815   4.420   3.912   3.397  0.9809 -1.2587  0.5896
  671THF     H612816   4.553   4.207   3.213  2.8230  1.1680  2.5714
  671THF     H712817   4.389   4.148   3.246 -0.3064  1.8314 -2.1467
  671THF     C812818   4.500   4.177   3.426  0.4316  0.4868 -0.1610
  671THF     C912819   4.557   4.051   3.488  0.6586 -0.1112  0.3712
  671THF    H1012820   4.399   4.195   3.465 -1.2607 -2.5580 -2.6853
  671THF    H1112821   4.570   4.256   3.453  0.8653  0.2078 -0.4716
  671THF    H1212822   4.665   4.061   3.488  0.7055 -0.0153 -2.2679
  671THF    H1312823   4.521   4.023   3.587 -1.3112  1.9934  0.3354
  672THF     O112824   1.333   4.602   5.154  0.4273  0.3857  0.1868
  672THF     C212825   1.455   4.587   5.073 -0.0874 -0.0283  0.7794
  672THF     C312826   1.258   4.703   5.089  0.3237 -0.0661 -0.3536
  672THF     H412827   1.431   4.529   4.984  0.0491  0.7940  0.1965
  672THF     H512828   1.539   4.551   5.133  2.4163  2.3921 -0.9953
  672THF     H612829   1.222   4.656   4.998  0.7060  1.6754 -1.4263
  672THF     H712830   1.175   4.733   5.152 -1.0887  3.0011 -3.4331
  672THF     C812831   1.362   4.814   5.055 -0.4148  0.0700  0.0328
  672THF     C912832   1.485   4.725   5.021 -0.0308 -0.2892  0.1261
  672THF    H1012833   1.378   4.875   5.144  0.4257  1.4234 -1.0039
  672THF    H1112834   1.342   4.875   4.967 -0.0877 -2.2747 -1.7735
  672THF    H1212835   1.494   4.735   4.913  0.2169 -0.6463  0.1117
  672THF    H1312836   1.571   4.761   5.078 -1.1868  1.9996  0.5477
  673THF     O112837   0.696   4.138   4.246  0.1884 -0.0988 -0.1226
  673THF     C212838   0.636   4.268   4.261  0.0401 -0.2649 -0.5045
  673THF     C312839   0.618   4.054   4.323 -0.4727 -0.1801 -0.3542
  673THF     H412840   0.551   4.284   4.195  0.7337  0.3249 -1.2740
  673THF     H512841   0.703   4.346   4.225  0.8009 -0.4096  0.5572
  673THF     H612842   0.521   4.047   4.274  0.2975  0.7792 -2.1094
  673THF     H712843   0.662   3.956   4.341  1.6570  0.9884  1.2482
  673THF     C812844   0.579   4.141   4.447  0.4562  0.5963 -0.1912
  673THF     C912845   0.599   4.285   4.408  0.6920  0.1225 -0.2157
  673THF    H1012846   0.623   4.111   4.541 -3.3339  0.2985  1.7006
  673THF    H1112847   0.471   4.123   4.453  0.7720 -0.9374  1.5766
  673THF    H1212848   0.512   4.350   4.412  1.5706  1.4447 -1.4379
  673THF    H1312849   0.679   4.334   4.463  1.0875 -0.5597 -0.1610
  674THF     O112850   1.504   3.277   1.039 -0.2351 -0.1386 -0.1116
  674THF     C212851   1.473   3.142   1.005  0.1254  0.4686  0.3255
  674THF     C312852   1.464   3.294   1.175  0.2979 -0.0102 -0.0207
  674THF     H412853   1.551   3.076   1.043  0.1095 -0.0809 -0.5834
  674THF     H512854   1.463   3.124   0.898  0.4627  2.1448 -0.0252
  674THF     H612855   1.537   3.257   1.247 -0.4019  1.5214  1.5332
  674THF     H712856   1.438   3.399   1.189  0.2696  0.2045 -1.5046
  674THF     C812857   1.338   3.218   1.185  0.3527  0.8015  0.0434
  674THF     C912858   1.345   3.107   1.080 -0.0441 -0.0608  0.3538
  674THF    H1012859   1.256   3.279   1.147 -2.4426 -0.6411  3.2736
  674THF    H1112860   1.320   3.178   1.285 -0.4350 -1.1929 -0.8457
  674THF    H1212861   1.348   3.006   1.121 -0.7273  0.5903  2.1232
  674THF    H1312862   1.266   3.114   1.005  2.8336 -0.8996 -3.0417
  675THF     O112863   0.391   2.816   1.633 -0.5040  0.1145  0.1186
  675THF     C212864   0.363   2.914   1.735  0.0404  0.6081  0.3324
  675THF     C312865   0.481   2.720   1.700  0.3091 -0.3652 -0.1442
  675THF     H412866   0.292   2.868   1.805  2.0950 -1.9210  0.9020
  675THF     H512867   0.315   3.004   1.697 -3.6160 -1.7076 -1.1841
  675THF     H612868   0.440   2.655   1.777  0.1709  2.0563  1.9759
  675THF     H712869   0.538   2.656   1.634  1.6804 -0.3087  0.9505
  675THF     C812870   0.580   2.820   1.763 -0.0758 -0.0827  0.2443
  675THF     C912871   0.499   2.939   1.805 -0.1852 -0.4561 -0.0483
  675THF    H1012872   0.635   2.854   1.675 -0.8298  0.6794  0.0578
  675THF    H1112873   0.656   2.793   1.836 -0.6106 -1.6614  0.2505
  675THF    H1212874   0.487   2.967   1.910 -3.4546  0.1952 -0.4999
  675THF    H1312875   0.547   3.027   1.763  0.2023 -0.5262  0.2426
  676THF     O112876   5.068   2.265   4.341 -0.0366 -0.0513  0.0085
  676THF     C212877   5.026   2.280   4.478  0.0294 -0.8216 -1.0293
  676THF     C312878   5.104   2.399   4.299  0.3870 -0.5021 -0.3589
  676THF     H412879   5.115   2.289   4.541 -0.0917  1.3680 -1.0983
  676THF     H512880   4.978   2.193   4.522  2.4461 -0.7609  2.1126
  676THF     H612881   5.193   2.436   4.350  0.0843 -0.3135  0.0397
  676THF     H712882   5.122   2.409   4.192  1.2042  1.3149 -0.0814
  676THF     C812883   4.999   2.484   4.357  0.4244  0.0602  0.0933
  676THF     C912884   4.961   2.415   4.483 -0.0223 -0.2313 -0.1096
  676THF    H1012885   4.920   2.496   4.283  0.2941 -0.4718  0.1421
  676THF    H1112886   5.035   2.584   4.381  0.6137  0.2238 -0.8416
  676THF    H1212887   4.993   2.479   4.566 -1.7595 -0.1773  0.5605
  676THF    H1312888   4.853   2.405   4.494 -0.1080 -0.0913 -0.8010
  677THF     O112889   0.275   5.030   5.358 -0.1406 -0.2608 -0.3076
  677THF     C212890   0.315   5.126   5.261  0.4380 -0.0443 -0.3881
  677THF     C312891   0.391   4.952   5.379  0.4135  0.3164  0.0093
  677THF     H412892   0.239   5.205   5.257 -1.9165 -2.2588 -2.9056
  677THF     H512893   0.322   5.075   5.165 -1.7319 -0.0318 -0.5960
  677THF     H612894   0.371   4.886   5.464 -1.9643  1.0907  0.1214
  677THF     H712895   0.417   4.891   5.292 -0.3260  0.2592 -0.1770
  677THF     C812896   0.484   5.061   5.410  0.0951 -0.8943  0.0643
  677THF     C912897   0.452   5.169   5.309 -1.1333  0.9537 -0.4432
  677THF    H1012898   0.587   5.025   5.406  0.1285 -0.6432 -2.4603
  677THF    H1112899   0.462   5.110   5.505 -0.1865 -0.1427 -0.3801
  677THF    H1212900   0.453   5.271   5.348  0.2033  0.8890 -0.2698
  677THF    H1312901   0.517   5.164   5.222 -0.6711 -0.7058 -0.0299
  678THF     O112902   0.903   0.419   2.291  0.9878  0.1309 -0.1170
  678THF     C212903   0.913   0.543   2.222  0.1568  0.2657 -0.9687
  678THF     C312904   1.006   0.414   2.391  0.7047 -0.0198 -0.4660
  678THF     H412905   0.838   0.614   2.257 -1.2495 -1.8958  0.6594
  678THF     H512906   0.885   0.518   2.119 -0.9156 -2.6081 -0.0880
  678THF     H612907   0.957   0.459   2.478  1.2077  1.1433 -0.7622
  678THF     H712908   1.037   0.314   2.421 -0.6595 -0.9833 -2.1287
  678THF     C812909   1.119   0.498   2.336 -0.2235  0.4555 -0.0128
  678THF     C912910   1.054   0.597   2.242  0.3764  0.0634  0.7377
  678THF    H1012911   1.199   0.437   2.293 -1.2195 -0.6632 -0.3191
  678THF    H1112912   1.144   0.562   2.420 -2.2740 -2.3441  2.9693
  678THF    H1212913   1.044   0.684   2.306  2.4091  1.1216 -0.2896
  678THF    H1312914   1.109   0.618   2.151 -0.2344  0.9085  0.5521
  679THF     O112915   3.418   0.259   1.607  0.3063  0.1940  0.3109
  679THF     C212916   3.482   0.130   1.617  0.4754 -0.0267 -0.3020
  679THF     C312917   3.500   0.345   1.522 -0.0200  0.0188  0.5393
  679THF     H412918   3.425   0.066   1.549 -1.4335 -0.2543  1.3967
  679THF     H512919   3.468   0.095   1.719 -0.4540  0.6099 -0.2017
  679THF     H612920   3.491   0.332   1.414 -0.0024 -2.0958  0.7483
  679THF     H712921   3.478   0.451   1.530 -1.3812 -0.1099 -0.8663
  679THF     C812922   3.642   0.306   1.569 -0.0004  0.5512 -0.1893
  679THF     C912923   3.630   0.154   1.580 -0.2971 -0.0183  0.8828
  679THF    H1012924   3.668   0.359   1.661  1.4980  0.9748 -0.8368
  679THF    H1112925   3.730   0.334   1.511  1.8725  2.6259  3.2662
  679THF    H1212926   3.641   0.098   1.487 -0.8343 -0.2568  0.9548
  679THF    H1312927   3.705   0.117   1.648  0.8430  1.0348  0.2394
  680THF     O112928   2.127   1.433   3.684 -0.3356 -0.3694  0.6891
  680THF     C212929   2.054   1.351   3.593 -0.1109  0.1957 -0.7744
  680THF     C312930   2.052   1.545   3.734 -0.4078 -0.0300 -0.0495
  680THF     H412931   2.085   1.247   3.603  2.4190  1.0940  2.6024
  680THF     H512932   2.066   1.389   3.492 -0.8936  0.6682 -0.6983
  680THF     H612933   2.047   1.532   3.843  1.1366 -2.1715 -0.1624
  680THF     H712934   2.104   1.638   3.710 -0.5301 -0.0905 -0.5605
  680THF     C812935   1.912   1.524   3.677 -0.1965  0.1742 -0.1302
  680THF     C912936   1.911   1.378   3.635 -0.3714  0.4383 -0.0674
  680THF    H1012937   1.895   1.582   3.587 -0.7725 -1.0879 -0.8647
  680THF    H1112938   1.832   1.543   3.748 -0.6478  0.7209 -0.7763
  680THF    H1212939   1.873   1.307   3.709 -1.9485 -0.2061 -1.4173
  680THF    H1312940   1.836   1.352   3.559 -0.8144 -1.5766  0.9998
  681THF     O112941   5.451   4.554   1.028 -0.3462  0.4715  0.1239
  681THF     C212942   5.323   4.509   0.979  0.5274 -0.4170  0.0765
  681THF     C312943   5.478   4.491   1.151 -0.4763 -0.3903 -0.0781
  681THF     H412944   5.341   4.467   0.881  1.8144  2.6757 -1.1381
  681THF     H512945   5.252   4.589   0.953  0.2370 -0.9175 -0.7008
  681THF     H612946   5.532   4.398   1.133  1.6612  0.7504  0.1695
  681THF     H712947   5.551   4.550   1.207  0.5500  0.6117 -2.3420
  681THF     C812948   5.342   4.462   1.209  0.6546 -0.2386  0.2621
  681THF     C912949   5.266   4.420   1.083 -0.6165  0.6368  0.2060
  681THF    H1012950   5.305   4.555   1.253  0.9519  0.0357 -0.0640
  681THF    H1112951   5.356   4.381   1.281  0.0821 -0.2523  0.3584
  681THF    H1212952   5.306   4.321   1.059  2.6103  2.1184 -1.0285
  681THF    H1312953   5.159   4.429   1.102 -0.6496  1.0703 -0.1781
  682THF     O112954   0.006   1.843   3.160 -0.0378  0.2010  0.0440
  682THF     C212955   0.046   1.794   3.029  0.0302 -0.0728  0.1103
  682THF     C312956   0.083   1.762   3.243  0.2203  0.1903  0.2479
  682THF     H412957   0.144   1.824   2.992  0.6326  2.3807  3.3524
  682THF     H512958  -0.007   1.832   2.941  0.6604 -1.3002 -0.8328
  682THF     H612959   0.181   1.806   3.258 -1.1569  3.2131  1.3200
  682THF     H712960   0.033   1.760   3.340 -0.9909  1.1267 -0.3181
  682THF     C812961   0.093   1.620   3.188  0.7958 -0.3577 -0.1751
  682THF     C912962   0.046   1.642   3.039  0.3613  0.0582 -0.6728
  682THF    H1012963   0.021   1.553   3.235 -2.2843  3.5664  1.2070
  682THF    H1112964   0.194   1.579   3.201  1.0534  0.6771  1.3124
  682THF    H1212965   0.089   1.587   2.956 -1.5301  1.6477 -2.8725
  682THF    H1312966  -0.059   1.611   3.039  0.7817 -1.6609  1.9531
  683THF     O112967   2.577   1.287   0.480  0.1222  0.0706  0.1197
  683THF     C212968   2.640   1.310   0.358 -0.1267 -0.0796  0.9042
  683THF     C312969   2.665   1.342   0.586  0.5693  0.5898 -0.2274
  683THF     H412970   2.566   1.306   0.278  0.5775 -1.4286  0.2971
  683THF     H512971   2.724   1.243   0.341 -1.0759 -1.3599  1.0932
  683THF     H612972   2.609   1.381   0.670  0.6133  1.3907 -0.5628
  683THF     H712973   2.727   1.259   0.620 -0.8512 -0.5288 -0.2389
  683THF     C812974   2.752   1.441   0.515  0.1241 -0.3090 -0.2269
  683THF     C912975   2.685   1.453   0.381  0.0939 -0.5844  0.6907
  683THF    H1012976   2.855   1.406   0.508  0.2089 -0.1032  0.0066
  683THF    H1112977   2.743   1.536   0.566 -2.3991  0.2106 -1.4672
  683THF    H1212978   2.604   1.525   0.394 -0.6820 -0.7974 -2.2431
  683THF    H1312979   2.750   1.488   0.302  0.5270 -0.8156  0.9404
  684THF     O112980   2.646   1.122   4.572  0.7519 -0.4708 -0.2636
  684THF     C212981   2.768   1.052   4.613  0.0569 -0.2442 -0.0948
  684THF     C312982   2.669   1.261   4.623 -0.2104 -0.5024  0.6596
  684THF     H412983   2.788   0.971   4.543 -0.1426 -2.6392  2.4502
  684THF     H512984   2.752   1.003   4.709  0.4521  0.4575  0.3386
  684THF     H612985   2.602   1.337   4.584 -0.8953 -1.8346 -0.8524
  684THF     H712986   2.654   1.274   4.731  2.0163  1.2063  0.8429
  684THF     C812987   2.819   1.286   4.593  0.6397  0.2694  0.2427
  684THF     C912988   2.884   1.156   4.621 -0.4653 -0.1022 -0.1471
  684THF    H1012989   2.860   1.356   4.666  1.0851  0.1784  0.0826
  684THF    H1112990   2.855   1.309   4.492  2.3027 -1.5281  0.3652
  684THF    H1212991   2.972   1.136   4.560  0.3664  0.1135  0.9425
  684THF    H1312992   2.932   1.143   4.718 -1.0080 -0.7628  0.0416
  685THF     O112993   1.312   1.850   1.910 -0.6949  0.1543 -0.0647
  685THF     C212994   1.358   1.738   1.832 -0.4304  0.0363  0.6197
  685THF     C312995   1.416   1.947   1.917  0.5414  0.4343  0.5282
  685THF     H412996   1.359   1.760   1.726  1.3184 -1.8218  0.1867
  685THF     H512997   1.287   1.655   1.839  0.4930 -0.8201  0.0204
  685THF     H612998   1.419   2.010   1.829  0.3494 -1.9792 -1.2951
  685THF     H712999   1.415   2.008   2.008 -0.7662 -0.0776  0.8854
  685THF     C813000   1.543   1.856   1.924  0.3020 -0.4995  0.1819
  685THF     C913001   1.496   1.716   1.884 -0.0718  0.3511  0.0822
  685THF    H1013002   1.579   1.847   2.026  1.8943 -0.8886 -0.3886
  685THF    H1113003   1.624   1.893   1.861  0.4499 -1.0975  0.0189
  685THF    H1213004   1.555   1.669   1.806 -0.6860 -0.5219  0.1318
  685THF    H1313005   1.498   1.647   1.969  1.2057  2.7879  2.1865
  686THF     O113006   0.560   1.424   2.693  0.6258 -0.2515 -0.1426
  686THF     C213007   0.640   1.331   2.621  0.2897  0.9168  0.3603
  686THF     C313008   0.439   1.417   2.619  0.7677 -0.2888 -0.9616
  686THF     H413009   0.728   1.314   2.683  1.8988  1.8821 -1.5456
  686THF     H513010   0.672   1.365   2.523  0.5111 -0.1032  0.0734
  686THF     H613011   0.354   1.454   2.677  0.0222 -0.7442 -1.7417
  686THF     H713012   0.448   1.479   2.530 -0.9552  0.4092 -0.6861
  686THF     C813013   0.412   1.266   2.601  0.8795 -0.1941 -0.1524
  686THF     C913014   0.548   1.203   2.606  0.6404  0.0884  0.3540
  686THF    H1013015   0.354   1.237   2.514  0.2236 -2.2202  0.9026
  686THF    H1113016   0.357   1.235   2.690  0.0790 -0.7787 -0.8468
  686THF    H1213017   0.551   1.142   2.696  0.5167 -1.2482 -0.5239
  686THF    H1313018   0.576   1.144   2.518 -2.0472  0.3545 -0.7755
  687THF     O113019   2.153   4.610   3.131 -0.0508  0.2729 -0.4731
  687THF     C213020   2.192   4.654   3.001  0.3052  0.1071  0.8341
  687THF     C313021   2.027   4.539   3.112 -0.0328  0.2058  0.1033
  687THF     H413022   2.297   4.639   2.977  0.5024  1.2156  0.9725
  687THF     H513023   2.176   4.762   3.000 -0.3349  0.0188 -0.2248
  687THF     H613024   2.055   4.434   3.120 -0.8990  0.0203  0.9128
  687THF     H713025   1.960   4.568   3.192 -1.9135 -0.3673 -1.2086
  687THF     C813026   1.966   4.588   2.979 -0.5753 -0.1471  0.9288
  687THF     C913027   2.095   4.588   2.902  0.4766 -0.3214 -0.1715
  687THF    H1013028   1.926   4.688   2.993  0.0063  0.1485  0.4883
  687THF    H1113029   1.888   4.520   2.943 -0.6601  1.4097 -2.1681
  687THF    H1213030   2.132   4.489   2.877 -0.3638 -0.3182 -1.5472
  687THF    H1313031   2.098   4.636   2.804  1.8108  0.4013  0.1948
  688THF     O113032   4.702   3.761   0.146  0.1192  0.4238 -0.3060
  688THF     C213033   4.731   3.626   0.122 -0.3426  0.4931  0.2305
  688THF     C313034   4.782   3.842   0.064  0.0785 -0.3175  0.1094
  688THF     H413035   4.656   3.574   0.062 -0.8988 -3.5470  3.9477
  688THF     H513036   4.735   3.567   0.213  0.7169 -0.0372 -0.1422
  688THF     H613037   4.753   3.855  -0.040 -1.3723 -1.8233  0.2827
  688THF     H713038   4.813   3.935   0.111  2.6973 -0.6731 -0.7374
  688THF     C813039   4.908   3.761   0.064 -0.2558  0.1727  0.1881
  688THF     C913040   4.860   3.615   0.054 -0.7934  0.3064  0.4116
  688THF    H1013041   4.968   3.769   0.154  0.1619 -1.7694  0.1249
  688THF    H1113042   4.974   3.784  -0.020  1.9231 -0.1562  1.7402
  688THF    H1213043   4.867   3.580  -0.049 -0.9451 -1.8390  1.0976
  688THF    H1313044   4.921   3.543   0.107 -1.9939 -1.5863 -0.6784
  689THF     O113045   4.119   4.754   4.111  0.4594  0.1274  0.1876
  689THF     C213046   4.015   4.791   4.021  0.1447 -0.8514  0.1545
  689THF     C313047   4.150   4.871   4.186  0.5669  0.1694  0.7448
  689THF     H413048   3.959   4.701   3.995 -1.3914 -0.1095  0.7988
  689THF     H513049   4.062   4.829   3.930 -0.2190 -2.1960 -0.6201
  689THF     H613050   4.211   4.843   4.272  0.7641  1.8185  1.1676
  689THF     H713051   4.196   4.948   4.125  2.3836 -2.7580 -1.8891
  689THF     C813052   4.009   4.924   4.228  0.1079 -0.1951  0.0107
  689THF     C913053   3.926   4.885   4.103  0.3688 -0.7409  0.2684
  689THF    H1013054   4.015   5.032   4.243  2.2352 -0.0257 -1.6129
  689THF    H1113055   3.969   4.880   4.319 -1.4008  2.4374  0.7327
  689THF    H1213056   3.832   4.837   4.128 -0.9862  2.0520  0.9757
  689THF    H1313057   3.911   4.970   4.036  1.7217 -0.6284  0.0625
  690THF     O113058   1.891   2.064   1.650  0.6734  0.5386  0.1926
  690THF     C213059   1.927   1.985   1.539 -0.2515 -0.4551  0.8429
  690THF     C313060   1.988   2.063   1.752 -0.3713  0.0885  0.3081
  690THF     H413061   1.891   2.037   1.451 -2.1382 -1.0785  1.2004
  690THF     H513062   1.887   1.884   1.532 -1.8559  0.2451 -0.7024
  690THF     H613063   2.020   2.164   1.779 -2.5268  0.6498  1.0057
  690THF     H713064   1.951   2.023   1.846  0.1548  1.2300  1.0233
  690THF     C813065   2.091   1.962   1.695  0.2329 -0.0402 -0.2089
  690THF     C913066   2.077   1.971   1.542  0.2052 -0.1241 -0.8348
  690THF    H1013067   2.052   1.866   1.729 -1.4080  1.6233  3.0897
  690THF    H1113068   2.191   1.986   1.728  0.6166 -1.8353  0.0618
  690THF    H1213069   2.132   2.057   1.503  0.9550  0.0495  0.5249
  690THF    H1313070   2.109   1.879   1.494 -1.5570 -1.6934  0.8758
  691THF     O113071   5.291   2.994   0.952 -0.3345  0.2827  0.2872
  691THF     C213072   5.215   2.877   0.932 -0.0102  0.7383  0.2879
  691THF     C313073   5.306   3.057   0.829 -0.9631  0.6528 -0.0342
  691THF     H413074   5.161   2.843   1.021 -1.9873 -1.8458 -1.7219
  691THF     H513075   5.271   2.793   0.892  0.2100  0.5672  0.9483
  691THF     H613076   5.315   3.165   0.835  1.4285  0.5174 -0.5902
  691THF     H713077   5.402   3.020   0.793 -1.4412  1.4181 -2.2546
  691THF     C813078   5.190   3.007   0.745 -0.0053  0.0485 -0.5741
  691THF     C913079   5.109   2.916   0.832  0.2327 -0.2222 -0.0010
  691THF    H1013080   5.226   2.939   0.668 -1.1859 -2.4773  0.9695
  691THF    H1113081   5.132   3.091   0.706 -0.5484 -0.7583 -1.5704
  691THF    H1213082   5.028   2.967   0.885  1.8916  0.5847  1.8892
  691THF    H1313083   5.067   2.829   0.782 -0.5167  0.1911 -0.1175
  692THF     O113084   4.103   1.391   4.315  0.5295 -0.8187 -0.1919
  692THF     C213085   4.215   1.338   4.253  0.2196  0.0041 -0.7216
  692THF     C313086   4.121   1.395   4.456  0.1285  1.3908  0.6178
  692THF     H413087   4.230   1.359   4.147 -1.1910 -0.6157 -1.0670
  692THF     H513088   4.212   1.230   4.267 -2.0474  0.1321  0.2551
  692THF     H613089   4.059   1.482   4.481  1.4952  2.7336 -0.4455
  692THF     H713090   4.086   1.312   4.518  0.1181  0.6488 -0.3720
  692THF     C813091   4.276   1.413   4.481  1.2088 -0.3437  0.7934
  692THF     C913092   4.330   1.400   4.337  0.6493 -0.3891 -0.3497
  692THF    H1013093   4.306   1.339   4.555 -1.7118  0.5938  3.1119
  692THF    H1113094   4.298   1.512   4.520 -3.3144  0.6341  1.4054
  692THF    H1213095   4.350   1.501   4.300 -2.1931 -0.0884 -1.3217
  692THF    H1313096   4.417   1.336   4.334  0.2033 -1.0607 -4.4622
  693THF     O113097   1.122   0.795   3.442 -1.0226 -0.4177  0.8805
  693THF     C213098   1.258   0.753   3.465 -0.0727 -0.1871 -0.6640
  693THF     C313099   1.031   0.689   3.474  0.6966 -0.0569 -0.3150
  693THF     H413100   1.278   0.765   3.572 -0.6551 -0.7008 -0.4884
  693THF     H513101   1.336   0.808   3.413 -0.5167  1.4742  0.3490
  693THF     H613102   0.980   0.712   3.568 -0.8813  2.5995 -1.6753
  693THF     H713103   0.953   0.679   3.398  0.9938  1.7523 -0.9124
  693THF     C813104   1.120   0.560   3.481 -0.7069  0.2878 -0.8826
  693THF     C913105   1.254   0.604   3.435 -0.0147  0.4930  0.2169
  693THF    H1013106   1.086   0.475   3.422  0.2539  0.9463 -2.4591
  693THF    H1113107   1.136   0.520   3.581 -1.8380 -1.2210 -1.2602
  693THF    H1213108   1.339   0.551   3.479  0.3858  0.7386 -0.2525
  693THF    H1313109   1.268   0.601   3.327  1.2308  1.5338  0.3176
  694THF     O113110   2.158   2.826   2.890  0.3224  0.3522 -0.4244
  694THF     C213111   2.044   2.909   2.898  0.1499 -0.4168  0.5139
  694THF     C313112   2.133   2.699   2.955  0.9434  0.9062  0.0790
  694THF     H413113   1.994   2.909   2.801  1.9644 -0.2080 -0.4712
  694THF     H513114   2.060   3.010   2.935  0.0669 -0.9949  2.2154
  694THF     H613115   2.082   2.629   2.889  1.7668 -1.2521  1.6381
  694THF     H713116   2.224   2.658   2.997 -0.9247 -0.9166  2.7127
  694THF     C813117   2.037   2.738   3.063  0.8379  0.5300  0.3801
  694THF     C913118   1.947   2.837   2.989 -0.3933  0.4014 -0.3723
  694THF    H1013119   2.096   2.791   3.138 -0.1572  0.7449  1.0251
  694THF    H1113120   1.989   2.652   3.110 -0.9731  1.2410 -0.0967
  694THF    H1213121   1.881   2.774   2.929  0.2364 -0.8668  0.2235
  694THF    H1313122   1.898   2.901   3.062  0.1641 -1.9861  2.2928
  695THF     O113123   5.228   4.030   0.710 -0.0056 -0.4409  0.0646
  695THF     C213124   5.322   3.980   0.803 -0.0467  0.1188  0.6034
  695THF     C313125   5.104   4.018   0.774  0.6673  0.0828 -0.3701
  695THF     H413126   5.427   3.999   0.778 -0.3610  1.0644 -0.0530
  695THF     H513127   5.314   3.871   0.803 -1.0760  0.1810  0.2306
  695THF     H613128   5.027   4.078   0.725  0.1211  0.0217  0.4186
  695THF     H713129   5.080   3.912   0.766  1.6944 -0.1340 -0.8181
  695THF     C813130   5.125   4.066   0.917  0.3417 -0.2938 -0.6583
  695THF     C913131   5.277   4.027   0.935  0.5946 -0.6416  0.6009
  695THF    H1013132   5.066   4.014   0.992  0.0207 -3.3322 -2.8052
  695THF    H1113133   5.120   4.174   0.927  0.8008 -0.2669 -0.6858
  695THF    H1213134   5.332   4.117   0.962  1.2811 -1.3633  1.6638
  695THF    H1313135   5.286   3.954   1.016 -0.9461  0.5472  1.9282
  696THF     O113136   2.148   4.520   2.387 -0.0087  0.3914 -0.3779
  696THF     C213137   2.197   4.391   2.415 -0.3985 -0.2551  0.3153
  696THF     C313138   2.267   4.603   2.387  0.1126  0.3845 -0.3124
  696THF     H413139   2.119   4.319   2.389 -0.1066 -0.5792  0.3276
  696THF     H513140   2.222   4.380   2.520  0.1868 -0.1683  0.1840
  696THF     H613141   2.245   4.690   2.325 -1.1543 -0.3897 -1.0004
  696THF     H713142   2.305   4.637   2.483  1.9247 -0.6014 -0.6344
  696THF     C813143   2.370   4.517   2.318 -0.7277  0.3511  0.2771
  696THF     C913144   2.323   4.374   2.327  1.3288 -0.1916  0.7748
  696THF    H1013145   2.465   4.529   2.369  1.3270  2.2398 -3.5469
  696THF    H1113146   2.404   4.546   2.218 -3.8634  0.8918 -0.7493
  696THF    H1213147   2.281   4.364   2.227  1.7610  3.7509  0.0321
  696THF    H1313148   2.403   4.309   2.362  1.2962 -0.1765  0.8784
  697THF     O113149   4.181   1.671   2.517 -0.4037 -0.4995 -0.0444
  697THF     C213150   4.152   1.783   2.596  0.2312  0.1526 -0.2323
  697THF     C313151   4.251   1.583   2.601 -0.8839  0.3723 -1.1208
  697THF     H413152   4.086   1.756   2.679 -2.1098  1.8816 -1.4167
  697THF     H513153   4.110   1.870   2.547  1.4006  0.9175  0.0871
  697THF     H613154   4.180   1.532   2.667 -0.1871  0.9957  0.1650
  697THF     H713155   4.298   1.498   2.551 -1.2179  1.2926 -3.0630
  697THF     C813156   4.339   1.664   2.687  0.0111 -0.0545 -0.0850
  697THF     C913157   4.283   1.807   2.664 -0.3433  0.1237 -0.1937
  697THF    H1013158   4.441   1.651   2.650  0.6138 -0.9980  1.7505
  697THF    H1113159   4.340   1.636   2.792 -1.1504 -3.3121 -0.8286
  697THF    H1213160   4.277   1.873   2.751 -1.7406 -0.1385 -0.0630
  697THF    H1313161   4.348   1.853   2.590  3.0844 -0.9708  1.8968
  698THF     O113162   3.857   1.922   5.272 -0.6275 -0.1878 -0.8758
  698THF     C213163   3.942   1.861   5.366 -0.2022  0.4141  0.7477
  698THF     C313164   3.785   1.818   5.201 -0.0205  0.4524  0.1082
  698THF     H413165   3.951   1.917   5.460 -0.9445  2.5158 -0.3750
  698THF     H513166   4.038   1.850   5.316 -0.2792 -0.0714  0.7062
  698THF     H613167   3.695   1.848   5.146 -0.4589 -0.2953  0.4140
  698THF     H713168   3.852   1.778   5.125  0.0084  1.1797 -0.2572
  698THF     C813169   3.767   1.697   5.291 -0.4239 -0.2628 -0.2357
  698THF     C913170   3.873   1.725   5.397  0.0410  1.0650 -0.6161
  698THF    H1013171   3.785   1.595   5.256  1.7283  0.2894 -0.9399
  698THF    H1113172   3.672   1.707   5.342 -1.1737  0.7956 -1.7601
  698THF    H1213173   3.824   1.730   5.494  0.3885  0.2655 -0.3952
  698THF    H1313174   3.955   1.654   5.394  0.8919  1.9276  0.8436
  699THF     O113175   1.036   0.512   1.668  0.1339  0.5799 -0.5242
  699THF     C213176   0.940   0.446   1.742 -0.3591  0.5937 -0.9230
  699THF     C313177   0.965   0.608   1.584 -0.0608  0.3684  0.9242
  699THF     H413178   0.898   0.505   1.822 -0.2405 -0.2321 -0.2407
  699THF     H513179   0.994   0.361   1.784 -0.1085  1.4148  0.4578
  699THF     H613180   0.949   0.706   1.630 -1.7795  0.0929  0.9541
  699THF     H713181   1.026   0.624   1.495  1.6183  1.7830  2.2423
  699THF     C813182   0.843   0.526   1.539  0.1396 -0.0962  0.1075
  699THF     C913183   0.837   0.412   1.639  0.3149 -0.5152 -0.1221
  699THF    H1013184   0.859   0.491   1.437  1.0798  0.5464  0.0147
  699THF    H1113185   0.756   0.592   1.541  1.2780  1.4699 -0.0500
  699THF    H1213186   0.739   0.383   1.677 -0.2871  0.1956 -1.0881
  699THF    H1313187   0.866   0.331   1.573  0.9372 -1.3609  1.1556
  700THF     O113188   0.986   1.782   5.416 -0.7883  0.6982  0.7831
  700THF     C213189   1.087   1.839   5.487 -0.0102 -0.0805 -0.1189
  700THF     C313190   0.887   1.883   5.406  0.3173 -0.1433 -0.2189
  700THF     H413191   1.184   1.801   5.454 -0.5782  0.3054 -2.4679
  700THF     H513192   1.064   1.824   5.592 -1.1661  0.6060 -0.2578
  700THF     H613193   0.809   1.856   5.335 -0.3150 -1.7008  0.9844
  700THF     H713194   0.830   1.873   5.499  0.5339  0.2397 -0.0440
  700THF     C813195   0.967   2.012   5.381 -0.0177  0.1099 -0.0629
  700THF     C913196   1.094   1.984   5.461  0.0118  0.2970 -0.0944
  700THF    H1013197   0.918   2.095   5.432 -0.8274 -1.1461  1.3175
  700THF    H1113198   0.981   2.026   5.274  1.6292 -0.7586 -0.0018
  700THF    H1213199   1.181   1.993   5.397 -2.0263  1.3706 -2.9077
  700THF    H1313200   1.095   2.048   5.549 -1.4881 -1.3333  1.2157
  701THF     O113201   3.995   0.946   3.942 -0.3766 -0.0034  0.2225
  701THF     C213202   3.887   0.862   3.957 -0.6033  0.0565  0.4721
  701THF     C313203   3.977   1.036   3.829 -0.1070  0.5766 -0.2739
  701THF     H413204   3.855   0.856   4.062 -1.5566 -2.0054  0.0998
  701THF     H513205   3.920   0.761   3.934  0.3349  0.5896 -0.5900
  701THF     H613206   3.949   1.132   3.874  1.7473  0.1971  1.9117
  701THF     H713207   4.074   1.052   3.782 -0.7074  0.3134 -1.6265
  701THF     C813208   3.867   0.978   3.752  0.5065 -0.0593 -0.4065
  701THF     C913209   3.781   0.912   3.866  0.7017 -0.6005  0.8784
  701THF    H1013210   3.909   0.902   3.686 -0.0812 -1.3938  0.7018
  701THF    H1113211   3.821   1.055   3.690 -0.5271 -1.2383 -1.1413
  701THF    H1213212   3.729   0.995   3.914 -1.0219 -0.9343 -0.3208
  701THF    H1313213   3.698   0.851   3.831  1.6841 -2.3485  1.5144
  702THF     O113214   1.144   2.867   1.081 -0.1384  0.1180 -0.1557
  702THF     C213215   1.147   2.761   0.985  0.6768  0.0164  0.0358
  702THF     C313216   1.137   2.817   1.221 -0.5164  0.1704 -0.1066
  702THF     H413217   1.227   2.776   0.913 -0.5683  1.6112 -1.0733
  702THF     H513218   1.061   2.773   0.918  1.4603  0.2252 -0.9488
  702THF     H613219   1.199   2.885   1.280 -0.6142  0.1811 -0.0159
  702THF     H713220   1.036   2.808   1.260  0.5839 -0.5759  2.8377
  702THF     C813221   1.207   2.679   1.202  0.8216 -0.5355 -0.3965
  702THF     C913222   1.148   2.632   1.067 -0.0375  0.5697 -0.2021
  702THF    H1013223   1.199   2.609   1.285  3.6587 -0.0051  0.4274
  702THF    H1113224   1.314   2.679   1.184  1.0087 -0.2520  0.7048
  702THF    H1213225   1.204   2.545   1.031  1.3096  0.6890  1.4381
  702THF    H1313226   1.046   2.595   1.076  0.6702 -1.6777 -0.7494
  703THF     O113227   1.418   0.716   4.870 -0.1789  0.5398 -0.0303
  703THF     C213228   1.524   0.814   4.858  0.3929  0.1133 -0.2589
  703THF     C313229   1.480   0.585   4.859 -0.2235 -0.6212 -0.4120
  703THF     H413230   1.533   0.864   4.955  1.1543 -0.8338  0.1747
  703THF     H513231   1.506   0.898   4.792 -0.3089 -1.1295 -1.7067
  703THF     H613232   1.424   0.501   4.900 -0.1950 -1.7185 -2.4790
  703THF     H713233   1.489   0.575   4.751 -0.4757 -0.4241 -0.4511
  703THF     C813234   1.614   0.599   4.913  0.5404 -0.2178 -0.3132
  703THF     C913235   1.650   0.734   4.852  0.1073  0.1347 -0.6233
  703THF    H1013236   1.682   0.516   4.894  1.9239  0.2984  2.0838
  703THF    H1113237   1.607   0.612   5.021 -4.0500  0.1510 -0.4242
  703THF    H1213238   1.736   0.780   4.902  0.7926  2.2196 -3.4968
  703THF    H1313239   1.690   0.709   4.754 -0.7973 -0.9102 -0.7409
  704THF     O113240   3.650   5.294   2.262 -0.8217  0.0422  0.1021
  704THF     C213241   3.776   5.333   2.311 -0.2633  0.1911 -0.0983
  704THF     C313242   3.572   5.275   2.374 -0.6320  0.1086  0.0369
  704THF     H413243   3.777   5.437   2.342 -0.7401  0.2860 -0.3872
  704THF     H513244   3.854   5.312   2.238 -0.2586  0.3734 -0.1455
  704THF     H613245   3.533   5.363   2.425 -0.5658  0.9436 -1.2914
  704THF     H713246   3.486   5.216   2.341  0.2771 -0.9213 -0.5496
  704THF     C813247   3.660   5.199   2.474  0.0864 -0.2033  0.2801
  704THF     C913248   3.794   5.241   2.435 -0.1901 -0.6111  0.8796
  704THF    H1013249   3.649   5.090   2.470 -3.5567  0.0289  0.4664
  704THF    H1113250   3.638   5.229   2.576 -1.8558  0.7427 -0.3654
  704THF    H1213251   3.854   5.291   2.512  1.4781 -1.0393 -0.0733
  704THF    H1313252   3.849   5.154   2.399 -0.1779 -0.6592  1.0148
  705THF     O113253   1.425   1.833   4.769  0.1684  0.2420  0.8101
  705THF     C213254   1.427   1.967   4.716  0.0999  0.6709  0.3820
  705THF     C313255   1.295   1.777   4.762  0.4988 -0.5406 -0.4193
  705THF     H413256   1.438   1.967   4.608 -1.0104 -1.0509  0.2345
  705THF     H513257   1.510   2.028   4.751 -0.5280  1.2533  0.8908
  705THF     H613258   1.272   1.717   4.674 -2.9037 -2.1034  1.3575
  705THF     H713259   1.271   1.715   4.848 -0.1320  1.7032  1.1190
  705THF     C813260   1.196   1.897   4.775 -0.7994  0.6503  0.0238
  705THF     C913261   1.279   2.021   4.748 -0.5836  0.2522  0.1407
  705THF    H1013262   1.160   1.904   4.878 -1.1797 -0.3439 -0.0334
  705THF    H1113263   1.108   1.884   4.712 -0.8979  1.6683 -0.0780
  705THF    H1213264   1.243   2.090   4.671  2.4575  0.2878 -1.4322
  705THF    H1313265   1.292   2.077   4.840 -0.5621  0.8028 -0.1899
  706THF     O113266   0.100   4.220   1.850  0.1828 -0.1260 -0.5272
  706THF     C213267   0.048   4.092   1.811 -0.4751 -0.0841 -0.7238
  706THF     C313268   0.047   4.248   1.982  0.3732 -0.2419  0.1735
  706THF     H413269   0.093   4.017   1.876 -0.9316  0.6149  0.4275
  706THF     H513270   0.067   4.074   1.705  2.9697  2.9016 -0.8000
  706THF     H613271   0.088   4.183   2.059  0.2300  0.3583  0.7731
  706THF     H713272   0.061   4.352   2.012  0.1353 -0.3576  0.7080
  706THF     C813273  -0.106   4.220   1.957 -0.5294  0.2969  0.3779
  706THF     C913274  -0.105   4.123   1.845 -0.4634  0.2935  0.0785
  706THF    H1013275  -0.153   4.314   1.928  0.6225  0.0322 -2.7425
  706THF    H1113276  -0.155   4.198   2.051 -1.6529  1.0518 -0.0063
  706THF    H1213277  -0.172   4.039   1.861  1.0065 -1.3087 -1.7004
  706THF    H1313278  -0.140   4.178   1.757 -1.0805  1.9043  1.3005
  707THF     O113279   4.704   3.898   1.433  0.0838 -0.3199  0.1492
  707THF     C213280   4.841   3.877   1.422 -1.0745 -0.1739  0.2041
  707THF     C313281   4.664   3.936   1.302  0.4456  0.2485  0.2814
  707THF     H413282   4.872   3.805   1.499 -1.9236 -0.9706 -0.1890
  707THF     H513283   4.892   3.969   1.449 -1.2550 -0.3308  1.1161
  707THF     H613284   4.556   3.939   1.287  0.3691  2.2830  0.9172
  707THF     H713285   4.700   4.038   1.289  1.2847  0.2713  2.3299
  707THF     C813286   4.744   3.844   1.209  0.5916  0.0064  0.7414
  707THF     C913287   4.879   3.835   1.283  0.3004  0.4953 -0.6703
  707THF    H1013288   4.744   3.879   1.106 -1.8103  0.9117  0.9834
  707THF    H1113289   4.705   3.742   1.206  1.9556 -0.5306 -2.6166
  707THF    H1213290   4.930   3.739   1.285  0.3805  0.5457 -0.0717
  707THF    H1313291   4.946   3.912   1.242  0.7643  0.5059  0.0843
  708THF     O113292   0.595   3.724   3.625 -0.4560  0.0002 -0.0008
  708THF     C213293   0.643   3.744   3.494  0.3921 -0.1693 -0.0117
  708THF     C313294   0.477   3.789   3.645 -0.1664  1.5505  0.4647
  708THF     H413295   0.576   3.685   3.432  0.2578 -1.6303  1.4410
  708THF     H513296   0.743   3.701   3.484  0.9137  1.2324 -1.2015
  708THF     H613297   0.404   3.729   3.591  0.3608  0.8963  0.4694
  708THF     H713298   0.435   3.789   3.746  0.4884 -1.5839  0.8254
  708THF     C813299   0.499   3.925   3.567 -0.0100  0.2592 -0.4195
  708THF     C913300   0.622   3.892   3.492 -0.1862  0.0764  0.4332
  708THF    H1013301   0.515   4.008   3.636  0.0984 -0.4856  0.4748
  708THF    H1113302   0.414   3.955   3.506 -1.0090  1.1793  1.3463
  708THF    H1213303   0.609   3.935   3.393  1.0681  2.0850  1.0745
  708THF    H1313304   0.712   3.946   3.522  0.3128  0.3946 -1.4795
  709THF     O113305   3.021   4.445   2.866 -0.4510  0.7129  0.4036
  709THF     C213306   2.924   4.442   2.760  0.6205 -0.1778  0.7142
  709THF     C313307   3.150   4.429   2.803  0.4441  0.5707 -0.4433
  709THF     H413308   2.831   4.476   2.805 -1.1793 -1.2117 -1.9767
  709THF     H513309   2.914   4.342   2.717 -0.8310 -0.2374  1.1259
  709THF     H613310   3.237   4.447   2.867  1.1589 -1.1157 -0.8734
  709THF     H713311   3.155   4.328   2.764 -0.1761  0.7070 -0.8794
  709THF     C813312   3.132   4.519   2.680  0.0914 -0.3106  0.2478
  709THF     C913313   2.978   4.539   2.662 -0.6758 -0.2716 -0.1642
  709THF    H1013314   3.180   4.471   2.594 -0.0025  0.1829 -0.0805
  709THF    H1113315   3.177   4.618   2.683  0.6342 -0.4683 -1.5354
  709THF    H1213316   2.965   4.641   2.701  0.2190 -0.5447  0.9056
  709THF    H1313317   2.940   4.530   2.560  0.0526  2.9288 -0.8342
  710THF     O113318   1.888   0.265   4.746  0.5926  0.8898  0.2035
  710THF     C213319   1.971   0.144   4.739 -0.2859 -0.6904 -0.3283
  710THF     C313320   1.919   0.342   4.859 -0.0125  0.4348  0.4108
  710THF     H413321   1.981   0.118   4.634 -1.5589  0.7452 -0.8483
  710THF     H513322   1.916   0.065   4.789 -0.9719 -0.2327 -0.3502
  710THF     H613323   1.927   0.447   4.833  1.3780 -0.3901 -3.0189
  710THF     H713324   1.839   0.343   4.934  0.4431 -1.0652  0.9544
  710THF     C813325   2.052   0.280   4.907 -0.1781  0.0144 -0.0093
  710THF     C913326   2.103   0.191   4.798 -0.5633 -0.2398 -1.0385
  710THF    H1013327   2.043   0.225   5.001 -1.5038  1.4245  0.7465
  710THF    H1113328   2.113   0.367   4.929 -0.6045  0.6590 -1.2939
  710THF    H1213329   2.183   0.227   4.733 -0.6675 -1.3968 -1.8395
  710THF    H1313330   2.160   0.107   4.838  1.2405  1.0171 -0.8690
  711THF     O113331   4.102   1.970   4.610 -0.4332  0.5270  0.0085
  711THF     C213332   4.001   2.067   4.586 -0.5632  0.0964  0.4739
  711THF     C313333   4.206   2.036   4.675  0.5234  0.3657 -0.3132
  711THF     H413334   3.926   2.055   4.664 -1.6102  2.7612 -0.0391
  711THF     H513335   3.956   2.040   4.490 -1.0394  1.4314  0.2987
  711THF     H613336   4.208   2.044   4.784  1.4046 -0.9583 -0.2081
  711THF     H713337   4.303   1.987   4.664  0.0255 -1.2528  1.7065
  711THF     C813338   4.214   2.179   4.617  0.4824 -0.8548  0.1899
  711THF     C913339   4.065   2.203   4.615  0.3956 -0.3343  0.0100
  711THF    H1013340   4.247   2.181   4.513 -0.3372  0.7004 -0.0659
  711THF    H1113341   4.273   2.244   4.682 -0.1625 -0.8595  0.7841
  711THF    H1213342   4.037   2.242   4.713 -2.0756  1.1387 -1.1914
  711THF    H1313343   4.032   2.285   4.551 -1.8438  0.1363  1.6419
  712THF     O113344   2.806   4.953   1.232 -0.2437  0.1744  0.1191
  712THF     C213345   2.841   4.889   1.353 -0.3352  0.2777 -0.1674
  712THF     C313346   2.912   4.933   1.143 -0.6793 -0.5515 -0.1719
  712THF     H413347   2.839   4.782   1.334  2.1338  0.0251  0.6526
  712THF     H513348   2.775   4.907   1.438 -0.7783 -1.1003 -0.1969
  712THF     H613349   2.888   4.849   1.078 -0.2005 -2.9063  2.5255
  712THF     H713350   2.923   5.019   1.076 -2.4829 -1.3311 -1.5463
  712THF     C813351   3.037   4.911   1.226  0.7419  0.1751 -0.6707
  712THF     C913352   2.987   4.923   1.371  0.3112  0.2902 -0.6144
  712THF    H1013353   3.119   4.981   1.209  1.3972  0.6047  3.2820
  712THF    H1113354   3.074   4.809   1.213 -3.0320 -1.5189  0.3295
  712THF    H1213355   3.038   4.865   1.449 -0.1974  1.4034  0.5907
  712THF    H1313356   2.986   5.020   1.420 -0.3336 -1.3388  2.9180
  713THF     O113357   1.843   3.130   1.852 -0.1172 -0.0264 -0.2948
  713THF     C213358   1.976   3.090   1.849  0.6181  0.4304 -0.0430
  713THF     C313359   1.844   3.280   1.854 -0.4656 -0.3020 -0.1768
  713THF     H413360   1.986   2.988   1.812  0.1654  0.7267 -1.0129
  713THF     H513361   2.024   3.098   1.947  1.9527  0.0363 -0.6397
  713THF     H613362   1.753   3.329   1.819 -0.9785  0.2569  1.7900
  713THF     H713363   1.856   3.314   1.957  2.4772  2.4281 -1.2736
  713THF     C813364   1.965   3.319   1.768  0.0073  0.0154  0.0645
  713THF     C913365   2.037   3.192   1.747  0.2720  0.7147  0.3414
  713THF    H1013366   2.034   3.395   1.805  1.5085  0.9749 -4.1288
  713THF    H1113367   1.934   3.346   1.667 -1.4329 -0.7890  0.2613
  713THF    H1213368   2.013   3.160   1.645 -0.3541  2.2432 -0.0166
  713THF    H1313369   2.146   3.187   1.755  0.5018 -0.5002 -2.2129
  714THF     O113370   4.754   4.773   0.132  0.1408 -0.4419  0.3073
  714THF     C213371   4.817   4.751   0.262  0.0997 -0.3229 -0.1303
  714THF     C313372   4.841   4.712   0.036 -0.5396 -0.1893  0.5390
  714THF     H413373   4.755   4.704   0.339  0.2711  0.0003  0.2033
  714THF     H513374   4.842   4.848   0.305 -2.2213 -1.0112  3.2445
  714THF     H613375   4.801   4.613   0.013 -1.3316  0.2657 -0.1119
  714THF     H713376   4.855   4.769  -0.055 -3.2158  1.2746  0.9146
  714THF     C813377   4.971   4.695   0.106  0.1476 -0.3944  0.6755
  714THF     C913378   4.943   4.665   0.250 -0.3126  0.1879  0.4454
  714THF    H1013379   5.020   4.792   0.108  2.8737 -1.4745 -3.1550
  714THF    H1113380   5.040   4.624   0.060  1.4447 -0.4465  2.5768
  714THF    H1213381   4.917   4.560   0.262 -0.0966  0.1992  1.0183
  714THF    H1313382   5.019   4.693   0.323  1.1406 -1.1590 -0.4579
  715THF     O113383   3.199   4.124   1.045 -0.4147 -0.6486  0.3921
  715THF     C213384   3.223   4.160   1.178  0.1346 -0.1324  0.2363
  715THF     C313385   3.057   4.120   1.034  0.5513  0.1653  0.1907
  715THF     H413386   3.202   4.267   1.190 -1.1874 -0.2663 -0.6422
  715THF     H513387   3.326   4.127   1.190 -0.6350 -2.9267 -0.2843
  715THF     H613388   3.021   4.222   1.018  1.3278  0.6763  1.4872
  715THF     H713389   3.036   4.075   0.937 -1.0942  1.5974 -0.1636
  715THF     C813390   3.009   4.050   1.155  0.1896  0.0176  0.3123
  715THF     C913391   3.128   4.069   1.255 -0.2906 -0.6286  0.2766
  715THF    H1013392   2.999   3.943   1.135 -1.9737  0.1559  0.3469
  715THF    H1113393   2.913   4.079   1.200  0.0229  0.6976 -0.4481
  715THF    H1213394   3.101   4.117   1.349 -1.5977  2.2020 -1.3970
  715THF    H1313395   3.165   3.970   1.282 -1.0235 -0.7620  0.8225
  716THF     O113396   0.109   0.572   4.007  0.3284 -0.3964 -0.6929
  716THF     C213397   0.097   0.577   3.861 -0.4762  0.8178 -0.6579
  716THF     C313398  -0.016   0.593   4.076  0.2081  0.8674  0.1292
  716THF     H413399   0.168   0.516   3.806 -0.0014  0.7539  0.0086
  716THF     H513400   0.122   0.681   3.840 -0.6720  0.5113 -2.4905
  716THF     H613401  -0.036   0.503   4.135  3.4286 -0.1361 -0.1094
  716THF     H713402  -0.025   0.679   4.143  1.8424 -0.1911  1.8185
  716THF     C813403  -0.113   0.602   3.956  0.4143  0.5428  0.0972
  716THF     C913404  -0.044   0.539   3.836  0.1213  0.3378 -0.4813
  716THF    H1013405  -0.139   0.703   3.926  1.7980  0.9801  0.3281
  716THF    H1113406  -0.207   0.553   3.982  0.5787 -0.1225 -0.5207
  716THF    H1213407  -0.047   0.430   3.839 -3.2692  0.3336  1.6513
  716THF    H1313408  -0.093   0.574   3.745  0.2877  1.3015 -0.2043
  717THF     O113409   2.167   0.734   4.624  0.3408  0.1634 -0.6312
  717THF     C213410   2.236   0.674   4.737 -0.0837 -0.1185 -0.5972
  717THF     C313411   2.143   0.868   4.670 -0.6610 -0.0916  0.4467
  717THF     H413412   2.343   0.693   4.730  0.2072 -1.8845 -1.3576
  717THF     H513413   2.217   0.570   4.713 -1.5474 -0.5676  2.1030
  717THF     H613414   2.237   0.921   4.682  0.5647 -2.1144  0.2394
  717THF     H713415   2.074   0.921   4.605 -1.7311 -1.3648  0.4969
  717THF     C813416   2.081   0.838   4.806 -0.1944 -0.7165  0.0043
  717THF     C913417   2.161   0.722   4.862  0.4763  0.3945 -0.6141
  717THF    H1013418   1.980   0.800   4.791 -0.4815 -0.5145  1.3452
  717THF    H1113419   2.080   0.932   4.860  0.0161 -0.0021 -1.1870
  717THF    H1213420   2.217   0.746   4.953  0.3480 -1.5498  0.0177
  717THF    H1313421   2.100   0.633   4.874  1.4889 -0.8939 -3.8928
  718THF     O113422   4.790   2.785   0.654 -0.6149 -0.0565  0.5828
  718THF     C213423   4.765   2.824   0.787 -0.1678  0.0356  0.8146
  718THF     C313424   4.749   2.890   0.566  0.4806 -0.6757 -0.1097
  718THF     H413425   4.859   2.827   0.844 -0.3218 -0.1889  1.0800
  718THF     H513426   4.704   2.749   0.836  1.3070 -0.9441  1.2374
  718THF     H613427   4.809   2.901   0.475  0.3709  0.7700 -0.0301
  718THF     H713428   4.646   2.869   0.536 -0.7954  1.6119  2.2875
  718THF     C813429   4.753   3.008   0.644 -0.0487 -1.0913 -0.2899
  718THF     C913430   4.715   2.963   0.780 -0.0792 -0.1048  0.3884
  718THF    H1013431   4.681   3.077   0.599 -0.8592 -2.1279 -0.6318
  718THF    H1113432   4.854   3.049   0.648 -0.1432 -0.7696 -1.0476
  718THF    H1213433   4.745   3.033   0.859  1.8261 -0.8627  0.3966
  718THF    H1313434   4.606   2.962   0.773 -0.0541  1.1104 -0.4642
  719THF     O113435   1.859   0.305   4.079  0.2517 -0.0891 -0.2284
  719THF     C213436   1.744   0.328   4.005 -0.0157  0.0437 -0.3189
  719THF     C313437   1.823   0.208   4.179 -0.0398 -0.4118 -0.1006
  719THF     H413438   1.775   0.371   3.909  0.5520 -0.7872 -0.5133
  719THF     H513439   1.685   0.401   4.061  0.0734 -0.4367  0.4071
  719THF     H613440   1.916   0.156   4.201  0.7939  0.5007 -1.3522
  719THF     H713441   1.793   0.261   4.270  1.8704 -0.9573  0.9100
  719THF     C813442   1.719   0.115   4.110 -0.3002 -0.4429 -0.0440
  719THF     C913443   1.673   0.198   3.985  0.3320 -0.1439  0.1611
  719THF    H1013444   1.636   0.083   4.172  0.1350 -3.0141 -0.6880
  719THF    H1113445   1.769   0.025   4.076  1.3325  0.3230  0.2644
  719THF    H1213446   1.699   0.150   3.891  1.4909 -0.1988  0.4917
  719THF    H1313447   1.564   0.207   3.988  0.4312  0.9523  1.5222
  720THF     O113448   4.910   3.835   5.239  0.2044  0.1422 -0.1879
  720THF     C213449   4.973   3.770   5.133 -0.2716 -0.4535  0.2885
  720THF     C313450   4.829   3.940   5.185  0.2132  0.2906  0.9126
  720THF     H413451   4.904   3.696   5.092  0.3621 -0.1965 -1.2885
  720THF     H513452   5.066   3.723   5.167  0.3222  0.6162  0.1857
  720THF     H613453   4.733   3.898   5.157  1.0384 -1.2240  0.2784
  720THF     H713454   4.815   4.013   5.265  3.2144  0.2705  1.5787
  720THF     C813455   4.898   3.984   5.057 -0.1949 -0.0979  0.3309
  720THF     C913456   5.014   3.890   5.038 -0.0748 -0.4027  0.5249
  720THF    H1013457   4.940   4.084   5.051  0.2763 -0.3005  0.2305
  720THF    H1113458   4.831   3.979   4.971  1.8716  2.1727 -1.5354
  720THF    H1213459   5.031   3.859   4.935 -0.5806  1.8070 -0.2904
  720THF    H1313460   5.107   3.931   5.076 -0.6079 -0.4075  1.8736
  721THF     O113461   4.340   1.401   3.679  0.3050  0.5418  0.6965
  721THF     C213462   4.230   1.368   3.767 -1.1380 -0.1546 -0.4243
  721THF     C313463   4.302   1.356   3.549 -0.2567  0.3433 -0.0261
  721THF     H413464   4.245   1.417   3.864  2.1288  0.5213 -1.1383
  721THF     H513465   4.226   1.261   3.786 -1.3717 -0.4174 -1.8807
  721THF     H613466   4.366   1.411   3.481  2.5857 -0.9937  1.4315
  721THF     H713467   4.313   1.249   3.532 -1.7201  0.3204 -0.9698
  721THF     C813468   4.156   1.398   3.534  0.6470 -0.3089  0.6997
  721THF     C913469   4.112   1.417   3.684  0.5613  0.4261  0.8059
  721THF    H1013470   4.102   1.330   3.469  0.2808 -0.4377  1.1312
  721THF    H1113471   4.156   1.490   3.475 -3.3037 -0.4169  0.2814
  721THF    H1213472   4.098   1.522   3.707 -1.6987  0.4080 -0.2194
  721THF    H1313473   4.020   1.366   3.713  1.6274 -1.0275  1.7844
  722THF     O113474   4.648   0.126   0.112 -0.2311  0.3299  0.5313
  722THF     C213475   4.776   0.190   0.102  0.1622  0.4052 -0.0130
  722THF     C313476   4.584   0.155  -0.012  0.5458  0.5638  0.1083
  722THF     H413477   4.863   0.128   0.077  1.4951  2.9266 -2.1251
  722THF     H513478   4.808   0.231   0.198  1.3065 -0.4711  0.0012
  722THF     H613479   4.628   0.104  -0.098  2.3924  2.1540  0.0243
  722THF     H713480   4.481   0.128   0.008  0.3801  1.2251  0.1589
  722THF     C813481   4.612   0.305  -0.029 -0.2856 -0.3351  0.5034
  722THF     C913482   4.763   0.297  -0.006 -0.7141 -0.3480 -0.6532
  722THF    H1013483   4.560   0.365   0.046  0.8747  3.3271 -1.3277
  722THF    H1113484   4.583   0.347  -0.125  0.1568  1.4679  1.1113
  722THF    H1213485   4.818   0.260  -0.092 -0.7745  0.2080 -0.9367
  722THF    H1313486   4.813   0.387   0.029 -0.9643 -0.3519 -0.2799
  723THF     O113487   4.739   1.957   2.215  0.4813  0.5802  0.6868
  723THF     C213488   4.809   2.067   2.267 -0.0856  0.4262 -0.1024
  723THF     C313489   4.825   1.868   2.142  0.1997  0.3173  0.2601
  723THF     H413490   4.780   2.080   2.371  1.3666  0.1346  0.3757
  723THF     H513491   4.778   2.159   2.218 -0.1253  0.9816  0.9355
  723THF     H613492   4.848   1.775   2.195  0.9185  0.1007 -0.4048
  723THF     H713493   4.765   1.835   2.057  1.0447 -0.0949 -0.1950
  723THF     C813494   4.953   1.942   2.114 -0.5309 -0.1019  0.5233
  723THF     C913495   4.958   2.026   2.243  0.1498  0.5082 -0.2656
  723THF    H1013496   4.960   2.011   2.030  2.7190 -2.1697 -1.0876
  723THF    H1113497   5.039   1.875   2.114  0.2891  0.9188 -0.3838
  723THF    H1213498   4.983   1.970   2.333  0.5183  0.3772 -0.4473
  723THF    H1313499   5.020   2.116   2.235 -0.0933  0.7375  0.3977
  724THF     O113500   1.183   3.558   2.890 -0.0105 -0.5874  0.1506
  724THF     C213501   1.141   3.696   2.908  0.1099 -0.2897 -0.5654
  724THF     C313502   1.150   3.532   2.756  0.5359 -0.8837 -0.6703
  724THF     H413503   1.208   3.756   2.847 -0.4172 -2.3899 -3.3958
  724THF     H513504   1.140   3.732   3.011  2.7006  0.3263 -0.6910
  724THF     H613505   1.226   3.565   2.686  2.2453 -0.7399  1.1653
  724THF     H713506   1.146   3.423   2.750  2.6552 -1.1706  1.4380
  724THF     C813507   1.016   3.591   2.741  0.5796  0.0322  0.3933
  724THF     C913508   1.000   3.700   2.844 -0.4758  0.5930 -0.3367
  724THF    H1013509   0.940   3.515   2.759  0.5782  0.0170  0.3238
  724THF    H1113510   0.995   3.620   2.638 -0.1525 -0.9233  0.2618
  724THF    H1213511   0.978   3.800   2.807 -1.2903  0.9808  1.0787
  724THF    H1313512   0.928   3.686   2.925 -1.1019  0.8228 -0.8460
  725THF     O113513   4.379   4.780   3.574  0.2953  0.1063 -0.0454
  725THF     C213514   4.521   4.793   3.555  0.1041  0.1150  0.0358
  725THF     C313515   4.318   4.770   3.447 -0.6192 -0.9126 -0.0542
  725THF     H413516   4.570   4.743   3.638 -0.3916  0.6733  0.6782
  725THF     H513517   4.543   4.898   3.571  1.8981 -0.2419  0.1440
  725THF     H613518   4.216   4.732   3.457 -1.3236  1.1994  1.6830
  725THF     H713519   4.301   4.874   3.418  1.1687 -1.2194 -2.5091
  725THF     C813520   4.416   4.706   3.354 -0.4169 -0.2976 -0.0127
  725THF     C913521   4.552   4.737   3.411 -0.1329  0.3397 -0.0521
  725THF    H1013522   4.401   4.730   3.249  1.4416  0.6418 -0.1183
  725THF    H1113523   4.395   4.600   3.346 -1.5059 -0.1161  0.2443
  725THF    H1213524   4.613   4.646   3.404  1.9088  1.7317 -1.8956
  725THF    H1313525   4.596   4.824   3.361  0.2426  0.1065 -0.1360
  726THF     O113526   1.574   2.318   0.691 -0.0210  0.0010  0.0434
  726THF     C213527   1.526   2.220   0.602 -0.3787 -0.6728 -1.0568
  726THF     C313528   1.681   2.264   0.777 -0.0570  0.3709  0.3585
  726THF     H413529   1.468   2.263   0.520 -0.3633 -1.8265 -1.7025
  726THF     H513530   1.460   2.155   0.659  0.3413  0.2681  0.9374
  726THF     H613531   1.737   2.340   0.831 -0.1429  0.2851  0.5664
  726THF     H713532   1.644   2.199   0.856 -0.7213 -1.0333 -1.0408
  726THF     C813533   1.755   2.176   0.667 -0.0230 -0.5271 -0.1105
  726THF     C913534   1.651   2.148   0.557 -0.4314  0.0196 -0.5539
  726THF    H1013535   1.795   2.080   0.701  3.6422  0.5225 -1.0997
  726THF    H1113536   1.835   2.238   0.628 -2.1625  2.3326 -0.2530
  726THF    H1213537   1.684   2.195   0.464 -3.4902  0.5902 -1.4892
  726THF    H1313538   1.634   2.042   0.536  1.7226 -0.3470 -0.6537
  727THF     O113539   0.471   1.249   0.377  0.1106 -0.4025  0.4726
  727THF     C213540   0.490   1.262   0.515  0.7350  0.0621 -0.1430
  727THF     C313541   0.591   1.258   0.309  0.3449 -0.4154  0.8018
  727THF     H413542   0.482   1.167   0.569 -1.4404 -0.1892 -0.7952
  727THF     H513543   0.419   1.331   0.561  0.6272 -0.0029 -0.2115
  727THF     H613544   0.653   1.169   0.315 -1.6268 -1.8610  0.8660
  727THF     H713545   0.559   1.280   0.207 -0.5859  1.9529  1.5368
  727THF     C813546   0.655   1.366   0.385  0.2054 -0.0553 -0.3114
  727THF     C913547   0.629   1.331   0.532 -0.2170 -0.1214  0.2942
  727THF    H1013548   0.600   1.457   0.362  1.8804  1.3697  1.0970
  727THF    H1113549   0.756   1.373   0.345 -0.3581 -0.5364 -1.8798
  727THF    H1213550   0.702   1.260   0.570  1.0703  0.1307 -1.5475
  727THF    H1313551   0.641   1.419   0.596  2.2455  1.3904 -1.9874
  728THF     O113552   2.175   2.098   5.399 -0.0390 -0.0778  0.1247
  728THF     C213553   2.035   2.057   5.392 -0.4741 -1.2010 -0.8007
  728THF     C313554   2.237   2.033   5.291 -0.1424  0.1782  0.4010
  728THF     H413555   1.992   2.116   5.311 -1.8619 -0.9742  0.0632
  728THF     H513556   1.994   2.077   5.491  0.9739 -2.1498  0.0267
  728THF     H613557   2.213   2.099   5.207  4.4989  2.1793  0.3587
  728THF     H713558   2.345   2.037   5.299 -0.0944 -0.0952 -0.0420
  728THF     C813559   2.183   1.897   5.297 -0.5628  0.8049 -0.1828
  728THF     C913560   2.040   1.908   5.353 -0.1820  0.9676 -0.1858
  728THF    H1013561   2.239   1.837   5.369  0.6454 -0.3606 -2.0097
  728THF    H1113562   2.181   1.843   5.203 -0.7553 -0.1095  0.3318
  728THF    H1213563   1.953   1.890   5.291 -1.1238  0.4323  1.2243
  728THF    H1313564   2.024   1.844   5.440 -1.9596 -0.3244 -1.3865
  729THF     O113565   2.901   2.637   1.924 -0.2323 -0.2075  0.1389
  729THF     C213566   2.910   2.575   2.053  0.6958 -0.1204 -0.1995
  729THF     C313567   2.782   2.725   1.936  0.4500  0.3285 -0.2341
  729THF     H413568   2.933   2.645   2.133  2.8053 -0.9517  0.0056
  729THF     H513569   2.988   2.498   2.049 -0.9865 -1.8567 -1.6308
  729THF     H613570   2.800   2.803   2.010  3.0306  0.8960 -1.3312
  729THF     H713571   2.759   2.773   1.841  1.4237 -1.3900 -1.3891
  729THF     C813572   2.685   2.614   1.991  0.6585 -0.6620 -0.0564
  729THF     C913573   2.769   2.522   2.080  0.5906 -0.3254  0.2720
  729THF    H1013574   2.651   2.565   1.900 -0.5556 -1.2183  0.6666
  729THF    H1113575   2.589   2.644   2.034 -1.4253 -2.7076 -2.8904
  729THF    H1213576   2.738   2.533   2.183  1.2377  0.9635  0.3504
  729THF    H1313577   2.753   2.415   2.067 -3.1162  0.0682  0.6812
  730THF     O113578   3.168   3.446   2.413  0.5305  0.4363  0.1108
  730THF     C213579   3.028   3.437   2.392 -0.1280 -0.4531 -0.4060
  730THF     C313580   3.215   3.569   2.367  0.2731 -0.4023 -0.5184
  730THF     H413581   2.983   3.355   2.449  2.0450 -1.6234 -0.2703
  730THF     H513582   2.998   3.416   2.290 -0.8030  1.6668 -0.6810
  730THF     H613583   3.312   3.587   2.414  0.9943 -1.6014 -1.5067
  730THF     H713584   3.236   3.557   2.261 -0.4074 -0.6702 -0.6265
  730THF     C813585   3.102   3.665   2.406 -0.0306  0.2228 -0.1871
  730THF     C913586   2.990   3.574   2.447 -0.3667 -0.5237  0.3758
  730THF    H1013587   3.069   3.719   2.317 -0.6453  0.0282 -0.0885
  730THF    H1113588   3.145   3.732   2.480 -1.4793 -0.9833  1.8719
  730THF    H1213589   2.980   3.573   2.555  2.3256 -2.1199  0.6964
  730THF    H1313590   2.898   3.612   2.402  1.4551  0.2752 -3.1098
  731THF     O113591   1.441   3.788   3.483  0.2637  0.2967 -0.0224
  731THF     C213592   1.445   3.695   3.382 -0.6916 -0.7852 -0.3523
  731THF     C313593   1.352   3.742   3.593 -0.7790  0.3543 -0.2242
  731THF     H413594   1.525   3.630   3.416 -1.2360  0.4762  3.8877
  731THF     H513595   1.451   3.750   3.288  1.6983 -0.1701  0.0959
  731THF     H613596   1.403   3.726   3.688 -0.2321  0.4823 -0.4921
  731THF     H713597   1.277   3.817   3.614 -1.4403 -0.6524  1.1254
  731THF     C813598   1.284   3.617   3.537 -0.2638 -0.4123 -0.6528
  731THF     C913599   1.307   3.630   3.384  0.2698  0.1655 -0.2511
  731THF    H1013600   1.179   3.613   3.565 -0.5471 -0.2197 -1.6442
  731THF    H1113601   1.327   3.521   3.565 -1.3717 -0.9060 -0.5976
  731THF    H1213602   1.289   3.543   3.321  1.6391  1.9700 -3.3772
  731THF    H1313603   1.227   3.692   3.344 -1.1615 -0.2164  1.9073
  732THF     O113604   4.633   1.818   4.356  0.1433 -0.0351 -0.2261
  732THF     C213605   4.490   1.807   4.343  0.4510 -0.3559  0.0652
  732THF     C313606   4.661   1.927   4.437  0.3568  0.4631  0.6306
  732THF     H413607   4.441   1.772   4.434  0.2119  0.2734  0.1905
  732THF     H513608   4.467   1.743   4.258 -0.2360 -0.7517  0.5303
  732THF     H613609   4.666   1.906   4.544 -1.6167  0.3679  0.7462
  732THF     H713610   4.756   1.968   4.401  0.3860 -0.1223  0.0325
  732THF     C813611   4.540   2.021   4.424 -0.2182 -0.0297  0.1042
  732THF     C913612   4.445   1.954   4.323 -0.0789  0.3135  0.5369
  732THF    H1013613   4.575   2.112   4.375 -0.3224 -0.0296  0.0283
  732THF    H1113614   4.501   2.046   4.523  0.1230  1.0921 -0.0213
  732THF    H1213615   4.341   1.967   4.351 -0.5587 -0.7899 -0.6311
  732THF    H1313616   4.469   1.977   4.219  3.2021 -0.6783  0.9330
  733THF     O113617   3.619   4.054   1.647  0.4767  0.1667 -0.2737
  733THF     C213618   3.567   4.022   1.773 -0.4764 -0.4374 -0.0046
  733THF     C313619   3.512   4.084   1.558 -0.1346 -0.5760  0.7452
  733THF     H413620   3.649   4.012   1.843 -1.5478 -3.5953  0.9571
  733THF     H513621   3.530   3.920   1.769  0.7055 -0.8472 -1.5819
  733THF     H613622   3.544   4.146   1.475  1.0986 -0.4451  1.3086
  733THF     H713623   3.474   3.994   1.510 -0.0707 -0.2877  0.1511
  733THF     C813624   3.404   4.146   1.642  0.5061  0.5200  0.1408
  733THF     C913625   3.462   4.127   1.788 -0.3219  0.7338 -0.7878
  733THF    H1013626   3.311   4.089   1.631  1.9489 -1.6400 -1.4803
  733THF    H1113627   3.387   4.249   1.610 -1.7975  0.0212 -0.4424
  733THF    H1213628   3.503   4.220   1.828  0.3843  0.2959 -0.4625
  733THF    H1313629   3.387   4.092   1.858  1.7086 -0.6989  0.7698
  734THF     O113630   1.118   0.849   4.459 -0.1443  0.3706  0.5128
  734THF     C213631   1.097   0.718   4.397  0.4046 -0.1060 -0.0781
  734THF     C313632   1.251   0.844   4.502 -0.0403  0.5728  0.1454
  734THF     H413633   1.006   0.734   4.340  0.8769 -0.2472 -0.8939
  734THF     H513634   1.072   0.635   4.463 -0.9071  1.1434  1.0494
  734THF     H613635   1.298   0.942   4.501  2.1305 -0.3731 -2.2343
  734THF     H713636   1.256   0.815   4.606  1.6280  2.2348  0.5714
  734THF     C813637   1.327   0.751   4.408  0.4735  1.0329  0.2265
  734THF     C913638   1.221   0.686   4.319  0.1234 -0.1836  0.5709
  734THF    H1013639   1.394   0.677   4.452 -0.1130  0.2423 -0.1865
  734THF    H1113640   1.411   0.802   4.360  0.8832 -0.3254 -0.5638
  734THF    H1213641   1.212   0.723   4.217 -3.3647  0.3200  0.9563
  734THF    H1313642   1.225   0.577   4.314 -3.2431 -0.3759 -0.2650
  735THF     O113643   3.771   0.621   3.542 -0.0219 -0.2287  0.0273
  735THF     C213644   3.766   0.667   3.407  0.3022 -0.1446 -0.9851
  735THF     C313645   3.650   0.559   3.571  0.0430  0.6342  0.4899
  735THF     H413646   3.776   0.575   3.350 -1.0660 -1.4420  0.7495
  735THF     H513647   3.850   0.735   3.390 -0.9788  2.7637  2.8299
  735THF     H613648   3.650   0.458   3.529  0.5814  0.6362  0.4795
  735THF     H713649   3.630   0.553   3.678  0.1278  0.3083  0.4893
  735THF     C813650   3.540   0.645   3.504  0.2953 -0.1436  0.6131
  735THF     C913651   3.632   0.743   3.423  0.5536  0.2357  0.4542
  735THF    H1013652   3.475   0.698   3.573  0.3136  0.6988  0.0035
  735THF    H1113653   3.476   0.583   3.440  1.1658  0.0640 -0.4865
  735THF    H1213654   3.611   0.765   3.318 -0.5212 -0.5670  0.4798
  735THF    H1313655   3.637   0.840   3.472 -2.1487  1.1760 -0.9057
  736THF     O113656   2.909   0.297   0.492  0.5143 -0.0552  0.0345
  736THF     C213657   2.797   0.376   0.530  0.1698 -0.2285 -0.0270
  736THF     C313658   3.016   0.387   0.470  0.0064 -0.3088  0.1321
  736THF     H413659   2.795   0.380   0.639  1.9330  0.2493  0.0016
  736THF     H513660   2.701   0.328   0.508  0.3935 -0.1133 -1.2974
  736THF     H613661   3.062   0.413   0.565 -0.6723 -1.6067  0.8504
  736THF     H713662   3.088   0.348   0.399 -0.5093 -0.4036 -0.3486
  736THF     C813663   2.955   0.507   0.407 -0.4259 -0.2042  0.1420
  736THF     C913664   2.815   0.511   0.462 -0.4686  0.0788 -0.1827
  736THF    H1013665   2.953   0.482   0.301 -3.4322 -3.9348  0.8531
  736THF    H1113666   3.019   0.590   0.437  0.2547 -0.4534 -0.5750
  736THF    H1213667   2.806   0.590   0.537  1.4363 -0.1898  0.3890
  736THF    H1313668   2.745   0.539   0.384  0.0129 -0.6988 -0.9170
  737THF     O113669   2.758   3.664   1.000  0.5395  0.6139 -0.5696
  737THF     C213670   2.761   3.798   0.990  0.6319  0.2742 -0.5913
  737THF     C313671   2.620   3.627   1.027  0.2884  0.2678  0.8303
  737THF     H413672   2.728   3.825   0.890  0.3598 -1.4782 -1.0003
  737THF     H513673   2.864   3.830   1.006 -0.0688  1.3690  2.4538
  737THF     H613674   2.567   3.616   0.932  0.3246 -0.5600  0.8988
  737THF     H713675   2.605   3.536   1.085 -3.0149  1.7630  2.6024
  737THF     C813676   2.561   3.750   1.110 -0.3026  0.3513  0.2398
  737THF     C913677   2.665   3.859   1.088 -0.4709 -0.1930 -0.8962
  737THF    H1013678   2.569   3.718   1.213  0.4667 -1.1975 -0.2631
  737THF    H1113679   2.459   3.776   1.083  0.2767  0.7900 -1.6890
  737THF    H1213680   2.622   3.953   1.054 -1.4772 -0.8810 -1.6144
  737THF    H1313681   2.719   3.872   1.182 -0.6176  2.4485 -1.1128
  738THF     O113682   2.625   3.882   5.076 -0.0429 -0.3580  0.3398
  738THF     C213683   2.682   3.838   5.197  0.0872  0.0456  0.4764
  738THF     C313684   2.719   3.866   4.975 -0.7053 -0.3619  0.5601
  738THF     H413685   2.606   3.816   5.271 -1.0506  0.1589 -0.6394
  738THF     H513686   2.746   3.913   5.246 -1.4352 -0.6155  3.7173
  738THF     H613687   2.678   3.875   4.874  2.0049  2.1811 -0.4351
  738THF     H713688   2.791   3.947   4.984 -0.6024 -0.3217 -0.4777
  738THF     C813689   2.777   3.728   5.013  0.1847 -0.2582 -0.7716
  738THF     C913690   2.752   3.712   5.157  0.4259  0.2480 -0.4582
  738THF    H1013691   2.882   3.729   4.983  0.2039 -1.6242 -0.8272
  738THF    H1113692   2.724   3.651   4.956 -2.7754  0.2472  1.0719
  738THF    H1213693   2.685   3.628   5.177  0.1041  0.8228  0.9455
  738THF    H1313694   2.852   3.699   5.200  0.9223  0.8040 -1.4064
  739THF     O113695   1.373   1.659   4.058  0.2044  0.0087 -0.5235
  739THF     C213696   1.474   1.622   4.161  0.1892 -0.5305  0.8668
  739THF     C313697   1.415   1.586   3.949 -0.1414  0.6242  0.3853
  739THF     H413698   1.432   1.538   4.216 -1.9130  0.9779  1.7230
  739THF     H513699   1.474   1.708   4.229 -0.5095  0.1195  0.0769
  739THF     H613700   1.399   1.479   3.952 -0.3733  0.5274 -2.1712
  739THF     H713701   1.366   1.612   3.854 -0.9887 -2.3391 -0.0682
  739THF     C813702   1.572   1.605   3.951 -0.0305 -0.0770 -0.3870
  739THF     C913703   1.612   1.594   4.093 -0.0331 -0.0304  0.8089
  739THF    H1013704   1.588   1.708   3.921  0.2138  0.2162  0.7243
  739THF    H1113705   1.631   1.539   3.887 -0.0003  0.7965 -1.2791
  739THF    H1213706   1.642   1.493   4.120  0.9983  0.2225  0.6680
  739THF    H1313707   1.696   1.663   4.106  0.1496 -0.2943  1.0271
  740THF     O113708   4.161   1.622   5.021  0.1479  0.7026 -0.6052
  740THF     C213709   4.214   1.508   4.950  0.5531 -0.9040 -0.0390
  740THF     C313710   4.135   1.728   4.937 -0.4516 -0.7712 -0.6591
  740THF     H413711   4.226   1.413   5.002  0.2974 -0.1526  1.4529
  740THF     H513712   4.319   1.528   4.930 -0.1104  0.7606 -2.1544
  740THF     H613713   4.050   1.789   4.970  0.0150 -0.4030 -0.1317
  740THF     H713714   4.222   1.793   4.936  1.0435 -2.5766  1.6053
  740THF     C813715   4.112   1.664   4.801  0.0810  0.0597 -0.5529
  740THF     C913716   4.139   1.516   4.824  0.2647  0.8502  1.1318
  740THF    H1013717   4.180   1.702   4.725  1.7570 -2.1027 -0.2298
  740THF    H1113718   4.010   1.679   4.765  1.2648  2.2903 -3.2772
  740THF    H1213719   4.047   1.459   4.838  0.2325  0.3058 -0.9640
  740THF    H1313720   4.204   1.474   4.748  0.5979  1.3316  1.1477
  741THF     O113721   0.021   0.040   4.219  0.6380  0.2648 -0.1492
  741THF     C213722   0.039   0.179   4.190 -0.2334  0.1247  0.0713
  741THF     C313723  -0.088  -0.009   4.139  0.3856  0.0962 -0.4272
  741THF     H413724   0.136   0.217   4.220 -0.0246  0.2834 -0.7622
  741THF     H513725  -0.027   0.244   4.247  0.0759  1.2453 -0.8135
  741THF     H613726  -0.090  -0.118   4.137  0.9330  0.0507  0.7944
  741THF     H713727  -0.184   0.023   4.179  0.0230  1.6510 -2.4306
  741THF     C813728  -0.062   0.056   4.007  0.2459  0.1243 -0.1251
  741THF     C913729  -0.008   0.189   4.047  0.3051 -0.0967  0.5551
  741THF    H1013730  -0.150   0.064   3.942 -0.1561 -2.1086  0.0418
  741THF    H1113731   0.011  -0.015   3.970 -0.4348 -0.5378 -0.2320
  741THF    H1213732   0.053   0.236   3.969 -1.1057  1.4341  0.3151
  741THF    H1313733  -0.086   0.265   4.039  0.7737  0.5747  2.0992
  742THF     O113734   1.193   1.182   0.186  0.5313 -0.3089 -0.7295
  742THF     C213735   1.130   1.283   0.097  0.0020  0.2066  0.0974
  742THF     C313736   1.093   1.087   0.209 -0.3379  0.2790  0.0577
  742THF     H413737   1.144   1.248  -0.005 -3.1573 -0.5376 -0.1829
  742THF     H513738   1.182   1.378   0.105  0.2309 -0.0173  1.4693
  742THF     H613739   1.059   1.024   0.127 -0.3470  0.5399 -0.1413
  742THF     H713740   1.130   1.029   0.293  0.3253  0.5718 -0.0208
  742THF     C813741   0.981   1.180   0.245 -0.7053  0.4022 -0.1000
  742THF     C913742   0.985   1.304   0.147  1.0355 -0.2109 -0.1398
  742THF    H1013743   1.002   1.204   0.349  2.2993 -1.2385 -0.2261
  742THF    H1113744   0.887   1.126   0.230 -0.6692  0.2222  0.3081
  742THF    H1213745   0.909   1.306   0.070  0.4841  0.6437  0.4062
  742THF    H1313746   0.981   1.399   0.201  0.9549 -0.6219  0.5932
  743THF     O113747   5.144   2.240   2.560 -0.3319 -0.3135  0.3726
  743THF     C213748   5.248   2.289   2.480  0.1038 -0.1073 -0.6375
  743THF     C313749   5.169   2.237   2.696 -0.3934  0.3347  0.1507
  743THF     H413750   5.209   2.342   2.393 -0.0065 -0.1007 -0.5850
  743THF     H513751   5.311   2.212   2.437  0.0602  0.8548 -2.5750
  743THF     H613752   5.079   2.250   2.756 -0.8460 -0.4847 -0.3302
  743THF     H713753   5.220   2.143   2.716 -0.7347  0.0963 -0.0911
  743THF     C813754   5.277   2.349   2.715 -0.4513  0.0802  0.6792
  743THF     C913755   5.326   2.373   2.575 -0.3436 -0.3785 -0.2382
  743THF    H1013756   5.358   2.338   2.787 -0.3171  0.3192  0.5633
  743THF    H1113757   5.225   2.431   2.764  0.6698  1.0729  0.2612
  743THF    H1213758   5.331   2.481   2.561 -1.7716 -0.2727 -0.0312
  743THF    H1313759   5.433   2.350   2.576  0.3644  2.4716  0.6901
  744THF     O113760   0.606   3.648   3.191 -0.9194 -0.2395  0.4252
  744THF     C213761   0.590   3.761   3.114 -0.1182  0.1943  0.1131
  744THF     C313762   0.693   3.559   3.122  0.3686 -0.3535  0.2648
  744THF     H413763   0.675   3.829   3.118 -1.9049  2.5839 -0.2128
  744THF     H513764   0.503   3.814   3.152  1.8842  3.8782  0.0900
  744THF     H613765   0.797   3.592   3.118  0.5427 -1.0527 -2.7913
  744THF     H713766   0.705   3.455   3.155  0.2131 -0.7454 -0.8838
  744THF     C813767   0.636   3.559   2.983 -0.7887 -0.0970 -0.7688
  744THF     C913768   0.554   3.687   2.980 -0.0135  0.3889 -0.5882
  744THF    H1013769   0.573   3.471   2.975 -0.0535 -0.7151  0.0468
  744THF    H1113770   0.704   3.557   2.898 -0.2400 -1.4691 -0.3291
  744THF    H1213771   0.578   3.746   2.892  0.6816 -0.1253 -0.7540
  744THF    H1313772   0.449   3.661   2.993 -0.5353  2.7622  0.3784
  745THF     O113773   1.215   3.675   2.398 -0.4364 -0.1338  0.1710
  745THF     C213774   1.214   3.745   2.274  0.2505 -0.0913  0.3611
  745THF     C313775   1.158   3.547   2.379 -0.5530  0.1068 -0.1016
  745THF     H413776   1.307   3.725   2.219  0.7129  1.4603  0.5241
  745THF     H513777   1.209   3.853   2.286 -1.7572 -0.0109 -0.8394
  745THF     H613778   1.236   3.472   2.377 -0.6862 -0.0160 -1.0165
  745THF     H713779   1.104   3.525   2.472  0.2942 -1.5285  0.0306
  745THF     C813780   1.077   3.555   2.244 -0.2099  0.4905 -0.2136
  745THF     C913781   1.090   3.700   2.199  0.5261  0.0223  0.4285
  745THF    H1013782   0.978   3.512   2.256 -0.1849  0.5344  0.1682
  745THF    H1113783   1.118   3.484   2.172 -1.0004  1.1132 -1.3143
  745THF    H1213784   1.086   3.710   2.090  1.5257 -0.1326  0.3666
  745THF    H1313785   1.009   3.759   2.241  0.2123  1.8291 -2.4376
  746THF     O113786   0.671   0.073   1.397 -0.0956  0.2832  0.2825
  746THF     C213787   0.613   0.175   1.472  0.6491  0.5067 -0.4768
  746THF     C313788   0.598  -0.046   1.428  0.2681  0.0092 -0.0535
  746THF     H413789   0.514   0.203   1.437  0.1528  1.3415  1.4845
  746THF     H513790   0.669   0.268   1.466  1.1095  0.1743 -1.5920
  746THF     H613791   0.497  -0.051   1.386 -0.4849 -0.5522  1.7357
  746THF     H713792   0.663  -0.128   1.399  0.0533 -0.4520  0.7497
  746THF     C813793   0.583  -0.035   1.577 -0.2676  0.8283 -1.5714
  746THF     C913794   0.608   0.111   1.611 -0.3197 -0.7815 -0.1426
  746THF    H1013795   0.638  -0.104   1.641 -2.8539 -0.5212 -0.6789
  746THF    H1113796   0.480  -0.050   1.610  0.5138 -0.1920  0.5936
  746THF    H1213797   0.530   0.154   1.674  1.6525  2.0850  0.5672
  746THF    H1313798   0.701   0.118   1.667 -1.9017 -0.2231  2.5864
  747THF     O113799   5.182   5.087   5.397  0.2773  0.0414 -0.1542
  747THF     C213800   5.266   5.011   5.315  0.0152 -0.1824  0.2618
  747THF     C313801   5.052   5.072   5.345 -0.4869 -0.8120  0.1023
  747THF     H413802   5.351   4.966   5.366  0.2437 -0.1092 -0.0507
  747THF     H513803   5.314   5.086   5.252  2.0167 -1.7080 -0.1444
  747THF     H613804   4.968   5.104   5.407 -0.2974  0.9547 -0.4927
  747THF     H713805   5.050   5.153   5.272 -1.6899 -0.6121  0.3342
  747THF     C813806   5.043   4.928   5.299 -0.0429 -1.3240 -0.2912
  747THF     C913807   5.176   4.906   5.241 -0.1457 -0.0032  0.2555
  747THF    H1013808   4.956   4.900   5.238 -0.5837 -0.9986  0.3123
  747THF    H1113809   5.030   4.865   5.386 -0.2696 -0.3378  0.4079
  747THF    H1213810   5.198   4.801   5.254 -0.4041 -0.1379 -0.3559
  747THF    H1313811   5.181   4.931   5.135 -0.0013  1.8152  0.6506
  748THF     O113812   0.147   1.003   1.347  0.0630  0.0700 -0.4831
  748THF     C213813   0.051   1.002   1.244 -0.4307 -0.3711  0.4145
  748THF     C313814   0.082   1.038   1.468  0.0393  0.1864  0.0954
  748THF     H413815   0.054   0.901   1.201 -1.6845  0.5102 -1.9274
  748THF     H513816   0.075   1.078   1.170 -2.9697 -0.9759 -1.1767
  748THF     H613817   0.134   0.995   1.554  1.2686  1.1564 -0.1275
  748THF     H713818   0.073   1.145   1.484  0.2419  0.3644 -0.9251
  748THF     C813819  -0.056   0.988   1.457  0.5210  0.5131 -0.7553
  748THF     C913820  -0.091   1.027   1.311 -0.1614 -0.2561 -0.6965
  748THF    H1013821  -0.118   1.029   1.537  1.2228 -1.3464  0.8161
  748THF    H1113822  -0.047   0.884   1.487 -3.6436  0.1371 -0.3158
  748THF    H1213823  -0.168   0.965   1.264 -1.7984 -1.2840  2.9406
  748THF    H1313824  -0.107   1.135   1.313 -0.1643 -0.1092  3.8931
  749THF     O113825   5.326   1.927   0.722  0.0855  0.1384  0.2445
  749THF     C213826   5.417   1.988   0.628  0.1159  0.5760  0.3282
  749THF     C313827   5.366   1.790   0.739 -0.0263 -0.2051 -0.4249
  749THF     H413828   5.433   2.093   0.651 -0.1246  0.4410  1.1339
  749THF     H513829   5.367   1.967   0.533 -1.3186  0.2293  1.1234
  749THF     H613830   5.317   1.746   0.826  0.4723  2.4856  1.3340
  749THF     H713831   5.322   1.735   0.657 -1.2434  0.6762 -0.3995
  749THF     C813832   5.516   1.802   0.739 -0.4980 -0.3833 -0.3495
  749THF     C913833   5.548   1.916   0.639  0.5472 -0.0980  0.3655
  749THF    H1013834   5.564   1.705   0.725  0.8910  0.2161  0.0842
  749THF    H1113835   5.545   1.836   0.838 -1.5395 -2.3308  0.6989
  749THF    H1213836   5.639   1.972   0.659  0.9064  0.6505 -2.9372
  749THF    H1313837   5.563   1.858   0.548 -0.6962 -0.1411  0.1689
  750THF     O113838   3.907   5.446   1.542  0.0465 -0.5839 -0.6418
  750THF     C213839   3.796   5.361   1.538 -0.4808 -0.5172 -0.1825
  750THF     C313840   3.969   5.428   1.670 -0.3673 -0.5517 -0.2777
  750THF     H413841   3.768   5.339   1.435  0.4418  0.1074 -0.5833
  750THF     H513842   3.723   5.420   1.592  1.9779  0.6852  2.0263
  750THF     H613843   4.074   5.458   1.666 -0.2989 -0.8640 -2.1493
  750THF     H713844   3.909   5.477   1.746 -0.3806  1.8354 -1.7233
  750THF     C813845   3.951   5.280   1.704  0.2020 -0.3406  0.1516
  750THF     C913846   3.838   5.235   1.611  0.1603  0.0816 -0.0013
  750THF    H1013847   3.933   5.264   1.811  1.3560  0.7150  0.5321
  750THF    H1113848   4.035   5.216   1.679  2.6601  0.6622  4.6760
  750THF    H1213849   3.890   5.156   1.558  0.7844 -1.7615  3.1032
  750THF    H1313850   3.749   5.194   1.658 -0.0296  1.7005  1.1642
  751THF     O113851   1.636   2.685   1.308  0.1467  0.1419 -0.1888
  751THF     C213852   1.568   2.560   1.281 -0.5549  0.1931 -0.2000
  751THF     C313853   1.770   2.664   1.273 -0.0694  0.2800  0.4647
  751THF     H413854   1.498   2.581   1.200 -2.5348 -0.5456  1.2531
  751THF     H513855   1.510   2.535   1.370  0.4738  0.9010  0.6997
  751THF     H613856   1.789   2.691   1.169  1.2782 -0.9466  0.3707
  751THF     H713857   1.839   2.726   1.330 -0.5601  0.3728  0.9711
  751THF     C813858   1.803   2.521   1.295 -0.3528 -0.5905  0.1514
  751THF     C913859   1.674   2.458   1.247 -0.3748 -0.1978 -0.2207
  751THF    H1013860   1.830   2.508   1.400  1.6318  0.0345 -0.2274
  751THF    H1113861   1.892   2.492   1.240 -0.1104  2.4714 -1.2615
  751THF    H1213862   1.681   2.437   1.140  1.7788 -0.5035 -0.0502
  751THF    H1313863   1.656   2.364   1.299  1.0098 -0.7380 -0.6633
  752THF     O113864   1.186   0.825   5.325 -0.2503 -0.2344 -0.2766
  752THF     C213865   1.266   0.808   5.208  0.5757  0.4230 -0.1444
  752THF     C313866   1.084   0.924   5.292 -0.1900  0.1904 -0.1709
  752THF     H413867   1.213   0.743   5.139 -1.3092  0.6416  1.0290
  752THF     H513868   1.365   0.768   5.230  0.1392 -0.2166  0.7328
  752THF     H613869   0.999   0.876   5.244 -1.0381  1.3600  0.1003
  752THF     H713870   1.036   0.968   5.380 -0.8124 -1.0891  0.1603
  752THF     C813871   1.146   1.027   5.196 -0.0633  0.1419 -0.4581
  752THF     C913872   1.276   0.952   5.157 -0.0799  0.6740  0.1467
  752THF    H1013873   1.171   1.122   5.242 -0.3959  1.8985 -3.6150
  752THF    H1113874   1.079   1.051   5.113  1.3155  0.0405 -1.6409
  752THF    H1213875   1.305   0.946   5.052 -1.1972  1.5705 -0.2265
  752THF    H1313876   1.356   0.999   5.213 -0.7159  1.3635  0.4834
  753THF     O113877   3.859   4.908   2.587 -0.0180 -0.1767 -0.4161
  753THF     C213878   3.758   4.857   2.679  0.3460 -0.2313 -0.0082
  753THF     C313879   3.950   4.984   2.661 -0.0477 -0.1070 -0.4693
  753THF     H413880   3.701   4.776   2.633  0.6465 -1.0734  1.0504
  753THF     H513881   3.687   4.935   2.707  0.5852  1.6585 -3.9673
  753THF     H613882   4.053   4.976   2.627  0.0732  0.3455 -0.2169
  753THF     H713883   3.925   5.091   2.665 -2.1725 -0.5559 -0.5822
  753THF     C813884   3.933   4.924   2.802  0.2760  0.4506 -0.0217
  753THF     C913885   3.845   4.805   2.796 -0.1923  0.1099  0.7961
  753THF    H1013886   3.895   5.005   2.864 -0.0804  0.3533 -0.1138
  753THF    H1113887   4.035   4.901   2.832  0.4267 -2.0725 -2.1378
  753THF    H1213888   3.898   4.714   2.768 -1.0244  0.4435 -2.2929
  753THF    H1313889   3.793   4.801   2.891  1.1552  2.6607  1.7384
  754THF     O113890   4.226   1.467   1.926  0.5233  0.1373  0.6926
  754THF     C213891   4.236   1.529   2.044  0.1216 -0.3286 -0.9821
  754THF     C313892   4.160   1.339   1.937 -0.3701 -0.1824  0.1890
  754THF     H413893   4.177   1.619   2.062  3.4365  1.6886  0.9515
  754THF     H513894   4.340   1.559   2.053  0.8536 -2.5353 -1.4697
  754THF     H613895   4.070   1.330   1.876 -1.1426  1.8206  0.9468
  754THF     H713896   4.240   1.272   1.905 -1.6050 -1.3472 -0.5923
  754THF     C813897   4.123   1.326   2.089  0.1011  0.3049  0.1849
  754THF     C913898   4.222   1.414   2.156  0.1926  0.0801  0.1358
  754THF    H1013899   4.124   1.222   2.122 -0.1757  0.0019 -0.7253
  754THF    H1113900   4.033   1.381   2.113  2.3847  3.4379  2.2902
  754THF    H1213901   4.201   1.447   2.258 -2.5719  0.4220 -0.4497
  754THF    H1313902   4.313   1.356   2.169 -0.1713 -0.7073 -0.7479
  755THF     O113903   2.974   0.509   4.746 -0.0065  0.7576 -0.7754
  755THF     C213904   2.933   0.430   4.638  0.6894  0.1304  0.3046
  755THF     C313905   3.032   0.624   4.699 -0.2421 -0.0593 -0.1750
  755THF     H413906   2.864   0.357   4.680  1.1369  0.8525  2.3973
  755THF     H513907   3.023   0.384   4.597  0.1608 -2.7416  2.1012
  755THF     H613908   3.038   0.690   4.785  1.6111  0.4701 -0.6539
  755THF     H713909   3.133   0.594   4.671  0.6895  1.4959  1.2961
  755THF     C813910   2.942   0.661   4.587  0.1975  0.2624 -0.4282
  755THF     C913911   2.875   0.534   4.543 -0.0543 -0.4032 -0.0486
  755THF    H1013912   2.999   0.714   4.510  2.4846  0.2283  1.1342
  755THF    H1113913   2.867   0.725   4.633  0.7844  0.8536 -0.2687
  755THF    H1213914   2.766   0.539   4.542  0.0023  2.4919 -1.7502
  755THF    H1313915   2.904   0.515   4.439  0.1859  1.6673 -0.3921
  756THF     O113916   3.142   4.023   2.956 -0.2914 -0.8135 -0.6448
  756THF     C213917   3.275   3.973   2.954  0.1153  0.2119 -0.1851
  756THF     C313918   3.064   3.971   2.842  0.0267  0.2637 -0.3137
  756THF     H413919   3.322   3.994   3.050  0.7496 -0.3006 -0.3765
  756THF     H513920   3.335   4.030   2.883 -1.3443  1.4091 -0.5017
  756THF     H613921   2.970   3.932   2.879  0.9022 -0.7853  0.9209
  756THF     H713922   3.050   4.052   2.770  2.0407  0.3367 -0.7031
  756THF     C813923   3.158   3.859   2.784  0.5526 -0.2853  0.2627
  756THF     C913924   3.257   3.835   2.893 -0.9297  0.6182 -0.1791
  756THF    H1013925   3.197   3.891   2.687 -2.2689 -2.0744 -1.6103
  756THF    H1113926   3.102   3.769   2.758 -1.7440  1.1893 -0.1850
  756THF    H1213927   3.217   3.775   2.975 -0.7978  0.4058 -0.2701
  756THF    H1313928   3.353   3.792   2.865 -0.4445 -0.4998  2.8267
  757THF     O113929   3.032   3.035   1.228 -0.0602  0.2913 -0.1721
  757THF     C213930   3.049   3.055   1.365 -0.0502 -0.2943 -0.6178
  757THF     C313931   3.160   3.007   1.165  0.3826  0.1428 -0.0595
  757THF     H413932   3.079   2.968   1.423  3.5063  0.4433 -1.1248
  757THF     H513933   2.969   3.111   1.414 -0.5687 -0.0519 -1.7282
  757THF     H613934   3.195   2.904   1.170 -1.1182 -0.3669  0.6786
  757THF     H713935   3.156   3.035   1.060  0.1133  1.7248  0.3490
  757THF     C813936   3.246   3.099   1.249 -0.2675  0.0808  0.2289
  757THF     C913937   3.165   3.152   1.364 -0.1909  0.7358 -0.1500
  757THF    H1013938   3.282   3.185   1.193  0.1937  0.0273  0.4377
  757THF    H1113939   3.340   3.054   1.280 -0.1273  0.6699  0.6500
  757THF    H1213940   3.217   3.168   1.458  0.0546 -1.6342  0.1602
  757THF    H1313941   3.135   3.253   1.335 -0.0642  0.2012 -2.3375
  758THF     O113942   3.848   0.978   5.378  0.5425 -0.2439 -0.3221
  758THF     C213943   3.953   1.010   5.464 -0.8676  1.2926 -0.2227
  758THF     C313944   3.813   0.844   5.396  0.3829 -0.3296 -0.1219
  758THF     H413945   3.989   1.113   5.471  0.1422  0.9256  0.1974
  758THF     H513946   4.044   0.960   5.430 -1.0239  1.0178 -0.2356
  758THF     H613947   3.719   0.818   5.347 -0.0033  2.1560 -0.8066
  758THF     H713948   3.892   0.776   5.363  0.3575 -0.9145  0.9850
  758THF     C813949   3.794   0.837   5.546  0.5760 -0.6785 -0.2758
  758THF     C913950   3.901   0.943   5.594  0.0446 -0.2745 -0.7216
  758THF    H1013951   3.810   0.736   5.583  0.3515 -1.3408 -1.9210
  758THF    H1113952   3.698   0.878   5.579  0.1448 -0.2557 -1.9515
  758THF    H1213953   3.864   1.009   5.673 -0.0338 -2.7248  1.4215
  758THF    H1313954   3.981   0.896   5.652 -0.5003 -0.1549  0.1478
  759THF     O113955   1.755   1.152   4.390 -0.7252 -0.1358 -0.3170
  759THF     C213956   1.763   1.254   4.498 -0.2330  0.8865 -0.1264
  759THF     C313957   1.769   1.022   4.450  0.2619  0.5005 -0.4845
  759THF     H413958   1.725   1.352   4.470  0.9850  1.0173 -1.4808
  759THF     H513959   1.869   1.265   4.524 -0.2424  2.7575 -0.7564
  759THF     H613960   1.725   0.941   4.392 -0.9613  1.2226 -0.5936
  759THF     H713961   1.874   0.999   4.472  0.3694  0.7768 -0.7039
  759THF     C813962   1.699   1.036   4.583  0.3438 -0.1591  0.3872
  759THF     C913963   1.672   1.191   4.602 -1.1019  0.0744 -0.2186
  759THF    H1013964   1.761   0.996   4.663 -0.3314  0.1395  1.0591
  759THF    H1113965   1.602   0.986   4.589 -0.3213  0.7270 -1.8119
  759THF    H1213966   1.570   1.202   4.566 -1.4334  2.1587  1.1448
  759THF    H1313967   1.683   1.239   4.699  0.4635 -0.8334  0.0935
  760THF     O113968   1.675   1.044   2.690 -0.0364 -0.2017 -0.1626
  760THF     C213969   1.607   1.077   2.812  0.2577 -0.4408 -0.4224
  760THF     C313970   1.818   1.054   2.706  0.2614 -0.6587  0.0687
  760THF     H413971   1.508   1.035   2.827  0.4045 -0.5344  0.2964
  760THF     H513972   1.601   1.186   2.818 -0.6532 -0.5203  0.3473
  760THF     H613973   1.859   0.961   2.667  1.2737 -0.3866  0.4557
  760THF     H713974   1.859   1.143   2.659 -2.6588  0.4391 -0.6127
  760THF     C813975   1.841   1.050   2.857 -0.0977 -0.3520 -0.0288
  760THF     C913976   1.704   1.020   2.912  0.5102 -0.5718 -0.5188
  760THF    H1013977   1.887   1.140   2.898  1.9914 -0.5712 -1.7039
  760THF    H1113978   1.917   0.980   2.890  3.2306  3.8724  2.3349
  760THF    H1213979   1.692   0.912   2.929  1.3841 -0.3957  1.5283
  760THF    H1313980   1.690   1.068   3.009  0.6255 -1.2630 -0.1489
  761THF     O113981   3.905   4.044   3.693  0.2219  0.3276 -0.1588
  761THF     C213982   3.934   4.176   3.743 -0.0858  0.0917 -0.4979
  761THF     C313983   3.770   4.046   3.647 -0.0107 -0.1237  0.3330
  761THF     H413984   4.039   4.203   3.735  0.5058 -1.9443 -0.3796
  761THF     H513985   3.913   4.176   3.850  1.3666 -1.0785 -0.1670
  761THF     H613986   3.742   3.968   3.576 -1.7273  0.4180  0.3620
  761THF     H713987   3.703   4.041   3.734  0.3506  1.9130  0.7704
  761THF     C813988   3.762   4.185   3.576  0.1472 -0.3390  0.1082
  761THF     C913989   3.839   4.275   3.669  0.3679 -0.0256  0.0213
  761THF    H1013990   3.661   4.215   3.549  0.6838  1.5370  0.0395
  761THF    H1113991   3.815   4.183   3.480  3.7277  0.8725  1.8628
  761THF    H1213992   3.896   4.349   3.613 -0.6009  0.9432  0.2829
  761THF    H1313993   3.770   4.324   3.737 -1.6600 -2.7293  0.0921
  762THF     O113994   3.022   0.979   0.663  0.0863 -0.4299 -0.1847
  762THF     C213995   3.052   0.858   0.595  0.4949  0.5827  0.4173
  762THF     C313996   3.107   1.080   0.601 -0.5701  0.3677  0.4083
  762THF     H413997   3.001   0.849   0.499 -2.6427  0.1689  1.9757
  762THF     H513998   3.021   0.778   0.663  0.7931 -1.2950 -1.5559
  762THF     H613999   3.053   1.130   0.521 -0.5472  0.4974  0.4723
  762THF     H714000   3.134   1.157   0.674  0.8855 -1.6906  2.1692
  762THF     C814001   3.235   1.013   0.546 -0.2383  0.0811 -0.1509
  762THF     C914002   3.205   0.861   0.570  0.3386 -0.5487  0.1505
  762THF    H1014003   3.327   1.053   0.591 -0.9800 -1.1806  2.7389
  762THF    H1114004   3.242   1.030   0.439  0.5205  0.6450 -0.0223
  762THF    H1214005   3.242   0.797   0.490  1.7046  1.2811 -0.7487
  762THF    H1314006   3.259   0.828   0.659 -0.1359 -0.0370  0.6402
  763THF     O114007   4.475   0.419   3.820 -0.0121  0.0574 -0.2064
  763THF     C214008   4.613   0.385   3.807  0.0102 -0.3795  0.4353
  763THF     C314009   4.464   0.513   3.930 -0.1699  0.4054  0.3855
  763THF     H414010   4.642   0.349   3.708  0.9641  0.3572  0.4403
  763THF     H514011   4.627   0.305   3.881  2.8522 -0.2633  0.1192
  763THF     H614012   4.365   0.557   3.920  0.4506  1.6213 -0.7428
  763THF     H714013   4.471   0.465   4.027 -0.9700 -0.1606  0.1746
  763THF     C814014   4.593   0.596   3.901  0.0765  0.1865  0.6056
  763THF     C914015   4.698   0.499   3.836  0.2922  0.8069  0.3474
  763THF    H1014016   4.625   0.642   3.995 -1.1450  0.1932  1.0299
  763THF    H1114017   4.573   0.674   3.828 -0.0536 -1.7097 -1.4874
  763THF    H1214018   4.749   0.537   3.747 -1.5070 -0.8043 -1.4706
  763THF    H1314019   4.771   0.477   3.914 -0.8356 -0.3698  1.1006
  764THF     O114020   2.479   1.588   4.584  0.5425  0.1617  0.0669
  764THF     C214021   2.549   1.617   4.707  0.4113 -0.8688 -0.2558
  764THF     C314022   2.569   1.595   4.478 -0.0124 -0.5941  0.2187
  764THF     H414023   2.624   1.540   4.726  1.4694  0.0019 -0.7973
  764THF     H514024   2.480   1.624   4.791  1.3594  0.5589  0.4471
  764THF     H614025   2.617   1.500   4.459 -0.5605 -0.3897 -2.4984
  764THF     H714026   2.508   1.620   4.391  0.0464  1.3573  0.6884
  764THF     C814027   2.647   1.725   4.523  0.2940  0.4988 -0.4603
  764THF     C914028   2.630   1.739   4.676 -0.2156  0.1533 -0.5302
  764THF    H1014029   2.590   1.810   4.485 -3.7631 -2.4278 -1.5635
  764THF    H1114030   2.750   1.732   4.490  0.7400  0.0950  0.7847
  764THF    H1214031   2.723   1.744   4.733 -1.1192 -1.2230  1.1558
  764THF    H1314032   2.566   1.826   4.690  0.0137  0.0824  1.2228
  765THF     O114033   4.711   3.104   3.411  0.1585 -0.4802 -0.2594
  765THF     C214034   4.803   3.019   3.337  0.0231  0.1116  0.1657
  765THF     C314035   4.671   3.028   3.526 -0.4402 -0.2799  0.1495
  765THF     H414036   4.866   3.075   3.268  1.3733 -1.1330  0.3358
  765THF     H514037   4.749   2.945   3.278 -0.0683  1.0160 -0.8955
  765THF     H614038   4.642   3.093   3.608  3.5009 -0.2011  1.6887
  765THF     H714039   4.596   2.955   3.495 -0.5468 -0.1346  0.0669
  765THF     C814040   4.801   2.957   3.573 -0.6817  0.8440 -0.0155
  765THF     C914041   4.881   2.943   3.443  0.3440  0.4997 -0.1017
  765THF    H1014042   4.780   2.859   3.617 -0.0679  1.0952  0.8579
  765THF    H1114043   4.870   2.994   3.648 -1.3960 -0.2303  1.2318
  765THF    H1214044   4.985   2.976   3.453  0.7049 -0.7558  0.5156
  765THF    H1314045   4.890   2.836   3.424 -1.5517  0.4857 -1.1256
  766THF     O114046   2.712   2.720   3.643  0.1214 -0.4953  0.1250
  766THF     C214047   2.778   2.687   3.525  0.2260  0.4620  0.4838
  766THF     C314048   2.733   2.858   3.655  0.5871 -0.4003  0.3883
  766THF     H414049   2.724   2.720   3.436  2.3959 -0.5438 -1.2920
  766THF     H514050   2.786   2.579   3.515  1.5539  0.4802  1.1781
  766THF     H614051   2.705   2.924   3.573 -0.0649 -0.0396  0.8902
  766THF     H714052   2.698   2.892   3.752 -0.7218 -0.9656  0.1373
  766THF     C814053   2.889   2.861   3.644  0.0484  0.0894  0.0531
  766THF     C914054   2.907   2.764   3.529  0.1364 -0.1511  0.1213
  766THF    H1014055   2.925   2.800   3.727  0.0828  0.1129  0.0548
  766THF    H1114056   2.945   2.954   3.634 -1.8700  1.1575 -1.5188
  766THF    H1214057   2.909   2.821   3.436  1.4886  0.3966  0.4498
  766THF    H1314058   2.996   2.700   3.529  0.4997  0.1783 -3.3637
  767THF     O114059   3.893   2.902   3.904 -0.3484  0.3472  0.0687
  767THF     C214060   3.881   2.928   4.045 -0.2865 -0.7698  0.4869
  767THF     C314061   3.768   2.864   3.849 -0.8786  0.2817  0.4525
  767THF     H414062   3.965   2.991   4.072  1.0510 -0.7428 -3.1554
  767THF     H514063   3.863   2.846   4.115  0.5201 -0.6629  0.8214
  767THF     H614064   3.767   2.892   3.744 -0.4363  1.9774  0.8753
  767THF     H714065   3.765   2.756   3.868 -1.8235  0.3580  0.7661
  767THF     C814066   3.669   2.934   3.932  0.0331  0.0159 -0.0734
  767THF     C914067   3.749   3.002   4.035 -0.2644  0.4938  0.1534
  767THF    H1014068   3.605   2.862   3.983  1.5122  0.1067  2.0532
  767THF    H1114069   3.620   3.010   3.871 -0.5179  0.7553  1.2565
  767THF    H1214070   3.764   3.100   3.990 -0.9794  0.8335  0.6336
  767THF    H1314071   3.691   3.022   4.125 -0.6018  2.7365 -0.5002
  768THF     O114072   1.631   3.073   0.429 -0.1710  0.4336 -0.2045
  768THF     C214073   1.734   3.019   0.516  0.2213  0.3420  0.9894
  768THF     C314074   1.511   3.048   0.495 -0.2064 -0.0411 -0.1737
  768THF     H414075   1.836   3.044   0.487  0.7871 -1.5703  1.2037
  768THF     H514076   1.735   2.910   0.517 -1.1169  0.2937 -0.0567
  768THF     H614077   1.437   3.108   0.442 -0.0534  0.2100 -0.1101
  768THF     H714078   1.480   2.944   0.489 -0.3749 -0.1438  1.7309
  768THF     C814079   1.545   3.091   0.638  0.2462 -0.9475  0.2639
  768THF     C914080   1.700   3.086   0.656 -0.1623  0.7550  0.5010
  768THF    H1014081   1.501   3.026   0.713  1.8260 -1.7389  0.5502
  768THF    H1114082   1.507   3.191   0.660 -0.8375 -1.1046 -0.8263
  768THF    H1214083   1.749   3.182   0.647 -0.3185  0.8204  0.3323
  768THF    H1314084   1.736   3.036   0.746  0.9402  0.5046 -0.0742
  769THF     O114085   5.238   3.112   2.986 -0.2114 -0.4897 -0.3354
  769THF     C214086   5.109   3.050   2.996 -0.2568  0.8559 -0.7472
  769THF     C314087   5.324   3.018   2.927  0.9489  0.8272 -0.0164
  769THF     H414088   5.030   3.124   2.989  1.6442  3.0070 -0.7868
  769THF     H514089   5.101   2.991   3.088 -0.3323 -0.1456 -1.3835
  769THF     H614090   5.407   3.064   2.873  0.1359  2.0783 -0.2376
  769THF     H714091   5.365   2.957   3.008 -0.6844 -1.4774 -0.8124
  769THF     C814092   5.239   2.930   2.836 -0.4358 -0.5514  0.3132
  769THF     C914093   5.095   2.969   2.869  0.5353  0.3963  0.4465
  769THF    H1014094   5.261   2.825   2.856  2.5964  0.4237  3.0040
  769THF    H1114095   5.260   2.956   2.733 -0.3667 -0.3374  0.3802
  769THF    H1214096   5.058   3.017   2.779 -2.9170 -1.2889  0.8106
  769THF    H1314097   5.025   2.890   2.896  1.3696  0.2283  2.3467
  770THF     O114098   4.406   1.039   4.661 -0.4909  0.3941 -0.1898
  770THF     C214099   4.514   1.128   4.655  0.4957 -0.6877  0.4387
  770THF     C314100   4.318   1.089   4.759 -0.6200  0.4340 -1.0709
  770THF     H414101   4.470   1.221   4.619  0.9295 -0.3909  0.6572
  770THF     H514102   4.609   1.106   4.606  1.0161  4.0096 -1.2250
  770THF     H614103   4.247   1.158   4.712 -0.7497  1.7576  0.9328
  770THF     H714104   4.273   1.000   4.803 -2.5849  0.8450 -2.1185
  770THF     C814105   4.406   1.163   4.862 -0.4159 -0.7704 -0.2151
  770THF     C914106   4.542   1.160   4.798 -0.8277  0.1009 -0.1649
  770THF    H1014107   4.398   1.116   4.960 -1.0469 -2.3661 -0.9852
  770THF    H1114108   4.376   1.266   4.877 -1.2495 -1.2706  1.9445
  770THF    H1214109   4.591   1.257   4.803  1.2355 -0.9519  1.6518
  770THF    H1314110   4.610   1.092   4.848  1.1313  1.7283 -0.4865
  771THF     O114111   3.486   2.605   2.359  0.7228  0.2734 -0.5826
  771THF     C214112   3.491   2.714   2.448 -0.1890 -0.5566  0.7847
  771THF     C314113   3.388   2.634   2.265  0.2546 -0.7027 -0.2188
  771THF     H414114   3.557   2.789   2.405 -1.7524  0.9189  0.8406
  771THF     H514115   3.534   2.687   2.545 -1.3798 -0.9836  1.2174
  771THF     H614116   3.425   2.699   2.185  0.6501 -0.6600 -0.0027
  771THF     H714117   3.358   2.540   2.219 -1.4121  0.2230 -1.1108
  771THF     C814118   3.283   2.716   2.343  0.3842  0.3089 -0.1065
  771THF     C914119   3.348   2.765   2.468 -0.2684 -0.0401  0.0716
  771THF    H1014120   3.189   2.662   2.362 -0.6911  1.8580 -0.8103
  771THF    H1114121   3.243   2.791   2.276 -3.0328 -0.9648  0.2570
  771THF    H1214122   3.339   2.874   2.473 -1.3495  0.1185 -2.9508
  771THF    H1314123   3.320   2.714   2.559 -1.2020  1.3912  0.6302
  772THF     O114124   5.403   0.333   2.626  0.7325 -0.1239 -0.1356
  772THF     C214125   5.511   0.297   2.706  0.0312 -0.0971  0.3872
  772THF     C314126   5.459   0.397   2.514 -0.4854 -0.5402 -0.4174
  772THF     H414127   5.565   0.215   2.659  1.4302 -0.5623  2.6808
  772THF     H514128   5.471   0.260   2.800  2.6752 -1.5559  1.0135
  772THF     H614129   5.487   0.323   2.439  2.4429 -2.0387  1.9597
  772THF     H714130   5.389   0.463   2.462  2.0955  2.8941  0.1551
  772THF     C814131   5.574   0.482   2.568 -0.2079  0.0028 -0.4059
  772THF     C914132   5.595   0.422   2.705 -0.1970  0.1356 -0.8792
  772THF    H1014133   5.544   0.587   2.567  0.6191  0.3703  2.6574
  772THF    H1114134   5.651   0.466   2.493 -0.3659  0.5322 -0.6848
  772THF    H1214135   5.699   0.391   2.720 -0.3029  0.9042  1.8171
  772THF    H1314136   5.579   0.493   2.785  1.3352  0.8643 -1.1796
  773THF     O114137   3.531   4.141   4.660 -0.2730  0.0254 -0.2284
  773THF     C214138   3.462   4.094   4.775  0.0607  1.0165  0.0640
  773THF     C314139   3.477   4.094   4.541 -0.1511 -0.0688 -0.2231
  773THF     H414140   3.369   4.146   4.795 -0.8934 -1.0967  1.4490
  773THF     H514141   3.522   4.102   4.866 -3.1648  1.8401  2.2977
  773THF     H614142   3.384   4.148   4.526 -1.2922 -0.9972  2.6780
  773THF     H714143   3.555   4.092   4.465  1.7013  0.7100  1.5451
  773THF     C814144   3.455   3.947   4.577  0.0333  0.6311 -0.2306
  773THF     C914145   3.431   3.957   4.729 -0.3205  0.0441  0.6297
  773THF    H1014146   3.539   3.879   4.562 -0.5207  0.4802 -3.0947
  773THF    H1114147   3.372   3.912   4.517  1.9344  1.6104 -3.7018
  773THF    H1214148   3.326   3.932   4.740 -0.9353  2.0150 -0.2768
  773THF    H1314149   3.494   3.886   4.783  1.8476 -0.1053 -1.9183
  774THF     O114150   2.387   3.758   0.024 -0.3250  0.4204  0.6503
  774THF     C214151   2.248   3.770   0.052  0.4968  0.0588 -0.6413
  774THF     C314152   2.394   3.655  -0.074 -0.2043 -0.4236  0.1112
  774THF     H414153   2.209   3.827  -0.032 -1.0716 -0.1273 -0.0729
  774THF     H514154   2.232   3.833   0.140  0.3141 -0.4781 -0.2832
  774THF     H614155   2.389   3.685  -0.179  0.7474  0.5749  0.3415
  774THF     H714156   2.488   3.602  -0.060  0.1356 -0.0331 -0.5907
  774THF     C814157   2.272   3.566  -0.051  0.3748  0.9872 -0.0812
  774THF     C914158   2.195   3.629   0.060 -0.4253 -1.3673 -0.0755
  774THF    H1014159   2.312   3.469  -0.020 -1.7323  0.3880  0.9705
  774THF    H1114160   2.208   3.560  -0.139 -0.9071  3.3480  0.6025
  774THF    H1214161   2.088   3.608   0.066 -1.1885  2.2599  3.8209
  774THF    H1314162   2.231   3.583   0.152 -2.4736 -0.2060  1.3926
  775THF     O114163   4.230   5.137   4.793 -0.1746 -0.4117  0.0710
  775THF     C214164   4.278   5.211   4.676  0.6221 -0.0909  0.2264
  775THF     C314165   4.252   5.003   4.758  0.5085  0.8323  0.2253
  775THF     H414166   4.386   5.214   4.667  0.6841 -1.7438  0.2350
  775THF     H514167   4.254   5.318   4.682  0.7531 -0.0906  0.8449
  775THF     H614168   4.357   4.976   4.762  0.2544 -0.4443 -1.0659
  775THF     H714169   4.203   4.924   4.815  0.7302  0.1567 -0.5139
  775THF     C814170   4.193   5.000   4.621  0.1842 -0.2433  0.5636
  775THF     C914171   4.219   5.139   4.557 -0.4646 -0.1639 -0.2485
  775THF    H1014172   4.086   4.977   4.624 -0.4189  2.2491  1.0986
  775THF    H1114173   4.238   4.932   4.549  0.1707  0.4787 -0.1447
  775THF    H1214174   4.288   5.145   4.473  1.3958 -1.1393  1.1347
  775THF    H1314175   4.122   5.179   4.527 -0.1185  0.1768 -0.9494
  776THF     O114176   4.834   4.877   2.541 -0.1853  0.3060 -0.3253
  776THF     C214177   4.881   4.816   2.666  0.2838  0.0098 -0.8217
  776THF     C314178   4.698   4.832   2.521 -0.5318  0.0664  0.3206
  776THF     H414179   4.920   4.884   2.742 -1.0381 -0.3683  0.2216
  776THF     H514180   4.962   4.745   2.651  1.8667  1.3701  0.8129
  776THF     H614181   4.628   4.901   2.568  0.1690 -0.3227  2.0225
  776THF     H714182   4.688   4.821   2.413  3.5745 -0.4367 -0.1946
  776THF     C814183   4.687   4.702   2.596 -0.1755  0.2728 -0.4083
  776THF     C914184   4.766   4.727   2.721 -0.1373 -0.0481  0.1475
  776THF    H1014185   4.722   4.618   2.536 -0.4425 -1.0297  1.2184
  776THF    H1114186   4.582   4.683   2.613 -0.0010 -0.2968  0.0443
  776THF    H1214187   4.703   4.798   2.776 -3.3304 -0.7671 -2.2903
  776THF    H1314188   4.797   4.648   2.789 -0.9885 -1.4227 -1.0130
  777THF     O114189   5.013   0.835   0.675  0.2392 -0.3589  0.1203
  777THF     C214190   4.873   0.846   0.694  0.1309 -0.2957  0.8378
  777THF     C314191   5.042   0.692   0.682 -0.3546 -0.6150 -0.0811
  777THF     H414192   4.843   0.949   0.680 -1.2270 -0.5619  1.5791
  777THF     H514193   4.850   0.812   0.795  0.9568 -1.9523  0.5078
  777THF     H614194   5.140   0.657   0.649 -1.0551 -2.3875 -0.3844
  777THF     H714195   5.042   0.666   0.788  1.5203  0.3436  0.1904
  777THF     C814196   4.928   0.643   0.599 -0.4932 -0.0886  0.9243
  777THF     C914197   4.818   0.743   0.592  0.6438 -0.1167 -0.5438
  777THF    H1014198   4.904   0.538   0.617  1.0785 -1.2975 -3.0711
  777THF    H1114199   4.973   0.636   0.500 -1.4299  1.3062  0.3752
  777THF    H1214200   4.803   0.800   0.500  0.3672  1.6286  0.5230
  777THF    H1314201   4.720   0.701   0.616  0.1832  0.3105 -1.6494
  778THF     O114202   1.086   3.041   0.274 -0.0574  0.1606 -0.2024
  778THF     C214203   1.021   3.062   0.401  0.4840 -0.2387 -0.5109
  778THF     C314204   0.989   3.033   0.169  0.0071  0.4756 -0.4167
  778THF     H414205   0.984   3.165   0.407 -1.3038 -0.8429 -0.6390
  778THF     H514206   1.083   3.041   0.488 -0.0255 -0.3878 -0.1777
  778THF     H614207   0.984   3.115   0.097 -2.2700 -0.0840 -0.9943
  778THF     H714208   1.023   2.947   0.112 -0.0862 -1.5209  2.3398
  778THF     C814209   0.857   2.995   0.242  0.2271  0.1613 -0.4405
  778THF     C914210   0.896   2.964   0.382 -0.1120 -0.1554 -0.4143
  778THF    H1014211   0.814   2.905   0.199 -1.3336 -0.7259  2.7088
  778THF    H1114212   0.785   3.077   0.237  0.7291  0.5762 -0.9723
  778THF    H1214213   0.810   2.970   0.449 -0.5392  1.3771 -1.0616
  778THF    H1314214   0.931   2.861   0.373  3.8523  0.8328  1.3402
  779THF     O114215   1.572   4.360   4.894  0.5444  0.4423  0.1998
  779THF     C214216   1.701   4.422   4.884  0.2540  0.0407 -0.1166
  779THF     C314217   1.573   4.283   5.009  0.3503  0.0109 -0.0337
  779THF     H414218   1.688   4.529   4.900 -2.2159 -0.0456 -1.0357
  779THF     H514219   1.737   4.426   4.781  0.3617  4.3714 -0.1032
  779THF     H614220   1.543   4.343   5.096  1.1061 -0.8927  0.8847
  779THF     H714221   1.505   4.199   4.998 -1.3591  1.4260 -0.6452
  779THF     C814222   1.712   4.243   5.037 -0.6344  0.0844 -0.3235
  779THF     C914223   1.786   4.370   4.999 -0.2405  0.0190 -0.1654
  779THF    H1014224   1.745   4.165   4.968  0.8210  0.5788 -0.2339
  779THF    H1114225   1.736   4.202   5.135 -1.6519 -0.6585 -0.3752
  779THF    H1214226   1.805   4.440   5.080  0.4739 -0.5098  0.1290
  779THF    H1314227   1.887   4.346   4.965  0.9060  0.6506  2.5389
  780THF     O114228   3.913   2.815   3.292  0.4424  0.0226  0.3240
  780THF     C214229   3.862   2.837   3.162  0.4109 -0.4147  0.3269
  780THF     C314230   3.924   2.678   3.306 -0.7284  0.1619  0.2741
  780THF     H414231   3.943   2.837   3.089 -1.9421  0.4031 -2.4828
  780THF     H514232   3.807   2.931   3.152  0.7000 -0.3675 -0.9068
  780THF     H614233   4.022   2.651   3.343 -1.3637 -0.4581  1.5848
  780THF     H714234   3.863   2.653   3.393  0.8605 -0.1906  1.3336
  780THF     C814235   3.882   2.601   3.181 -0.0872 -0.0489 -0.1649
  780THF     C914236   3.793   2.709   3.128  0.4888 -0.2806  0.2411
  780THF    H1014237   3.822   2.512   3.203 -0.3903 -0.5715 -2.7200
  780THF    H1114238   3.966   2.579   3.115 -1.4884  0.3453 -2.1819
  780THF    H1214239   3.779   2.697   3.020  0.8437  1.4391 -0.0231
  780THF    H1314240   3.699   2.687   3.180 -0.2828  1.2840 -0.4076
  781THF     O114241   2.543   3.340   4.773  0.5314 -0.0344 -0.0686
  781THF     C214242   2.502   3.213   4.730 -0.1886 -0.0509  0.2247
  781THF     C314243   2.523   3.341   4.914 -0.8360  0.3209 -0.0845
  781THF     H414244   2.578   3.139   4.752  0.6994  0.6011 -0.5831
  781THF     H514245   2.473   3.223   4.625 -0.5750 -1.0588  0.2302
  781THF     H614246   2.609   3.290   4.957 -0.8802 -0.0343 -0.4171
  781THF     H714247   2.520   3.440   4.959  0.8794  0.1401  0.4870
  781THF     C814248   2.398   3.250   4.941  0.1557 -0.6088  0.0431
  781THF     C914249   2.364   3.195   4.806 -0.3413 -0.0278 -0.1137
  781THF    H1014250   2.319   3.318   4.976  1.1776  1.2597 -1.0910
  781THF    H1114251   2.409   3.183   5.026 -0.4332  1.9167  2.2864
  781THF    H1214252   2.336   3.090   4.813  0.1388 -0.0925  1.2550
  781THF    H1314253   2.284   3.252   4.760  0.6686  1.0110 -0.6492
  782THF     O114254   4.368   2.979   4.111  0.6335  0.2464  0.5459
  782THF     C214255   4.426   2.886   4.196  0.3237  0.0284 -0.1833
  782THF     C314256   4.452   2.995   3.999 -0.0833  0.5046 -0.1154
  782THF     H414257   4.394   2.787   4.164 -4.4574  0.9432  1.0034
  782THF     H514258   4.388   2.895   4.297  0.0560 -2.2468 -0.0380
  782THF     H614259   4.448   2.904   3.940  0.2564  0.8135 -0.6282
  782THF     H714260   4.427   3.084   3.941 -0.4786  1.7083  1.8220
  782THF     C814261   4.589   3.007   4.064 -0.0379  0.5054  0.2697
  782THF     C914262   4.577   2.917   4.185  0.4104 -0.3321 -0.3717
  782THF    H1014263   4.601   3.111   4.091 -0.1328  0.2662  1.2709
  782THF    H1114264   4.668   2.978   3.994  0.6093 -1.2226  1.6399
  782THF    H1214265   4.645   2.832   4.187  2.2525  0.9854 -2.4035
  782THF    H1314266   4.600   2.986   4.266  1.7346  0.5186 -1.4333
  783THF     O114267   3.317   0.209   2.799 -0.3689  0.9445 -0.6060
  783THF     C214268   3.385   0.307   2.880 -0.0682 -0.0807 -0.2171
  783THF     C314269   3.203   0.266   2.743 -0.5579  0.1458 -0.0122
  783THF     H414270   3.488   0.287   2.910 -0.9227 -2.5912  1.3406
  783THF     H514271   3.327   0.329   2.970  0.3945 -1.9284  0.5864
  783THF     H614272   3.200   0.233   2.639 -1.4806 -2.0206  0.6570
  783THF     H714273   3.111   0.232   2.789  1.2870 -3.3274  1.5448
  783THF     C814274   3.232   0.414   2.733  0.8866  0.2505  0.0232
  783THF     C914275   3.380   0.426   2.785 -0.0019  1.0873  0.6140
  783THF    H1014276   3.162   0.475   2.789  1.5510  0.1217  1.0117
  783THF    H1114277   3.231   0.445   2.628  0.4889 -3.0951 -1.0819
  783THF    H1214278   3.452   0.424   2.703  0.6092 -0.7623  1.1524
  783THF    H1314279   3.391   0.518   2.843 -1.0038  2.3574 -1.0893
  784THF     O114280   5.287   2.522   4.782 -0.7519  0.2145 -0.3011
  784THF     C214281   5.273   2.413   4.871  0.4234  0.3807 -0.0562
  784THF     C314282   5.376   2.495   4.664 -0.4681 -0.6616 -0.0398
  784THF     H414283   5.178   2.368   4.844  0.0688  1.2911 -0.3748
  784THF     H514284   5.256   2.452   4.972  0.5772  1.3353 -0.3877
  784THF     H614285   5.316   2.448   4.586 -1.3423  0.3715 -0.0141
  784THF     H714286   5.418   2.589   4.627 -2.4171  0.4893  0.5625
  784THF     C814287   5.476   2.411   4.737 -0.2257 -0.3982 -0.5321
  784THF     C914288   5.398   2.327   4.843  0.0150 -0.0498  0.1707
  784THF    H1014289   5.543   2.478   4.790  0.0283 -0.4088 -0.8382
  784THF    H1114290   5.529   2.347   4.667  1.1352  0.4668 -0.3373
  784THF    H1214291   5.369   2.226   4.815 -4.1685  1.0363 -0.1906
  784THF    H1314292   5.456   2.318   4.935  2.6377 -0.0458 -1.4029
  785THF     O114293   1.006   1.817   0.785 -0.0203 -0.3109 -0.8905
  785THF     C214294   0.897   1.900   0.755 -0.1319 -0.7477 -0.0717
  785THF     C314295   0.991   1.804   0.923  0.2488  0.6412 -0.1516
  785THF     H414296   0.879   1.897   0.647 -3.8610  0.9664  0.3700
  785THF     H514297   0.935   1.997   0.788 -1.1776 -0.2732 -0.2141
  785THF     H614298   1.048   1.716   0.955  0.4630  1.4357  1.8080
  785THF     H714299   1.021   1.881   0.995  0.4933 -0.2575  0.7337
  785THF     C814300   0.845   1.765   0.939  0.0135  0.3485 -0.3548
  785THF     C914301   0.781   1.859   0.840  0.1164 -0.9465 -0.3000
  785THF    H1014302   0.801   1.793   1.035  0.8802 -0.6223  0.3530
  785THF    H1114303   0.820   1.661   0.919 -2.5122  0.9980 -0.9364
  785THF    H1214304   0.708   1.811   0.775 -0.3436  0.9201 -1.2357
  785THF    H1314305   0.731   1.948   0.881  1.9385  0.7156 -1.4839
  786THF     O114306   1.934   0.076   2.595 -0.1315 -0.6607  0.0230
  786THF     C214307   1.949   0.145   2.717 -1.1409 -0.2473  0.6623
  786THF     C314308   2.058   0.065   2.535 -0.9015 -0.4392 -0.2449
  786THF     H414309   1.853   0.129   2.767 -2.3751  0.9582 -1.2107
  786THF     H514310   1.954   0.252   2.698 -2.7348 -0.1202  0.8277
  786THF     H614311   2.066  -0.032   2.486  0.7878 -0.5864  0.2439
  786THF     H714312   2.078   0.142   2.459  1.6834 -0.1836  0.5994
  786THF     C814313   2.163   0.068   2.647  0.0328 -0.1147 -0.2510
  786THF     C914314   2.076   0.084   2.765  0.4529  0.1226  1.3216
  786THF    H1014315   2.239   0.144   2.630 -0.3286  0.2280 -0.3386
  786THF    H1114316   2.214  -0.028   2.657  2.3894  1.3210  3.9266
  786THF    H1214317   2.062  -0.017   2.804  0.5133 -0.3299  0.2143
  786THF    H1314318   2.133   0.142   2.837  0.1454  2.1508  0.0072
  787THF     O114319   1.576   2.130   4.171 -0.2396  0.0968 -0.6561
  787THF     C214320   1.545   2.163   4.309  0.2857 -0.4710  0.0807
  787THF     C314321   1.454   2.072   4.117  0.1787 -0.2157  0.1567
  787THF     H414322   1.504   2.264   4.322 -0.5513 -0.8888  0.8027
  787THF     H514323   1.642   2.166   4.358  0.8951 -0.3771 -1.1075
  787THF     H614324   1.431   2.131   4.028  0.2998 -1.5733 -0.8058
  787THF     H714325   1.476   1.971   4.081 -0.0716 -0.1579 -0.1699
  787THF     C814326   1.350   2.077   4.225  0.2832 -0.2713 -0.0900
  787THF     C914327   1.435   2.070   4.350  0.4406  0.6708  0.6111
  787THF    H1014328   1.281   1.994   4.207 -0.9102  0.8900 -1.1483
  787THF    H1114329   1.285   2.164   4.220  0.1437 -0.4108 -0.8438
  787THF    H1214330   1.382   2.095   4.441 -0.0713  0.8567  0.2677
  787THF    H1314331   1.477   1.970   4.360  1.6101  1.0794 -0.0685
  788THF     O114332   0.140   3.920   2.700 -0.1580 -0.0505 -0.1401
  788THF     C214333   0.168   3.796   2.758  0.3138  1.0581 -0.0391
  788THF     C314334   0.050   3.881   2.597  0.4220 -0.0754  0.0303
  788THF     H414335   0.235   3.804   2.843  1.2786 -0.2715 -0.6301
  788THF     H514336   0.223   3.734   2.687  1.1825  0.7131  0.9194
  788THF     H614337   0.003   3.968   2.552  0.4729  0.0236  0.1677
  788THF     H714338   0.098   3.830   2.514 -0.5423  1.0319 -1.2403
  788THF     C814339  -0.049   3.792   2.674 -0.2733  0.1567  0.2686
  788THF     C914340   0.032   3.752   2.797 -0.3988  0.1841  0.3054
  788THF    H1014341  -0.087   3.716   2.606 -0.9976 -0.8648  1.7379
  788THF    H1114342  -0.138   3.844   2.712 -0.9137 -1.5894  1.3254
  788THF    H1214343   0.010   3.809   2.887  1.0180 -1.9329  2.1064
  788THF    H1314344   0.031   3.645   2.815  3.0963 -0.3120 -1.6938
  789THF     O114345   2.119   5.291   5.074 -0.4523 -0.3276 -0.3210
  789THF     C214346   2.148   5.372   5.187 -0.5657  0.5828 -0.0761
  789THF     C314347   2.129   5.152   5.114 -0.5652  0.5485  0.1121
  789THF     H414348   2.104   5.471   5.192  1.2152  1.4167 -0.0212
  789THF     H514349   2.257   5.365   5.193 -0.6360 -1.1903 -0.4193
  789THF     H614350   2.033   5.102   5.100  0.5662 -1.0427 -2.8812
  789THF     H714351   2.191   5.101   5.040  1.6065  1.7681  1.0116
  789THF     C814352   2.183   5.153   5.258  0.1217  0.2946  0.7327
  789THF     C914353   2.125   5.292   5.313 -0.4408 -0.4977 -0.3399
  789THF    H1014354   2.292   5.152   5.255  0.1996  2.4859  0.9996
  789THF    H1114355   2.150   5.075   5.327  0.7628  1.9366  3.0006
  789THF    H1214356   2.024   5.270   5.348 -0.6295  0.1278 -0.4884
  789THF    H1314357   2.182   5.318   5.402 -2.2800 -1.2489  1.1312
  790THF     O114358   0.594   4.918   4.967  0.6079 -0.4523  0.2080
  790THF     C214359   0.716   4.882   4.907  0.2427 -0.3212 -0.1633
  790THF     C314360   0.516   4.973   4.866  0.2031  0.5704 -0.5220
  790THF     H414361   0.701   4.798   4.840 -2.8814  1.4746 -1.9219
  790THF     H514362   0.790   4.851   4.982 -0.0565  1.1915  0.8022
  790THF     H614363   0.487   4.897   4.794  1.3960  0.0801 -0.4956
  790THF     H714364   0.428   5.022   4.909  0.2973  0.4909 -0.2385
  790THF     C814365   0.610   5.068   4.794  0.3072  0.7452 -0.2529
  790THF     C914366   0.752   5.015   4.843  0.5286 -0.3467 -0.3494
  790THF    H1014367   0.588   5.166   4.836  0.7168  0.2173  1.2349
  790THF    H1114368   0.599   5.070   4.685 -1.3075  2.6570 -0.1164
  790THF    H1214369   0.811   5.002   4.752  2.1793  0.1100  0.6129
  790THF    H1314370   0.799   5.091   4.906  0.3967  1.4208 -2.2625
  791THF     O114371   0.427   1.889   5.214 -0.0617 -0.0647 -0.0617
  791THF     C214372   0.373   2.017   5.190  0.3224 -0.1895  0.7365
  791THF     C314373   0.351   1.794   5.148  0.3361  0.5123 -0.2511
  791THF     H414374   0.442   2.098   5.214 -0.6886  0.4994  1.3909
  791THF     H514375   0.279   2.042   5.240 -0.2048  2.2467 -1.2502
  791THF     H614376   0.401   1.709   5.101 -2.0937 -0.3657 -1.4190
  791THF     H714377   0.275   1.747   5.210  0.6769 -0.0635 -0.2567
  791THF     C814378   0.288   1.864   5.030  0.4551  0.2281  0.7202
  791THF     C914379   0.335   2.013   5.042  0.0471  0.8708  0.3521
  791THF    H1014380   0.180   1.856   5.028  0.5787 -2.2301  0.9751
  791THF    H1114381   0.316   1.821   4.933 -2.7222 -0.0445 -0.1915
  791THF    H1214382   0.422   2.031   4.980  0.5521 -0.4797  0.6315
  791THF    H1314383   0.258   2.084   5.011  0.0421  1.3556  1.4077
  792THF     O114384   2.223   4.597   0.190  0.0024 -0.0167  0.0058
  792THF     C214385   2.211   4.529   0.065 -0.2728 -0.2013  0.2144
  792THF     C314386   2.196   4.731   0.167 -0.4646 -0.0150  0.3500
  792THF     H414387   2.107   4.529   0.034 -0.1788 -0.5798 -0.1056
  792THF     H514388   2.257   4.431   0.060  1.2660  0.4418  0.9595
  792THF     H614389   2.088   4.745   0.162 -0.5441 -0.3550  1.0256
  792THF     H714390   2.231   4.791   0.251  0.2535  1.1948 -0.7782
  792THF     C814391   2.277   4.755   0.043  0.4149 -0.7502 -0.5507
  792THF     C914392   2.281   4.620  -0.032 -0.0897  0.8227 -0.2911
  792THF    H1014393   2.380   4.778   0.070 -0.1961 -1.9402  3.5159
  792THF    H1114394   2.250   4.844  -0.014  0.2945 -0.7445 -0.4841
  792THF    H1214395   2.227   4.611  -0.126  0.7129  1.2728 -0.8083
  792THF    H1314396   2.383   4.584  -0.042 -0.0222  1.1151 -0.6973
  793THF     O114397   1.570   3.993   3.680 -0.1206  0.1869  0.0638
  793THF     C214398   1.686   3.963   3.766  0.9903  0.3876 -0.6258
  793THF     C314399   1.461   4.033   3.762  0.4469  0.0744  0.0706
  793THF     H414400   1.759   4.043   3.771  1.1118  0.3083 -1.0856
  793THF     H514401   1.740   3.879   3.721  1.7990 -0.0421  1.0878
  793THF     H614402   1.489   4.137   3.779  0.6256  0.3732 -1.7995
  793THF     H714403   1.364   4.015   3.715  0.2162  3.9846 -1.3191
  793THF     C814404   1.485   3.945   3.884  0.0004  0.5038 -0.0152
  793THF     C914405   1.628   3.929   3.902 -0.0202  0.3080 -0.0121
  793THF    H1014406   1.442   3.846   3.867 -1.1035  0.6576  1.5893
  793THF    H1114407   1.436   3.969   3.978 -0.0262 -0.7869  0.3173
  793THF    H1214408   1.673   3.992   3.979 -0.6128  0.0536  0.5484
  793THF    H1314409   1.645   3.826   3.933  1.1662  0.8910  1.3791
  794THF     O114410   3.627   4.159   0.988 -0.4272 -0.2329  0.2390
  794THF     C214411   3.729   4.107   1.071  0.2707  0.0209 -0.1483
  794THF     C314412   3.547   4.050   0.936 -0.4501 -0.1936  0.0734
  794THF     H414413   3.723   4.149   1.172  4.5331  2.9015 -0.8398
  794THF     H514414   3.830   4.113   1.031  0.2255 -0.8718 -0.4247
  794THF     H614415   3.443   4.080   0.925 -0.5265 -0.9368 -1.4931
  794THF     H714416   3.590   4.024   0.839 -0.7624 -0.3592 -0.0221
  794THF     C814417   3.566   3.940   1.036  0.2624  0.5649  0.1137
  794THF     C914418   3.710   3.957   1.098  0.3314  0.0605  0.3384
  794THF    H1014419   3.554   3.843   0.989  1.4755  1.0544 -1.2872
  794THF    H1114420   3.487   3.952   1.110 -1.6156  1.6343 -1.9523
  794THF    H1214421   3.710   3.925   1.202 -0.8143 -2.5710 -0.3947
  794THF    H1314422   3.784   3.901   1.041 -1.6500 -0.8741 -1.4698
  795THF     O114423   1.701   3.546   1.954 -0.1383  0.6655 -0.2775
  795THF     C214424   1.587   3.591   1.892  0.0057  0.7344  0.1473
  795THF     C314425   1.804   3.647   1.945 -0.7405  0.2879  0.0549
  795THF     H414426   1.499   3.550   1.942  0.4467  1.8255  1.9032
  795THF     H514427   1.597   3.560   1.788  0.6467  1.9691 -0.1818
  795THF     H614428   1.860   3.649   2.039 -1.7737  2.8253  0.7117
  795THF     H714429   1.863   3.629   1.855 -2.3681  1.5254 -1.3234
  795THF     C814430   1.733   3.774   1.921 -0.1839  0.0713  0.2258
  795THF     C914431   1.584   3.743   1.923  0.5027  0.1437 -0.0195
  795THF    H1014432   1.778   3.811   1.829 -0.8389  0.0479 -0.1101
  795THF    H1114433   1.762   3.846   1.998  1.8796 -0.1123 -0.3389
  795THF    H1214434   1.539   3.769   2.019  0.3443 -0.9736  0.2227
  795THF    H1314435   1.531   3.805   1.852  0.9108  1.2968  0.6472
  796THF     O114436   2.758   4.338   5.293  0.0986 -0.2181  0.4999
  796THF     C214437   2.747   4.389   5.423  0.2590 -0.0762 -0.1927
  796THF     C314438   2.783   4.198   5.310  0.4975 -0.6604  0.4528
  796THF     H414439   2.647   4.363   5.456  0.3614  0.3317  0.4604
  796THF     H514440   2.756   4.497   5.426 -1.4629  0.0935 -0.5558
  796THF     H614441   2.691   4.153   5.347 -1.0546  0.6662 -1.5158
  796THF     H714442   2.810   4.141   5.221 -1.1615  0.9771 -1.2009
  796THF     C814443   2.887   4.191   5.417  0.0374  0.0664 -0.9177
  796THF     C914444   2.862   4.315   5.497 -0.0529 -0.1817 -0.3789
  796THF    H1014445   2.985   4.202   5.369  1.4989  1.7105  2.1264
  796THF    H1114446   2.900   4.104   5.482  2.1475  2.1756  1.7366
  796THF    H1214447   2.834   4.295   5.601 -0.3898  0.2968 -0.3787
  796THF    H1314448   2.950   4.379   5.493 -0.9338  1.0287 -0.7839
  797THF     O114449   1.575   1.285   3.635 -0.0209 -0.5546 -0.3917
  797THF     C214450   1.470   1.216   3.712  0.5258 -0.1505 -1.2292
  797THF     C314451   1.511   1.377   3.543  0.7064 -0.1292 -0.0579
  797THF     H414452   1.420   1.280   3.784  0.3123 -0.8503 -0.7496
  797THF     H514453   1.502   1.124   3.761 -1.2461  0.0623  0.4783
  797THF     H614454   1.492   1.468   3.600  3.5044 -1.1240  2.8038
  797THF     H714455   1.580   1.398   3.461  0.3575  1.0575 -0.0659
  797THF     C814456   1.379   1.309   3.507 -0.5692  0.4263 -0.6555
  797THF     C914457   1.374   1.189   3.605  0.4016  0.7439  0.4641
  797THF    H1014458   1.383   1.283   3.402  3.0710  1.1078 -0.8001
  797THF    H1114459   1.297   1.373   3.539 -2.4871 -1.5611 -1.3475
  797THF    H1214460   1.272   1.181   3.642  0.5961  1.7575  1.2397
  797THF    H1314461   1.410   1.098   3.557 -0.3509 -1.0535  3.0975
  798THF     O114462   1.313   5.170   1.079 -0.0213 -0.5164  0.3396
  798THF     C214463   1.303   5.031   1.075 -0.3811  0.6608 -0.2278
  798THF     C314464   1.454   5.198   1.059  0.5785 -0.0901 -0.5720
  798THF     H414465   1.223   5.022   1.001 -1.3222  0.7031  0.7646
  798THF     H514466   1.269   4.993   1.171  0.4662 -1.3549 -0.6653
  798THF     H614467   1.485   5.298   1.028  0.1759  0.7210  1.4347
  798THF     H714468   1.501   5.200   1.158 -0.3936  0.9885 -0.1123
  798THF     C814469   1.504   5.094   0.966  0.0584  0.3763 -0.5647
  798THF     C914470   1.434   4.970   1.032 -0.8112 -0.8725  0.0300
  798THF    H1014471   1.613   5.097   0.958  0.1593 -1.5282 -0.3553
  798THF    H1114472   1.470   5.119   0.865  0.8613  1.3692 -0.5952
  798THF    H1214473   1.409   4.893   0.959 -4.4216 -0.4137  0.5616
  798THF    H1314474   1.482   4.939   1.124 -1.0687  1.9270  1.2320
  799THF     O114475   0.965   2.550   4.493 -0.0313 -0.0486  0.1000
  799THF     C214476   1.076   2.530   4.579  0.0610 -0.5346 -0.0203
  799THF     C314477   0.850   2.552   4.571  0.7777  0.0056 -0.1696
  799THF     H414478   1.166   2.557   4.523 -0.7392 -0.4678 -1.3082
  799THF     H514479   1.085   2.429   4.618 -0.2639 -0.3259  0.6056
  799THF     H614480   0.774   2.606   4.515 -0.2224 -0.6139  0.5493
  799THF     H714481   0.808   2.454   4.594 -0.0733  0.3697 -0.1292
  799THF     C814482   0.899   2.620   4.702  0.3447  0.4389 -0.1214
  799THF     C914483   1.052   2.620   4.696  0.0753  0.5875  0.5908
  799THF    H1014484   0.860   2.574   4.793  1.3374  0.3362  0.2640
  799THF    H1114485   0.859   2.721   4.702 -0.8618 -0.0146 -0.7922
  799THF    H1214486   1.085   2.718   4.662 -0.4941 -0.1787 -2.3753
  799THF    H1314487   1.098   2.587   4.790 -0.0262  0.3624  0.5609
  800THF     O114488   5.220   3.600   0.819 -0.4257  0.3398 -0.4165
  800THF     C214489   5.093   3.583   0.876 -0.1789 -0.3868 -0.2415
  800THF     C314490   5.226   3.544   0.689  0.2764  0.4632  0.1970
  800THF     H414491   5.034   3.664   0.834 -1.1461 -1.0035 -0.1054
  800THF     H514492   5.085   3.595   0.984  0.7841  0.4344 -0.2464
  800THF     H614493   5.220   3.630   0.622  0.5820  0.7356  0.5131
  800THF     H714494   5.319   3.489   0.686 -0.4219 -0.7825  0.7995
  800THF     C814495   5.114   3.431   0.687 -0.2035 -0.1888 -0.6406
  800THF     C914496   5.047   3.450   0.826  0.3665 -0.1012 -0.1485
  800THF    H1014497   5.162   3.334   0.673 -0.5131 -0.4186 -0.1423
  800THF    H1114498   5.038   3.449   0.611  0.1851 -0.7302 -1.1676
  800THF    H1214499   4.939   3.451   0.809  0.3163 -0.3288  0.1597
  800THF    H1314500   5.076   3.371   0.895 -0.4560  1.4723  2.1116
  801THF     O114501   3.253   3.495   2.843 -0.0520  0.3083 -0.5466
  801THF     C214502   3.173   3.471   2.725 -0.1972 -0.1696 -0.0614
  801THF     C314503   3.361   3.396   2.821 -0.0734  0.2060  0.2410
  801THF     H414504   3.221   3.518   2.639  0.8430 -0.1925  0.4913
  801THF     H514505   3.072   3.508   2.740  0.7979  2.7384  0.0223
  801THF     H614506   3.405   3.420   2.724 -2.0095  0.6331 -0.5840
  801THF     H714507   3.428   3.385   2.906 -1.5385 -0.9959  1.3002
  801THF     C814508   3.290   3.268   2.798 -0.0797  0.1884  1.1164
  801THF     C914509   3.175   3.317   2.714 -1.2085 -0.2172 -0.5465
  801THF    H1014510   3.251   3.202   2.876 -1.8092 -0.8048 -0.4860
  801THF    H1114511   3.356   3.208   2.735 -1.7373  2.0715 -2.7442
  801THF    H1214512   3.182   3.284   2.611 -0.7697  0.2448 -0.6639
  801THF    H1314513   3.081   3.280   2.756 -1.2007  1.2709  0.9307
  802THF     O114514   4.871   2.977   5.173  0.2251 -0.3483 -0.4941
  802THF     C214515   4.924   2.839   5.175 -0.0236  0.4493 -0.7476
  802THF     C314516   4.984   3.050   5.132  0.4414  0.2167 -0.1820
  802THF     H414517   4.936   2.802   5.073 -0.9640 -0.3532 -0.5857
  802THF     H514518   4.855   2.772   5.226 -0.7560  0.0867 -2.1470
  802THF     H614519   4.994   3.050   5.023  0.9283  0.9292 -0.1507
  802THF     H714520   4.980   3.154   5.164 -1.5199  0.4560 -1.0280
  802THF     C814521   5.116   2.992   5.190  0.0519 -0.1728  0.1100
  802THF     C914522   5.064   2.856   5.238 -0.3555 -0.3687 -0.4011
  802THF    H1014523   5.157   3.046   5.276 -0.8540 -1.1025  1.1662
  802THF    H1114524   5.194   2.979   5.115 -0.5069  4.1570 -1.5420
  802THF    H1214525   5.113   2.770   5.193  0.3464  0.2879 -0.9207
  802THF    H1314526   5.073   2.852   5.347  1.2344 -1.5860 -0.5442
  803THF     O114527   1.240   0.009   1.998 -0.7099 -0.1553  0.4460
  803THF     C214528   1.264   0.143   2.035  0.0374 -0.4956 -0.1892
  803THF     C314529   1.331  -0.081   2.064  0.9644 -0.2662 -1.1635
  803THF     H414530   1.182   0.179   2.097 -1.1053 -1.3858 -1.1427
  803THF     H514531   1.275   0.200   1.943  1.2017  0.3060  0.4173
  803THF     H614532   1.279  -0.113   2.154 -0.7208  1.9329 -1.2655
  803THF     H714533   1.343  -0.175   2.010  0.5620 -1.0395  0.0612
  803THF     C814534   1.454   0.001   2.083 -0.9618  0.1692  0.0653
  803THF     C914535   1.398   0.143   2.105 -0.3327  0.5015  0.4511
  803THF    H1014536   1.528  -0.015   2.005 -1.0399  3.5694 -0.8648
  803THF    H1114537   1.506  -0.023   2.176 -1.5868  0.0137  0.3812
  803THF    H1214538   1.395   0.164   2.212 -2.6854 -0.7560  0.7128
  803THF    H1314539   1.457   0.227   2.069 -1.4735  0.6130 -1.3037
  804THF     O114540   2.490   4.480   2.848  0.1752 -0.3745 -0.1143
  804THF     C214541   2.443   4.580   2.756 -0.3961 -0.1460  0.0869
  804THF     C314542   2.545   4.361   2.788  0.0727 -0.2178  0.2868
  804THF     H414543   2.454   4.678   2.801  1.6163  0.3258 -1.2717
  804THF     H514544   2.347   4.563   2.708 -0.8062  0.6930  0.5940
  804THF     H614545   2.631   4.322   2.843 -0.6231  1.2456  2.5299
  804THF     H714546   2.473   4.280   2.778 -0.7074  0.6675 -1.7902
  804THF     C814547   2.583   4.410   2.643  0.1984 -0.0202 -0.0882
  804THF     C914548   2.561   4.562   2.657 -0.4143  0.7369 -0.4140
  804THF    H1014549   2.517   4.379   2.562  0.0329  2.0974 -0.8351
  804THF    H1114550   2.686   4.393   2.614  0.3895  1.5793 -0.4625
  804THF    H1214551   2.644   4.608   2.711 -0.9350 -0.4457  1.4814
  804THF    H1314552   2.561   4.614   2.561  0.2589 -1.2248 -1.5466
  805THF     O114553   2.240   5.107   0.267 -0.2204  0.1363  0.1855
  805THF     C214554   2.200   5.229   0.209 -0.6583  0.1911  0.1790
  805THF     C314555   2.368   5.078   0.217  0.5643  0.3629 -0.0260
  805THF     H414556   2.127   5.276   0.274 -0.4692 -0.4105  0.8423
  805THF     H514557   2.157   5.201   0.113 -1.9044  2.5220 -0.0030
  805THF     H614558   2.439   5.023   0.278  0.5291 -1.4213 -1.4819
  805THF     H714559   2.343   5.014   0.132 -1.7933 -1.2420  1.7361
  805THF     C814560   2.434   5.216   0.193 -0.2952  0.4332  0.3972
  805THF     C914561   2.328   5.318   0.191  0.0265 -0.0255  0.1009
  805THF    H1014562   2.488   5.215   0.098 -0.9583 -3.0390 -0.0645
  805THF    H1114563   2.501   5.234   0.277  0.0214 -2.3522  0.8320
  805THF    H1214564   2.352   5.392   0.267  1.3720 -0.0619 -0.2763
  805THF    H1314565   2.331   5.370   0.096 -0.2293 -0.0890  0.0564
  806THF     O114566   1.177   1.528   2.229  0.1665 -0.4917 -0.1200
  806THF     C214567   1.195   1.649   2.160  0.2380  0.1593  0.2037
  806THF     C314568   1.264   1.521   2.341 -0.6227 -0.0647  0.3853
  806THF     H414569   1.103   1.678   2.108 -1.2364 -1.1395  1.9331
  806THF     H514570   1.273   1.634   2.086 -0.0783  1.0391 -0.3130
  806THF     H614571   1.224   1.454   2.417  0.3101 -1.4368 -0.2868
  806THF     H714572   1.361   1.489   2.304  0.2733  1.4392  1.3204
  806THF     C814573   1.281   1.665   2.387  0.2680 -0.2191 -0.0099
  806THF     C914574   1.235   1.749   2.271  0.3927  0.1634 -0.5973
  806THF    H1014575   1.382   1.704   2.399  0.3659 -0.4564 -0.0625
  806THF    H1114576   1.225   1.687   2.478 -1.9740  0.6863 -1.5415
  806THF    H1214577   1.154   1.808   2.314 -0.2846 -1.3846  0.3251
  806THF    H1314578   1.306   1.821   2.230  1.7804 -0.4000  0.7390
  807THF     O114579   0.591   2.532   2.410  0.1544 -0.2712 -0.1507
  807THF     C214580   0.684   2.434   2.450 -0.0621 -0.3290 -0.8714
  807THF     C314581   0.463   2.480   2.436  0.1057  0.1680  0.0307
  807THF     H414582   0.787   2.470   2.446  0.2443 -1.2405 -1.4291
  807THF     H514583   0.668   2.354   2.377 -2.5182 -0.3092 -0.4496
  807THF     H614584   0.400   2.566   2.460  1.5617  1.2646  0.1108
  807THF     H714585   0.414   2.428   2.355 -2.9067 -0.2911  1.9905
  807THF     C814586   0.493   2.399   2.564 -0.0213  0.2180 -0.5932
  807THF     C914587   0.641   2.363   2.575 -0.2856 -0.4589  0.0958
  807THF    H1014588   0.428   2.312   2.563  1.8020 -1.1954 -0.8338
  807THF    H1114589   0.471   2.469   2.646  1.3218  0.4248 -0.3801
  807THF    H1214590   0.702   2.389   2.662 -0.0338 -0.2653 -0.1373
  807THF    H1314591   0.669   2.260   2.555 -2.0150 -1.1408  0.9917
  808THF     O114592   1.904   5.017   0.738 -0.0800 -0.1068 -0.3183
  808THF     C214593   1.847   4.889   0.737 -0.2722 -0.7710 -0.2698
  808THF     C314594   2.028   5.013   0.809  0.1677  0.1425 -0.0796
  808THF     H414595   1.880   4.852   0.640  0.6636  1.9053 -1.0807
  808THF     H514596   1.738   4.895   0.730 -0.1842 -0.6213 -2.1462
  808THF     H614597   2.109   4.969   0.751 -0.4658 -0.3503 -0.6142
  808THF     H714598   2.046   5.117   0.834 -0.9495  0.0406  1.2860
  808THF     C814599   1.986   4.924   0.921  0.3013 -0.3711 -0.7071
  808THF     C914600   1.887   4.821   0.867 -0.3603  0.6451 -0.2752
  808THF    H1014601   1.910   4.976   0.980 -0.4837 -2.4932  0.2976
  808THF    H1114602   2.053   4.881   0.996 -0.1387  0.1344 -0.0129
  808THF    H1214603   1.944   4.729   0.854  1.8557  1.6990  1.3174
  808THF    H1314604   1.804   4.795   0.932 -0.1463 -0.7890 -0.5297
  809THF     O114605   3.849   4.598   1.401 -0.5969  0.1912 -0.0068
  809THF     C214606   3.924   4.505   1.326  0.3167  0.5919  0.0645
  809THF     C314607   3.776   4.531   1.498 -0.1203  0.2487 -0.0625
  809THF     H414608   4.010   4.464   1.379  1.6258  2.0481 -0.8755
  809THF     H514609   3.960   4.542   1.230  1.1608  1.8654  0.8419
  809THF     H614610   3.836   4.538   1.589 -0.1570  2.1793 -0.1282
  809THF     H714611   3.684   4.589   1.504 -0.4896 -0.1004 -1.7561
  809THF     C814612   3.762   4.390   1.441 -0.2411  0.2595  0.0649
  809THF     C914613   3.816   4.396   1.308 -0.1394  0.1793 -0.4705
  809THF    H1014614   3.662   4.348   1.441  1.2088 -3.6085 -1.3193
  809THF    H1114615   3.815   4.319   1.504 -0.6096  0.8301  1.0375
  809THF    H1214616   3.858   4.301   1.275  0.3680 -0.6576  2.3256
  809THF    H1314617   3.757   4.440   1.228 -0.2291 -1.6501 -1.4673
  810THF     O114618   3.184   2.044   0.314  0.4247  0.6315  0.3051
  810THF     C214619   3.077   1.954   0.276  0.2072 -0.2581 -0.9059
  810THF     C314620   3.238   2.012   0.441  0.6232 -0.5959  0.3264
  810THF     H414621   3.123   1.871   0.224  1.0001  0.5980 -1.6150
  810THF     H514622   2.994   1.985   0.212  0.8416  0.0600 -1.5908
  810THF     H614623   3.346   1.998   0.436  0.8023  0.9564 -1.0371
  810THF     H714624   3.226   2.095   0.510 -1.0759  0.9022 -1.6412
  810THF     C814625   3.157   1.892   0.487  0.1720 -0.3804 -0.6343
  810THF     C914626   3.031   1.910   0.413 -0.2213 -0.4301  0.3424
  810THF    H1014627   3.130   1.898   0.592 -1.5458  1.8238 -1.1340
  810THF    H1114628   3.206   1.802   0.449  0.7855 -0.5798  0.5740
  810THF    H1214629   2.968   1.824   0.393 -0.8953 -0.1251  1.0733
  810THF    H1314630   2.965   1.982   0.462  0.7917  0.0853  0.9869
  811THF     O114631   1.959   0.412   5.183 -0.2360  1.4651 -0.1628
  811THF     C214632   1.970   0.554   5.184  0.1825  0.7437  0.0880
  811THF     C314633   2.021   0.349   5.294 -0.5350 -0.1537 -0.9219
  811THF     H414634   1.886   0.598   5.130  2.0291  2.7127 -1.3627
  811THF     H514635   2.067   0.590   5.150  0.6230  0.3190  0.8563
  811THF     H614636   1.974   0.251   5.296 -0.8007 -0.0313  0.8853
  811THF     H714637   2.129   0.338   5.284 -0.2689 -0.0476  1.3663
  811THF     C814638   1.972   0.448   5.407  0.7172 -0.1452  0.0185
  811THF     C914639   1.970   0.584   5.331  0.7459  0.1574 -0.5896
  811THF    H1014640   2.024   0.447   5.503 -0.7029 -0.7175  0.8167
  811THF    H1114641   1.871   0.418   5.437  0.6352 -0.9471 -1.0146
  811THF    H1214642   1.894   0.656   5.365 -1.1419 -1.5690 -0.9743
  811THF    H1314643   2.060   0.640   5.355 -0.5160  1.5640  1.2513
  812THF     O114644   2.424   1.982   5.060 -0.1673  0.5809 -0.0873
  812THF     C214645   2.407   2.085   4.966  0.1282  0.3897  0.1815
  812THF     C314646   2.431   1.859   4.991  0.2667 -0.8565  0.1666
  812THF     H414647   2.503   2.118   4.929 -1.0972  1.5518 -2.1838
  812THF     H514648   2.358   2.171   5.012 -0.8056  0.3821 -0.7520
  812THF     H614649   2.528   1.857   4.942  0.2470 -0.0567  0.0922
  812THF     H714650   2.442   1.769   5.053 -1.8276 -1.0300  0.3536
  812THF     C814651   2.320   1.871   4.887 -0.2665 -0.4758  0.0147
  812THF     C914652   2.307   2.020   4.865  0.1331 -0.3509 -0.3138
  812THF    H1014653   2.234   1.827   4.937 -0.5853  1.5698  1.4125
  812THF    H1114654   2.351   1.819   4.797  1.0374  0.9534 -0.4144
  812THF    H1214655   2.333   2.041   4.761 -1.1372 -0.6279 -0.7067
  812THF    H1314656   2.211   2.061   4.897 -0.1654 -2.3327  1.5339
  813THF     O114657   4.264   2.737   0.368 -0.2591 -0.4254  0.2369
  813THF     C214658   4.177   2.775   0.468 -0.4760 -0.2964 -0.4230
  813THF     C314659   4.373   2.825   0.362  0.0036 -0.1935 -0.1311
  813THF     H414660   4.213   2.755   0.569 -0.7680 -1.1924 -0.4846
  813THF     H514661   4.076   2.733   0.457  0.1437 -1.9279 -0.1921
  813THF     H614662   4.441   2.805   0.445  1.3551  0.7877 -0.9404
  813THF     H714663   4.428   2.813   0.268  1.0683 -0.2819  0.4913
  813THF     C814664   4.304   2.963   0.385 -0.1551 -0.0462 -0.4808
  813THF     C914665   4.170   2.923   0.450 -0.3999  0.7269 -0.8984
  813THF    H1014666   4.288   3.025   0.296 -0.4370 -0.7324 -0.9147
  813THF    H1114667   4.361   3.016   0.461 -0.4543  2.9013 -2.1326
  813THF    H1214668   4.143   2.972   0.544 -0.1124 -0.6496 -0.0673
  813THF    H1314669   4.086   2.941   0.383 -0.8699 -0.5637 -0.6811
  814THF     O114670   1.738   3.476   1.313  0.0663  0.7676  0.2638
  814THF     C214671   1.812   3.486   1.435 -0.1694 -0.0644 -0.6259
  814THF     C314672   1.686   3.606   1.281  0.5607  0.2004 -0.0332
  814THF     H414673   1.877   3.399   1.446 -0.8539 -1.0277 -3.5235
  814THF     H514674   1.743   3.484   1.520  1.0323 -2.9445  0.4006
  814THF     H614675   1.665   3.629   1.177  0.4177 -0.8721 -0.2494
  814THF     H714676   1.597   3.637   1.337  2.1283  0.0165  2.7194
  814THF     C814677   1.810   3.685   1.316  0.5724 -0.1934  0.2686
  814THF     C914678   1.878   3.621   1.429 -0.0026 -0.4264 -0.8400
  814THF    H1014679   1.794   3.791   1.337 -1.4458 -0.4912  0.4018
  814THF    H1114680   1.863   3.681   1.221 -0.9042 -2.4471 -0.5322
  814THF    H1214681   1.986   3.603   1.423  0.0520 -0.8254  0.7997
  814THF    H1314682   1.861   3.679   1.520  0.1934 -1.6076 -0.0201
  815THF     O114683   2.054   1.933   3.821  0.1040 -0.4683 -0.3626
  815THF     C214684   1.929   1.917   3.761  0.4592  0.0278  0.3017
  815THF     C314685   2.079   1.848   3.936 -0.3073  0.3626  0.0632
  815THF     H414686   1.932   1.850   3.675 -1.2075  0.3693 -0.0689
  815THF     H514687   1.903   2.012   3.714 -1.4434 -0.1255  0.9424
  815THF     H614688   2.137   1.760   3.907  0.1908  0.9139 -0.6383
  815THF     H714689   2.143   1.897   4.011  0.6936 -1.5032  0.4932
  815THF     C814690   1.938   1.806   3.973 -0.6645 -0.0880 -0.1041
  815THF     C914691   1.845   1.883   3.879 -0.0363 -0.2962  1.0297
  815THF    H1014692   1.921   1.812   4.080 -0.9392  0.0777 -0.1574
  815THF    H1114693   1.926   1.700   3.948 -2.9696  0.2485 -0.5985
  815THF    H1214694   1.755   1.829   3.852 -0.1433  1.0452 -1.6090
  815THF    H1314695   1.803   1.968   3.933 -1.5508 -0.6745  0.4851
  816THF     O114696   3.397   2.010   2.886  0.5554 -0.7830  0.0057
  816THF     C214697   3.498   2.083   2.815 -0.4334 -0.4004  0.4833
  816THF     C314698   3.456   1.893   2.944  0.5455 -0.3010 -0.3797
  816THF     H414699   3.470   2.188   2.802 -0.1529 -0.5734 -1.8183
  816THF     H514700   3.524   2.039   2.719 -1.5500 -1.6156  0.7077
  816THF     H614701   3.402   1.851   3.029  2.2656  0.8669  1.3718
  816THF     H714702   3.475   1.814   2.871 -1.0245 -2.1899  1.1392
  816THF     C814703   3.606   1.939   2.973  0.1810  0.3182 -0.4866
  816THF     C914704   3.625   2.070   2.902  0.8903 -0.4969  0.5269
  816THF    H1014705   3.673   1.857   2.948  0.7047 -0.0787  2.0169
  816THF    H1114706   3.612   1.946   3.081  2.1722 -0.5682 -0.5099
  816THF    H1214707   3.626   2.158   2.966 -0.9680 -0.6846  0.8782
  816THF    H1314708   3.708   2.064   2.831 -0.4368 -1.3522 -1.0351
  817THF     O114709   2.087   3.811   3.445  0.6772 -0.0298 -0.5248
  817THF     C214710   2.060   3.688   3.378  0.2459  0.0337 -0.1383
  817THF     C314711   1.989   3.912   3.403 -0.1572  0.2590 -0.1423
  817THF     H414712   2.111   3.598   3.414 -0.4970 -0.0339  0.7944
  817THF     H514713   2.089   3.692   3.273  0.1513 -1.1020 -0.2250
  817THF     H614714   2.006   4.008   3.452  1.7298 -0.9197  1.6591
  817THF     H714715   2.013   3.926   3.298  1.8006 -0.4032  0.1722
  817THF     C814716   1.869   3.833   3.436 -0.5918 -0.6132  0.3614
  817THF     C914717   1.910   3.686   3.408 -0.6740 -0.3465 -0.3200
  817THF    H1014718   1.785   3.860   3.372 -0.3459 -0.2763  0.1790
  817THF    H1114719   1.833   3.851   3.537 -0.4724 -1.8708  0.6416
  817THF    H1214720   1.907   3.622   3.497 -0.9761 -0.4966 -0.4361
  817THF    H1314721   1.863   3.642   3.321 -0.1149  1.0609 -1.3685
  818THF     O114722   5.043   2.841   4.495  0.8278 -0.5650 -0.1136
  818THF     C214723   5.120   2.828   4.617 -0.0148 -0.0588  0.5941
  818THF     C314724   4.992   2.971   4.491  0.0793  1.3787 -0.8470
  818THF     H414725   5.226   2.846   4.599 -0.0732  2.3399  2.1282
  818THF     H514726   5.113   2.726   4.656  1.0886 -0.5726 -0.4915
  818THF     H614727   5.052   3.045   4.439  0.3962  2.1759  0.6110
  818THF     H714728   4.900   2.965   4.431 -0.4691 -0.3633  0.0916
  818THF     C814729   4.951   3.003   4.636 -0.3861 -0.3176  0.2078
  818THF     C914730   5.056   2.932   4.711  0.3140  0.2379 -0.0358
  818THF    H1014731   4.853   2.968   4.667 -1.2328  1.4026 -0.4118
  818THF    H1114732   4.950   3.111   4.653 -2.4866 -0.2024 -0.2928
  818THF    H1214733   5.128   2.987   4.771  0.9805 -0.3619 -0.2619
  818THF    H1314734   5.009   2.872   4.788 -1.3368 -0.1630 -1.2965
  819THF     O114735   3.759   1.602   2.821  0.6227 -0.4393  0.4891
  819THF     C214736   3.658   1.524   2.755  0.4578  0.6053  0.9945
  819THF     C314737   3.788   1.568   2.953 -0.7315  0.2369 -0.4528
  819THF     H414738   3.687   1.475   2.662 -0.0255 -0.4959  1.4077
  819THF     H514739   3.576   1.591   2.733 -1.0460 -1.3142  0.4558
  819THF     H614740   3.894   1.576   2.975 -0.9486  1.4355  0.2689
  819THF     H714741   3.743   1.639   3.023 -0.4485 -0.7183  0.7307
  819THF     C814742   3.733   1.424   2.964  0.1684  0.2430  0.5109
  819THF     C914743   3.620   1.419   2.860  1.0052 -0.1729 -0.3530
  819THF    H1014744   3.688   1.408   3.062  1.4799  4.3706  1.9948
  819THF    H1114745   3.808   1.346   2.956  0.1396  0.1195  1.3526
  819THF    H1214746   3.608   1.315   2.830  1.4787  0.0394 -1.3345
  819THF    H1314747   3.526   1.443   2.910  1.1435 -0.8289  0.2265
  820THF     O114748   1.431   0.849   2.244 -0.0250 -0.7264 -0.2215
  820THF     C214749   1.349   0.862   2.356  0.4505  0.8446 -0.9082
  820THF     C314750   1.565   0.851   2.287  0.1047 -0.9118  0.1634
  820THF     H414751   1.247   0.843   2.321  0.2621 -0.5454  0.3015
  820THF     H514752   1.347   0.964   2.394 -1.9252  0.3722  0.4448
  820THF     H614753   1.635   0.815   2.213  0.8856 -0.5309  0.7027
  820THF     H714754   1.598   0.947   2.327  3.3506 -2.3390  1.2116
  820THF     C814755   1.555   0.758   2.407  0.7231 -0.5963 -0.2636
  820THF     C914756   1.414   0.768   2.456  0.4853 -0.2133 -0.2455
  820THF    H1014757   1.631   0.789   2.479 -0.2690 -0.6973  0.8563
  820THF    H1114758   1.575   0.655   2.376  0.3816 -1.3596  1.9053
  820THF    H1214759   1.380   0.665   2.441  3.0204 -0.8568 -2.5264
  820THF    H1314760   1.411   0.798   2.560  1.4213 -1.7431  0.2662
  821PF6-    P114761   0.714   4.283   3.270  0.1308  0.3973 -0.1189
  821PF6-    F214762   0.551   4.278   3.248  0.0971 -0.1471  0.0679
  821PF6-    F314763   0.874   4.296   3.289 -0.0814  0.0157  0.0397
  821PF6-    F414764   0.731   4.124   3.250  0.4903 -0.2819  0.3512
  821PF6-    F514765   0.696   4.440   3.282 -0.4382 -0.5153  0.6730
  821PF6-    F614766   0.696   4.263   3.427 -0.0359  0.6338 -0.4120
  821PF6-    F714767   0.730   4.308   3.108 -0.4236 -0.3376 -0.2431
  822PF6-    P114768   3.885   1.753   3.336  0.3053  0.1823 -0.2533
  822PF6-    F214769   3.959   1.892   3.328 -0.8571 -0.1769 -0.3305
  822PF6-    F314770   3.811   1.620   3.344  0.5015  0.7519 -0.4484
  822PF6-    F414771   3.976   1.710   3.460  0.0191 -0.1198 -0.4581
  822PF6-    F514772   3.793   1.806   3.209 -0.2863  0.9640 -0.4041
  822PF6-    F614773   3.992   1.690   3.236 -0.3389 -0.1970  0.6477
  822PF6-    F714774   3.773   1.820   3.429 -0.4017  0.1633 -0.1662
  823PF6-    P114775   1.925   5.307   4.342 -0.0237  0.1668 -0.5418
  823PF6-    F214776   1.858   5.158   4.321  0.7681 -0.5363  0.3093
  823PF6-    F314777   1.988   5.451   4.357 -0.3481  0.2771  0.0323
  823PF6-    F414778   1.959   5.313   4.185 -0.1296  0.0061  0.5565
  823PF6-    F514779   1.894   5.297   4.501  0.0408  0.0344  0.4026
  823PF6-    F614780   2.069   5.236   4.366 -0.3687 -0.2296 -0.6362
  823PF6-    F714781   1.783   5.373   4.319  0.6242 -0.1201  0.4096
  824PF6-    P114782   5.387   2.892   3.719 -0.2196  0.3670 -0.1371
  824PF6-    F214783   5.391   2.732   3.742  0.3561 -0.2600 -0.5448
  824PF6-    F314784   5.379   3.045   3.694  0.3939  0.0038 -0.6655
  824PF6-    F414785   5.285   2.909   3.841 -0.0536 -0.3225  0.1924
  824PF6-    F514786   5.492   2.877   3.600 -0.4429  0.4000 -0.4783
  824PF6-    F614787   5.269   2.860   3.614  0.2655  0.5461  0.7245
  824PF6-    F714788   5.507   2.911   3.825 -0.0316 -0.7366 -0.2821
  825PF6-    P114789   2.401   2.354   4.582  0.2576  0.1618  0.2932
  825PF6-    F214790   2.253   2.297   4.579 -0.2419 -0.2538  0.1551
  825PF6-    F314791   2.553   2.402   4.591  0.4884 -0.3079 -0.0769
  825PF6-    F414792   2.350   2.501   4.610 -0.2721  0.6341 -0.2358
  825PF6-    F514793   2.456   2.208   4.543  0.1669  0.3762  0.0794
  825PF6-    F614794   2.392   2.388   4.423  0.3787  0.3748 -0.2111
  825PF6-    F714795   2.404   2.319   4.739  0.1074  0.1703  0.0983
  826PF6-    P114796   3.564   3.717   0.630  0.1488  0.0997 -0.1191
  826PF6-    F214797   3.703   3.665   0.600  0.1168 -0.1199  0.6183
  826PF6-    F314798   3.419   3.771   0.668  0.2225  0.0898  0.0300
  826PF6-    F414799   3.594   3.848   0.552 -0.2192 -0.5621  0.3722
  826PF6-    F514800   3.537   3.582   0.708 -0.1960 -0.4234  0.0467
  826PF6-    F614801   3.621   3.781   0.763  0.4591  0.0119 -0.3616
  826PF6-    F714802   3.504   3.650   0.495 -0.2230  0.1236 -0.5079
  827PF6-    P114803   3.197   0.692   1.026  0.5139  0.0893  0.0596
  827PF6-    F214804   3.121   0.560   0.991 -0.0314  0.6601  0.0359
  827PF6-    F314805   3.274   0.833   1.064 -0.5122 -0.0890  0.2825
  827PF6-    F414806   3.099   0.709   1.145  0.1828  0.3064  0.3749
  827PF6-    F514807   3.292   0.682   0.901  0.0486  0.6087  0.7439
  827PF6-    F614808   3.091   0.770   0.937  0.2437  0.3015 -0.1291
  827PF6-    F714809   3.303   0.611   1.113  0.0637 -0.1435 -0.3241
  828PF6-    P114810   2.101   0.844   2.334 -0.1952  0.4923 -0.3195
  828PF6-    F214811   1.993   0.959   2.371  0.2852  0.3303  0.0937
  828PF6-    F314812   2.208   0.728   2.295 -0.1800 -0.0584  0.3636
  828PF6-    F414813   2.084   0.773   2.479  0.4972 -0.1178 -0.3034
  828PF6-    F514814   2.127   0.919   2.191 -0.0669  0.0159  0.3049
  828PF6-    F614815   2.218   0.924   2.399  0.0418 -0.0118  0.1139
  828PF6-    F714816   1.992   0.760   2.267  0.0285  0.6578  0.0043
  829PF6-    P114817   2.212   3.537   4.602 -0.2021  0.3413  0.0804
  829PF6-    F214818   2.244   3.585   4.457 -0.0213 -0.0881  0.1130
  829PF6-    F314819   2.182   3.493   4.751  0.0436 -0.0444 -0.3324
  829PF6-    F414820   2.330   3.429   4.598  0.1331 -0.3226 -0.4986
  829PF6-    F514821   2.095   3.648   4.605  0.0704  0.0954 -0.3689
  829PF6-    F614822   2.113   3.432   4.542  0.2869 -0.0236  0.3484
  829PF6-    F714823   2.317   3.644   4.657 -0.0953  0.2884  0.1203
  830PF6-    P114824   3.858   3.739   2.018  0.2948  0.1750 -0.0280
  830PF6-    F214825   3.901   3.589   2.044  0.1330 -0.2164 -0.1447
  830PF6-    F314826   3.810   3.889   1.989 -0.0077 -0.3594  0.0899
  830PF6-    F414827   3.733   3.688   1.930 -0.3420  0.1350  0.1363
  830PF6-    F514828   3.980   3.797   2.110  0.2415 -0.0024 -0.0751
  830PF6-    F614829   3.948   3.746   1.888  0.2960  0.1887  0.3536
  830PF6-    F714830   3.768   3.735   2.151  0.0899  0.0922 -0.3006
  831PF6-    P114831   5.137   0.740   4.341  0.0369  0.2200  0.4154
  831PF6-    F214832   5.260   0.816   4.283 -0.7190 -0.1789 -0.0819
  831PF6-    F314833   5.016   0.658   4.396 -0.3227 -0.4014  0.2047
  831PF6-    F414834   5.075   0.721   4.196 -0.1765  0.1843 -0.2759
  831PF6-    F514835   5.199   0.767   4.489  0.1726  0.2079  0.0168
  831PF6-    F614836   5.052   0.881   4.359  0.5901 -0.1025  0.2211
  831PF6-    F714837   5.221   0.605   4.329 -0.2560  0.4480  0.3785
  832PF6-    P114838   0.897   2.491   3.722  0.0120 -0.1848  0.1974
  832PF6-    F214839   0.803   2.385   3.798  0.5798  0.3241 -0.4525
  832PF6-    F314840   0.995   2.593   3.638  0.1912 -0.1680  0.0622
  832PF6-    F414841   0.849   2.426   3.585 -0.3805 -0.1381 -0.3081
  832PF6-    F514842   0.939   2.553   3.869 -0.9649  0.4749 -0.3245
  832PF6-    F614843   1.015   2.387   3.738  0.1334  0.4650 -0.4260
  832PF6-    F714844   0.779   2.603   3.725 -0.1656  0.4499  0.4388
  833PF6-    P114845   1.859   0.081   0.107  0.0445 -0.2029  0.3780
  833PF6-    F214846   2.007   0.041   0.155 -0.0680  0.3175 -0.0820
  833PF6-    F314847   1.709   0.119   0.058  0.4987 -0.4560 -0.5671
  833PF6-    F414848   1.921   0.087  -0.044 -0.1040  0.1494 -0.5965
  833PF6-    F514849   1.810   0.077   0.257 -0.4312  0.7314  0.1791
  833PF6-    F614850   1.894   0.236   0.122 -0.0386  0.1105 -0.1525
  833PF6-    F714851   1.833  -0.076   0.095  0.0977 -0.0256  0.0306
  834PF6-    P114852   3.952   5.280   0.565 -0.1298 -0.3646 -0.0179
  834PF6-    F214853   4.054   5.404   0.562 -0.2294  0.4040 -0.0066
  834PF6-    F314854   3.853   5.153   0.561  0.0278 -0.3256  0.4545
  834PF6-    F414855   3.834   5.366   0.621 -0.2849  0.0774  0.2808
  834PF6-    F514856   4.069   5.180   0.514 -0.8476 -0.6996  0.4195
  834PF6-    F614857   3.994   5.247   0.718  0.0587 -0.0148  0.3037
  834PF6-    F714858   3.917   5.320   0.412 -0.5544  0.1270 -0.3045
  835PF6-    P114859   2.035   4.671   5.027 -0.3404  0.0462 -0.1639
  835PF6-    F214860   1.941   4.636   4.898  0.3101  0.2516 -0.1549
  835PF6-    F314861   2.123   4.702   5.154  0.4865 -0.5312 -0.0488
  835PF6-    F414862   2.010   4.825   5.007  0.0499 -0.3291 -0.2757
  835PF6-    F514863   2.064   4.512   5.043  0.2856  0.0516  0.1138
  835PF6-    F614864   2.158   4.693   4.930  0.3211  0.0360 -0.3228
  835PF6-    F714865   1.909   4.661   5.129  0.0871 -0.1783  0.0912
  836PF6-    P114866   4.853   2.018   4.851 -0.2485 -0.0436 -0.3837
  836PF6-    F214867   4.878   1.870   4.902  0.1033 -0.4827  0.1670
  836PF6-    F314868   4.817   2.169   4.789 -0.5171  0.3021  0.1149
  836PF6-    F414869   4.956   1.987   4.734  0.2167 -0.0781 -0.1564
  836PF6-    F514870   4.760   2.055   4.974 -0.1228  0.4246 -0.4511
  836PF6-    F614871   4.974   2.074   4.947 -0.1938 -0.2463 -0.1412
  836PF6-    F714872   4.727   1.958   4.774 -0.3408 -0.3581  0.1485
  837PF6-    P114873   2.315   2.827   1.938  0.0824 -0.0109  0.3519
  837PF6-    F214874   2.463   2.869   1.967 -0.0394 -0.3682 -0.1251
  837PF6-    F314875   2.167   2.777   1.893  0.3688 -0.0046 -0.1510
  837PF6-    F414876   2.289   2.968   1.865  0.2652  0.0003  0.3306
  837PF6-    F514877   2.340   2.687   2.001 -0.4409 -0.0297 -0.3577
  837PF6-    F614878   2.258   2.889   2.066 -0.0787  0.0979 -0.4286
  837PF6-    F714879   2.370   2.774   1.801  0.0974  0.1173 -0.0201
  838PF6-    P114880   0.490   4.068   1.681 -0.0420  0.1130  0.2140
  838PF6-    F214881   0.547   4.024   1.536  0.6485 -0.4587 -0.1144
  838PF6-    F314882   0.430   4.113   1.819  0.0250 -0.1358 -0.9760
  838PF6-    F414883   0.489   4.218   1.630 -0.1848 -0.7979  0.6675
  838PF6-    F514884   0.509   3.922   1.734 -0.0379  0.0414 -0.0111
  838PF6-    F614885   0.639   4.104   1.729 -0.5531  0.1098 -0.3724
  838PF6-    F714886   0.341   4.028   1.638  0.2440 -0.0492 -0.0779
  839PF6-    P114887   2.667   3.961   2.671 -0.2109 -0.4615  0.0163
  839PF6-    F214888   2.595   4.068   2.576  0.2150 -0.6011  0.0990
  839PF6-    F314889   2.740   3.857   2.769  0.0102 -0.0929  0.4221
  839PF6-    F414890   2.809   4.018   2.618  0.2004 -0.4626 -0.2990
  839PF6-    F514891   2.525   3.909   2.714  0.3293 -0.0716 -0.0618
  839PF6-    F614892   2.669   3.852   2.552  0.1032  0.1828  0.2513
  839PF6-    F714893   2.669   4.067   2.795  0.0348 -0.6711  0.1560
  840PF6-    P114894   2.381   0.392   1.524  0.1821 -0.0868  0.1438
  840PF6-    F214895   2.479   0.273   1.553 -0.0173  0.0389  0.1840
  840PF6-    F314896   2.272   0.506   1.490 -0.7875  0.4094 -0.5880
  840PF6-    F414897   2.285   0.344   1.646 -0.7854  0.4696  0.2545
  840PF6-    F514898   2.475   0.438   1.406  0.0112  0.1469  0.0321
  840PF6-    F614899   2.301   0.293   1.419 -0.7281 -0.0676  0.1036
  840PF6-    F714900   2.460   0.496   1.624  0.2329  0.0806  0.2554
  841PF6-    P114901   3.436   3.180   4.398 -0.1066  0.3926  0.0754
  841PF6-    F214902   3.497   3.273   4.278 -0.2472 -0.1799 -0.3680
  841PF6-    F314903   3.386   3.085   4.517  0.9806  0.1907 -0.1005
  841PF6-    F414904   3.559   3.220   4.491 -0.7303 -0.1778 -0.2716
  841PF6-    F514905   3.320   3.133   4.302  0.2093 -0.3075  0.3281
  841PF6-    F614906   3.522   3.048   4.350 -0.1302 -1.0884  0.5814
  841PF6-    F714907   3.347   3.293   4.461  0.4215 -0.6783 -0.1210
  842PF6-    P114908   3.835   0.191   4.977 -0.2960 -0.3270 -0.2068
  842PF6-    F214909   3.940   0.110   4.881 -0.3806  0.1458 -0.4706
  842PF6-    F314910   3.736   0.269   5.076 -0.6063  0.5055 -0.0657
  842PF6-    F414911   3.747   0.240   4.851 -0.4416 -0.2419  0.2367
  842PF6-    F514912   3.920   0.145   5.105 -0.2762 -0.1951  0.0826
  842PF6-    F614913   3.920   0.325   4.970 -0.5989  0.5089  0.1165
  842PF6-    F714914   3.738   0.059   4.981 -0.4314  0.1708  0.0342
  843PF6-    P114915   2.996   1.027   2.312 -0.7292  0.2034  0.0951
  843PF6-    F214916   2.934   0.956   2.444 -0.2294  0.0791  0.0622
  843PF6-    F314917   3.049   1.094   2.176 -0.1827  0.2577  0.2862
  843PF6-    F414918   3.028   1.166   2.390  0.0181  0.4376  0.3647
  843PF6-    F514919   2.959   0.898   2.228 -0.2731  0.1550  0.1536
  843PF6-    F614920   2.852   1.083   2.283 -0.3426 -0.0846  0.2793
  843PF6-    F714921   3.143   0.970   2.342 -0.4486  0.2584 -0.5269
  844PF6-    P114922   4.012   0.828   4.392  0.6151 -0.0697  0.1167
  844PF6-    F214923   4.058   0.974   4.355 -0.5585 -0.0913  0.2179
  844PF6-    F314924   3.967   0.682   4.435  0.1197  0.4754 -0.0282
  844PF6-    F414925   3.878   0.848   4.304  0.3439 -0.0550  0.4147
  844PF6-    F514926   4.142   0.816   4.484 -0.0449 -0.4310  0.9086
  844PF6-    F614927   3.928   0.882   4.522  0.0489  0.1946  0.9151
  844PF6-    F714928   4.088   0.765   4.265 -0.1570 -0.2468 -0.7601
  845PF6-    P114929   3.742   0.006   3.526 -0.6115 -0.1368 -0.4488
  845PF6-    F214930   3.584   0.025   3.507 -0.1908  0.5323 -0.0558
  845PF6-    F314931   3.903  -0.013   3.544 -0.2028  0.2085 -0.8266
  845PF6-    F414932   3.769   0.137   3.433 -0.5134 -0.1554  0.4422
  845PF6-    F514933   3.718  -0.126   3.614 -0.1486  0.7231 -0.2967
  845PF6-    F614934   3.747  -0.092   3.401 -0.7020  0.0711 -0.2127
  845PF6-    F714935   3.738   0.101   3.654 -0.3720 -0.2234 -0.4866
  846PF6-    P114936   2.459   0.255   2.941 -0.0568  0.5764 -0.3627
  846PF6-    F214937   2.414   0.129   2.843  0.6273 -0.2073 -0.0738
  846PF6-    F314938   2.498   0.383   3.031  0.5909  0.2878 -0.2898
  846PF6-    F414939   2.319   0.326   2.901  0.3960 -0.3128  0.5136
  846PF6-    F514940   2.599   0.180   2.990  0.1030  0.3822  0.2359
  846PF6-    F614941   2.535   0.327   2.820 -0.1648 -0.2330 -0.9357
  846PF6-    F714942   2.377   0.188   3.069  0.3076 -0.1414  0.3318
  847PF6-    P114943   1.562   2.320   2.347 -0.3090  0.1990  0.2260
  847PF6-    F214944   1.531   2.331   2.188  0.0397  0.1828 -0.7016
  847PF6-    F314945   1.597   2.308   2.502 -0.1110  0.3368 -0.1189
  847PF6-    F414946   1.691   2.231   2.313 -0.0156  0.3048 -0.3897
  847PF6-    F514947   1.433   2.409   2.374 -0.4536 -0.6421 -0.6913
  847PF6-    F614948   1.476   2.182   2.348 -0.0675 -0.3718  0.4612
  847PF6-    F714949   1.653   2.455   2.344 -0.0304  0.3823  0.3798
  848PF6-    P114950   3.455   1.316   1.603  0.0206 -0.0436  0.1322
  848PF6-    F214951   3.524   1.225   1.482  0.0577  0.2463 -0.9611
  848PF6-    F314952   3.386   1.412   1.721 -0.1447  0.0381 -0.0144
  848PF6-    F414953   3.604   1.346   1.656 -0.2811 -0.2079 -0.0113
  848PF6-    F514954   3.311   1.284   1.536 -0.0540  0.5129  0.4174
  848PF6-    F614955   3.447   1.188   1.701 -0.2889  0.4769  0.0482
  848PF6-    F714956   3.464   1.448   1.509  0.3634 -0.1095  0.0625
  849PF6-    P114957   4.345   4.914   2.261 -0.2141 -0.2048 -0.2857
  849PF6-    F214958   4.269   5.055   2.308 -0.1809  0.7950  0.5294
  849PF6-    F314959   4.420   4.776   2.219  0.1362 -0.0361  0.2833
  849PF6-    F414960   4.210   4.832   2.306  0.2783 -0.2533  0.4030
  849PF6-    F514961   4.473   5.002   2.221  0.3231  0.4600 -0.2043
  849PF6-    F614962   4.404   4.911   2.411  0.4499  0.5932  0.3181
  849PF6-    F714963   4.290   4.931   2.110  0.3456 -0.4069  0.0810
  850PF6-    P114964   0.779   4.699   1.067 -0.0578  0.3189  0.2825
  850PF6-    F214965   0.672   4.819   1.072  0.4883  0.6705 -0.2117
  850PF6-    F314966   0.879   4.572   1.062 -0.0942 -0.2989  0.2534
  850PF6-    F414967   0.658   4.603   1.070  0.0152 -0.3523  0.0498
  850PF6-    F514968   0.900   4.811   1.064  0.5469  0.1476  0.4233
  850PF6-    F614969   0.785   4.698   1.229  0.1308  0.2413  0.4616
  850PF6-    F714970   0.767   4.698   0.912 -0.2436 -0.2070 -0.2404
  851PF6-    P114971   4.844   4.974   0.662  0.2720  0.3841  0.1812
  851PF6-    F214972   4.954   5.008   0.546 -0.1818 -0.4953 -0.2028
  851PF6-    F314973   4.727   4.945   0.776  0.1121  0.3463  0.8035
  851PF6-    F414974   4.877   4.817   0.650  0.1363 -0.2910  0.4647
  851PF6-    F514975   4.814   5.133   0.670  0.9117  0.5438 -0.1055
  851PF6-    F614976   4.730   4.957   0.560  0.0570 -0.1452  1.2101
  851PF6-    F714977   4.953   4.984   0.779  0.7765 -0.4506 -0.1835
  852PF6-    P114978   0.378   0.366   3.157  0.5280 -0.0306 -0.2151
  852PF6-    F214979   0.305   0.397   3.293 -0.4508  0.3203 -0.2263
  852PF6-    F314980   0.461   0.342   3.023  0.0342 -0.0065 -0.1948
  852PF6-    F414981   0.448   0.511   3.178  0.2262 -0.5137 -0.6423
  852PF6-    F514982   0.301   0.224   3.143 -0.1599 -0.0965  0.1774
  852PF6-    F614983   0.258   0.441   3.075 -0.3337 -0.3511 -0.5408
  852PF6-    F714984   0.491   0.292   3.240 -0.2425  0.5094 -0.5178
  853PF6-    P114985   3.235   2.919   0.596  0.1660  0.1937  0.2687
  853PF6-    F214986   3.182   3.034   0.497  0.3195 -0.0284  0.1424
  853PF6-    F314987   3.285   2.806   0.698 -0.1800 -0.5613  0.0446
  853PF6-    F414988   3.368   2.999   0.620  0.2769  0.1004  0.0171
  853PF6-    F514989   3.094   2.838   0.569 -0.2185  0.0886 -0.0307
  853PF6-    F614990   3.302   2.840   0.473  0.3989  0.4614  0.0673
  853PF6-    F714991   3.172   3.001   0.716  0.4471 -0.2697 -0.1086
  854PF6-    P114992   4.291   3.615   4.678 -0.1818  0.0233 -0.3334
  854PF6-    F214993   4.271   3.770   4.634 -0.2964 -0.0457  0.5217
  854PF6-    F314994   4.312   3.461   4.715  0.2159  0.0435  0.1408
  854PF6-    F414995   4.271   3.571   4.525  0.2266  0.3935 -0.0877
  854PF6-    F514996   4.304   3.648   4.831  0.1551  0.2166  0.2396
  854PF6-    F614997   4.136   3.604   4.692  0.3615  0.2439  0.1561
  854PF6-    F714998   4.452   3.636   4.651  0.3151  0.3397  0.0794
  855PF6-    P114999   3.421   4.257   2.379 -0.4516 -0.0380  0.3504
  855PF6-    F215000   3.329   4.117   2.386 -0.3465  0.0697 -0.6411
  855PF6-    F315001   3.505   4.389   2.367 -0.0444  0.2649 -0.3067
  855PF6-    F415002   3.418   4.247   2.219 -0.6916  0.2092  0.0984
  855PF6-    F515003   3.420   4.264   2.541  0.6892  0.2238  0.2357
  855PF6-    F615004   3.551   4.169   2.378 -0.1897  0.8730 -0.1054
  855PF6-    F715005   3.280   4.346   2.374 -0.5671  0.3987 -0.5586
  856PF6-    P115006   3.219   3.836   3.912 -0.0976  0.3255 -0.0967
  856PF6-    F215007   3.132   3.722   3.835 -0.0814  0.0189  0.1743
  856PF6-    F315008   3.303   3.943   3.999 -0.6943 -0.1212  0.2555
  856PF6-    F415009   3.098   3.845   4.017  0.2300  0.1856  0.2673
  856PF6-    F515010   3.341   3.820   3.810  0.8111 -0.2246  0.1191
  856PF6-    F615011   3.152   3.955   3.826  0.4852 -0.4782  0.5920
  856PF6-    F715012   3.285   3.720   3.998 -0.2533  0.0359  0.2710
  857PF6-    P115013   4.274   2.556   2.361 -0.4825  0.1138 -0.4509
  857PF6-    F215014   4.172   2.656   2.287  0.5404  0.7523  0.2171
  857PF6-    F315015   4.375   2.456   2.439 -0.1725  0.1719  0.1643
  857PF6-    F415016   4.182   2.435   2.317 -0.1351  0.2966  0.3648
  857PF6-    F515017   4.365   2.682   2.393  0.5493  0.4447  1.1798
  857PF6-    F615018   4.191   2.573   2.501  0.5076  0.7885  0.4870
  857PF6-    F715019   4.360   2.537   2.222  0.2984  0.7765  0.2627
  858PF6-    P115020   3.006   5.317   4.827  0.2542 -0.3218  0.4257
  858PF6-    F215021   2.968   5.249   4.683  0.6982 -0.3303 -0.2184
  858PF6-    F315022   3.040   5.387   4.958  0.1645  0.0898  0.3490
  858PF6-    F415023   3.019   5.461   4.753 -0.3439  0.0972 -0.4813
  858PF6-    F515024   2.998   5.177   4.906  0.1991  0.3499  0.2088
  858PF6-    F615025   3.158   5.292   4.793 -0.2768  0.1615  0.6482
  858PF6-    F715026   2.852   5.349   4.858 -0.3054  0.1961 -0.4262
  859PF6-    P115027   3.990   2.917   4.999  0.0197 -0.2946 -0.0053
  859PF6-    F215028   3.851   2.994   4.948 -0.1131  0.9128  0.3548
  859PF6-    F315029   4.121   2.837   5.053 -0.0082  0.6062  0.5151
  859PF6-    F415030   3.935   2.930   5.155 -0.0280 -0.3235 -0.5327
  859PF6-    F515031   4.042   2.912   4.846  0.2493  0.4468  0.2694
  859PF6-    F615032   4.068   3.058   5.016 -0.3229 -0.0247 -0.0730
  859PF6-    F715033   3.910   2.786   4.994 -0.1892  0.1791  0.0660
  860PF6-    P115034   2.757   1.270   3.120 -0.4760  0.2383  0.1176
  860PF6-    F215035   2.735   1.327   2.971 -0.4225 -0.3231  0.2639
  860PF6-    F315036   2.786   1.213   3.267  0.3053  0.1116  0.4611
  860PF6-    F415037   2.774   1.119   3.062 -0.1408 -0.5463  0.4980
  860PF6-    F515038   2.744   1.425   3.175  0.3734  0.3416  0.3539
  860PF6-    F615039   2.597   1.244   3.137  0.1026 -0.6262 -0.0107
  860PF6-    F715040   2.914   1.293   3.103 -0.0792  0.6722  0.0183
  861PF6-    P115041   2.417   4.921   1.969  0.1712 -0.1311 -0.2243
  861PF6-    F215042   2.354   4.905   2.114  0.0592  0.1852 -0.1905
  861PF6-    F315043   2.471   4.942   1.824 -0.0212 -0.4941 -0.1852
  861PF6-    F415044   2.556   4.850   2.013  0.0240  0.1166  0.1423
  861PF6-    F515045   2.281   4.999   1.924 -0.2887  0.4724 -0.2756
  861PF6-    F615046   2.477   5.059   2.012 -0.2077 -0.3263 -0.2201
  861PF6-    F715047   2.352   4.779   1.931  0.3320 -0.0620 -0.0155
  862PF6-    P115048   0.605   3.978   0.501  0.3432 -0.4430  0.2435
  862PF6-    F215049   0.600   3.819   0.461  0.4159  0.3363 -0.2351
  862PF6-    F315050   0.598   4.134   0.542 -0.1234  0.2987 -0.0535
  862PF6-    F415051   0.594   4.011   0.347 -0.2406 -0.0458  0.1432
  862PF6-    F515052   0.626   3.937   0.652  0.1974  0.0413 -0.5147
  862PF6-    F615053   0.765   3.985   0.488  0.3177  0.1307 -0.6896
  862PF6-    F715054   0.445   3.976   0.520  0.2157  0.0716 -0.3883
  863PF6-    P115055   1.940   2.720   3.505  0.0618  0.0209 -0.0856
  863PF6-    F215056   1.948   2.857   3.577 -0.0795 -0.5906 -0.4120
  863PF6-    F315057   1.929   2.579   3.430 -0.0608 -0.2589 -0.3262
  863PF6-    F415058   1.893   2.791   3.368  0.0525 -0.3448 -0.3343
  863PF6-    F515059   1.985   2.651   3.642  0.4590  0.0044 -0.2897
  863PF6-    F615060   1.787   2.705   3.552 -0.1124 -0.1602 -0.5182
  863PF6-    F715061   2.098   2.731   3.468  0.2968 -0.0624 -0.3398
  864PF6-    P115062   1.582   2.048   0.051  0.1573  0.1805 -0.4079
  864PF6-    F215063   1.446   2.116   0.000 -0.6711 -0.0201 -0.6202
  864PF6-    F315064   1.722   1.984   0.096  0.0686  0.0302 -0.0548
  864PF6-    F415065   1.579   1.949  -0.070 -0.0150  0.4367  0.5053
  864PF6-    F515066   1.575   2.161   0.172 -0.1711  0.2916  0.1950
  864PF6-    F615067   1.503   1.944   0.146 -0.2485 -0.1410  0.4731
  864PF6-    F715068   1.668   2.150  -0.041 -0.1551  0.6720 -0.2723
  865PF6-    P115069   4.819   1.083   5.340 -0.2598  0.3736 -0.4788
  865PF6-    F215070   4.908   1.176   5.433 -0.1906  0.1352  0.6441
  865PF6-    F315071   4.723   0.981   5.256  0.0319  0.1912 -0.2631
  865PF6-    F415072   4.923   1.083   5.220 -0.1565 -0.5589 -0.0187
  865PF6-    F515073   4.705   1.074   5.457 -0.3747  0.1214 -0.2108
  865PF6-    F615074   4.743   1.212   5.277 -0.1803 -0.4021 -0.5349
  865PF6-    F715075   4.890   0.952   5.403 -0.1025 -0.7578 -0.5709
  866PF6-    P115076   1.240   4.514   2.426 -0.1415  0.4443  0.3821
  866PF6-    F215077   1.392   4.577   2.404  0.3514  0.0562  0.3585
  866PF6-    F315078   1.095   4.453   2.447  0.2057 -0.2337  0.3615
  866PF6-    F415079   1.303   4.398   2.510 -0.5726  0.1902 -0.5568
  866PF6-    F515080   1.174   4.631   2.337  0.0023  0.4163 -0.4624
  866PF6-    F615081   1.264   4.422   2.291 -0.2784 -0.6894 -0.4196
  866PF6-    F715082   1.224   4.609   2.554 -0.2731 -0.0186  0.3670
  867PF6-    P115083   1.515   4.005   1.093  0.1363 -0.2438  0.1295
  867PF6-    F215084   1.647   3.934   1.028 -0.0801  0.8227 -0.3962
  867PF6-    F315085   1.376   4.068   1.144  0.2776 -0.1122  0.6856
  867PF6-    F415086   1.464   3.859   1.139  0.0311  0.4900 -0.0706
  867PF6-    F515087   1.560   4.151   1.038  0.1823  0.3492  0.3136
  867PF6-    F615088   1.453   3.975   0.952  0.1245  0.1367  0.0291
  867PF6-    F715089   1.592   4.036   1.233 -0.3965  0.0941 -0.3951
  868PF6-    P115090   5.097   3.639   1.830 -0.1579  0.2265 -0.2607
  868PF6-    F215091   5.186   3.757   1.878  0.1895 -0.2588  0.6547
  868PF6-    F315092   5.002   3.523   1.784  0.0563  0.5597  0.4783
  868PF6-    F415093   5.099   3.691   1.676  0.1147 -0.0856 -0.0908
  868PF6-    F515094   5.095   3.579   1.979  0.5542 -0.3180 -0.3335
  868PF6-    F615095   4.965   3.717   1.854  0.3241  0.2719  0.0965
  868PF6-    F715096   5.230   3.553   1.800  0.0254  0.2555  0.4975
  869PF6-    P115097   4.340   3.824   0.989 -0.0911 -0.1930  0.0342
  869PF6-    F215098   4.382   3.973   0.952  0.3362 -0.0869 -0.1827
  869PF6-    F315099   4.308   3.673   1.035 -0.2640 -0.0196  0.7210
  869PF6-    F415100   4.186   3.873   0.999  0.9522  0.1375  0.3693
  869PF6-    F515101   4.498   3.784   0.978 -0.0499  0.3876  0.3250
  869PF6-    F615102   4.368   3.856   1.144 -0.1747  0.1576  0.5382
  869PF6-    F715103   4.319   3.795   0.833  0.2084  0.6166  0.0526
  870PF6-    P115104   4.797   5.484   2.942 -0.3200 -0.3537 -0.2135
  870PF6-    F215105   4.896   5.440   2.825  0.6588 -0.4917  0.4955
  870PF6-    F315106   4.706   5.531   3.061 -0.3993  0.2611  0.0943
  870PF6-    F415107   4.916   5.567   3.015  0.5540  0.5657  0.0795
  870PF6-    F515108   4.678   5.401   2.874  0.6414 -0.1115  0.5484
  870PF6-    F615109   4.841   5.347   3.019 -0.1774 -0.1999 -0.0953
  870PF6-    F715110   4.758   5.613   2.855 -0.0289  0.6389  0.2575
  871PF6-    P115111   4.120   4.532   5.176 -0.6131 -0.2121  0.4665
  871PF6-    F215112   4.159   4.668   5.112 -0.2355  0.0019 -0.4709
  871PF6-    F315113   4.074   4.389   5.239 -0.5486 -0.7509 -0.1106
  871PF6-    F415114   4.067   4.481   5.035  0.3697  0.0350  0.0299
  871PF6-    F515115   4.175   4.589   5.319  0.2518  0.8106 -0.0748
  871PF6-    F615116   3.972   4.583   5.209  0.0332 -0.8733 -0.1684
  871PF6-    F715117   4.259   4.474   5.134  0.2662  0.3844  0.1974
  872PF6-    P115118   0.918   3.103   1.818 -0.1679  0.1065 -0.0312
  872PF6-    F215119   0.977   2.992   1.716  0.2532  0.1741 -0.1141
  872PF6-    F315120   0.862   3.215   1.917  0.4415  0.0905 -0.3565
  872PF6-    F415121   0.833   3.162   1.696  0.5936 -0.5221 -0.2939
  872PF6-    F515122   0.997   3.037   1.939 -0.6767 -0.3409 -0.5573
  872PF6-    F615123   1.046   3.197   1.787  0.6272 -0.0783 -0.0072
  872PF6-    F715124   0.794   3.004   1.845  0.0289 -0.5207 -0.4815
  873PF6-    P115125   0.975   1.639   1.355  0.0611 -0.6108  0.1830
  873PF6-    F215126   1.050   1.535   1.456 -0.4964 -0.0623 -0.2704
  873PF6-    F315127   0.888   1.744   1.266 -0.1676 -0.0006  0.1912
  873PF6-    F415128   1.090   1.618   1.238  0.1395 -0.2214  0.2224
  873PF6-    F515129   0.859   1.661   1.463 -0.0907  0.4350  0.6414
  873PF6-    F615130   1.051   1.764   1.411  0.2887 -0.0998 -0.3209
  873PF6-    F715131   0.890   1.516   1.291  0.1209  0.1802 -0.2708
  874PF6-    P115132   3.173   4.059   5.070  0.2320  0.0512  0.3192
  874PF6-    F215133   3.120   3.975   4.943  0.3891  0.7365  0.2282
  874PF6-    F315134   3.221   4.136   5.200 -0.3401 -0.2372  0.5590
  874PF6-    F415135   3.319   3.990   5.054 -0.1160 -0.4126 -0.3138
  874PF6-    F515136   3.028   4.127   5.086 -0.1406  0.0102 -0.4072
  874PF6-    F615137   3.124   3.946   5.170  0.0997  0.0563 -0.2598
  874PF6-    F715138   3.212   4.183   4.975  0.1370  0.0537 -0.8769
  875PF6-    P115139   3.207   4.535   1.475  0.1291  0.1485  0.5298
  875PF6-    F215140   3.208   4.693   1.506  0.2733  0.5403  0.5860
  875PF6-    F315141   3.226   4.377   1.452  0.1113 -0.1928  0.0284
  875PF6-    F415142   3.053   4.528   1.418  0.1263 -0.1598 -0.2380
  875PF6-    F515143   3.359   4.525   1.524 -0.3586 -0.3527  0.0406
  875PF6-    F615144   3.159   4.500   1.626 -0.8392  0.0183  0.6417
  875PF6-    F715145   3.259   4.571   1.326  0.0242 -0.0462 -0.5638
  876PF6-    P115146   0.077   1.338   0.950  0.0010  0.7142  0.3341
  876PF6-    F215147  -0.020   1.292   1.068 -0.2972  0.4377 -0.3609
  876PF6-    F315148   0.173   1.381   0.833 -0.2328  0.0444 -0.0146
  876PF6-    F415149  -0.028   1.285   0.836 -0.5041 -0.0416  0.0115
  876PF6-    F515150   0.187   1.400   1.055  0.7679  0.2234 -0.0532
  876PF6-    F615151   0.150   1.191   0.959  0.1338 -0.3048  0.2167
  876PF6-    F715152   0.005   1.479   0.945  0.0452 -1.0105 -0.3365
  877PF6-    P115153   0.041   2.369   0.431  0.2401  0.5568 -0.1970
  877PF6-    F215154   0.165   2.275   0.382 -0.1209  0.3113  0.2386
  877PF6-    F315155  -0.089   2.461   0.483 -0.3009  0.1214 -0.6214
  877PF6-    F415156   0.096   2.370   0.583  0.3219  0.3565  0.7759
  877PF6-    F515157  -0.021   2.367   0.282 -0.5990  0.0861 -0.1028
  877PF6-    F615158  -0.056   2.234   0.447  0.0765  0.0888  0.2430
  877PF6-    F715159   0.129   2.492   0.400 -0.2905  0.6664 -0.3849
  878PF6-    P115160   2.844   1.598   4.162  0.2568  0.0511 -0.3263
  878PF6-    F215161   2.811   1.655   4.016  0.1553  0.2252  0.2981
  878PF6-    F315162   2.879   1.535   4.305 -0.2573  0.3989 -0.6168
  878PF6-    F415163   2.965   1.702   4.180  0.4635  0.1003  0.0476
  878PF6-    F515164   2.723   1.487   4.144 -0.3045 -0.8340  0.1112
  878PF6-    F615165   2.944   1.494   4.092 -0.0842  0.2612 -0.4489
  878PF6-    F715166   2.749   1.700   4.235 -0.8160 -0.7079 -0.0766
  879PF6-    P115167   2.848   1.183   5.142  0.2359 -0.2961 -0.1331
  879PF6-    F215168   2.911   1.302   5.223  0.3232 -0.1681  0.2964
  879PF6-    F315169   2.794   1.066   5.054 -0.1593  0.2275  0.3237
  879PF6-    F415170   2.929   1.236   5.014 -0.3496 -0.1182  0.5924
  879PF6-    F515171   2.771   1.123   5.267  0.0207 -0.2103 -0.1591
  879PF6-    F615172   2.724   1.279   5.104  0.4675  0.1994 -0.3833
  879PF6-    F715173   2.978   1.098   5.178  0.0344 -0.2959 -0.7301
  880PF6-    P115174   2.500   2.537   0.071 -0.0987  0.1881  0.1429
  880PF6-    F215175   2.556   2.564  -0.077 -0.3846 -0.2096  0.0190
  880PF6-    F315176   2.453   2.517   0.223  0.1723 -0.2428  0.3561
  880PF6-    F415177   2.371   2.626   0.043  0.1005  0.7728 -0.2856
  880PF6-    F515178   2.629   2.446   0.105  0.2194 -0.6618  0.0677
  880PF6-    F615179   2.576   2.672   0.115  0.2797  0.1526 -0.0649
  880PF6-    F715180   2.421   2.407   0.025 -0.0020  0.2184 -0.1299
  881PF6-    P115181   2.236   3.714   1.810  0.0424  0.1916 -0.6692
  881PF6-    F215182   2.352   3.793   1.890 -0.2471  0.2175  0.0484
  881PF6-    F315183   2.122   3.640   1.736  0.1718 -0.2332 -0.1158
  881PF6-    F415184   2.170   3.857   1.769 -0.3424  0.1600 -0.1621
  881PF6-    F515185   2.298   3.569   1.850 -0.2089 -0.4115  0.7209
  881PF6-    F615186   2.150   3.716   1.940  0.3421  0.4095 -0.2660
  881PF6-    F715187   2.323   3.712   1.673  0.4071 -0.2694  0.0719
  882PF6-    P115188   2.603   4.202   0.772 -0.0798 -0.0221  0.0961
  882PF6-    F215189   2.634   4.302   0.890  0.2801 -0.0765  0.0824
  882PF6-    F315190   2.572   4.097   0.649  0.2183  0.0938 -0.0122
  882PF6-    F415191   2.746   4.137   0.802 -0.0557  0.0107 -0.3783
  882PF6-    F515192   2.468   4.278   0.745  0.1508  0.0511  0.0619
  882PF6-    F615193   2.679   4.306   0.673 -0.6111 -0.2791 -0.0140
  882PF6-    F715194   2.531   4.106   0.871  0.0613  0.4876 -0.4481
  883PF6-    P115195   4.015   1.534   0.268  0.7894  0.3314  0.0106
  883PF6-    F215196   4.087   1.470   0.401  0.2699 -0.2040  0.4113
  883PF6-    F315197   3.942   1.600   0.139 -0.2965  0.1344 -0.0329
  883PF6-    F415198   3.918   1.401   0.260 -0.1055  0.3647  0.0217
  883PF6-    F515199   4.116   1.655   0.279  0.1512 -0.0723 -0.8941
  883PF6-    F615200   4.118   1.458   0.172  0.3963 -0.5328  0.0181
  883PF6-    F715201   3.909   1.609   0.361  0.2048 -0.4350 -0.1921
  884PF6-    P115202   2.567   3.250   3.878 -0.0740  0.0447  0.3270
  884PF6-    F215203   2.439   3.171   3.931  0.7280 -0.0553  0.1208
  884PF6-    F315204   2.697   3.331   3.823 -0.1346 -0.2363  0.1445
  884PF6-    F415205   2.644   3.208   4.015  0.0711  0.1576 -0.7982
  884PF6-    F515206   2.491   3.281   3.743 -0.4012  0.6562  0.1226
  884PF6-    F615207   2.511   3.376   3.947  0.3066  0.0613  0.1872
  884PF6-    F715208   2.619   3.119   3.814  0.0604 -0.0077  0.3285
  885PF6-    P115209   0.162   1.386   3.531 -0.0206  0.2857  0.3387
  885PF6-    F215210   0.013   1.332   3.520 -0.1573  0.0802  0.0278
  885PF6-    F315211   0.315   1.435   3.545  0.1402  0.4689  0.1258
  885PF6-    F415212   0.116   1.535   3.510 -0.3288  0.0047  0.2800
  885PF6-    F515213   0.214   1.234   3.546 -0.5277 -0.3147 -0.1514
  885PF6-    F615214   0.182   1.375   3.370 -0.4222  0.7324 -0.0927
  885PF6-    F715215   0.151   1.400   3.691  0.5513  0.1623  0.2665
  886PF6-    P115216   5.000   1.714   1.796  0.3099 -0.1360  0.3967
  886PF6-    F215217   5.057   1.861   1.815  0.3418  0.4037  0.2719
  886PF6-    F315218   4.950   1.564   1.762  0.2735 -0.3176 -0.2072
  886PF6-    F415219   5.146   1.661   1.780  0.2494  0.0711  0.1330
  886PF6-    F515220   4.849   1.768   1.811 -0.1443  0.1549 -0.2080
  886PF6-    F615221   4.993   1.743   1.634  0.2328  0.2721 -0.2649
  886PF6-    F715222   5.002   1.679   1.949 -0.0806  0.1554 -0.1082
  887PF6-    P115223   0.811   3.015   5.265  0.1770 -0.1219 -0.0050
  887PF6-    F215224   0.804   2.888   5.358  0.4596  0.3977  0.4678
  887PF6-    F315225   0.806   3.141   5.171 -0.2677  0.1712  0.1077
  887PF6-    F415226   0.674   2.962   5.196 -0.2361 -0.0114 -0.3053
  887PF6-    F515227   0.946   3.063   5.334  0.2252 -0.5181  0.8052
  887PF6-    F615228   0.894   2.937   5.155 -0.1218 -0.0798  0.2909
  887PF6-    F715229   0.726   3.088   5.376 -0.4691 -0.0267  0.3595
  888PF6-    P115230   1.239   3.591   4.099 -0.0830  0.0639 -0.3087
  888PF6-    F215231   1.206   3.483   3.986 -0.1414  0.2958 -0.3385
  888PF6-    F315232   1.266   3.702   4.212 -0.2351  0.2068  0.0883
  888PF6-    F415233   1.400   3.557   4.088  0.8768 -0.2313 -0.0060
  888PF6-    F515234   1.080   3.624   4.108 -0.1935 -0.2920  0.0603
  888PF6-    F615235   1.225   3.485   4.223  0.0597  0.1726  0.3005
  888PF6-    F715236   1.255   3.698   3.980  0.2069  0.1452  0.0640
  889PF6-    P115237   0.885   0.397   4.196  0.1299  0.1446 -0.1579
  889PF6-    F215238   0.928   0.241   4.202  0.1287  0.1612  0.5241
  889PF6-    F315239   0.844   0.546   4.194 -0.3770 -0.3290  0.2333
  889PF6-    F415240   1.022   0.441   4.123  0.1416  0.1264  0.7928
  889PF6-    F515241   0.745   0.360   4.262 -0.0219  0.1991 -0.2632
  889PF6-    F615242   0.946   0.420   4.346  0.2543  0.0420 -0.1434
  889PF6-    F715243   0.815   0.379   4.053 -0.5523  0.1712  0.0605
  890PF6-    P115244   2.615   0.659   3.714  0.2268  0.2950  0.1040
  890PF6-    F215245   2.755   0.590   3.680 -0.0832  0.7811  0.4039
  890PF6-    F315246   2.478   0.740   3.756 -0.2358  0.4543 -0.0167
  890PF6-    F415247   2.550   0.598   3.580  0.1269 -0.3917  0.1845
  890PF6-    F515248   2.684   0.724   3.846  0.4583  0.1079 -0.1330
  890PF6-    F615249   2.666   0.785   3.636 -0.0691  0.4098  0.5035
  890PF6-    F715250   2.564   0.538   3.804 -0.3940 -0.4587 -0.1189
  891PF6-    P115251   1.183   5.146   5.212  0.2808  0.3117  0.1239
  891PF6-    F215252   1.040   5.092   5.256 -0.0832 -0.4942  0.0353
  891PF6-    F315253   1.325   5.195   5.158  0.2472 -0.6393 -0.5220
  891PF6-    F415254   1.179   5.036   5.094  0.0818 -0.1323 -0.0906
  891PF6-    F515255   1.183   5.250   5.334 -0.1225  0.1566  0.0863
  891PF6-    F615256   1.239   5.033   5.310 -0.3927 -0.0127  0.2571
  891PF6-    F715257   1.105   5.251   5.117  0.3000  0.1066  0.2694
  892PF6-    P115258   0.302   5.490   2.227  0.2530  0.0017 -0.0407
  892PF6-    F215259   0.165   5.461   2.151 -0.0712 -0.2278  0.5010
  892PF6-    F315260   0.436   5.524   2.316  0.0080 -0.1205 -0.3169
  892PF6-    F415261   0.346   5.336   2.212  0.5114 -0.1405  0.1465
  892PF6-    F515262   0.250   5.639   2.242 -0.5216 -0.2073  0.2028
  892PF6-    F615263   0.222   5.459   2.364 -0.2308 -0.3714 -0.2859
  892PF6-    F715264   0.377   5.523   2.093 -0.6322  0.2040 -0.0579
  893PF6-    P115265   4.910   0.051   5.149 -0.0577 -0.0051  0.4940
  893PF6-    F215266   4.750   0.065   5.167 -0.0258 -0.0268  0.0426
  893PF6-    F315267   5.070   0.039   5.121  0.1680  0.2365 -0.3421
  893PF6-    F415268   4.900  -0.106   5.142  0.0832 -0.4299 -0.0766
  893PF6-    F515269   4.918   0.210   5.160 -0.0626 -0.0243 -0.3313
  893PF6-    F615270   4.939   0.037   5.307  0.1147 -0.3213  0.8532
  893PF6-    F715271   4.888   0.063   4.993 -0.2964 -0.5444 -0.2881
  894PF6-    P115272   4.476   5.401   4.310  0.1297  0.2396  0.0185
  894PF6-    F215273   4.354   5.299   4.278  0.2908  0.0173 -0.1176
  894PF6-    F315274   4.600   5.505   4.339 -0.3356 -0.3449  0.6603
  894PF6-    F415275   4.576   5.300   4.225  0.1438 -0.3180 -0.4067
  894PF6-    F515276   4.377   5.492   4.387 -0.0126  0.1990 -0.1642
  894PF6-    F615277   4.514   5.318   4.449  0.6434 -0.1507  0.2234
  894PF6-    F715278   4.443   5.473   4.178  0.4069 -0.2709 -0.1650
  895PF6-    P115279   1.801   1.100   5.103 -0.0994 -0.2436  0.1730
  895PF6-    F215280   1.889   1.084   5.232 -0.0331  0.1362 -0.1555
  895PF6-    F315281   1.711   1.116   4.970 -0.1235  0.7764 -0.3593
  895PF6-    F415282   1.703   1.206   5.181 -0.0185 -0.1825 -0.6309
  895PF6-    F515283   1.889   0.993   5.017  0.4524  0.0107  0.1683
  895PF6-    F615284   1.696   0.982   5.151  0.4308 -0.0937 -0.2556
  895PF6-    F715285   1.891   1.225   5.051  0.6091  0.2450  0.0768
  896PF6-    P115286   4.715   0.622   1.041  0.1562  0.3925 -0.0386
  896PF6-    F215287   4.573   0.569   1.100  0.7617 -0.4259  0.2624
  896PF6-    F315288   4.862   0.661   0.982  0.8558 -0.0630 -0.1064
  896PF6-    F415289   4.757   0.470   1.027  0.5473  0.0542 -0.3553
  896PF6-    F515290   4.675   0.777   1.045  0.1507 -0.1009 -0.3549
  896PF6-    F615291   4.777   0.622   1.189 -0.0055  0.2339  0.3207
  896PF6-    F715292   4.651   0.612   0.890 -0.0419 -0.0568  0.2420
  897PF6-    P115293   3.652   3.030   2.740 -0.1661  0.4099 -0.3914
  897PF6-    F215294   3.656   3.043   2.579  0.2048 -0.2880  0.1598
  897PF6-    F315295   3.653   3.016   2.906  0.0881  0.2481  0.2013
  897PF6-    F415296   3.502   2.988   2.734  1.3251 -0.3921 -0.2166
  897PF6-    F515297   3.811   3.071   2.745  0.1752 -0.0579 -0.0678
  897PF6-    F615298   3.612   3.182   2.757  0.0251 -0.2796  0.1643
  897PF6-    F715299   3.699   2.878   2.725 -0.3385  0.1264  0.2607
  898PF6-    P115300   4.534   0.981   3.365 -0.4262  0.2092  0.5539
  898PF6-    F215301   4.602   1.088   3.269 -0.0000 -0.0276  0.4104
  898PF6-    F315302   4.469   0.873   3.468  0.6517  0.0863 -0.2194
  898PF6-    F415303   4.530   0.881   3.241 -0.1765 -0.0600  0.4872
  898PF6-    F515304   4.549   1.087   3.482 -0.0118  0.2746 -0.0359
  898PF6-    F615305   4.387   1.032   3.325  0.2202  0.1786  0.2195
  898PF6-    F715306   4.681   0.925   3.407  0.6534 -0.2937 -0.1155
  899PF6-    P115307   2.867   4.525   4.444 -0.2012  0.0108 -0.1127
  899PF6-    F215308   2.988   4.583   4.356 -0.0958 -0.5088 -0.1920
  899PF6-    F315309   2.751   4.470   4.542  0.4516  0.1983 -0.4616
  899PF6-    F415310   2.892   4.654   4.543  0.3557 -0.7696  0.7655
  899PF6-    F515311   2.856   4.397   4.348 -0.2158 -0.0217 -0.3887
  899PF6-    F615312   2.979   4.446   4.534 -0.1220 -0.6856  0.2301
  899PF6-    F715313   2.755   4.603   4.363  0.3924 -0.0591  0.3460
  900PF6-    P115314   2.935   2.042   2.060  0.0265  0.4454  0.2613
  900PF6-    F215315   2.821   2.055   2.175  0.6978 -0.1751 -0.1239
  900PF6-    F315316   3.046   2.031   1.945  0.0422  0.4512 -0.1491
  900PF6-    F415317   2.926   2.203   2.032 -0.4398  0.3608 -0.6244
  900PF6-    F515318   2.955   1.882   2.088  0.2085 -0.1703  0.1655
  900PF6-    F615319   2.823   2.008   1.954  0.1650 -0.1377  0.6493
  900PF6-    F715320   3.052   2.069   2.167 -0.1166  0.2593 -0.6728
  901PF6-    P115321   5.347   4.397   2.458 -0.0162  0.4095  0.0249
  901PF6-    F215322   5.285   4.431   2.603 -0.2578  0.7333 -0.2228
  901PF6-    F315323   5.413   4.364   2.311 -0.4491 -0.1651 -0.8603
  901PF6-    F415324   5.487   4.386   2.529  0.2347 -0.3006  0.1207
  901PF6-    F515325   5.199   4.397   2.393 -0.0954 -0.2467  0.3275
  901PF6-    F615326   5.367   4.557   2.439  0.1572 -0.0133  0.0313
  901PF6-    F715327   5.330   4.240   2.487  0.3447  0.0274 -0.3656
  902PF6-    P115328   2.822   5.002   0.283  0.5165 -0.2310 -0.0126
  902PF6-    F215329   2.767   5.007   0.431  0.0080 -0.2829  0.4015
  902PF6-    F315330   2.880   5.007   0.126  0.0921  0.9556 -0.3611
  902PF6-    F415331   2.936   5.104   0.330 -0.0606  0.1942 -0.0218
  902PF6-    F515332   2.698   4.905   0.243  0.0920 -0.3166  0.0228
  902PF6-    F615333   2.729   5.131   0.241 -0.2950  0.1742  0.3043
  902PF6-    F715334   2.915   4.874   0.321 -0.5884  0.4126  0.5820
  903PF6-    P115335   2.609   3.354   0.297 -0.0192 -0.7542 -0.5644
  903PF6-    F215336   2.574   3.486   0.385  0.2636 -0.3425 -0.4366
  903PF6-    F315337   2.633   3.218   0.217  0.1585 -0.0958  0.1924
  903PF6-    F415338   2.754   3.410   0.261 -0.2007 -0.0539  0.0278
  903PF6-    F515339   2.462   3.300   0.338 -0.4430 -0.0722  0.0551
  903PF6-    F615340   2.548   3.422   0.169  0.0020 -0.2800 -0.0435
  903PF6-    F715341   2.672   3.285   0.430 -0.1431  0.5808  0.2636
  904PF6-    P115342   1.830   4.877   1.340 -0.1594  0.1775 -0.0227
  904PF6-    F215343   1.746   4.809   1.222  0.1447  0.1040 -0.0203
  904PF6-    F315344   1.918   4.939   1.458  0.3738 -0.4257  0.5346
  904PF6-    F415345   1.961   4.795   1.300 -0.6039  0.4166 -0.0969
  904PF6-    F515346   1.693   4.959   1.387  0.1923 -0.6959  0.2003
  904PF6-    F615347   1.786   4.764   1.444  0.1026 -0.0495  0.0073
  904PF6-    F715348   1.867   5.002   1.247 -0.0085  0.2482  0.9648
  905PF6-    P115349   3.863   2.649   1.505  0.2555 -0.2003 -0.0766
  905PF6-    F215350   3.720   2.726   1.502  0.0975  0.2278  0.0608
  905PF6-    F315351   4.000   2.572   1.521  0.0725  0.0821  0.1221
  905PF6-    F415352   3.794   2.515   1.573 -0.0541  0.2361 -0.0088
  905PF6-    F515353   3.934   2.774   1.434  0.1047 -0.0533  0.1700
  905PF6-    F615354   3.893   2.709   1.647  0.1364 -0.8340 -0.0422
  905PF6-    F715355   3.840   2.591   1.357 -0.3997  0.4062  0.3624
  906PF6-    P115356   0.700   3.817   2.494  0.0688 -0.5709  0.2088
  906PF6-    F215357   0.565   3.739   2.465 -0.0482 -0.5906  0.1091
  906PF6-    F315358   0.836   3.896   2.518  0.3079 -0.4223  0.0435
  906PF6-    F415359   0.671   3.813   2.653  0.0376 -0.0560  0.3339
  906PF6-    F515360   0.724   3.838   2.333  0.1211 -0.0906  0.0870
  906PF6-    F615361   0.622   3.960   2.491  0.1680 -0.5817 -0.7909
  906PF6-    F715362   0.781   3.673   2.503 -0.0065  0.0314 -0.1224
  907PF6-    P115363   0.386   0.440   0.681  0.5232 -0.1816 -0.5870
  907PF6-    F215364   0.451   0.585   0.649  0.2759  0.0794 -0.0552
  907PF6-    F315365   0.306   0.310   0.712 -0.0917 -0.2485  0.4302
  907PF6-    F415366   0.368   0.487   0.832 -0.4795 -0.0347 -0.2502
  907PF6-    F515367   0.398   0.397   0.527  0.0604 -0.1856  0.1094
  907PF6-    F615368   0.529   0.370   0.722 -0.0600 -0.4514 -0.4197
  907PF6-    F715369   0.242   0.508   0.653 -0.3454 -0.0486  0.0418
  908PF6-    P115370   0.435   3.655   4.491 -0.3505 -0.5024  0.0103
  908PF6-    F215371   0.520   3.772   4.560  0.5405 -0.5500  0.2057
  908PF6-    F315372   0.343   3.543   4.427  0.3157  0.0779  0.0383
  908PF6-    F415373   0.543   3.549   4.543 -0.3707 -0.4885  0.4046
  908PF6-    F515374   0.336   3.767   4.436 -0.6044 -0.0071  0.3887
  908PF6-    F615375   0.518   3.666   4.357  0.1965  0.3140  0.2613
  908PF6-    F715376   0.352   3.645   4.626 -0.4771  0.0156  0.1005
  909PF6-    P115377   0.203   3.143   2.193  0.2604  0.2519  0.1195
  909PF6-    F215378   0.076   3.050   2.149 -0.3030  0.2713  0.4147
  909PF6-    F315379   0.328   3.238   2.243 -0.1196 -0.0899  0.5037
  909PF6-    F415380   0.093   3.253   2.244 -0.2524 -0.2491 -0.1141
  909PF6-    F515381   0.312   3.042   2.139  0.0960 -0.2889  0.6397
  909PF6-    F615382   0.209   3.216   2.049 -0.2651  0.1061 -0.2674
  909PF6-    F715383   0.204   3.075   2.332  0.2280  0.1204  0.4435
  910PF6-    P115384   5.222   3.408   4.996  0.2558 -0.4355 -0.1693
  910PF6-    F215385   5.337   3.345   5.089  0.2490  0.3200  0.3111
  910PF6-    F315386   5.103   3.464   4.907 -0.2204 -0.2901  0.0467
  910PF6-    F415387   5.296   3.548   4.988 -0.4717 -0.0089 -0.1301
  910PF6-    F515388   5.149   3.265   5.003 -0.0328  0.2808  0.5371
  910PF6-    F615389   5.139   3.458   5.125 -0.1740 -0.2517  0.2464
  910PF6-    F715390   5.300   3.366   4.861  0.0878 -0.3146 -0.3669
  911PF6-    P115391   2.193   1.568   1.501  0.2635  0.0147  0.0489
  911PF6-    F215392   2.053   1.620   1.476  0.0038  0.0421 -0.2996
  911PF6-    F315393   2.343   1.510   1.524  0.2141 -0.4019  0.2797
  911PF6-    F415394   2.170   1.466   1.377 -0.2386  0.5860  0.2109
  911PF6-    F515395   2.213   1.653   1.635 -0.7848 -0.1782  0.5397
  911PF6-    F615396   2.134   1.453   1.597  0.3412 -0.1562 -0.2598
  911PF6-    F715397   2.253   1.682   1.404  0.3328  0.0581  0.1347
  912PF6-    P115398   1.491   2.409   4.706  0.0190  0.0581  0.0650
  912PF6-    F215399   1.545   2.413   4.554 -0.3704 -0.3587 -0.3906
  912PF6-    F315400   1.444   2.408   4.862 -0.3067 -0.0000  0.0121
  912PF6-    F415401   1.615   2.317   4.741  0.0866  0.4850  0.2657
  912PF6-    F515402   1.369   2.510   4.665  0.1441 -0.2646  0.1418
  912PF6-    F615403   1.405   2.277   4.670  0.6589  0.1837 -0.2461
  912PF6-    F715404   1.572   2.544   4.742 -0.7920  0.3541 -0.3577
  913PF6-    P115405   4.841   3.190   2.454  0.1441  0.0277  0.0478
  913PF6-    F215406   4.989   3.188   2.512  0.1792  0.0655  0.1526
  913PF6-    F315407   4.693   3.198   2.389  0.0533  0.0746  0.4690
  913PF6-    F415408   4.891   3.300   2.348  0.0646  0.1155  0.1229
  913PF6-    F515409   4.800   3.081   2.566 -0.3288 -0.4492  0.1496
  913PF6-    F615410   4.804   3.308   2.554 -0.5672 -0.5941 -0.3030
  913PF6-    F715411   4.876   3.070   2.350 -0.5516 -0.5708  0.7028
  914PF6-    P115412   0.177   1.551   2.309  0.0789  0.2139 -0.2431
  914PF6-    F215413   0.146   1.421   2.399 -0.1655 -0.2153  0.6642
  914PF6-    F315414   0.203   1.679   2.216 -0.0514  0.0170 -0.4005
  914PF6-    F415415   0.199   1.637   2.437  0.3309 -0.5825 -0.7385
  914PF6-    F515416   0.152   1.462   2.175  0.3318  0.0022 -0.0433
  914PF6-    F615417   0.025   1.586   2.309  0.1491 -0.0540  0.4603
  914PF6-    F715418   0.335   1.518   2.306 -0.1375 -0.0477 -0.4476
  915PF6-    P115419   0.263   2.624   4.478 -0.1788  0.0338  0.4105
  915PF6-    F215420   0.222   2.470   4.486  0.1032  0.0850  0.3009
  915PF6-    F315421   0.305   2.777   4.456 -0.1499  0.7435 -0.5598
  915PF6-    F415422   0.107   2.668   4.488  0.3924  0.5205 -0.0204
  915PF6-    F515423   0.421   2.586   4.477  1.0650  0.0933 -0.2088
  915PF6-    F615424   0.270   2.616   4.316 -0.5625 -0.2326 -0.3309
  915PF6-    F715425   0.271   2.629   4.636  0.0769 -0.6915 -0.5208
  916PF6-    P115426   0.721   4.675   4.476 -0.0310 -0.4040  0.0814
  916PF6-    F215427   0.827   4.624   4.364  0.1605 -0.2001 -0.4170
  916PF6-    F315428   0.608   4.719   4.587 -0.5492 -0.0002  1.1719
  916PF6-    F415429   0.680   4.798   4.383 -0.0719  0.6837  0.2366
  916PF6-    F515430   0.762   4.556   4.575 -0.0553 -0.3039 -0.4398
  916PF6-    F615431   0.826   4.767   4.550 -0.1614 -0.7300  0.0678
  916PF6-    F715432   0.608   4.590   4.402 -0.0957  0.0602 -0.4034
  917PF6-    P115433   0.653   0.912   0.085 -0.0387  0.2079  0.0448
  917PF6-    F215434   0.666   1.075   0.087 -0.4168  0.0109  0.1958
  917PF6-    F315435   0.633   0.753   0.087  0.1294  0.3725  0.5095
  917PF6-    F415436   0.763   0.901  -0.031 -0.2723  0.3773  0.7069
  917PF6-    F515437   0.544   0.923   0.201  0.0734  0.1868  0.3367
  917PF6-    F615438   0.541   0.926  -0.031 -0.0460 -0.0496 -0.2372
  917PF6-    F715439   0.773   0.902   0.197  0.9808  0.9571 -0.4624
  918PF6-    P115440   2.668   2.030   0.857 -0.2334  0.1901 -0.0246
  918PF6-    F215441   2.779   2.028   0.745  0.1559  0.1860 -0.0056
  918PF6-    F315442   2.560   2.035   0.971  0.4478 -0.5474 -0.7087
  918PF6-    F415443   2.561   2.081   0.758  0.0962 -0.3303  0.0216
  918PF6-    F515444   2.769   1.971   0.963  0.2602 -0.2249 -0.0334
  918PF6-    F615445   2.710   2.181   0.886  0.7330  0.1741  0.2090
  918PF6-    F715446   2.620   1.879   0.822  0.0737  0.1274  0.1946
  919PF6-    P115447   5.289   5.111   3.991 -0.0502 -0.2019 -0.1154
  919PF6-    F215448   5.424   5.119   4.083  0.0593 -0.0806 -0.2696
  919PF6-    F315449   5.156   5.105   3.904 -0.0765  0.4153 -0.0262
  919PF6-    F415450   5.364   5.046   3.873 -0.3679 -0.2575 -0.0764
  919PF6-    F515451   5.202   5.191   4.105 -0.3468  0.2031 -0.2611
  919PF6-    F615452   5.329   5.255   3.928 -0.3381 -0.5012  0.3482
  919PF6-    F715453   5.254   4.968   4.054 -0.0577  0.4674 -0.2381
  920PF6-    P115454   4.890   4.488   4.560 -0.2233  0.2902 -0.3696
  920PF6-    F215455   5.018   4.557   4.498 -0.3340  0.3371  0.1133
  920PF6-    F315456   4.752   4.427   4.615 -0.5192  0.6747 -0.4053
  920PF6-    F415457   4.806   4.557   4.446  0.2498 -0.8596  0.0211
  920PF6-    F515458   4.972   4.411   4.672  0.0239  0.3577 -0.1056
  920PF6-    F615459   4.876   4.615   4.656  0.7179  0.5026 -0.3677
  920PF6-    F715460   4.911   4.359   4.462  0.2219  0.2520 -0.0734
  921Na+     N115461   0.761   4.245   1.132  0.3579  0.2784  0.2951
  922Na+     N115462   3.902   5.230   5.305 -0.2386  0.3183  0.1164
  923Na+     N115463   2.539   1.098   3.858 -0.1208  0.0208  0.2661
  924Na+     N115464   2.699   3.630   3.405 -0.4450 -0.3557  0.1446
  925Na+     N115465   0.641   3.161   4.099 -0.1121 -0.4072  0.4648
  926Na+     N115466   4.772   3.974   2.619 -0.1055 -0.0865 -0.2414
  927Na+     N115467   0.235   2.575   5.304 -0.4131  0.5967  0.5896
  928Na+     N115468   2.042   1.632   2.240  0.2666 -0.3481  0.0628
  929Na+     N115469   1.997   2.669   5.110 -0.1916 -0.0487  0.0380
  930Na+     N115470   4.663   5.291   1.292 -0.5272  0.3563  0.5625
  931Na+     N115471   2.945   3.536   0.878 -0.6479  0.1791  0.5134
  932Na+     N115472   4.540   1.471   1.293 -0.1022  0.0329  0.1231
  933Na+     N115473   1.429   2.693   5.420 -0.0446 -0.1886  0.0590
  934Na+     N115474   3.772   0.856   4.750 -0.7395 -0.4403  0.2012
  935Na+     N115475   5.293   3.020   4.065 -0.5476 -0.4783  0.0724
  936Na+     N115476   3.138   1.740   3.512 -0.2381  0.3003 -0.1420
  937Na+     N115477   4.909   1.644   3.115 -0.4377 -0.0133 -0.0298
  938Na+     N115478   0.852   4.197   4.084 -0.2862  0.2645 -0.0396
  939Na+     N115479   2.647   0.632   2.948  0.0303 -0.2897 -0.1929
  940Na+     N115480   5.339   1.611   1.653 -0.3699 -0.2383  0.1346
  941Na+     N115481   2.344   3.379   2.423 -0.2548  0.1554  0.1870
  942Na+     N115482   3.505   4.721   4.760 -0.4058 -0.0109  0.2567
  943Na+     N115483   2.778   1.309   1.214  0.6030  0.0257  0.5097
  944Na+     N115484   4.628   3.819   4.643 -0.1251 -0.1391  0.3758
  945Na+     N115485   2.138   4.196   4.386 -0.0710  0.4330 -0.5598
  946Na+     N115486   5.020   0.675   3.002  0.4747  0.0495 -0.3568
  947Na+     N115487   0.368   0.731   4.514  0.6777 -0.2788 -0.3897
  948Na+     N115488   1.999   3.617   0.794 -0.0860 -0.2464  0.2789
  949Na+     N115489   0.910   5.308   0.792 -0.1151  0.4226  0.2402
  950Na+     N115490   4.285   2.647   5.222 -0.2156  0.5663  0.0005
  951Na+     N115491   4.467   3.460   1.753  0.1381 -0.3062 -0.0952
  952Na+     N115492   2.882   3.700   4.414 -0.5510  0.0863  0.0230
  953Na+     N115493   1.517   5.295   5.017  0.2751  0.1011 -0.1648
  954Na+     N115494   3.462   3.215   3.612 -0.5879 -0.0592  0.0746
  955Na+     N115495   0.520   4.179   2.482 -0.3393  0.0015 -0.2358
  956Na+     N115496   3.801   3.395   1.368  0.2522  0.4171 -0.4940
  957Na+     N115497   3.265   5.433   0.982  0.5409 -0.0513  0.2191
  958Na+     N115498   2.203   0.028   0.897  0.5483 -0.1524 -0.2580
  959Na+     N115499   2.301   5.129   4.467  0.1442  0.3522 -0.2860
  960Na+     N115500   4.661   1.046   4.045  0.0663  0.3931 -0.2257
  961Na+     N115501   1.324   0.691   5.481 -0.1586 -0.2944  0.0417
  962Na+     N115502   1.374   2.430   3.134  0.4466  0.1948 -0.2654
  963Na+     N115503   0.300   4.978   2.956 -0.3047  0.3662  0.2717
  964Na+     N115504   0.409   3.647   1.752  0.4425 -0.0767  0.0443
  965Na+     N115505   3.254   4.312   0.377 -0.2864  0.2201 -0.0908
  966Na+     N115506   3.298   4.972   3.251  0.3214  0.2724  0.3709
  967Na+     N115507   2.745   4.524   5.082  0.0554  0.0154 -0.2805
  968Na+     N115508   0.439   3.186   2.449 -0.0128  0.1236 -0.2587
  969Na+     N115509   1.124   4.546   1.648 -0.5046 -0.2065 -0.3753
  970Na+     N115510   2.965   0.732   1.588 -0.2418  0.4565  0.8015
  971Na+     N115511   2.451   4.503   1.303 -0.0174  0.1698 -0.4537
  972Na+     N115512   1.678   2.960   1.920 -0.2747 -0.1090  0.0478
  973Na+     N115513   2.791   2.393   1.448 -0.4160 -0.3253 -0.7630
  974Na+     N115514   1.724   4.767   0.163  0.1734  0.0324  0.8304
  975Na+     N115515   4.589   5.490   0.290  0.1904  0.1134 -0.1744
  976Na+     N115516   1.207   3.688   0.621  0.1295  0.1150 -0.4871
  977Na+     N115517   4.337   0.381   3.578 -0.5634 -0.5597 -0.3673
  978Na+     N115518   5.181   1.784   3.968  0.1748  0.3493 -0.1230
  979Na+     N115519   1.666   1.804   4.817  0.1781 -0.5158  0.2917
  980Na+     N115520   3.873   3.722   2.670 -0.0941 -0.2633  0.0383
  981Na+     N115521   2.586   0.346   5.338  0.1213 -0.0990 -0.3783
  982Na+     N115522   5.208   5.038   4.760  0.5150 -0.0637 -0.3510
  983Na+     N115523   1.058   3.756   4.840  0.6240 -0.0792 -0.3274
  984Na+     N115524   1.561   1.237   1.233  0.1638 -0.3877  0.0540
  985Na+     N115525   4.595   1.826   5.428 -0.5993  0.2229  0.2423
  986Na+     N115526   0.057   1.062   5.389 -0.5567 -0.0779 -0.0913
  987Na+     N115527   3.417   0.952   2.372  0.4876  0.1785 -0.1173
  988Na+     N115528   4.176   2.213   2.022 -0.6013 -0.1935 -0.2204
  989Na+     N115529   3.554   3.501   5.034 -0.2455 -0.3812 -0.3199
  990Na+     N115530   4.922   5.017   2.366 -0.1539 -0.6142 -0.1624
  991Na+     N115531   2.106   0.272   3.467 -0.0090  0.0892 -0.0774
  992Na+     N115532   0.517   5.319   4.025 -0.0604  0.5600  0.1159
  993Na+     N115533   2.987   2.299   5.101  0.1517 -0.0563 -0.8150
  994Na+     N115534   2.242   1.917   0.377  0.2556  0.1648  0.6101
  995Na+     N115535   4.215   3.491   4.280  0.1872 -0.4044 -0.0374
  996Na+     N115536   2.785   4.215   1.973 -0.4389  0.3161 -0.0647
  997Na+     N115537   3.105   2.789   0.326  0.0185  0.0551  0.3671
  998Na+     N115538   0.987   2.131   1.946  0.8685 -0.1095 -0.5218
  999Na+     N115539   0.104   4.721   0.857  0.5028  0.2535  0.1104
 1000Na+     N115540   4.529   0.404   4.777  0.1951 -0.0297 -0.8640
 1001Na+     N115541   0.833   1.245   3.148  0.2930  0.2772 -0.3243
 1002Na+     N115542   0.651   2.257   3.955 -0.1926 -0.5206 -0.1618
 1003Na+     N115543   4.151   4.072   0.507  0.0309  0.0746 -0.2107
 1004Na+     N115544   1.744   4.996   2.049  0.0489  0.1462  0.7553
 1005Na+     N115545   2.926   2.676   4.278 -0.6280  0.0992 -0.6344
 1006Na+     N115546   3.789   4.658   1.993  0.0919 -0.4014 -0.0293
 1007Na+     N115547   3.906   0.167   4.187  0.0904 -0.0606 -0.2507
 1008Na+     N115548   1.436   2.809   4.010  0.4348 -0.2623 -0.2879
 1009Na+     N115549   3.025   1.757   2.273  0.4404 -0.0098  0.0901
 1010Na+     N115550   4.124   2.887   2.225  0.0071  0.0966  0.1811
 1011Na+     N115551   2.319   0.536   2.176 -0.9307 -0.4144  0.0995
 1012Na+     N115552   2.205   0.643   4.361  0.2021  0.1136  0.2801
 1013Na+     N115553   0.126   0.615   0.413 -0.4966 -0.0912  0.3802
 1014Na+     N115554   2.280   2.969   4.022 -0.4618 -0.0770  0.0397
 1015Na+     N115555   4.704   4.707   4.285  0.0878  0.1130  0.4298
 1016Na+     N115556   3.783   1.053   0.607  0.1018  0.8013 -0.3709
 1017Na+     N115557   0.413   0.903   1.348 -0.9229  0.1961  0.0497
 1018Na+     N115558   5.344   3.035   2.056  0.0109  0.5357 -0.2470
 1019Na+     N115559   1.285   4.201   2.825  0.1529 -0.4616  0.4786
 1020Na+     N115560   0.285   3.201   4.939  0.1856 -0.1648 -0.2297
   5.50134   5.50134   5.50134
