DG-THF-PF6-Na    Amber RESP
15560
    1DG      C1    1   2.294   0.676   1.665  0.4124  0.6315  0.0244
    1DG      C2    2   2.161   1.360   1.971 -0.4400  0.0184  0.2675
    1DG      H3    3   2.221   0.701   1.588  0.4219 -0.8685 -0.5055
    1DG      H4    4   2.289   0.572   1.698 -1.4517  0.5677 -0.3529
    1DG      H5    5   2.392   0.709   1.632  0.8949  0.4378  1.1881
    1DG      H6    6   2.090   1.398   2.044 -0.9986  0.2055 -0.3606
    1DG      H7    7   2.241   1.431   1.950 -0.3825  0.0660  0.6387
    1DG      H8    8   2.098   1.357   1.882 -0.5168 -1.9792  0.3531
    1DG      O9    9   2.274   0.758   1.784 -0.6265 -0.7294 -0.0319
    1DG     O10   10   2.217   1.231   2.011 -0.4213 -0.0136  0.2039
    1DG     C11   11   2.361   0.748   1.896 -0.1700  0.6475  0.2843
    1DG     C12   12   2.315   1.198   1.919  0.5776  0.2148  0.5915
    1DG     H13   13   2.463   0.772   1.868  0.0354 -0.1374  0.3592
    1DG     H14   14   2.360   0.643   1.925 -1.5596  0.8290  0.9916
    1DG     H15   15   2.404   1.261   1.930  1.9539 -0.7909 -3.2382
    1DG     H16   16   2.282   1.208   1.815  2.1871  1.9055  0.1841
    1DG     C17   17   2.311   0.839   2.009  0.5753  0.6859 -0.0239
    1DG     C18   18   2.368   1.054   1.940  0.3545 -0.1205  0.2428
    1DG     O19   19   2.266   0.963   1.963 -0.6078 -0.5587 -0.1521
    1DG     H20   20   2.370   0.838   2.100 -1.5511 -1.4094  1.4458
    1DG     H21   21   2.213   0.802   2.038 -0.5354  4.5628  1.6854
    1DG     H22   22   2.431   1.013   1.860  1.5098  0.6267  0.7407
    1DG     H23   23   2.432   1.058   2.028 -0.6055  1.5240  0.9095
    2DG      C1   24   3.318   2.319   4.962 -0.6492  0.0314  0.0776
    2DG      C2   25   3.468   2.420   4.287  0.0717 -0.3417  0.3956
    2DG      H3   26   3.293   2.390   5.041  0.8737 -1.0414  1.6228
    2DG      H4   27   3.377   2.244   5.015  1.4548  1.6297  0.1581
    2DG      H5   28   3.221   2.282   4.929 -0.9755 -0.5433  1.5902
    2DG      H6   29   3.361   2.404   4.271  0.0624 -1.4592  1.4006
    2DG      H7   30   3.507   2.475   4.202  0.9949 -2.0543 -0.3479
    2DG      H8   31   3.522   2.325   4.285  2.4042  0.9465 -1.2652
    2DG      O9   32   3.394   2.371   4.852  0.0931  0.0895 -0.0560
    2DG     O10   33   3.481   2.477   4.415  0.1419 -0.1553 -0.0445
    2DG     C11   34   3.513   2.441   4.896 -0.2611  0.2909 -0.0375
    2DG     C12   35   3.624   2.494   4.453 -0.2249  0.6555  0.1070
    2DG     H13   36   3.576   2.383   4.964  2.0005  1.5998 -0.9201
    2DG     H14   37   3.478   2.536   4.936  0.3301  0.8911 -0.8940
    2DG     H15   38   3.674   2.538   4.366  2.1736 -0.1987  0.9477
    2DG     H16   39   3.667   2.394   4.462 -0.7391  0.5707  1.9392
    2DG     C17   40   3.607   2.457   4.779 -0.2443 -0.0479  0.2588
    2DG     C18   41   3.623   2.584   4.576 -0.7877  0.6781 -0.0716
    2DG     O19   42   3.540   2.540   4.683 -0.0327  0.2940 -0.2081
    2DG     H20   43   3.629   2.360   4.733  1.0207  0.1717  0.3485
    2DG     H21   44   3.707   2.496   4.802  0.0926 -0.6171 -0.2014
    2DG     H22   45   3.729   2.596   4.602 -0.5324 -1.1334 -0.1295
    2DG     H23   46   3.581   2.679   4.543 -3.4288 -0.3965 -0.0484
    3DG      C1   47   2.777   1.777   1.853 -0.2251 -0.4659 -0.3189
    3DG      C2   48   3.075   2.385   1.760  0.5778  0.1099 -0.5184
    3DG      H3   49   2.725   1.777   1.757 -1.1967 -0.1447  0.1959
    3DG      H4   50   2.731   1.701   1.916  1.3822 -0.0305  1.4730
    3DG      H5   51   2.878   1.746   1.827 -0.5097 -1.1751 -0.5954
    3DG      H6   52   3.022   2.403   1.667 -2.0054  3.3031  1.3679
    3DG      H7   53   3.105   2.484   1.796 -0.4645  0.3734 -0.3343
    3DG      H8   54   3.165   2.331   1.731 -0.0404 -1.0313 -0.3772
    3DG      O9   55   2.781   1.896   1.934 -0.1022  0.3173  0.3915
    3DG     O10   56   2.989   2.317   1.855 -0.1992 -0.3470  0.7543
    3DG     C11   57   2.650   1.955   1.939  0.1811 -0.4857 -0.1328
    3DG     C12   58   2.862   2.378   1.854  0.4981  0.0067  0.1825
    3DG     H13   59   2.582   1.893   1.998  0.4516 -1.1873 -0.5348
    3DG     H14   60   2.622   1.961   1.833  0.2068 -0.6871 -0.1515
    3DG     H15   61   2.822   2.385   1.753  3.5290 -2.4308 -1.3874
    3DG     H16   62   2.878   2.480   1.889  0.2254  0.7159 -1.6909
    3DG     C17   63   2.652   2.104   1.992  0.7635  0.1099 -0.6510
    3DG     C18   64   2.753   2.307   1.944 -0.0806 -0.0059  0.1498
    3DG     O19   65   2.758   2.169   1.918 -0.3064  0.8703 -0.4662
    3DG     H20   66   2.668   2.102   2.100 -0.8727 -4.0519 -0.3028
    3DG     H21   67   2.552   2.146   1.985  0.2570 -0.3818  2.1720
    3DG     H22   68   2.768   2.330   2.049  0.4105  1.8514 -0.2894
    3DG     H23   69   2.654   2.345   1.919 -0.0975 -0.1967 -0.0772
    4DG      C1   70   3.513   4.762   4.672 -1.0103 -0.4621 -0.2817
    4DG      C2   71   4.001   4.602   5.108 -0.0506 -0.4636 -0.4103
    4DG      H3   72   3.420   4.770   4.615 -1.5887 -0.8412  0.5859
    4DG      H4   73   3.598   4.771   4.604  0.7695 -3.5733  1.3159
    4DG      H5   74   3.519   4.851   4.734  0.5912  0.0485 -1.1095
    4DG      H6   75   4.030   4.528   5.182  1.2470 -0.7341 -1.1459
    4DG      H7   76   4.074   4.597   5.027  0.3171  0.0018 -0.1100
    4DG      H8   77   3.992   4.703   5.149  1.9510 -0.4164  0.0136
    4DG      O9   78   3.536   4.648   4.769 -0.1665 -0.3158 -0.0171
    4DG     O10   79   3.871   4.579   5.051 -0.2365 -0.0903 -0.4036
    4DG     C11   80   3.421   4.632   4.850  0.2550 -0.5489  0.2920
    4DG     C12   81   3.776   4.579   5.156  0.7643 -0.1492  0.3906
    4DG     H13   82   3.337   4.607   4.786  0.6134  0.4234 -0.5795
    4DG     H14   83   3.403   4.731   4.892 -0.5266 -1.3562  1.9614
    4DG     H15   84   3.755   4.677   5.199 -0.6321 -0.9410  1.6310
    4DG     H16   85   3.806   4.530   5.249 -3.2289 -0.2402  1.8258
    4DG     C17   86   3.457   4.541   4.978 -0.2476 -0.3181  0.2486
    4DG     C18   87   3.640   4.515   5.125 -0.0307  0.4289  1.0117
    4DG     O19   88   3.585   4.584   5.022 -0.2625 -0.5977  0.3007
    4DG     H20   89   3.464   4.434   4.959 -2.0362 -0.8100  1.9936
    4DG     H21   90   3.376   4.546   5.051 -2.2371  0.0725 -1.8521
    4DG     H22   91   3.647   4.408   5.103  0.2649  0.7509 -0.5691
    4DG     H23   92   3.584   4.529   5.217 -0.0624 -0.9415  1.2275
    5DG      C1   93   5.171   2.067   2.003  0.0346  0.4373 -0.0654
    5DG      C2   94   4.687   1.518   1.734 -0.1375 -0.4440 -0.8192
    5DG      H3   95   5.202   1.969   2.039  3.0511  1.0605 -0.6877
    5DG      H4   96   5.162   2.139   2.084  1.4752  1.0925 -0.4383
    5DG      H5   97   5.255   2.104   1.943 -1.3257  0.6910 -1.9026
    5DG      H6   98   4.676   1.438   1.808  1.7820  0.3777  0.4293
    5DG      H7   99   4.601   1.518   1.667 -1.9993 -0.3550  1.4502
    5DG      H8  100   4.780   1.499   1.681  1.3892  0.6709  1.3044
    5DG      O9  101   5.044   2.063   1.931 -0.1330  0.0609 -0.5298
    5DG     O10  102   4.696   1.653   1.789  0.0798  0.0077 -0.0605
    5DG     C11  103   4.939   2.036   2.015  0.0977 -0.2771  0.3544
    5DG     C12  104   4.705   1.759   1.697  0.6168 -0.0192 -0.0092
    5DG     H13  105   4.933   2.121   2.083  0.3322  0.0515 -0.0296
    5DG     H14  106   4.941   1.951   2.083 -0.6959 -0.1903  0.4980
    5DG     H15  107   4.627   1.750   1.621  1.3371  0.3093 -0.8139
    5DG     H16  108   4.800   1.757   1.643  0.1428 -0.1274 -0.8650
    5DG     C17  109   4.815   2.038   1.919 -0.1996  0.9340  0.8475
    5DG     C18  110   4.695   1.886   1.784 -0.4243 -0.4624  0.1574
    5DG     O19  111   4.818   1.917   1.845 -0.2309  0.4312 -0.4430
    5DG     H20  112   4.826   2.122   1.851  2.4021 -0.7092 -0.9367
    5DG     H21  113   4.729   2.042   1.985  0.1823 -0.8538  1.5058
    5DG     H22  114   4.679   1.972   1.718  4.1902  0.0891 -0.6153
    5DG     H23  115   4.618   1.885   1.861 -1.0090 -1.2141 -0.4233
    6DG      C1  116   4.195   0.127   1.997  0.1043  0.5924 -0.0591
    6DG      C2  117   4.013  -0.062   1.302 -0.1682  0.0307  0.9339
    6DG      H3  118   4.228   0.217   2.050 -2.6429  2.7957 -1.8210
    6DG      H4  119   4.195   0.054   2.078 -1.8600  0.5602 -0.0607
    6DG      H5  120   4.093   0.140   1.962 -0.1124 -0.0920  0.2865
    6DG      H6  121   4.038  -0.055   1.197  1.9932  1.3260  1.4618
    6DG      H7  122   4.039  -0.162   1.337  0.7253  0.1500  0.6310
    6DG      H8  123   3.905  -0.052   1.309 -0.1206 -0.0021  1.8588
    6DG      O9  124   4.274   0.083   1.889  0.1754  0.5334  0.4358
    6DG     O10  125   4.080   0.043   1.370  0.4208  0.1738  0.2998
    6DG     C11  126   4.305   0.188   1.791  0.0624  0.5932  0.8769
    6DG     C12  127   4.215   0.059   1.354 -0.4301 -0.3420  0.0442
    6DG     H13  128   4.371   0.262   1.837  0.4050 -0.0205  1.3946
    6DG     H14  129   4.210   0.235   1.766  0.1023  0.0589 -0.3501
    6DG     H15  130   4.242   0.164   1.363  1.1643 -0.5996 -1.3192
    6DG     H16  131   4.246   0.031   1.254  0.4841 -0.6115  0.3944
    6DG     C17  132   4.356   0.126   1.653 -0.0323  0.0993 -0.1567
    6DG     C18  133   4.294  -0.010   1.465 -0.1551 -1.0750  1.0053
    6DG     O19  134   4.263   0.032   1.600 -0.7949 -0.1957  0.3241
    6DG     H20  135   4.458   0.089   1.641 -0.4919 -0.5508 -2.6677
    6DG     H21  136   4.346   0.204   1.578 -0.4262 -1.5473 -1.8896
    6DG     H22  137   4.284  -0.118   1.463 -2.6125 -0.9966 -3.3205
    6DG     H23  138   4.396   0.018   1.437 -0.7429 -0.8398 -1.1589
    7DG      C1  139   0.978   3.278   1.041 -0.5000 -0.5038  0.3822
    7DG      C2  140   0.537   2.666   0.654  0.0294  0.0947  0.4450
    7DG      H3  141   1.077   3.324   1.043 -0.1974 -1.1819  1.3043
    7DG      H4  142   0.927   3.302   1.134  2.0185  2.1037  1.2441
    7DG      H5  143   0.928   3.342   0.968  2.7623  1.2273 -0.5436
    7DG      H6  144   0.545   2.738   0.572  0.7109 -0.1814  0.2626
    7DG      H7  145   0.522   2.564   0.619 -0.8830  0.3512  0.0337
    7DG      H8  146   0.439   2.670   0.701  0.1789  1.0322  0.6979
    7DG      O9  147   0.977   3.144   0.996 -0.1855  0.9001 -0.1714
    7DG     O10  148   0.651   2.677   0.744  0.1196 -0.4108  0.4810
    7DG     C11  149   1.002   3.131   0.863 -0.2987 -0.1109  0.1341
    7DG     C12  150   0.675   2.808   0.786 -0.8393  0.8534 -0.0997
    7DG     H13  151   1.107   3.155   0.843 -0.8679  2.1660 -0.4734
    7DG     H14  152   0.937   3.203   0.812  0.0338  0.0320 -0.0957
    7DG     H15  153   0.616   2.821   0.877 -1.2718 -1.1845 -0.0221
    7DG     H16  154   0.641   2.886   0.719 -0.0345  1.4926  0.2218
    7DG     C17  155   0.992   2.993   0.804  0.5542  0.2669  0.2170
    7DG     C18  156   0.827   2.824   0.783 -0.4657  0.2465 -0.3059
    7DG     O19  157   0.852   2.952   0.828  0.0335  0.2923  0.7824
    7DG     H20  158   1.056   2.923   0.857 -0.8906  0.5589  2.4744
    7DG     H21  159   1.026   2.993   0.700  0.1347 -2.7769 -0.0082
    7DG     H22  160   0.883   2.752   0.842  0.4291  2.6848  1.9935
    7DG     H23  161   0.863   2.802   0.682 -1.9269 -2.0226 -0.4181
    8DG      C1  162   5.161   0.728   1.572 -0.1100 -0.0726 -0.4945
    8DG      C2  163   4.845   1.379   1.384 -0.0848  0.7993  0.3938
    8DG      H3  164   5.148   0.621   1.555  0.2567 -0.3315  0.7944
    8DG      H4  165   5.146   0.740   1.679  0.7652  1.2700 -0.5038
    8DG      H5  166   5.268   0.739   1.555 -0.1232 -1.4939 -1.7882
    8DG      H6  167   4.742   1.411   1.368 -0.3489 -0.1449  0.1122
    8DG      H7  168   4.901   1.472   1.396  1.5178 -0.1319  0.5288
    8DG      H8  169   4.892   1.328   1.300  0.7463 -1.0070  1.8795
    8DG      O9  170   5.088   0.822   1.489 -0.5116 -0.9287  0.2278
    8DG     O10  171   4.834   1.302   1.498 -0.1680 -0.1901  0.1275
    8DG     C11  172   4.947   0.802   1.486 -0.2572  0.5533 -0.5931
    8DG     C12  173   4.960   1.250   1.535  0.0497 -0.1855 -0.1060
    8DG     H13  174   4.905   0.802   1.587 -0.1872  2.7355 -0.5120
    8DG     H14  175   4.918   0.709   1.438 -0.8322 -0.0939  0.9611
    8DG     H15  176   4.958   1.225   1.642 -0.9451 -0.9223 -0.2860
    8DG     H16  177   5.054   1.304   1.520 -0.1575  0.7403  1.6042
    8DG     C17  178   4.869   0.914   1.411 -0.4796 -0.1907  0.0614
    8DG     C18  179   4.986   1.109   1.474  0.0922 -0.2982  0.3982
    8DG     O19  180   4.863   1.040   1.476  0.5695 -0.5648  0.6410
    8DG     H20  181   4.761   0.896   1.406 -0.6362  0.7828 -0.2480
    8DG     H21  182   4.901   0.916   1.307 -0.7175  0.7257 -0.0013
    8DG     H22  183   5.013   1.105   1.369 -0.0475  1.5260  0.2632
    8DG     H23  184   5.061   1.058   1.535  2.1960  2.1898  0.0561
    9DG      C1  185   0.949   3.947   0.154 -0.0912 -0.3025 -0.9303
    9DG      C2  186   0.925   3.427   0.542  0.9188 -0.4748  0.1146
    9DG      H3  187   0.966   3.908   0.054  0.9402 -4.1265  0.5591
    9DG      H4  188   1.050   3.961   0.192 -1.0323  2.1271  0.9378
    9DG      H5  189   0.893   4.038   0.134 -0.7007 -0.5752 -0.4921
    9DG      H6  190   1.034   3.433   0.534  1.1741  1.6584  3.1716
    9DG      H7  191   0.909   3.390   0.643  1.5389 -0.7939  0.1012
    9DG      H8  192   0.876   3.364   0.468  1.4628 -2.2013  1.1636
    9DG      O9  193   0.876   3.853   0.231 -0.7600  0.0284 -0.3155
    9DG     O10  194   0.868   3.558   0.516  0.7692 -0.3890 -0.4711
    9DG     C11  195   0.737   3.875   0.222 -0.2503 -0.3676 -0.1592
    9DG     C12  196   0.724   3.547   0.532 -0.2047  0.0286  0.7635
    9DG     H13  197   0.715   3.870   0.115 -0.3178  0.7545 -0.2043
    9DG     H14  198   0.708   3.971   0.265  1.9727 -0.1353  0.9735
    9DG     H15  199   0.701   3.502   0.628  2.2763 -1.6171  0.6814
    9DG     H16  200   0.684   3.491   0.448  0.6979 -0.6611  0.7731
    9DG     C17  201   0.661   3.772   0.304  0.0767  0.1035  1.0305
    9DG     C18  202   0.671   3.691   0.527  0.0436 -0.8404  0.5552
    9DG     O19  203   0.720   3.790   0.432 -0.5116 -0.3286 -0.3063
    9DG     H20  204   0.681   3.674   0.260 -2.2999  0.2779 -0.6365
    9DG     H21  205   0.553   3.783   0.304 -0.2389 -2.2008 -0.3529
    9DG     H22  206   0.563   3.700   0.540  0.1385 -1.5255  2.0461
    9DG     H23  207   0.710   3.738   0.617  1.3836  2.2848 -1.5162
   10DG      C1  208   3.800   0.309   5.464 -0.5707 -0.2667 -0.0142
   10DG      C2  209   3.263   0.013   5.695 -0.2636  0.4304 -0.7206
   10DG      H3  210   3.739   0.362   5.390  0.5741  2.2968  0.7952
   10DG      H4  211   3.817   0.204   5.438 -0.3249 -0.2386  0.0348
   10DG      H5  212   3.889   0.368   5.487 -0.2182 -0.9865  0.5034
   10DG      H6  213   3.242   0.017   5.589  0.1103  1.4994 -0.7613
   10DG      H7  214   3.318  -0.076   5.724 -0.8500 -0.4092 -2.0866
   10DG      H8  215   3.168   0.005   5.749  0.5962  0.0606  0.7999
   10DG      O9  216   3.728   0.300   5.586  0.0550 -0.1282 -0.0654
   10DG     O10  217   3.329   0.131   5.746 -0.5978  0.4724 -0.0323
   10DG     C11  218   3.693   0.429   5.639 -0.6283  0.0667  0.2402
   10DG     C12  219   3.263   0.253   5.761 -0.3881 -0.4996 -0.2724
   10DG     H13  220   3.649   0.499   5.568 -1.7707 -0.4138  0.4620
   10DG     H14  221   3.787   0.479   5.664 -0.2685 -0.8547  0.7852
   10DG     H15  222   3.189   0.241   5.840 -0.0342  2.2984  0.6179
   10DG     H16  223   3.229   0.288   5.664 -0.8890  0.9441  0.3940
   10DG     C17  224   3.608   0.415   5.762 -0.5512  0.4609  0.5120
   10DG     C18  225   3.367   0.358   5.814  0.4513  0.1842 -0.2011
   10DG     O19  226   3.471   0.381   5.719 -0.3260 -0.1300 -0.4059
   10DG     H20  227   3.605   0.508   5.819 -1.4607  0.0570  1.1551
   10DG     H21  228   3.649   0.337   5.825 -0.9906 -0.8765 -0.7923
   10DG     H22  229   3.303   0.445   5.829 -0.0995  0.1132 -2.0074
   10DG     H23  230   3.409   0.321   5.908 -2.0251 -0.3531  0.7783
   11DG      C1  231   3.228   4.529   1.254 -0.0123 -0.0148 -0.4692
   11DG      C2  232   2.790   3.984   1.041 -0.2252  0.5905  0.2470
   11DG      H3  233   3.322   4.490   1.213 -1.2096 -1.5102 -1.9349
   11DG      H4  234   3.253   4.583   1.345 -3.7142 -1.3406  1.5223
   11DG      H5  235   3.194   4.594   1.174  3.7341 -1.9602 -4.0607
   11DG      H6  236   2.695   4.009   0.993 -0.2904 -1.1896 -0.6435
   11DG      H7  237   2.862   3.973   0.961 -0.7634  1.2742 -0.3443
   11DG      H8  238   2.799   3.884   1.085 -0.4958  0.2637 -0.4203
   11DG      O9  239   3.133   4.425   1.288 -0.0820  0.4985 -0.4206
   11DG     O10  240   2.836   4.083   1.129 -0.4064 -0.5785 -0.5386
   11DG     C11  241   3.154   4.360   1.414  0.4240  0.4072 -0.9221
   11DG     C12  242   2.805   4.041   1.265 -0.5373 -0.4861 -0.3815
   11DG     H13  243   3.187   4.431   1.490 -0.2920 -0.8641  0.6469
   11DG     H14  244   3.242   4.296   1.408 -0.4084 -0.7179 -1.6756
   11DG     H15  245   2.864   3.955   1.296 -0.4658 -0.3113 -0.0208
   11DG     H16  246   2.698   4.023   1.275 -1.4519  1.9693 -3.8719
   11DG     C17  247   3.036   4.279   1.456  0.0098 -0.6914 -0.0866
   11DG     C18  248   2.852   4.160   1.360 -0.8737 -0.6596 -0.1705
   11DG     O19  249   2.997   4.183   1.350  0.4368 -0.1752  0.2959
   11DG     H20  250   2.962   4.358   1.472  1.3498  0.3213  1.4599
   11DG     H21  251   3.072   4.221   1.541  0.3973  1.3621  1.2410
   11DG     H22  252   2.795   4.252   1.347 -1.8175 -1.1037  0.7261
   11DG     H23  253   2.820   4.137   1.461 -1.7300  1.8913  0.2306
   12DG      C1  254   2.634   2.124   0.553  0.2994 -0.4116 -0.3633
   12DG      C2  255   3.256   2.137   0.828 -0.0425 -0.3449 -0.6111
   12DG      H3  256   2.530   2.150   0.535  0.5372  0.1169 -1.0211
   12DG      H4  257   2.647   2.017   0.570 -1.5525 -0.6372 -0.1477
   12DG      H5  258   2.692   2.150   0.465 -0.8385 -0.0467 -1.0290
   12DG      H6  259   3.334   2.212   0.822 -0.3234  0.0496  0.5140
   12DG      H7  260   3.279   2.107   0.930 -0.9036  0.4483 -0.1751
   12DG      H8  261   3.276   2.057   0.755  0.5454  0.6059 -1.5221
   12DG      O9  262   2.684   2.201   0.658 -0.2046 -0.2882 -0.3550
   12DG     O10  263   3.124   2.185   0.821  0.1970  0.1029  0.5932
   12DG     C11  264   2.721   2.339   0.629 -0.7639  0.2488  0.0968
   12DG     C12  265   3.112   2.305   0.906 -0.5201  0.4682 -0.0527
   12DG     H13  266   2.641   2.408   0.604 -0.5994  1.9373  3.6687
   12DG     H14  267   2.790   2.335   0.545 -0.1048  0.0800  0.6311
   12DG     H15  268   3.188   2.380   0.883 -0.1753  0.0456 -0.3129
   12DG     H16  269   3.134   2.276   1.009  0.7060 -0.6217 -0.5812
   12DG     C17  270   2.797   2.400   0.755 -0.4576 -0.3847  0.2946
   12DG     C18  271   2.973   2.361   0.902 -0.5353 -0.4324  0.1403
   12DG     O19  272   2.916   2.337   0.776  0.1697  0.1739  0.2092
   12DG     H20  273   2.735   2.399   0.845 -1.7401 -0.5336 -0.5614
   12DG     H21  274   2.817   2.506   0.740  2.5982 -0.3167  3.5368
   12DG     H22  275   2.916   2.315   0.983 -0.2064 -0.1198  0.5553
   12DG     H23  276   2.976   2.468   0.925 -0.3389 -0.2523 -0.6921
   13DG      C1  277   2.820   5.440   4.204 -0.3825 -0.4678 -1.0827
   13DG      C2  278   3.125   5.793   4.659  0.4137  0.6031 -0.0474
   13DG      H3  279   2.769   5.448   4.108  0.0227 -0.4666 -1.2981
   13DG      H4  280   2.803   5.345   4.256  3.4087  0.1186  1.6433
   13DG      H5  281   2.926   5.451   4.181  0.2908  2.5389  2.4636
   13DG      H6  282   3.099   5.881   4.718  1.1227 -0.2224  1.5626
   13DG      H7  283   3.166   5.722   4.731 -0.6326  1.2273  1.2017
   13DG      H8  284   3.208   5.829   4.598 -1.3650  0.4848 -2.6644
   13DG      O9  285   2.800   5.545   4.298  0.3795 -0.1624 -0.1791
   13DG     O10  286   3.018   5.741   4.590 -0.1277  0.0702  0.5205
   13DG     C11  287   2.666   5.574   4.343  0.3025 -0.2228 -0.1015
   13DG     C12  288   2.918   5.693   4.679  0.1626  0.3838  0.2535
   13DG     H13  289   2.638   5.493   4.410  2.4118 -1.4640 -0.6177
   13DG     H14  290   2.604   5.578   4.254  0.0423  0.1573  0.0935
   13DG     H15  291   2.890   5.776   4.744  2.2892  0.8424  0.6410
   13DG     H16  292   2.955   5.612   4.742  0.9304  0.3031 -0.2886
   13DG     C17  293   2.658   5.708   4.405  0.4498  0.3595 -0.1221
   13DG     C18  294   2.801   5.642   4.593  0.4653 -0.3882 -0.0729
   13DG     O19  295   2.770   5.736   4.489 -0.6353  0.7187 -0.1102
   13DG     H20  296   2.560   5.716   4.454  0.2416  1.3018 -0.6838
   13DG     H21  297   2.645   5.779   4.324 -1.7807 -0.4194 -0.5266
   13DG     H22  298   2.832   5.547   4.551 -0.3456 -0.3672 -0.7423
   13DG     H23  299   2.713   5.635   4.657 -0.3292  2.4504 -0.7124
   14DG      C1  300   4.706   0.274   2.532 -0.0538  0.0023 -0.4548
   14DG      C2  301   4.675  -0.121   3.070  0.1898  0.4351 -0.0113
   14DG      H3  302   4.728   0.295   2.427  2.5726  1.9252  0.3651
   14DG      H4  303   4.769   0.339   2.592 -0.9989  0.5709 -0.0442
   14DG      H5  304   4.604   0.313   2.546  0.2951  1.2177 -1.1138
   14DG      H6  305   4.657  -0.206   3.136  1.6694 -1.4546 -1.8792
   14DG      H7  306   4.768  -0.078   3.107  0.1567  1.9466 -1.5863
   14DG      H8  307   4.593  -0.056   3.101  2.1560  1.4810  3.5639
   14DG      O9  308   4.715   0.139   2.565  0.7522 -0.0754 -0.2157
   14DG     O10  309   4.673  -0.159   2.930 -0.0862 -0.9748 -0.6167
   14DG     C11  310   4.834   0.077   2.521  0.2943  0.0927 -0.6276
   14DG     C12  311   4.770  -0.248   2.889 -0.6260  0.1905  0.6022
   14DG     H13  312   4.925   0.116   2.567 -2.1841  3.2734  2.1624
   14DG     H14  313   4.857   0.095   2.416  3.3027 -1.5844 -0.3826
   14DG     H15  314   4.743  -0.348   2.924  1.3832  0.0918  2.0315
   14DG     H16  315   4.867  -0.245   2.938 -0.2804 -0.9790  0.0166
   14DG     C17  316   4.833  -0.070   2.556 -0.1025 -0.1648  0.1899
   14DG     C18  317   4.796  -0.228   2.736 -0.1428 -0.7379 -0.1739
   14DG     O19  318   4.793  -0.086   2.693  0.1161 -0.1080 -0.0889
   14DG     H20  319   4.933  -0.114   2.560  0.4531  1.0437  3.6049
   14DG     H21  320   4.768  -0.134   2.497 -2.0786  0.4850  1.5426
   14DG     H22  321   4.883  -0.286   2.703 -0.9573 -2.1935  0.1513
   14DG     H23  322   4.705  -0.270   2.694 -0.1558 -2.3913  1.3891
   15DG      C1  323   4.309   4.175   4.944  0.1177 -0.0199  0.0211
   15DG      C2  324   4.143   4.089   5.684 -0.7897  0.2909  0.3462
   15DG      H3  325   4.336   4.077   4.983 -1.9822  0.1882  2.2589
   15DG      H4  326   4.410   4.215   4.937  0.8047 -1.4610  1.1692
   15DG      H5  327   4.263   4.162   4.846 -1.8211 -1.2845  1.0292
   15DG      H6  328   4.080   4.141   5.756 -3.3473 -0.2912 -1.3518
   15DG      H7  329   4.155   3.983   5.707 -0.0838  0.2498 -0.1729
   15DG      H8  330   4.241   4.130   5.710  0.3326 -0.7300 -1.9490
   15DG      O9  331   4.223   4.238   5.035  0.0866 -0.5097  0.4995
   15DG     O10  332   4.103   4.119   5.555 -0.3691 -0.1731  0.4028
   15DG     C11  333   4.111   4.157   5.062 -0.0221 -0.0609  0.3245
   15DG     C12  334   4.092   4.258   5.535 -0.5155  0.0760  0.8817
   15DG     H13  335   4.146   4.055   5.071 -0.0474 -0.3799 -2.3894
   15DG     H14  336   4.045   4.155   4.975  0.5662 -1.8754 -0.1015
   15DG     H15  337   4.197   4.284   5.531 -0.4080 -0.4529 -1.3595
   15DG     H16  338   4.041   4.313   5.614 -1.1166 -0.9224  1.2122
   15DG     C17  339   4.028   4.214   5.177  1.2384  0.9630  0.1156
   15DG     C18  340   4.026   4.286   5.397 -0.0358 -0.3186 -0.4527
   15DG     O19  341   4.106   4.230   5.299 -0.2511 -0.0829  0.4979
   15DG     H20  342   3.943   4.152   5.206  1.3891  1.1494  0.9899
   15DG     H21  343   3.982   4.300   5.129  1.2005  1.1128  0.4143
   15DG     H22  344   3.934   4.230   5.413 -0.2414 -0.5024 -2.0842
   15DG     H23  345   4.009   4.393   5.381  1.5782  0.0806  0.3098
   16DG      C1  346   3.912   5.236   4.626 -0.0772 -0.2771  0.2309
   16DG      C2  347   3.976   5.080   3.916  0.5611  0.0766  0.0709
   16DG      H3  348   3.989   5.189   4.688 -0.3500  2.6777  3.0904
   16DG      H4  349   3.842   5.163   4.585 -1.9523  1.2054  0.6391
   16DG      H5  350   3.855   5.310   4.682 -1.1687  0.9778 -2.3596
   16DG      H6  351   4.006   4.979   3.942  0.3561 -0.2954 -1.1217
   16DG      H7  352   3.870   5.076   3.892  0.3240  1.6005  0.7619
   16DG      H8  353   4.033   5.115   3.830  0.9917  2.1889  1.1374
   16DG      O9  354   3.961   5.300   4.519  0.4470  0.2565  0.3988
   16DG     O10  355   4.001   5.171   4.020 -0.2861 -0.2376 -0.2135
   16DG     C11  356   3.878   5.394   4.467 -0.0182 -1.0124  0.6565
   16DG     C12  357   3.950   5.298   3.986 -0.1380 -0.1769  0.3342
   16DG     H13  358   3.850   5.477   4.532  0.9527  0.1360 -0.3525
   16DG     H14  359   3.787   5.341   4.439 -1.9983  2.1980  0.5562
   16DG     H15  360   3.845   5.285   3.961  0.2315  0.0184 -1.4322
   16DG     H16  361   3.995   5.346   3.899 -0.4078  0.4935  0.5610
   16DG     C17  362   3.935   5.446   4.328  0.0038  0.1934 -0.4467
   16DG     C18  363   3.971   5.397   4.102 -0.1232 -0.7060  0.2153
   16DG     O19  364   3.940   5.341   4.232  0.6482  0.1934 -0.1998
   16DG     H20  365   4.036   5.486   4.334 -0.1282  0.3652  1.3242
   16DG     H21  366   3.878   5.534   4.300  1.3735  0.9167 -1.0712
   16DG     H22  367   4.068   5.445   4.105 -0.7054  0.4618  1.3572
   16DG     H23  368   3.909   5.485   4.084  0.6339 -0.3851 -1.0049
   17DG      C1  369   4.531   0.255   2.134  0.8020 -0.1488  0.5961
   17DG      C2  370   5.205  -0.179   2.349  0.1577  0.6482 -0.2166
   17DG      H3  371   4.502   0.248   2.029  4.1408  0.1679 -0.4748
   17DG      H4  372   4.522   0.358   2.167  1.2960 -0.4448  1.6938
   17DG      H5  373   4.453   0.203   2.190  0.5186  1.2372  1.5417
   17DG      H6  374   5.119  -0.192   2.414  0.5772 -0.6521  0.1035
   17DG      H7  375   5.256  -0.275   2.358  1.1543  1.3259  2.1432
   17DG      H8  376   5.273  -0.103   2.387  2.5181 -0.0998 -2.6730
   17DG      O9  377   4.658   0.204   2.152 -0.1184 -0.0782 -0.1716
   17DG     O10  378   5.176  -0.163   2.212 -0.5110 -0.5146  0.1053
   17DG     C11  379   4.757   0.272   2.087 -0.0805  0.0758 -0.5516
   17DG     C12  380   5.045  -0.113   2.181 -0.2522 -0.0450 -0.0102
   17DG     H13  381   4.747   0.380   2.102  2.2800  0.2177  0.3225
   17DG     H14  382   4.746   0.258   1.979 -2.9403 -1.8805 -0.1188
   17DG     H15  383   4.979  -0.154   2.257  0.7794 -1.9051 -0.0625
   17DG     H16  384   5.023  -0.156   2.084  1.8916 -1.2989  0.0047
   17DG     C17  385   4.897   0.237   2.132 -0.2812 -0.0351  0.1088
   17DG     C18  386   5.033   0.045   2.173  0.5916  0.4891 -0.2801
   17DG     O19  387   4.906   0.093   2.125  0.4671 -0.1559 -0.0775
   17DG     H20  388   4.909   0.263   2.237  2.2305  0.1449 -0.1805
   17DG     H21  389   4.972   0.285   2.070 -0.2128 -1.6628 -1.1362
   17DG     H22  390   5.044   0.076   2.277 -0.2346  0.6941 -0.2431
   17DG     H23  391   5.115   0.081   2.111  1.8108  0.6951  1.3825
   18DG      C1  392   1.270   5.342   3.143  0.2415  0.1025  0.0150
   18DG      C2  393   0.866   4.935   3.610  0.2296 -0.1789 -0.0925
   18DG      H3  394   1.292   5.295   3.047  1.4014 -0.2430  0.4259
   18DG      H4  395   1.355   5.321   3.208  0.3370  1.0560  0.2102
   18DG      H5  396   1.249   5.448   3.131 -0.6577  0.3082  2.7246
   18DG      H6  397   0.764   4.934   3.650 -0.1537  0.3875 -1.0182
   18DG      H7  398   0.923   4.847   3.637  1.2125  0.0913 -1.2068
   18DG      H8  399   0.918   5.028   3.635 -0.7997 -0.0201  1.6810
   18DG      O9  400   1.153   5.281   3.198 -0.3757 -0.4756  0.1712
   18DG     O10  401   0.844   4.922   3.470  0.4525 -0.3334 -0.2089
   18DG     C11  402   1.136   5.306   3.340  0.0816  0.8423  0.1885
   18DG     C12  403   0.756   5.016   3.402  0.4372  0.4621  0.0621
   18DG     H13  404   1.177   5.406   3.355 -0.5050  1.2783 -1.0143
   18DG     H14  405   1.201   5.242   3.401 -2.1120 -1.1738  0.5565
   18DG     H15  406   0.664   5.004   3.459 -0.4388  2.2033 -0.9090
   18DG     H16  407   0.735   4.987   3.299 -0.3300  0.0806  0.3189
   18DG     C17  408   0.989   5.303   3.376  0.2072  0.0556  0.3560
   18DG     C18  409   0.798   5.166   3.412 -0.1519 -0.7079 -0.2255
   18DG     O19  410   0.935   5.173   3.360  0.3695  0.0738 -0.4890
   18DG     H20  411   0.925   5.369   3.318 -0.3021 -0.3128  0.4912
   18DG     H21  412   0.982   5.330   3.481 -0.8262 -0.1180  0.3437
   18DG     H22  413   0.729   5.234   3.362  1.4191  0.2171 -1.2622
   18DG     H23  414   0.807   5.195   3.516 -1.8464 -2.8194  0.5939
   19DG      C1  415   4.699   4.232   3.943  0.1679  0.7535 -0.3195
   19DG      C2  416   4.968   3.804   4.484  0.0033 -0.3440  0.3896
   19DG      H3  417   4.614   4.164   3.945  0.7318  0.0376  1.2175
   19DG      H4  418   4.761   4.221   3.854 -0.4965  1.9291 -0.9538
   19DG      H5  419   4.660   4.333   3.928 -1.7079 -0.1449 -2.0166
   19DG      H6  420   5.073   3.807   4.453 -0.2325 -0.8615 -0.4926
   19DG      H7  421   4.973   3.764   4.585  1.7760 -0.4308  0.3008
   19DG      H8  422   4.911   3.745   4.412 -2.5555  1.4592  0.8293
   19DG      O9  423   4.767   4.225   4.066  0.3327 -0.2847 -0.4709
   19DG     O10  424   4.898   3.929   4.463 -0.0123  0.4768  0.4490
   19DG     C11  425   4.702   4.297   4.172 -0.7259  0.4647 -0.1987
   19DG     C12  426   4.967   4.049   4.487 -0.8610 -0.6704 -0.1213
   19DG     H13  427   4.602   4.255   4.179  0.0276 -1.4029 -0.0165
   19DG     H14  428   4.682   4.399   4.140  0.2926  0.2624 -1.6033
   19DG     H15  429   5.059   4.054   4.428 -1.0115  0.5756 -0.2699
   19DG     H16  430   4.996   4.042   4.592 -0.7220  3.2193  0.2558
   19DG     C17  431   4.795   4.298   4.297 -1.2836  0.0518  0.2075
   19DG     C18  432   4.887   4.173   4.469 -0.6632 -0.5009  0.1123
   19DG     O19  433   4.826   4.168   4.341  0.1525  0.6165  0.0036
   19DG     H20  434   4.738   4.350   4.375  1.7480  2.4164  1.0526
   19DG     H21  435   4.877   4.367   4.280 -0.1799 -0.9236  1.3705
   19DG     H22  436   4.812   4.173   4.548 -1.5669 -3.1870 -0.6297
   19DG     H23  437   4.947   4.264   4.476 -2.5040  0.8619 -0.8855
   20DG      C1  438   0.741   1.022   2.035  0.3859 -0.2280 -0.0520
   20DG      C2  439   0.074   1.289   1.943  0.1943  0.5830  0.1637
   20DG      H3  440   0.762   1.054   1.933  0.1497  0.4390  0.1033
   20DG      H4  441   0.721   0.915   2.032 -0.3376 -0.0819 -1.2202
   20DG      H5  442   0.827   1.030   2.101 -1.1944 -1.4264  2.2924
   20DG      H6  443   0.124   1.362   1.879 -0.2386  0.8437  0.1194
   20DG      H7  444   0.035   1.207   1.883  0.5053  0.5498  0.0065
   20DG      H8  445  -0.010   1.332   1.998 -1.9417 -1.4067 -1.3519
   20DG      O9  446   0.616   1.069   2.092  0.2841 -0.3950 -0.0620
   20DG     O10  447   0.173   1.235   2.029  0.1152  0.6476 -0.1657
   20DG     C11  448   0.608   1.027   2.232 -0.2874 -0.4304 -0.2210
   20DG     C12  449   0.130   1.156   2.139 -0.5208 -1.5247 -0.0655
   20DG     H13  450   0.687   1.068   2.294  0.2610  0.4523 -1.4711
   20DG     H14  451   0.615   0.918   2.235 -0.2755 -0.5047 -1.9876
   20DG     H15  452   0.105   1.052   2.115 -2.4926 -1.0267 -0.3035
   20DG     H16  453   0.050   1.212   2.188  1.4088  1.3193  0.0683
   20DG     C17  454   0.470   1.076   2.291 -0.1328  0.1155  0.1769
   20DG     C18  455   0.250   1.141   2.239 -0.0888  0.1654  0.1822
   20DG     O19  456   0.366   1.075   2.196  0.6298 -0.3324  0.7966
   20DG     H20  457   0.479   1.176   2.334  1.1148 -0.1093  0.4906
   20DG     H21  458   0.435   1.018   2.377 -0.5874  0.1416  0.0095
   20DG     H22  459   0.278   1.237   2.284 -0.3758  0.1321  0.4379
   20DG     H23  460   0.205   1.092   2.325 -2.3962  1.4928 -0.1666
   21DG      C1  461   3.256   0.912   4.322 -0.5851 -1.1335 -0.0924
   21DG      C2  462   3.783   1.405   4.011 -0.2631 -0.0466  0.6482
   21DG      H3  463   3.164   0.860   4.297 -2.1048  0.3755  1.9494
   21DG      H4  464   3.253   0.945   4.426 -0.7266 -2.3197  0.2935
   21DG      H5  465   3.351   0.859   4.315 -0.0606 -0.3281  0.6062
   21DG      H6  466   3.753   1.322   3.946  0.7266  1.0920 -1.3558
   21DG      H7  467   3.734   1.493   3.970  1.0319  1.9750  3.1387
   21DG      H8  468   3.891   1.412   3.999 -0.4430  0.0635 -1.1818
   21DG      O9  469   3.260   1.016   4.230  0.0202 -0.3613 -0.1230
   21DG     O10  470   3.743   1.388   4.143 -0.1146  1.3055 -0.4432
   21DG     C11  471   3.363   1.111   4.250 -0.2218 -0.0035  0.4911
   21DG     C12  472   3.809   1.277   4.208 -0.0471 -0.1110 -0.0302
   21DG     H13  473   3.354   1.165   4.345  5.2489  0.3055  1.1624
   21DG     H14  474   3.336   1.187   4.176 -1.4598 -0.4867  0.4254
   21DG     H15  475   3.814   1.304   4.314 -1.6479 -0.1859  0.0947
   21DG     H16  476   3.911   1.264   4.173 -0.3445 -0.7889 -0.6760
   21DG     C17  477   3.504   1.066   4.224 -0.6017  0.5687 -0.6814
   21DG     C18  478   3.723   1.151   4.206 -0.2251 -0.1251 -0.5779
   21DG     O19  479   3.587   1.182   4.240 -0.1058 -0.3305 -0.0533
   21DG     H20  480   3.492   1.033   4.120  0.4638 -0.1645 -0.5855
   21DG     H21  481   3.532   0.985   4.290 -0.4230 -0.0203 -1.4578
   21DG     H22  482   3.732   1.096   4.112  2.9035  0.8383 -0.9721
   21DG     H23  483   3.767   1.075   4.271  0.9368  1.2475  0.3141
   22DG      C1  484   4.368   2.118   4.689  0.1638 -0.1788 -0.1352
   22DG      C2  485   4.689   1.386   4.701  0.4339 -1.0389 -0.0605
   22DG      H3  486   4.337   2.021   4.729 -1.2506 -0.0048 -0.7305
   22DG      H4  487   4.319   2.144   4.595  1.8605  0.8672 -0.7605
   22DG      H5  488   4.336   2.186   4.767 -1.8837  0.5427 -1.5160
   22DG      H6  489   4.767   1.318   4.734  1.0246 -0.4898 -0.2988
   22DG      H7  490   4.595   1.344   4.737 -0.0538 -0.3133 -0.4520
   22DG      H8  491   4.695   1.384   4.592  0.2666  0.3190 -0.1104
   22DG      O9  492   4.509   2.112   4.673 -0.1025 -0.3628 -0.6023
   22DG     O10  493   4.720   1.516   4.750  0.3097  0.1673 -0.6209
   22DG     C11  494   4.585   2.096   4.798  0.0358 -0.4877  0.0223
   22DG     C12  495   4.615   1.610   4.723  0.5406  0.1572 -0.3585
   22DG     H13  496   4.550   2.166   4.874 -0.6859 -1.1715  0.3315
   22DG     H14  497   4.691   2.123   4.792 -0.3278  1.4191  1.1699
   22DG     H15  498   4.517   1.562   4.725  0.7644 -0.4728 -2.4414
   22DG     H16  499   4.626   1.643   4.620 -1.0046  0.5135 -0.4316
   22DG     C17  500   4.580   1.955   4.853  0.2133  0.6444 -0.6557
   22DG     C18  501   4.626   1.722   4.834  0.2471 -0.6297 -0.1937
   22DG     O19  502   4.622   1.848   4.778 -0.7764 -0.1143 -0.0593
   22DG     H20  503   4.479   1.935   4.888  0.9388 -0.5180  0.8911
   22DG     H21  504   4.629   1.960   4.950 -3.9981  0.1591  1.7310
   22DG     H22  505   4.546   1.711   4.908  0.6611 -1.4925  0.1434
   22DG     H23  506   4.714   1.713   4.898  0.8063  2.8324 -0.3105
   23DG      C1  507   5.141   2.385   1.234  0.3046 -0.0589 -0.4613
   23DG      C2  508   4.670   2.195   1.507  0.0179 -0.7270 -0.5447
   23DG      H3  509   5.193   2.302   1.187  0.0785 -0.0416 -0.7503
   23DG      H4  510   5.107   2.451   1.154  0.3129  1.4147  0.6944
   23DG      H5  511   5.052   2.347   1.284 -1.5585  2.6601 -1.4306
   23DG      H6  512   4.660   2.114   1.435 -2.1181 -0.1447 -0.9693
   23DG      H7  513   4.607   2.177   1.594  1.0779  0.1671  0.4351
   23DG      H8  514   4.626   2.281   1.456  0.6835 -1.3918 -2.3259
   23DG      O9  515   5.225   2.449   1.326  1.2580 -0.4145 -0.2605
   23DG     O10  516   4.802   2.223   1.539  0.1440  0.1226 -0.1403
   23DG     C11  517   5.253   2.365   1.443 -0.1701 -0.5927 -0.2910
   23DG     C12  518   4.820   2.326   1.635 -0.9386 -0.2214 -0.4004
   23DG     H13  519   5.358   2.386   1.461  0.0089 -0.4200 -1.4573
   23DG     H14  520   5.254   2.259   1.417  2.3489 -0.6523 -0.1930
   23DG     H15  521   4.754   2.297   1.716 -1.8603 -1.3085 -1.5002
   23DG     H16  522   4.778   2.419   1.596 -1.6842 -0.2854  0.2254
   23DG     C17  523   5.167   2.397   1.566  0.1596 -0.7206 -0.1536
   23DG     C18  524   4.960   2.342   1.675 -0.3604  0.6004 -0.2133
   23DG     O19  525   5.036   2.344   1.553 -0.1764  0.5129 -0.1387
   23DG     H20  526   5.171   2.506   1.575 -0.2962 -0.6670 -0.5885
   23DG     H21  527   5.219   2.357   1.653 -2.3971  1.4998  2.6502
   23DG     H22  528   4.979   2.421   1.747  0.0500  2.0194 -1.8305
   23DG     H23  529   4.998   2.252   1.723 -0.1327  0.6568 -0.2860
   24DG      C1  530   3.595   4.536   0.547 -0.8326 -0.3313 -0.3196
   24DG      C2  531   3.922   3.958   0.565  0.6156  0.2739 -0.4606
   24DG      H3  532   3.535   4.507   0.460 -0.2153 -2.2228 -0.1546
   24DG      H4  533   3.681   4.594   0.514 -0.8179 -0.3336 -0.2852
   24DG      H5  534   3.535   4.606   0.605 -0.3833 -0.7464  0.6565
   24DG      H6  535   3.853   3.915   0.491 -0.4893  0.6606  0.3167
   24DG      H7  536   4.000   3.889   0.595  1.0995 -0.3818 -2.9588
   24DG      H8  537   3.860   3.987   0.650 -1.7501  0.3285 -2.1012
   24DG      O9  538   3.615   4.429   0.633  0.7724 -0.0145  0.0747
   24DG     O10  539   3.980   4.080   0.509  0.3588  0.2984 -0.3049
   24DG     C11  540   3.650   4.311   0.551 -0.4635 -0.6472  0.1985
   24DG     C12  541   4.058   4.162   0.597  0.1642  0.8556  1.2864
   24DG     H13  542   3.577   4.289   0.472  0.0668 -1.2788 -0.1225
   24DG     H14  543   3.620   4.222   0.606 -0.1213  0.2509  1.9045
   24DG     H15  544   4.159   4.135   0.566  0.0953  0.4407  1.4116
   24DG     H16  545   4.036   4.136   0.701  0.9442  0.0322  1.2582
   24DG     C17  546   3.795   4.315   0.493 -0.3124  0.1464  0.0312
   24DG     C18  547   4.027   4.309   0.568 -0.0734 -0.2920  0.6274
   24DG     O19  548   3.890   4.338   0.600  0.0191 -0.0937 -0.8649
   24DG     H20  549   3.814   4.396   0.423  2.5445 -0.4672 -0.0400
   24DG     H21  550   3.811   4.225   0.433 -0.0676  1.5542 -2.1450
   24DG     H22  551   4.100   4.367   0.625  2.9638 -2.0447 -1.1997
   24DG     H23  552   4.050   4.342   0.467  1.4279  0.7037  1.2614
   25DG      C1  553   4.692   3.430   1.977 -0.3371 -0.3620 -0.2878
   25DG      C2  554   4.764   3.554   1.337 -0.3231 -0.3057 -0.1848
   25DG      H3  555   4.772   3.361   1.949 -0.0056  0.9343 -2.7873
   25DG      H4  556   4.648   3.381   2.065  1.2152 -2.8517 -0.7824
   25DG      H5  557   4.755   3.513   2.006  0.0071 -1.3259  1.9478
   25DG      H6  558   4.688   3.611   1.283  0.4482  1.7472  0.8069
   25DG      H7  559   4.795   3.626   1.412 -0.0046 -0.0810 -0.5290
   25DG      H8  560   4.856   3.545   1.278  0.7694  1.9135  1.0876
   25DG      O9  561   4.589   3.442   1.872 -0.1344 -0.1844  0.0706
   25DG     O10  562   4.706   3.435   1.381 -0.0615  0.2522 -0.1441
   25DG     C11  563   4.522   3.315   1.846  0.4142 -0.5835 -0.9691
   25DG     C12  564   4.804   3.352   1.453 -0.2341  0.4371 -0.6272
   25DG     H13  565   4.414   3.330   1.837  0.2197 -1.1020  0.3519
   25DG     H14  566   4.529   3.253   1.935  1.7745 -1.3708 -1.5920
   25DG     H15  567   4.874   3.407   1.516 -1.8600  0.3674  1.3283
   25DG     H16  568   4.856   3.294   1.377 -1.1827  0.6891 -1.4858
   25DG     C17  569   4.569   3.241   1.720 -0.3426  0.5903 -0.3978
   25DG     C18  570   4.730   3.252   1.541 -0.3962  0.2072 -0.1243
   25DG     O19  571   4.648   3.326   1.639  0.1596  0.1392  0.4738
   25DG     H20  572   4.491   3.190   1.663 -1.3979  0.3514  1.2024
   25DG     H21  573   4.631   3.159   1.757 -0.6434  0.7712  0.5434
   25DG     H22  574   4.667   3.186   1.481 -2.3510  1.6132  0.2942
   25DG     H23  575   4.803   3.193   1.596 -0.8985 -2.0469 -1.7362
   26DG      C1  576   0.891   4.678   4.076 -0.3980 -0.2745  0.0016
   26DG      C2  577   0.852   4.084   3.736  0.3694  0.3961  0.1676
   26DG      H3  578   0.790   4.641   4.088 -0.5084 -0.7052 -1.9217
   26DG      H4  579   0.892   4.727   3.979 -0.6476  0.3789  0.3217
   26DG      H5  580   0.924   4.748   4.154  0.0674 -0.6823  0.1750
   26DG      H6  581   0.897   3.985   3.739 -0.6908 -0.0908  0.6134
   26DG      H7  582   0.748   4.066   3.762  0.9600 -1.5742  1.3667
   26DG      H8  583   0.850   4.118   3.632 -2.4840 -2.8375 -1.0142
   26DG      O9  584   0.989   4.575   4.065 -0.1706  0.5759  0.4814
   26DG     O10  585   0.914   4.169   3.833  0.2700 -0.0170  0.0592
   26DG     C11  586   1.003   4.498   4.178  0.0412 -0.4957  0.8672
   26DG     C12  587   1.054   4.170   3.821 -0.4348 -0.4821 -0.0835
   26DG     H13  588   0.904   4.464   4.209 -1.2375  0.0243 -2.2788
   26DG     H14  589   1.045   4.555   4.261  0.0257 -1.9164  1.8930
   26DG     H15  590   1.085   4.249   3.753 -1.1123 -0.3094 -0.2034
   26DG     H16  591   1.104   4.076   3.799 -0.5959 -0.0646 -2.6191
   26DG     C17  592   1.101   4.385   4.133  0.3159  0.0334  0.5383
   26DG     C18  593   1.109   4.211   3.962 -0.2244 -0.1656  0.2929
   26DG     O19  594   1.039   4.324   4.013 -0.5241 -0.5176 -0.4310
   26DG     H20  595   1.119   4.319   4.218  4.3094 -0.0825 -0.1790
   26DG     H21  596   1.200   4.425   4.110  0.1650  0.0824 -0.0455
   26DG     H22  597   1.109   4.132   4.038  2.0360  0.0165  0.5665
   26DG     H23  598   1.208   4.253   3.944 -0.6192  1.2826  1.3351
   27DG      C1  599   4.445   4.778   0.239  0.4391  0.1171 -0.1115
   27DG      C2  600   4.142   4.999  -0.297  0.5631 -0.5322 -0.2306
   27DG      H3  601   4.427   4.833   0.331 -1.0353  1.0400 -0.9112
   27DG      H4  602   4.529   4.817   0.181  0.6949 -1.2572 -0.7225
   27DG      H5  603   4.494   4.683   0.262 -1.4942 -0.7989  0.3825
   27DG      H6  604   4.166   5.097  -0.255  3.7781 -1.5797  0.7102
   27DG      H7  605   4.240   4.987  -0.345  0.7806  1.6652 -0.4548
   27DG      H8  606   4.069   5.005  -0.378 -0.2938 -0.6437  0.5259
   27DG      O9  607   4.327   4.771   0.155  0.2307 -0.1121 -0.1114
   27DG     O10  608   4.118   4.907  -0.195 -0.4795 -0.0157  0.1180
   27DG     C11  609   4.212   4.745   0.240  0.1456  0.2490  0.2474
   27DG     C12  610   3.998   4.929  -0.126  0.7909 -0.6122  0.4332
   27DG     H13  611   4.197   4.829   0.308  1.5031  1.6419 -1.0812
   27DG     H14  612   4.228   4.655   0.299  2.1966  0.7660  0.5434
   27DG     H15  613   3.920   4.925  -0.202  0.9886 -3.1467  0.2665
   27DG     H16  614   3.993   5.029  -0.084 -1.7381 -0.5308  0.0511
   27DG     C17  615   4.086   4.726   0.143  0.0007  0.2022 -0.1553
   27DG     C18  616   3.975   4.817  -0.033 -0.3769  1.3899 -0.6954
   27DG     O19  617   4.081   4.837   0.062  0.2991  0.1955  0.4572
   27DG     H20  618   3.995   4.711   0.201 -0.8905 -0.0555 -1.5707
   27DG     H21  619   4.109   4.636   0.085 -0.1279  0.1828 -0.1768
   27DG     H22  620   3.876   4.816   0.012  0.1034 -0.0328  0.4064
   27DG     H23  621   3.980   4.722  -0.085  1.5147  0.0508  1.7187
   28DG      C1  622   4.327   5.013   1.350  0.0284 -0.0465 -0.4069
   28DG      C2  623   4.269   4.952   2.034 -0.0334  0.9553 -0.1323
   28DG      H3  624   4.280   4.930   1.401 -1.6118  0.1679 -1.4846
   28DG      H4  625   4.392   4.969   1.274  1.9922  1.3659  0.3558
   28DG      H5  626   4.257   5.074   1.293 -1.1416 -0.5798  0.4265
   28DG      H6  627   4.294   5.042   2.090  2.2768 -0.2616  0.9156
   28DG      H7  628   4.169   4.973   1.998 -0.1589 -0.6293 -0.7520
   28DG      H8  629   4.262   4.863   2.095 -1.5315  1.1605  0.0176
   28DG      O9  630   4.400   5.090   1.441  0.0746  0.2422 -0.5260
   28DG     O10  631   4.354   4.929   1.924  0.3092  0.5719  0.4992
   28DG     C11  632   4.525   5.027   1.473 -0.1797  0.1522  0.2600
   28DG     C12  633   4.335   4.797   1.856  0.3666  0.1122 -0.4426
   28DG     H13  634   4.587   5.093   1.533 -1.0029  0.8613  0.3440
   28DG     H14  635   4.576   5.022   1.377  0.6689  0.1654  0.7045
   28DG     H15  636   4.250   4.802   1.788 -0.1680 -1.8599  0.0254
   28DG     H16  637   4.345   4.707   1.915 -1.4630 -1.0965 -1.8638
   28DG     C17  638   4.521   4.894   1.548 -0.6915 -0.6323  0.4396
   28DG     C18  639   4.460   4.791   1.757 -0.7848 -0.2627  0.1475
   28DG     O19  640   4.445   4.902   1.662 -0.3408 -0.2340  0.4140
   28DG     H20  641   4.628   4.879   1.564 -0.3362  1.2958  0.1828
   28DG     H21  642   4.485   4.819   1.478  1.1025  1.0347 -2.4407
   28DG     H22  643   4.558   4.795   1.804 -1.0051  1.6678  0.5601
   28DG     H23  644   4.453   4.699   1.699  0.0486 -0.3718  0.2021
   29DG      C1  645   3.501   1.479   4.298  0.2500 -0.1913  0.4896
   29DG      C2  646   3.194   1.142   4.859 -0.0785  0.1697 -0.1738
   29DG      H3  647   3.502   1.451   4.193  2.5722 -0.5359  0.5595
   29DG      H4  648   3.591   1.435   4.341 -1.6630 -2.0989  2.8894
   29DG      H5  649   3.502   1.588   4.302  2.5619 -0.2005  1.5955
   29DG      H6  650   3.252   1.053   4.834  0.0901 -0.5165  2.4462
   29DG      H7  651   3.245   1.190   4.943  1.0800  0.1318 -0.8285
   29DG      H8  652   3.102   1.095   4.892 -1.3872  1.9336 -1.1632
   29DG      O9  653   3.390   1.427   4.376  0.0954 -0.4656  0.3675
   29DG     O10  654   3.170   1.232   4.753  0.3575 -0.0870  0.1972
   29DG     C11  655   3.275   1.497   4.341 -0.3539 -0.2464  0.0384
   29DG     C12  656   3.114   1.173   4.643  0.7448 -0.0640  0.0491
   29DG     H13  657   3.274   1.525   4.235  0.8808 -0.3724 -0.0227
   29DG     H14  658   3.278   1.590   4.398  2.8712 -0.7736  0.9175
   29DG     H15  659   3.036   1.106   4.680  0.5322 -0.1123 -0.4702
   29DG     H16  660   3.187   1.113   4.588 -0.7668 -0.5557 -1.5242
   29DG     C17  661   3.154   1.409   4.363  0.1305 -0.0948  0.3728
   29DG     C18  662   3.061   1.265   4.534  0.3549  0.0554 -0.1925
   29DG     O19  663   3.174   1.344   4.488 -0.2269 -0.5574  0.2347
   29DG     H20  664   3.141   1.328   4.290  1.3796 -1.1960  1.3337
   29DG     H21  665   3.063   1.469   4.368  1.4435  2.1850 -0.9954
   29DG     H22  666   3.034   1.206   4.446  0.1984  1.0531 -0.8308
   29DG     H23  667   2.975   1.328   4.557  0.5977  0.0950  0.6180
   30DG      C1  668   3.042   2.680   2.009  0.0845 -0.7879 -0.4947
   30DG      C2  669   2.453   2.350   2.422  0.0747 -0.1982 -0.4624
   30DG      H3  670   3.061   2.582   2.054  1.4497  0.7921  2.6407
   30DG      H4  671   3.114   2.754   2.042 -1.4257 -0.1360  1.5420
   30DG      H5  672   3.063   2.675   1.902 -0.2385  1.3391 -0.6894
   30DG      H6  673   2.460   2.283   2.337 -3.2726  1.0884 -1.9679
   30DG      H7  674   2.424   2.297   2.513 -0.9788 -0.7544 -1.0992
   30DG      H8  675   2.369   2.415   2.395  0.2153  1.2205  2.1438
   30DG      O9  676   2.904   2.721   2.013 -0.1453 -0.4186 -0.5721
   30DG     O10  677   2.572   2.418   2.443 -0.0576 -0.3767 -0.0981
   30DG     C11  678   2.888   2.798   2.130 -0.3404 -0.3150 -0.1966
   30DG     C12  679   2.646   2.448   2.323 -0.0457 -0.6720 -0.6869
   30DG     H13  680   2.787   2.839   2.129 -1.0910 -1.7598  2.7290
   30DG     H14  681   2.967   2.873   2.131 -0.3120 -0.2613  2.9707
   30DG     H15  682   2.579   2.499   2.254 -1.6429 -0.1318  1.1851
   30DG     H16  683   2.689   2.367   2.262  0.3940  0.2277 -1.6052
   30DG     C17  684   2.897   2.714   2.257 -0.1610  0.2303  0.4813
   30DG     C18  685   2.764   2.540   2.364 -0.0390 -0.6119 -0.0989
   30DG     O19  686   2.806   2.601   2.245 -0.2050  0.0662  0.1710
   30DG     H20  687   2.870   2.775   2.343  2.6386 -0.2628  1.8151
   30DG     H21  688   2.998   2.677   2.276 -0.0569  0.9579  1.4022
   30DG     H22  689   2.726   2.619   2.429 -1.5229 -0.8735 -0.6300
   30DG     H23  690   2.846   2.485   2.412 -1.3179 -0.7538  2.0783
   31DG      C1  691   1.350   0.744   5.067  0.5863 -0.1149  0.5956
   31DG      C2  692   1.720   0.994   5.695 -0.0339 -0.1361  0.3493
   31DG      H3  693   1.331   0.851   5.055 -2.9971 -0.6455  0.4109
   31DG      H4  694   1.272   0.702   5.131  0.3226  0.2905  0.5461
   31DG      H5  695   1.345   0.698   4.969  0.7161 -0.0048  0.5379
   31DG      H6  696   1.810   0.942   5.662  0.1320 -0.0933  0.7286
   31DG      H7  697   1.734   1.099   5.669  0.6905 -0.7112 -1.7488
   31DG      H8  698   1.725   0.987   5.804 -2.9251 -0.3804  0.5403
   31DG      O9  699   1.478   0.737   5.124 -0.2447  0.1696 -0.2618
   31DG     O10  700   1.598   0.945   5.646  0.1419 -0.5676  0.2728
   31DG     C11  701   1.517   0.616   5.186  0.5252  0.2699  0.7971
   31DG     C12  702   1.616   0.866   5.523 -0.3035  0.2005  0.0416
   31DG     H13  703   1.598   0.567   5.131  0.1658 -0.1194  0.6096
   31DG     H14  704   1.445   0.534   5.189  1.2000 -0.3919 -0.3861
   31DG     H15  705   1.701   0.798   5.521 -0.1359  0.2783  2.0479
   31DG     H16  706   1.623   0.934   5.438 -0.6908 -0.1088 -0.2371
   31DG     C17  707   1.563   0.646   5.326 -0.4706 -0.1083  0.1675
   31DG     C18  708   1.504   0.773   5.516  0.1181 -0.1647  1.0400
   31DG     O19  709   1.472   0.740   5.381 -0.4203 -0.6741 -0.1717
   31DG     H20  710   1.660   0.695   5.313  0.7530 -2.4673 -0.3194
   31DG     H21  711   1.584   0.553   5.379  0.5881  0.5593  0.9574
   31DG     H22  712   1.501   0.695   5.592 -1.0878  2.0904  3.4903
   31DG     H23  713   1.417   0.830   5.550  1.0969  3.7747 -2.2148
   32DG      C1  714   3.567   1.360   2.363 -0.1819  0.1238 -0.1324
   32DG      C2  715   3.830   0.861   1.712  0.1975  0.2868  0.0741
   32DG      H3  716   3.478   1.359   2.427 -1.0324  1.8792 -1.1893
   32DG      H4  717   3.545   1.424   2.277 -0.0408  0.2727 -0.0573
   32DG      H5  718   3.648   1.403   2.422  0.0378 -1.1974  0.5690
   32DG      H6  719   3.734   0.810   1.711 -1.3152  2.7949  2.1777
   32DG      H7  720   3.819   0.928   1.627 -1.4616 -0.1910 -0.1154
   32DG      H8  721   3.908   0.787   1.694  0.4131  0.0982  1.6460
   32DG      O9  722   3.598   1.223   2.332 -0.0935  0.6773  0.2112
   32DG     O10  723   3.833   0.929   1.840  0.3170  0.2377 -0.3584
   32DG     C11  724   3.648   1.199   2.203 -0.2962  0.8170  0.5459
   32DG     C12  725   3.814   0.834   1.941  0.4421 -0.1019 -0.1233
   32DG     H13  726   3.714   1.283   2.181 -0.6655  1.3182  1.2949
   32DG     H14  727   3.564   1.184   2.135  0.1649  2.0842 -0.3453
   32DG     H15  728   3.877   0.747   1.928  0.7665  0.3605 -1.8607
   32DG     H16  729   3.711   0.797   1.941  0.5473 -0.7239  2.9789
   32DG     C17  730   3.733   1.079   2.214  0.1414  0.4933 -0.7542
   32DG     C18  731   3.823   0.910   2.072 -0.5715 -0.0933  0.0075
   32DG     O19  732   3.739   1.023   2.076  0.3627 -0.0371  0.1848
   32DG     H20  733   3.694   1.007   2.285 -1.5634  1.6067 -0.4984
   32DG     H21  734   3.834   1.100   2.250 -0.4410  1.1328  0.5781
   32DG     H22  735   3.816   0.842   2.156 -0.7198  0.4628  0.4522
   32DG     H23  736   3.925   0.949   2.082 -0.2991 -0.8287  0.1950
   33DG      C1  737   3.110   5.126   4.179  0.0423  0.1211  0.2176
   33DG      C2  738   3.436   5.260   4.833  0.1033  0.5939  0.6700
   33DG      H3  739   3.143   5.214   4.123 -0.8677  1.0177  1.0373
   33DG      H4  740   3.016   5.107   4.128  0.5515 -1.8236 -0.0761
   33DG      H5  741   3.175   5.041   4.158  0.4222  0.6480 -0.7792
   33DG      H6  742   3.467   5.355   4.789 -2.3771  1.2617  0.2300
   33DG      H7  743   3.437   5.266   4.942  1.0304 -1.0189  0.7831
   33DG      H8  744   3.511   5.184   4.810 -1.5590 -0.5176 -1.4300
   33DG      O9  745   3.098   5.173   4.317  0.7833  0.2528 -0.0386
   33DG     O10  746   3.303   5.212   4.792  1.0074 -0.1308 -0.0725
   33DG     C11  747   3.023   5.089   4.404  0.3304 -0.2629  0.2595
   33DG     C12  748   3.208   5.315   4.788  0.4388 -0.7610  0.1657
   33DG     H13  749   3.085   5.003   4.427  0.9310  0.1630  0.2526
   33DG     H14  750   2.933   5.057   4.351 -0.2863  1.1336  0.4271
   33DG     H15  751   3.249   5.390   4.721 -0.0646 -1.6621 -1.2052
   33DG     H16  752   3.205   5.374   4.879  0.1882  1.4924 -1.2185
   33DG     C17  753   2.987   5.156   4.540  0.1149  0.3697 -0.1345
   33DG     C18  754   3.074   5.267   4.735  1.0962 -0.2768 -0.2102
   33DG     O19  755   3.095   5.196   4.616 -0.2706  0.2307 -0.0008
   33DG     H20  756   2.929   5.092   4.607 -1.7757  1.8934 -0.2050
   33DG     H21  757   2.922   5.241   4.519 -1.1594 -0.3778  0.6519
   33DG     H22  758   3.043   5.191   4.807 -0.4834 -1.7766 -2.3354
   33DG     H23  759   2.996   5.344   4.733  0.6057 -0.7620 -2.2170
   34DG      C1  760   1.525   2.702   3.381  0.1967  0.0785  0.0921
   34DG      C2  761   0.945   2.936   3.253  0.2130 -0.0346 -0.3035
   34DG      H3  762   1.628   2.669   3.379 -0.1045 -0.8642 -1.9863
   34DG      H4  763   1.475   2.605   3.372  0.1027  0.2444 -1.3951
   34DG      H5  764   1.506   2.742   3.481  0.9459 -1.1722  0.7559
   34DG      H6  765   0.865   3.004   3.222  1.9957  3.5041  2.1560
   34DG      H7  766   0.917   2.832   3.235  2.3581 -0.7801  0.4122
   34DG      H8  767   0.965   2.943   3.360  1.2927  0.5474 -0.5283
   34DG      O9  768   1.482   2.788   3.271 -0.5123  0.6447 -0.6143
   34DG     O10  769   1.063   2.966   3.172  0.7539  0.0698 -0.3877
   34DG     C11  770   1.540   2.920   3.276 -0.4410  0.1243  0.1186
   34DG     C12  771   1.103   3.092   3.203 -0.9252 -1.0339  0.2697
   34DG     H13  772   1.643   2.906   3.241 -1.1247 -1.2464 -1.4690
   34DG     H14  773   1.544   2.957   3.378  1.1789 -0.3263  0.2501
   34DG     H15  774   1.101   3.114   3.310 -1.6425  2.1012 -0.3025
   34DG     H16  775   1.035   3.163   3.156 -2.3294 -0.6537  2.7234
   34DG     C17  776   1.461   3.035   3.200 -0.2968  0.0129  0.3999
   34DG     C18  777   1.237   3.104   3.146 -0.0935 -0.5717  0.2706
   34DG     O19  778   1.322   3.009   3.216  0.1388  0.7069 -0.0071
   34DG     H20  779   1.488   3.035   3.094  0.4598  3.8785  0.4555
   34DG     H21  780   1.486   3.135   3.236  0.0059 -0.3282  1.1470
   34DG     H22  781   1.241   3.080   3.039 -0.2558 -1.9345  0.5508
   34DG     H23  782   1.271   3.207   3.151  0.1081 -0.5850 -0.6642
   35DG      C1  783   3.001   0.684   2.495  0.6429 -0.0791  0.3010
   35DG      C2  784   2.820   1.048   3.031 -0.0445  0.2591  0.1872
   35DG      H3  785   2.892   0.687   2.490  0.6608 -0.0386 -0.1441
   35DG      H4  786   3.030   0.593   2.442 -3.4892 -0.8260 -1.0207
   35DG      H5  787   3.038   0.770   2.439  0.2241  0.5247  0.9383
   35DG      H6  788   2.726   1.059   2.977 -0.3793  0.6641  0.8308
   35DG      H7  789   2.798   1.046   3.138 -2.9716  1.2365 -0.2921
   35DG      H8  790   2.878   1.137   3.008 -1.6033  0.7947 -1.9928
   35DG      O9  791   3.022   0.673   2.635  0.1647  0.0353  0.1875
   35DG     O10  792   2.887   0.926   2.992  0.4432  0.1389 -0.7105
   35DG     C11  793   3.150   0.622   2.671 -1.0561  0.1169  0.6394
   35DG     C12  794   3.016   0.901   3.055  0.5054  0.4694  0.0512
   35DG     H13  795   3.233   0.687   2.640  0.5168 -1.9957  0.1597
   35DG     H14  796   3.186   0.527   2.631  1.0875  1.7268 -1.6035
   35DG     H15  797   3.004   0.908   3.163 -3.7068  0.1232 -0.2276
   35DG     H16  798   3.078   0.987   3.030 -2.5316  3.2332  1.2441
   35DG     C17  799   3.142   0.640   2.824  0.2244 -0.0685 -0.5301
   35DG     C18  800   3.070   0.768   3.014 -1.3737 -0.5196  0.1260
   35DG     O19  801   3.086   0.761   2.870 -0.1982  1.3181 -0.2713
   35DG     H20  802   3.239   0.638   2.875 -0.3509 -0.7118  0.5812
   35DG     H21  803   3.086   0.550   2.850 -0.4400 -0.0845 -1.9124
   35DG     H22  804   3.170   0.753   3.055 -1.5526 -1.6742  0.1604
   35DG     H23  805   3.006   0.694   3.060 -0.7194  0.5046  2.8371
   36DG      C1  806   3.681   0.519   0.701  0.4715 -0.0742 -0.0907
   36DG      C2  807   4.283   0.460   0.117  0.3770 -0.2461 -0.3998
   36DG      H3  808   3.749   0.550   0.780  0.3939 -1.2239  0.4612
   36DG      H4  809   3.685   0.410   0.691  1.0790 -0.0294 -0.3773
   36DG      H5  810   3.581   0.537   0.741 -0.4272 -0.5628 -1.9680
   36DG      H6  811   4.373   0.409   0.152  0.2172 -0.3899 -0.1947
   36DG      H7  812   4.205   0.393   0.082 -1.7625  1.3226  1.1539
   36DG      H8  813   4.327   0.507   0.029  2.7435 -0.1594  0.7348
   36DG      O9  814   3.705   0.584   0.577  0.8965 -0.9008 -0.4189
   36DG     O10  815   4.211   0.538   0.214 -0.1327  0.2453  0.3851
   36DG     C11  816   3.828   0.542   0.521  0.2876  0.2807  0.1328
   36DG     C12  817   4.114   0.629   0.157  0.7142  0.5913 -0.1120
   36DG     H13  818   3.819   0.442   0.480  1.4614  0.1311  0.2077
   36DG     H14  819   3.915   0.538   0.587  0.5937 -1.2271 -0.3234
   36DG     H15  820   4.050   0.563   0.097  2.5635 -0.1860 -1.3113
   36DG     H16  821   4.157   0.701   0.088 -2.5512  2.0717 -0.8301
   36DG     C17  822   3.856   0.650   0.426 -0.4920 -0.0383  0.9174
   36DG     C18  823   4.034   0.694   0.278  0.3634  0.1428  0.2798
   36DG     O19  824   3.948   0.595   0.337 -0.4724  0.9040  0.0661
   36DG     H20  825   3.895   0.740   0.474 -0.8824 -0.0191  1.2100
   36DG     H21  826   3.768   0.684   0.371 -0.0215  1.2834  0.9550
   36DG     H22  827   4.104   0.735   0.351 -0.0160 -0.9092  1.2849
   36DG     H23  828   3.962   0.768   0.245 -1.0041 -0.8662  0.8679
   37DG      C1  829   5.441   5.009   3.349 -0.3746  0.7363  0.0912
   37DG      C2  830   4.978   4.664   2.843 -1.0619 -0.3198 -0.1981
   37DG      H3  831   5.340   5.051   3.339  0.1732  1.9034 -0.9187
   37DG      H4  832   5.519   5.073   3.306  1.2160 -0.8778  0.4769
   37DG      H5  833   5.462   5.005   3.456  0.1481  1.2362  0.0094
   37DG      H6  834   4.980   4.585   2.767  0.9911 -2.3742  1.8434
   37DG      H7  835   4.875   4.694   2.864  0.1205  3.4705  1.0102
   37DG      H8  836   5.028   4.759   2.822 -0.2321 -0.6483  0.2668
   37DG      O9  837   5.452   4.881   3.296  0.5894  0.6396 -0.4124
   37DG     O10  838   5.032   4.622   2.966 -0.0964  0.2886 -0.1416
   37DG     C11  839   5.368   4.784   3.358 -0.5490  0.5248  0.4828
   37DG     C12  840   5.172   4.585   2.970 -0.3856 -0.4489 -0.3306
   37DG     H13  841   5.272   4.826   3.387  0.2818  0.7200  3.2433
   37DG     H14  842   5.416   4.747   3.449  0.2070  1.1474  0.3482
   37DG     H15  843   5.239   4.652   2.915  2.0061 -3.3807 -1.2334
   37DG     H16  844   5.190   4.497   2.908  1.0098  1.3875 -2.7479
   37DG     C17  845   5.365   4.652   3.283 -0.5792 -0.9010  0.4111
   37DG     C18  846   5.225   4.557   3.113  0.5034 -0.1691  0.0369
   37DG     O19  847   5.262   4.672   3.183 -0.3537 -0.4517 -0.1308
   37DG     H20  848   5.351   4.576   3.360 -0.3421  0.6724  2.0840
   37DG     H21  849   5.464   4.638   3.241 -0.3367  1.0290  0.2509
   37DG     H22  850   5.158   4.490   3.167  2.0773 -2.0816 -0.2801
   37DG     H23  851   5.310   4.492   3.090 -0.1242 -0.7749 -0.6240
   38DG      C1  852   4.300   3.798   5.167  0.9524 -0.4791  0.1316
   38DG      C2  853   3.610   4.090   5.200 -0.4547 -0.3503  0.2877
   38DG      H3  854   4.366   3.731   5.111 -2.1966 -4.8004  1.0547
   38DG      H4  855   4.338   3.812   5.268 -1.4490 -1.1718  1.1957
   38DG      H5  856   4.318   3.889   5.109 -0.1054 -1.3298 -1.6153
   38DG      H6  857   3.508   4.092   5.163  1.3365  2.1353 -5.6218
   38DG      H7  858   3.615   4.034   5.294 -0.2182 -2.4850 -0.9455
   38DG      H8  859   3.633   4.196   5.203 -1.0069 -0.1575 -1.4405
   38DG      O9  860   4.166   3.747   5.168  0.2677  0.4715  0.2196
   38DG     O10  861   3.702   4.030   5.105  0.1846  0.1587 -0.0393
   38DG     C11  862   4.077   3.820   5.242  0.7011  0.2246 -0.0109
   38DG     C12  863   3.677   3.895   5.063  0.0460  0.0980  0.3515
   38DG     H13  864   4.089   3.928   5.233 -0.2747  0.3034 -0.4693
   38DG     H14  865   4.085   3.783   5.344  0.2976  0.4669  0.1121
   38DG     H15  866   3.582   3.888   5.011  0.6682  0.2017 -0.8354
   38DG     H16  867   3.655   3.844   5.157  0.4034 -1.3645 -0.3334
   38DG     C17  868   3.941   3.791   5.174 -0.0028  0.3488 -0.2099
   38DG     C18  869   3.795   3.827   4.978 -0.4819 -0.3854  0.1182
   38DG     O19  870   3.922   3.846   5.043 -0.0557 -0.3388 -0.0656
   38DG     H20  871   3.882   3.862   5.231  1.9416 -0.6376  3.3547
   38DG     H21  872   3.903   3.689   5.181 -0.4876  0.5168 -0.3901
   38DG     H22  873   3.770   3.722   4.967 -0.4527 -0.1635 -3.0321
   38DG     H23  874   3.809   3.855   4.874  3.5633 -0.3557  0.5268
   39DG      C1  875   4.458   4.738   2.262  0.6899  0.0642 -0.6796
   39DG      C2  876   4.781   5.288   1.923 -0.1257  0.3891  0.1929
   39DG      H3  877   4.430   4.817   2.333  0.7388  0.6727 -1.3266
   39DG      H4  878   4.493   4.650   2.316 -0.3898  0.3444  0.5431
   39DG      H5  879   4.374   4.716   2.197  1.7460  0.0883 -2.0963
   39DG      H6  880   4.787   5.340   2.018 -1.2035  1.3960 -0.2702
   39DG      H7  881   4.847   5.318   1.842 -0.2505  0.5524  0.1533
   39DG      H8  882   4.683   5.317   1.885 -0.8325  0.3080  1.8539
   39DG      O9  883   4.561   4.795   2.178  0.8235  0.1449 -0.3550
   39DG     O10  884   4.800   5.149   1.955  0.3240  0.3492  0.4622
   39DG     C11  885   4.600   4.701   2.074  0.2785  0.1500 -0.3086
   39DG     C12  886   4.816   5.065   1.846  0.1763 -0.3704  0.0467
   39DG     H13  887   4.509   4.680   2.018 -0.3428  1.4625  0.1634
   39DG     H14  888   4.629   4.608   2.124 -0.9527 -1.0294 -1.6780
   39DG     H15  889   4.919   5.085   1.816 -0.2704 -0.7370 -1.8773
   39DG     H16  890   4.748   5.081   1.763 -0.8279  2.5418  1.2931
   39DG     C17  891   4.723   4.744   2.005  0.2610 -0.0837  0.6636
   39DG     C18  892   4.825   4.915   1.890 -0.3004  0.1165  0.6361
   39DG     O19  893   4.710   4.873   1.953  0.1908 -0.0935 -0.6285
   39DG     H20  894   4.745   4.672   1.926 -2.2699  1.0204 -1.1899
   39DG     H21  895   4.799   4.746   2.083  0.9558  1.8115 -0.0220
   39DG     H22  896   4.841   4.844   1.809  0.1376 -1.1922  1.8344
   39DG     H23  897   4.911   4.912   1.957 -0.7181  0.6098  1.2052
   40DG      C1  898   3.933   2.239   0.203  0.2485 -0.3764 -0.0209
   40DG      C2  899   3.416   2.848   0.392  0.0208  0.3478 -0.7584
   40DG      H3  900   3.845   2.241   0.267  0.0410 -0.0412 -0.3144
   40DG      H4  901   4.000   2.161   0.237  0.1447 -0.6534 -0.4381
   40DG      H5  902   3.891   2.222   0.104 -0.0993 -0.0829  0.0738
   40DG      H6  903   3.448   2.952   0.397 -1.5172  0.8657  4.1823
   40DG      H7  904   3.357   2.822   0.305  0.4678 -1.0358 -0.6710
   40DG      H8  905   3.359   2.837   0.485  0.6048  1.8267 -0.1887
   40DG      O9  906   4.005   2.358   0.209  0.2580 -0.2863  0.6791
   40DG     O10  907   3.540   2.783   0.393 -0.0282  0.1239 -0.3445
   40DG     C11  908   3.919   2.475   0.201 -0.6869  0.5601  1.0339
   40DG     C12  909   3.540   2.651   0.449 -0.3539  0.1423 -0.2537
   40DG     H13  910   3.837   2.454   0.132  2.8646 -1.3243 -3.1435
   40DG     H14  911   3.963   2.556   0.143  1.9635 -1.9918 -0.9037
   40DG     H15  912   3.481   2.579   0.392 -0.8784  0.6421 -0.3501
   40DG     H16  913   3.490   2.656   0.546 -0.5126 -1.5505 -0.2193
   40DG     C17  914   3.873   2.521   0.339  0.8677 -0.1945 -0.1845
   40DG     C18  915   3.683   2.594   0.461 -1.5595  0.0016  0.3468
   40DG     O19  916   3.747   2.570   0.335  0.0345  0.0433 -0.0275
   40DG     H20  917   3.935   2.601   0.380 -0.5638  0.3520  0.9868
   40DG     H21  918   3.875   2.437   0.409 -2.7523 -1.9373 -1.8928
   40DG     H22  919   3.735   2.674   0.514  0.2968 -0.3900 -0.7746
   40DG     H23  920   3.680   2.505   0.525  1.6719 -0.2330  0.3625
   41DG      C1  921   3.726   5.468   0.340 -0.0127  0.4145 -0.2388
   41DG      C2  922   3.458   5.824  -0.134  0.2657  0.2515  0.4814
   41DG      H3  923   3.637   5.470   0.402 -0.7129  1.3305 -1.2356
   41DG      H4  924   3.771   5.566   0.357 -3.1728  2.0703 -0.6534
   41DG      H5  925   3.793   5.393   0.383 -1.4628  0.1673  1.7286
   41DG      H6  926   3.349   5.826  -0.131  0.2901  0.5360  1.9068
   41DG      H7  927   3.481   5.884  -0.046 -0.4059  0.5200  0.4800
   41DG      H8  928   3.485   5.869  -0.229  0.1669  1.1316  0.8626
   41DG      O9  929   3.696   5.453   0.204  0.2880  0.1054  0.0688
   41DG     O10  930   3.497   5.686  -0.127 -0.4772 -0.1020  0.1685
   41DG     C11  931   3.630   5.332   0.172 -0.1171  0.0327  0.0232
   41DG     C12  932   3.410   5.581  -0.171  0.0266 -0.0316  0.0677
   41DG     H13  933   3.543   5.324   0.236  0.9765 -2.7632  1.3339
   41DG     H14  934   3.686   5.246   0.210 -0.8625 -0.2657  0.4774
   41DG     H15  935   3.389   5.588  -0.278  2.2792 -0.2931 -0.4526
   41DG     H16  936   3.318   5.570  -0.114 -0.7140 -0.7611 -1.2132
   41DG     C17  937   3.602   5.334   0.022  0.5756  0.4998 -0.2136
   41DG     C18  938   3.489   5.456  -0.152 -0.0198  0.3158 -0.2636
   41DG     O19  939   3.520   5.446  -0.013 -0.5064  0.8621  0.1472
   41DG     H20  940   3.551   5.245  -0.018 -0.1987  1.4596 -1.4453
   41DG     H21  941   3.697   5.336  -0.031  1.5887 -0.3500  1.5087
   41DG     H22  942   3.430   5.368  -0.177 -0.8096  0.8005 -0.1307
   41DG     H23  943   3.583   5.459  -0.207  0.3573 -0.3170  0.3209
   42DG      C1  944   1.457   1.565   4.038 -0.1416 -0.2744  0.4501
   42DG      C2  945   1.858   1.185   4.469 -0.3385 -0.0898  0.0518
   42DG      H3  946   1.457   1.673   4.050 -0.0284 -0.2764  0.4692
   42DG      H4  947   1.377   1.531   3.973  1.4575 -1.4846 -1.0040
   42DG      H5  948   1.549   1.536   3.985  2.7440 -0.8883  5.2067
   42DG      H6  949   1.850   1.085   4.511  1.9145  0.6490  2.5187
   42DG      H7  950   1.942   1.190   4.400  1.0517  2.9926  1.7845
   42DG      H8  951   1.893   1.244   4.553 -1.2096 -0.9265  1.0208
   42DG      O9  952   1.463   1.479   4.156  0.0261 -0.4111  0.4165
   42DG     O10  953   1.743   1.246   4.422  0.4249  0.1266  0.6438
   42DG     C11  954   1.363   1.509   4.252 -0.3884 -0.5713  0.0576
   42DG     C12  955   1.643   1.257   4.529 -0.3926 -0.2192 -0.2321
   42DG     H13  956   1.260   1.502   4.217 -0.6542 -0.6693  0.8373
   42DG     H14  957   1.393   1.603   4.298  0.0971 -1.0363  0.7177
   42DG     H15  958   1.681   1.335   4.596 -2.2009 -0.3426  0.9832
   42DG     H16  959   1.648   1.169   4.592 -2.8023 -0.3777 -0.1974
   42DG     C17  960   1.357   1.411   4.364  0.6665  0.5659 -0.5863
   42DG     C18  961   1.495   1.285   4.501 -0.5453  0.5597  0.0563
   42DG     O19  962   1.487   1.373   4.386 -0.8496  0.6905 -0.8294
   42DG     H20  963   1.300   1.321   4.342 -0.3596  1.2479 -0.8255
   42DG     H21  964   1.333   1.450   4.463  2.1442 -0.6810  0.3131
   42DG     H22  965   1.448   1.188   4.481  0.6055 -0.0220  0.0999
   42DG     H23  966   1.458   1.322   4.597  0.8997 -1.3764  1.4494
   43DG      C1  967   4.988   1.579   2.024 -0.6688  0.1352 -0.4663
   43DG      C2  968   5.703   1.521   1.479 -0.0887  0.2566  0.2169
   43DG      H3  969   4.885   1.580   1.989 -2.0969  0.8021  3.2860
   43DG      H4  970   4.989   1.677   2.072 -0.9057 -0.6862  1.2622
   43DG      H5  971   4.980   1.508   2.105 -1.7846  0.6750 -0.0912
   43DG      H6  972   5.742   1.594   1.409 -1.9461  0.5579 -0.5750
   43DG      H7  973   5.734   1.571   1.571 -1.0192  1.1179  0.0907
   43DG      H8  974   5.766   1.433   1.465  0.6299  0.8528 -0.4004
   43DG      O9  975   5.070   1.544   1.918  0.5356 -0.1204  0.4227
   43DG     O10  976   5.568   1.496   1.491  0.5025  0.3739  0.0825
   43DG     C11  977   5.073   1.656   1.823  0.0398 -0.0204  0.1001
   43DG     C12  978   5.504   1.555   1.603 -0.4190  0.3159 -0.2467
   43DG     H13  979   5.135   1.738   1.860  0.1331  0.4334 -1.0093
   43DG     H14  980   4.975   1.700   1.806  0.7127  2.0492  1.2334
   43DG     H15  981   5.514   1.662   1.585  1.0914  0.2156 -0.1732
   43DG     H16  982   5.558   1.526   1.693  0.8546  1.3552 -0.6347
   43DG     C17  983   5.148   1.615   1.691  0.4463  0.9617 -0.8167
   43DG     C18  984   5.353   1.533   1.611 -0.6170 -0.7574  0.7456
   43DG     O19  985   5.284   1.594   1.716  0.7496 -0.2119  0.2424
   43DG     H20  986   5.131   1.687   1.610  2.0396  0.9803 -1.1766
   43DG     H21  987   5.094   1.524   1.668  2.1914 -1.2791  3.0332
   43DG     H22  988   5.305   1.565   1.518  0.7838 -0.5995  0.0442
   43DG     H23  989   5.342   1.424   1.613 -1.2514 -0.6989  2.6603
   44DG      C1  990   0.916   2.026   3.294 -0.2052  0.4331 -0.4976
   44DG      C2  991   1.031   1.423   3.721  0.3584 -0.1908  0.0173
   44DG      H3  992   1.013   2.072   3.317 -0.4725  0.1502  1.3454
   44DG      H4  993   0.857   2.041   3.384 -0.2503 -1.9875 -0.0408
   44DG      H5  994   0.876   2.077   3.207  0.5858  1.2858 -0.3726
   44DG      H6  995   0.940   1.464   3.765 -1.2639 -3.5265  0.0842
   44DG      H7  996   1.007   1.317   3.726 -2.0752  0.3275  1.8043
   44DG      H8  997   1.108   1.448   3.794 -1.7769 -0.2915  2.4891
   44DG      O9  998   0.919   1.880   3.272 -0.3500 -0.3096  0.2015
   44DG     O10  999   1.037   1.461   3.581 -0.9139  0.1495  0.5989
   44DG     C11 1000   1.023   1.824   3.356 -0.1403 -0.1275 -0.4606
   44DG     C12 1001   1.154   1.420   3.511 -0.4587  0.5380 -0.7122
   44DG     H13 1002   1.009   1.852   3.461 -1.5817  1.0984 -0.9276
   44DG     H14 1003   1.121   1.861   3.326 -1.5619  2.5969 -2.1686
   44DG     H15 1004   1.170   1.313   3.527 -2.3878  0.3493  0.3258
   44DG     H16 1005   1.235   1.473   3.561  1.5154 -0.4089 -2.7140
   44DG     C17 1006   1.020   1.670   3.349 -0.5398  0.2130 -0.4943
   44DG     C18 1007   1.152   1.468   3.364 -0.4020 -0.1161  0.2335
   44DG     O19 1008   1.147   1.613   3.342 -0.0380 -0.4581 -0.1151
   44DG     H20 1009   0.961   1.633   3.266 -0.4309 -3.4384  0.8657
   44DG     H21 1010   0.974   1.638   3.443 -1.8449  0.3817 -1.0445
   44DG     H22 1011   1.250   1.447   3.322 -0.1949  0.5703  0.3676
   44DG     H23 1012   1.082   1.407   3.307  0.7368  0.3879 -1.8123
   45DG      C1 1013   1.776   5.458   1.477  0.3842  0.1997 -0.0596
   45DG      C2 1014   1.273   5.282   1.054 -0.3895 -0.2610  0.5994
   45DG      H3 1015   1.870   5.501   1.512  0.3717  0.3991 -0.2716
   45DG      H4 1016   1.791   5.350   1.480 -0.8892  0.0195  0.7485
   45DG      H5 1017   1.702   5.483   1.554  0.1046 -0.5347 -0.0807
   45DG      H6 1018   1.303   5.179   1.071 -0.5421 -0.3833  0.1529
   45DG      H7 1019   1.210   5.312   1.137 -1.3425 -2.1260  0.6097
   45DG      H8 1020   1.215   5.285   0.961  0.1350 -3.4619  0.0650
   45DG      O9 1021   1.744   5.495   1.343  0.4371 -0.0282  0.1913
   45DG     O10 1022   1.400   5.351   1.045  0.2674 -0.7367  0.2888
   45DG     C11 1023   1.711   5.632   1.339 -0.2582 -0.4975  0.0075
   45DG     C12 1024   1.370   5.487   1.024 -0.7625  0.5234  0.3151
   45DG     H13 1025   1.799   5.691   1.363  0.9254 -2.6208  1.1107
   45DG     H14 1026   1.629   5.661   1.404 -0.4679  2.5240 -1.4150
   45DG     H15 1027   1.303   5.521   1.103 -0.4990  1.2560  0.2294
   45DG     H16 1028   1.324   5.495   0.926 -1.4726  1.3785  0.6997
   45DG     C17 1029   1.654   5.653   1.198  0.3589 -0.1950 -0.3057
   45DG     C18 1030   1.501   5.559   1.024 -0.4177  0.2616  0.0636
   45DG     O19 1031   1.556   5.553   1.159  0.2931 -0.0147  0.2924
   45DG     H20 1032   1.735   5.643   1.126  0.6814 -3.3103  0.3466
   45DG     H21 1033   1.602   5.749   1.195 -4.0759 -2.3622 -0.2645
   45DG     H22 1034   1.581   5.529   0.956 -0.9048  2.2488 -1.4480
   45DG     H23 1035   1.484   5.665   1.004 -0.9370 -0.1361 -1.7345
   46DG      C1 1036   1.712   2.070   0.738 -0.1174  0.1261  0.2071
   46DG      C2 1037   2.160   1.734   1.118 -0.4894  1.3785 -0.0740
   46DG      H3 1038   1.631   2.143   0.731 -2.0908 -2.0207 -0.6331
   46DG      H4 1039   1.705   1.979   0.679  1.8679 -1.0494  1.6637
   46DG      H5 1040   1.807   2.111   0.706  0.9537  0.4347  3.4079
   46DG      H6 1041   2.174   1.627   1.101  1.4539  1.6573 -0.4133
   46DG      H7 1042   2.219   1.774   1.035  0.4491 -1.1209 -0.7096
   46DG      H8 1043   2.196   1.777   1.211 -0.9031 -1.2199  1.3785
   46DG      O9 1044   1.730   2.023   0.879 -0.2956 -0.2254 -0.4107
   46DG     O10 1045   2.022   1.771   1.103 -0.6414 -0.0998  0.5257
   46DG     C11 1046   1.620   1.959   0.939  0.2316  0.4230 -0.4434
   46DG     C12 1047   1.942   1.708   1.198 -0.1807 -0.6559 -0.4217
   46DG     H13 1048   1.599   1.873   0.875 -1.0619  0.9699 -0.7943
   46DG     H14 1049   1.529   2.015   0.958 -0.6804 -1.9352  3.5514
   46DG     H15 1050   1.988   1.687   1.295 -0.6676  0.6626  0.1229
   46DG     H16 1051   1.915   1.604   1.180 -3.2524 -0.0963  0.4268
   46DG     C17 1052   1.657   1.908   1.080 -0.2407 -0.9028  0.1446
   46DG     C18 1053   1.811   1.783   1.207  0.0873  0.2017  0.4144
   46DG     O19 1054   1.772   1.831   1.082 -0.3720  0.0512  0.5897
   46DG     H20 1055   1.573   1.853   1.121 -0.8896 -0.7299 -0.9283
   46DG     H21 1056   1.676   2.001   1.135  1.4590  0.9935 -3.3138
   46DG     H22 1057   1.731   1.723   1.251 -0.7501  2.1982  1.7770
   46DG     H23 1058   1.835   1.864   1.276  2.0123 -0.7577  0.9262
   47DG      C1 1059   1.786   0.751   4.115 -0.0357 -0.3730 -0.0517
   47DG      C2 1060   2.504   0.639   4.237  0.0558  0.0949 -0.6789
   47DG      H3 1061   1.791   0.701   4.212  2.4262  0.6966  0.4662
   47DG      H4 1062   1.755   0.671   4.049  2.4459 -1.3996 -0.0725
   47DG      H5 1063   1.720   0.836   4.133  0.5282  0.1609 -0.4338
   47DG      H6 1064   2.494   0.660   4.344  0.3782 -2.0607 -0.1810
   47DG      H7 1065   2.482   0.534   4.221 -0.0812  0.0599 -0.2618
   47DG      H8 1066   2.607   0.657   4.207 -1.0650  1.4468 -4.3184
   47DG      O9 1067   1.917   0.798   4.086  0.5669 -0.2048  0.5127
   47DG     O10 1068   2.412   0.719   4.169  0.7557 -0.0859  0.7613
   47DG     C11 1069   1.961   0.893   4.181  0.0736  0.1056 -0.9210
   47DG     C12 1070   2.424   0.853   4.200 -0.3723 -0.2137  0.1564
   47DG     H13 1071   1.974   0.839   4.275  0.6434  0.6812 -0.6563
   47DG     H14 1072   1.897   0.977   4.207  2.6114  1.4584  1.6390
   47DG     H15 1073   2.526   0.891   4.195 -1.0892  1.6869 -1.1577
   47DG     H16 1074   2.390   0.865   4.303  0.2856  3.6349  0.0859
   47DG     C17 1075   2.097   0.966   4.141  0.2645 -0.0592 -0.6655
   47DG     C18 1076   2.327   0.937   4.121 -0.2012  0.3911  0.0910
   47DG     O19 1077   2.203   0.873   4.136 -0.1168 -0.5216  0.1738
   47DG     H20 1078   2.111   1.050   4.210  1.6737 -0.9385  0.1533
   47DG     H21 1079   2.094   1.021   4.047 -1.7856  1.3068  0.1254
   47DG     H22 1080   2.329   1.040   4.157 -0.4863  0.6612 -0.6552
   47DG     H23 1081   2.353   0.939   4.015  1.0996 -2.0450  0.3011
   48DG      C1 1082   2.726   2.786   5.204 -0.8132 -0.4107  1.3567
   48DG      C2 1083   2.559   3.401   5.297 -1.1113  0.4301 -0.2667
   48DG      H3 1084   2.617   2.776   5.202 -1.0406  0.5828 -3.4991
   48DG      H4 1085   2.772   2.732   5.287 -0.5774 -2.8754 -0.2408
   48DG      H5 1086   2.737   2.731   5.110  0.9067  0.0522  1.2514
   48DG      H6 1087   2.473   3.382   5.233 -0.7579  2.1281 -1.3055
   48DG      H7 1088   2.545   3.356   5.395  0.9166  0.0134 -0.1178
   48DG      H8 1089   2.560   3.506   5.329  1.4149  1.3745 -3.0247
   48DG      O9 1090   2.762   2.923   5.189 -0.1195  0.4151  0.4665
   48DG     O10 1091   2.686   3.369   5.239 -0.1412  0.2027  0.5537
   48DG     C11 1092   2.899   2.944   5.199 -0.3495 -0.2074  0.7389
   48DG     C12 1093   2.806   3.393   5.318 -0.4889 -0.1375 -0.3966
   48DG     H13 1094   2.950   2.880   5.127  2.0333  2.7793 -0.4365
   48DG     H14 1095   2.930   2.914   5.299  0.8922 -1.4399  0.0162
   48DG     H15 1096   2.801   3.374   5.426 -1.4778 -0.3965 -0.4851
   48DG     H16 1097   2.833   3.499   5.319  0.9627 -0.4408  1.8650
   48DG     C17 1098   2.939   3.089   5.177 -0.5887  0.1749 -0.6220
   48DG     C18 1099   2.920   3.310   5.251  0.9816  0.5073  0.0459
   48DG     O19 1100   2.849   3.178   5.239  0.2933  0.3200  0.1414
   48DG     H20 1101   2.950   3.123   5.074 -0.7742  1.8355 -0.1194
   48DG     H21 1102   3.032   3.104   5.231 -0.5827  0.8231 -0.8103
   48DG     H22 1103   2.954   3.348   5.155  0.5393 -0.8563 -0.6837
   48DG     H23 1104   3.007   3.318   5.316  1.1701  1.0433 -0.2740
   49DG      C1 1105   1.187   3.651   5.398 -0.5265  0.1360  0.1067
   49DG      C2 1106   1.778   3.472   5.135  0.3532 -0.3649  0.4952
   49DG      H3 1107   1.159   3.677   5.500 -0.6919 -2.8324  0.9148
   49DG      H4 1108   1.167   3.548   5.371 -1.9178 -0.8728  4.2665
   49DG      H5 1109   1.128   3.712   5.329 -0.5639 -2.0586 -1.9126
   49DG      H6 1110   1.798   3.527   5.043 -2.0938  1.7855  1.1277
   49DG      H7 1111   1.865   3.427   5.181  0.0286 -0.9806  0.5196
   49DG      H8 1112   1.715   3.389   5.104  1.4052  0.0052 -3.1663
   49DG      O9 1113   1.323   3.681   5.390  0.1258 -0.0566 -0.2646
   49DG     O10 1114   1.712   3.549   5.236 -0.1469  0.2574  0.1532
   49DG     C11 1115   1.353   3.819   5.398  0.9225 -0.1328 -0.0996
   49DG     C12 1116   1.793   3.661   5.267 -0.6352  0.1381  0.2238
   49DG     H13 1117   1.304   3.870   5.481  1.8822  0.2424  0.2548
   49DG     H14 1118   1.311   3.878   5.317  0.4774  0.7810  0.7835
   49DG     H15 1119   1.799   3.716   5.173 -1.4202 -0.9274 -0.4626
   49DG     H16 1120   1.899   3.642   5.289 -0.1283 -1.4467 -3.0367
   49DG     C17 1121   1.502   3.829   5.429  0.1774  0.4095 -0.3855
   49DG     C18 1122   1.721   3.753   5.365  0.7915 -0.2106 -0.4776
   49DG     O19 1123   1.582   3.766   5.334  0.6259 -0.3738  0.3756
   49DG     H20 1124   1.522   3.774   5.521 -1.2083  0.3573 -0.0957
   49DG     H21 1125   1.534   3.932   5.440  0.5941  0.0931  2.0303
   49DG     H22 1126   1.724   3.711   5.465 -0.1651  1.9859  0.5446
   49DG     H23 1127   1.765   3.851   5.383 -1.0188  0.0836  3.2065
   50DG      C1 1128   0.789   1.945   3.847  1.0265  0.2561 -0.0343
   50DG      C2 1129   0.576   2.269   3.472 -0.0395  0.5414  0.3191
   50DG      H3 1130   0.724   2.023   3.885 -1.5721 -1.7561 -0.0958
   50DG      H4 1131   0.853   1.990   3.771  3.6311  0.1894  1.9269
   50DG      H5 1132   0.851   1.919   3.933 -1.3626 -1.6522  1.2271
   50DG      H6 1133   0.514   2.352   3.438 -0.7824 -0.6187 -1.3094
   50DG      H7 1134   0.621   2.302   3.565 -0.9299 -1.1417  1.3894
   50DG      H8 1135   0.657   2.267   3.399  0.2014 -0.3515  0.6005
   50DG      O9 1136   0.715   1.837   3.792  0.2739  0.4239  0.4041
   50DG     O10 1137   0.513   2.144   3.497 -0.1118 -0.2034 -0.3002
   50DG     C11 1138   0.592   1.802   3.856 -0.0664  0.3867 -0.5214
   50DG     C12 1139   0.404   2.167   3.588  0.4644  0.1941 -0.0988
   50DG     H13 1140   0.588   1.848   3.955  1.8380 -0.4147 -0.0404
   50DG     H14 1141   0.584   1.694   3.867 -2.9126  0.4863 -0.8833
   50DG     H15 1142   0.322   2.215   3.535 -1.1643  0.3826  2.4563
   50DG     H16 1143   0.430   2.221   3.679  1.2588  0.2905 -0.3737
   50DG     C17 1144   0.468   1.849   3.765  0.1795  0.2588 -0.2612
   50DG     C18 1145   0.367   2.028   3.643 -0.0557 -0.6125 -0.7575
   50DG     O19 1146   0.471   1.986   3.725 -0.0461  0.2136 -0.6881
   50DG     H20 1147   0.373   1.820   3.810 -0.7370  1.8405 -1.0830
   50DG     H21 1148   0.458   1.790   3.674 -1.5519  0.5538 -0.2945
   50DG     H22 1149   0.276   2.027   3.704  0.8815 -0.6242  0.6813
   50DG     H23 1150   0.366   1.965   3.554  3.3610 -3.6287  1.1046
   51DG      C1 1151   0.509   1.935   2.216 -0.7510 -0.5533  0.0108
   51DG      C2 1152   1.193   2.000   2.464 -0.3207 -0.4596  0.2607
   51DG      H3 1153   0.496   2.041   2.241  1.8588 -0.3198  0.5924
   51DG      H4 1154   0.486   1.863   2.295 -0.6374  0.0323  0.5900
   51DG      H5 1155   0.448   1.925   2.126  2.1216  0.3978 -2.1891
   51DG      H6 1156   1.302   2.002   2.468 -0.3327  1.6446  0.5275
   51DG      H7 1157   1.185   2.109   2.470  2.7459 -0.1277 -0.1287
   51DG      H8 1158   1.159   1.960   2.559  0.6342  3.0975  2.2854
   51DG      O9 1159   0.644   1.940   2.185 -0.6453  0.0118 -0.0790
   51DG     O10 1160   1.137   1.932   2.353 -0.7616  0.0001  0.0926
   51DG     C11 1161   0.702   1.816   2.141  0.1433 -0.9222 -0.6699
   51DG     C12 1162   1.122   2.016   2.236  0.6301 -0.3277  0.4616
   51DG     H13 1163   0.641   1.761   2.070  1.5751 -1.8737 -1.2208
   51DG     H14 1164   0.696   1.759   2.234 -0.8302 -1.7363 -1.2205
   51DG     H15 1165   1.218   2.060   2.208 -0.3473  1.5404 -0.1462
   51DG     H16 1166   1.063   2.104   2.264  1.8315  0.1354  1.6205
   51DG     C17 1167   0.847   1.834   2.086 -0.0082 -0.2243 -0.1964
   51DG     C18 1168   1.053   1.935   2.126  0.2381 -0.3351 -0.3011
   51DG     O19 1169   0.931   1.899   2.180  0.4715 -0.3659 -0.3316
   51DG     H20 1170   0.841   1.889   1.992  1.7897  1.9125  0.8340
   51DG     H21 1171   0.883   1.733   2.068 -1.1781 -0.8730  0.9697
   51DG     H22 1172   1.046   1.994   2.034 -0.8348 -1.9041 -1.2818
   51DG     H23 1173   1.114   1.847   2.103  1.9715 -0.1447  2.9471
   52DG      C1 1174   3.338   2.212   3.675 -0.1373 -0.1605  0.5341
   52DG      C2 1175   3.791   2.676   3.495 -0.4361  0.3843 -0.1255
   52DG      H3 1176   3.303   2.292   3.740 -0.6861  1.0068 -1.1260
   52DG      H4 1177   3.427   2.162   3.713  0.8504  1.5290  0.5479
   52DG      H5 1178   3.248   2.154   3.654 -1.6832  1.8048  1.3375
   52DG      H6 1179   3.898   2.661   3.481 -0.4302 -1.0927  1.2211
   52DG      H7 1180   3.780   2.781   3.469 -4.4337  0.8823  2.5737
   52DG      H8 1181   3.776   2.688   3.602 -1.1082 -1.1052 -0.0320
   52DG      O9 1182   3.394   2.282   3.567  0.2093 -0.6353  1.1147
   52DG     O10 1183   3.713   2.579   3.434 -0.4022 -0.1378 -0.2538
   52DG     C11 1184   3.464   2.198   3.472 -0.2154 -0.3709  0.1482
   52DG     C12 1185   3.578   2.589   3.475  0.6260 -0.5615  0.2697
   52DG     H13 1186   3.408   2.108   3.446 -0.3578 -0.3969  0.5312
   52DG     H14 1187   3.552   2.168   3.528 -0.5389 -0.9469  0.3562
   52DG     H15 1188   3.547   2.691   3.452 -0.5350 -1.0594 -0.4894
   52DG     H16 1189   3.557   2.571   3.581  0.9528 -1.5504  0.1834
   52DG     C17 1190   3.496   2.265   3.339 -0.4342 -0.3718  0.0852
   52DG     C18 1191   3.482   2.500   3.391  0.3053 -0.1679 -0.5991
   52DG     O19 1192   3.563   2.392   3.339  0.2655 -0.2016 -0.5219
   52DG     H20 1193   3.405   2.283   3.281 -0.8959 -4.4377 -0.7236
   52DG     H21 1194   3.562   2.192   3.292 -1.4712 -0.1780 -1.7612
   52DG     H22 1195   3.385   2.484   3.438 -0.3135  2.4176 -0.8446
   52DG     H23 1196   3.461   2.556   3.300  1.5277 -0.6717 -1.2161
   53DG      C1 1197   5.479   2.719   1.416  0.2877  0.1846  0.7596
   53DG      C2 1198   5.000   3.035   1.782 -0.1174  0.0638 -0.0918
   53DG      H3 1199   5.459   2.627   1.362  0.3321  1.3155 -1.2665
   53DG      H4 1200   5.588   2.729   1.423  0.6524 -1.8318 -0.9791
   53DG      H5 1201   5.435   2.806   1.369  0.3939  0.0758  0.4605
   53DG      H6 1202   4.987   3.078   1.882 -0.1383  1.6593 -0.7560
   53DG      H7 1203   5.042   3.110   1.714  0.2663 -1.1825 -1.2669
   53DG      H8 1204   4.908   2.994   1.742 -0.8079  1.9094 -0.4601
   53DG      O9 1205   5.413   2.730   1.541 -0.2297 -0.3927 -0.5757
   53DG     O10 1206   5.106   2.935   1.779 -0.3615  0.2751 -0.3915
   53DG     C11 1207   5.456   2.630   1.637  0.2347  0.2921  0.3511
   53DG     C12 1208   5.069   2.818   1.848  0.5539 -1.1122 -0.2013
   53DG     H13 1209   5.563   2.617   1.649  0.4429  1.0558 -0.6055
   53DG     H14 1210   5.419   2.533   1.604  0.4256 -0.4411  2.1855
   53DG     H15 1211   4.976   2.781   1.805 -0.6945 -0.2832  1.6382
   53DG     H16 1212   5.038   2.843   1.950 -1.3962 -1.3499 -0.7073
   53DG     C17 1213   5.381   2.648   1.764  0.2858 -0.5997 -0.2485
   53DG     C18 1214   5.179   2.717   1.861  0.9015  0.4808 -0.0757
   53DG     O19 1215   5.261   2.722   1.745  0.0127  0.2203 -0.4403
   53DG     H20 1216   5.427   2.711   1.840 -1.7934  0.2099  0.3911
   53DG     H21 1217   5.355   2.552   1.808  0.5627  0.7561  3.1946
   53DG     H22 1218   5.219   2.713   1.962  1.1206 -0.0977 -0.1821
   53DG     H23 1219   5.136   2.617   1.872  0.8811  0.5888  0.9430
   54DG      C1 1220   0.220   4.251   1.076  0.3254 -0.0811 -0.2652
   54DG      C2 1221  -0.001   5.029   1.129 -0.4778 -0.1882  0.1357
   54DG      H3 1222   0.294   4.190   1.129  2.2158  1.9379 -0.4292
   54DG      H4 1223   0.224   4.238   0.968 -0.5568  0.2539 -0.3415
   54DG      H5 1224   0.123   4.218   1.114 -0.1822  1.8169  0.1888
   54DG      H6 1225   0.036   5.112   1.188 -0.1201  0.7262 -1.3325
   54DG      H7 1226   0.033   5.059   1.030  0.2454  2.6930  1.1639
   54DG      H8 1227  -0.109   5.018   1.136 -0.4037 -2.0047 -0.8674
   54DG      O9 1228   0.239   4.385   1.118 -0.0567 -0.0821  0.7886
   54DG     O10 1229   0.057   4.906   1.180  0.4273 -0.4799  0.2651
   54DG     C11 1230   0.209   4.411   1.254  0.1647 -0.2481 -0.2233
   54DG     C12 1231   0.195   4.898   1.170 -0.5716  0.0703  0.9921
   54DG     H13 1232   0.256   4.332   1.312  0.6705  0.4103  0.2769
   54DG     H14 1233   0.100   4.401   1.259  0.1949 -0.1177  1.1254
   54DG     H15 1234   0.232   4.991   1.213 -2.8132  0.4060  2.3292
   54DG     H16 1235   0.221   4.884   1.065 -0.2392 -2.4259  1.3272
   54DG     C17 1236   0.240   4.556   1.307  0.8317  0.5658  0.1377
   54DG     C18 1237   0.244   4.779   1.260 -0.3097 -0.5826 -0.1119
   54DG     O19 1238   0.199   4.656   1.214 -0.1966  0.0119 -0.3803
   54DG     H20 1239   0.347   4.565   1.323  0.3917  1.4738  3.1521
   54DG     H21 1240   0.200   4.575   1.406 -1.5639  1.9321 -0.9903
   54DG     H22 1241   0.353   4.777   1.252 -0.3821 -0.1778 -1.4141
   54DG     H23 1242   0.204   4.804   1.358 -2.1951 -0.2446 -0.9278
   55DG      C1 1243   3.699   3.136   2.668 -0.3647  0.5113  0.3915
   55DG      C2 1244   3.230   3.450   3.108 -0.4418 -0.6174 -0.5134
   55DG      H3 1245   3.780   3.125   2.741 -0.8194 -3.4002  0.4872
   55DG      H4 1246   3.755   3.165   2.579  1.0130 -2.3530  0.2113
   55DG      H5 1247   3.660   3.038   2.640  0.1237  0.5293 -0.3648
   55DG      H6 1248   3.279   3.396   3.189 -1.0389 -1.0649 -0.4443
   55DG      H7 1249   3.236   3.556   3.136  1.0628 -1.0160  0.8531
   55DG      H8 1250   3.123   3.434   3.125 -0.3274 -1.2285 -0.3501
   55DG      O9 1251   3.596   3.227   2.699  0.2476 -0.2179 -0.1402
   55DG     O10 1252   3.259   3.415   2.975  0.0708  0.6252 -0.1829
   55DG     C11 1253   3.620   3.367   2.697 -0.6833 -0.5585  0.3505
   55DG     C12 1254   3.238   3.533   2.897 -0.6105 -0.4760  0.2069
   55DG     H13 1255   3.701   3.405   2.636  0.2506  1.3385  2.6225
   55DG     H14 1256   3.650   3.384   2.800 -1.6102 -0.4477  0.6156
   55DG     H15 1257   3.305   3.609   2.936 -0.1626  0.7591 -2.7069
   55DG     H16 1258   3.139   3.576   2.913 -1.3370 -2.1700  0.4909
   55DG     C17 1259   3.496   3.446   2.661  0.1560  0.6775 -0.4883
   55DG     C18 1260   3.295   3.510   2.763 -0.2745 -0.3638  0.5143
   55DG     O19 1261   3.420   3.431   2.773 -0.1010  0.1101  0.2622
   55DG     H20 1262   3.447   3.410   2.570 -1.6825 -1.5577  1.2892
   55DG     H21 1263   3.520   3.552   2.644  0.1257  0.7622 -0.0044
   55DG     H22 1264   3.233   3.451   2.696 -0.9975  1.5525 -0.6081
   55DG     H23 1265   3.318   3.603   2.710 -1.4227 -0.9874 -1.1680
   56DG      C1 1266   4.918   2.191   3.995 -0.0685  0.3484 -0.1677
   56DG      C2 1267   5.026   1.618   3.653  0.3995  0.2425  0.2538
   56DG      H3 1268   4.856   2.275   4.026 -0.2036 -0.4362  1.8613
   56DG      H4 1269   5.022   2.215   3.972  0.5014 -1.3075  0.5485
   56DG      H5 1270   4.901   2.137   4.088  0.8832  1.4662  0.6880
   56DG      H6 1271   5.133   1.637   3.668  0.5020 -0.0167 -0.1354
   56DG      H7 1272   5.004   1.564   3.745  1.5684 -1.2869 -0.3139
   56DG      H8 1273   5.007   1.544   3.575  0.9473  0.0472  0.3017
   56DG      O9 1274   4.857   2.120   3.884 -0.0598  0.4003  0.3490
   56DG     O10 1275   4.951   1.737   3.643 -0.3656 -0.2323  0.5149
   56DG     C11 1276   4.846   2.200   3.768 -0.3167  0.0104  0.0426
   56DG     C12 1277   4.958   1.790   3.506  0.3110 -0.9197  0.1106
   56DG     H13 1278   4.943   2.248   3.763  0.5276 -1.7446 -2.8971
   56DG     H14 1279   4.780   2.284   3.791 -0.0213  1.8103 -4.6508
   56DG     H15 1280   4.924   1.720   3.429  0.6497 -0.9290 -0.0310
   56DG     H16 1281   5.060   1.806   3.471  0.4142 -1.2954  0.2344
   56DG     C17 1282   4.812   2.118   3.643  0.0800  0.2213  0.0044
   56DG     C18 1283   4.879   1.925   3.513 -0.2260  0.4385  0.2623
   56DG     O19 1284   4.899   1.996   3.637 -0.1235 -0.0883  0.1700
   56DG     H20 1285   4.831   2.174   3.551 -0.5719  0.1875 -0.1512
   56DG     H21 1286   4.708   2.085   3.639  0.2102 -0.3290  0.8581
   56DG     H22 1287   4.906   1.988   3.428 -0.2858  0.4026  0.2162
   56DG     H23 1288   4.771   1.906   3.509  0.3036 -3.0907 -0.5679
   57DG      C1 1289   0.394   1.431   3.693  0.3660  0.5348 -0.6522
   57DG      C2 1290   0.592   1.053   3.152  0.4282 -0.6458  0.5157
   57DG      H3 1291   0.345   1.343   3.736  0.1889  1.2450  0.6631
   57DG      H4 1292   0.308   1.460   3.633 -0.6601 -1.9989 -0.5358
   57DG      H5 1293   0.416   1.507   3.768  2.0453  0.2695 -0.8349
   57DG      H6 1294   0.551   1.123   3.079 -0.1593  0.7887  2.1278
   57DG      H7 1295   0.658   0.985   3.099 -0.6910 -1.1885 -0.2197
   57DG      H8 1296   0.517   0.985   3.193 -0.8489 -0.7338 -1.8100
   57DG      O9 1297   0.501   1.398   3.610 -0.6890  0.2038  0.2148
   57DG     O10 1298   0.654   1.128   3.257  0.6687 -0.6863  0.0262
   57DG     C11 1299   0.559   1.511   3.543 -0.2184 -0.5639 -0.0607
   57DG     C12 1300   0.732   1.233   3.210  0.8180 -0.6132 -0.3703
   57DG     H13 1301   0.573   1.599   3.605 -1.7083 -0.6570  0.4407
   57DG     H14 1302   0.488   1.546   3.468 -1.2606  0.0102  1.1644
   57DG     H15 1303   0.681   1.294   3.136  0.8087  2.9557  2.3357
   57DG     H16 1304   0.821   1.192   3.162 -1.0000 -3.3373 -1.6827
   57DG     C17 1305   0.700   1.472   3.486  0.0491  0.4901 -0.6711
   57DG     C18 1306   0.789   1.316   3.329  0.6229  0.7916 -0.1949
   57DG     O19 1307   0.675   1.360   3.402 -0.1449 -0.2963 -0.0385
   57DG     H20 1308   0.761   1.443   3.571 -3.4183  0.5335  2.0454
   57DG     H21 1309   0.744   1.563   3.445  0.3584  1.5142  1.7491
   57DG     H22 1310   0.856   1.262   3.395 -0.6861 -0.4657  0.1543
   57DG     H23 1311   0.844   1.405   3.300  1.2485 -0.3999 -3.0525
   58DG      C1 1312   3.901   0.708   2.856  1.0691  0.4294  0.0654
   58DG      C2 1313   3.476   0.942   2.472 -0.6710  0.1823 -0.0235
   58DG      H3 1314   3.958   0.643   2.922  0.5126  0.5631  0.6786
   58DG      H4 1315   3.870   0.784   2.927 -0.1410 -1.4162  1.6220
   58DG      H5 1316   3.968   0.753   2.783 -0.0540  0.4428 -1.0002
   58DG      H6 1317   3.462   0.962   2.366  1.5306  2.0129 -0.0455
   58DG      H7 1318   3.380   0.930   2.521 -0.1666 -2.5359  0.4127
   58DG      H8 1319   3.522   1.035   2.507  2.7910 -1.9369  1.6465
   58DG      O9 1320   3.797   0.637   2.780 -0.1211  0.1064  0.5599
   58DG     O10 1321   3.556   0.834   2.496  0.0067  0.0467 -0.1790
   58DG     C11 1322   3.850   0.532   2.699 -0.3973  0.3039  0.0532
   58DG     C12 1323   3.501   0.714   2.442 -0.3128  0.0063  0.3443
   58DG     H13 1324   3.894   0.450   2.755  1.8063  0.9414 -0.6495
   58DG     H14 1325   3.928   0.579   2.640  1.1539 -1.3887  0.6601
   58DG     H15 1326   3.543   0.717   2.342  0.4711  1.0410  0.6814
   58DG     H16 1327   3.393   0.719   2.428 -0.4675 -0.3931  1.2869
   58DG     C17 1328   3.730   0.486   2.607 -0.4050  0.2944 -0.0489
   58DG     C18 1329   3.549   0.585   2.510 -0.2165  0.3588 -0.0034
   58DG     O19 1330   3.684   0.597   2.535  0.3553 -0.3906 -0.0640
   58DG     H20 1331   3.659   0.419   2.654 -1.1409  0.6435 -0.6449
   58DG     H21 1332   3.766   0.414   2.534  0.8667 -2.6176  3.1504
   58DG     H22 1333   3.490   0.561   2.599 -0.3329 -0.9336 -0.4010
   58DG     H23 1334   3.524   0.503   2.442  0.8525 -0.3869  0.4816
   59DG      C1 1335   0.158   4.556   3.819  0.1711 -0.5757 -0.2382
   59DG      C2 1336   0.570   5.200   3.720 -0.1146  0.2675  0.2962
   59DG      H3 1337   0.194   4.589   3.916 -1.7275 -1.3449  0.7941
   59DG      H4 1338   0.208   4.469   3.776 -1.5000 -0.2912 -2.9832
   59DG      H5 1339   0.060   4.528   3.857  0.2178  0.2743  0.5247
   59DG      H6 1340   0.542   5.279   3.651 -1.8675 -0.2591  0.3562
   59DG      H7 1341   0.629   5.248   3.798 -0.9054  0.6297  0.6914
   59DG      H8 1342   0.625   5.126   3.662 -0.1040  0.5013  0.0067
   59DG      O9 1343   0.147   4.660   3.718  0.0850 -0.1656 -0.4301
   59DG     O10 1344   0.453   5.142   3.773  0.3113 -0.2191  0.2510
   59DG     C11 1345   0.070   4.778   3.752  0.5189 -0.3672 -0.2756
   59DG     C12 1346   0.480   5.050   3.875  0.2026 -0.3348  0.3117
   59DG     H13 1347  -0.022   4.738   3.793  0.9815  0.2002  1.3759
   59DG     H14 1348   0.050   4.829   3.658  0.8890 -1.5624 -1.0339
   59DG     H15 1349   0.511   5.107   3.962  0.6429 -0.8828  0.5211
   59DG     H16 1350   0.556   4.979   3.843  0.5625 -0.1235  0.6844
   59DG     C17 1351   0.138   4.885   3.832 -0.4987 -0.1548 -0.3912
   59DG     C18 1352   0.345   4.981   3.908  0.8041 -0.5569  0.0251
   59DG     O19 1353   0.276   4.913   3.801 -0.0231  0.1047  0.2802
   59DG     H20 1354   0.131   4.863   3.939  2.4310 -1.9889 -0.4764
   59DG     H21 1355   0.077   4.975   3.823  1.1110  0.8697 -1.4803
   59DG     H22 1356   0.347   4.920   3.999 -0.5930  1.6212  1.6235
   59DG     H23 1357   0.285   5.067   3.936  1.2841 -0.0175 -0.5901
   60DG      C1 1358   4.761   1.635   5.200 -0.1577  0.5862 -0.1292
   60DG      C2 1359   4.814   2.281   5.284  0.3636 -0.3035  0.3689
   60DG      H3 1360   4.674   1.631   5.265 -1.6964  0.3416 -2.0842
   60DG      H4 1361   4.791   1.535   5.170 -0.3463  1.2505 -2.7826
   60DG      H5 1362   4.736   1.699   5.115 -0.2739  0.8093  0.0737
   60DG      H6 1363   4.716   2.313   5.319  0.0251  1.1816 -1.7560
   60DG      H7 1364   4.888   2.358   5.304 -0.9010  0.8558  0.7072
   60DG      H8 1365   4.820   2.273   5.175  0.0667  1.2691  0.2086
   60DG      O9 1366   4.868   1.700   5.261  0.0483  0.4354  0.5653
   60DG     O10 1367   4.849   2.160   5.344  0.2959 -0.0703 -0.3998
   60DG     C11 1368   5.000   1.658   5.227 -0.0209 -0.6049 -0.0950
   60DG     C12 1369   4.953   2.094   5.257 -0.0898 -0.0784  0.1735
   60DG     H13 1370   5.007   1.665   5.118 -1.1151 -0.4087 -0.1641
   60DG     H14 1371   5.018   1.554   5.254  0.9204 -0.9215 -1.8126
   60DG     H15 1372   5.040   2.158   5.243 -0.6814  0.5282 -0.8538
   60DG     H16 1373   4.903   2.079   5.161  1.5664  0.8022 -0.8738
   60DG     C17 1374   5.094   1.758   5.289  0.4721  0.3786  0.0618
   60DG     C18 1375   4.983   1.962   5.330 -0.1616 -0.4210  0.7709
   60DG     O19 1376   5.061   1.890   5.236 -0.3494 -0.0353  0.2920
   60DG     H20 1377   5.195   1.738   5.253 -1.2373 -3.0134 -3.6313
   60DG     H21 1378   5.103   1.762   5.397  0.9470  1.0938  0.0069
   60DG     H22 1379   5.045   1.974   5.418  0.5873 -0.5010  0.2647
   60DG     H23 1380   4.889   1.908   5.344 -0.5699 -0.5002 -1.7332
   61DG      C1 1381   0.312   0.286   4.944 -0.0391  0.1604  0.0551
   61DG      C2 1382   0.932   0.521   5.236  0.1517  0.8293  0.2556
   61DG      H3 1383   0.285   0.351   5.027  0.4741  0.3723  0.0601
   61DG      H4 1384   0.337   0.191   4.991  1.5123  1.5001  2.1076
   61DG      H5 1385   0.233   0.277   4.869 -2.4906  2.3255  2.1539
   61DG      H6 1386   0.911   0.589   5.318 -1.2004 -0.6050  1.1697
   61DG      H7 1387   0.928   0.418   5.271  0.1411 -0.1010 -2.2538
   61DG      H8 1388   1.039   0.528   5.218  0.2117 -0.7225 -0.2173
   61DG      O9 1389   0.427   0.344   4.886  0.4432  0.0485  0.2268
   61DG     O10 1390   0.863   0.565   5.113  0.5334  0.3649  0.1394
   61DG     C11 1391   0.413   0.474   4.832 -0.0090 -0.2240  0.4009
   61DG     C12 1392   0.854   0.462   5.008  0.5149 -0.5266 -0.6038
   61DG     H13 1393   0.371   0.547   4.902  3.9538  2.4910  0.2575
   61DG     H14 1394   0.356   0.467   4.740 -1.8798  2.5362  1.2030
   61DG     H15 1395   0.803   0.372   5.043 -1.0301  0.6793  0.3638
   61DG     H16 1396   0.951   0.429   4.969  1.0288 -1.3802  1.3182
   61DG     C17 1397   0.553   0.518   4.804  0.3928 -0.9150 -1.0565
   61DG     C18 1398   0.776   0.503   4.884  0.2362  0.2899  0.1448
   61DG     O19 1399   0.635   0.501   4.919 -0.0374 -0.4117 -0.1741
   61DG     H20 1400   0.550   0.625   4.784 -2.6985 -0.6856 -0.0084
   61DG     H21 1401   0.590   0.481   4.708 -0.6662 -1.7561 -1.1638
   61DG     H22 1402   0.797   0.604   4.849  0.1755 -0.1489 -1.2342
   61DG     H23 1403   0.799   0.429   4.808 -1.3970 -1.0338  0.8808
   62DG      C1 1404   3.075   1.799   4.316 -0.3254 -0.3071 -0.0661
   62DG      C2 1405   3.404   1.296   3.828 -0.4772  0.3004 -0.3668
   62DG      H3 1406   3.156   1.824   4.385 -0.6493  2.0593 -0.4609
   62DG      H4 1407   3.016   1.729   4.374 -1.8472  0.6041 -0.4408
   62DG      H5 1408   3.004   1.880   4.298  1.3159  1.1523 -0.3075
   62DG      H6 1409   3.386   1.196   3.789 -0.0385  0.1490 -0.1902
   62DG      H7 1410   3.460   1.352   3.753 -0.0952  0.7295  0.2326
   62DG      H8 1411   3.459   1.298   3.922  0.5361 -1.7359 -0.8522
   62DG      O9 1412   3.109   1.744   4.196  0.3122 -0.0223  0.1820
   62DG     O10 1413   3.292   1.382   3.862 -0.3410  0.3657  0.8425
   62DG     C11 1414   3.005   1.664   4.149  0.3458  0.3680 -0.0779
   62DG     C12 1415   3.213   1.329   3.967 -0.4149 -0.2727  0.4278
   62DG     H13 1416   2.907   1.713   4.141 -0.9970 -1.8066  1.7603
   62DG     H14 1417   2.996   1.570   4.203  1.2822  0.3858  0.1188
   62DG     H15 1418   3.273   1.349   4.055 -0.8144  0.3454  0.5660
   62DG     H16 1419   3.187   1.223   3.959 -3.3019  0.4761 -2.6750
   62DG     C17 1420   3.017   1.616   4.007  0.1483  0.0644 -0.0205
   62DG     C18 1421   3.077   1.395   3.982 -0.0063 -0.2093  0.0457
   62DG     O19 1422   3.123   1.527   4.003 -1.1627 -0.5946  0.1527
   62DG     H20 1423   3.031   1.695   3.932  1.4904 -0.9535 -0.8869
   62DG     H21 1424   2.923   1.568   3.981  0.0699 -0.0288  0.4359
   62DG     H22 1425   3.007   1.381   3.899 -1.0094 -0.2336  0.8764
   62DG     H23 1426   3.031   1.353   4.071  1.1519  0.2422  0.8755
   63DG      C1 1427   0.003   3.907   5.164  0.7465  0.6486  0.0506
   63DG      C2 1428  -0.129   4.638   5.423  0.4318  0.5189  0.0579
   63DG      H3 1429   0.100   3.857   5.159 -0.5528 -1.9416 -1.0241
   63DG      H4 1430   0.006   3.968   5.074  0.0079 -0.2085 -0.5739
   63DG      H5 1431  -0.069   3.827   5.151 -0.3401  1.5488  0.4041
   63DG      H6 1432  -0.031   4.613   5.464  1.4335  1.1700 -1.7956
   63DG      H7 1433  -0.129   4.671   5.319 -1.4365  0.8664  0.1324
   63DG      H8 1434  -0.164   4.720   5.485  0.8555  0.1820  0.7615
   63DG      O9 1435  -0.030   3.990   5.274 -0.5661  0.1675  0.2327
   63DG     O10 1436  -0.219   4.527   5.428 -0.3553 -0.1936 -0.2107
   63DG     C11 1437  -0.168   4.037   5.279 -0.7301 -0.4660  0.0230
   63DG     C12 1438  -0.202   4.432   5.533 -0.3525  0.2927  0.2791
   63DG     H13 1439  -0.232   3.953   5.307 -1.2842  0.5172  1.9019
   63DG     H14 1440  -0.208   4.092   5.194 -0.2529  1.9243  1.2692
   63DG     H15 1441  -0.296   4.377   5.539 -0.2466  0.0897  0.0599
   63DG     H16 1442  -0.188   4.479   5.631 -0.5576 -0.4245  0.6550
   63DG     C17 1443  -0.191   4.132   5.393 -0.5037 -0.7335  0.2267
   63DG     C18 1444  -0.091   4.326   5.505  0.3203  0.1087  0.1702
   63DG     O19 1445  -0.111   4.246   5.386 -0.1450 -0.4153 -0.0031
   63DG     H20 1446  -0.186   4.087   5.493  0.0613  0.4000  0.7275
   63DG     H21 1447  -0.291   4.173   5.378  0.1384  0.3878 -1.2236
   63DG     H22 1448   0.005   4.378   5.509 -0.3129  1.2719  2.9858
   63DG     H23 1449  -0.076   4.258   5.589  0.3941 -0.0077  0.0615
   64DG      C1 1450   0.824   4.245   1.741  0.2582  0.1365 -0.7453
   64DG      C2 1451   1.452   4.081   1.912 -0.4523  0.6594  0.2663
   64DG      H3 1452   0.835   4.353   1.753 -0.6744  0.0318  1.4421
   64DG      H4 1453   0.720   4.224   1.715 -0.4785  0.8349  1.4572
   64DG      H5 1454   0.891   4.222   1.657 -0.0471  0.3879 -1.0620
   64DG      H6 1455   1.517   4.004   1.870 -0.6170  0.1529  0.9155
   64DG      H7 1456   1.468   4.172   1.854 -0.9806  1.2118  0.9619
   64DG      H8 1457   1.478   4.087   2.017  0.8676  1.2423 -0.0716
   64DG      O9 1458   0.875   4.154   1.840  0.7412 -0.0158 -0.2482
   64DG     O10 1459   1.311   4.042   1.912 -0.2912 -0.0689 -0.0506
   64DG     C11 1460   0.825   4.021   1.828  0.2987 -0.0415 -0.6991
   64DG     C12 1461   1.290   3.907   1.956  0.3529  0.1693  0.4246
   64DG     H13 1462   0.825   4.007   1.720  0.8935  0.7153 -0.8064
   64DG     H14 1463   0.718   4.013   1.847  0.5999 -4.4017  0.2813
   64DG     H15 1464   1.353   3.887   2.043  0.7081 -1.0770 -0.1003
   64DG     H16 1465   1.324   3.834   1.883  1.5088 -0.7073  1.8017
   64DG     C17 1466   0.909   3.935   1.914 -0.2655  0.4077  0.4944
   64DG     C18 1467   1.142   3.876   1.975  0.2984  0.0465 -0.3340
   64DG     O19 1468   1.056   3.954   1.887  0.5039 -0.0279 -0.1131
   64DG     H20 1469   0.879   3.831   1.907 -1.8966  0.8442  0.4910
   64DG     H21 1470   0.877   3.955   2.016 -0.3916 -1.0860  0.7579
   64DG     H22 1471   1.121   3.770   1.985  1.7279 -0.0406  3.4174
   64DG     H23 1472   1.112   3.889   2.079 -1.9442 -1.3860 -0.7480
   65DG      C1 1473   4.305   2.164   3.404  0.7590 -0.2858 -0.1732
   65DG      C2 1474   4.593   1.589   3.066 -0.4757 -0.1320  0.2912
   65DG      H3 1475   4.304   2.107   3.497  0.2166  1.2591  0.8108
   65DG      H4 1476   4.208   2.144   3.358  0.8831  0.8753 -0.9957
   65DG      H5 1477   4.306   2.272   3.423 -2.1752 -0.4213  1.2483
   65DG      H6 1478   4.563   1.563   3.167 -1.3279  0.6223  0.2482
   65DG      H7 1479   4.510   1.583   2.996 -0.9300  0.3144  0.7801
   65DG      H8 1480   4.675   1.528   3.029 -2.3293 -1.8051 -1.2505
   65DG      O9 1481   4.409   2.133   3.323 -0.7487  0.4304  0.0014
   65DG     O10 1482   4.630   1.726   3.082  0.3451 -0.6333  0.4516
   65DG     C11 1483   4.535   2.144   3.383  0.1776 -0.2782 -0.0885
   65DG     C12 1484   4.749   1.746   3.160  0.3535 -0.2677  0.9548
   65DG     H13 1485   4.553   2.093   3.477 -2.0310  0.5952  0.8711
   65DG     H14 1486   4.538   2.251   3.403 -0.1313 -0.2633 -0.1267
   65DG     H15 1487   4.832   1.727   3.091  1.9379 -0.9272  2.9365
   65DG     H16 1488   4.765   1.682   3.246 -0.9889 -0.9008  0.7548
   65DG     C17 1489   4.631   2.088   3.279 -0.3286 -0.2745  0.0593
   65DG     C18 1490   4.751   1.898   3.189  0.5230 -0.3381 -0.3289
   65DG     O19 1491   4.631   1.947   3.272 -0.8889 -0.0869  0.0277
   65DG     H20 1492   4.730   2.112   3.318  0.4105 -2.1222 -0.5663
   65DG     H21 1493   4.615   2.138   3.184 -0.8676 -1.4125 -0.4613
   65DG     H22 1494   4.843   1.925   3.241  0.4018  0.3637 -0.4563
   65DG     H23 1495   4.748   1.958   3.098 -1.2616 -0.3089 -0.2890
   66DG      C1 1496   3.395   0.225   0.768  0.4566 -0.0257  0.1331
   66DG      C2 1497   2.719   0.314   0.936  0.1138 -0.0244 -0.2551
   66DG      H3 1498   3.417   0.325   0.733  2.9849 -1.7879 -4.1120
   66DG      H4 1499   3.357   0.166   0.684 -0.5728  0.1277  0.4828
   66DG      H5 1500   3.490   0.181   0.800  0.5115 -0.3227 -0.4236
   66DG      H6 1501   2.665   0.373   1.010  3.9778  3.4928  0.1720
   66DG      H7 1502   2.730   0.387   0.856 -2.4019  2.1457  1.1829
   66DG      H8 1503   2.656   0.233   0.900  1.5380  0.1735 -3.5771
   66DG      O9 1504   3.305   0.230   0.882 -0.0883  0.2435 -0.5700
   66DG     O10 1505   2.843   0.282   0.992 -0.5165 -0.2491 -0.3369
   66DG     C11 1506   3.291   0.100   0.942  0.2607 -0.1826  0.0806
   66DG     C12 1507   2.826   0.174   1.085  0.0983 -0.9982  0.5911
   66DG     H13 1508   3.388   0.057   0.966  0.0775  0.6382  2.5265
   66DG     H14 1509   3.234   0.043   0.869 -0.8453  0.2491  0.5866
   66DG     H15 1510   2.784   0.090   1.030 -0.4567 -0.4561  0.1839
   66DG     H16 1511   2.761   0.204   1.167 -0.2183 -0.7988  0.2703
   66DG     C17 1512   3.200   0.113   1.073 -0.5245 -0.0463  0.7020
   66DG     C18 1513   2.974   0.151   1.131 -0.9783 -0.5850 -0.6226
   66DG     O19 1514   3.070   0.136   1.021  0.3020 -0.2890  0.3753
   66DG     H20 1515   3.231   0.207   1.118 -1.8823  0.8679 -0.2320
   66DG     H21 1516   3.192   0.033   1.147 -1.1988 -1.4314 -0.7979
   66DG     H22 1517   3.019   0.232   1.187  4.3602 -2.8919 -0.9904
   66DG     H23 1518   2.988   0.064   1.195 -1.0345  0.8360  1.3946
   67DG      C1 1519   4.342   2.530   0.565 -0.3669 -0.8810 -0.3017
   67DG      C2 1520   4.449   3.335   0.591 -0.0381 -0.3915  0.5120
   67DG      H3 1521   4.374   2.438   0.516 -0.5488 -2.2119  1.9429
   67DG      H4 1522   4.244   2.564   0.532 -1.0693 -1.5966  0.9517
   67DG      H5 1523   4.337   2.514   0.673 -0.4559 -0.6442 -0.2697
   67DG      H6 1524   4.341   3.344   0.604  0.0726 -0.1195  1.3134
   67DG      H7 1525   4.505   3.427   0.610  0.1332 -0.6050  1.0855
   67DG      H8 1526   4.454   3.313   0.485 -0.7565 -1.2730  0.6447
   67DG      O9 1527   4.425   2.626   0.542 -0.5015  0.3739 -0.3956
   67DG     O10 1528   4.496   3.222   0.663 -0.2837  0.8261 -0.4287
   67DG     C11 1529   4.415   2.745   0.612 -0.2857 -0.2527  0.5100
   67DG     C12 1530   4.612   3.160   0.612 -0.0752  0.0177 -0.5865
   67DG     H13 1531   4.411   2.728   0.719 -2.2282  1.4144  0.7691
   67DG     H14 1532   4.323   2.796   0.583  0.1617 -1.1405 -3.0348
   67DG     H15 1533   4.695   3.225   0.639 -1.6719  1.8246  0.1991
   67DG     H16 1534   4.605   3.134   0.506 -0.3017  0.3681 -0.6576
   67DG     C17 1535   4.526   2.847   0.580 -0.8822 -0.5885  0.2088
   67DG     C18 1536   4.652   3.032   0.685 -0.0116 -0.2164  0.7544
   67DG     O19 1537   4.539   2.948   0.686  0.9937  0.0176 -0.1358
   67DG     H20 1538   4.522   2.880   0.477  0.5700  3.0329  1.1577
   67DG     H21 1539   4.618   2.792   0.600 -0.2436 -0.0100 -1.0651
   67DG     H22 1540   4.733   2.992   0.625 -1.4803 -0.4371 -1.1629
   67DG     H23 1541   4.686   3.046   0.788 -1.7855  1.5955  1.1599
   68DG      C1 1542   4.031   2.388   3.556  0.0903  0.1873 -0.1636
   68DG      C2 1543   3.780   2.389   2.915  0.5487  0.0319  0.1074
   68DG      H3 1544   4.127   2.432   3.529 -0.4301  1.0125 -0.7191
   68DG      H4 1545   4.053   2.334   3.648 -0.0063 -0.0519 -0.2815
   68DG      H5 1546   3.950   2.461   3.566 -0.9067 -0.8746 -0.3487
   68DG      H6 1547   3.756   2.341   2.820 -2.0484  1.3208  0.0460
   68DG      H7 1548   3.694   2.449   2.943 -1.4433 -1.5013 -2.2984
   68DG      H8 1549   3.864   2.455   2.895  2.2297 -1.2447  2.4662
   68DG      O9 1550   4.008   2.289   3.460  0.3251  0.2831 -0.2969
   68DG     O10 1551   3.828   2.312   3.024 -0.2224  0.3782  0.6080
   68DG     C11 1552   3.908   2.197   3.493 -0.0014 -0.7517 -0.3270
   68DG     C12 1553   3.734   2.208   3.060 -0.4119 -0.7626 -0.4162
   68DG     H13 1554   3.812   2.244   3.517  1.4433  3.2449 -1.5357
   68DG     H14 1555   3.942   2.161   3.590  0.3407  1.3975  0.4197
   68DG     H15 1556   3.715   2.146   2.973 -1.2809 -1.4027  0.2158
   68DG     H16 1557   3.638   2.251   3.090  0.0645  2.1356 -2.5544
   68DG     C17 1558   3.887   2.091   3.380 -0.4142 -0.5622 -0.6208
   68DG     C18 1559   3.788   2.103   3.158  0.2517 -0.0435 -0.0042
   68DG     O19 1560   3.849   2.168   3.264  0.2340  0.3028 -0.7568
   68DG     H20 1561   3.807   2.022   3.406 -0.1796 -0.3817  0.6256
   68DG     H21 1562   3.970   2.026   3.356 -0.1955 -0.3729 -0.3765
   68DG     H22 1563   3.704   2.038   3.185  0.7022 -0.7332 -0.2412
   68DG     H23 1564   3.861   2.037   3.112  0.1164 -0.2868  0.1260
   69DG      C1 1565   3.575   3.704   1.777  0.2196  0.3643 -0.0967
   69DG      C2 1566   2.929   3.933   1.693 -0.8655 -0.2469  0.0258
   69DG      H3 1567   3.647   3.665   1.848 -1.4739 -0.5238  1.2227
   69DG      H4 1568   3.508   3.773   1.828  0.9944 -0.4416  2.1049
   69DG      H5 1569   3.618   3.749   1.687 -0.1711 -0.9653 -0.9835
   69DG      H6 1570   2.855   3.894   1.764  0.3338 -0.0147  1.4500
   69DG      H7 1571   2.950   4.039   1.708 -0.9758 -0.2480  0.1970
   69DG      H8 1572   2.879   3.930   1.597  0.0267 -0.9919 -0.4356
   69DG      O9 1573   3.512   3.593   1.722 -0.6305 -0.1870  0.3153
   69DG     O10 1574   3.046   3.855   1.685 -0.9202  0.1612  0.1203
   69DG     C11 1575   3.427   3.531   1.817 -0.3344 -0.6479 -0.4266
   69DG     C12 1576   3.000   3.715   1.680 -0.6749  0.8043 -0.4176
   69DG     H13 1577   3.418   3.581   1.913 -0.6424 -0.2959 -0.6360
   69DG     H14 1578   3.481   3.439   1.836  1.7019  0.6683  0.5435
   69DG     H15 1579   2.917   3.690   1.615  0.8709 -4.1093 -0.9240
   69DG     H16 1580   2.980   3.692   1.785  2.0265 -2.4100 -0.4570
   69DG     C17 1581   3.286   3.483   1.779  0.0078 -0.8122 -0.5569
   69DG     C18 1582   3.106   3.601   1.665  0.0013  0.8383  0.3395
   69DG     O19 1583   3.201   3.595   1.778  0.5310  0.0162  0.4908
   69DG     H20 1584   3.234   3.425   1.855 -0.8885  2.2849  1.3755
   69DG     H21 1585   3.286   3.433   1.682 -0.0488 -1.5394 -0.1836
   69DG     H22 1586   3.049   3.510   1.683  0.4957  0.5611  0.5615
   69DG     H23 1587   3.156   3.605   1.568 -1.0716 -0.7537 -0.3227
   70DG      C1 1588   2.609   5.136   0.612 -0.1760 -0.6366  0.0251
   70DG      C2 1589   3.253   5.234   0.773 -0.9576 -0.9122  0.5667
   70DG      H3 1590   2.676   5.116   0.529 -0.5358 -2.4367  0.1425
   70DG      H4 1591   2.526   5.199   0.579 -0.9381 -2.0132 -0.7701
   70DG      H5 1592   2.580   5.039   0.652  0.9770 -0.3309  1.7019
   70DG      H6 1593   3.234   5.236   0.666  1.5737 -0.1325  0.0691
   70DG      H7 1594   3.323   5.314   0.801  0.5842 -1.5597 -1.2436
   70DG      H8 1595   3.303   5.141   0.798  0.4136 -0.9013 -1.8147
   70DG      O9 1596   2.688   5.215   0.705 -0.0243  0.4879  0.0792
   70DG     O10 1597   3.118   5.254   0.828 -0.5904  0.3214 -0.1221
   70DG     C11 1598   2.631   5.211   0.840 -0.7723  0.5271  0.1551
   70DG     C12 1599   3.105   5.223   0.970 -0.3189  0.1227  0.1753
   70DG     H13 1600   2.614   5.107   0.867 -0.7858  0.6284  0.5398
   70DG     H14 1601   2.534   5.261   0.847 -0.7814  0.6091 -0.4350
   70DG     H15 1602   3.176   5.287   1.023  2.1882 -1.3001 -1.2672
   70DG     H16 1603   3.141   5.122   0.990 -1.0727  0.0294  1.1257
   70DG     C17 1604   2.732   5.269   0.944  0.0590  0.4349  0.2725
   70DG     C18 1605   2.962   5.248   1.016 -1.0205  0.2737  0.0302
   70DG     O19 1606   2.857   5.212   0.926  0.3335  0.1253 -0.2752
   70DG     H20 1607   2.691   5.260   1.045 -1.2482  1.4741 -0.1327
   70DG     H21 1608   2.728   5.378   0.936 -0.6529  0.5230  1.4639
   70DG     H22 1609   2.944   5.197   1.111 -0.5068 -0.2355 -0.1410
   70DG     H23 1610   2.956   5.349   1.057  1.9428  0.2672  0.7333
   71DG      C1 1611   0.055   4.464   2.055  0.2010 -0.0782 -0.2222
   71DG      C2 1612   0.332   4.968   2.358  0.0934  0.1510 -0.3440
   71DG      H3 1613   0.088   4.509   1.961 -0.9363  0.9675 -0.1541
   71DG      H4 1614  -0.014   4.385   2.024  0.0746  0.5719 -1.6747
   71DG      H5 1615   0.150   4.436   2.100 -1.2502 -0.8502  2.5690
   71DG      H6 1616   0.411   4.897   2.383  1.3208  1.0061 -1.6532
   71DG      H7 1617   0.351   5.012   2.260  1.1803  0.3504 -0.0612
   71DG      H8 1618   0.328   5.059   2.418 -2.5715  0.1440 -0.4335
   71DG      O9 1619  -0.007   4.564   2.133 -0.1055 -0.6399 -0.2896
   71DG     O10 1620   0.207   4.909   2.350  0.2561  0.4500 -0.0080
   71DG     C11 1621  -0.046   4.502   2.252 -0.6546  0.0064 -0.0802
   71DG     C12 1622   0.175   4.867   2.485  0.4641  0.1058 -0.4398
   71DG     H13 1623   0.041   4.458   2.300  0.7962  0.9305 -1.7661
   71DG     H14 1624  -0.125   4.427   2.240 -0.1070 -0.5831 -0.0448
   71DG     H15 1625   0.147   4.950   2.551 -2.4076 -2.7809  2.4330
   71DG     H16 1626   0.251   4.810   2.539  1.5567  3.4730  1.9245
   71DG     C17 1627  -0.078   4.603   2.361 -0.0172  0.4069 -0.0995
   71DG     C18 1628   0.033   4.786   2.487 -0.8246  0.3544  0.2370
   71DG     O19 1629   0.039   4.683   2.386 -0.4393 -0.1302 -0.2499
   71DG     H20 1630  -0.105   4.553   2.454 -0.0942  1.7497  0.6349
   71DG     H21 1631  -0.165   4.659   2.327  0.2655  0.5558 -0.5978
   71DG     H22 1632   0.020   4.751   2.589  1.1581  0.2802  0.5067
   71DG     H23 1633  -0.038   4.862   2.454  1.9321  2.3927 -1.4895
   72DG      C1 1634   2.544   2.176   0.955  0.5715 -0.3672 -0.4261
   72DG      C2 1635   3.085   1.922   0.597 -0.2147 -0.3077 -0.1882
   72DG      H3 1636   2.545   2.273   0.905 -0.7541  0.1531  0.5059
   72DG      H4 1637   2.584   2.193   1.055  1.2086 -0.1274 -0.7136
   72DG      H5 1638   2.441   2.148   0.972  0.7454 -0.1103  1.1583
   72DG      H6 1639   3.143   1.853   0.536 -1.2139 -1.0516 -0.3336
   72DG      H7 1640   3.099   2.014   0.540 -0.3315 -1.0373 -1.4323
   72DG      H8 1641   3.131   1.918   0.696 -1.0966 -1.7948  0.1959
   72DG      O9 1642   2.614   2.063   0.897 -0.2557 -0.4797  0.5378
   72DG     O10 1643   2.955   1.891   0.607 -0.4335  0.4908  0.4664
   72DG     C11 1644   2.593   1.938   0.956 -0.6329 -0.5688  0.6132
   72DG     C12 1645   2.937   1.761   0.654  0.1498 -0.8218  0.1446
   72DG     H13 1646   2.489   1.930   0.989 -0.8441 -0.9847 -0.1352
   72DG     H14 1647   2.671   1.929   1.032  0.3476  0.6931 -0.2128
   72DG     H15 1648   3.004   1.746   0.738  1.1341 -0.3908 -0.5458
   72DG     H16 1649   2.958   1.694   0.571  0.7095 -2.6811  1.7230
   72DG     C17 1650   2.619   1.834   0.845 -0.4180 -0.3236  0.7319
   72DG     C18 1651   2.793   1.745   0.711 -0.2765  0.3091  0.3127
   72DG     O19 1652   2.753   1.849   0.798  0.3546 -0.0191  0.1032
   72DG     H20 1653   2.549   1.832   0.762 -0.3168  1.0127  0.5962
   72DG     H21 1654   2.611   1.735   0.890  0.2458 -0.7723 -0.1082
   72DG     H22 1655   2.724   1.735   0.628  1.6267  1.4984 -1.5061
   72DG     H23 1656   2.795   1.645   0.756  2.9293 -0.3120 -0.9271
   73DG      C1 1657   4.035   0.370   4.551 -0.6233 -0.0037  0.3218
   73DG      C2 1658   3.957   0.998   4.666 -0.0139  0.1380 -0.4585
   73DG      H3 1659   4.090   0.402   4.462  0.9577 -1.8354  0.5880
   73DG      H4 1660   4.006   0.266   4.541 -3.8145  0.9045 -1.6124
   73DG      H5 1661   4.119   0.369   4.620 -1.1073  0.0808  0.9221
   73DG      H6 1662   3.990   1.042   4.572 -0.1264 -0.1346 -0.6282
   73DG      H7 1663   3.908   1.079   4.719  0.5690  0.7054 -0.7750
   73DG      H8 1664   4.048   0.981   4.722 -0.4885 -0.0712  0.2654
   73DG      O9 1665   3.932   0.463   4.587  0.3552  0.0123 -0.4319
   73DG     O10 1666   3.857   0.891   4.657 -0.7339  0.3344 -0.2521
   73DG     C11 1667   3.846   0.421   4.702  1.0006  0.1168 -0.0653
   73DG     C12 1668   3.809   0.858   4.787  0.0447 -0.0875  0.5982
   73DG     H13 1669   3.911   0.427   4.790 -1.2872  1.5716  1.6214
   73DG     H14 1670   3.812   0.319   4.686 -1.0535  0.7549 -0.0347
   73DG     H15 1671   3.748   0.941   4.822 -1.4566 -0.5051 -0.8605
   73DG     H16 1672   3.889   0.846   4.860 -0.7159  1.3251  1.7034
   73DG     C17 1673   3.724   0.513   4.724  0.0411 -0.5086  0.1195
   73DG     C18 1674   3.714   0.740   4.776 -0.5186  0.6564 -0.1382
   73DG     O19 1675   3.798   0.636   4.732  0.5658  0.3642  0.5024
   73DG     H20 1676   3.667   0.486   4.813  0.1397 -0.2361  0.2666
   73DG     H21 1677   3.669   0.518   4.631 -0.7490  2.0976  0.6442
   73DG     H22 1678   3.664   0.728   4.873  1.4399 -2.1701  0.6669
   73DG     H23 1679   3.638   0.756   4.700 -1.8186  2.3812  1.4502
   74DG      C1 1680   2.172   4.413   2.498 -0.3911  0.0960  0.4398
   74DG      C2 1681   2.321   4.133   2.017 -0.7553  0.0953  0.4875
   74DG      H3 1682   2.171   4.336   2.575 -2.8943 -0.7521 -0.3589
   74DG      H4 1683   2.143   4.369   2.403  3.4164  0.4747 -1.1009
   74DG      H5 1684   2.107   4.490   2.539  0.0226  1.0459 -0.6317
   74DG      H6 1685   2.304   4.107   1.913  2.0124  1.1891 -0.3395
   74DG      H7 1686   2.430   4.136   2.025 -0.6857 -3.3857  3.1891
   74DG      H8 1687   2.294   4.047   2.077 -2.8346  1.7155  2.0215
   74DG      O9 1688   2.292   4.486   2.487 -0.0089  0.6775  0.1181
   74DG     O10 1689   2.265   4.255   2.075 -0.0142  0.5427 -0.3926
   74DG     C11 1690   2.290   4.612   2.428 -0.1580 -0.5641 -0.1489
   74DG     C12 1691   2.314   4.370   2.013  0.5903 -0.4891 -0.2958
   74DG     H13 1692   2.388   4.658   2.440  0.6281 -2.4002  0.9197
   74DG     H14 1693   2.214   4.670   2.481 -2.0262 -1.8289 -1.3523
   74DG     H15 1694   2.264   4.379   1.917  1.2293  1.6734 -0.4699
   74DG     H16 1695   2.422   4.362   1.998  0.8821  1.4774  0.4721
   74DG     C17 1696   2.248   4.612   2.279  0.1262  0.1696 -0.2053
   74DG     C18 1697   2.263   4.501   2.080 -0.1441 -0.3930 -0.1451
   74DG     O19 1698   2.301   4.501   2.218  0.0617  0.0110 -0.2646
   74DG     H20 1699   2.280   4.703   2.228  0.2538  0.8628  1.0406
   74DG     H21 1700   2.139   4.612   2.275  0.0682  0.2989  0.9565
   74DG     H22 1701   2.302   4.592   2.034 -0.9620 -0.7411 -1.5466
   74DG     H23 1702   2.155   4.503   2.066 -0.1061  0.7045 -0.3662
   75DG      C1 1703   3.008   3.626   3.423 -0.0997  0.2069  0.0690
   75DG      C2 1704   3.308   3.963   3.645 -0.6087  0.2262  0.8223
   75DG      H3 1705   2.923   3.688   3.392  0.1937 -0.0380 -1.2830
   75DG      H4 1706   2.990   3.521   3.401  1.2432 -0.6596  2.7529
   75DG      H5 1707   3.087   3.660   3.356 -0.4482  1.0594  0.0730
   75DG      H6 1708   3.392   4.017   3.689  1.0734 -1.0119 -0.7315
   75DG      H7 1709   3.342   3.931   3.547  1.7007 -0.0157  1.6458
   75DG      H8 1710   3.223   4.029   3.626  0.4854  1.2923 -0.5820
   75DG      O9 1711   3.047   3.661   3.560  0.3877  0.2095  0.0476
   75DG     O10 1712   3.274   3.850   3.721 -0.2746  0.0637  0.1253
   75DG     C11 1713   2.963   3.609   3.665  0.4285 -0.0399  0.0196
   75DG     C12 1714   3.220   3.884   3.845 -0.0793 -0.2220  0.5399
   75DG     H13 1715   2.973   3.501   3.671  0.9857 -0.0766 -1.1269
   75DG     H14 1716   2.857   3.607   3.641  0.6941 -2.1232 -1.1902
   75DG     H15 1717   3.130   3.944   3.834  0.2570 -0.2208 -3.2163
   75DG     H16 1718   3.293   3.937   3.906  0.5589  0.2272 -0.5898
   75DG     C17 1719   2.987   3.676   3.803  0.0506 -0.3024  0.3250
   75DG     C18 1720   3.181   3.755   3.917  0.0578  0.6644 -0.4873
   75DG     O19 1721   3.125   3.662   3.818  0.1831 -0.1762  0.1089
   75DG     H20 1722   2.939   3.611   3.876  2.7426 -2.8735 -0.0038
   75DG     H21 1723   2.946   3.775   3.822 -2.2955 -1.0748 -0.3851
   75DG     H22 1724   3.278   3.716   3.951 -0.4057  0.4985  0.7041
   75DG     H23 1725   3.116   3.774   4.002  0.5276  1.2681 -0.2563
   76DG      C1 1726   0.009   5.128   2.255  0.4939 -0.6648  0.3538
   76DG      C2 1727   0.355   4.652   2.199  0.0036  0.2573  0.5768
   76DG      H3 1728  -0.052   5.059   2.314  0.3282 -1.5893 -0.8563
   76DG      H4 1729  -0.047   5.222   2.256  1.1132 -0.2812  2.3428
   76DG      H5 1730   0.102   5.145   2.310 -0.0442 -1.5881  1.5887
   76DG      H6 1731   0.390   4.557   2.161  1.2222  1.0343 -0.2996
   76DG      H7 1732   0.447   4.703   2.228 -0.2703  2.3267 -1.8899
   76DG      H8 1733   0.293   4.632   2.286 -3.0833 -2.9296 -2.0658
   76DG      O9 1734   0.028   5.065   2.132  0.0236 -0.0495  0.0906
   76DG     O10 1735   0.280   4.721   2.101  0.1414  0.3337  0.1478
   76DG     C11 1736   0.094   5.137   2.026  0.1034 -0.1151  0.5594
   76DG     C12 1737   0.364   4.767   1.986  0.8750  0.3975  0.0482
   76DG     H13 1738   0.170   5.198   2.074  1.0346 -0.0964 -0.8709
   76DG     H14 1739   0.028   5.210   1.979  0.2439  0.2977  1.0074
   76DG     H15 1740   0.395   4.678   1.932  1.1640 -0.0617  0.9363
   76DG     H16 1741   0.446   4.827   2.026 -0.3301  0.6315  2.3344
   76DG     C17 1742   0.149   5.046   1.920  0.1748  0.0880 -0.5252
   76DG     C18 1743   0.280   4.847   1.893 -0.1130 -0.6703 -0.3733
   76DG     O19 1744   0.225   4.950   1.986  0.1554  0.3533  0.3247
   76DG     H20 1745   0.207   5.105   1.849  1.6196  0.7956  1.1600
   76DG     H21 1746   0.070   5.001   1.861 -0.5511  3.3322 -2.2580
   76DG     H22 1747   0.344   4.885   1.814 -0.2973  2.7744  0.9520
   76DG     H23 1748   0.202   4.792   1.841 -0.5605 -3.0581  2.5010
   77DG      C1 1749   3.719   5.142   2.788 -0.4395 -0.0879 -0.9477
   77DG      C2 1750   3.610   4.454   2.937 -0.5985 -0.0285 -0.1880
   77DG      H3 1751   3.611   5.156   2.799 -0.3667 -1.2516  2.0990
   77DG      H4 1752   3.756   5.205   2.706 -0.5491  1.6473  0.2697
   77DG      H5 1753   3.754   5.177   2.885 -2.2394  0.5215 -0.4846
   77DG      H6 1754   3.654   4.354   2.931  2.1162  1.0515  0.1509
   77DG      H7 1755   3.635   4.490   3.037 -1.0902 -0.4805  0.1021
   77DG      H8 1756   3.502   4.462   2.934 -0.5789  0.5463  0.3609
   77DG      O9 1757   3.737   5.004   2.767  0.3774  0.4987  0.0393
   77DG     O10 1758   3.665   4.539   2.839  0.0958 -0.1240 -0.1479
   77DG     C11 1759   3.875   4.976   2.758  0.4597  0.1454  0.2218
   77DG     C12 1760   3.802   4.511   2.823 -0.2573 -0.0753 -0.4716
   77DG     H13 1761   3.926   4.994   2.853  0.4362  0.0382  0.2545
   77DG     H14 1762   3.909   5.052   2.688 -0.8031  1.4526  0.9619
   77DG     H15 1763   3.808   4.413   2.776 -0.2712 -1.1578  1.6611
   77DG     H16 1764   3.861   4.523   2.914 -0.7463  1.0894 -0.2893
   77DG     C17 1765   3.900   4.838   2.689 -0.1315 -0.5333 -0.3617
   77DG     C18 1766   3.864   4.615   2.722 -0.3956  0.0237  0.3202
   77DG     O19 1767   3.839   4.744   2.768  0.3452  0.2134 -0.1858
   77DG     H20 1768   4.003   4.811   2.667 -0.2769 -0.6131 -0.9671
   77DG     H21 1769   3.854   4.850   2.591  1.2232  0.2318 -0.9264
   77DG     H22 1770   3.970   4.593   2.716 -0.3196  0.5900 -0.4204
   77DG     H23 1771   3.822   4.605   2.622  2.9611 -2.9056 -1.0125
   78DG      C1 1772   0.047   0.823   3.191  0.8209 -0.2216 -0.0982
   78DG      C2 1773  -0.533   1.315   2.944  0.2042 -0.0278  0.2157
   78DG      H3 1774  -0.001   0.833   3.289  1.6020  0.9507  0.1973
   78DG      H4 1775   0.147   0.786   3.216  0.8101 -0.1348  0.0766
   78DG      H5 1776  -0.011   0.752   3.133 -0.0836 -0.4524  1.0375
   78DG      H6 1777  -0.562   1.420   2.955 -0.1427 -0.1454  0.4300
   78DG      H7 1778  -0.569   1.275   2.849  0.8799 -0.6491  0.2149
   78DG      H8 1779  -0.569   1.255   3.028  0.4082 -1.4081 -0.6533
   78DG      O9 1780   0.054   0.955   3.138  0.3961  0.2103 -0.2929
   78DG     O10 1781  -0.394   1.314   2.940 -0.4381 -0.3606 -0.3482
   78DG     C11 1782   0.087   0.961   2.998  0.2594  0.3552 -0.2579
   78DG     C12 1783  -0.333   1.184   2.930  0.5090  0.2011 -0.0156
   78DG     H13 1784   0.055   0.871   2.945  0.4131  0.1072  0.0653
   78DG     H14 1785   0.195   0.959   2.987  0.3354  2.7041 -0.3979
   78DG     H15 1786  -0.356   1.132   2.837 -2.1021 -0.4569  0.9212
   78DG     H16 1787  -0.370   1.124   3.013 -0.0811  0.6594  0.0642
   78DG     C17 1788   0.025   1.089   2.945 -0.2721 -0.6844  0.1771
   78DG     C18 1789  -0.187   1.206   2.946 -0.0674 -0.4276  0.0580
   78DG     O19 1790  -0.114   1.082   2.953  0.7466  0.1272 -0.8308
   78DG     H20 1791   0.051   1.121   2.844 -0.7740  1.8351  0.7624
   78DG     H21 1792   0.055   1.170   3.012 -1.5659 -0.8186  0.9722
   78DG     H22 1793  -0.144   1.281   2.880  0.4232  0.3540  1.2235
   78DG     H23 1794  -0.177   1.260   3.040 -0.0568  1.5412 -1.0253
   79DG      C1 1795   2.312   1.267   4.993  0.3309 -0.5781 -0.2657
   79DG      C2 1796   1.978   1.791   5.061  0.6125  0.4728 -0.2789
   79DG      H3 1797   2.325   1.159   4.984 -0.2811 -0.6888  0.1407
   79DG      H4 1798   2.381   1.312   5.064  1.5847 -1.4564 -0.8726
   79DG      H5 1799   2.323   1.301   4.890 -1.8779 -1.0553 -0.7041
   79DG      H6 1800   1.990   1.834   4.961 -0.2091  0.1384 -0.5309
   79DG      H7 1801   1.900   1.847   5.113 -0.6675 -0.5771 -1.0210
   79DG      H8 1802   2.073   1.798   5.114  1.8419 -3.2927 -1.6264
   79DG      O9 1803   2.181   1.295   5.035  0.0592  0.3734  0.0430
   79DG     O10 1804   1.951   1.659   5.073 -0.1377  0.1826 -0.0707
   79DG     C11 1805   2.085   1.226   4.953 -0.0770  0.2783  0.3612
   79DG     C12 1806   1.836   1.622   5.003  0.7932 -0.3763 -0.0555
   79DG     H13 1807   2.086   1.117   4.955 -3.1070  0.1833  2.1745
   79DG     H14 1808   2.109   1.255   4.850  0.3541 -0.5946  0.2114
   79DG     H15 1809   1.841   1.646   4.897 -0.0238  0.6610  0.1301
   79DG     H16 1810   1.751   1.673   5.048  2.2213  1.1029  1.0347
   79DG     C17 1811   1.938   1.269   4.983  0.1222 -0.0955 -0.6067
   79DG     C18 1812   1.810   1.475   5.025 -0.2251 -0.9715 -0.0880
   79DG     O19 1813   1.939   1.415   4.996 -0.2613 -0.1476 -0.1848
   79DG     H20 1814   1.908   1.220   5.075 -0.2502  1.2285  0.0071
   79DG     H21 1815   1.881   1.236   4.896  1.3454 -1.2187 -1.0076
   79DG     H22 1816   1.783   1.456   5.129 -4.0282  3.4067  0.0291
   79DG     H23 1817   1.721   1.446   4.970 -1.5180  0.8055  0.9644
   80DG      C1 1818   3.394   5.190   2.298  0.1183 -0.4156  0.6959
   80DG      C2 1819   3.055   5.733   2.377  0.8842  0.3604 -0.0018
   80DG      H3 1820   3.457   5.146   2.222  0.8203  0.0727  0.9861
   80DG      H4 1821   3.292   5.152   2.295 -0.2832  0.5797  1.1875
   80DG      H5 1822   3.443   5.170   2.393 -0.7367 -0.9760  1.0381
   80DG      H6 1823   2.976   5.691   2.315  1.4582  0.3848 -0.7605
   80DG      H7 1824   3.065   5.679   2.471 -1.8968  1.0019  0.7644
   80DG      H8 1825   3.008   5.828   2.404 -0.2502 -0.2029  0.0581
   80DG      O9 1826   3.397   5.332   2.264  0.0494  0.0758  0.3364
   80DG     O10 1827   3.180   5.759   2.305  0.5803  0.7277 -0.4407
   80DG     C11 1828   3.519   5.399   2.312  0.3667  0.4851 -0.0221
   80DG     C12 1829   3.286   5.803   2.381 -0.8551 -0.0922  0.8446
   80DG     H13 1830   3.607   5.344   2.279  0.6642  0.1422  1.2922
   80DG     H14 1831   3.533   5.393   2.420  2.9073 -0.0037 -0.3225
   80DG     H15 1832   3.283   5.781   2.487  1.9703 -0.8383  0.8482
   80DG     H16 1833   3.293   5.912   2.377  2.1764 -0.2180 -0.2641
   80DG     C17 1834   3.521   5.547   2.266  0.4539 -0.4132 -1.2782
   80DG     C18 1835   3.409   5.750   2.308 -1.0043  0.5950 -0.0234
   80DG     O19 1836   3.401   5.609   2.312 -0.2389  0.1014  0.1498
   80DG     H20 1837   3.535   5.562   2.159 -0.2411 -0.7648 -1.4212
   80DG     H21 1838   3.602   5.597   2.319 -0.6688 -0.2471  0.3405
   80DG     H22 1839   3.410   5.781   2.203  0.3347 -2.4563 -1.0154
   80DG     H23 1840   3.503   5.790   2.345 -1.0982  1.3385 -0.5578
   81DG      C1 1841   4.897   2.716   1.519 -0.0836  0.4883 -0.2821
   81DG      C2 1842   5.422   3.154   1.673  0.1763 -0.1879  0.5680
   81DG      H3 1843   4.957   2.634   1.557  0.8264  2.2463  2.3273
   81DG      H4 1844   4.832   2.670   1.445  1.3491 -0.2013 -1.1492
   81DG      H5 1845   4.836   2.751   1.603  1.5429 -0.9454  1.5775
   81DG      H6 1846   5.497   3.083   1.710  0.0852 -0.3761  0.3982
   81DG      H7 1847   5.486   3.238   1.646 -1.4125  0.4543 -1.4182
   81DG      H8 1848   5.370   3.164   1.768  1.1168  0.9225  0.9824
   81DG      O9 1849   4.988   2.821   1.464 -0.4642 -0.3410  0.0960
   81DG     O10 1850   5.345   3.105   1.563 -0.6324 -0.2082 -0.2241
   81DG     C11 1851   4.921   2.927   1.389 -0.0394 -0.5657  0.2396
   81DG     C12 1852   5.264   3.217   1.528  0.0801  0.5994 -0.5939
   81DG     H13 1853   4.848   2.967   1.459 -2.5249 -3.2393 -0.6336
   81DG     H14 1854   4.874   2.874   1.306  0.7284  0.1192 -0.6644
   81DG     H15 1855   5.340   3.289   1.496  1.4150 -0.5546 -0.1244
   81DG     H16 1856   5.204   3.260   1.608 -0.1936  1.3402 -1.1748
   81DG     C17 1857   5.023   3.029   1.335 -0.2140 -0.0825 -0.4584
   81DG     C18 1858   5.181   3.179   1.412 -0.6104 -0.4116  0.4830
   81DG     O19 1859   5.108   3.065   1.444 -0.3522 -0.4828  0.0506
   81DG     H20 1860   4.970   3.115   1.295  0.9176  1.0032  0.2813
   81DG     H21 1861   5.084   2.977   1.260  1.4548  0.5248  0.4183
   81DG     H22 1862   5.109   3.254   1.381 -1.4849 -1.9316 -1.3246
   81DG     H23 1863   5.246   3.162   1.326  0.0654 -0.5011  0.9989
   82DG      C1 1864   2.574   3.102   1.352  0.7481 -0.4098  0.0349
   82DG      C2 1865   2.497   2.699   0.754  0.0494 -0.0445 -0.5512
   82DG      H3 1866   2.550   3.066   1.452  0.4256  0.4642  0.2848
   82DG      H4 1867   2.508   3.086   1.267  1.0675  3.4279 -1.1556
   82DG      H5 1868   2.576   3.211   1.364  1.5854 -0.3715 -0.3548
   82DG      H6 1869   2.447   2.603   0.764 -0.6535  0.2181 -1.4554
   82DG      H7 1870   2.426   2.779   0.737  0.6654  0.8719  0.9269
   82DG      H8 1871   2.542   2.678   0.657 -2.9450  2.7916 -2.7566
   82DG      O9 1872   2.701   3.055   1.306 -0.3279  0.0574 -0.4079
   82DG     O10 1873   2.602   2.726   0.841 -0.2352  0.2878 -0.2571
   82DG     C11 1874   2.708   2.924   1.254 -0.0279  0.5033  0.2027
   82DG     C12 1875   2.686   2.838   0.818  0.0064  0.6711 -0.5169
   82DG     H13 1876   2.619   2.865   1.271  0.3387  0.5307  2.5052
   82DG     H14 1877   2.795   2.868   1.289 -1.1568 -1.8244 -0.4636
   82DG     H15 1878   2.642   2.938   0.822 -0.4284  0.4651  0.1075
   82DG     H16 1879   2.720   2.828   0.716  2.0183 -0.6284  0.2372
   82DG     C17 1880   2.718   2.935   1.109  0.1021 -0.1546 -0.1577
   82DG     C18 1881   2.808   2.838   0.907 -0.8951  0.3634  0.0250
   82DG     O19 1882   2.755   2.825   1.040  0.5053  0.5338 -0.1146
   82DG     H20 1883   2.796   3.011   1.097 -0.1965  0.0358 -0.9398
   82DG     H21 1884   2.623   2.978   1.076  0.0538 -0.9756 -1.1214
   82DG     H22 1885   2.866   2.747   0.889  0.7582  1.0378  1.5516
   82DG     H23 1886   2.875   2.922   0.890  0.2631 -0.4035  0.6212
   83DG      C1 1887   5.369   2.894   4.062 -0.0400 -0.9007  0.4715
   83DG      C2 1888   5.346   2.764   3.239 -0.2914 -0.5339  0.2897
   83DG      H3 1889   5.292   2.963   4.097  0.3388  0.1649 -0.6949
   83DG      H4 1890   5.425   2.955   3.991  0.9430  0.6027  2.4314
   83DG      H5 1891   5.434   2.867   4.145 -0.8922  2.2776  2.3335
   83DG      H6 1892   5.275   2.707   3.178 -1.4511  1.2978 -0.1540
   83DG      H7 1893   5.347   2.870   3.214 -1.3750 -0.0314  2.1899
   83DG      H8 1894   5.445   2.721   3.225  0.3747 -0.0003  2.9167
   83DG      O9 1895   5.317   2.783   3.990  0.0412 -0.5689 -0.1450
   83DG     O10 1896   5.316   2.755   3.381  0.1652  0.2118 -0.8317
   83DG     C11 1897   5.242   2.831   3.873 -0.6238  0.3741 -0.3262
   83DG     C12 1898   5.344   2.632   3.452 -0.2935 -0.4633 -0.7584
   83DG     H13 1899   5.294   2.906   3.814 -1.3420 -0.3109 -1.8771
   83DG     H14 1900   5.150   2.874   3.913  0.0994  0.7641  0.9828
   83DG     H15 1901   5.444   2.652   3.490 -0.5177 -0.0241 -0.3846
   83DG     H16 1902   5.335   2.546   3.386 -0.1453 -1.0653 -0.0096
   83DG     C17 1903   5.205   2.712   3.783  0.2819  0.3448  0.0755
   83DG     C18 1904   5.248   2.622   3.574  0.4590 -0.0465  0.4443
   83DG     O19 1905   5.278   2.728   3.662  0.0760  0.8243 -0.4138
   83DG     H20 1906   5.099   2.717   3.758  0.4722  1.9508 -0.5468
   83DG     H21 1907   5.207   2.616   3.834  0.5822 -0.2809 -1.0725
   83DG     H22 1908   5.146   2.624   3.535  1.1008 -0.3154 -1.3677
   83DG     H23 1909   5.257   2.522   3.617 -0.7132 -0.4155 -0.1195
   84DG      C1 1910   5.038   4.163   4.941  0.5448 -0.8292  0.2548
   84DG      C2 1911   5.776   3.664   4.815  0.4968 -0.8496 -0.1912
   84DG      H3 1912   5.009   4.125   5.039 -0.9326  1.1492  0.6485
   84DG      H4 1913   4.948   4.194   4.889  2.0789  1.7091 -1.0987
   84DG      H5 1914   5.095   4.255   4.953 -2.0017  0.8244  0.2290
   84DG      H6 1915   5.769   3.555   4.815  1.8295 -0.9551 -0.6288
   84DG      H7 1916   5.827   3.682   4.721  0.0073 -2.3927 -0.7839
   84DG      H8 1917   5.846   3.696   4.893  0.9881 -2.8354  0.2522
   84DG      O9 1918   5.095   4.070   4.848  0.2609  0.1960 -0.4831
   84DG     O10 1919   5.653   3.738   4.815  0.1948  0.9602  0.7901
   84DG     C11 1920   5.210   4.004   4.899  0.5423 -0.5655 -0.3856
   84DG     C12 1921   5.541   3.656   4.768  0.0830  0.5454  0.3900
   84DG     H13 1922   5.171   3.949   4.985 -1.1608  0.5122 -0.4053
   84DG     H14 1923   5.278   4.079   4.938 -1.5205  1.3749 -0.2909
   84DG     H15 1924   5.510   3.576   4.834  0.5254 -2.3598 -2.6401
   84DG     H16 1925   5.566   3.619   4.669  1.3035  0.8602  0.5715
   84DG     C17 1926   5.263   3.917   4.791  0.8741 -0.2406 -0.4419
   84DG     C18 1927   5.417   3.749   4.737  0.5010  0.2339 -0.2781
   84DG     O19 1928   5.354   3.820   4.844 -0.0132  0.5271  0.2471
   84DG     H20 1929   5.307   3.979   4.712 -1.0562 -1.4169 -2.5878
   84DG     H21 1930   5.171   3.873   4.752 -0.9001  1.8076  1.2217
   84DG     H22 1931   5.440   3.821   4.659  0.6972 -0.5948 -1.0039
   84DG     H23 1932   5.346   3.684   4.684 -0.0567 -0.5191  1.3244
   85DG      C1 1933   2.413   2.501   4.316  0.5238 -0.2514 -0.0988
   85DG      C2 1934   1.811   2.853   4.071 -0.3380 -0.8351  0.1093
   85DG      H3 1935   2.345   2.480   4.399 -0.8175 -0.2547 -1.1642
   85DG      H4 1936   2.477   2.587   4.337 -1.4749  1.4119 -0.5131
   85DG      H5 1937   2.469   2.409   4.300  1.8659  0.2543  1.4119
   85DG      H6 1938   1.843   2.837   3.968  0.9304  0.5526  0.2531
   85DG      H7 1939   1.711   2.896   4.065 -0.0415 -0.2345 -0.7502
   85DG      H8 1940   1.876   2.922   4.124 -0.6239 -1.3178  1.1082
   85DG      O9 1941   2.340   2.516   4.197  0.0013 -0.8993 -0.2165
   85DG     O10 1942   1.785   2.740   4.151 -0.1418 -0.4481 -0.1614
   85DG     C11 1943   2.274   2.402   4.156  0.8057  0.8393  0.2224
   85DG     C12 1944   1.900   2.675   4.208 -0.7039  0.2314 -0.2632
   85DG     H13 1945   2.256   2.331   4.237  2.5481 -0.6423 -0.6194
   85DG     H14 1946   2.346   2.359   4.086  0.8806  0.3969  0.5682
   85DG     H15 1947   1.865   2.628   4.300 -0.3213 -1.5816 -0.9994
   85DG     H16 1948   1.982   2.734   4.251 -0.2283 -0.5412 -0.0878
   85DG     C17 1949   2.148   2.439   4.083 -0.0347  0.6833  0.1683
   85DG     C18 1950   1.949   2.568   4.110  0.2960  0.1486  0.1458
   85DG     O19 1951   2.052   2.495   4.172  0.0388  0.2430  0.2914
   85DG     H20 1952   2.096   2.356   4.036 -0.5644  2.7100 -3.2103
   85DG     H21 1953   2.180   2.506   4.003 -0.8684  0.9262  0.0283
   85DG     H22 1954   1.869   2.502   4.075  0.7328  0.3440 -1.2772
   85DG     H23 1955   1.977   2.621   4.019  0.7052 -1.6524 -0.8260
   86DG      C1 1956   3.742   3.340   2.009 -0.3117  0.6479 -0.2375
   86DG      C2 1957   4.074   2.762   2.046 -0.1328 -0.1392 -0.1948
   86DG      H3 1958   3.732   3.443   1.975  0.2615  1.4100  1.7910
   86DG      H4 1959   3.758   3.351   2.116  0.4697  0.8954 -0.3726
   86DG      H5 1960   3.658   3.270   1.997  0.8391 -1.1521  1.5679
   86DG      H6 1961   4.122   2.742   2.142 -1.1286 -3.9067 -0.3240
   86DG      H7 1962   3.970   2.733   2.060 -0.0363  0.0040  0.9317
   86DG      H8 1963   4.128   2.695   1.979  3.1348 -1.2950  3.2532
   86DG      O9 1964   3.848   3.275   1.944 -0.3728 -0.3357 -0.1034
   86DG     O10 1965   4.072   2.894   2.001 -0.0570  0.0134 -0.4397
   86DG     C11 1966   3.968   3.358   1.906  0.0887 -0.5078  0.0584
   86DG     C12 1967   4.201   2.944   1.982 -0.2203  0.3737 -0.9101
   86DG     H13 1968   4.010   3.423   1.984 -0.6848 -0.0427  0.0989
   86DG     H14 1969   3.941   3.435   1.833 -0.0358  1.6068  2.2161
   86DG     H15 1970   4.267   2.864   1.951 -0.4407 -0.2550  0.1967
   86DG     H16 1971   4.242   2.969   2.080  2.5457 -0.2014 -1.8340
   86DG     C17 1972   4.091   3.272   1.865  0.3477  0.2528 -0.6888
   86DG     C18 1973   4.193   3.063   1.884  0.1760 -0.4353  0.4190
   86DG     O19 1974   4.103   3.152   1.941  0.1679  0.1834  0.1327
   86DG     H20 1975   4.189   3.320   1.868 -0.1341  1.2070  0.1549
   86DG     H21 1976   4.081   3.246   1.760 -0.4023 -0.8766 -0.3595
   86DG     H22 1977   4.289   3.114   1.877  0.4660 -0.9143  0.8007
   86DG     H23 1978   4.156   3.027   1.788 -0.3516  0.7708  0.1566
   87DG      C1 1979   2.321   1.761   1.856 -0.6967  0.0830  0.4844
   87DG      C2 1980   2.385   1.394   1.290  0.6664 -0.0463 -0.1811
   87DG      H3 1981   2.381   1.815   1.782 -1.6175  0.0958 -0.2863
   87DG      H4 1982   2.383   1.723   1.936  1.1011  2.0671  0.1060
   87DG      H5 1983   2.248   1.836   1.888  2.9860  3.5810  1.4478
   87DG      H6 1984   2.397   1.290   1.261  1.6170 -0.9008  2.9193
   87DG      H7 1985   2.382   1.453   1.198  0.2130  1.5914  0.8293
   87DG      H8 1986   2.474   1.426   1.345  0.9635 -1.4725  0.2023
   87DG      O9 1987   2.256   1.644   1.811 -0.2839 -0.3001  0.2595
   87DG     O10 1988   2.262   1.410   1.366  0.0282 -0.1005 -0.4224
   87DG     C11 1989   2.180   1.676   1.695  0.2547  0.7054  0.7421
   87DG     C12 1990   2.229   1.301   1.445  0.3709  0.4176  0.2518
   87DG     H13 1991   2.253   1.693   1.616 -0.3246  0.2278  0.0967
   87DG     H14 1992   2.129   1.771   1.713  1.0214  0.7732  2.8160
   87DG     H15 1993   2.313   1.276   1.509 -0.0914 -0.4091  0.5558
   87DG     H16 1994   2.201   1.213   1.388  0.8515  0.5975 -0.2722
   87DG     C17 1995   2.086   1.567   1.646 -0.0708  0.1585  0.0781
   87DG     C18 1996   2.124   1.350   1.546  0.0671  0.5177 -0.2791
   87DG     O19 1997   2.166   1.453   1.630  0.5195  0.0951 -0.4213
   87DG     H20 1998   2.048   1.594   1.548  1.5571 -0.4705 -0.7608
   87DG     H21 1999   2.012   1.538   1.720 -0.6281 -2.0162 -1.2611
   87DG     H22 2000   2.032   1.368   1.490  0.1357  0.1438 -0.5156
   87DG     H23 2001   2.106   1.267   1.614  2.3382  0.5784  0.4747
   88DG      C1 2002   1.575   5.273   3.902  0.5297 -0.4538 -0.5407
   88DG      C2 2003   2.205   5.157   3.675  0.4056  0.1314 -0.7054
   88DG      H3 2004   1.477   5.267   3.852  0.4026 -1.9875 -0.1588
   88DG      H4 2005   1.591   5.380   3.892 -0.6021 -0.2976 -0.8390
   88DG      H5 2006   1.552   5.259   4.007 -0.5119  0.8968 -0.5561
   88DG      H6 2007   2.214   5.138   3.782 -0.2463  0.6215 -0.5604
   88DG      H7 2008   2.278   5.098   3.620  0.7253 -0.2073  0.0758
   88DG      H8 2009   2.221   5.263   3.656 -1.4829  0.7434  0.8160
   88DG      O9 2010   1.681   5.192   3.857 -0.0420  0.2206 -0.9071
   88DG     O10 2011   2.071   5.129   3.649 -0.0148 -0.2597 -0.1252
   88DG     C11 2012   1.673   5.055   3.890 -0.1343  0.0968  0.0842
   88DG     C12 2013   2.034   4.990   3.652 -0.4568  0.0644  0.3430
   88DG     H13 2014   1.587   5.017   3.837  0.2289 -2.7282  1.3380
   88DG     H14 2015   1.671   5.052   3.999  0.0539  0.6540  0.1071
   88DG     H15 2016   2.060   4.928   3.738  2.0272 -2.5136 -2.0680
   88DG     H16 2017   2.094   4.940   3.576 -1.1011 -0.6660  0.2999
   88DG     C17 2018   1.785   4.989   3.819  0.7170 -0.1086 -0.6234
   88DG     C18 2019   1.887   4.961   3.602 -0.7907 -0.2363 -0.2405
   88DG     O19 2020   1.796   5.039   3.684  0.8585  0.2664  0.1201
   88DG     H20 2021   1.761   4.883   3.830 -0.1399 -0.0792 -1.9339
   88DG     H21 2022   1.880   5.012   3.865  1.7257  1.9125 -3.4463
   88DG     H22 2023   1.878   5.002   3.502 -1.3387  1.8105  0.5993
   88DG     H23 2024   1.857   4.856   3.607  2.4830 -1.2845  0.3511
   89DG      C1 2025   2.120   5.251   1.492 -0.2399  0.3101  0.4957
   89DG      C2 2026   2.105   4.486   1.677  0.1407 -0.0553 -0.7821
   89DG      H3 2027   2.054   5.331   1.459 -1.5237 -0.2582  1.6056
   89DG      H4 2028   2.221   5.281   1.462  0.0932  0.3460  1.6007
   89DG      H5 2029   2.122   5.250   1.601 -0.2631 -1.4501  0.4995
   89DG      H6 2030   2.110   4.395   1.617  1.5444 -0.0995 -0.6504
   89DG      H7 2031   2.206   4.520   1.701 -0.6772  0.5440  2.2240
   89DG      H8 2032   2.068   4.459   1.776  1.4092  1.6771  0.2073
   89DG      O9 2033   2.101   5.120   1.448  0.1138  0.1100  0.2468
   89DG     O10 2034   2.030   4.586   1.607 -0.2823 -0.0896 -0.2759
   89DG     C11 2035   1.979   5.082   1.505  0.1931 -0.4068  0.1192
   89DG     C12 2036   2.076   4.616   1.480  0.4120 -0.2561  0.5374
   89DG     H13 2037   1.899   5.153   1.485 -0.2935 -1.4792 -2.0869
   89DG     H14 2038   1.984   5.076   1.614 -1.7450  1.3302  0.3602
   89DG     H15 2039   2.080   4.521   1.426 -1.8025  0.4705 -1.0532
   89DG     H16 2040   2.182   4.641   1.493  0.7175 -0.4459 -1.2505
   89DG     C17 2041   1.931   4.950   1.453 -0.2035  0.6982 -0.4756
   89DG     C18 2042   2.006   4.725   1.413 -0.1053 -0.0265 -0.2975
   89DG     O19 2043   2.018   4.844   1.489 -0.0371  0.6700 -0.3841
   89DG     H20 2044   1.915   4.960   1.346  2.0042  1.4730 -0.7827
   89DG     H21 2045   1.837   4.938   1.509  1.1052  1.9461  2.1696
   89DG     H22 2046   2.063   4.738   1.320  1.4996  2.0910  0.8971
   89DG     H23 2047   1.906   4.697   1.380  0.0512 -0.8786 -0.0557
   90DG      C1 2048   4.018   4.543   1.899  0.4697 -0.0248  0.6656
   90DG      C2 2049   3.609   4.699   2.420  0.3214 -0.8072  0.1230
   90DG      H3 2050   4.044   4.484   1.987 -0.2730  0.5738  1.3012
   90DG      H4 2051   4.111   4.596   1.877  0.3945  0.8501  2.2644
   90DG      H5 2052   3.976   4.483   1.818 -0.7659 -0.0971  1.3334
   90DG      H6 2053   3.605   4.590   2.423 -1.2737 -0.7429  1.0052
   90DG      H7 2054   3.689   4.714   2.492  0.9248 -0.7442 -0.5512
   90DG      H8 2055   3.518   4.736   2.468  0.7438 -1.9859  1.9289
   90DG      O9 2056   3.930   4.638   1.949 -0.1849  0.2598 -0.0215
   90DG     O10 2057   3.634   4.740   2.286  0.2852  0.1918  0.1344
   90DG     C11 2058   3.928   4.765   1.887  0.5246 -1.0297  0.0654
   90DG     C12 2059   3.674   4.876   2.272 -0.3544 -0.3018 -0.3634
   90DG     H13 2060   3.927   4.765   1.778  0.3939  1.3415  0.0191
   90DG     H14 2061   4.022   4.818   1.899 -0.2501  0.4815 -0.2334
   90DG     H15 2062   3.766   4.882   2.330 -0.4397  0.0594 -0.2604
   90DG     H16 2063   3.605   4.954   2.305 -0.1885  0.4795 -1.8175
   90DG     C17 2064   3.812   4.844   1.940  0.2547 -0.4730  0.3661
   90DG     C18 2065   3.689   4.903   2.127 -1.0371 -0.3111 -0.5689
   90DG     O19 2066   3.792   4.818   2.076  0.1029  0.2876  0.1685
   90DG     H20 2067   3.728   4.800   1.887 -0.3695 -0.7359  1.5510
   90DG     H21 2068   3.822   4.949   1.914  1.5683 -0.3375  1.3374
   90DG     H22 2069   3.589   4.886   2.086  0.2615 -2.0842 -3.2622
   90DG     H23 2070   3.706   5.010   2.121 -0.2164 -0.3381  0.8664
   91DG      C1 2071   0.749   2.759   2.120  0.7184 -0.0996  0.1331
   91DG      C2 2072   0.800   3.144   2.346  0.7245 -0.6117  0.1844
   91DG      H3 2073   0.698   2.846   2.078  0.4340  0.4184  1.4963
   91DG      H4 2074   0.720   2.740   2.224 -0.6442  1.1995  0.0258
   91DG      H5 2075   0.733   2.675   2.054  2.0776 -0.8408  0.6985
   91DG      H6 2076   0.821   3.061   2.279  0.3758 -1.2319  0.8360
   91DG      H7 2077   0.694   3.146   2.370  0.4604 -0.7048 -0.8980
   91DG      H8 2078   0.804   3.235   2.286 -1.7973 -0.1627  0.6087
   91DG      O9 2079   0.890   2.781   2.140 -0.0075  0.4724 -0.6135
   91DG     O10 2080   0.881   3.144   2.461  0.6335  0.4837 -1.0602
   91DG     C11 2081   0.946   2.682   2.229  0.7073 -0.1273 -0.4485
   91DG     C12 2082   1.017   3.095   2.448  0.1341  0.2746 -0.3288
   91DG     H13 2083   1.050   2.657   2.206  0.6937 -2.3837  1.5668
   91DG     H14 2084   0.899   2.584   2.222 -0.8122  0.5972 -0.8209
   91DG     H15 2085   1.066   3.137   2.536 -0.7469  1.1766 -0.2494
   91DG     H16 2086   1.056   3.147   2.360  1.8330  0.0070  0.2310
   91DG     C17 2087   0.946   2.735   2.374 -1.1487  0.2928 -0.0211
   91DG     C18 2088   1.024   2.944   2.463  0.8324 -0.0802  0.1452
   91DG     O19 2089   0.964   2.875   2.360  0.2514 -0.3159  0.1389
   91DG     H20 2090   1.015   2.695   2.449 -1.7571  0.5237  0.6693
   91DG     H21 2091   0.847   2.720   2.416 -1.8284 -1.9083 -2.1877
   91DG     H22 2092   1.128   2.915   2.480  0.7405 -1.3452 -1.3102
   91DG     H23 2093   0.975   2.923   2.559 -1.0620  1.6876 -0.3570
   92DG      C1 2094   4.192   3.392   1.304  0.5356  0.6048  0.0614
   92DG      C2 2095   4.236   3.837   2.018  0.3629  1.1408 -0.1808
   92DG      H3 2096   4.106   3.437   1.254  0.7820  0.3885 -0.5691
   92DG      H4 2097   4.173   3.289   1.336  0.8066  0.8380  1.0039
   92DG      H5 2098   4.264   3.397   1.223  1.9856  2.4435  1.3888
   92DG      H6 2099   4.272   3.923   2.075 -0.6849  0.9330  0.8253
   92DG      H7 2100   4.139   3.868   1.980  0.4161 -1.9842 -3.3606
   92DG      H8 2101   4.226   3.749   2.081  1.9613 -0.5136 -2.1287
   92DG      O9 2102   4.243   3.464   1.416 -0.0331  0.6393 -0.4937
   92DG     O10 2103   4.323   3.803   1.911 -0.4319 -0.4665 -0.0101
   92DG     C11 2104   4.370   3.422   1.458  1.0429  0.0305  0.2937
   92DG     C12 2105   4.281   3.692   1.830 -0.0233 -0.3247 -0.7784
   92DG     H13 2106   4.436   3.399   1.374  0.3039  0.3023 -0.3732
   92DG     H14 2107   4.364   3.325   1.507  2.5861 -0.2859 -0.0875
   92DG     H15 2108   4.183   3.721   1.790 -1.1827  2.1037  3.2758
   92DG     H16 2109   4.256   3.606   1.891 -3.6649  1.8590  1.1985
   92DG     C17 2110   4.423   3.536   1.540 -0.1098  0.0850  0.0177
   92DG     C18 2111   4.389   3.672   1.728 -0.3646  0.4056 -1.0662
   92DG     O19 2112   4.341   3.568   1.652 -0.2259 -0.1693  0.3417
   92DG     H20 2113   4.432   3.617   1.467 -1.7258 -0.6092 -1.0326
   92DG     H21 2114   4.524   3.515   1.575  0.6862  2.4735 -0.6405
   92DG     H22 2115   4.394   3.761   1.665 -1.5111  0.3420 -1.2751
   92DG     H23 2116   4.486   3.645   1.769 -1.0122  0.0102  0.2545
   93DG      C1 2117   3.027   0.490   1.996 -0.0387 -0.3362 -0.6129
   93DG      C2 2118   3.825   0.419   2.255  0.2533 -0.3346 -0.1380
   93DG      H3 2119   3.042   0.496   2.103  0.3708  1.3510 -0.7466
   93DG      H4 2120   2.958   0.408   1.972  0.8455 -0.8463 -1.5128
   93DG      H5 2121   2.997   0.590   1.964  0.0414 -0.2594 -0.4491
   93DG      H6 2122   3.818   0.359   2.346  0.9210 -2.0346 -1.1528
   93DG      H7 2123   3.885   0.351   2.195  1.4984  0.3981  0.2461
   93DG      H8 2124   3.881   0.511   2.272 -1.0929  0.2452  1.3942
   93DG      O9 2125   3.146   0.438   1.944  0.6126  0.3423  0.2163
   93DG     O10 2126   3.690   0.431   2.208 -0.6451  0.5005 -0.1464
   93DG     C11 2127   3.261   0.494   2.006  0.0467  0.1653  0.7220
   93DG     C12 2128   3.680   0.525   2.108  0.9432  0.5592  0.7342
   93DG     H13 2129   3.269   0.472   2.113  1.8178  0.6852  0.7338
   93DG     H14 2130   3.258   0.600   1.984 -2.9989 -0.0672 -0.3874
   93DG     H15 2131   3.743   0.484   2.029 -0.4510 -1.2092  0.4888
   93DG     H16 2132   3.722   0.624   2.128 -0.2857  1.0370  1.0386
   93DG     C17 2133   3.375   0.430   1.935  0.1923 -0.2302  0.3371
   93DG     C18 2134   3.537   0.534   2.065  0.5986  0.0009 -0.2200
   93DG     O19 2135   3.489   0.411   2.017 -0.7703  0.1633 -0.1468
   93DG     H20 2136   3.392   0.489   1.845  0.5172  1.1364  1.2592
   93DG     H21 2137   3.351   0.330   1.900 -0.0609 -0.8592  2.1641
   93DG     H22 2138   3.469   0.559   2.146  0.3542  0.5913 -0.6054
   93DG     H23 2139   3.535   0.621   1.999  2.7386  0.5157  0.2821
   94DG      C1 2140   1.100   3.024   1.439  0.4029 -0.1624 -0.4220
   94DG      C2 2141   1.241   2.938   2.131 -0.2630 -0.1455 -0.3055
   94DG      H3 2142   0.992   3.020   1.455  0.6572 -0.8346  1.3826
   94DG      H4 2143   1.132   2.924   1.409 -1.2971 -0.6504 -0.7201
   94DG      H5 2144   1.121   3.083   1.350  1.0469  0.3947  0.0913
   94DG      H6 2145   1.287   2.840   2.139  0.7165  0.2800 -0.6668
   94DG      H7 2146   1.265   2.996   2.220 -0.0367 -0.6682 -0.0181
   94DG      H8 2147   1.133   2.924   2.137 -0.4301  0.5562 -1.4549
   94DG      O9 2148   1.153   3.082   1.556 -0.5148  0.4654 -0.1681
   94DG     O10 2149   1.266   3.007   2.010  0.3250  0.3105 -0.1675
   94DG     C11 2150   1.293   3.105   1.523  0.1585 -0.6767 -0.1491
   94DG     C12 2151   1.398   2.989   1.975 -0.3464 -0.5038  0.0423
   94DG     H13 2152   1.310   3.181   1.447 -1.1990 -0.0851  0.1143
   94DG     H14 2153   1.341   3.012   1.491 -1.9306 -1.3237 -1.5555
   94DG     H15 2154   1.417   2.884   1.950 -0.6617 -0.3766 -0.7732
   94DG     H16 2155   1.455   3.021   2.062 -0.3100 -3.1972  1.0931
   94DG     C17 2156   1.367   3.150   1.649  0.5214 -0.5603 -0.2515
   94DG     C18 2157   1.441   3.088   1.866  0.2221  0.2881 -0.3192
   94DG     O19 2158   1.355   3.054   1.756  0.4497 -0.1264  0.6343
   94DG     H20 2159   1.317   3.235   1.696 -1.1990 -2.9530  2.6256
   94DG     H21 2160   1.468   3.182   1.623 -0.3607  2.1042 -0.6725
   94DG     H22 2161   1.429   3.187   1.910 -0.0821  0.8256 -1.5640
   94DG     H23 2162   1.547   3.071   1.844  0.3827 -0.4392  0.9173
   95DG      C1 2163   4.223   3.526   0.272  0.2195 -0.7050  0.1940
   95DG      C2 2164   3.743   3.016   0.507 -0.1510  0.8184 -0.5080
   95DG      H3 2165   4.305   3.468   0.316 -0.8473 -1.6955  0.9213
   95DG      H4 2166   4.243   3.632   0.254 -0.5043 -0.1195  2.4720
   95DG      H5 2167   4.210   3.472   0.178 -0.2679 -2.0860  1.0284
   95DG      H6 2168   3.818   2.972   0.572 -1.4989 -2.3857 -0.9242
   95DG      H7 2169   3.653   3.027   0.568  0.4460  0.2362  0.5148
   95DG      H8 2170   3.726   2.942   0.428  0.4132  0.8920 -0.7000
   95DG      O9 2171   4.103   3.509   0.340 -0.1010  0.8622 -0.4490
   95DG     O10 2172   3.772   3.150   0.460  0.1834  0.0187 -0.0466
   95DG     C11 2173   4.111   3.573   0.466  0.3809  0.0761  0.4012
   95DG     C12 2174   3.827   3.238   0.555  0.1919 -0.0524 -0.3970
   95DG     H13 2175   4.150   3.674   0.454  2.1031 -0.8125 -2.2583
   95DG     H14 2176   4.191   3.528   0.524 -0.1126 -1.0791  0.2212
   95DG     H15 2177   3.907   3.180   0.602 -1.0708 -1.5614  0.0061
   95DG     H16 2178   3.745   3.265   0.621  0.4214 -0.8622  0.2379
   95DG     C17 2179   3.977   3.576   0.539  0.5640 -0.0956  0.0685
   95DG     C18 2180   3.883   3.358   0.483 -0.8575 -0.6852 -0.4119
   95DG     O19 2181   3.928   3.449   0.583 -0.6653 -0.3664 -0.2668
   95DG     H20 2182   3.911   3.628   0.469  1.0998  1.2335  0.5169
   95DG     H21 2183   3.994   3.650   0.617  0.9925 -0.9363  0.7867
   95DG     H22 2184   3.968   3.319   0.427 -1.5883 -0.8383 -1.4330
   95DG     H23 2185   3.807   3.400   0.417 -0.7979 -0.4014 -0.3029
   96DG      C1 2186   4.706   5.387   1.563  0.1807 -0.1192  0.3696
   96DG      C2 2187   5.357   5.552   1.542  0.1182  0.4219  0.3210
   96DG      H3 2188   4.636   5.421   1.486  0.8687  0.7223  0.1073
   96DG      H4 2189   4.648   5.365   1.653  1.6326 -1.0956  1.0966
   96DG      H5 2190   4.759   5.296   1.536  2.8872  0.2694  3.7709
   96DG      H6 2191   5.362   5.444   1.560  1.3665  0.2539 -0.8412
   96DG      H7 2192   5.370   5.541   1.434  0.2825 -1.1705  0.4788
   96DG      H8 2193   5.443   5.612   1.571  3.2167 -2.2934 -2.4060
   96DG      O9 2194   4.808   5.488   1.582 -0.0879 -0.0311 -0.1416
   96DG     O10 2195   5.238   5.606   1.574  0.5423 -0.1928 -0.8825
   96DG     C11 2196   4.759   5.587   1.671 -0.3817  0.1801 -0.2402
   96DG     C12 2197   5.240   5.664   1.703 -0.3295 -0.2002 -0.2223
   96DG     H13 2198   4.727   5.537   1.762 -2.8470  0.7499 -0.7226
   96DG     H14 2199   4.674   5.642   1.631 -0.0162  1.5162  0.7493
   96DG     H15 2200   5.308   5.748   1.720  0.9655 -1.3951  0.7588
   96DG     H16 2201   5.259   5.587   1.778  2.5156  0.8647  0.2779
   96DG     C17 2202   4.872   5.696   1.677  0.2051  0.0794  0.2009
   96DG     C18 2203   5.107   5.731   1.720  0.2110  0.5014  0.4446
   96DG     O19 2204   4.998   5.636   1.700 -0.1638 -0.0728 -0.1249
   96DG     H20 2205   4.852   5.762   1.762 -0.2754  1.0438 -0.6354
   96DG     H21 2206   4.877   5.765   1.592  0.3432 -2.6180 -2.1403
   96DG     H22 2207   5.099   5.776   1.819 -1.5289  0.6479  0.2636
   96DG     H23 2208   5.088   5.807   1.644 -3.3770 -1.6808 -1.0528
   97DG      C1 2209   5.316   5.337   0.547 -0.4667  0.3831  0.2459
   97DG      C2 2210   4.748   5.524   0.123 -0.1530  0.2803  0.0752
   97DG      H3 2211   5.385   5.391   0.483  0.3609 -0.1311  0.6901
   97DG      H4 2212   5.358   5.245   0.588 -1.0451 -0.0345 -0.0840
   97DG      H5 2213   5.272   5.395   0.629 -2.4298 -1.2602  0.4577
   97DG      H6 2214   4.809   5.596   0.067  0.3873 -1.4321 -1.6294
   97DG      H7 2215   4.672   5.481   0.057 -0.0137 -2.3548  1.4994
   97DG      H8 2216   4.698   5.573   0.206 -3.3434 -3.0487  0.3612
   97DG      O9 2217   5.212   5.298   0.467 -0.2520  1.2025  0.0006
   97DG     O10 2218   4.824   5.423   0.177 -0.5711 -0.0510  0.4144
   97DG     C11 2219   5.252   5.202   0.367  1.1212  0.4890 -0.0090
   97DG     C12 2220   4.885   5.344   0.068 -0.1726 -0.0796 -0.2798
   97DG     H13 2221   5.286   5.116   0.425  0.5248  0.5941  0.5059
   97DG     H14 2222   5.334   5.242   0.307 -0.2113  1.6062 -1.1797
   97DG     H15 2223   4.961   5.406   0.021  0.6429  1.0161  2.2853
   97DG     H16 2224   4.810   5.314  -0.005  1.0244 -2.7731 -0.4892
   97DG     C17 2225   5.131   5.155   0.274  0.4514 -0.5776 -0.3845
   97DG     C18 2226   4.955   5.227   0.139 -0.1484  0.2178  0.3344
   97DG     O19 2227   5.071   5.267   0.210 -0.2915 -0.1140  0.0264
   97DG     H20 2228   5.054   5.104   0.331  0.7437  0.2123  0.7609
   97DG     H21 2229   5.163   5.085   0.197 -1.1033 -0.7228 -0.9207
   97DG     H22 2230   4.879   5.173   0.195  0.3049  0.8090  1.5393
   97DG     H23 2231   4.993   5.158   0.063  0.2230  1.2915 -0.4898
   98DG      C1 2232   0.822   0.228   2.746 -0.9243 -0.8063 -0.1983
   98DG      C2 2233   1.349  -0.010   2.379  0.4994 -0.7300 -1.0165
   98DG      H3 2234   0.873   0.249   2.840 -0.2975  2.1936 -1.0785
   98DG      H4 2235   0.782   0.128   2.733 -0.1526 -0.8406 -3.1037
   98DG      H5 2236   0.733   0.291   2.742 -0.8839 -0.8016 -1.3382
   98DG      H6 2237   1.415  -0.001   2.465 -0.9997  0.1121  0.1052
   98DG      H7 2238   1.304  -0.109   2.387 -1.6580  0.0869 -2.2097
   98DG      H8 2239   1.419  -0.012   2.295 -0.4621  2.9660 -2.0856
   98DG      O9 2240   0.905   0.258   2.632  0.1614  0.1391 -0.7588
   98DG     O10 2241   1.258   0.100   2.364  0.8554 -0.3618 -0.5991
   98DG     C11 2242   0.952   0.393   2.614 -0.1537  0.1695 -0.1395
   98DG     C12 2243   1.322   0.227   2.363 -0.1520 -0.1457 -0.5911
   98DG     H13 2244   0.998   0.435   2.703  0.5348 -1.6657  0.4303
   98DG     H14 2245   0.872   0.465   2.599  0.1114  0.4573 -0.1625
   98DG     H15 2246   1.391   0.225   2.279 -1.3174  0.3436 -1.5996
   98DG     H16 2247   1.382   0.233   2.454  0.3369  0.3392 -0.9413
   98DG     C17 2248   1.024   0.399   2.485 -0.1138 -0.2525  0.1278
   98DG     C18 2249   1.208   0.323   2.356 -0.8551  0.4825 -0.3288
   98DG     O19 2250   1.137   0.319   2.481 -0.4431  0.2435  0.1170
   98DG     H20 2251   1.052   0.504   2.473 -0.8686 -0.1639 -0.9681
   98DG     H21 2252   0.957   0.364   2.407  2.7759 -2.7421 -1.4709
   98DG     H22 2253   1.246   0.422   2.329  1.3268 -0.3240 -0.3865
   98DG     H23 2254   1.135   0.287   2.284 -1.4907  2.4188 -0.7283
   99DG      C1 2255   3.868   3.176   2.277  0.3164  0.0122 -0.2842
   99DG      C2 2256   3.950   2.786   1.686  0.2086  0.1637 -0.6590
   99DG      H3 2257   3.790   3.220   2.339 -0.2705  0.3901 -1.2786
   99DG      H4 2258   3.931   3.261   2.249  1.0109 -0.5313 -0.4165
   99DG      H5 2259   3.929   3.120   2.349  1.4345  0.5016 -0.8233
   99DG      H6 2260   3.892   2.798   1.595  0.7267 -0.3770 -1.0772
   99DG      H7 2261   4.030   2.858   1.670  0.2873 -0.1655 -1.8335
   99DG      H8 2262   3.986   2.683   1.697 -1.1013 -0.4912 -2.1979
   99DG      O9 2263   3.799   3.088   2.187 -0.5737  0.1078  0.0866
   99DG     O10 2264   3.880   2.824   1.798 -0.4251  0.1293 -0.8145
   99DG     C11 2265   3.744   2.972   2.245  0.1244 -0.3916  0.4335
   99DG     C12 2266   3.782   2.733   1.840  0.0201 -0.1590 -0.5824
   99DG     H13 2267   3.680   3.005   2.326  2.1431  0.6388  1.6871
   99DG     H14 2268   3.815   2.905   2.294  3.0864  0.5669 -2.1908
   99DG     H15 2269   3.833   2.654   1.895  0.3459  0.8855  0.6804
   99DG     H16 2270   3.739   2.695   1.748  0.6308  0.5576 -1.1788
   99DG     C17 2271   3.667   2.896   2.144  0.6754  0.1191  0.2720
   99DG     C18 2272   3.673   2.784   1.931  0.5924  0.1446 -0.7392
   99DG     O19 2273   3.747   2.855   2.029  0.3157  0.1767  0.4195
   99DG     H20 2274   3.590   2.967   2.113  1.1623 -0.1943 -1.8424
   99DG     H21 2275   3.624   2.809   2.194 -1.4054  1.6195  1.2445
   99DG     H22 2276   3.602   2.844   1.874 -1.2157  1.4519  2.6518
   99DG     H23 2277   3.610   2.709   1.979 -2.8020  4.3599  2.1407
  100DG      C1 2278   0.530   0.204   5.226  0.7722  0.1971  0.3285
  100DG      C2 2279   0.969   0.852   5.542  0.6394 -0.1279 -0.9259
  100DG      H3 2280   0.599   0.127   5.193  3.5651  1.8768  1.9066
  100DG      H4 2281   0.533   0.288   5.156  1.6327  0.3825  0.5769
  100DG      H5 2282   0.432   0.157   5.238  0.3897  0.7822 -0.3696
  100DG      H6 2283   0.948   0.940   5.481  0.3182 -0.3873 -1.1963
  100DG      H7 2284   1.006   0.876   5.641  2.2775 -1.5711 -1.1484
  100DG      H8 2285   1.060   0.806   5.504  1.8014 -3.3563  4.6357
  100DG      O9 2286   0.559   0.252   5.361  0.5175 -0.5725 -0.6891
  100DG     O10 2287   0.869   0.757   5.535  0.7116 -0.7939  0.1311
  100DG     C11 2288   0.680   0.330   5.374  0.0695  0.3918  0.3819
  100DG     C12 2289   0.889   0.655   5.631  1.0076 -0.3875 -0.1175
  100DG     H13 2290   0.678   0.410   5.300  0.9271  1.2476  1.2481
  100DG     H14 2291   0.766   0.264   5.359  0.0513  0.9262 -2.8452
  100DG     H15 2292   0.900   0.697   5.731 -1.8078  1.2642 -0.4161
  100DG     H16 2293   0.973   0.592   5.601  1.2088 -0.1928  0.0369
  100DG     C17 2294   0.666   0.396   5.507  0.1855 -0.0420 -1.2430
  100DG     C18 2295   0.762   0.571   5.632  0.2495 -0.6485  0.1194
  100DG     O19 2296   0.772   0.488   5.519  0.1265  0.4001 -0.1929
  100DG     H20 2297   0.674   0.323   5.587 -0.4148  0.4365 -0.7336
  100DG     H21 2298   0.569   0.444   5.522 -0.6936 -1.8179 -0.9067
  100DG     H22 2299   0.774   0.494   5.709  1.0173  0.5582  1.2398
  100DG     H23 2300   0.668   0.624   5.650  0.1993 -0.9006  0.6289
  101DG      C1 2301   2.972   0.090   0.714  0.1928  0.2168  0.1941
  101DG      C2 2302   3.046  -0.506   0.635 -0.2258  0.1824  0.1287
  101DG      H3 2303   2.957   0.063   0.819 -0.8573  2.4089  0.6540
  101DG      H4 2304   2.936   0.191   0.697 -0.5061 -0.0155  0.2720
  101DG      H5 2305   3.077   0.073   0.688 -0.2832 -0.3477 -1.4412
  101DG      H6 2306   2.968  -0.578   0.610  0.9809 -1.0304 -0.2717
  101DG      H7 2307   3.142  -0.545   0.602 -0.5971  0.4407 -1.3255
  101DG      H8 2308   3.039  -0.490   0.743 -1.8582 -0.0621  0.0880
  101DG      O9 2309   2.897   0.001   0.629  0.3865 -0.6866 -0.1391
  101DG     O10 2310   3.022  -0.389   0.562  0.4003  0.0724 -0.5439
  101DG     C11 2311   2.900   0.023   0.490 -0.6358 -0.6891 -0.4498
  101DG     C12 2312   3.009  -0.398   0.423 -0.1947  0.0237 -0.2536
  101DG     H13 2313   3.005   0.003   0.464 -0.1433 -1.8258  2.1072
  101DG     H14 2314   2.864   0.124   0.472 -1.7372 -0.7152  1.3660
  101DG     H15 2315   2.928  -0.466   0.395 -0.1766  0.0968 -0.4924
  101DG     H16 2316   3.105  -0.434   0.386 -0.3458 -1.2047  0.4812
  101DG     C17 2317   2.819  -0.080   0.424  0.5885 -0.2698 -0.2999
  101DG     C18 2318   2.965  -0.262   0.371 -1.0352 -0.5981  0.0830
  101DG     O19 2319   2.866  -0.207   0.450  0.0232  0.0412  0.1988
  101DG     H20 2320   2.818  -0.059   0.317 -0.1325  2.3188  0.1491
  101DG     H21 2321   2.713  -0.070   0.444  0.3049  1.5011 -2.3264
  101DG     H22 2322   3.043  -0.191   0.395 -1.6342 -0.2484  1.0639
  101DG     H23 2323   2.949  -0.272   0.263  1.5985  0.4350 -0.4734
  102DG      C1 2324   2.302   0.335   3.314  0.7532 -0.4207  0.1474
  102DG      C2 2325   3.001   0.696   3.493 -0.5116 -0.1114 -1.1828
  102DG      H3 2326   2.309   0.376   3.213  0.7436 -0.5069  0.1115
  102DG      H4 2327   2.193   0.342   3.327  0.9052  2.4847  0.5814
  102DG      H5 2328   2.346   0.236   3.314  2.8177  0.4196 -1.6404
  102DG      H6 2329   3.057   0.677   3.585 -4.3567  1.0851  1.6822
  102DG      H7 2330   3.012   0.619   3.418  1.6050 -1.6349  0.5782
  102DG      H8 2331   3.045   0.788   3.455 -1.0970  0.0073 -1.5939
  102DG      O9 2332   2.375   0.386   3.422 -0.4358  0.1136  0.4807
  102DG     O10 2333   2.868   0.715   3.529 -0.0281  0.1239  0.1824
  102DG     C11 2334   2.379   0.532   3.422  0.1308  0.1104  0.0363
  102DG     C12 2335   2.814   0.600   3.609 -0.3823  0.6017 -0.5018
  102DG     H13 2336   2.280   0.576   3.417 -0.3342 -1.0103 -1.7302
  102DG     H14 2337   2.437   0.559   3.333  0.2185 -3.0152 -0.9903
  102DG     H15 2338   2.867   0.603   3.704 -1.0068 -0.4546 -0.1081
  102DG     H16 2339   2.831   0.506   3.556 -1.5725 -0.4453  0.8910
  102DG     C17 2340   2.453   0.585   3.546 -0.0418  0.0480 -0.2904
  102DG     C18 2341   2.670   0.620   3.638 -0.0873  0.8509  0.0935
  102DG     O19 2342   2.590   0.565   3.536  0.2080  0.2126  0.5436
  102DG     H20 2343   2.409   0.545   3.637  1.5164  0.8545  0.8760
  102DG     H21 2344   2.439   0.693   3.545 -0.5685 -0.0079  0.1496
  102DG     H22 2345   2.642   0.557   3.723  1.3063  1.2158  0.8493
  102DG     H23 2346   2.651   0.724   3.663  2.7794  1.5196 -0.1541
  103DG      C1 2347   2.818   2.901   4.814  0.1060  0.1989  0.7726
  103DG      C2 2348   3.377   3.506   4.735 -0.3601 -0.3296  0.3918
  103DG      H3 2349   2.872   2.815   4.775 -1.0016  0.0323 -0.4525
  103DG      H4 2350   2.716   2.893   4.776  0.5331  3.1160 -1.4083
  103DG      H5 2351   2.811   2.892   4.922 -0.7639 -0.2356  0.6872
  103DG      H6 2352   3.363   3.529   4.840  0.1292 -1.1831  0.6564
  103DG      H7 2353   3.444   3.421   4.719 -0.1786  0.2450 -2.4672
  103DG      H8 2354   3.441   3.592   4.717  1.4124 -1.1011  2.6174
  103DG      O9 2355   2.880   3.018   4.764  0.2824  0.9335 -0.0510
  103DG     O10 2356   3.263   3.488   4.652  0.0334 -0.2662 -0.4431
  103DG     C11 2357   2.857   3.044   4.628  0.6649 -0.3323  0.1918
  103DG     C12 2358   3.181   3.383   4.703  0.2556  0.4912 -0.3356
  103DG     H13 2359   2.756   3.021   4.592  1.0481  0.6957 -1.6672
  103DG     H14 2360   2.917   2.977   4.567 -0.7281  0.1139 -1.7814
  103DG     H15 2361   3.141   3.405   4.802 -3.1003  0.7987 -1.6336
  103DG     H16 2362   3.244   3.294   4.696  0.3815  0.4923  0.7179
  103DG     C17 2363   2.880   3.192   4.584 -0.0817  0.4022  0.3758
  103DG     C18 2364   3.056   3.362   4.615 -0.6824  0.4783  0.0835
  103DG     O19 2365   2.996   3.236   4.657 -0.1694 -0.0937  0.0361
  103DG     H20 2366   2.796   3.256   4.610  0.7270  1.1813  1.1552
  103DG     H21 2367   2.900   3.193   4.477  2.4344 -1.5320  0.7441
  103DG     H22 2368   2.973   3.432   4.616 -0.0266  1.2790  1.5283
  103DG     H23 2369   3.089   3.353   4.511 -1.5642 -0.2828 -0.1426
  104DG      C1 2370   1.754   1.952   4.808  0.1780  0.2079  0.1701
  104DG      C2 2371   1.607   2.213   4.100 -0.0618 -0.4217 -0.4316
  104DG      H3 2372   1.834   1.925   4.878  1.7797  0.4219 -1.4938
  104DG      H4 2373   1.725   1.863   4.752  1.5580 -0.0607 -0.1480
  104DG      H5 2374   1.673   1.992   4.869  0.4734  1.2008 -0.0785
  104DG      H6 2375   1.641   2.289   4.028 -2.4550  1.0142 -0.1325
  104DG      H7 2376   1.605   2.114   4.056  0.3487 -0.9293  0.6546
  104DG      H8 2377   1.505   2.241   4.124  0.2323  0.3238  0.0145
  104DG      O9 2378   1.809   2.047   4.716  0.0200 -0.3961  0.0918
  104DG     O10 2379   1.693   2.216   4.216 -0.5440  0.0933 -0.4445
  104DG     C11 2380   1.910   1.986   4.636  0.1257 -0.2214  0.1269
  104DG     C12 2381   1.827   2.200   4.182 -0.0795 -0.4869  0.3702
  104DG     H13 2382   1.872   1.896   4.587 -1.2164 -0.3172  1.2887
  104DG     H14 2383   1.998   1.963   4.697 -0.2416  2.4457  1.8440
  104DG     H15 2384   1.864   2.281   4.120 -1.6790 -0.0889 -0.1049
  104DG     H16 2385   1.851   2.106   4.133 -0.9744 -0.4583 -0.1378
  104DG     C17 2386   1.950   2.078   4.516 -0.1547 -0.0556  0.4610
  104DG     C18 2387   1.906   2.195   4.317  0.3143  0.4735 -0.1488
  104DG     O19 2388   1.849   2.109   4.419 -0.3797 -0.6977  0.3038
  104DG     H20 2389   2.030   2.019   4.471 -0.6318 -0.4087  0.0523
  104DG     H21 2390   1.981   2.169   4.567 -0.5378  1.1464 -1.3420
  104DG     H22 2391   2.012   2.185   4.295  0.0726  2.8656 -2.9527
  104DG     H23 2392   1.902   2.296   4.358  0.1090  0.6424 -0.5700
  105DG      C1 2393   1.071   1.116   1.000 -0.5863 -0.1046 -0.3129
  105DG      C2 2394   1.230   0.352   1.142  0.7009 -0.1318 -0.3311
  105DG      H3 2395   0.978   1.165   1.029 -0.5409  0.4237 -1.0242
  105DG      H4 2396   1.115   1.185   0.928 -1.3825 -0.0716 -0.7899
  105DG      H5 2397   1.126   1.106   1.093  1.2856  3.2443 -0.8799
  105DG      H6 2398   1.231   0.258   1.086 -0.5560 -0.2209 -0.2339
  105DG      H7 2399   1.321   0.336   1.200  1.4798 -2.3538 -2.0019
  105DG      H8 2400   1.142   0.342   1.206 -1.8790 -3.0977 -3.9137
  105DG      O9 2401   1.044   0.990   0.943 -0.1301 -0.0053  0.1230
  105DG     O10 2402   1.236   0.461   1.058  0.2358  0.5587 -0.1136
  105DG     C11 2403   1.166   0.934   0.895 -0.8168  0.4474  0.2412
  105DG     C12 2404   1.117   0.459   0.977  0.4720 -1.0341 -0.1191
  105DG     H13 2405   1.246   0.926   0.969 -0.0794  1.1302 -0.4527
  105DG     H14 2406   1.216   0.993   0.818  2.2361  0.2810  1.9416
  105DG     H15 2407   1.029   0.476   1.040 -0.1395  0.6683 -1.3634
  105DG     H16 2408   1.097   0.368   0.922 -0.3438 -0.7269 -0.3517
  105DG     C17 2409   1.139   0.794   0.838 -0.3035  0.4506 -0.4755
  105DG     C18 2410   1.122   0.563   0.862 -0.3562 -0.5878  0.3625
  105DG     O19 2411   1.145   0.685   0.931 -0.3662 -0.2160 -0.0724
  105DG     H20 2412   1.221   0.787   0.766 -0.0476  1.4043 -0.2910
  105DG     H21 2413   1.046   0.788   0.782  1.2768  1.2391 -3.4313
  105DG     H22 2414   1.194   0.547   0.783 -2.1238 -1.1233 -1.2215
  105DG     H23 2415   1.029   0.562   0.804  0.3574 -0.4948 -0.8033
  106DG      C1 2416   0.005   4.949   1.566  0.1894 -0.1286  0.2548
  106DG      C2 2417   0.446   4.343   1.816 -0.2928  0.1614 -0.4118
  106DG      H3 2418  -0.095   4.974   1.602  0.9428  1.2848  1.4342
  106DG      H4 2419   0.012   4.967   1.458 -2.5858 -0.8770 -0.1234
  106DG      H5 2420   0.079   5.018   1.606  3.8307 -2.0795 -2.5148
  106DG      H6 2421   0.441   4.238   1.844  0.2566  0.5478  1.3014
  106DG      H7 2422   0.527   4.350   1.744  2.2373  1.7668  2.3836
  106DG      H8 2423   0.477   4.394   1.907  2.0279  0.2479 -1.1935
  106DG      O9 2424   0.047   4.821   1.602  0.2012  0.3215  0.2922
  106DG     O10 2425   0.314   4.395   1.782 -0.2585  0.5142 -0.2885
  106DG     C11 2426  -0.052   4.724   1.599  0.5147  0.4366  0.4138
  106DG     C12 2427   0.278   4.357   1.651 -0.4368 -0.0867  0.4670
  106DG     H13 2428  -0.082   4.693   1.499  1.3642 -0.1086  0.3174
  106DG     H14 2429  -0.143   4.757   1.650  0.1592 -1.2309  0.9306
  106DG     H15 2430   0.284   4.249   1.661 -1.8075 -0.2487 -0.3312
  106DG     H16 2431   0.353   4.394   1.581  0.2376 -2.1003  0.0638
  106DG     C17 2432  -0.017   4.590   1.678 -0.5091 -0.4559 -0.2878
  106DG     C18 2433   0.129   4.393   1.637  0.4018 -0.1283  0.3811
  106DG     O19 2434   0.101   4.533   1.619  0.1054 -0.5523  0.4600
  106DG     H20 2435  -0.105   4.525   1.671 -0.0925 -1.1461  0.6390
  106DG     H21 2436   0.001   4.615   1.783 -1.1840 -2.4308  0.3488
  106DG     H22 2437   0.088   4.327   1.560 -0.0693 -0.3243  0.7970
  106DG     H23 2438   0.070   4.366   1.724  0.1672  0.3606  0.3738
  107DG      C1 2439   4.268   5.133   4.767  0.0982 -0.2729 -0.7114
  107DG      C2 2440   4.790   5.472   4.553  0.5050  0.5091 -0.0591
  107DG      H3 2441   4.221   5.038   4.738  1.3813 -0.9221 -0.7526
  107DG      H4 2442   4.216   5.224   4.739  2.8600  0.4539 -4.0554
  107DG      H5 2443   4.267   5.128   4.876 -0.0544  1.7838 -0.5964
  107DG      H6 2444   4.776   5.399   4.473  2.4232  1.3343 -1.2118
  107DG      H7 2445   4.711   5.546   4.541  0.9158  1.0488  0.4672
  107DG      H8 2446   4.884   5.527   4.556  1.3882 -0.9209 -0.2861
  107DG      O9 2447   4.403   5.134   4.714 -0.2757 -0.0110  0.2679
  107DG     O10 2448   4.791   5.405   4.676  0.3240  0.3738 -0.0520
  107DG     C11 2449   4.491   5.032   4.747 -0.2316  0.6481 -0.4635
  107DG     C12 2450   4.874   5.288   4.685  0.8067 -0.0041  0.6281
  107DG     H13 2451   4.446   4.933   4.735 -1.2487  0.9964  0.2812
  107DG     H14 2452   4.526   5.045   4.849 -0.3966 -0.1537 -0.2983
  107DG     H15 2453   4.903   5.284   4.790  1.2072  1.5371  0.6007
  107DG     H16 2454   4.969   5.311   4.635  1.0720 -0.7279  0.7972
  107DG     C17 2455   4.613   5.032   4.656  0.7522 -0.3097  0.9498
  107DG     C18 2456   4.803   5.162   4.641 -0.1120  0.8529 -0.0209
  107DG     O19 2457   4.672   5.154   4.696 -0.1861 -0.3912  0.3890
  107DG     H20 2458   4.600   5.033   4.548  2.9646  3.7916  0.5104
  107DG     H21 2459   4.671   4.949   4.697 -0.9305 -0.5667  3.0021
  107DG     H22 2460   4.781   5.159   4.534  0.5490 -0.0370 -0.1462
  107DG     H23 2461   4.867   5.077   4.664 -0.8573  0.5864  1.1773
  108DG      C1 2462   2.172   1.607   2.239  0.0308 -0.3924 -0.6155
  108DG      C2 2463   1.735   1.344   1.947  0.3025  0.1035  0.4637
  108DG      H3 2464   2.251   1.565   2.177 -0.5628 -1.6624 -0.5482
  108DG      H4 2465   2.216   1.664   2.321 -2.3265 -0.6847  0.9540
  108DG      H5 2466   2.127   1.691   2.187 -0.3266 -0.7093 -0.8154
  108DG      H6 2467   1.776   1.393   1.858 -1.3482  0.2326 -0.2588
  108DG      H7 2468   1.630   1.331   1.921 -0.0444  3.1124 -0.0733
  108DG      H8 2469   1.733   1.409   2.034 -2.0171  0.2048  0.3789
  108DG      O9 2470   2.070   1.511   2.276  0.5521  0.0171 -0.2843
  108DG     O10 2471   1.805   1.223   1.965 -0.0688  0.2866  0.1082
  108DG     C11 2472   2.131   1.391   2.316 -0.4231  0.1776  0.5499
  108DG     C12 2473   1.761   1.158   2.090 -0.2654 -0.0797 -0.6531
  108DG     H13 2474   2.190   1.395   2.407 -2.4082 -1.1777  1.9750
  108DG     H14 2475   2.204   1.366   2.239 -1.5829 -0.7035 -0.3094
  108DG     H15 2476   1.793   1.054   2.091  1.5427  0.4362 -0.9928
  108DG     H16 2477   1.653   1.161   2.099 -0.3099 -1.1540 -0.7783
  108DG     C17 2478   2.008   1.300   2.339 -0.7172 -0.3002  0.4332
  108DG     C18 2479   1.811   1.218   2.223 -1.2075  0.6353  0.5578
  108DG     O19 2480   1.948   1.259   2.218 -0.3125 -0.5545  0.3186
  108DG     H20 2481   1.937   1.340   2.412 -1.7322 -1.0860 -0.1064
  108DG     H21 2482   2.049   1.209   2.381 -0.4374 -1.3019 -1.8664
  108DG     H22 2483   1.745   1.300   2.254 -1.3179  1.5949 -2.0231
  108DG     H23 2484   1.807   1.142   2.301 -0.5954  0.7415  0.6957
  109DG      C1 2485   2.489   0.266   2.926 -0.2792  0.4186  0.6124
  109DG      C2 2486   2.729   0.425   2.276 -0.4567  0.2961  0.2524
  109DG      H3 2487   2.436   0.181   2.881 -3.3591  2.6184 -0.2136
  109DG      H4 2488   2.444   0.285   3.023  0.9552  1.0937  1.0767
  109DG      H5 2489   2.595   0.239   2.927 -0.3271 -0.1760 -2.1299
  109DG      H6 2490   2.835   0.437   2.299 -0.1578 -1.3474 -0.1618
  109DG      H7 2491   2.724   0.326   2.231  0.0104  0.0843  0.6587
  109DG      H8 2492   2.699   0.501   2.204  1.8796  0.8341 -0.2337
  109DG      O9 2493   2.482   0.376   2.829  0.0301  0.4535  0.5037
  109DG     O10 2494   2.652   0.428   2.396 -0.4039  0.4356 -0.2564
  109DG     C11 2495   2.350   0.409   2.789 -0.6219 -0.3186 -0.0641
  109DG     C12 2496   2.616   0.561   2.428  0.7193  0.0498  0.4004
  109DG     H13 2497   2.283   0.432   2.871 -0.2799 -2.5905  0.9332
  109DG     H14 2498   2.311   0.318   2.742 -0.2368 -0.8174  0.5734
  109DG     H15 2499   2.536   0.589   2.360 -0.7802 -0.9864  1.6470
  109DG     H16 2500   2.695   0.633   2.406 -0.3343  0.6515 -1.6785
  109DG     C17 2501   2.355   0.524   2.691  0.3257  0.3461  0.6577
  109DG     C18 2502   2.562   0.573   2.569  0.5243  0.7223  0.1664
  109DG     O19 2503   2.449   0.485   2.593 -0.3104 -0.2931 -0.1332
  109DG     H20 2504   2.385   0.614   2.744  1.2149  0.5339 -0.1438
  109DG     H21 2505   2.258   0.537   2.643  1.0571 -0.1889 -1.0726
  109DG     H22 2506   2.635   0.560   2.649  0.5154 -1.7877 -0.1405
  109DG     H23 2507   2.515   0.670   2.557  1.6553  1.0110 -2.4879
  110DG      C1 2508   0.985   3.455   0.206 -0.0898  0.1283  0.0927
  110DG      C2 2509   0.967   3.994   0.568 -0.1000 -0.1213 -0.0403
  110DG      H3 2510   0.882   3.473   0.239 -0.5988 -0.6943 -0.9632
  110DG      H4 2511   1.021   3.364   0.254  1.0370  0.4624 -0.1029
  110DG      H5 2512   0.994   3.443   0.098  0.7711  2.6335 -0.1801
  110DG      H6 2513   1.001   4.094   0.595 -1.9116  1.1912 -2.2089
  110DG      H7 2514   0.869   4.017   0.526 -0.6443 -2.2684 -0.0421
  110DG      H8 2515   0.951   3.935   0.658  0.8353  2.5616  2.0235
  110DG      O9 2516   1.070   3.562   0.242  0.0786  0.0437 -0.1510
  110DG     O10 2517   1.053   3.933   0.473 -0.5250 -0.3220 -0.1513
  110DG     C11 2518   1.211   3.533   0.249  0.9123 -0.3845  0.0318
  110DG     C12 2519   1.190   3.928   0.516 -0.1807  0.6114 -0.6775
  110DG     H13 2520   1.251   3.488   0.158  1.4646 -2.2427  1.1541
  110DG     H14 2521   1.239   3.456   0.321 -0.1967 -0.9740 -0.1411
  110DG     H15 2522   1.197   3.878   0.612  0.4715  2.3406  0.2105
  110DG     H16 2523   1.226   4.028   0.540 -0.3841  0.3917  0.5820
  110DG     C17 2524   1.283   3.669   0.276 -0.2240 -0.3939  0.2581
  110DG     C18 2525   1.280   3.860   0.411  0.1836 -0.2295 -0.1059
  110DG     O19 2526   1.221   3.730   0.390 -0.3992 -0.2899  0.7664
  110DG     H20 2527   1.289   3.743   0.197 -1.9273 -1.6748 -1.1288
  110DG     H21 2528   1.384   3.644   0.310 -0.3358  1.5263  2.2288
  110DG     H22 2529   1.288   3.924   0.324 -1.4137  0.0415 -0.0652
  110DG     H23 2530   1.377   3.836   0.456 -0.1093  0.3474  0.8660
  111DG      C1 2531   0.277   0.758   2.225  0.6341 -0.1777 -0.0149
  111DG      C2 2532   0.426   1.244   1.724 -0.0790 -0.5903  0.1128
  111DG      H3 2533   0.293   0.654   2.252 -1.1228 -0.2628  0.8123
  111DG      H4 2534   0.173   0.782   2.248 -0.3941 -1.3494 -2.9240
  111DG      H5 2535   0.334   0.827   2.287 -1.6683  2.0581 -0.2350
  111DG      H6 2536   0.469   1.250   1.624 -0.2382 -0.0730  0.0712
  111DG      H7 2537   0.340   1.312   1.726 -0.2848 -0.8631  1.3410
  111DG      H8 2538   0.495   1.281   1.799  1.0806 -0.3775 -1.0365
  111DG      O9 2539   0.301   0.790   2.089 -0.4485  0.0682 -0.0955
  111DG     O10 2540   0.386   1.111   1.748 -0.1062 -0.3131 -0.6578
  111DG     C11 2541   0.214   0.727   1.999  0.1567  0.3053  0.4855
  111DG     C12 2542   0.254   1.087   1.688  0.0927 -0.2053 -0.2089
  111DG     H13 2543   0.110   0.753   2.018 -0.0951 -0.3210 -0.0013
  111DG     H14 2544   0.222   0.620   2.016 -1.4586  0.0829  0.0454
  111DG     H15 2545   0.259   1.117   1.584  1.7767  0.3192 -0.0192
  111DG     H16 2546   0.168   1.135   1.735 -0.4224 -0.1417 -1.1921
  111DG     C17 2547   0.261   0.753   1.853  0.1640  0.3199 -0.1128
  111DG     C18 2548   0.236   0.931   1.691  1.0844  0.0376  0.6375
  111DG     O19 2549   0.246   0.890   1.823  0.3617 -0.3102 -0.4523
  111DG     H20 2550   0.192   0.693   1.795 -0.2486 -0.1925  0.8782
  111DG     H21 2551   0.361   0.718   1.826  0.3076 -0.0105  0.7951
  111DG     H22 2552   0.145   0.901   1.638  0.9444  0.9390  0.3479
  111DG     H23 2553   0.314   0.884   1.630 -0.1701 -0.0439 -0.9882
  112DG      C1 2554   0.777   0.881   4.344 -0.5385 -0.1187  0.6961
  112DG      C2 2555   0.393   0.277   4.380  0.3901 -0.3506 -0.2590
  112DG      H3 2556   0.790   0.981   4.385 -0.3063 -0.6519  1.9673
  112DG      H4 2557   0.832   0.890   4.250  0.8951  1.4485  1.6152
  112DG      H5 2558   0.841   0.816   4.403  1.4646  2.6909  1.8542
  112DG      H6 2559   0.450   0.212   4.446 -1.8005 -2.3963 -0.2408
  112DG      H7 2560   0.309   0.220   4.342  1.6258 -0.5573 -2.8880
  112DG      H8 2561   0.455   0.295   4.292 -1.0334  0.6060 -1.1246
  112DG      O9 2562   0.642   0.841   4.352 -0.3054 -0.4120  0.3055
  112DG     O10 2563   0.361   0.393   4.452 -0.4091  0.2283 -0.0231
  112DG     C11 2564   0.581   0.850   4.486  0.0664  0.0122 -0.1717
  112DG     C12 2565   0.290   0.492   4.377 -0.3526 -0.4509  0.4243
  112DG     H13 2566   0.592   0.950   4.529 -0.3096  0.0573 -0.1807
  112DG     H14 2567   0.634   0.782   4.553  2.4927 -2.0013 -3.8042
  112DG     H15 2568   0.186   0.461   4.374 -0.5856  0.1506  1.8107
  112DG     H16 2569   0.318   0.501   4.272  0.0338 -0.0853  0.5549
  112DG     C17 2570   0.434   0.809   4.483  0.1275  0.2238  0.0527
  112DG     C18 2571   0.291   0.634   4.448  0.4434  0.8239  0.5613
  112DG     O19 2572   0.427   0.673   4.457 -0.0960  0.0321 -0.0818
  112DG     H20 2573   0.386   0.870   4.407  1.7969  0.8182 -0.5680
  112DG     H21 2574   0.381   0.832   4.576 -1.9453  2.9655 -1.6506
  112DG     H22 2575   0.228   0.691   4.379 -1.8970 -1.0570  0.9850
  112DG     H23 2576   0.242   0.639   4.545  0.4370  2.3357  0.5053
  113DG      C1 2577   5.219   5.208   0.892 -1.1534  0.2604 -0.5157
  113DG      C2 2578   5.600   5.940   1.147 -0.5509  0.2925  0.5739
  113DG      H3 2579   5.229   5.141   0.977  0.4141 -0.3515 -1.1407
  113DG      H4 2580   5.259   5.150   0.808  1.9049  1.4340  0.0237
  113DG      H5 2581   5.112   5.227   0.878 -0.7818  2.7514 -0.4957
  113DG      H6 2582   5.625   5.962   1.043  0.1418 -2.6750  0.0298
  113DG      H7 2583   5.494   5.965   1.159 -0.2748  0.7683  2.2547
  113DG      H8 2584   5.675   5.990   1.208  1.0942  2.2314 -2.7685
  113DG      O9 2585   5.291   5.336   0.913  0.2792  0.1030  0.0325
  113DG     O10 2586   5.617   5.802   1.164 -0.2807  0.4609  0.2913
  113DG     C11 2587   5.428   5.324   0.901 -0.5042 -0.0410  0.3688
  113DG     C12 2588   5.524   5.716   1.105  0.3590  0.1786  0.0952
  113DG     H13 2589   5.450   5.314   0.795 -1.0305 -0.5447  0.2975
  113DG     H14 2590   5.474   5.241   0.954  1.1294 -1.5413 -3.0655
  113DG     H15 2591   5.524   5.729   0.997 -2.4833  0.1408  0.0016
  113DG     H16 2592   5.428   5.753   1.143  1.1477  2.6885 -0.1636
  113DG     C17 2593   5.495   5.456   0.943  0.7989  0.9831  0.4778
  113DG     C18 2594   5.550   5.573   1.139 -0.4940  0.3019  0.1154
  113DG     O19 2595   5.462   5.476   1.075 -0.3336  0.1391 -0.1363
  113DG     H20 2596   5.453   5.536   0.882 -1.5436 -0.8709 -0.5311
  113DG     H21 2597   5.599   5.439   0.915  0.6502  0.8802 -0.0203
  113DG     H22 2598   5.656   5.551   1.136 -0.6397 -0.2916 -1.5899
  113DG     H23 2599   5.535   5.575   1.248  2.0706  1.6190  0.5186
  114DG      C1 2600   4.903   1.832   1.336 -0.5544  0.6596  0.0980
  114DG      C2 2601   5.608   2.143   1.474 -0.2653 -0.1659  0.4434
  114DG      H3 2602   4.909   1.729   1.300 -0.5226  0.7655 -0.2030
  114DG      H4 2603   4.915   1.895   1.247  1.9741  0.2378  0.0693
  114DG      H5 2604   4.805   1.834   1.384 -0.1283 -0.3859  1.0488
  114DG      H6 2605   5.644   2.090   1.386 -1.3031  0.0145 -0.1022
  114DG      H7 2606   5.598   2.245   1.435  1.7513 -0.9794 -2.5417
  114DG      H8 2607   5.675   2.135   1.559  0.1180  0.1461  0.1786
  114DG      O9 2608   4.999   1.848   1.435  0.0895  0.1741  0.3567
  114DG     O10 2609   5.479   2.110   1.512  0.1275  0.1552  0.1481
  114DG     C11 2610   4.990   1.975   1.498  0.0407 -0.3804  0.2815
  114DG     C12 2611   5.472   1.973   1.576 -0.1844 -0.1682  0.4508
  114DG     H13 2612   4.890   1.983   1.540 -0.4811 -3.9194  0.0519
  114DG     H14 2613   5.020   2.046   1.421 -2.1575 -1.3382 -1.5431
  114DG     H15 2614   5.554   1.948   1.643  0.6296 -1.3959 -0.9182
  114DG     H16 2615   5.467   1.891   1.504 -2.7011 -0.7730  1.2323
  114DG     C17 2616   5.104   1.973   1.612  0.4441 -0.7148 -0.3856
  114DG     C18 2617   5.336   1.958   1.661 -0.0846 -0.2112 -0.1618
  114DG     O19 2618   5.233   1.958   1.564 -0.1087 -0.0029  0.2444
  114DG     H20 2619   5.072   1.902   1.689  1.4831  1.1079  1.8460
  114DG     H21 2620   5.103   2.065   1.670  1.6663  0.1334 -1.6667
  114DG     H22 2621   5.337   1.861   1.712  0.2442  0.1535  0.5353
  114DG     H23 2622   5.328   2.035   1.738 -4.4178 -1.6348  1.1156
  115DG      C1 2623   0.558   1.747   4.372  0.0198 -0.3448  0.0742
  115DG      C2 2624   0.473   1.543   5.003 -0.5715 -0.5367  0.2909
  115DG      H3 2625   0.454   1.778   4.360  0.0975 -0.2099 -0.2572
  115DG      H4 2626   0.567   1.644   4.338  0.9640 -0.6020  1.0877
  115DG      H5 2627   0.629   1.794   4.304  2.5764 -0.2529  2.6172
  115DG      H6 2628   0.514   1.526   5.103 -1.6012 -2.3512  0.4565
  115DG      H7 2629   0.368   1.573   5.008 -0.0679  1.8205 -1.4649
  115DG      H8 2630   0.489   1.446   4.955 -3.2593  0.2340 -2.4961
  115DG      O9 2631   0.617   1.789   4.496  0.3835  0.7181  0.3543
  115DG     O10 2632   0.542   1.645   4.928  0.1169  0.7328 -0.0439
  115DG     C11 2633   0.607   1.924   4.530  0.3059 -1.0403 -0.3216
  115DG     C12 2634   0.543   1.775   4.979  0.2880 -0.0169  0.3425
  115DG     H13 2635   0.502   1.951   4.522 -0.4036 -2.5648  2.5706
  115DG     H14 2636   0.649   1.997   4.460 -0.1687 -0.2338  0.2093
  115DG     H15 2637   0.585   1.774   5.079 -0.3077  0.3678  0.6055
  115DG     H16 2638   0.444   1.814   4.955  0.1831 -0.3744  0.1829
  115DG     C17 2639   0.658   1.947   4.672  0.0063  0.0908 -0.3442
  115DG     C18 2640   0.635   1.863   4.886  0.0191  0.1061  0.6826
  115DG     O19 2641   0.596   1.847   4.752  0.1679  0.3628  0.3102
  115DG     H20 2642   0.634   2.047   4.705  0.8398 -0.1540  1.0992
  115DG     H21 2643   0.767   1.935   4.676  0.0262  0.1152 -0.7134
  115DG     H22 2644   0.629   1.969   4.912 -1.5005  0.1212  0.3606
  115DG     H23 2645   0.735   1.821   4.898  0.2114  0.0777 -0.9025
  116DG      C1 2646   3.393   2.099   4.513 -0.1258  0.2841  0.1281
  116DG      C2 2647   3.150   2.621   4.861  0.0660  0.7297  0.4513
  116DG      H3 2648   3.328   2.017   4.545  1.8303 -0.1909  3.3960
  116DG      H4 2649   3.465   2.116   4.593 -2.4343  2.0370  1.9797
  116DG      H5 2650   3.442   2.073   4.419 -2.1301  2.1979 -1.5562
  116DG      H6 2651   3.256   2.635   4.884  0.3082  1.5342 -1.0488
  116DG      H7 2652   3.119   2.721   4.830 -0.1120  0.9008  1.1535
  116DG      H8 2653   3.097   2.583   4.948  1.2829  1.3590  1.5044
  116DG      O9 2654   3.334   2.221   4.483  0.6140 -0.1323  0.3766
  116DG     O10 2655   3.153   2.526   4.752  0.0455  0.0060  0.2801
  116DG     C11 2656   3.225   2.208   4.396  0.5684 -0.0317 -0.1821
  116DG     C12 2657   3.030   2.458   4.743  0.9264 -0.1914  0.3648
  116DG     H13 2658   3.172   2.114   4.410 -0.0487  0.2309 -0.6950
  116DG     H14 2659   3.256   2.208   4.291  0.6117 -2.9842 -0.2364
  116DG     H15 2660   2.945   2.525   4.754  0.4026 -0.7253 -0.3221
  116DG     H16 2661   3.025   2.374   4.812 -0.2713 -0.5604 -0.1413
  116DG     C17 2662   3.115   2.312   4.431 -0.1493 -0.4263  0.1788
  116DG     C18 2663   3.004   2.402   4.603 -0.6227 -0.2141  0.0092
  116DG     O19 2664   3.106   2.311   4.568 -0.3633 -0.2164  0.0824
  116DG     H20 2665   3.019   2.302   4.380  0.2065  0.3408 -0.6886
  116DG     H21 2666   3.146   2.407   4.386 -2.6256 -0.2223 -1.2719
  116DG     H22 2667   2.900   2.370   4.591 -0.5562 -0.9132  1.2193
  116DG     H23 2668   3.002   2.495   4.545 -2.8274 -0.7560 -0.8848
  117DG      C1 2669   0.608   4.886   3.077 -0.3342  0.1660 -0.0737
  117DG      C2 2670  -0.027   4.825   2.921 -0.4252  0.3197 -0.2491
  117DG      H3 2671   0.610   4.777   3.070 -1.3132  0.1793 -0.7832
  117DG      H4 2672   0.710   4.922   3.082  0.0467 -0.7128 -1.1539
  117DG      H5 2673   0.568   4.909   2.978 -0.0497 -0.9594 -0.4681
  117DG      H6 2674  -0.012   4.719   2.945 -0.7766  0.4062  0.3912
  117DG      H7 2675  -0.080   4.876   3.001  1.1685  1.4053  0.1702
  117DG      H8 2676  -0.077   4.845   2.827 -1.1563 -0.7582 -0.1141
  117DG      O9 2677   0.517   4.934   3.174  0.3789  0.1763  0.4615
  117DG     O10 2678   0.096   4.895   2.912  0.0751  0.0638  0.0866
  117DG     C11 2679   0.489   5.074   3.163 -0.6817  0.2220  0.1290
  117DG     C12 2680   0.077   5.030   2.885  0.2469  0.0557 -0.1177
  117DG     H13 2681   0.591   5.107   3.142  0.1529 -0.4859  2.7289
  117DG     H14 2682   0.463   5.114   3.261 -2.7143  1.0451 -0.6884
  117DG     H15 2683  -0.016   5.073   2.923 -0.7254 -0.5992 -1.6603
  117DG     H16 2684   0.064   5.021   2.778 -1.0982  0.7476 -0.0315
  117DG     C17 2685   0.405   5.113   3.047  0.0258 -0.0314 -0.0313
  117DG     C18 2686   0.210   5.096   2.918  0.0015 -0.2567  0.7664
  117DG     O19 2687   0.282   5.036   3.026  0.3579  0.4673 -0.2220
  117DG     H20 2688   0.467   5.114   2.958 -1.1797  0.7085 -0.8833
  117DG     H21 2689   0.369   5.211   3.078  1.0736 -0.1429  1.7190
  117DG     H22 2690   0.271   5.092   2.827 -0.8785  1.0189  0.0965
  117DG     H23 2691   0.204   5.204   2.930 -1.5542 -0.3022  0.5377
  118DG      C1 2692   1.729   1.142   0.575 -0.0577 -0.8802 -0.4229
  118DG      C2 2693   1.611   0.464   0.510  0.1395  0.0298  0.4844
  118DG      H3 2694   1.786   1.157   0.667 -1.2487 -0.4924  0.2778
  118DG      H4 2695   1.651   1.218   0.576 -1.2280 -2.0346 -0.6360
  118DG      H5 2696   1.780   1.169   0.483 -0.0361 -0.3976 -0.2732
  118DG      H6 2697   1.548   0.375   0.500  0.6976 -0.2418 -0.9116
  118DG      H7 2698   1.578   0.541   0.441  0.3534 -0.5812 -0.3182
  118DG      H8 2699   1.713   0.431   0.487  0.4377 -0.2914  2.1478
  118DG      O9 2700   1.687   1.010   0.556 -0.1050 -0.0469 -0.6315
  118DG     O10 2701   1.611   0.502   0.643 -0.4863 -0.3117  0.0461
  118DG     C11 2702   1.606   0.964   0.675  0.2049  0.2959  0.1096
  118DG     C12 2703   1.487   0.531   0.704 -0.0972 -0.5333  0.1336
  118DG     H13 2704   1.508   0.987   0.634  0.5972 -0.3284 -1.2311
  118DG     H14 2705   1.620   1.017   0.769  1.2576 -1.2978  0.9003
  118DG     H15 2706   1.448   0.436   0.741 -2.0585 -0.3196 -1.2314
  118DG     H16 2707   1.416   0.568   0.630  1.2775  1.1767 -0.4000
  118DG     C17 2708   1.636   0.818   0.700  0.5591  0.0522  0.3240
  118DG     C18 2709   1.514   0.632   0.815 -0.2453 -0.3066  1.0229
  118DG     O19 2710   1.515   0.763   0.768 -0.5300  0.3041  0.3138
  118DG     H20 2711   1.731   0.796   0.750 -0.3832  0.4052  2.3886
  118DG     H21 2712   1.651   0.777   0.601 -0.9847 -1.5871  0.7145
  118DG     H22 2713   1.435   0.633   0.890  1.0391 -0.7481  2.4335
  118DG     H23 2714   1.609   0.617   0.866  1.5057  3.9032 -0.5355
  119DG      C1 2715   1.665   0.120   2.185 -0.0083 -0.4194  0.1904
  119DG      C2 2716   1.480   0.349   3.012  0.2025 -0.1249  0.4387
  119DG      H3 2717   1.590   0.179   2.132  0.2329  0.7846  1.1299
  119DG      H4 2718   1.653   0.020   2.143 -0.0756 -0.8181  1.1237
  119DG      H5 2719   1.759   0.159   2.146 -0.0832 -1.0339 -0.6274
  119DG      H6 2720   1.559   0.424   3.017  1.4708 -1.2592 -1.2889
  119DG      H7 2721   1.385   0.387   2.975  0.2026 -1.5714 -1.2214
  119DG      H8 2722   1.475   0.306   3.112 -0.5765  0.3357  0.6052
  119DG      O9 2723   1.642   0.121   2.325  0.4501 -0.4099 -0.2368
  119DG     O10 2724   1.523   0.237   2.937  0.0297 -0.2150 -0.1481
  119DG     C11 2725   1.757   0.080   2.398  0.0432 -0.0476 -0.0444
  119DG     C12 2726   1.576   0.260   2.802  0.4445  0.7674 -0.1909
  119DG     H13 2727   1.824   0.166   2.399  0.6042 -0.4056 -2.0213
  119DG     H14 2728   1.816   0.001   2.350  1.5248  0.0944  1.4491
  119DG     H15 2729   1.658   0.330   2.815 -1.4773  3.4445 -1.5593
  119DG     H16 2730   1.510   0.320   2.739 -0.7461 -1.2352 -0.9570
  119DG     C17 2731   1.715   0.045   2.540 -0.5357 -0.3112 -0.0338
  119DG     C18 2732   1.628   0.128   2.735  0.0278  0.0372 -0.3782
  119DG     O19 2733   1.669   0.167   2.604 -0.2381  0.6109  0.0144
  119DG     H20 2734   1.795  -0.004   2.596  0.7872 -0.6117 -2.0917
  119DG     H21 2735   1.628  -0.021   2.536  0.9515 -2.4313  0.6738
  119DG     H22 2736   1.714   0.092   2.791 -0.3634  1.8796  1.5341
  119DG     H23 2737   1.548   0.054   2.736 -0.6367  0.7500 -0.0855
  120DG      C1 2738   2.322   2.195   4.643 -0.2147 -1.1905 -0.0934
  120DG      C2 2739   1.886   1.524   4.643 -0.0011  0.8438  0.2942
  120DG      H3 2740   2.309   2.264   4.559  0.6836 -0.6842  0.1716
  120DG      H4 2741   2.417   2.212   4.694  0.5958  0.3835 -1.9719
  120DG      H5 2742   2.243   2.208   4.716  1.9365  1.0229  2.0329
  120DG      H6 2743   1.970   1.473   4.690 -0.4404 -0.7813 -0.5883
  120DG      H7 2744   1.805   1.533   4.716  0.8401 -0.2516  1.3933
  120DG      H8 2745   1.837   1.468   4.564  0.9214 -0.0982  0.3746
  120DG      O9 2746   2.314   2.073   4.579 -0.0920  0.1465  0.1525
  120DG     O10 2747   1.928   1.654   4.603  0.1797 -0.3600  0.4576
  120DG     C11 2748   2.356   1.966   4.662 -0.1642  0.7839  0.0346
  120DG     C12 2749   2.010   1.665   4.486 -0.1971  0.0184  0.5187
  120DG     H13 2750   2.310   1.970   4.760 -0.6297 -2.5196  0.0534
  120DG     H14 2751   2.464   1.974   4.677 -0.0531 -0.7209  0.2263
  120DG     H15 2752   1.979   1.758   4.437  0.5987 -1.0301 -2.1848
  120DG     H16 2753   1.982   1.580   4.423 -1.9092 -0.1005  1.3832
  120DG     C17 2754   2.329   1.821   4.597  0.3506  0.0907 -0.7817
  120DG     C18 2755   2.162   1.674   4.512  0.1967 -0.3302  0.2463
  120DG     O19 2756   2.187   1.795   4.576  0.2829  0.3544 -0.4272
  120DG     H20 2757   2.363   1.747   4.670 -1.8211  1.9995  2.4030
  120DG     H21 2758   2.386   1.816   4.504 -0.1978 -0.8314 -1.0842
  120DG     H22 2759   2.187   1.582   4.564 -0.6112 -0.7597 -0.1127
  120DG     H23 2760   2.209   1.673   4.413 -2.4746  1.3789 -1.1793
  121DG      C1 2761   2.485   3.902   3.116 -0.4280 -1.2541 -0.8294
  121DG      C2 2762   2.836   3.201   3.254 -1.0292  0.0359 -0.7209
  121DG      H3 2763   2.529   3.958   3.199  0.9214 -2.1599 -0.8961
  121DG      H4 2764   2.382   3.877   3.142 -0.5296  0.0382  0.0671
  121DG      H5 2765   2.484   3.964   3.027  1.1998  2.0481  1.2559
  121DG      H6 2766   2.925   3.217   3.315 -1.7904  1.2655  0.1003
  121DG      H7 2767   2.756   3.145   3.302 -1.6437  1.0013 -0.5989
  121DG      H8 2768   2.883   3.143   3.175  0.3470 -2.3567  1.7034
  121DG      O9 2769   2.555   3.783   3.105  0.2635  0.8736 -0.1261
  121DG     O10 2770   2.789   3.333   3.208 -0.0371 -0.2476 -0.6235
  121DG     C11 2771   2.678   3.793   3.048 -0.6285  0.2811  0.8037
  121DG     C12 2772   2.693   3.398   3.298  0.2940 -0.1269 -0.4091
  121DG     H13 2773   2.733   3.884   3.072 -0.0980  0.1023  0.2866
  121DG     H14 2774   2.654   3.790   2.942 -1.8835  2.1037  0.9996
  121DG     H15 2775   2.735   3.405   3.399 -1.5042 -0.7490  0.4185
  121DG     H16 2776   2.606   3.334   3.312  0.1778 -0.1089 -1.0234
  121DG     C17 2777   2.770   3.666   3.088  0.7252  0.4732 -0.3322
  121DG     C18 2778   2.645   3.530   3.241  0.1971  0.4594  0.5322
  121DG     O19 2779   2.751   3.616   3.220 -0.2510 -0.4842 -0.5865
  121DG     H20 2780   2.875   3.694   3.090  1.3731 -1.6327 -1.6698
  121DG     H21 2781   2.770   3.586   3.014  0.7403  0.3309 -0.1791
  121DG     H22 2782   2.597   3.502   3.148  0.1059 -0.7934  0.9475
  121DG     H23 2783   2.575   3.574   3.312 -0.7869 -1.2926  0.6804
  122DG      C1 2784   3.094   3.051   1.160  0.1504  0.0242 -0.1054
  122DG      C2 2785   3.403   2.313   1.491  0.2947 -0.5712  0.2891
  122DG      H3 2786   3.200   3.074   1.176  0.0864 -0.8857  1.9442
  122DG      H4 2787   3.043   3.061   1.256  0.1976  0.6383 -0.1402
  122DG      H5 2788   3.063   3.129   1.090  0.7940  0.1592 -0.2469
  122DG      H6 2789   3.320   2.270   1.548  1.3381 -0.6016  1.8371
  122DG      H7 2790   3.416   2.225   1.428 -5.1725 -1.2321 -0.4138
  122DG      H8 2791   3.489   2.341   1.551  2.0472  0.0666 -2.3323
  122DG      O9 2792   3.079   2.924   1.105 -0.1743  0.5666  0.3858
  122DG     O10 2793   3.366   2.435   1.431 -0.3485 -0.4113  0.4673
  122DG     C11 2794   3.107   2.818   1.187 -0.0592  0.2872  0.2970
  122DG     C12 2795   3.259   2.423   1.330 -0.1562  0.0899 -0.7091
  122DG     H13 2796   3.030   2.801   1.262  0.1509  0.5955  0.5866
  122DG     H14 2797   3.201   2.835   1.241 -0.6976  3.3614  0.6575
  122DG     H15 2798   3.165   2.381   1.366 -1.5584  1.6478 -2.3303
  122DG     H16 2799   3.284   2.359   1.246  2.1559  0.2462 -0.2033
  122DG     C17 2800   3.125   2.687   1.111  0.1785 -0.3755 -0.0753
  122DG     C18 2801   3.227   2.564   1.288  0.6490  0.1601  0.1419
  122DG     O19 2802   3.127   2.560   1.184 -0.0609  0.2237  0.0962
  122DG     H20 2803   3.216   2.705   1.054  1.4929 -0.9168  1.7738
  122DG     H21 2804   3.042   2.678   1.041  0.4475 -2.3485 -0.1785
  122DG     H22 2805   3.212   2.631   1.373  1.2428  0.7228 -0.1956
  122DG     H23 2806   3.321   2.599   1.246  0.7815  0.4205  0.6523
  123DG      C1 2807   3.184   2.681   5.213 -0.3619  0.5462  0.4358
  123DG      C2 2808   3.291   3.062   4.843  0.5386  0.1594 -0.1807
  123DG      H3 2809   3.076   2.692   5.220 -0.5241 -0.7340  0.2403
  123DG      H4 2810   3.220   2.637   5.307  2.0285  2.3734  0.4598
  123DG      H5 2811   3.208   2.608   5.136  3.8980  1.7267  0.3634
  123DG      H6 2812   3.186   3.091   4.834  1.2867  3.1646 -0.4264
  123DG      H7 2813   3.330   3.024   4.749  1.2958  0.1684  0.1209
  123DG      H8 2814   3.311   2.978   4.910  2.3514  2.1423  1.9644
  123DG      O9 2815   3.267   2.795   5.197  0.0508  0.2915 -0.3112
  123DG     O10 2816   3.373   3.165   4.878  0.0557  0.3746  0.2957
  123DG     C11 2817   3.289   2.883   5.311 -0.6806 -0.1316 -0.6067
  123DG     C12 2818   3.324   3.236   4.986 -0.1015  0.1452  0.5192
  123DG     H13 2819   3.338   2.824   5.388  1.4626  1.8166 -0.3728
  123DG     H14 2820   3.193   2.911   5.355 -0.3126 -0.7848  0.6385
  123DG     H15 2821   3.216   3.253   4.986  0.2050  2.4168 -0.7272
  123DG     H16 2822   3.351   3.340   4.973  1.8502 -0.5427 -1.6414
  123DG     C17 2823   3.370   3.004   5.274 -0.1033  0.2664 -0.2621
  123DG     C18 2824   3.378   3.184   5.123  1.0731 -0.5643 -0.2311
  123DG     O19 2825   3.319   3.064   5.154  0.3752  0.0936 -0.3728
  123DG     H20 2826   3.476   2.983   5.255 -0.4656  0.6027 -3.1195
  123DG     H21 2827   3.362   3.075   5.355  1.3700  0.9055 -0.6400
  123DG     H22 2828   3.487   3.175   5.120  1.0861 -0.7973  0.6510
  123DG     H23 2829   3.355   3.270   5.185  0.8182 -1.8004  1.4635
  124DG      C1 2830   0.064   2.089   2.312 -0.5145 -0.0485  0.3808
  124DG      C2 2831   0.442   1.541   2.437 -0.6391 -0.7094  0.1817
  124DG      H3 2832   0.034   2.146   2.224 -1.7202 -1.1721  0.0243
  124DG      H4 2833   0.157   2.117   2.362 -0.2819 -0.8375  0.4024
  124DG      H5 2834  -0.015   2.105   2.385  0.4342  0.9068  1.2348
  124DG      H6 2835   0.371   1.619   2.410 -1.6153 -1.2095  1.2023
  124DG      H7 2836   0.495   1.570   2.528 -2.5077 -0.8181  1.3668
  124DG      H8 2837   0.523   1.541   2.365 -2.3712 -1.1879 -1.8800
  124DG      O9 2838   0.064   1.953   2.270 -0.2035 -0.5391  0.1657
  124DG     O10 2839   0.379   1.414   2.454 -0.0577  0.2642  0.3417
  124DG     C11 2840   0.078   1.864   2.380 -0.2565  0.0627 -0.1932
  124DG     C12 2841   0.238   1.428   2.489  0.5484 -0.1143  0.5027
  124DG     H13 2842   0.009   1.887   2.461  1.0796  0.3308  0.9171
  124DG     H14 2843   0.176   1.892   2.419 -0.4433  0.9562 -0.3299
  124DG     H15 2844   0.216   1.462   2.590 -0.8869  0.6164 -0.0355
  124DG     H16 2845   0.201   1.326   2.483 -1.4042  0.5990 -0.7747
  124DG     C17 2846   0.066   1.723   2.320  0.0780 -0.0226  0.3638
  124DG     C18 2847   0.153   1.502   2.377  0.1383 -0.0434  0.1520
  124DG     O19 2848   0.130   1.642   2.411 -0.0621  0.4264  0.0513
  124DG     H20 2849   0.129   1.711   2.231  0.1725  2.1761  0.0641
  124DG     H21 2850  -0.034   1.681   2.308 -1.2212  2.8989 -0.0498
  124DG     H22 2851   0.208   1.504   2.283 -1.3570  1.0363 -0.7351
  124DG     H23 2852   0.056   1.462   2.350  0.2983 -0.4916  0.2434
  125DG      C1 2853   0.359   1.368   3.233  0.2355 -0.3934 -0.5603
  125DG      C2 2854   0.674   0.958   3.721 -0.2207  0.0027  0.7332
  125DG      H3 2855   0.287   1.374   3.152 -0.5758  0.9231  0.2166
  125DG      H4 2856   0.460   1.398   3.205  0.6852 -1.1131  0.2268
  125DG      H5 2857   0.319   1.440   3.304  0.6213  1.4597 -2.1621
  125DG      H6 2858   0.703   0.859   3.757  3.6236  0.9808  0.7069
  125DG      H7 2859   0.762   1.005   3.677 -1.3549  0.6508 -0.9439
  125DG      H8 2860   0.642   1.028   3.798 -0.4559 -1.0854  1.6541
  125DG      O9 2861   0.361   1.237   3.291 -0.7357 -0.4350 -0.3375
  125DG     O10 2862   0.571   0.955   3.624  0.5016 -0.4563  0.2080
  125DG     C11 2863   0.242   1.195   3.355  0.2332 -0.1528  0.3548
  125DG     C12 2864   0.458   0.886   3.666 -0.6811 -0.3092 -0.2057
  125DG     H13 2865   0.157   1.190   3.287  1.4812 -2.9379 -1.2023
  125DG     H14 2866   0.218   1.268   3.433 -0.3790 -0.9708  0.9543
  125DG     H15 2867   0.423   0.943   3.752  2.3075  0.2254  0.7807
  125DG     H16 2868   0.474   0.781   3.689  1.9146 -0.2938 -1.4509
  125DG     C17 2869   0.264   1.058   3.403 -0.0935  0.1254  0.3874
  125DG     C18 2870   0.349   0.913   3.563 -0.1858 -0.9343  0.0068
  125DG     O19 2871   0.364   1.040   3.503  0.1087 -0.2872  0.0432
  125DG     H20 2872   0.284   0.985   3.325  0.4032  0.9027 -0.2272
  125DG     H21 2873   0.165   1.030   3.440 -0.5256  1.4953  0.3340
  125DG     H22 2874   0.358   0.843   3.481 -0.3154 -2.6499  1.4079
  125DG     H23 2875   0.252   0.892   3.608 -0.3881 -2.3012 -1.0105
  126DG      C1 2876   2.849   2.867   3.917 -0.5416  0.3546 -0.0316
  126DG      C2 2877   2.280   3.023   3.576  0.4132 -0.5314 -0.6049
  126DG      H3 2878   2.925   2.904   3.987  1.7411 -2.1515 -0.9940
  126DG      H4 2879   2.899   2.817   3.835 -1.7461 -0.4030 -0.3124
  126DG      H5 2880   2.789   2.805   3.983 -1.8088  0.5190 -1.0051
  126DG      H6 2881   2.271   2.950   3.495 -2.0307 -0.7537 -0.1954
  126DG      H7 2882   2.252   2.992   3.677  0.9068 -0.8721 -0.5653
  126DG      H8 2883   2.206   3.099   3.551  1.4807  0.9022  0.4222
  126DG      O9 2884   2.772   2.971   3.868 -0.0307 -0.0667  0.7510
  126DG     O10 2885   2.407   3.088   3.578  0.4186 -0.0942  0.2069
  126DG     C11 2886   2.851   3.070   3.800  0.0511 -0.6090 -0.1655
  126DG     C12 2887   2.412   3.203   3.669  0.0429 -0.1852  0.3066
  126DG     H13 2888   2.897   3.026   3.712  0.4978  0.2314 -0.3550
  126DG     H14 2889   2.945   3.094   3.851  1.1141  1.0520 -2.7440
  126DG     H15 2890   2.377   3.168   3.766 -1.6621  0.2804 -0.1042
  126DG     H16 2891   2.339   3.275   3.632  3.5871  3.6973  0.2038
  126DG     C17 2892   2.770   3.193   3.764  0.0450  0.2897  0.5978
  126DG     C18 2893   2.555   3.255   3.674  0.2573  0.0775  0.6523
  126DG     O19 2894   2.633   3.156   3.739 -0.2110  0.0481 -0.6505
  126DG     H20 2895   2.815   3.247   3.682  2.1746 -2.2149 -0.0335
  126DG     H21 2896   2.774   3.265   3.846 -2.7843 -0.0411  1.1223
  126DG     H22 2897   2.589   3.281   3.573  0.5811  0.5072  0.8679
  126DG     H23 2898   2.558   3.346   3.734  0.5314  1.0338 -0.7717
  127DG      C1 2899   1.118   3.311   1.943 -0.6763 -0.8467 -0.2149
  127DG      C2 2900   1.049   2.645   1.913 -0.0073  0.1712 -0.0140
  127DG      H3 2901   1.222   3.314   1.911  0.0814 -3.0494  1.7765
  127DG      H4 2902   1.117   3.310   2.052  1.3959 -1.7248 -0.1692
  127DG      H5 2903   1.071   3.404   1.911  0.0600  0.3549  1.9882
  127DG      H6 2904   1.150   2.647   1.954  0.4539 -2.0740 -0.9044
  127DG      H7 2905   0.971   2.629   1.987  1.1564  3.7534  2.2636
  127DG      H8 2906   1.046   2.574   1.831  0.1444 -1.2921  1.2026
  127DG      O9 2907   1.055   3.187   1.899  0.2350 -0.2774  0.1403
  127DG     O10 2908   1.014   2.765   1.852 -0.0592  0.0035 -0.3398
  127DG     C11 2909   0.921   3.174   1.944 -0.9837 -0.3534  0.0277
  127DG     C12 2910   0.890   2.750   1.777  0.1899  0.2822 -0.0959
  127DG     H13 2911   0.867   3.257   1.899  1.1171  1.3072  0.3958
  127DG     H14 2912   0.911   3.182   2.052  2.8394 -1.3868  0.6089
  127DG     H15 2913   0.815   2.719   1.850  1.3258  2.0106  1.9052
  127DG     H16 2914   0.895   2.671   1.702 -2.7492 -1.5565  1.4488
  127DG     C17 2915   0.853   3.049   1.891 -0.0922 -0.5582  0.3073
  127DG     C18 2916   0.858   2.884   1.711  0.2703  0.1569 -0.4114
  127DG     O19 2917   0.911   3.006   1.765 -0.4380 -0.4921  1.0451
  127DG     H20 2918   0.744   3.057   1.887  0.0571  1.9359 -0.2266
  127DG     H21 2919   0.864   2.962   1.956 -0.6586 -0.8473  0.0349
  127DG     H22 2920   0.899   2.866   1.612 -1.6444 -1.1918 -1.0052
  127DG     H23 2921   0.749   2.890   1.706  0.2013 -0.2172  0.4183
  128DG      C1 2922   1.833   1.640   2.588 -0.5872  0.3977  0.6700
  128DG      C2 2923   1.697   2.277   2.725 -0.1033  0.4891  0.2993
  128DG      H3 2924   1.726   1.659   2.600 -0.4159  1.1687  1.0857
  128DG      H4 2925   1.881   1.606   2.680  0.4138  2.1321  0.8230
  128DG      H5 2926   1.852   1.559   2.517 -0.3067  0.6333  0.4734
  128DG      H6 2927   1.702   2.238   2.827 -0.8489 -2.0879 -0.5803
  128DG      H7 2928   1.712   2.385   2.728 -0.2705  0.5022  0.6905
  128DG      H8 2929   1.603   2.253   2.676  1.2047 -0.8715 -1.7010
  128DG      O9 2930   1.897   1.758   2.543  0.1350 -0.4739 -0.3943
  128DG     O10 2931   1.800   2.207   2.651 -0.3374 -0.3061 -0.1460
  128DG     C11 2932   1.877   1.784   2.405  0.1207  0.1459 -0.3778
  128DG     C12 2933   1.795   2.253   2.519 -0.6474  0.0172 -0.7307
  128DG     H13 2934   1.774   1.765   2.374  0.4316 -3.4048  0.3413
  128DG     H14 2935   1.939   1.716   2.347  0.6823  0.0260  0.3476
  128DG     H15 2936   1.831   2.356   2.524 -0.2997 -0.1350  0.0203
  128DG     H16 2937   1.697   2.257   2.471 -0.4204  0.8221 -1.1371
  128DG     C17 2938   1.936   1.930   2.389  0.1613 -0.1832 -0.4839
  128DG     C18 2939   1.891   2.162   2.433  0.9801  0.0827 -0.0876
  128DG     O19 2940   1.862   2.024   2.464  0.3560 -0.2080 -0.4085
  128DG     H20 2941   1.944   1.957   2.284  1.7267  0.1694 -0.2960
  128DG     H21 2942   2.042   1.931   2.417  0.0487  2.2632 -0.0020
  128DG     H22 2943   1.863   2.190   2.331 -0.8728  0.9536  0.6206
  128DG     H23 2944   1.996   2.187   2.451  0.5271  2.3062 -0.3188
  129DG      C1 2945   0.368   4.714   2.789 -0.3807  1.0343 -0.2004
  129DG      C2 2946   0.286   4.878   3.446  0.0104 -0.3441 -0.0816
  129DG      H3 2947   0.405   4.817   2.782  1.9184  0.3070  0.3344
  129DG      H4 2948   0.265   4.703   2.756 -0.2979 -2.4086  0.3357
  129DG      H5 2949   0.429   4.680   2.705  0.5328  0.5671  0.6335
  129DG      H6 2950   0.355   4.959   3.425 -1.7396  0.8639 -1.4672
  129DG      H7 2951   0.186   4.921   3.444 -0.9502 -2.4440 -1.3927
  129DG      H8 2952   0.291   4.833   3.545  0.8456 -2.4207 -0.9952
  129DG      O9 2953   0.400   4.659   2.918 -0.2978 -0.1263 -0.5339
  129DG     O10 2954   0.308   4.787   3.342 -0.1206  0.1376 -0.3719
  129DG     C11 2955   0.362   4.521   2.932 -0.4095  0.3736 -0.0919
  129DG     C12 2956   0.252   4.657   3.382  0.8812 -0.5607  0.5149
  129DG     H13 2957   0.406   4.459   2.854 -0.6758  1.3267 -1.0334
  129DG     H14 2958   0.255   4.528   2.913 -0.1595  2.5152 -0.9504
  129DG     H15 2959   0.144   4.668   3.390  0.8195  1.1273 -1.6396
  129DG     H16 2960   0.297   4.625   3.476  0.7341  1.1770  1.2006
  129DG     C17 2961   0.386   4.476   3.082 -0.0699 -0.3183  0.4278
  129DG     C18 2962   0.277   4.544   3.278 -0.5031 -0.1438 -0.9073
  129DG     O19 2963   0.353   4.583   3.161 -0.2176 -1.1222 -0.6091
  129DG     H20 2964   0.487   4.444   3.111  0.7704  0.5183 -1.4390
  129DG     H21 2965   0.311   4.398   3.088  0.3807 -0.8700 -0.8000
  129DG     H22 2966   0.349   4.486   3.335 -0.2238  4.6475  4.6617
  129DG     H23 2967   0.188   4.486   3.252 -0.9561  0.5813 -1.0186
  130DG      C1 2968   2.632   2.752   3.530 -0.0092 -0.3149  0.5599
  130DG      C2 2969   2.461   3.164   4.065  0.6148  0.6320  0.6422
  130DG      H3 2970   2.722   2.813   3.533 -0.9227  1.1045  0.3888
  130DG      H4 2971   2.563   2.789   3.454 -3.3520 -1.0167  3.0068
  130DG      H5 2972   2.671   2.652   3.512  0.3621  0.0575 -0.7950
  130DG      H6 2973   2.375   3.209   4.015  0.6302 -0.6958 -0.6709
  130DG      H7 2974   2.438   3.166   4.171  1.0614  2.1662  0.7384
  130DG      H8 2975   2.545   3.232   4.047  1.4679 -0.5565 -0.0000
  130DG      O9 2976   2.578   2.751   3.658  0.1356 -0.8167  0.1869
  130DG     O10 2977   2.477   3.031   4.017 -0.0382 -0.0206  0.6935
  130DG     C11 2978   2.490   2.644   3.688  0.0929 -0.3887 -0.0549
  130DG     C12 2979   2.370   2.944   4.054  0.3654  0.8212 -0.2942
  130DG     H13 2980   2.529   2.549   3.652 -1.5026 -1.1611  0.1926
  130DG     H14 2981   2.398   2.667   3.634 -1.6178 -1.4709  2.2164
  130DG     H15 2982   2.278   2.984   4.014 -1.1721 -2.8542 -0.8724
  130DG     H16 2983   2.354   2.946   4.162 -1.3240  0.6213 -0.5107
  130DG     C17 2984   2.452   2.648   3.833  0.3422 -0.2101  0.0522
  130DG     C18 2985   2.384   2.799   4.009 -0.5604  0.7292  0.4759
  130DG     O19 2986   2.425   2.784   3.874  0.3854  0.0732  0.1644
  130DG     H20 2987   2.537   2.601   3.884 -0.4237 -0.8776  0.7350
  130DG     H21 2988   2.360   2.594   3.853  0.2216 -0.6380 -1.5280
  130DG     H22 2989   2.464   2.754   4.069  0.6698 -0.2012 -1.7247
  130DG     H23 2990   2.291   2.742   4.018 -0.0383 -0.0880  0.8333
  131DG      C1 2991   3.093   1.557   3.660 -0.0495 -0.0036  0.5300
  131DG      C2 2992   2.612   1.954   3.418  0.2478 -0.2591  0.0691
  131DG      H3 2993   3.038   1.480   3.714 -1.5656  0.6405 -0.0270
  131DG      H4 2994   3.097   1.649   3.718 -1.3736 -0.6187  1.6499
  131DG      H5 2995   3.200   1.535   3.657  2.1276  7.3252  2.0477
  131DG      H6 2996   2.564   2.000   3.331  1.1967  1.3429  0.3483
  131DG      H7 2997   2.529   1.928   3.484 -0.1192  3.5296  1.3416
  131DG      H8 2998   2.663   2.035   3.472 -3.1983  1.4900  0.9990
  131DG      O9 2999   3.040   1.596   3.537 -0.3135  0.2708  0.2335
  131DG     O10 3000   2.688   1.831   3.403  0.3318  0.3837 -0.0478
  131DG     C11 3001   3.024   1.485   3.455  0.0174 -0.4296 -0.6783
  131DG     C12 3002   2.628   1.723   3.332 -0.3073 -0.7373 -0.3885
  131DG     H13 3003   2.986   1.403   3.515  2.0771 -0.6487  0.4258
  131DG     H14 3004   3.122   1.446   3.425 -0.2159 -1.9704  0.4330
  131DG     H15 3005   2.567   1.765   3.251 -2.1059  1.3917  1.9054
  131DG     H16 3006   2.561   1.667   3.398  2.0458 -2.4770  0.6489
  131DG     C17 3007   2.932   1.517   3.334 -0.8916  0.7267 -0.3994
  131DG     C18 3008   2.734   1.637   3.266 -0.1306  0.1770 -0.4745
  131DG     O19 3009   2.816   1.579   3.372 -0.4149  0.1582  0.2450
  131DG     H20 3010   2.919   1.432   3.267 -0.2378  0.9507 -0.8108
  131DG     H21 3011   2.995   1.584   3.276 -0.5572  0.5842 -0.2067
  131DG     H22 3012   2.688   1.554   3.212  1.2390 -0.6128 -0.4777
  131DG     H23 3013   2.800   1.702   3.209  0.9285 -0.0531  0.4591
  132DG      C1 3014   4.044   0.700   3.231 -0.5358  0.3213 -0.4538
  132DG      C2 3015   3.625   0.421   3.674  0.0325 -0.3925  0.3248
  132DG      H3 3016   4.128   0.767   3.214 -0.4782  0.6851  1.1290
  132DG      H4 3017   3.965   0.713   3.158 -1.0805 -1.7563 -0.2889
  132DG      H5 3018   4.082   0.600   3.209  1.2414  0.5902  1.0743
  132DG      H6 3019   3.600   0.390   3.573 -0.3612 -1.8786  0.8483
  132DG      H7 3020   3.640   0.330   3.733  0.0043 -0.5508  0.0903
  132DG      H8 3021   3.545   0.477   3.721  0.5282  1.5782 -1.0318
  132DG      O9 3022   4.000   0.693   3.363 -0.5775 -0.6996 -0.2688
  132DG     O10 3023   3.742   0.506   3.657  0.3290  0.1701  0.1267
  132DG     C11 3024   4.108   0.673   3.447 -0.3325 -0.1683 -0.6072
  132DG     C12 3025   3.801   0.525   3.784 -0.3110  0.3399 -0.5718
  132DG     H13 3026   4.189   0.745   3.440  0.9437 -1.5568 -0.4194
  132DG     H14 3027   4.149   0.574   3.429 -1.2653 -0.7040  0.1230
  132DG     H15 3028   3.828   0.426   3.820  1.0547  0.0750 -2.1778
  132DG     H16 3029   3.727   0.575   3.847 -2.3139 -1.1293 -1.6466
  132DG     C17 3030   4.061   0.697   3.594  0.0274 -0.4323 -0.2238
  132DG     C18 3031   3.922   0.616   3.766 -0.0403 -0.0130  0.3176
  132DG     O19 3032   3.975   0.594   3.639 -0.2904  0.2238 -0.0390
  132DG     H20 3033   4.002   0.789   3.598  0.2669 -0.0802 -3.0697
  132DG     H21 3034   4.145   0.713   3.662 -2.4603  1.9897  2.5925
  132DG     H22 3035   3.892   0.720   3.780 -1.4099 -0.4568  0.8848
  132DG     H23 3036   3.993   0.603   3.847 -0.4425  0.5155  0.7621
  133DG      C1 3037   0.231   4.329   0.591  0.1652  0.9538  0.2318
  133DG      C2 3038   0.690   4.826   0.627 -0.2944  0.6638  0.3164
  133DG      H3 3039   0.188   4.245   0.535  0.8771  0.5908  0.2147
  133DG      H4 3040   0.140   4.368   0.637 -1.3494  0.7034 -2.3095
  133DG      H5 3041   0.309   4.299   0.660  0.2864 -2.2977 -1.1298
  133DG      H6 3042   0.703   4.790   0.729 -0.2854 -2.7353 -0.7773
  133DG      H7 3043   0.789   4.834   0.583 -0.6541  2.3025 -0.2627
  133DG      H8 3044   0.661   4.931   0.634 -0.8675  0.4196  2.0657
  133DG      O9 3045   0.296   4.416   0.506  0.1205 -0.2534  0.5176
  133DG     O10 3046   0.590   4.745   0.552 -1.2951  0.5407  0.2375
  133DG     C11 3047   0.214   4.478   0.413  0.2214  0.2141 -0.4557
  133DG     C12 3048   0.567   4.813   0.418 -0.2595  0.2469 -0.5591
  133DG     H13 3049   0.137   4.538   0.461 -2.8259 -1.6900 -2.6226
  133DG     H14 3050   0.163   4.399   0.358 -0.5313  0.0806  0.4081
  133DG     H15 3051   0.659   4.839   0.366 -0.8745  1.5556 -1.0427
  133DG     H16 3052   0.515   4.907   0.440 -0.4013  0.4973 -1.8656
  133DG     C17 3053   0.305   4.563   0.326  0.4595 -1.1725  0.2389
  133DG     C18 3054   0.475   4.728   0.324  0.2886  0.5903  0.1016
  133DG     O19 3055   0.381   4.658   0.408 -0.4039  0.5345 -0.0566
  133DG     H20 3056   0.232   4.615   0.263  1.4976  0.6446  0.4482
  133DG     H21 3057   0.366   4.497   0.265 -0.7038 -1.4266 -0.6939
  133DG     H22 3058   0.428   4.789   0.247  0.4841  0.1685 -0.3646
  133DG     H23 3059   0.530   4.653   0.266  0.4209  0.1660  0.7606
  134DG      C1 3060   4.071   4.334   4.652 -0.1719  0.8590  0.4488
  134DG      C2 3061   3.680   4.900   4.955  0.3253 -0.4430 -0.6597
  134DG      H3 3062   4.176   4.346   4.680  0.0461  0.3431 -0.1156
  134DG      H4 3063   4.066   4.287   4.554 -1.4982  1.5656  0.1528
  134DG      H5 3064   4.026   4.262   4.721  1.0932  0.0205  0.4351
  134DG      H6 3065   3.583   4.852   4.961  0.8111 -1.2707  3.0935
  134DG      H7 3066   3.726   4.896   5.054  1.3767  1.1722 -1.0381
  134DG      H8 3067   3.662   5.005   4.932 -2.6507 -0.9164 -0.8651
  134DG      O9 3068   3.999   4.454   4.643  0.3764 -0.3057  0.6090
  134DG     O10 3069   3.761   4.832   4.859  0.1081  0.2529 -0.2202
  134DG     C11 3070   4.065   4.559   4.572 -0.2871 -0.2015 -0.7521
  134DG     C12 3071   3.882   4.901   4.829 -0.6989 -0.1246  0.0569
  134DG     H13 3072   4.093   4.521   4.474  1.3530  1.2548 -0.8911
  134DG     H14 3073   4.155   4.596   4.622 -0.1606  0.6386 -1.5751
  134DG     H15 3074   3.952   4.869   4.907  0.0849 -1.2550 -1.0614
  134DG     H16 3075   3.871   5.009   4.831 -2.9790 -0.2798 -0.9116
  134DG     C17 3076   3.966   4.675   4.564 -0.0048 -0.7300  0.4443
  134DG     C18 3077   3.933   4.871   4.686 -0.0219 -0.3420 -0.0873
  134DG     O19 3078   3.950   4.733   4.693  0.5874  0.0982  0.0235
  134DG     H20 3079   3.873   4.641   4.520  1.3636 -1.2172 -2.2498
  134DG     H21 3080   4.017   4.750   4.503 -0.0011  1.6243  3.0974
  134DG     H22 3081   3.861   4.910   4.614  0.1544  1.5176  0.6609
  134DG     H23 3082   4.033   4.911   4.663  1.2919 -2.8533  0.9142
  135DG      C1 3083   2.934   3.372   1.912 -0.6643 -0.1215  0.4375
  135DG      C2 3084   2.276   3.443   2.144 -0.9500  0.4535 -0.2308
  135DG      H3 3085   2.913   3.437   1.827  2.8254 -0.8368 -1.1304
  135DG      H4 3086   2.913   3.268   1.885 -0.0500 -1.5031  4.6338
  135DG      H5 3087   3.040   3.362   1.932 -0.6929  0.9075  1.1211
  135DG      H6 3088   2.262   3.544   2.105  0.7834  0.4078 -1.0637
  135DG      H7 3089   2.260   3.377   2.059 -1.2828  0.7965 -0.4378
  135DG      H8 3090   2.206   3.405   2.219  1.9629 -1.6960  1.6323
  135DG      O9 3091   2.863   3.395   2.029  0.2155  0.1393  0.1235
  135DG     O10 3092   2.409   3.417   2.201  0.0736 -0.0820  0.4088
  135DG     C11 3093   2.906   3.509   2.115  0.1811 -0.3877  0.8303
  135DG     C12 3094   2.444   3.514   2.296  0.1468  0.5220  0.1695
  135DG     H13 3095   2.888   3.588   2.042 -2.1761 -1.4681  0.1342
  135DG     H14 3096   3.010   3.491   2.142  0.6019 -1.1114 -1.0872
  135DG     H15 3097   2.382   3.503   2.386  0.3645  0.9951  0.3841
  135DG     H16 3098   2.410   3.614   2.270  0.3642  1.0581  1.7814
  135DG     C17 3099   2.812   3.520   2.233 -0.0228 -0.0340 -0.0718
  135DG     C18 3100   2.599   3.516   2.323  0.6359  0.2034  0.3165
  135DG     O19 3101   2.675   3.498   2.205 -0.3487 -0.5757  0.4297
  135DG     H20 3102   2.830   3.621   2.271 -0.0475 -0.5616  1.4121
  135DG     H21 3103   2.839   3.441   2.304 -0.3292  0.7765  0.9806
  135DG     H22 3104   2.616   3.610   2.376 -2.8072 -0.0865  2.2135
  135DG     H23 3105   2.620   3.438   2.395  1.1752  0.5421  0.5318
  136DG      C1 3106   4.608   2.380   2.974 -0.1707 -0.5896  0.3154
  136DG      C2 3107   5.220   2.673   2.662 -0.8017 -0.1172  0.3331
  136DG      H3 3108   4.560   2.469   2.933 -0.4531 -1.0757 -0.4290
  136DG      H4 3109   4.552   2.323   3.049 -0.2261 -1.7597 -0.5728
  136DG      H5 3110   4.600   2.305   2.895 -1.4192  0.5978 -0.7295
  136DG      H6 3111   5.193   2.772   2.698  0.4010  0.3580 -0.0255
  136DG      H7 3112   5.324   2.642   2.673 -1.2946 -2.3416 -0.7307
  136DG      H8 3113   5.192   2.654   2.559 -0.9448 -0.3728  0.4189
  136DG      O9 3114   4.747   2.400   3.000  0.4324 -0.1172  0.2536
  136DG     O10 3115   5.143   2.579   2.742  0.1948 -0.5648 -0.1936
  136DG     C11 3116   4.826   2.288   2.983  0.0946 -0.0182 -0.0355
  136DG     C12 3117   5.189   2.583   2.878  0.6687  0.0415 -0.3604
  136DG     H13 3118   4.822   2.261   2.878  0.2155  1.2678 -0.3944
  136DG     H14 3119   4.798   2.204   3.047 -0.5048  0.8005  0.8094
  136DG     H15 3120   5.155   2.676   2.923 -1.1335  0.4918 -2.4452
  136DG     H16 3121   5.297   2.579   2.890  0.5611  2.0837  2.1915
  136DG     C17 3122   4.964   2.327   3.017  0.2620 -0.3573  0.6099
  136DG     C18 3123   5.144   2.455   2.954  0.0410  0.2959  0.1363
  136DG     O19 3124   5.005   2.448   2.949 -0.0430  0.5112 -0.0554
  136DG     H20 3125   5.033   2.248   2.987  0.0717 -0.4263  0.3424
  136DG     H21 3126   4.970   2.346   3.124 -2.3982  0.1568  0.7427
  136DG     H22 3127   5.199   2.376   2.903  0.2365  1.0551 -0.8695
  136DG     H23 3128   5.192   2.455   3.052  1.1892 -0.5432 -0.3966
  137DG      C1 3129   2.279   0.372   5.211  0.5112  0.5103  0.3541
  137DG      C2 3130   2.832   0.710   4.806 -0.2929 -0.4145 -0.5391
  137DG      H3 3131   2.210   0.318   5.145  1.1634 -0.6606  0.6034
  137DG      H4 3132   2.269   0.480   5.200  0.6986  0.3619 -1.7747
  137DG      H5 3133   2.260   0.346   5.315 -0.2211 -2.8613 -0.4658
  137DG      H6 3134   2.734   0.741   4.769  0.0694  0.9433 -0.4050
  137DG      H7 3135   2.891   0.798   4.830 -0.0724  0.2757 -3.3067
  137DG      H8 3136   2.891   0.661   4.728 -0.0992  0.1727 -0.7611
  137DG      O9 3137   2.405   0.325   5.180  0.7425  0.5359  1.0602
  137DG     O10 3138   2.821   0.645   4.931 -0.2823 -0.1082  0.5082
  137DG     C11 3139   2.504   0.387   5.253 -0.5750 -0.3472 -0.0261
  137DG     C12 3140   2.774   0.514   4.918 -0.8255 -0.6278  0.1884
  137DG     H13 3141   2.492   0.381   5.361  1.0641  0.1273  0.2009
  137DG     H14 3142   2.506   0.493   5.228  1.4946 -0.2085  0.6069
  137DG     H15 3143   2.855   0.454   4.876 -0.9136  0.1327 -1.1080
  137DG     H16 3144   2.690   0.509   4.849  0.1833  1.6196 -1.3122
  137DG     C17 3145   2.634   0.322   5.205  0.2370 -0.3029  0.0047
  137DG     C18 3146   2.723   0.484   5.056  0.5577  0.1728 -0.8015
  137DG     O19 3147   2.674   0.350   5.072 -0.6716 -0.4354  0.2105
  137DG     H20 3148   2.626   0.214   5.208 -0.9848 -0.2339  2.8961
  137DG     H21 3149   2.724   0.335   5.266  0.7520 -1.0898 -0.5841
  137DG     H22 3150   2.789   0.521   5.135 -1.6149 -0.5095  1.4586
  137DG     H23 3151   2.635   0.548   5.063  0.3539 -0.2453  0.6423
  138DG      C1 3152   4.985   4.382   5.265 -0.1772  0.1410 -0.2135
  138DG      C2 3153   4.589   4.027   5.564  0.7198  0.0940  0.1638
  138DG      H3 3154   5.049   4.413   5.182 -0.4436 -1.3970 -1.0208
  138DG      H4 3155   5.053   4.321   5.324  1.3177  1.7918 -0.1168
  138DG      H5 3156   4.953   4.468   5.324 -1.3066  0.4171 -1.2006
  138DG      H6 3157   4.659   3.943   5.570  1.4658  0.6287 -0.8466
  138DG      H7 3158   4.613   4.101   5.641 -2.5974  0.4641  1.0075
  138DG      H8 3159   4.488   3.989   5.580  0.4811  1.0065  0.9592
  138DG      O9 3160   4.880   4.301   5.218 -0.2924 -0.1426  0.1190
  138DG     O10 3161   4.583   4.071   5.433  0.4840  0.1242  0.3813
  138DG     C11 3162   4.785   4.373   5.133  0.4390  0.4522 -0.0996
  138DG     C12 3163   4.474   4.155   5.405 -0.0022  1.0535  0.4816
  138DG     H13 3164   4.816   4.385   5.029 -0.3636 -0.5178 -0.4652
  138DG     H14 3165   4.769   4.472   5.175  2.5726  2.2011 -3.0669
  138DG     H15 3166   4.441   4.224   5.482 -2.5992  0.8994 -0.3843
  138DG     H16 3167   4.395   4.080   5.403  1.1231 -0.1781  0.4967
  138DG     C17 3168   4.647   4.302   5.127  0.4528  0.5411  0.9042
  138DG     C18 3169   4.476   4.223   5.275  1.3128  0.1231 -0.4111
  138DG     O19 3170   4.605   4.273   5.260 -0.8929 -0.3874  0.3521
  138DG     H20 3171   4.668   4.208   5.076 -2.2286  0.9946 -1.3006
  138DG     H21 3172   4.582   4.359   5.060 -0.6173 -1.1234  0.4793
  138DG     H22 3173   4.463   4.159   5.189  1.4608 -0.3950 -0.0516
  138DG     H23 3174   4.389   4.289   5.279  0.3647 -1.1480  1.1178
  139DG      C1 3175   1.460   0.627   2.106  0.1257  0.2045 -0.2596
  139DG      C2 3176   1.235   0.717   2.707  0.3390  0.4361  0.1297
  139DG      H3 3177   1.387   0.630   2.187 -1.7036 -1.7085 -1.7205
  139DG      H4 3178   1.420   0.548   2.042 -0.0442 -1.2575  1.5544
  139DG      H5 3179   1.450   0.714   2.042 -2.3914 -1.0089 -1.6681
  139DG      H6 3180   1.268   0.799   2.770  0.5740  0.0799  0.4669
  139DG      H7 3181   1.240   0.768   2.611 -3.1361 -0.7421 -0.8374
  139DG      H8 3182   1.136   0.681   2.736 -0.2107  0.7082 -1.3041
  139DG      O9 3183   1.595   0.611   2.138 -0.1752 -0.2549  0.2321
  139DG     O10 3184   1.339   0.611   2.714 -0.6103 -0.0906 -0.3348
  139DG     C11 3185   1.618   0.484   2.198 -0.0648 -0.2076  0.1441
  139DG     C12 3186   1.334   0.538   2.594 -0.4248  1.2646  0.6267
  139DG     H13 3187   1.718   0.449   2.174  0.0092  0.1391 -0.0519
  139DG     H14 3188   1.545   0.409   2.169 -0.3806  0.0370  0.2881
  139DG     H15 3189   1.266   0.566   2.513  0.2998 -2.0306 -1.3317
  139DG     H16 3190   1.315   0.432   2.614  2.7706  0.5809  0.6158
  139DG     C17 3191   1.628   0.500   2.355 -0.2145  0.3837  0.1835
  139DG     C18 3192   1.485   0.537   2.539 -0.0801 -0.0741 -0.7849
  139DG     O19 3193   1.495   0.507   2.405 -0.2773  0.0680 -0.1998
  139DG     H20 3194   1.702   0.574   2.385  0.4380  0.3050 -1.1945
  139DG     H21 3195   1.667   0.404   2.390 -0.2051  0.1611 -0.4229
  139DG     H22 3196   1.529   0.635   2.560 -0.0008 -0.3531  0.4570
  139DG     H23 3197   1.538   0.461   2.597  1.0741 -0.5224 -2.3720
  140DG      C1 3198   3.208   4.273   5.391 -0.2466 -0.6125 -0.7795
  140DG      C2 3199   3.283   4.121   6.042  0.8535 -0.4739 -0.2242
  140DG      H3 3200   3.217   4.375   5.428 -1.4201 -0.6418 -0.3941
  140DG      H4 3201   3.110   4.227   5.382 -0.6197  0.3420 -1.7509
  140DG      H5 3202   3.264   4.272   5.297  1.4685 -0.3628  0.1903
  140DG      H6 3203   3.302   4.073   6.138  0.6784 -1.7995 -0.8334
  140DG      H7 3204   3.367   4.186   6.016 -0.2675 -0.0914 -3.2536
  140DG      H8 3205   3.191   4.179   6.044 -0.7901 -2.9543  0.1866
  140DG      O9 3206   3.271   4.189   5.491 -0.3080  0.2558 -0.2881
  140DG     O10 3207   3.263   4.046   5.924  0.4371 -0.3013  0.2539
  140DG     C11 3208   3.287   4.056   5.442 -0.5841  0.4809  0.2215
  140DG     C12 3209   3.342   3.930   5.916  0.6038  0.0303 -0.4952
  140DG     H13 3210   3.350   4.071   5.354  0.9906  0.6351  1.3463
  140DG     H14 3211   3.198   3.995   5.423  0.0998 -0.0916 -1.3102
  140DG     H15 3212   3.277   3.844   5.936  1.1467 -0.4495 -0.7723
  140DG     H16 3213   3.425   3.927   5.986 -0.3488 -2.0480  0.6503
  140DG     C17 3214   3.371   3.978   5.542  0.5468  0.1862  0.8393
  140DG     C18 3215   3.400   3.929   5.773  0.3317 -0.5165  0.7292
  140DG     O19 3216   3.308   3.977   5.668 -0.0570  0.1655 -0.3547
  140DG     H20 3217   3.452   4.048   5.559  0.0151  0.6885  1.3025
  140DG     H21 3218   3.404   3.879   5.508  2.0308  0.4330  1.5101
  140DG     H22 3219   3.472   4.011   5.772  0.0901 -0.2681  1.7552
  140DG     H23 3220   3.445   3.832   5.754  1.2495  0.1377 -0.5429
  141DG      C1 3221   1.653   0.352   3.753  0.1363  0.2950 -0.0762
  141DG      C2 3222   1.524   0.950   3.420 -0.6381 -0.1329  0.3145
  141DG      H3 3223   1.667   0.343   3.645 -0.5699 -1.7415 -0.0422
  141DG      H4 3224   1.559   0.304   3.783 -0.1097  1.4177  1.0067
  141DG      H5 3225   1.743   0.310   3.797 -1.1214 -3.0134 -0.3576
  141DG      H6 3226   1.472   1.046   3.419 -0.3267  0.1218 -2.8280
  141DG      H7 3227   1.631   0.961   3.437 -0.3138 -2.5981  0.2791
  141DG      H8 3228   1.523   0.916   3.316  1.1720 -0.3563  0.3382
  141DG      O9 3229   1.617   0.478   3.803 -0.2342  0.7222  0.3056
  141DG     O10 3230   1.459   0.866   3.511  0.3708  0.2994  0.4670
  141DG     C11 3231   1.694   0.583   3.759  0.8837  0.0970  0.1055
  141DG     C12 3232   1.445   0.923   3.642  0.3971 -0.0723  0.2077
  141DG     H13 3233   1.701   0.581   3.650  1.8977  0.7916  0.1423
  141DG     H14 3234   1.791   0.577   3.809  1.5422 -1.9320 -1.2764
  141DG     H15 3235   1.375   1.006   3.647  0.1877 -0.1931 -0.5619
  141DG     H16 3236   1.535   0.971   3.681 -0.3176  1.0076  0.5644
  141DG     C17 3237   1.614   0.718   3.791 -0.6246 -0.2653  0.7595
  141DG     C18 3238   1.390   0.812   3.736  0.0321  0.1501 -0.1655
  141DG     O19 3239   1.482   0.705   3.732 -0.5962  0.2655 -0.0287
  141DG     H20 3240   1.668   0.805   3.754 -1.5334 -0.0594 -0.1207
  141DG     H21 3241   1.614   0.726   3.899 -0.3395  0.3062  0.7211
  141DG     H22 3242   1.374   0.830   3.843  1.3940 -0.6559  0.2134
  141DG     H23 3243   1.300   0.771   3.690  1.1635 -2.3862 -0.2809
  142DG      C1 3244   3.027   0.051   2.949 -0.1680 -0.6380  0.1759
  142DG      C2 3245   2.550  -0.164   2.543  0.6913  0.0521 -0.1783
  142DG      H3 3246   3.058  -0.045   2.909  0.7588 -1.1980  2.1348
  142DG      H4 3247   2.955   0.034   3.030  0.6022 -2.5980  0.4840
  142DG      H5 3248   3.119   0.105   2.971 -0.8380  0.9652 -0.8025
  142DG      H6 3249   2.479  -0.162   2.461 -2.7629 -0.4717  2.5477
  142DG      H7 3250   2.620  -0.246   2.527  0.2486 -0.7772  1.8531
  142DG      H8 3251   2.506  -0.187   2.640  1.4076  1.5348  0.5404
  142DG      O9 3252   2.975   0.120   2.829  0.2055  0.3905  0.4208
  142DG     O10 3253   2.638  -0.054   2.561  0.8292 -0.2137 -0.1450
  142DG     C11 3254   2.916   0.242   2.856  0.6555 -0.1613 -0.5142
  142DG     C12 3255   2.563   0.068   2.597 -0.2630 -0.8525 -0.3241
  142DG     H13 3256   2.990   0.321   2.873  0.1799  0.5952 -1.7963
  142DG     H14 3257   2.845   0.254   2.937  0.2925  2.7163 -1.1609
  142DG     H15 3258   2.526   0.049   2.698 -0.8222 -3.5385 -0.9601
  142DG     H16 3259   2.485   0.077   2.521  1.3757 -0.9317 -2.0723
  142DG     C17 3260   2.829   0.275   2.734 -0.4515 -0.4830 -0.7470
  142DG     C18 3261   2.664   0.182   2.591 -0.0532 -0.2139 -0.4218
  142DG     O19 3262   2.748   0.166   2.706  0.3089  0.2994  0.1274
  142DG     H20 3263   2.899   0.289   2.652 -0.1148 -3.2719 -1.0509
  142DG     H21 3264   2.765   0.361   2.749 -0.1239 -0.4998  0.9701
  142DG     H22 3265   2.725   0.184   2.500 -0.4944  0.6116 -0.7119
  142DG     H23 3266   2.619   0.281   2.594 -1.4122 -0.7878 -0.8290
  143DG      C1 3267   5.219   5.295   3.383  0.1205 -0.1652 -0.3294
  143DG      C2 3268   4.601   4.752   3.212 -0.2544 -0.3967 -0.1087
  143DG      H3 3269   5.181   5.326   3.480  2.3974  2.0232 -0.0303
  143DG      H4 3270   5.219   5.378   3.312 -0.0022  0.5729  0.5195
  143DG      H5 3271   5.320   5.255   3.392 -0.6345 -1.8044  1.4181
  143DG      H6 3272   4.506   4.701   3.197  0.2234 -1.1440 -0.6720
  143DG      H7 3273   4.685   4.697   3.168 -0.7193  0.8309 -2.7226
  143DG      H8 3274   4.616   4.753   3.320 -1.5680 -0.2675  0.0867
  143DG      O9 3275   5.141   5.190   3.328 -0.1077 -0.0227  0.4408
  143DG     O10 3276   4.601   4.883   3.153 -0.1665  0.3233 -0.1810
  143DG     C11 3277   5.132   5.195   3.189 -0.1866 -0.1784  0.4041
  143DG     C12 3278   4.691   4.975   3.198  0.4692  0.1758  0.6832
  143DG     H13 3279   5.230   5.188   3.140 -0.9589  1.2308 -1.4595
  143DG     H14 3280   5.085   5.287   3.153  2.1061 -0.1042 -2.9017
  143DG     H15 3281   4.709   4.963   3.305  1.0433 -1.2782  0.4428
  143DG     H16 3282   4.649   5.074   3.180  0.0174 -0.0621  0.4310
  143DG     C17 3283   5.048   5.074   3.138 -0.8533 -0.6524  0.1578
  143DG     C18 3284   4.833   4.975   3.132  0.2211  0.5771 -0.9130
  143DG     O19 3285   4.912   5.084   3.174 -0.7385 -0.2691 -0.6225
  143DG     H20 3286   5.100   4.983   3.167 -0.0750  0.2085  1.5523
  143DG     H21 3287   5.057   5.077   3.029  1.6546 -0.2038  0.3115
  143DG     H22 3288   4.876   4.877   3.154 -1.1141  0.5499  2.0101
  143DG     H23 3289   4.835   4.983   3.023  2.1598  0.0292 -0.9596
  144DG      C1 3290   4.641   1.824   0.472 -0.3277  0.4670  0.4931
  144DG      C2 3291   4.532   1.906  -0.177 -1.6240 -0.1053  0.3419
  144DG      H3 3292   4.598   1.893   0.544  0.6368 -0.1587  1.6964
  144DG      H4 3293   4.724   1.885   0.435 -0.7610  1.1605  0.6415
  144DG      H5 3294   4.678   1.730   0.512  1.2164  0.1615 -1.4779
  144DG      H6 3295   4.472   1.934  -0.263 -0.3687 -0.3694 -0.6568
  144DG      H7 3296   4.631   1.952  -0.182 -1.4621 -0.5866 -1.1007
  144DG      H8 3297   4.543   1.798  -0.174  0.2530  0.0342  0.0171
  144DG      O9 3298   4.559   1.802   0.364  0.4358  0.3848  0.1009
  144DG     O10 3299   4.475   1.954  -0.059 -0.3826 -0.1292  0.0782
  144DG     C11 3300   4.458   1.705   0.376  0.0878 -0.1144 -0.3834
  144DG     C12 3301   4.348   1.898  -0.033 -0.2702  0.6881  1.2659
  144DG     H13 3302   4.377   1.757   0.428  1.0723  1.3747 -0.2745
  144DG     H14 3303   4.492   1.628   0.445  2.4311  1.1779 -0.0069
  144DG     H15 3304   4.287   1.905  -0.122  0.5206  3.4084  0.8313
  144DG     H16 3305   4.292   1.953   0.043  0.6615  3.3334  0.1802
  144DG     C17 3306   4.428   1.657   0.234  0.3568  0.2349 -0.1834
  144DG     C18 3307   4.367   1.750   0.013 -0.3717  0.1063  0.0989
  144DG     O19 3308   4.433   1.768   0.146  0.4705 -0.1200  0.1033
  144DG     H20 3309   4.324   1.626   0.241  0.5161 -0.0221  2.0563
  144DG     H21 3310   4.497   1.578   0.203  0.0035 -1.3078  2.6209
  144DG     H22 3311   4.274   1.698   0.034  0.9947 -2.8402 -0.7027
  144DG     H23 3312   4.426   1.676  -0.041 -0.3221 -0.3964  0.8262
  145DG      C1 3313   0.982   3.328   4.897  0.1053  0.0965  0.1977
  145DG      C2 3314   0.713   2.951   5.511 -0.3713  0.4480  0.0640
  145DG      H3 3315   0.986   3.435   4.874 -1.2704 -0.0151 -0.6506
  145DG      H4 3316   0.878   3.302   4.878 -0.7810  3.1166  0.3734
  145DG      H5 3317   1.064   3.281   4.843  2.4584 -0.4046  3.8549
  145DG      H6 3318   0.781   2.985   5.589 -0.3074 -0.5140  0.4414
  145DG      H7 3319   0.622   2.912   5.557 -1.6402  1.0128 -1.8599
  145DG      H8 3320   0.768   2.873   5.458  1.1388  0.1971  1.8967
  145DG      O9 3321   1.009   3.308   5.032 -0.0979 -0.0828 -0.0583
  145DG     O10 3322   0.690   3.052   5.417 -0.0616  0.2644 -0.4925
  145DG     C11 3323   0.926   3.379   5.125  0.7658  0.0206  0.3637
  145DG     C12 3324   0.635   3.011   5.293  0.4242  0.3844 -0.3929
  145DG     H13 3325   0.920   3.485   5.101 -1.0513 -0.3480 -0.9710
  145DG     H14 3326   0.967   3.383   5.226 -0.7154  0.6253  0.9736
  145DG     H15 3327   0.534   2.975   5.308  0.9940 -0.5361  1.6747
  145DG     H16 3328   0.690   2.929   5.248  1.4219 -0.0247  1.4703
  145DG     C17 3329   0.782   3.318   5.130 -0.7675  0.0579 -0.7055
  145DG     C18 3330   0.647   3.136   5.208  0.7566  0.0543  0.1535
  145DG     O19 3331   0.778   3.195   5.199  0.5908  0.1428 -0.0105
  145DG     H20 3332   0.746   3.314   5.027  2.5793  1.4289 -2.0788
  145DG     H21 3333   0.722   3.397   5.177  1.0210  1.4861 -0.7129
  145DG     H22 3334   0.609   3.112   5.109  0.9285  0.8375 -0.1103
  145DG     H23 3335   0.578   3.211   5.248  0.8914  0.6290 -0.6718
  146DG      C1 3336   2.080   1.362   3.597 -0.3274 -0.1758 -0.2847
  146DG      C2 3337   2.530   1.464   4.295  0.4086  0.3496 -0.3670
  146DG      H3 3338   2.104   1.310   3.505  1.6235  1.1885 -0.6098
  146DG      H4 3339   2.066   1.469   3.579 -0.9419  0.1882  2.0063
  146DG      H5 3340   1.978   1.339   3.627 -0.2428 -0.0800  0.0838
  146DG      H6 3341   2.624   1.518   4.307  0.5166 -0.1469  1.2689
  146DG      H7 3342   2.449   1.520   4.342  0.7765  0.4366  0.1733
  146DG      H8 3343   2.536   1.372   4.354  0.8363  0.2340 -0.5846
  146DG      O9 3344   2.177   1.338   3.695 -0.0350 -0.3438 -0.2392
  146DG     O10 3345   2.511   1.440   4.159 -0.2205 -0.3173 -0.4922
  146DG     C11 3346   2.195   1.204   3.734 -0.3729 -0.6774  0.6791
  146DG     C12 3347   2.405   1.356   4.128 -0.1441  0.1348  0.0799
  146DG     H13 3348   2.179   1.135   3.651 -1.5206 -0.1761  0.4726
  146DG     H14 3349   2.109   1.194   3.800 -0.1874  0.6716  1.1494
  146DG     H15 3350   2.308   1.399   4.155 -1.8373 -1.3754 -3.0270
  146DG     H16 3351   2.408   1.268   4.192  0.0075  1.1496  1.5292
  146DG     C17 3352   2.326   1.176   3.807 -0.6601 -0.6585 -0.4249
  146DG     C18 3353   2.417   1.316   3.977  0.6838 -0.0503 -0.0845
  146DG     O19 3354   2.332   1.208   3.950  0.1378 -0.6274 -0.0018
  146DG     H20 3355   2.414   1.220   3.760 -0.5219  0.0331  0.4640
  146DG     H21 3356   2.334   1.067   3.816  1.3107 -0.7507 -2.5131
  146DG     H22 3357   2.397   1.410   3.926 -3.5355  0.0303  1.3334
  146DG     H23 3358   2.514   1.284   3.938  1.1709  1.1579  0.0876
  147DG      C1 3359   2.546   4.656   3.092  0.1640 -0.3932  0.7631
  147DG      C2 3360   2.701   4.147   2.736 -0.3173  0.0751 -0.3144
  147DG      H3 3361   2.611   4.609   3.166  0.5565 -0.4900  0.3661
  147DG      H4 3362   2.446   4.672   3.132  0.7685  1.2452  1.7398
  147DG      H5 3363   2.594   4.753   3.072 -0.4157  0.4194  3.0471
  147DG      H6 3364   2.595   4.124   2.725  0.5531 -4.1851 -1.6905
  147DG      H7 3365   2.736   4.080   2.658  1.8213  1.1221 -0.3259
  147DG      H8 3366   2.739   4.109   2.830  1.8770  2.1060 -0.2606
  147DG      O9 3367   2.551   4.586   2.973  0.1585  0.0775 -0.0174
  147DG     O10 3368   2.746   4.279   2.725  0.3651  0.4588  0.6415
  147DG     C11 3369   2.453   4.626   2.886 -0.2206 -0.0895  0.6848
  147DG     C12 3370   2.716   4.335   2.599 -0.3654 -0.2613  0.7347
  147DG     H13 3371   2.481   4.726   2.853 -3.0940  0.5019 -0.2003
  147DG     H14 3372   2.356   4.632   2.934 -0.2655  1.2494  0.4441
  147DG     H15 3373   2.718   4.263   2.517  0.0725  1.1375 -0.5350
  147DG     H16 3374   2.788   4.415   2.580 -0.7272 -0.2662 -0.7701
  147DG     C17 3375   2.447   4.536   2.756 -1.1233 -0.2246  0.1174
  147DG     C18 3376   2.580   4.393   2.608 -0.0357 -0.2201 -0.3554
  147DG     O19 3377   2.575   4.466   2.731  0.0813 -0.0076 -0.2206
  147DG     H20 3378   2.410   4.601   2.677  0.5499  0.2386 -0.3080
  147DG     H21 3379   2.367   4.471   2.791 -0.8651  0.6805  2.6039
  147DG     H22 3380   2.545   4.457   2.527  1.2336  0.2171 -0.5884
  147DG     H23 3381   2.500   4.320   2.622  0.5025 -1.1829 -1.9772
  148DG      C1 3382   0.741   1.411   1.702  0.1573  0.2694  1.0321
  148DG      C2 3383   1.310   1.035   1.818  0.1469  0.6493 -0.0096
  148DG      H3 3384   0.759   1.466   1.794 -0.0217 -0.5542  1.5705
  148DG      H4 3385   0.634   1.425   1.684  0.4575 -1.1562 -2.9616
  148DG      H5 3386   0.800   1.458   1.623  0.5271 -0.3539  0.9396
  148DG      H6 3387   1.365   1.036   1.724  0.2621 -1.8766 -0.0328
  148DG      H7 3388   1.338   1.120   1.881 -0.4551  0.0446  1.0944
  148DG      H8 3389   1.357   0.950   1.867 -1.6998 -0.7448 -0.5298
  148DG      O9 3390   0.776   1.277   1.723  0.6392  0.4691  0.1970
  148DG     O10 3391   1.170   1.033   1.810 -0.1279  0.0693 -0.4699
  148DG     C11 3392   0.767   1.196   1.597  0.6195 -0.1500 -0.4151
  148DG     C12 3393   1.126   0.930   1.717 -0.2931 -1.0159  0.3445
  148DG     H13 3394   0.842   1.221   1.522 -0.2024 -1.5553 -1.7679
  148DG     H14 3395   0.668   1.203   1.551 -0.2791 -0.5312  1.3924
  148DG     H15 3396   1.158   0.836   1.762 -1.5343 -1.0864  1.1111
  148DG     H16 3397   1.174   0.922   1.619 -0.9836 -1.5604  0.0391
  148DG     C17 3398   0.806   1.046   1.628  0.6946  0.0198 -0.3481
  148DG     C18 3399   0.973   0.915   1.696  0.0009  0.6909 -0.1310
  148DG     O19 3400   0.940   1.043   1.674  0.7243 -0.3264  0.1900
  148DG     H20 3401   0.792   0.974   1.548 -0.3761 -1.2446  0.9104
  148DG     H21 3402   0.737   1.012   1.705 -1.2639  1.4060 -1.3982
  148DG     H22 3403   0.961   0.851   1.609  2.0390 -0.5557  0.4280
  148DG     H23 3404   0.920   0.875   1.782  2.0870 -0.4030  0.7191
  149DG      C1 3405   5.087   2.278   3.397  0.2886 -0.5288  0.1359
  149DG      C2 3406   4.805   1.968   2.796 -0.2434 -0.2281  0.2620
  149DG      H3 3407   5.033   2.256   3.489  0.0400 -0.6153 -0.0289
  149DG      H4 3408   5.042   2.362   3.344  1.5970  1.0363  1.3839
  149DG      H5 3409   5.184   2.323   3.418  0.1713  0.0721 -0.5460
  149DG      H6 3410   4.799   1.866   2.756  0.0838 -0.9128  1.9029
  149DG      H7 3411   4.704   1.987   2.832  0.1438  1.1328  0.6748
  149DG      H8 3412   4.816   2.030   2.707 -1.3140  0.3477  0.5115
  149DG      O9 3413   5.080   2.163   3.316  0.6595 -0.5958  0.3825
  149DG     O10 3414   4.905   1.980   2.899 -0.3889 -0.4960  0.1428
  149DG     C11 3415   5.209   2.133   3.260 -0.4174  0.0741  0.4952
  149DG     C12 3416   5.037   1.974   2.847 -0.4509 -0.1366 -0.9292
  149DG     H13 3417   5.275   2.118   3.346 -1.3509  1.3921  1.4929
  149DG     H14 3418   5.254   2.207   3.194  1.0193  0.0121  1.3634
  149DG     H15 3419   5.064   2.068   2.798  0.5786 -0.3414 -0.7748
  149DG     H16 3420   5.033   1.893   2.774 -0.1706  0.8408 -2.0719
  149DG     C17 3421   5.214   2.007   3.172 -0.4806  0.6500  0.7365
  149DG     C18 3422   5.135   1.936   2.957 -0.3852  0.1323 -0.3703
  149DG     O19 3423   5.143   2.033   3.056 -0.4703  0.7562  0.3329
  149DG     H20 3424   5.174   1.919   3.222  0.5284  0.0931  0.5747
  149DG     H21 3425   5.317   1.978   3.151 -0.2642  1.1896  1.0291
  149DG     H22 3426   5.111   1.841   3.004  0.7232 -0.9249 -1.8530
  149DG     H23 3427   5.234   1.918   2.913  0.1028  0.7460  0.4479
  150DG      C1 3428   2.765   4.430   4.873 -0.0803  0.3694 -0.0884
  150DG      C2 3429   3.203   4.943   4.920 -0.1332  0.4137 -0.4959
  150DG      H3 3430   2.775   4.443   4.981 -0.0035 -1.9921  0.2511
  150DG      H4 3431   2.765   4.324   4.847  1.5487 -0.1757  1.8997
  150DG      H5 3432   2.662   4.463   4.856 -0.4236  1.8616  3.8308
  150DG      H6 3433   3.207   4.892   5.016 -1.4348  2.7160  0.8629
  150DG      H7 3434   3.309   4.965   4.903 -0.3022  0.3966 -1.6465
  150DG      H8 3435   3.134   5.027   4.929  1.8903  2.2590 -1.2854
  150DG      O9 3436   2.860   4.502   4.806  0.3501  0.3869  0.3634
  150DG     O10 3437   3.164   4.842   4.828 -0.4678 -0.0549  0.4667
  150DG     C11 3438   2.826   4.527   4.669  0.1274 -0.2038  0.2423
  150DG     C12 3439   3.141   4.883   4.698  0.4263  0.0359 -0.3034
  150DG     H13 3440   2.756   4.610   4.669  2.5160  1.9427 -0.8667
  150DG     H14 3441   2.786   4.443   4.611 -1.4386  0.1166  0.8133
  150DG     H15 3442   3.227   4.937   4.658  0.9867  0.3458  1.2388
  150DG     H16 3443   3.051   4.945   4.705  0.6649  0.6762 -2.3094
  150DG     C17 3444   2.949   4.587   4.603 -0.4185  0.1573 -0.0510
  150DG     C18 3445   3.103   4.760   4.619  0.1724  0.0357 -0.3753
  150DG     O19 3446   2.980   4.708   4.669  0.0664 -0.0302  0.4057
  150DG     H20 3447   2.929   4.597   4.496 -0.2925 -1.8560 -0.2990
  150DG     H21 3448   3.026   4.510   4.602  0.0106  0.5891 -0.4613
  150DG     H22 3449   3.076   4.781   4.515  0.3740 -1.9826 -0.8802
  150DG     H23 3450   3.176   4.679   4.618  0.2248  0.0827 -0.3172
  151DG      C1 3451   1.606   3.766   4.888  0.8255  0.4804  0.1010
  151DG      C2 3452   1.492   3.354   5.367  0.3257  0.2334  0.2288
  151DG      H3 3453   1.499   3.745   4.881  0.9136 -0.6205  1.5252
  151DG      H4 3454   1.650   3.817   4.802 -2.0186  0.7346 -1.3172
  151DG      H5 3455   1.606   3.841   4.967 -1.5495  1.7479 -0.9976
  151DG      H6 3456   1.540   3.433   5.425 -0.1558  1.2422 -0.7138
  151DG      H7 3457   1.416   3.300   5.423  0.5511 -1.1090 -0.7238
  151DG      H8 3458   1.573   3.286   5.342  1.3093  1.5238 -0.1848
  151DG      O9 3459   1.665   3.639   4.911  0.2124  0.3337  0.2335
  151DG     O10 3460   1.444   3.397   5.243  0.0286  0.1786 -0.0182
  151DG     C11 3461   1.627   3.543   4.816 -0.4788  0.4651 -0.8570
  151DG     C12 3462   1.381   3.291   5.167  0.5726  0.0530 -0.2558
  151DG     H13 3463   1.699   3.462   4.813 -1.5056 -0.4997 -0.4694
  151DG     H14 3464   1.636   3.581   4.714 -0.9161 -0.8123 -1.4033
  151DG     H15 3465   1.283   3.274   5.210 -0.3323  2.9718 -0.9327
  151DG     H16 3466   1.434   3.196   5.176 -1.3947 -1.2370 -1.5121
  151DG     C17 3467   1.494   3.478   4.850  0.4488 -0.0532  0.2037
  151DG     C18 3468   1.372   3.355   5.024 -0.5221 -0.3201 -0.3548
  151DG     O19 3469   1.496   3.420   4.977 -0.2100  0.2888 -0.7016
  151DG     H20 3470   1.467   3.407   4.772  0.7893 -1.2811  1.1664
  151DG     H21 3471   1.408   3.545   4.846  0.2646 -0.3295 -2.0502
  151DG     H22 3472   1.342   3.276   4.956  0.1625 -1.4237  0.5809
  151DG     H23 3473   1.299   3.433   5.042  0.8579  1.0773 -0.5591
  152DG      C1 3474   2.691   3.204   1.668  0.3406  0.2631 -0.6810
  152DG      C2 3475   2.735   3.150   2.247 -0.4827  0.7247  0.5506
  152DG      H3 3476   2.661   3.100   1.662 -1.2161  0.5370  1.3223
  152DG      H4 3477   2.791   3.212   1.710  0.3904  0.7893 -0.8924
  152DG      H5 3478   2.700   3.258   1.574  0.5847  1.8394  0.2012
  152DG      H6 3479   2.687   3.219   2.317 -1.7909  0.4507 -0.0388
  152DG      H7 3480   2.763   3.061   2.303 -1.7566 -0.3141 -0.4000
  152DG      H8 3481   2.834   3.187   2.219  0.0078 -2.0189 -1.7785
  152DG      O9 3482   2.619   3.270   1.776 -0.4068 -1.1466 -0.3920
  152DG     O10 3483   2.667   3.113   2.127 -0.4139 -0.4393  0.5771
  152DG     C11 3484   2.476   3.262   1.743 -0.2346 -0.3600 -0.8775
  152DG     C12 3485   2.542   3.046   2.162 -0.6209 -0.0338 -0.1961
  152DG     H13 3486   2.448   3.223   1.645 -3.3552 -0.2208 -0.1422
  152DG     H14 3487   2.435   3.364   1.740  0.0568 -0.1845  0.4404
  152DG     H15 3488   2.489   3.091   2.247 -0.4886  0.6651 -0.4724
  152DG     H16 3489   2.573   2.947   2.196 -0.2954  0.3692  0.7301
  152DG     C17 3490   2.403   3.168   1.842 -0.3771  1.0265 -0.8300
  152DG     C18 3491   2.459   3.034   2.031 -0.1358 -0.0491 -0.2935
  152DG     O19 3492   2.471   3.163   1.967  0.3985  0.4258  0.0179
  152DG     H20 3493   2.413   3.069   1.799 -0.4738  1.9930 -3.2148
  152DG     H21 3494   2.299   3.184   1.872 -0.9660 -2.3528 -0.7387
  152DG     H22 3495   2.500   2.956   1.967  1.0471  0.5748 -0.3373
  152DG     H23 3496   2.352   3.017   2.031  0.0638 -1.4155 -1.1213
  153DG      C1 3497   0.593   3.363   0.901 -0.5340 -0.1449  0.4499
  153DG      C2 3498   0.094   3.214   1.368 -0.2637 -1.2122  0.7211
  153DG      H3 3499   0.687   3.371   0.954  0.6544  0.6447 -1.6464
  153DG      H4 3500   0.541   3.459   0.904  0.7632  0.7604 -2.2700
  153DG      H5 3501   0.614   3.353   0.794  1.1937  0.9015  0.6630
  153DG      H6 3502  -0.006   3.172   1.364 -0.3610 -0.9347  0.0885
  153DG      H7 3503   0.145   3.189   1.461  1.0238  0.3408  0.4956
  153DG      H8 3504   0.086   3.323   1.365  0.5063 -1.1757 -1.6788
  153DG      O9 3505   0.507   3.266   0.940 -0.2442 -0.3752 -0.2980
  153DG     O10 3506   0.172   3.170   1.255  0.0123  0.2704  0.8028
  153DG     C11 3507   0.548   3.129   0.941  0.5665 -0.3451  0.3455
  153DG     C12 3508   0.174   3.029   1.250  0.1513 -0.2239  0.5120
  153DG     H13 3509   0.629   3.104   1.009  0.4039 -1.9133 -0.0044
  153DG     H14 3510   0.591   3.113   0.842 -1.1890  2.1041 -0.9476
  153DG     H15 3511   0.071   2.993   1.239 -0.7118  2.2387  0.0337
  153DG     H16 3512   0.220   2.977   1.334  0.0586  0.0265  0.7182
  153DG     C17 3513   0.422   3.041   0.964  0.2549 -0.5502  0.1752
  153DG     C18 3514   0.241   2.991   1.109 -0.0698 -0.5456 -0.6335
  153DG     O19 3515   0.351   3.075   1.078 -0.2389  0.6068  0.4898
  153DG     H20 3516   0.436   2.933   0.959  0.2053 -0.5308 -0.4791
  153DG     H21 3517   0.353   3.062   0.883  0.4111 -0.9221 -0.0590
  153DG     H22 3518   0.262   2.884   1.108  1.8454 -0.2618  1.0798
  153DG     H23 3519   0.170   3.005   1.028  0.7643  1.8793 -1.0203
  154DG      C1 3520   2.134   1.245   5.434 -0.2946 -0.2959  0.1160
  154DG      C2 3521   2.208   1.645   4.886  0.2126  1.0131  0.6060
  154DG      H3 3522   2.025   1.251   5.444 -0.1776  1.3489  0.7304
  154DG      H4 3523   2.175   1.234   5.535 -0.1682  0.0750  0.1047
  154DG      H5 3524   2.153   1.153   5.379  0.6634 -1.2984  2.0265
  154DG      H6 3525   2.201   1.746   4.845 -0.7573  0.1373 -1.5762
  154DG      H7 3526   2.282   1.587   4.831 -1.6289 -0.2551 -0.6794
  154DG      H8 3527   2.112   1.595   4.874  0.3714  1.2396 -2.1873
  154DG      O9 3528   2.189   1.358   5.369 -0.1074 -0.0959  0.6590
  154DG     O10 3529   2.236   1.650   5.024  0.5075  0.1935  0.4637
  154DG     C11 3530   2.331   1.346   5.356 -0.4295 -0.2825  0.2800
  154DG     C12 3531   2.355   1.718   5.055  0.6718  0.1983 -0.1381
  154DG     H13 3532   2.355   1.280   5.273 -1.3386 -2.7774  1.8861
  154DG     H14 3533   2.362   1.308   5.453 -4.7701  0.5655  2.2501
  154DG     H15 3534   2.345   1.826   5.054  1.7577  0.4517  3.1241
  154DG     H16 3535   2.425   1.706   4.973  0.8929 -1.8484  0.2982
  154DG     C17 3536   2.400   1.491   5.337  0.0395 -0.1347  0.1047
  154DG     C18 3537   2.411   1.669   5.185 -0.2614 -0.2331  0.5162
  154DG     O19 3538   2.362   1.533   5.209 -0.5931 -0.0916 -0.1697
  154DG     H20 3539   2.506   1.471   5.351  0.8638  2.5397 -1.7288
  154DG     H21 3540   2.364   1.568   5.405 -1.1433  1.1865 -1.9414
  154DG     H22 3541   2.518   1.691   5.183 -0.3639  0.2559  0.2294
  154DG     H23 3542   2.376   1.729   5.270 -0.8409 -1.0796  0.8852
  155DG      C1 3543   0.515   3.196   2.908 -0.4885 -0.4894  0.0896
  155DG      C2 3544   0.361   3.053   2.236 -0.0682 -0.3118 -0.2595
  155DG      H3 3545   0.490   3.284   2.848  1.1050 -1.4107 -2.0777
  155DG      H4 3546   0.613   3.215   2.950 -1.0342 -2.1442  2.3235
  155DG      H5 3547   0.450   3.174   2.993  1.0980 -0.0051  1.4579
  155DG      H6 3548   0.377   2.991   2.147 -1.1255 -0.0415 -0.6511
  155DG      H7 3549   0.256   3.041   2.260 -0.1460  0.9192  0.0708
  155DG      H8 3550   0.363   3.162   2.225 -1.5024  0.0525  2.4018
  155DG      O9 3551   0.535   3.091   2.820  0.3220 -0.3120 -0.3308
  155DG     O10 3552   0.451   3.026   2.343  0.0163  0.2793  0.1047
  155DG     C11 3553   0.406   3.046   2.770  0.1976 -0.2135  0.0510
  155DG     C12 3554   0.447   2.884   2.367 -0.0827 -0.2260  0.4043
  155DG     H13 3555   0.341   3.123   2.729 -0.9144 -1.0674  0.1573
  155DG     H14 3556   0.339   3.014   2.849  0.0175  0.7479  0.2999
  155DG     H15 3557   0.487   2.838   2.276 -1.0104 -0.4580  0.1028
  155DG     H16 3558   0.349   2.835   2.367  0.2282 -0.9671 -1.9737
  155DG     C17 3559   0.418   2.923   2.686 -0.0531  0.3228 -0.6370
  155DG     C18 3560   0.540   2.851   2.486 -0.6305 -0.5348 -0.1764
  155DG     O19 3561   0.533   2.933   2.603 -0.2114 -0.6289 -0.1645
  155DG     H20 3562   0.337   2.915   2.613  1.0480 -0.6957 -1.7792
  155DG     H21 3563   0.433   2.831   2.743  0.2105  1.2333  0.8213
  155DG     H22 3564   0.539   2.748   2.523 -1.7940 -0.6156 -0.3839
  155DG     H23 3565   0.642   2.874   2.456 -0.6102 -1.4814 -0.8871
  156DG      C1 3566   1.998   0.634   0.589  0.0143 -0.2113 -0.3870
  156DG      C2 3567   2.609   1.087   0.389 -0.3154 -0.0107  0.2765
  156DG      H3 3568   1.892   0.658   0.575 -0.0820 -0.3699  0.0494
  156DG      H4 3569   2.025   0.670   0.688 -1.3017 -0.5982  0.1382
  156DG      H5 3570   2.005   0.526   0.598 -1.7940 -0.2726  0.8938
  156DG      H6 3571   2.671   1.000   0.365 -3.5925 -1.9569 -1.9037
  156DG      H7 3572   2.631   1.165   0.317  0.4029 -2.1339 -1.9586
  156DG      H8 3573   2.614   1.123   0.492 -2.6306  1.1197  0.0523
  156DG      O9 3574   2.078   0.670   0.474 -0.8469  0.6934 -0.8530
  156DG     O10 3575   2.480   1.034   0.360  0.9295  0.3756  0.4584
  156DG     C11 3576   2.057   0.801   0.428  0.0700 -0.4772  0.4913
  156DG     C12 3577   2.475   0.968   0.233  0.2100  0.2071 -0.1855
  156DG     H13 3578   2.081   0.881   0.498  0.3926  1.3007 -1.5349
  156DG     H14 3579   1.951   0.813   0.405  0.5122  0.2612 -1.3489
  156DG     H15 3580   2.545   0.885   0.228  1.7003  1.4242 -0.2768
  156DG     H16 3581   2.505   1.036   0.153 -0.1719 -1.0299 -1.4060
  156DG     C17 3582   2.138   0.817   0.299  0.1432  0.1622 -0.5157
  156DG     C18 3583   2.331   0.915   0.201  0.0543  0.3563  0.3912
  156DG     O19 3584   2.273   0.853   0.315  0.2010  0.1666 -0.1173
  156DG     H20 3585   2.086   0.891   0.237 -0.5802 -1.1074 -1.4655
  156DG     H21 3586   2.135   0.733   0.230  1.9489 -0.5085  0.1618
  156DG     H22 3587   2.259   0.991   0.173  0.5559  0.8236  0.3466
  156DG     H23 3588   2.327   0.836   0.126  0.6438 -0.2319  0.9569
  157DG      C1 3589   2.099   0.156   2.167 -0.1692  0.1918 -0.3936
  157DG      C2 3590   1.967   0.662   2.770  0.1366 -0.1760  0.0568
  157DG      H3 3591   1.998   0.149   2.128  0.3793 -0.4727 -1.7300
  157DG      H4 3592   2.144   0.057   2.164 -0.2136 -0.0792  3.1278
  157DG      H5 3593   2.162   0.226   2.112  0.8774 -0.5870 -0.2166
  157DG      H6 3594   1.880   0.689   2.709  0.8710 -1.2365 -1.5427
  157DG      H7 3595   1.926   0.658   2.870  0.3483  2.5595  0.3045
  157DG      H8 3596   2.043   0.739   2.776 -0.6307  0.4962  1.8955
  157DG      O9 3597   2.084   0.203   2.295 -0.3174 -0.1057 -0.1528
  157DG     O10 3598   2.008   0.537   2.722  0.3094  0.2395  0.4116
  157DG     C11 3599   2.189   0.194   2.398  0.3069 -0.0245 -0.3964
  157DG     C12 3600   1.913   0.432   2.712  0.3669 -0.2832  0.1272
  157DG     H13 3601   2.242   0.288   2.385 -1.1197  0.5496 -2.5269
  157DG     H14 3602   2.257   0.109   2.387  1.1460  0.5020  0.5553
  157DG     H15 3603   1.841   0.444   2.631  0.4426 -1.4220 -0.1295
  157DG     H16 3604   1.853   0.419   2.802 -0.2919 -0.4374 -0.3306
  157DG     C17 3605   2.111   0.184   2.536 -0.2210 -0.0078 -0.1045
  157DG     C18 3606   1.973   0.294   2.684 -0.2217  0.0659  0.3666
  157DG     O19 3607   2.033   0.308   2.557  0.1487  0.3588 -0.1768
  157DG     H20 3608   2.190   0.184   2.611  1.3257  0.9518 -1.6512
  157DG     H21 3609   2.046   0.097   2.534  1.2834 -1.1639  0.1628
  157DG     H22 3610   2.049   0.275   2.759  0.6888 -0.7869 -0.7468
  157DG     H23 3611   1.901   0.212   2.684 -1.0991  0.8017  1.2632
  158DG      C1 3612   3.245   1.209   1.429 -0.1422 -0.0204 -0.0207
  158DG      C2 3613   2.608   1.418   1.666  1.2522 -0.2745  0.0220
  158DG      H3 3614   3.214   1.263   1.340  0.6988  0.4540 -0.0356
  158DG      H4 3615   3.309   1.124   1.406 -1.0976 -1.4662  2.1993
  158DG      H5 3616   3.310   1.279   1.481 -0.7253  1.0864 -0.7482
  158DG      H6 3617   2.509   1.373   1.679 -1.1862  4.3391 -0.3142
  158DG      H7 3618   2.617   1.473   1.760  1.9864 -2.4232  1.2869
  158DG      H8 3619   2.617   1.484   1.580  3.5658 -0.0213  0.4035
  158DG      O9 3620   3.131   1.162   1.494  0.1541 -0.5260 -0.1833
  158DG     O10 3621   2.714   1.323   1.656  0.6237 -0.0247 -0.3328
  158DG     C11 3622   3.165   1.090   1.610  0.1307 -0.2169 -0.2776
  158DG     C12 3623   2.735   1.256   1.779  0.0704  0.3491  0.3846
  158DG     H13 3624   3.216   1.153   1.683 -2.6813  1.7217  0.1822
  158DG     H14 3625   3.231   1.008   1.581 -1.4974 -1.3341 -0.9619
  158DG     H15 3626   2.639   1.234   1.825 -0.6131  1.4845 -0.4233
  158DG     H16 3627   2.771   1.328   1.852 -2.3055  2.4874 -0.4051
  158DG     C17 3628   3.029   1.048   1.668  0.4722 -0.0892 -0.7207
  158DG     C18 3629   2.830   1.137   1.766 -0.0821 -0.4776 -0.4373
  158DG     O19 3630   2.950   1.166   1.696  0.1029  0.2713  0.3144
  158DG     H20 3631   3.046   0.999   1.764  0.8534  1.5771  0.0995
  158DG     H21 3632   2.974   0.982   1.601 -1.3007  0.9898 -0.4109
  158DG     H22 3633   2.854   1.112   1.869 -1.1900  0.8609  0.1798
  158DG     H23 3634   2.775   1.050   1.731  2.8374 -2.3879 -0.5992
  159DG      C1 3635   4.418   5.414   2.708 -0.3744 -0.2067 -1.3238
  159DG      C2 3636   4.938   5.758   2.878 -0.1581  0.2298 -0.1968
  159DG      H3 3637   4.412   5.353   2.798  3.6355  0.3609 -0.4600
  159DG      H4 3638   4.486   5.359   2.644 -0.3113 -0.5207 -0.9897
  159DG      H5 3639   4.321   5.417   2.659 -0.7815 -1.6077 -0.6546
  159DG      H6 3640   4.995   5.851   2.883 -0.6770  0.7466 -2.6445
  159DG      H7 3641   4.941   5.702   2.972  0.5611 -0.1515 -0.4391
  159DG      H8 3642   5.002   5.695   2.816  0.8828 -1.1063  2.0908
  159DG      O9 3643   4.469   5.549   2.730  0.3827  0.4749 -0.5395
  159DG     O10 3644   4.801   5.785   2.838 -0.5496 -0.5704  0.0970
  159DG     C11 3645   4.364   5.632   2.792 -0.3307  0.5113  0.2108
  159DG     C12 3646   4.738   5.888   2.913 -0.0857  0.8770 -0.2981
  159DG     H13 3647   4.321   5.604   2.889 -0.5302 -3.9512 -0.9498
  159DG     H14 3648   4.274   5.635   2.731  0.0378  1.8544 -0.2889
  159DG     H15 3649   4.804   5.975   2.905  1.4801 -0.2802 -0.4329
  159DG     H16 3650   4.728   5.858   3.017  1.0077  1.4563 -0.0088
  159DG     C17 3651   4.416   5.776   2.790  0.7778 -0.9081  0.0630
  159DG     C18 3652   4.598   5.911   2.867 -0.5465 -0.3430  0.0272
  159DG     O19 3653   4.535   5.783   2.863 -0.2638  0.0976  0.1748
  159DG     H20 3654   4.335   5.833   2.837 -0.1889 -0.8428 -1.5855
  159DG     H21 3655   4.418   5.817   2.689 -2.7754 -3.5098 -1.2925
  159DG     H22 3656   4.543   5.981   2.931  1.0028  0.2549  0.7682
  159DG     H23 3657   4.608   5.955   2.768 -0.6940 -0.8376 -0.2116
  160DG      C1 3658   4.559   3.967   4.465 -0.3373  0.0835 -0.0025
  160DG      C2 3659   4.354   4.365   3.864  0.1168 -0.4721  0.4197
  160DG      H3 3660   4.610   4.000   4.556 -2.0332 -1.5352  1.6285
  160DG      H4 3661   4.619   3.901   4.402 -1.5250 -0.4447 -0.5984
  160DG      H5 3662   4.474   3.901   4.484  0.8215 -0.9243  2.1032
  160DG      H6 3663   4.441   4.346   3.802 -0.8451 -2.0220 -0.5293
  160DG      H7 3664   4.279   4.295   3.826  0.2117  0.1428 -0.9405
  160DG      H8 3665   4.325   4.466   3.835  0.4455 -0.5528 -0.2043
  160DG      O9 3666   4.517   4.082   4.397 -0.4283 -0.2056  0.2455
  160DG     O10 3667   4.382   4.344   4.003  0.0492  0.2592  0.2395
  160DG     C11 3668   4.428   4.152   4.483 -0.7984  0.1825 -0.1828
  160DG     C12 3669   4.302   4.409   4.101 -0.2210 -0.2260 -0.5929
  160DG     H13 3670   4.470   4.160   4.584  2.3848  0.8902 -1.4396
  160DG     H14 3671   4.333   4.098   4.489 -0.5604 -0.1646  0.6359
  160DG     H15 3672   4.216   4.343   4.112  0.8147 -1.4320  0.6787
  160DG     H16 3673   4.263   4.507   4.073 -1.9960  0.1151  2.5722
  160DG     C17 3674   4.418   4.294   4.439  0.2851  0.1498  0.8812
  160DG     C18 3675   4.386   4.425   4.234  0.6278  0.0343  0.1521
  160DG     O19 3676   4.378   4.297   4.304 -0.1836 -0.5741  0.0007
  160DG     H20 3677   4.507   4.355   4.455 -1.1995  2.8377 -0.4373
  160DG     H21 3678   4.350   4.354   4.500 -2.6649 -2.9147  0.8759
  160DG     H22 3679   4.488   4.456   4.212  1.6611 -1.5560  2.2992
  160DG     H23 3680   4.354   4.508   4.298  1.9231  0.7188 -0.0733
  161DG      C1 3681   2.149   0.093   1.609 -0.6720 -0.1368  0.6723
  161DG      C2 3682   1.519  -0.157   1.750 -0.4010  0.0228 -0.1388
  161DG      H3 3683   2.123   0.196   1.634 -0.4517  0.5329 -1.6443
  161DG      H4 3684   2.140   0.084   1.501 -0.1414 -0.7217  0.6682
  161DG      H5 3685   2.253   0.070   1.635 -1.1275 -0.3100  2.5278
  161DG      H6 3686   1.454  -0.070   1.757  0.9197  1.1816 -1.4610
  161DG      H7 3687   1.549  -0.170   1.646 -0.0412 -3.1363  0.2818
  161DG      H8 3688   1.452  -0.241   1.767 -1.7169  0.3994 -2.9528
  161DG      O9 3689   2.055   0.010   1.679 -0.4087  0.1623  0.0665
  161DG     O10 3690   1.628  -0.142   1.836  0.0630 -0.0864 -0.3870
  161DG     C11 3691   2.065   0.015   1.814 -0.2226 -0.4782 -0.4901
  161DG     C12 3692   1.707  -0.268   1.851 -0.2893  0.0390 -0.5189
  161DG     H13 3693   2.066   0.119   1.848 -3.0882 -0.6607  0.4153
  161DG     H14 3694   2.156  -0.035   1.847 -0.2082  0.3320  0.7985
  161DG     H15 3695   1.742  -0.316   1.760  0.0073  0.7047 -0.7689
  161DG     H16 3696   1.649  -0.345   1.901  0.2989 -0.6536 -0.8779
  161DG     C17 3697   1.939  -0.039   1.883  0.1557  0.0004  0.4619
  161DG     C18 3698   1.826  -0.242   1.939 -0.6116  0.2091  0.1774
  161DG     O19 3699   1.927  -0.177   1.868  0.3430 -0.1351 -0.5328
  161DG     H20 3700   1.850   0.015   1.849  0.3300  1.3897  2.0860
  161DG     H21 3701   1.951  -0.024   1.990 -1.5446  1.5729  0.4839
  161DG     H22 3702   1.792  -0.213   2.038 -0.4338  0.7060  0.0916
  161DG     H23 3703   1.860  -0.345   1.948 -2.3017 -0.2802  1.5570
  162DG      C1 3704   3.287   4.134   4.951  0.8203 -0.7506 -0.3714
  162DG      C2 3705   3.234   4.341   4.475 -0.7333  0.7166 -0.4721
  162DG      H3 3706   3.355   4.218   4.961  0.5082 -0.3493 -1.5194
  162DG      H4 3707   3.270   4.115   4.845 -0.4548 -3.7167  0.2491
  162DG      H5 3708   3.339   4.047   4.993 -0.6187 -1.3067  0.3384
  162DG      H6 3709   3.291   4.425   4.516 -0.4987  0.3917 -0.1219
  162DG      H7 3710   3.303   4.264   4.441 -0.4074  1.7247 -2.2028
  162DG      H8 3711   3.174   4.373   4.390 -0.3552  0.4392 -0.8423
  162DG      O9 3712   3.161   4.150   5.018  0.0294  0.2110 -0.0174
  162DG     O10 3713   3.137   4.298   4.570 -0.5747  0.5605 -0.1761
  162DG     C11 3714   3.056   4.053   4.991 -0.5749 -0.2086 -0.7939
  162DG     C12 3715   3.064   4.182   4.524 -0.5698  0.3152 -0.6193
  162DG     H13 3716   2.996   4.030   5.079  0.6113 -0.3145  0.0134
  162DG     H14 3717   3.100   3.957   4.964 -0.8281 -0.4146 -0.4791
  162DG     H15 3718   3.138   4.103   4.513 -0.3895  0.1793  1.2818
  162DG     H16 3719   3.024   4.195   4.423 -2.6588 -0.4973  0.0677
  162DG     C17 3720   2.967   4.105   4.876  0.1975 -0.6063 -0.0537
  162DG     C18 3721   2.964   4.144   4.634 -0.3561  0.0502 -0.1904
  162DG     O19 3722   3.041   4.129   4.758 -0.0805 -0.5304  0.0734
  162DG     H20 3723   2.899   4.185   4.907 -0.9989 -1.6875  0.2218
  162DG     H21 3724   2.889   4.031   4.856 -2.6139  2.0181  0.4223
  162DG     H22 3725   2.881   4.215   4.644 -1.2445 -0.7641 -1.4344
  162DG     H23 3726   2.911   4.054   4.602 -1.1095  0.2052  0.5791
  163DG      C1 3727   4.204   5.133   0.530  0.0994 -0.2462  0.5881
  163DG      C2 3728   4.350   5.525  -0.012  0.0498  0.0209  0.2562
  163DG      H3 3729   4.159   5.046   0.577  1.9037 -0.0161  2.9637
  163DG      H4 3730   4.169   5.215   0.594 -2.0379 -2.2362  2.1401
  163DG      H5 3731   4.312   5.126   0.536  0.3537 -0.2837 -2.5072
  163DG      H6 3732   4.371   5.539  -0.118 -1.6381  1.7951  0.0961
  163DG      H7 3733   4.300   5.621   0.007 -2.5263 -0.5697 -2.6441
  163DG      H8 3734   4.438   5.510   0.049  0.1341  0.2442  0.1939
  163DG      O9 3735   4.173   5.137   0.396 -0.2993 -0.1726  0.1652
  163DG     O10 3736   4.271   5.408   0.022 -0.2757  0.7675 -0.1713
  163DG     C11 3737   4.032   5.161   0.376  0.0737  0.2486 -0.5198
  163DG     C12 3738   4.134   5.424  -0.013  0.2482 -0.1547 -0.2762
  163DG     H13 3739   4.004   5.244   0.440  3.7101  0.0469  1.6296
  163DG     H14 3740   3.977   5.074   0.411 -1.3152  0.7219 -1.4550
  163DG     H15 3741   4.105   5.448  -0.115 -1.0563 -1.7260 -0.3211
  163DG     H16 3742   4.098   5.515   0.036 -0.8853  1.3152 -3.5402
  163DG     C17 3743   3.996   5.176   0.233  0.6338  0.0635 -0.4486
  163DG     C18 3744   4.062   5.303   0.041 -0.1535 -0.1266 -0.2756
  163DG     O19 3745   4.051   5.292   0.182 -0.5550 -0.1530 -0.2900
  163DG     H20 3746   3.890   5.171   0.209  0.6191  0.1852 -0.4111
  163DG     H21 3747   4.036   5.091   0.177  0.6812  0.8680 -1.6940
  163DG     H22 3748   3.959   5.307   0.004 -0.7076  0.6108  1.2646
  163DG     H23 3749   4.100   5.208   0.003 -0.0362  0.3239 -1.3332
  164DG      C1 3750   2.331   1.019   2.346  0.5616  0.5945  0.2591
  164DG      C2 3751   1.943   0.895   1.796 -0.4739 -0.4337  0.9664
  164DG      H3 3752   2.372   1.097   2.282 -1.1194 -0.7639 -2.6511
  164DG      H4 3753   2.401   0.936   2.341 -0.7627 -0.4712 -1.6056
  164DG      H5 3754   2.349   1.069   2.441 -1.1246  1.1462  0.3223
  164DG      H6 3755   2.046   0.890   1.761 -0.8356 -2.9928  0.0987
  164DG      H7 3756   1.879   0.827   1.739 -1.0960  2.0971 -1.5997
  164DG      H8 3757   1.910   0.987   1.747 -0.1550  1.1165  3.4348
  164DG      O9 3758   2.190   0.992   2.325 -0.3339 -0.0953  0.3937
  164DG     O10 3759   1.916   0.901   1.936  0.3049  0.5653 -0.4413
  164DG     C11 3760   2.148   0.870   2.380 -0.0128 -0.1428 -0.3648
  164DG     C12 3761   1.901   0.773   2.000 -0.4440  0.0993 -0.0675
  164DG     H13 3762   2.155   0.883   2.488 -0.0016  0.8515 -0.4745
  164DG     H14 3763   2.208   0.781   2.361 -1.7186 -1.1874 -1.0157
  164DG     H15 3764   1.998   0.729   1.980 -0.3459 -0.3521  1.3326
  164DG     H16 3765   1.826   0.711   1.950 -0.1624 -0.1639 -0.1664
  164DG     C17 3766   2.009   0.845   2.332 -0.7432  0.1323 -0.4590
  164DG     C18 3767   1.893   0.777   2.151 -0.2445  0.0604 -0.5019
  164DG     O19 3768   2.010   0.844   2.194 -0.1328  0.8328 -0.2703
  164DG     H20 3769   1.943   0.919   2.378  0.0884 -0.3803  1.7189
  164DG     H21 3770   1.990   0.752   2.387 -0.4668  1.0705  1.3156
  164DG     H22 3771   1.802   0.832   2.178 -1.0421 -1.5857  0.2790
  164DG     H23 3772   1.877   0.682   2.200 -1.7953  0.6193  0.1481
  165DG      C1 3773   3.327   4.958   3.912 -0.3398  0.1755  0.8767
  165DG      C2 3774   3.465   5.522   3.626  0.2056 -0.4941  0.5861
  165DG      H3 3775   3.219   4.973   3.924 -0.1778  1.5330  0.7765
  165DG      H4 3776   3.375   4.999   4.001 -1.9283 -0.7226  2.2105
  165DG      H5 3777   3.339   4.851   3.923  0.3660  0.0679 -0.7185
  165DG      H6 3778   3.419   5.581   3.705  0.6647 -2.0299  2.0508
  165DG      H7 3779   3.559   5.472   3.650  0.9793  0.5541 -0.1768
  165DG      H8 3780   3.493   5.586   3.542  0.7485 -0.7398  0.5741
  165DG      O9 3781   3.375   5.019   3.793 -0.1626 -0.4846 -0.0817
  165DG     O10 3782   3.359   5.432   3.596  0.4024  0.4503 -0.5307
  165DG     C11 3783   3.508   4.990   3.763 -1.4692 -0.4500 -0.2804
  165DG     C12 3784   3.374   5.353   3.478 -0.9985  0.0194  0.3797
  165DG     H13 3785   3.526   4.883   3.754  0.1809 -0.3183  0.9243
  165DG     H14 3786   3.576   5.015   3.844 -3.7595 -1.0538  1.9591
  165DG     H15 3787   3.407   5.416   3.396 -0.3581 -0.9405 -0.1151
  165DG     H16 3788   3.274   5.316   3.459 -1.5542  0.9827  1.3069
  165DG     C17 3789   3.545   5.060   3.633 -0.3572  0.7038 -0.3660
  165DG     C18 3790   3.475   5.240   3.501 -0.9176 -0.3795  0.2198
  165DG     O19 3791   3.481   5.192   3.630 -0.5574 -0.0417  0.3854
  165DG     H20 3792   3.504   4.997   3.554 -2.8881 -0.2273  1.5715
  165DG     H21 3793   3.650   5.060   3.604 -0.2567 -0.1951 -0.0254
  165DG     H22 3794   3.452   5.165   3.425  1.8360  1.7021 -3.0127
  165DG     H23 3795   3.572   5.286   3.481 -0.6771 -0.3668  1.3388
  166DG      C1 3796   4.465   5.039   3.878  0.6452  1.1991  0.1663
  166DG      C2 3797   4.409   4.521   3.444  0.0599 -0.2320  0.5614
  166DG      H3 3798   4.522   5.088   3.799 -1.2180  0.8187 -1.4804
  166DG      H4 3799   4.484   5.098   3.967  0.8295 -0.8033  1.5149
  166DG      H5 3800   4.358   5.037   3.860  0.8819 -1.4235 -1.5017
  166DG      H6 3801   4.348   4.431   3.449 -2.3059  1.2830  0.5361
  166DG      H7 3802   4.349   4.611   3.430 -0.1491 -0.4026  0.3498
  166DG      H8 3803   4.492   4.532   3.375 -0.2946  3.4846  0.5323
  166DG      O9 3804   4.529   4.908   3.884 -0.1821  0.0546  0.3986
  166DG     O10 3805   4.468   4.522   3.577  0.2226  0.4338  0.1613
  166DG     C11 3806   4.471   4.822   3.982  0.3783  0.1371  0.4790
  166DG     C12 3807   4.535   4.645   3.596  0.0891  0.3177 -0.4342
  166DG     H13 3808   4.365   4.809   3.961  0.3742 -0.6717  0.9639
  166DG     H14 3809   4.482   4.850   4.086  2.6677 -1.1765  0.6502
  166DG     H15 3810   4.472   4.731   3.574 -1.8137 -1.2576 -1.5270
  166DG     H16 3811   4.622   4.649   3.531 -0.2659 -1.5800 -1.1000
  166DG     C17 3812   4.522   4.673   3.966  0.1807 -0.2655 -0.0034
  166DG     C18 3813   4.592   4.644   3.745  0.2965  0.6028  0.6000
  166DG     O19 3814   4.492   4.637   3.836 -0.2251 -0.1599 -0.0124
  166DG     H20 3815   4.485   4.607   4.044  1.2349  0.4518  1.1523
  166DG     H21 3816   4.630   4.682   3.983  0.1636 -2.4666  1.6207
  166DG     H22 3817   4.669   4.566   3.750 -1.4079 -1.2716 -0.7482
  166DG     H23 3818   4.642   4.738   3.764 -0.9204  1.3610  0.1393
  167DG      C1 3819   1.055   0.295   3.070 -0.0755  0.8135 -0.1013
  167DG      C2 3820   0.955   0.913   3.374 -0.3309 -0.1012 -0.4622
  167DG      H3 3821   1.044   0.192   3.035 -0.5330  0.9606 -0.4190
  167DG      H4 3822   1.156   0.287   3.109  0.7231 -0.3787 -2.2088
  167DG      H5 3823   1.063   0.362   2.984  2.4521  1.1542  0.3294
  167DG      H6 3824   1.052   0.924   3.422 -0.8671  0.1066  0.5904
  167DG      H7 3825   0.963   0.945   3.270  0.3244  1.9551  0.1819
  167DG      H8 3826   0.897   0.989   3.426  0.0066 -1.5366  2.1546
  167DG      O9 3827   0.957   0.344   3.161 -0.3941 -0.0123 -0.2002
  167DG     O10 3828   0.891   0.787   3.392 -0.1604 -0.2018  0.0167
  167DG     C11 3829   0.824   0.369   3.117  0.7063 -0.7217  0.8297
  167DG     C12 3830   0.766   0.777   3.338 -0.4239 -0.0786 -0.3595
  167DG     H13 3831   0.781   0.277   3.077 -2.4298  0.6149  0.7707
  167DG     H14 3832   0.820   0.427   3.026 -0.3110 -0.9523  0.7115
  167DG     H15 3833   0.770   0.812   3.235  1.1285 -1.6332 -0.8652
  167DG     H16 3834   0.699   0.847   3.388  0.5383  1.0851 -0.6542
  167DG     C17 3835   0.740   0.425   3.230  1.1799  0.4496  0.5147
  167DG     C18 3836   0.717   0.632   3.352  0.4901 -0.1767 -0.1238
  167DG     O19 3837   0.794   0.551   3.264 -0.4907 -0.1179 -0.3354
  167DG     H20 3838   0.732   0.360   3.317 -0.8018  2.3102  1.8284
  167DG     H21 3839   0.639   0.446   3.195  1.0159  0.0569  0.7483
  167DG     H22 3840   0.720   0.589   3.452 -0.8237 -1.8255 -0.7491
  167DG     H23 3841   0.613   0.622   3.321  0.6061 -0.0171 -0.5627
  168DG      C1 3842   1.027   0.143   3.403  0.6218 -0.2241  0.0822
  168DG      C2 3843   1.214   0.655   3.051  0.6900  0.0362 -0.1209
  168DG      H3 3844   1.078   0.101   3.316  0.0896  0.7462 -0.7369
  168DG      H4 3845   0.926   0.174   3.376  0.3896 -1.1566 -0.1495
  168DG      H5 3846   1.020   0.065   3.478  0.5436 -1.9657 -1.6494
  168DG      H6 3847   1.268   0.593   2.980 -0.6518  0.4841 -1.5818
  168DG      H7 3848   1.106   0.648   3.037  0.4729 -0.2079  1.4951
  168DG      H8 3849   1.250   0.757   3.038 -1.8716  1.1875  1.1330
  168DG      O9 3850   1.092   0.268   3.440  0.2425 -0.3620  0.5509
  168DG     O10 3851   1.220   0.610   3.186  0.1721  0.3072 -0.2428
  168DG     C11 3852   1.232   0.243   3.469  0.2903 -0.4579 -0.0014
  168DG     C12 3853   1.348   0.643   3.241 -0.6376 -0.2686  0.5500
  168DG     H13 3854   1.278   0.186   3.388  0.1686 -1.2372  0.4685
  168DG     H14 3855   1.237   0.174   3.553  0.6453  1.0027  1.2007
  168DG     H15 3856   1.361   0.751   3.246 -0.6203 -0.2573  0.2582
  168DG     H16 3857   1.429   0.607   3.177 -0.3579  0.8893  0.2229
  168DG     C17 3858   1.297   0.383   3.497 -0.6574 -0.6280  0.0002
  168DG     C18 3859   1.354   0.586   3.386  0.7851 -1.1652 -0.0730
  168DG     O19 3860   1.276   0.472   3.382  0.3908  0.8657  0.1286
  168DG     H20 3861   1.405   0.368   3.498 -0.6988 -0.9276  0.1022
  168DG     H21 3862   1.271   0.429   3.592  1.9566  0.1809  0.3956
  168DG     H22 3863   1.458   0.562   3.409  0.3144 -1.1778  2.2091
  168DG     H23 3864   1.320   0.658   3.460 -0.3321 -1.7221 -0.0237
  169DG      C1 3865   4.853   4.909   3.789  0.1665 -0.0519 -0.2865
  169DG      C2 3866   4.718   4.305   3.432 -0.4697  0.0895 -0.4200
  169DG      H3 3867   4.828   4.836   3.866 -1.6118 -0.0241 -0.7826
  169DG      H4 3868   4.763   4.963   3.760  0.8017  0.8026 -0.7064
  169DG      H5 3869   4.915   4.990   3.827  1.5414  1.1180 -4.4819
  169DG      H6 3870   4.609   4.308   3.435 -0.5450 -0.3193  4.4983
  169DG      H7 3871   4.747   4.208   3.390 -2.4985 -1.0167  0.5917
  169DG      H8 3872   4.744   4.290   3.536  1.7043 -2.1164 -1.1824
  169DG      O9 3873   4.917   4.830   3.683  0.2013  0.6053  0.0705
  169DG     O10 3874   4.771   4.425   3.395 -0.3410 -0.4206  0.5032
  169DG     C11 3875   4.901   4.884   3.550  0.2360  0.0822 -0.5192
  169DG     C12 3876   4.910   4.428   3.404  0.4234 -0.8812 -0.3614
  169DG     H13 3877   4.964   4.973   3.545 -1.0117  1.0692  0.7562
  169DG     H14 3878   4.796   4.904   3.531 -0.0786 -0.5841  0.4385
  169DG     H15 3879   4.951   4.353   3.336 -0.8688 -1.4225 -0.5594
  169DG     H16 3880   4.934   4.394   3.505  1.0722 -1.1585 -0.5986
  169DG     C17 3881   4.964   4.790   3.441 -0.5365  0.1120  0.2985
  169DG     C18 3882   4.965   4.565   3.375  0.2110  0.4998  0.7153
  169DG     O19 3883   4.896   4.666   3.451 -0.3654 -0.1221  0.0790
  169DG     H20 3884   5.067   4.764   3.466 -0.7240 -1.0843 -0.1298
  169DG     H21 3885   4.974   4.841   3.345 -1.5396  1.4709  0.8709
  169DG     H22 3886   5.072   4.558   3.396  0.2217  0.3356  0.6070
  169DG     H23 3887   4.952   4.579   3.267 -0.1245  0.7489  0.7878
  170DG      C1 3888   4.589   3.199   2.396 -0.2941  0.3696 -0.2348
  170DG      C2 3889   4.090   3.535   2.602  0.5130 -0.1133  0.1858
  170DG      H3 3890   4.631   3.293   2.432  1.4517 -0.9340  1.3124
  170DG      H4 3891   4.564   3.203   2.290 -0.7230 -1.1504 -0.2068
  170DG      H5 3892   4.669   3.126   2.406 -1.0368 -0.5959 -1.0929
  170DG      H6 3893   4.068   3.554   2.706 -0.2345  1.0147 -0.1643
  170DG      H7 3894   4.169   3.591   2.551  0.3373 -0.1505 -0.1329
  170DG      H8 3895   3.997   3.559   2.549  1.1242  1.0180 -0.4103
  170DG      O9 3896   4.486   3.154   2.475 -0.2232 -0.4939 -0.0771
  170DG     O10 3897   4.133   3.402   2.575 -0.7205 -0.3974  0.5088
  170DG     C11 3898   4.417   3.048   2.422 -0.2821  0.5266  0.0161
  170DG     C12 3899   4.051   3.300   2.622  0.0699  0.1127  0.2781
  170DG     H13 3900   4.483   2.961   2.421  1.5976  1.6586  4.2380
  170DG     H14 3901   4.393   3.077   2.320  0.9378  2.2554  0.1775
  170DG     H15 3902   3.963   3.302   2.557 -1.3473 -1.0037  2.0486
  170DG     H16 3903   4.017   3.319   2.724 -0.2779  1.5228 -0.0870
  170DG     C17 3904   4.288   3.030   2.502  0.2322  0.3506  0.3137
  170DG     C18 3905   4.126   3.165   2.621 -0.2777 -0.7835  0.1112
  170DG     O19 3906   4.225   3.159   2.514 -0.1829 -0.4740  0.4784
  170DG     H20 3907   4.310   2.976   2.595  0.1349 -0.0610  0.1010
  170DG     H21 3908   4.217   2.963   2.453  1.1341 -1.1099  0.9376
  170DG     H22 3909   4.182   3.153   2.715 -0.8348 -0.8413  0.4385
  170DG     H23 3910   4.056   3.081   2.623 -0.3454 -0.7804  3.1560
  171DG      C1 3911   5.151   5.325   1.816  0.2659 -0.1011 -0.1580
  171DG      C2 3912   5.120   5.639   1.160  0.5942 -0.0319 -0.1380
  171DG      H3 3913   5.101   5.418   1.844  2.4026  0.8793  0.6033
  171DG      H4 3914   5.257   5.345   1.800  0.4531 -0.6186  0.4126
  171DG      H5 3915   5.135   5.251   1.894  1.8803  0.0645  0.3457
  171DG      H6 3916   5.226   5.656   1.142  0.3184 -0.1301 -2.0379
  171DG      H7 3917   5.061   5.620   1.070 -0.8816  0.4947  0.6669
  171DG      H8 3918   5.071   5.730   1.196  0.3098  0.0807 -0.7812
  171DG      O9 3919   5.088   5.299   1.686  0.5865 -1.0484  0.3337
  171DG     O10 3920   5.112   5.536   1.263 -0.4771 -0.4658 -0.1646
  171DG     C11 3921   5.146   5.186   1.624 -0.2300  0.0720 -0.5590
  171DG     C12 3922   5.138   5.404   1.212 -0.5760 -0.6573  0.6139
  171DG     H13 3923   5.141   5.092   1.678  2.1144 -0.7267 -1.5972
  171DG     H14 3924   5.251   5.202   1.600 -0.3423 -0.3474 -1.3852
  171DG     H15 3925   5.246   5.399   1.195 -0.5742 -0.0245  0.3977
  171DG     H16 3926   5.089   5.400   1.115 -0.3505 -0.5291  0.4917
  171DG     C17 3927   5.080   5.171   1.481  0.4169  0.7655 -0.3359
  171DG     C18 3928   5.080   5.291   1.285  0.3510 -0.2127  0.0457
  171DG     O19 3929   5.133   5.280   1.415 -0.1863 -0.0995  0.1462
  171DG     H20 3930   4.972   5.163   1.490  0.2010  1.3477 -2.0910
  171DG     H21 3931   5.117   5.078   1.439 -0.9343  0.3399 -0.6300
  171DG     H22 3932   4.971   5.282   1.282  0.1056  1.7291  1.0166
  171DG     H23 3933   5.097   5.198   1.232 -1.7746 -0.5861 -0.0835
  172DG      C1 3934   3.483   1.282   0.358  0.3084  0.2303 -0.3372
  172DG      C2 3935   3.726   1.687  -0.483 -0.2286  0.3719 -0.1256
  172DG      H3 3936   3.433   1.348   0.430 -1.3232  0.3706 -1.5548
  172DG      H4 3937   3.589   1.271   0.385 -0.5814 -0.0877  3.7299
  172DG      H5 3938   3.440   1.184   0.378  2.2570 -0.7571 -0.7091
  172DG      H6 3939   3.811   1.619  -0.473  0.0013  0.6169 -0.3846
  172DG      H7 3940   3.703   1.663  -0.586  1.6327 -0.4605 -0.3799
  172DG      H8 3941   3.774   1.786  -0.478  0.5185 -0.0111  0.7050
  172DG      O9 3942   3.474   1.300   0.215 -0.6209  0.4262  0.1578
  172DG     O10 3943   3.619   1.663  -0.394 -0.1286  0.1691  0.0692
  172DG     C11 3944   3.545   1.413   0.168  0.7040  0.4488  0.0878
  172DG     C12 3945   3.655   1.637  -0.257  0.0004 -0.3462  0.0706
  172DG     H13 3946   3.633   1.436   0.227 -0.6141  0.0051  2.3429
  172DG     H14 3947   3.475   1.493   0.193  0.8063  0.4795  0.2780
  172DG     H15 3948   3.606   1.720  -0.207 -0.0942 -0.3801  0.0348
  172DG     H16 3949   3.762   1.653  -0.239  0.0452 -0.5696  0.0135
  172DG     C17 3950   3.573   1.391   0.013 -0.0269 -0.2596  0.7621
  172DG     C18 3951   3.605   1.502  -0.201 -0.4617  0.5141 -0.0238
  172DG     O19 3952   3.597   1.514  -0.058 -0.6141 -0.2453 -0.2265
  172DG     H20 3953   3.504   1.324  -0.037  0.1553  0.1878 -0.0953
  172DG     H21 3954   3.666   1.334   0.005  0.3819  0.5752 -0.9814
  172DG     H22 3955   3.510   1.474  -0.245 -1.1333  1.5468  0.7305
  172DG     H23 3956   3.688   1.442  -0.240 -0.5411  0.6795 -0.4616
  173DG      C1 3957   2.148   0.260   0.475 -0.1187  0.2279 -0.5214
  173DG      C2 3958   1.541   0.195   0.268  0.0502 -0.2546  0.3850
  173DG      H3 3959   2.189   0.166   0.436 -1.4989 -1.4612  1.8512
  173DG      H4 3960   2.099   0.215   0.561  0.3768 -0.4236 -0.5711
  173DG      H5 3961   2.232   0.320   0.509 -2.9078  3.8644  0.5275
  173DG      H6 3962   1.530   0.106   0.206 -2.1691  0.7989 -0.8466
  173DG      H7 3963   1.556   0.161   0.371 -0.2499  1.1979  0.9274
  173DG      H8 3964   1.444   0.245   0.273 -0.3265 -0.8456 -0.6961
  173DG      O9 3965   2.053   0.324   0.389 -0.3687 -0.4832 -0.2036
  173DG     O10 3966   1.658   0.271   0.259 -0.2002 -0.1093 -0.7664
  173DG     C11 3967   2.114   0.398   0.284  0.0904 -0.4220  0.1806
  173DG     C12 3968   1.652   0.351   0.143 -0.0804 -0.0443  0.4976
  173DG     H13 3969   2.175   0.320   0.238  0.2149 -0.5286  0.5231
  173DG     H14 3970   2.178   0.479   0.318  0.3729  0.3737 -2.0556
  173DG     H15 3971   1.554   0.399   0.140 -0.5154 -0.9542 -0.4608
  173DG     H16 3972   1.662   0.286   0.057 -0.2846 -0.2159  0.6007
  173DG     C17 3973   2.001   0.468   0.201  1.1674  0.5624  0.2222
  173DG     C18 3974   1.774   0.441   0.144  0.3128 -0.4184  0.2560
  173DG     O19 3975   1.889   0.377   0.194 -0.4962  0.3082  0.0411
  173DG     H20 3976   2.048   0.498   0.108 -0.0277  2.3097  0.1305
  173DG     H21 3977   1.973   0.560   0.252  2.8512  0.7589  0.8271
  173DG     H22 3978   1.801   0.485   0.048 -2.2855  0.2526 -0.2378
  173DG     H23 3979   1.750   0.529   0.202  0.7224 -0.0000 -0.1989
  174DG      C1 3980   1.321   4.188   1.586  0.0207  0.7138 -0.7272
  174DG      C2 3981   1.155   4.162   2.224 -0.0706  0.3492 -0.1320
  174DG      H3 3982   1.292   4.200   1.482 -0.6625  0.1379 -0.6131
  174DG      H4 3983   1.311   4.080   1.598 -0.3387  0.6011 -1.9096
  174DG      H5 3984   1.420   4.228   1.607  0.2318 -0.0667 -0.2069
  174DG      H6 3985   1.145   4.054   2.207  0.3266  0.2842  0.0380
  174DG      H7 3986   1.257   4.180   2.257 -0.3016 -0.5600  1.1785
  174DG      H8 3987   1.088   4.199   2.302 -0.2576  0.2005 -0.2197
  174DG      O9 3988   1.232   4.259   1.674 -0.0309  0.2874 -0.5427
  174DG     O10 3989   1.106   4.229   2.105  0.0656  0.1169  0.4589
  174DG     C11 3990   1.254   4.399   1.683  0.0742 -0.4158 -0.3297
  174DG     C12 3991   1.116   4.368   2.121 -0.1038  0.2139  0.1570
  174DG     H13 3992   1.261   4.455   1.589  2.5708  0.5015  0.3351
  174DG     H14 3993   1.352   4.417   1.728  0.0739 -2.4746  0.5889
  174DG     H15 3994   1.221   4.386   2.143  0.8433 -2.4863 -1.7120
  174DG     H16 3995   1.053   4.394   2.207  0.7177 -0.1606  0.8839
  174DG     C17 3996   1.155   4.469   1.770 -0.7014  0.3593 -0.2762
  174DG     C18 3997   1.083   4.458   2.001  0.0313  0.3950 -0.4921
  174DG     O19 3998   1.179   4.418   1.903 -0.0338  0.3748  0.0216
  174DG     H20 3999   1.056   4.459   1.725 -0.8574  1.2928 -0.1619
  174DG     H21 4000   1.175   4.576   1.767  0.0027  0.2159 -1.1715
  174DG     H22 4001   0.985   4.426   1.968 -0.4280 -2.6872  3.1412
  174DG     H23 4002   1.091   4.563   2.028 -0.7855  0.8936 -2.1052
  175DG      C1 4003   1.154   0.982   4.407  0.2791 -0.2589 -0.3757
  175DG      C2 4004   0.845   0.917   4.898 -0.1799  0.2954  0.0348
  175DG      H3 4005   1.186   0.878   4.392  0.7128 -0.0414 -1.0067
  175DG      H4 4006   1.222   1.048   4.352 -0.1753  0.4782 -0.0608
  175DG      H5 4007   1.052   1.006   4.377  0.3555  0.9196  0.2702
  175DG      H6 4008   0.853   0.823   4.952  0.6774  0.4806  0.2532
  175DG      H7 4009   0.741   0.937   4.872  0.5335 -0.0833 -3.7670
  175DG      H8 4010   0.899   0.913   4.803 -0.1651 -1.0919  0.0848
  175DG      O9 4011   1.192   1.012   4.541  0.1346  0.3085 -0.3225
  175DG     O10 4012   0.891   1.028   4.983  0.3908  0.0720 -0.1466
  175DG     C11 4013   1.170   1.147   4.575 -0.1918 -0.2940 -0.3134
  175DG     C12 4014   1.031   1.020   5.027 -0.1778 -0.3391 -0.3852
  175DG     H13 4015   1.063   1.165   4.563 -0.3703 -0.9339  0.2313
  175DG     H14 4016   1.227   1.211   4.507 -1.2092 -0.9510 -1.8267
  175DG     H15 4017   1.062   0.916   5.030 -2.0038 -0.9749 -2.1015
  175DG     H16 4018   1.034   1.059   5.129  0.9190 -1.4356  0.0304
  175DG     C17 4019   1.195   1.171   4.724  0.1224 -0.7127 -0.7131
  175DG     C18 4020   1.121   1.109   4.943  0.1175 -0.2475 -0.0739
  175DG     O19 4021   1.113   1.085   4.805  0.1841  0.3600 -0.3408
  175DG     H20 4022   1.178   1.272   4.762  2.4745 -1.1960  2.0104
  175DG     H21 4023   1.298   1.149   4.753  0.1307 -1.5489 -1.3530
  175DG     H22 4024   1.094   1.213   4.962  0.9114  0.5716 -2.9479
  175DG     H23 4025   1.223   1.109   4.983 -0.2446 -3.2625  1.0775
  176DG      C1 4026   4.264   3.749   4.301  0.0672  0.5835  0.9923
  176DG      C2 4027   4.019   3.203   4.046  0.1219  0.1325 -0.4417
  176DG      H3 4028   4.279   3.768   4.195  2.0067  0.2975  1.1718
  176DG      H4 4029   4.270   3.841   4.360  1.0329  1.2102 -0.0306
  176DG      H5 4030   4.166   3.703   4.307 -0.2132  0.7561 -1.4694
  176DG      H6 4031   3.940   3.128   4.048 -0.9368  1.2488  0.7839
  176DG      H7 4032   4.017   3.247   3.946 -0.3916 -0.9621 -0.9285
  176DG      H8 4033   4.118   3.157   4.033 -0.5111 -1.7894  1.0608
  176DG      O9 4034   4.363   3.669   4.353  0.0025 -0.0497 -0.3843
  176DG     O10 4035   4.012   3.308   4.141 -0.1874 -0.3522 -0.1872
  176DG     C11 4036   4.386   3.553   4.277  0.0984  0.0148  0.1221
  176DG     C12 4037   4.021   3.257   4.273  1.1227  0.1246 -0.0759
  176DG     H13 4038   4.490   3.523   4.287  0.1856 -0.2904 -1.4515
  176DG     H14 4039   4.370   3.569   4.170  0.5780 -1.2434 -0.1469
  176DG     H15 4040   4.101   3.183   4.269  0.3924 -0.6117 -1.6896
  176DG     H16 4041   3.929   3.209   4.305  0.3616  2.1422  0.9531
  176DG     C17 4042   4.301   3.432   4.323  0.6345 -0.9490 -0.1946
  176DG     C18 4043   4.061   3.372   4.358  0.5506 -0.2006 -0.0410
  176DG     O19 4044   4.164   3.455   4.295  0.0102 -0.5889 -0.4855
  176DG     H20 4045   4.300   3.422   4.431 -0.6347 -2.7432 -0.3215
  176DG     H21 4046   4.309   3.328   4.290 -0.6801 -1.2959  0.4649
  176DG     H22 4047   3.972   3.434   4.363  0.4334 -0.4772  3.1269
  176DG     H23 4048   4.068   3.340   4.462  1.4393  1.2352  0.3677
  177DG      C1 4049   4.940   1.368   5.469 -0.3898  0.1661  0.1326
  177DG      C2 4050   5.148   1.152   5.912 -0.6611  0.2180  0.0209
  177DG      H3 4051   4.919   1.465   5.425 -2.6558  0.7870  2.3655
  177DG      H4 4052   4.877   1.344   5.555 -0.6959 -0.1266 -0.1690
  177DG      H5 4053   4.931   1.285   5.399 -0.2157 -0.6187  1.0262
  177DG      H6 4054   5.084   1.126   5.997 -1.6665 -1.1164 -1.0933
  177DG      H7 4055   5.137   1.259   5.895 -1.1519  0.1642 -0.0006
  177DG      H8 4056   5.106   1.094   5.830 -0.1191 -0.9672  0.5465
  177DG      O9 4057   5.077   1.344   5.502  0.4909  0.0239  0.3729
  177DG     O10 4058   5.292   1.127   5.934 -0.0690  0.0606 -0.2627
  177DG     C11 4059   5.119   1.452   5.591  0.2059 -0.3322  0.0041
  177DG     C12 4060   5.371   1.133   5.815 -0.4033 -0.3112 -0.1146
  177DG     H13 4061   5.056   1.453   5.680  0.8059  0.9213  0.4346
  177DG     H14 4062   5.107   1.550   5.545 -1.4795 -0.5882 -0.1948
  177DG     H15 4063   5.331   1.061   5.744 -3.1873  1.6935 -0.7497
  177DG     H16 4064   5.471   1.095   5.834 -0.4737 -0.4309  0.0142
  177DG     C17 4065   5.260   1.432   5.645 -0.5068  0.8376  0.1547
  177DG     C18 4066   5.393   1.275   5.761 -0.5232 -0.0257 -0.1061
  177DG     O19 4067   5.267   1.307   5.697  0.2197 -0.3935 -0.5588
  177DG     H20 4068   5.276   1.501   5.728  1.7000 -1.8219  2.0890
  177DG     H21 4069   5.336   1.466   5.573  0.7007  1.8529  1.8320
  177DG     H22 4070   5.419   1.353   5.832 -1.0549 -0.9611  1.1611
  177DG     H23 4071   5.470   1.272   5.684 -0.6768 -2.6408 -0.2328
  178DG      C1 4072   1.547   3.829   3.277 -0.3889  0.5006  0.0421
  178DG      C2 4073   1.309   3.290   2.809  0.0890 -0.1553  0.4413
  178DG      H3 4074   1.501   3.900   3.209  1.2757  0.0648 -1.6093
  178DG      H4 4075   1.641   3.871   3.316  0.5634 -2.0366  0.6393
  178DG      H5 4076   1.467   3.806   3.347 -1.8642 -1.9168 -2.2796
  178DG      H6 4077   1.312   3.203   2.744 -2.5018  0.3544 -0.4717
  178DG      H7 4078   1.207   3.288   2.845  0.0907 -0.8137  0.4251
  178DG      H8 4079   1.318   3.381   2.750  2.8153  0.2403  1.3142
  178DG      O9 4080   1.585   3.717   3.198 -0.0711 -0.6381  0.3505
  178DG     O10 4081   1.409   3.303   2.905  0.1028 -0.5878 -0.2160
  178DG     C11 4082   1.611   3.595   3.261 -0.0283 -0.0231 -0.0101
  178DG     C12 4083   1.543   3.313   2.863 -0.4685 -0.5814  0.1407
  178DG     H13 4084   1.518   3.567   3.310  0.2269  0.4207  0.7503
  178DG     H14 4085   1.688   3.606   3.338  0.9913 -0.6158 -0.9141
  178DG     H15 4086   1.546   3.389   2.785  0.3407  0.3162  1.0096
  178DG     H16 4087   1.577   3.218   2.821 -0.5601 -0.1689 -0.9013
  178DG     C17 4088   1.669   3.482   3.170 -0.2232 -0.8212 -0.1459
  178DG     C18 4089   1.631   3.340   2.982  0.0056 -0.1026 -0.1938
  178DG     O19 4090   1.577   3.446   3.067 -0.3455 -0.3856  1.0141
  178DG     H20 4091   1.679   3.391   3.230  0.4121  0.4724  1.7919
  178DG     H21 4092   1.768   3.513   3.139  0.2477 -2.7612 -0.7361
  178DG     H22 4093   1.654   3.245   3.031 -0.7660 -0.0247  0.3490
  178DG     H23 4094   1.722   3.381   2.941  0.0594  1.5071  1.4034
  179DG      C1 4095   4.536   1.078   1.422  0.1307  0.6665  0.4416
  179DG      C2 4096   3.868   1.067   1.302 -0.0050  0.1699  0.1144
  179DG      H3 4097   4.600   1.044   1.340 -3.0670 -1.6457 -1.3333
  179DG      H4 4098   4.519   0.993   1.488  3.9169  0.2383  1.1125
  179DG      H5 4099   4.571   1.154   1.492 -0.0198  0.9995  0.1574
  179DG      H6 4100   3.823   1.080   1.401 -0.7567 -2.2322  0.1714
  179DG      H7 4101   3.781   1.091   1.240  0.6025  0.6428 -0.5665
  179DG      H8 4102   3.891   0.960   1.300 -0.4832 -0.0069  1.8294
  179DG      O9 4103   4.421   1.129   1.362  0.5385  0.2828  0.2830
  179DG     O10 4104   3.980   1.158   1.272 -0.3959  0.7683 -0.4714
  179DG     C11 4105   4.457   1.218   1.261 -0.4711 -0.7508 -0.4132
  179DG     C12 4106   4.008   1.167   1.133  0.4318  0.1374  0.5844
  179DG     H13 4107   4.511   1.174   1.177  0.0090 -1.6366  0.3353
  179DG     H14 4108   4.530   1.290   1.297 -0.3067 -1.7765  1.4100
  179DG     H15 4109   3.917   1.202   1.083  0.2555  1.5070  1.8071
  179DG     H16 4110   4.030   1.072   1.084 -1.7445 -0.1865  0.1394
  179DG     C17 4111   4.340   1.291   1.195 -0.5054 -0.0379 -0.5720
  179DG     C18 4112   4.132   1.254   1.108  1.2069 -0.2245  0.1952
  179DG     O19 4113   4.235   1.201   1.187  0.8108 -0.5566  0.5040
  179DG     H20 4114   4.368   1.328   1.097 -1.4539  1.1308 -0.4294
  179DG     H21 4115   4.319   1.380   1.254 -1.7183 -0.4240 -0.3748
  179DG     H22 4116   4.150   1.275   1.002 -0.1271 -0.7917 -0.1648
  179DG     H23 4117   4.102   1.352   1.148  1.7618  0.3531 -0.7604
  180DG      C1 4118   1.291   4.551   3.028 -0.6479 -0.0714 -0.0178
  180DG      C2 4119   0.661   4.591   3.375 -0.6991 -0.0884  0.1414
  180DG      H3 4120   1.329   4.482   3.103  0.5270  2.1661  1.5829
  180DG      H4 4121   1.304   4.645   3.083 -0.3320 -1.0769  1.7107
  180DG      H5 4122   1.357   4.537   2.943  1.0124  0.3352  1.1693
  180DG      H6 4123   0.697   4.688   3.411 -0.2067  0.3513 -1.4506
  180DG      H7 4124   0.572   4.613   3.316 -0.2237 -2.0219 -1.3788
  180DG      H8 4125   0.636   4.535   3.465  0.8770  2.4188  2.2776
  180DG      O9 4126   1.154   4.531   2.997 -0.1520  0.2702 -0.2937
  180DG     O10 4127   0.764   4.525   3.292  1.0039 -0.4450  0.0446
  180DG     C11 4128   1.123   4.395   2.989  0.1559 -0.2306  0.3035
  180DG     C12 4129   0.738   4.389   3.283 -0.4004  0.2760 -0.0028
  180DG     H13 4130   1.168   4.331   3.065  0.8426 -0.0960  0.0097
  180DG     H14 4131   1.171   4.355   2.901 -0.0289 -0.7097  0.4202
  180DG     H15 4132   0.634   4.359   3.291 -0.7104  1.4017  0.3884
  180DG     H16 4133   0.792   4.330   3.358 -3.3834 -0.5042  1.6775
  180DG     C17 4134   0.975   4.372   2.986 -0.4630 -0.0395 -0.6188
  180DG     C18 4135   0.788   4.353   3.142  0.4365  0.1014  0.0038
  180DG     O19 4136   0.924   4.398   3.119 -0.1927 -0.5171 -0.3018
  180DG     H20 4137   0.962   4.267   2.958  1.5239  0.0356 -2.0085
  180DG     H21 4138   0.920   4.432   2.913 -0.8117 -0.3312 -0.6004
  180DG     H22 4139   0.768   4.247   3.128 -0.3682  0.3142 -0.5327
  180DG     H23 4140   0.728   4.418   3.079 -1.5565  0.1061  1.7863
  181DG      C1 4141   2.864   0.880   4.161  0.2353 -0.2698  0.6432
  181DG      C2 4142   2.882   1.285   4.943  0.6878 -0.2530  0.7617
  181DG      H3 4143   2.883   0.785   4.211 -2.0994 -1.1709 -0.0349
  181DG      H4 4144   2.960   0.928   4.148  0.5860 -1.5979 -2.7115
  181DG      H5 4145   2.817   0.869   4.064 -1.7903 -0.6195  1.6103
  181DG      H6 4146   2.799   1.349   4.974  1.2552  0.7405  0.2815
  181DG      H7 4147   2.917   1.217   5.021  0.1639 -1.7326 -0.2534
  181DG      H8 4148   2.968   1.350   4.926  1.4752 -1.4402  0.0808
  181DG      O9 4149   2.772   0.947   4.251 -0.3428  0.3944 -0.5686
  181DG     O10 4150   2.853   1.217   4.817  0.0493  0.3166 -0.3295
  181DG     C11 4151   2.822   0.945   4.383  0.0329  0.1924 -0.1495
  181DG     C12 4152   2.735   1.132   4.820  0.0985 -0.2646 -0.7738
  181DG     H13 4153   2.909   1.010   4.388 -2.8193  4.3463  0.4055
  181DG     H14 4154   2.834   0.847   4.431 -2.7878 -0.2393 -0.1242
  181DG     H15 4155   2.658   1.184   4.878  0.9935 -0.0887  0.2814
  181DG     H16 4156   2.748   1.039   4.876 -0.1242 -1.1329 -2.1249
  181DG     C17 4157   2.715   1.021   4.464 -1.0729 -0.7934  0.1499
  181DG     C18 4158   2.675   1.107   4.679 -0.3370  0.1234  0.3893
  181DG     O19 4159   2.771   1.050   4.593  0.5747 -0.0027  0.5629
  181DG     H20 4160   2.625   0.961   4.467 -1.5650 -0.2693 -1.9764
  181DG     H21 4161   2.675   1.110   4.415 -0.4369 -2.4395 -3.7870
  181DG     H22 4162   2.593   1.036   4.688 -1.3529  1.1804 -0.3408
  181DG     H23 4163   2.639   1.200   4.634  1.7416  1.1256  0.6380
  182DG      C1 4164   2.255   2.963   0.502  1.0952  0.7599 -0.3157
  182DG      C2 4165   1.796   3.280   0.887  0.0789 -0.2609  0.2118
  182DG      H3 4166   2.298   3.010   0.591  1.8188 -1.0478  0.3351
  182DG      H4 4167   2.249   3.035   0.420 -1.4224 -0.1496 -1.0048
  182DG      H5 4168   2.313   2.878   0.467 -0.0763  0.2255 -1.0278
  182DG      H6 4169   1.866   3.328   0.955 -1.7054 -0.0639  2.0146
  182DG      H7 4170   1.794   3.324   0.787  2.6851 -2.0692 -0.7383
  182DG      H8 4171   1.703   3.306   0.938  0.3133  0.9103  0.0819
  182DG      O9 4172   2.114   2.920   0.530 -0.3243  0.1575  0.6738
  182DG     O10 4173   1.821   3.139   0.867 -0.2835 -0.3396 -0.0761
  182DG     C11 4174   2.111   2.844   0.657 -0.0822  0.1284 -0.0793
  182DG     C12 4175   1.734   3.088   0.774 -0.2391  0.3090 -0.3154
  182DG     H13 4176   2.169   2.896   0.733 -0.5134  2.2646 -1.1279
  182DG     H14 4177   2.162   2.749   0.637 -0.1143 -0.5299  2.6294
  182DG     H15 4178   1.755   3.126   0.674  1.0247 -1.0783 -0.6262
  182DG     H16 4179   1.630   3.106   0.802 -0.3657 -0.7388 -0.0405
  182DG     C17 4180   1.968   2.809   0.713 -0.1541  0.2410  0.0214
  182DG     C18 4181   1.767   2.940   0.762  0.6481  0.5659  0.1977
  182DG     O19 4182   1.897   2.933   0.704  0.2327  1.0183 -1.1804
  182DG     H20 4183   1.960   2.758   0.809  0.0362 -0.7695 -0.4792
  182DG     H21 4184   1.924   2.748   0.634 -1.3440  2.7667 -1.3696
  182DG     H22 4185   1.760   2.889   0.858  1.0467 -0.5499 -0.3558
  182DG     H23 4186   1.702   2.884   0.694  1.3516 -2.6922  2.0063
  183DG      C1 4187   3.522   2.096   1.161  0.5264  0.3645 -0.0549
  183DG      C2 4188   4.114   2.311   0.587  0.2037  0.2437  0.3923
  183DG      H3 4189   3.607   2.087   1.229 -1.6778  1.4884  3.0775
  183DG      H4 4190   3.440   2.037   1.201 -0.5146  2.3533  0.8946
  183DG      H5 4191   3.499   2.202   1.172  2.5707  0.8369  0.1004
  183DG      H6 4192   4.077   2.394   0.527 -2.0628 -1.3443 -0.5771
  183DG      H7 4193   4.158   2.367   0.669 -1.0316  0.3492  1.0132
  183DG      H8 4194   4.188   2.256   0.529  0.0148  0.3747  0.0226
  183DG      O9 4195   3.559   2.050   1.028  0.7650  0.3895 -0.0198
  183DG     O10 4196   3.999   2.235   0.626  0.5941  0.4136 -0.5066
  183DG     C11 4197   3.644   2.133   0.964  0.1903  0.0392  0.3493
  183DG     C12 4198   4.029   2.118   0.706  0.4498 -0.0203 -0.3214
  183DG     H13 4199   3.722   2.170   1.031 -0.0422  0.4878  0.3778
  183DG     H14 4200   3.592   2.220   0.924 -3.2587 -1.4480  1.1840
  183DG     H15 4201   4.081   2.146   0.798 -1.6287  0.9139  0.6551
  183DG     H16 4202   4.108   2.065   0.653  1.6648  1.5506 -0.1842
  183DG     C17 4203   3.703   2.042   0.862 -0.1453 -0.1514  0.6261
  183DG     C18 4204   3.904   2.038   0.743  0.3602 -0.4495  0.7614
  183DG     O19 4205   3.809   2.114   0.811 -0.5083 -0.2219  0.3088
  183DG     H20 4206   3.626   2.018   0.788  0.3499  2.2121 -0.7742
  183DG     H21 4207   3.739   1.960   0.924  0.8540  0.6267  1.1024
  183DG     H22 4208   3.849   2.008   0.654 -1.4999  1.6150  1.1155
  183DG     H23 4209   3.931   1.955   0.808 -0.4186  0.8007  2.7633
  184DG      C1 4210   5.200   1.572   3.280 -0.5179  0.3121 -0.1887
  184DG      C2 4211   4.526   1.765   3.584 -0.0629  0.2442  0.1181
  184DG      H3 4212   5.258   1.508   3.213 -1.5934 -0.5734 -0.2928
  184DG      H4 4213   5.244   1.574   3.380  1.9549 -1.2272 -1.1475
  184DG      H5 4214   5.214   1.679   3.263 -4.7094  1.1618  0.5066
  184DG      H6 4215   4.589   1.798   3.667  0.4906  0.3131 -0.3240
  184DG      H7 4216   4.499   1.855   3.528 -0.1916  0.0616 -0.1126
  184DG      H8 4217   4.434   1.722   3.624  0.3262  2.0537  3.3114
  184DG      O9 4218   5.064   1.554   3.281 -0.2363 -0.2929  0.2687
  184DG     O10 4219   4.599   1.671   3.506 -0.6561 -0.2748  0.4587
  184DG     C11 4220   5.026   1.419   3.292 -0.4013 -0.0911 -0.5650
  184DG     C12 4221   4.644   1.545   3.566 -0.6231 -0.1808 -0.3685
  184DG     H13 4222   5.075   1.380   3.381 -1.5165 -1.3220 -0.4679
  184DG     H14 4223   5.073   1.369   3.207  1.5047  0.2129  0.2683
  184DG     H15 4224   4.566   1.486   3.613  1.1678 -1.7264  0.7884
  184DG     H16 4225   4.716   1.567   3.644 -1.7051  0.9740  0.3454
  184DG     C17 4226   4.872   1.409   3.317 -0.0815 -0.1012  0.9716
  184DG     C18 4227   4.693   1.460   3.454 -0.3929  0.2685 -0.1398
  184DG     O19 4228   4.828   1.495   3.425  0.4301  0.4537  0.3357
  184DG     H20 4229   4.850   1.303   3.331  0.0361  0.0858  2.8443
  184DG     H21 4230   4.818   1.433   3.226  0.7758  0.2316  0.5318
  184DG     H22 4231   4.695   1.361   3.498 -1.3098  1.0285  1.7547
  184DG     H23 4232   4.633   1.473   3.363  1.0833 -1.7087 -1.4646
  185DG      C1 4233   3.600   4.766   0.939 -0.4242  0.3115  0.5055
  185DG      C2 4234   4.209   4.441   0.843 -0.3862  0.6153 -0.5438
  185DG      H3 4235   3.497   4.765   0.974 -0.5453 -1.3857  0.2172
  185DG      H4 4236   3.624   4.843   0.866  1.8702  0.2486  1.1266
  185DG      H5 4237   3.665   4.800   1.019  1.6842 -1.5067 -0.3244
  185DG      H6 4238   4.273   4.497   0.911  0.2891  1.1086 -1.5654
  185DG      H7 4239   4.248   4.341   0.823  0.3944  0.6371  0.7367
  185DG      H8 4240   4.224   4.499   0.752  1.8546 -0.3791 -0.8659
  185DG      O9 4241   3.652   4.637   0.906 -0.0182  0.4812 -0.5775
  185DG     O10 4242   4.070   4.447   0.893 -0.1615 -0.1753  0.1332
  185DG     C11 4243   3.599   4.520   0.980 -0.1044  1.2729 -0.3861
  185DG     C12 4244   4.052   4.370   1.008  0.1154  0.7251 -0.6487
  185DG     H13 4245   3.561   4.437   0.922 -0.3433  0.2059  1.2418
  185DG     H14 4246   3.520   4.557   1.047 -1.0399 -2.2330  0.6658
  185DG     H15 4247   4.129   4.374   1.086 -1.4950 -0.9798  1.1146
  185DG     H16 4248   4.032   4.265   0.989 -2.4458  1.1029 -0.4276
  185DG     C17 4249   3.709   4.460   1.060 -0.2176  0.0315  0.4575
  185DG     C18 4250   3.926   4.427   1.076 -0.3389  0.8125  0.0305
  185DG     O19 4251   3.822   4.434   0.981 -0.0559  0.2323 -0.6194
  185DG     H20 4252   3.673   4.371   1.111 -0.5618 -0.7767 -1.1354
  185DG     H21 4253   3.718   4.538   1.135 -2.5959  1.6598 -0.8306
  185DG     H22 4254   3.897   4.361   1.158 -1.5494 -2.6587 -2.8719
  185DG     H23 4255   3.957   4.527   1.105  3.9620 -0.0452 -0.8574
  186DG      C1 4256   0.801   0.871   2.503  0.1348  0.1935 -0.0968
  186DG      C2 4257   0.360   0.667   3.041  0.6753 -0.3112 -0.3846
  186DG      H3 4258   0.879   0.812   2.552  0.7278  0.6518 -0.4756
  186DG      H4 4259   0.810   0.975   2.535  2.4460 -0.1221  0.4477
  186DG      H5 4260   0.821   0.873   2.396 -2.5619  0.3794 -0.6811
  186DG      H6 4261   0.419   0.596   3.100 -0.9215 -0.4158  1.1745
  186DG      H7 4262   0.377   0.771   3.068 -0.5705 -0.0173 -0.7035
  186DG      H8 4263   0.257   0.637   3.062  0.3909  0.2646 -0.9583
  186DG      O9 4264   0.667   0.818   2.524 -0.1731 -0.5082  0.3702
  186DG     O10 4265   0.375   0.626   2.901  0.6761  0.0312  0.0735
  186DG     C11 4266   0.665   0.678   2.517  0.4666  0.2749  0.5070
  186DG     C12 4267   0.290   0.688   2.809  0.0674  0.4030  0.1091
  186DG     H13 4268   0.709   0.634   2.606 -0.6454  0.5388  1.2089
  186DG     H14 4269   0.708   0.642   2.424 -1.8134 -1.6004  0.0865
  186DG     H15 4270   0.297   0.797   2.809 -1.6712  0.5477  0.4806
  186DG     H16 4271   0.184   0.667   2.822  0.2266 -0.3262  0.2999
  186DG     C17 4272   0.524   0.628   2.521 -0.0573 -0.4267 -0.4290
  186DG     C18 4273   0.341   0.643   2.672  0.2752  0.1436 -0.3234
  186DG     O19 4274   0.478   0.677   2.650 -0.5266  0.2144  0.5287
  186DG     H20 4275   0.520   0.519   2.518 -0.0605 -0.4744  0.8706
  186DG     H21 4276   0.469   0.659   2.432  1.8175  3.2551 -0.4991
  186DG     H22 4277   0.336   0.534   2.666 -0.4947  0.1920 -0.6258
  186DG     H23 4278   0.284   0.688   2.591  2.5148  2.6008 -0.6932
  187DG      C1 4279   4.955   0.963   2.435  0.1547  0.3289 -0.2017
  187DG      C2 4280   4.555   1.005   1.830  0.2341 -0.0071 -0.3126
  187DG      H3 4281   5.058   0.954   2.400  0.2420 -0.1999  0.1857
  187DG      H4 4282   4.908   0.865   2.443  0.2239  0.2641 -0.5533
  187DG      H5 4283   4.948   1.012   2.532 -0.7692 -1.4021  0.6635
  187DG      H6 4284   4.577   0.900   1.846  0.0012 -0.6002 -3.2592
  187DG      H7 4285   4.449   1.013   1.854 -0.0071 -2.1783 -0.4511
  187DG      H8 4286   4.586   1.030   1.729  0.7483  1.3546  0.1612
  187DG      O9 4287   4.867   1.027   2.348  0.8842 -0.1729  0.0660
  187DG     O10 4288   4.624   1.092   1.920  0.3244  0.4669  0.1780
  187DG     C11 4289   4.930   1.149   2.313 -0.0425  0.2921 -0.7136
  187DG     C12 4290   4.760   1.076   1.919 -0.4357 -0.2584  0.0744
  187DG     H13 4291   5.013   1.125   2.247  0.8180 -0.4517  0.5990
  187DG     H14 4292   4.965   1.199   2.404  0.9662 -2.0920  0.2939
  187DG     H15 4293   4.810   1.088   1.823 -1.8085 -0.6246 -0.7134
  187DG     H16 4294   4.783   0.974   1.949  1.4298 -0.2815 -1.3027
  187DG     C17 4295   4.824   1.235   2.253  0.2623  0.3595  0.2712
  187DG     C18 4296   4.815   1.186   2.020  0.6011  0.4727 -0.6035
  187DG     O19 4297   4.746   1.178   2.148 -0.1027 -0.1174 -0.6687
  187DG     H20 4298   4.872   1.328   2.223  0.6914 -0.1182 -0.5691
  187DG     H21 4299   4.762   1.262   2.338  0.2085 -2.0598  1.0887
  187DG     H22 4300   4.917   1.155   2.043  0.0463 -1.1889 -0.2399
  187DG     H23 4301   4.807   1.286   1.977  2.4802  1.7923  1.8064
  188DG      C1 4302   1.839   3.714   0.550 -0.1240 -0.6373  0.4012
  188DG      C2 4303   2.429   3.456   0.194 -0.2480 -0.1082 -0.0375
  188DG      H3 4304   1.787   3.690   0.458 -0.4040 -0.5529  0.5360
  188DG      H4 4305   1.785   3.797   0.596  2.0575  1.7175 -1.0153
  188DG      H5 4306   1.820   3.622   0.605 -0.7535 -1.0686 -0.5313
  188DG      H6 4307   2.352   3.388   0.159  0.4260 -0.2224 -1.3425
  188DG      H7 4308   2.503   3.476   0.117  2.4794 -2.7480  1.6875
  188DG      H8 4309   2.500   3.403   0.257 -1.5014 -0.2861  1.2903
  188DG      O9 4310   1.975   3.731   0.540 -0.1490 -1.0330  0.1817
  188DG     O10 4311   2.388   3.569   0.264  0.3725  0.1143  0.2804
  188DG     C11 4312   2.001   3.846   0.461  1.0003 -0.4506  0.4737
  188DG     C12 4313   2.339   3.671   0.172 -0.2747  0.1801 -0.0260
  188DG     H13 4314   1.958   3.933   0.511 -2.1608 -2.0937  0.8933
  188DG     H14 4315   1.944   3.836   0.369 -1.0153  1.0012  1.4979
  188DG     H15 4316   2.251   3.632   0.122 -0.3439 -1.1320  1.0513
  188DG     H16 4317   2.421   3.693   0.104 -0.4217 -1.6257 -0.8370
  188DG     C17 4318   2.154   3.865   0.428  0.4009 -0.1799  0.2095
  188DG     C18 4319   2.297   3.791   0.255 -0.0743  0.3302 -0.4228
  188DG     O19 4320   2.199   3.755   0.352 -0.0253  0.0679 -0.0071
  188DG     H20 4321   2.204   3.868   0.525 -0.1301  0.1537  0.4789
  188DG     H21 4322   2.163   3.963   0.382  1.6309  0.5432  1.8914
  188DG     H22 4323   2.390   3.825   0.300 -0.7982  2.2187 -0.2634
  188DG     H23 4324   2.251   3.855   0.180  2.3519  1.3174 -1.1550
  189DG      C1 4325   0.726   4.518   5.121  0.2173 -0.2023  0.4079
  189DG      C2 4326   0.570   3.877   5.104 -0.5077  0.0040 -0.4397
  189DG      H3 4327   0.756   4.492   5.222 -0.8788 -0.3058  0.7140
  189DG      H4 4328   0.668   4.609   5.129  3.1604  2.1886 -2.5351
  189DG      H5 4329   0.813   4.536   5.057  0.6219 -0.0727  0.9833
  189DG      H6 4330   0.580   3.867   5.212  0.9226  0.4276 -0.5110
  189DG      H7 4331   0.525   3.789   5.060 -3.5000  1.9160 -1.5218
  189DG      H8 4332   0.667   3.901   5.061 -0.7923  0.0538 -1.0509
  189DG      O9 4333   0.634   4.424   5.075  0.0628 -0.6518  0.1505
  189DG     O10 4334   0.488   3.994   5.079  0.0017  0.1210 -0.5881
  189DG     C11 4335   0.600   4.435   4.937 -0.2164 -0.2925  0.4817
  189DG     C12 4336   0.436   4.001   4.945 -0.0251 -0.1475  0.3566
  189DG     H13 4337   0.687   4.409   4.877 -0.8469  0.0324 -0.5962
  189DG     H14 4338   0.579   4.535   4.899 -1.1013 -0.4264  0.5864
  189DG     H15 4339   0.352   3.934   4.931 -0.7957  1.1523 -1.7185
  189DG     H16 4340   0.508   3.974   4.867 -0.8988 -1.9680  0.1359
  189DG     C17 4341   0.481   4.351   4.895 -0.2130 -0.0150 -0.1802
  189DG     C18 4342   0.384   4.143   4.907  0.0338 -0.6426 -0.2848
  189DG     O19 4343   0.492   4.219   4.933  0.4393  0.2837  0.6339
  189DG     H20 4344   0.472   4.363   4.787 -1.3866 -0.6507 -0.1750
  189DG     H21 4345   0.389   4.397   4.932  1.6630  1.3310  3.2925
  189DG     H22 4346   0.348   4.148   4.804  0.2304  0.7296 -0.3008
  189DG     H23 4347   0.302   4.176   4.971 -0.3664 -0.7474 -0.7316
  190DG      C1 4348   1.005   0.494   1.574  0.0707 -0.1113  0.5208
  190DG      C2 4349   0.500   0.933   1.341  0.3087 -0.7402  0.3118
  190DG      H3 4350   1.021   0.515   1.679 -1.9389  1.4663  0.5779
  190DG      H4 4351   1.084   0.434   1.529 -0.4934 -0.0094 -0.6598
  190DG      H5 4352   0.920   0.429   1.557  0.5487 -0.9140  1.1519
  190DG      H6 4353   0.451   0.983   1.258  1.1359 -2.2669 -1.1727
  190DG      H7 4354   0.429   0.856   1.371  1.9219 -1.5582  2.2582
  190DG      H8 4355   0.513   1.001   1.425 -2.6399  0.0128  0.2586
  190DG      O9 4356   0.993   0.620   1.505 -0.4404  0.6359  0.2604
  190DG     O10 4357   0.634   0.880   1.316 -0.4482  0.2999 -0.2117
  190DG     C11 4358   1.003   0.605   1.366  0.4811  0.7298  0.5103
  190DG     C12 4359   0.721   0.960   1.238  0.6582 -0.3204 -0.1018
  190DG     H13 4360   0.927   0.532   1.339  2.5065 -1.8598  1.3810
  190DG     H14 4361   1.094   0.559   1.327  0.2376  1.9808 -1.6827
  190DG     H15 4362   0.723   1.055   1.291 -1.1294  0.1603 -0.8110
  190DG     H16 4363   0.675   0.991   1.144 -0.1396 -1.7458 -0.2076
  190DG     C17 4364   1.023   0.746   1.298  0.0339  0.6552 -0.2245
  190DG     C18 4365   0.859   0.899   1.219 -0.6073 -0.7901  0.5431
  190DG     O19 4366   0.892   0.809   1.324  0.1511  0.5195 -0.0807
  190DG     H20 4367   1.037   0.733   1.190  0.6667  1.6585 -0.2713
  190DG     H21 4368   1.112   0.801   1.326 -0.0526 -0.0040  1.4220
  190DG     H22 4369   0.862   0.850   1.122 -0.6800  0.2217  0.0095
  190DG     H23 4370   0.933   0.978   1.204 -0.7794 -0.8062 -0.4835
  191DG      C1 4371   5.045   3.850   1.333 -0.1198  0.1273  0.2338
  191DG      C2 4372   5.597   3.937   0.619  0.3369 -0.1157  0.8820
  191DG      H3 4373   5.126   3.817   1.397 -0.3564 -1.3839 -0.2019
  191DG      H4 4374   4.956   3.795   1.365  0.7244 -1.3672  0.0928
  191DG      H5 4375   5.027   3.957   1.339  0.1950  0.1179  1.6735
  191DG      H6 4376   5.524   3.858   0.599 -0.8221  1.2756 -0.6093
  191DG      H7 4377   5.563   4.031   0.577 -0.0365 -0.8399 -0.4825
  191DG      H8 4378   5.687   3.905   0.567 -0.8456  0.5123 -1.6849
  191DG      O9 4379   5.095   3.812   1.204  0.3790 -1.0367  0.0223
  191DG     O10 4380   5.639   3.944   0.756  0.2558  0.5032  0.2120
  191DG     C11 4381   5.197   3.898   1.158  1.1614  0.8132  0.2131
  191DG     C12 4382   5.542   3.991   0.842 -0.7588 -0.8727 -0.3801
  191DG     H13 4383   5.276   3.915   1.231  0.4476  0.7033  1.0216
  191DG     H14 4384   5.146   3.993   1.142 -1.2246  0.4917  4.4071
  191DG     H15 4385   5.498   4.079   0.795 -1.0914 -1.7111 -1.7212
  191DG     H16 4386   5.594   4.034   0.927 -0.2798 -0.0167 -1.0881
  191DG     C17 4387   5.265   3.847   1.024 -0.4191  0.3222 -0.3409
  191DG     C18 4388   5.436   3.883   0.878  0.8167  0.0656 -0.8020
  191DG     O19 4389   5.370   3.931   0.993 -0.3568  0.2022 -0.0776
  191DG     H20 4390   5.198   3.834   0.939  1.3363 -0.1825 -1.7003
  191DG     H21 4391   5.303   3.747   1.047  0.7625  1.1109  1.2834
  191DG     H22 4392   5.360   3.879   0.800  0.7199 -4.3842 -0.7408
  191DG     H23 4393   5.479   3.783   0.883 -0.4020 -0.7601 -4.0461
  192DG      C1 4394   1.298   5.080   5.092 -0.0447 -0.6688 -1.1357
  192DG      C2 4395   0.985   4.957   4.529  0.7972  0.5151  0.0794
  192DG      H3 4396   1.290   4.987   5.148 -0.8023  0.0201 -0.0373
  192DG      H4 4397   1.198   5.124   5.095 -0.2833 -1.2254 -0.2930
  192DG      H5 4398   1.363   5.142   5.154 -0.4784  0.1028 -1.4322
  192DG      H6 4399   0.931   5.043   4.569  0.6191  0.3936  0.1018
  192DG      H7 4400   0.989   4.958   4.420  0.2830  1.7856  0.0511
  192DG      H8 4401   0.949   4.862   4.569 -0.3477  0.2098 -1.5469
  192DG      O9 4402   1.359   5.053   4.964 -0.2193  0.6528 -0.4004
  192DG     O10 4403   1.115   4.987   4.589 -0.2593 -0.0817  0.5339
  192DG     C11 4404   1.430   5.155   4.899 -0.4871 -0.2669 -0.3271
  192DG     C12 4405   1.222   4.910   4.540  0.2239  0.6331 -0.2097
  192DG     H13 4406   1.512   5.196   4.957 -1.7984 -0.1163  1.5156
  192DG     H14 4407   1.362   5.238   4.881 -1.5749 -0.0433  3.7091
  192DG     H15 4408   1.214   4.907   4.431  1.5635  0.3971 -0.3123
  192DG     H16 4409   1.224   4.806   4.574 -0.3914  0.9304  0.7541
  192DG     C17 4410   1.446   5.108   4.760 -0.0644  0.2582 -0.5320
  192DG     C18 4411   1.357   4.969   4.591 -0.2162 -0.4813  0.3453
  192DG     O19 4412   1.336   5.034   4.715  0.3791  0.0084 -0.0887
  192DG     H20 4413   1.530   5.039   4.763 -0.0954  0.2536  0.3379
  192DG     H21 4414   1.468   5.192   4.694  0.8796  0.7679  0.4114
  192DG     H22 4415   1.422   4.882   4.600 -0.2298 -0.4521  0.7889
  192DG     H23 4416   1.401   5.044   4.525 -3.9339 -1.1253 -3.2757
  193DG      C1 4417   2.862   0.968   0.159 -0.5533 -1.2494 -0.2856
  193DG      C2 4418   3.555   0.877   0.524 -0.4817  0.1115  0.2423
  193DG      H3 4419   2.771   0.910   0.147 -1.1570 -0.3178 -0.3267
  193DG      H4 4420   2.936   0.928   0.090  0.2833 -0.5286  0.1708
  193DG      H5 4421   2.843   1.067   0.117 -1.8157 -0.8827  1.0394
  193DG      H6 4422   3.568   0.784   0.467  0.3318 -0.2117  0.9405
  193DG      H7 4423   3.634   0.942   0.487 -0.4202 -0.7851 -1.3011
  193DG      H8 4424   3.575   0.850   0.627  0.3125 -2.0233 -0.4055
  193DG      O9 4425   2.933   0.974   0.284 -0.2280 -0.5217  0.4857
  193DG     O10 4426   3.426   0.940   0.520 -0.4054 -0.2058  0.4153
  193DG     C11 4427   3.035   1.068   0.283 -0.0784  0.0037  0.3968
  193DG     C12 4428   3.323   0.872   0.594 -0.2385  0.1726 -0.2854
  193DG     H13 4429   3.000   1.160   0.236 -0.9031 -0.1674  0.6632
  193DG     H14 4430   3.116   1.036   0.217 -0.4800 -2.3310  0.9549
  193DG     H15 4431   3.367   0.845   0.689  0.5008  1.3688 -0.2673
  193DG     H16 4432   3.297   0.775   0.551  0.5489 -0.5484  0.8283
  193DG     C17 4433   3.094   1.085   0.422 -0.1006 -0.0851 -0.9152
  193DG     C18 4434   3.205   0.968   0.593 -0.1280 -0.0574  0.4010
  193DG     O19 4435   3.152   0.961   0.465  0.0830  0.1930  0.2196
  193DG     H20 4436   3.010   1.119   0.483  1.0252  2.0384 -0.4530
  193DG     H21 4437   3.162   1.170   0.417 -0.1514 -0.1115 -3.1657
  193DG     H22 4438   3.129   0.950   0.669  1.8204 -2.1970  2.0056
  193DG     H23 4439   3.255   1.063   0.612 -0.5350  0.3123 -0.3254
  194DG      C1 4440   4.377   4.679   5.319 -0.0896 -0.3299 -0.2719
  194DG      C2 4441   4.473   5.151   5.735 -0.1689  0.9254 -0.2792
  194DG      H3 4442   4.461   4.609   5.319  0.8915  0.4289  4.9773
  194DG      H4 4443   4.351   4.701   5.216  0.2968  0.0306 -0.2945
  194DG      H5 4444   4.288   4.641   5.370 -2.0734  1.0700 -2.4740
  194DG      H6 4445   4.519   5.244   5.769  0.9739  0.5336 -0.6801
  194DG      H7 4446   4.384   5.121   5.790  0.4755 -0.1052  0.2624
  194DG      H8 4447   4.556   5.082   5.752 -1.3304 -0.9052 -1.6909
  194DG      O9 4448   4.432   4.805   5.366 -0.1538 -0.0557 -0.1081
  194DG     O10 4449   4.436   5.152   5.600  0.2953 -0.6177 -0.2454
  194DG     C11 4450   4.509   4.867   5.269 -0.1618  0.5513  0.7170
  194DG     C12 4451   4.535   5.218   5.523 -0.0522 -0.1344  0.3075
  194DG     H13 4452   4.446   4.888   5.182 -0.3213  0.8794  0.9087
  194DG     H14 4453   4.583   4.796   5.231 -0.4572  0.9974 -0.7788
  194DG     H15 4454   4.635   5.178   5.539 -0.7078 -1.3774  1.5107
  194DG     H16 4455   4.547   5.321   5.558  0.8141 -0.0686 -0.1828
  194DG     C17 4456   4.569   5.004   5.308  0.1888 -0.5504  0.2308
  194DG     C18 4457   4.505   5.224   5.371  0.1130 -0.1783 -0.5729
  194DG     O19 4458   4.463   5.098   5.323  0.8410  0.8333  0.5236
  194DG     H20 4459   4.621   5.054   5.227  1.1685  1.2764  1.9089
  194DG     H21 4460   4.639   5.009   5.391 -0.8653  2.0356  1.0666
  194DG     H22 4461   4.420   5.291   5.351  0.4398  0.5809  0.4983
  194DG     H23 4462   4.592   5.259   5.316  1.3920 -0.2356  1.3310
  195DG      C1 4463   2.437   0.450   4.654  0.4302  0.2183  0.2231
  195DG      C2 4464   1.825   0.440   4.611 -0.5119 -0.2853 -0.6804
  195DG      H3 4465   2.407   0.526   4.582 -0.8164  2.4571  2.9125
  195DG      H4 4466   2.506   0.374   4.617  0.0019  1.3300 -3.1611
  195DG      H5 4467   2.496   0.493   4.735  0.1357 -1.2935  1.2900
  195DG      H6 4468   1.847   0.362   4.539  1.2364  1.7576 -2.4880
  195DG      H7 4469   1.720   0.467   4.625 -0.3944 -0.0692 -0.1782
  195DG      H8 4470   1.854   0.531   4.559 -2.0180  0.7278  0.1535
  195DG      O9 4471   2.318   0.385   4.701  0.0355 -0.0180 -0.0198
  195DG     O10 4472   1.907   0.423   4.729  0.0960 -0.2357  0.1480
  195DG     C11 4473   2.324   0.278   4.798 -0.3528 -0.1380 -0.5606
  195DG     C12 4474   1.889   0.298   4.783 -0.4545  0.0480 -0.0267
  195DG     H13 4475   2.374   0.321   4.884  0.8763 -0.2737 -1.1747
  195DG     H14 4476   2.391   0.201   4.758 -3.1455 -2.0753 -1.8926
  195DG     H15 4477   1.915   0.219   4.712  2.4647 -0.8877  1.8882
  195DG     H16 4478   1.785   0.276   4.808 -0.8346  0.0136 -1.5283
  195DG     C17 4479   2.191   0.226   4.838 -0.5032 -0.8953  0.3913
  195DG     C18 4480   1.976   0.284   4.906 -0.1294 -0.7924  0.0734
  195DG     O19 4481   2.104   0.333   4.878  0.3270 -0.3219 -0.4698
  195DG     H20 4482   2.196   0.150   4.916  0.1647 -0.6835  0.5588
  195DG     H21 4483   2.154   0.171   4.752  2.2085  0.5148 -1.8413
  195DG     H22 4484   1.926   0.330   4.992 -3.6987 -4.1701  0.1013
  195DG     H23 4485   1.990   0.185   4.949  0.7965 -0.2343  1.1209
  196DG      C1 4486   4.327   1.258   4.640 -0.1525 -0.4986 -0.2014
  196DG      C2 4487   5.057   1.212   4.400  0.2093 -0.3491  0.2847
  196DG      H3 4488   4.241   1.247   4.575 -2.6525  1.4720  2.5100
  196DG      H4 4489   4.344   1.364   4.624 -1.5599 -0.2673 -0.2873
  196DG      H5 4490   4.302   1.227   4.742  1.6026  2.0294  1.1152
  196DG      H6 4491   5.087   1.281   4.478 -0.3913  0.9995 -0.6422
  196DG      H7 4492   5.156   1.187   4.361 -0.0366 -0.4949 -0.2618
  196DG      H8 4493   5.003   1.269   4.324  0.0836 -1.2550 -0.3313
  196DG      O9 4494   4.440   1.195   4.585  0.0634  0.0083 -0.3460
  196DG     O10 4495   4.986   1.102   4.449  0.2937  0.0438 -0.4213
  196DG     C11 4496   4.445   1.062   4.623  0.4910 -0.1491 -0.4476
  196DG     C12 4497   4.881   1.146   4.538 -0.5598  0.5864 -0.5644
  196DG     H13 4498   4.359   1.000   4.598 -0.1098 -0.3040  1.7725
  196DG     H14 4499   4.443   1.064   4.732  1.3880 -0.2421 -0.4231
  196DG     H15 4500   4.803   1.205   4.489 -0.7504  2.1754  1.5141
  196DG     H16 4501   4.921   1.181   4.633 -2.0280 -0.5665  0.5427
  196DG     C17 4502   4.568   0.994   4.571 -0.0726 -0.3170 -0.6973
  196DG     C18 4503   4.807   1.010   4.570 -0.1240 -0.3270  0.2970
  196DG     O19 4504   4.685   1.043   4.636  0.1399 -0.1521 -0.0393
  196DG     H20 4505   4.558   0.982   4.463 -1.0316 -0.0286 -0.6476
  196DG     H21 4506   4.577   0.890   4.601 -1.0509 -0.7087 -1.7227
  196DG     H22 4507   4.789   0.944   4.485 -1.3710 -0.4386  0.6273
  196DG     H23 4508   4.871   0.956   4.640  1.5027  0.2558 -0.6686
  197DG      C1 4509   4.535   0.489   4.748 -0.1322 -0.1598 -0.1353
  197DG      C2 4510   4.136   0.392   4.098 -0.0065  0.3031 -0.3802
  197DG      H3 4511   4.621   0.537   4.795  1.3568 -2.9991  0.2867
  197DG      H4 4512   4.504   0.404   4.809 -1.9215 -0.2710 -1.1254
  197DG      H5 4513   4.457   0.562   4.771  0.5052  0.6193 -0.4016
  197DG      H6 4514   4.129   0.369   3.992  0.8616 -0.5394 -0.2734
  197DG      H7 4515   4.057   0.338   4.150  1.4145 -0.2084  1.3508
  197DG      H8 4516   4.101   0.494   4.113  0.4555  0.5070 -0.6421
  197DG      O9 4517   4.573   0.451   4.611 -0.1562  0.0342 -0.1473
  197DG     O10 4518   4.264   0.371   4.161  0.3928  1.0680  0.3618
  197DG     C11 4519   4.472   0.385   4.541  0.0882  0.6319  0.8001
  197DG     C12 4520   4.324   0.243   4.133  0.0514 -0.0690 -0.8473
  197DG     H13 4521   4.392   0.453   4.511 -0.1938  0.3990  1.0327
  197DG     H14 4522   4.416   0.315   4.603 -0.4457  0.8575  0.5782
  197DG     H15 4523   4.349   0.238   4.027 -0.6538  1.7604 -1.1237
  197DG     H16 4524   4.251   0.166   4.158  1.1077 -0.9615 -0.4235
  197DG     C17 4525   4.527   0.322   4.418 -0.3731 -0.2085  0.3732
  197DG     C18 4526   4.440   0.218   4.222 -0.1881 -0.1658  0.2962
  197DG     O19 4527   4.417   0.271   4.350 -0.2351  0.0797  0.1721
  197DG     H20 4528   4.598   0.241   4.435 -1.6694 -1.9812 -2.1016
  197DG     H21 4529   4.583   0.399   4.365  1.4517 -0.6728  1.5480
  197DG     H22 4530   4.474   0.115   4.223  2.2068  0.5556  0.3624
  197DG     H23 4531   4.519   0.275   4.173 -0.1269 -0.2799  0.2615
  198DG      C1 4532   0.171   5.291   3.687  1.1357  0.4747  0.3700
  198DG      C2 4533  -0.261   5.027   3.682  0.2254  0.4978 -0.0206
  198DG      H3 4534   0.249   5.365   3.706  0.9117  1.2090 -1.3474
  198DG      H4 4535   0.101   5.347   3.625  3.1267  2.3609 -0.3171
  198DG      H5 4536   0.204   5.211   3.621 -1.4509  0.9407 -1.6865
  198DG      H6 4537  -0.153   5.042   3.694  0.1598  2.5613 -1.5501
  198DG      H7 4538  -0.272   4.924   3.648  0.5632  0.4203  0.0891
  198DG      H8 4539  -0.284   5.098   3.603 -2.1928 -0.0241  0.1483
  198DG      O9 4540   0.126   5.222   3.804 -0.3168  0.1667 -0.1311
  198DG     O10 4541  -0.336   5.050   3.799  0.2386  0.1433 -0.7651
  198DG     C11 4542   0.076   5.307   3.903  0.2473 -0.0206 -0.4598
  198DG     C12 4543  -0.280   4.988   3.914  0.1328 -0.1518  0.2994
  198DG     H13 4544   0.020   5.385   3.852 -0.0439 -1.1630 -1.9617
  198DG     H14 4545   0.159   5.355   3.955 -1.4487  1.7814  0.6796
  198DG     H15 4546  -0.207   4.910   3.891  0.5404  0.3794 -0.2146
  198DG     H16 4547  -0.353   4.930   3.970  1.8476 -0.6418  2.1615
  198DG     C17 4548  -0.018   5.225   4.000 -0.0562 -0.1182  0.5882
  198DG     C18 4549  -0.214   5.089   4.009 -0.3147 -0.8704 -0.5739
  198DG     O19 4550  -0.120   5.162   3.926 -0.3669 -0.0973 -0.1204
  198DG     H20 4551  -0.060   5.290   4.077 -1.8576 -0.4984 -0.0195
  198DG     H21 4552   0.039   5.148   4.051 -0.3922 -0.6417  0.1917
  198DG     H22 4553  -0.278   5.164   4.056 -1.3031 -0.5514 -2.3446
  198DG     H23 4554  -0.168   5.040   4.095 -1.9956 -0.2721  0.7313
  199DG      C1 4555   2.174   1.983   2.730  0.1179  0.8951 -1.0684
  199DG      C2 4556   1.531   1.916   2.621  0.0977 -0.2562 -0.4779
  199DG      H3 4557   2.139   2.007   2.630 -1.1677 -1.4597 -1.2497
  199DG      H4 4558   2.214   1.882   2.717  1.6798  1.6387 -2.4429
  199DG      H5 4559   2.256   2.046   2.766 -0.3929 -0.0591  2.0975
  199DG      H6 4560   1.435   1.948   2.661 -1.8659 -2.2123 -3.2077
  199DG      H7 4561   1.556   1.981   2.537  1.4572  2.0243  1.5695
  199DG      H8 4562   1.517   1.819   2.573 -0.6628  0.1819 -1.1813
  199DG      O9 4563   2.064   1.994   2.817  0.4576  0.3729 -0.1814
  199DG     O10 4564   1.627   1.932   2.718  0.5120 -0.1664  0.0606
  199DG     C11 4565   2.070   1.923   2.939 -0.4595  0.5765  0.4743
  199DG     C12 4566   1.600   1.845   2.829 -0.6266 -0.6331  0.0458
  199DG     H13 4567   2.143   1.962   3.010  0.1416 -0.1156  0.2529
  199DG     H14 4568   2.114   1.827   2.913  3.3119  2.7293 -2.0884
  199DG     H15 4569   1.598   1.742   2.795 -3.4645 -0.5731 -0.2461
  199DG     H16 4570   1.496   1.851   2.863  0.2134  1.2099  2.6333
  199DG     C17 4571   1.925   1.922   3.001 -0.0784  0.0017 -0.6197
  199DG     C18 4572   1.699   1.877   2.947  0.3696 -0.1289  0.2104
  199DG     O19 4573   1.833   1.883   2.901  0.1104  0.2931  0.3184
  199DG     H20 4574   1.904   2.020   3.044 -1.4426 -0.8860  0.8215
  199DG     H21 4575   1.915   1.852   3.083 -1.1062  1.5991  0.6917
  199DG     H22 4576   1.675   1.974   2.992  2.3825 -0.4796  2.2017
  199DG     H23 4577   1.688   1.792   3.014 -1.1072  1.6803  2.4009
  200DG      C1 4578   0.831   3.522   2.045  0.3817  0.0414 -0.3438
  200DG      C2 4579   0.189   3.424   2.214 -0.1702  0.1248 -0.0385
  200DG      H3 4580   0.815   3.447   2.122 -0.9878  0.5468 -0.1031
  200DG      H4 4581   0.911   3.594   2.063 -1.7070  2.6393 -0.7240
  200DG      H5 4582   0.856   3.473   1.951  0.7304  0.1977 -0.3337
  200DG      H6 4583   0.204   3.368   2.306 -0.2317 -3.0203 -1.7965
  200DG      H7 4584   0.081   3.436   2.214 -0.2665 -0.5631 -1.3735
  200DG      H8 4585   0.227   3.363   2.132  2.1067  0.2838  0.8263
  200DG      O9 4586   0.710   3.599   2.035 -0.5051 -0.4048  0.3173
  200DG     O10 4587   0.256   3.550   2.231  0.1917 -0.1132  0.1499
  200DG     C11 4588   0.685   3.678   2.149 -0.4291 -0.3726 -0.0467
  200DG     C12 4589   0.224   3.636   2.127  0.3034 -0.4084 -0.4394
  200DG     H13 4590   0.767   3.741   2.180 -0.0394 -0.6542 -0.4916
  200DG     H14 4591   0.659   3.610   2.230  1.1243 -1.0685 -0.1089
  200DG     H15 4592   0.124   3.678   2.140 -0.2494 -2.2563  2.0891
  200DG     H16 4593   0.231   3.579   2.035 -0.2493 -1.3401  0.0814
  200DG     C17 4594   0.563   3.772   2.128  0.1026  0.3286 -0.5197
  200DG     C18 4595   0.329   3.747   2.134  0.6638  0.1649  0.7433
  200DG     O19 4596   0.455   3.692   2.156  0.1118 -0.0745 -0.7045
  200DG     H20 4597   0.569   3.813   2.027 -0.8581  0.7929 -0.4053
  200DG     H21 4598   0.571   3.848   2.206  0.0462 -0.7392  0.5562
  200DG     H22 4599   0.328   3.805   2.041  1.2403 -2.1118 -0.7824
  200DG     H23 4600   0.313   3.823   2.210 -0.8567  0.8537 -0.2164
  201DG      C1 4601   2.673   0.675   0.958 -0.1292  0.2881 -0.2275
  201DG      C2 4602   3.361   0.512   1.051 -0.4629 -0.1591  0.1186
  201DG      H3 4603   2.592   0.607   0.985  0.8101 -0.9863 -0.5837
  201DG      H4 4604   2.682   0.678   0.850  0.1097  0.2477 -0.2082
  201DG      H5 4605   2.648   0.780   0.974 -3.1369  0.0294 -2.4140
  201DG      H6 4606   3.370   0.542   0.946  0.2544 -1.3260 -0.1766
  201DG      H7 4607   3.455   0.534   1.101 -0.4918 -0.7130  0.4215
  201DG      H8 4608   3.362   0.403   1.056 -0.6521 -0.1037  2.9529
  201DG      O9 4609   2.794   0.628   1.019 -0.2503  0.0973 -0.4690
  201DG     O10 4610   3.238   0.558   1.098  0.0586  0.4548 -0.0807
  201DG     C11 4611   2.797   0.666   1.157  0.2007 -0.1386  0.2597
  201DG     C12 4612   3.223   0.541   1.240 -0.5649 -0.5319 -0.1605
  201DG     H13 4613   2.703   0.698   1.200  0.0832 -1.1830  0.8241
  201DG     H14 4614   2.863   0.749   1.179 -0.8104  1.0149 -0.8957
  201DG     H15 4615   3.296   0.602   1.292  0.1438 -1.6501  0.1991
  201DG     H16 4616   3.235   0.435   1.265  0.5218 -0.4299 -0.2106
  201DG     C17 4617   2.843   0.537   1.238  0.2215  0.2800 -0.9148
  201DG     C18 4618   3.071   0.579   1.270 -0.2361  0.2393  0.1662
  201DG     O19 4619   2.979   0.499   1.214 -0.6034  1.4445  0.4857
  201DG     H20 4620   2.778   0.456   1.208  0.2468  0.4319 -1.3771
  201DG     H21 4621   2.831   0.554   1.345  0.1794 -1.8075 -0.5474
  201DG     H22 4622   3.057   0.583   1.378 -0.2252  0.2945  0.1655
  201DG     H23 4623   3.045   0.680   1.239 -2.3670 -0.4018 -0.2632
  202DG      C1 4624   3.981   0.347   3.022  0.2261 -0.3248 -0.2685
  202DG      C2 4625   4.289  -0.227   3.122 -0.5450  0.8153 -0.8806
  202DG      H3 4626   4.053   0.429   3.014 -0.2867  0.1974  0.3030
  202DG      H4 4627   3.973   0.304   3.122 -2.2074  0.0668 -0.2406
  202DG      H5 4628   3.887   0.396   2.999 -0.1396 -0.8998 -0.0025
  202DG      H6 4629   4.395  -0.204   3.129  0.9302 -4.7254 -0.4953
  202DG      H7 4630   4.227  -0.178   3.197 -2.4990 -1.9832 -0.5149
  202DG      H8 4631   4.275  -0.334   3.135 -0.4103  0.7528 -1.2595
  202DG      O9 4632   4.014   0.237   2.938  0.0991  0.2678 -0.2520
  202DG     O10 4633   4.258  -0.179   2.997 -0.5548 -0.7945  0.5854
  202DG     C11 4634   3.899   0.164   2.901  0.0499 -0.1050 -0.4870
  202DG     C12 4635   4.137  -0.241   2.953  0.8502  0.5959  0.3095
  202DG     H13 4636   3.835   0.235   2.849 -0.7370 -0.9857 -0.7243
  202DG     H14 4637   3.853   0.133   2.995 -2.6905  0.1301 -1.6832
  202DG     H15 4638   4.074  -0.250   3.041  0.1225  0.3486 -0.2176
  202DG     H16 4639   4.157  -0.343   2.919 -0.0524  0.9124 -1.3073
  202DG     C17 4640   3.946   0.042   2.820  0.6240 -0.2657 -0.1570
  202DG     C18 4641   4.054  -0.169   2.849 -0.5297 -0.6170  0.1216
  202DG     O19 4642   4.027  -0.039   2.908  0.4235 -0.2158  0.2025
  202DG     H20 4643   3.986   0.060   2.721 -3.1132 -0.6450 -1.9192
  202DG     H21 4644   3.862  -0.022   2.792  1.7110 -1.9496  0.2906
  202DG     H22 4645   4.107  -0.158   2.754  2.1750 -1.2513  1.4361
  202DG     H23 4646   3.968  -0.233   2.836 -1.0337 -0.1892  1.2474
  203DG      C1 4647   3.599   1.148   1.605  0.3868 -0.0275 -0.1841
  203DG      C2 4648   3.144   1.383   2.270  0.5773  0.0411 -0.2641
  203DG      H3 4649   3.698   1.129   1.645  0.6747 -1.1784 -1.3592
  203DG      H4 4650   3.610   1.184   1.503  3.1035  0.8080  0.3269
  203DG      H5 4651   3.570   1.043   1.602 -0.3225  0.1717 -0.5430
  203DG      H6 4652   3.211   1.335   2.341  2.4138  1.3025 -1.0609
  203DG      H7 4653   3.067   1.440   2.321 -0.1932 -0.7250 -0.5523
  203DG      H8 4654   3.093   1.300   2.222  0.9565 -0.4492  0.1647
  203DG      O9 4655   3.521   1.227   1.691  0.1288 -0.0262 -0.0770
  203DG     O10 4656   3.218   1.463   2.173  0.0483  0.2169 -0.0604
  203DG     C11 4657   3.560   1.362   1.699 -0.5539  0.2186  0.2281
  203DG     C12 4658   3.305   1.381   2.090 -0.1053 -0.6584  0.1753
  203DG     H13 4659   3.579   1.400   1.598 -2.9844 -0.3130 -0.4867
  203DG     H14 4660   3.654   1.367   1.753  1.3195  1.1735 -2.8192
  203DG     H15 4661   3.248   1.312   2.028  0.6597 -1.9994  0.9133
  203DG     H16 4662   3.373   1.320   2.149 -1.2893 -3.3827 -1.1157
  203DG     C17 4663   3.469   1.451   1.773  0.2957  0.5788 -0.4570
  203DG     C18 4664   3.380   1.473   1.992  0.0324  0.4472  0.5301
  203DG     O19 4665   3.457   1.393   1.904 -0.3660 -0.1722 -0.6916
  203DG     H20 4666   3.368   1.452   1.732 -0.1679  0.1754  0.6343
  203DG     H21 4667   3.505   1.554   1.776  0.1328  0.6194  0.9840
  203DG     H22 4668   3.311   1.535   1.934 -0.9126 -1.7467 -0.8083
  203DG     H23 4669   3.436   1.546   2.051 -1.1147  1.2678  0.6536
  204DG      C1 4670   0.298   2.107   0.173 -0.0898  0.8001 -0.1449
  204DG      C2 4671  -0.256   2.466  -0.195  0.3576 -0.3651 -0.4014
  204DG      H3 4672   0.215   2.072   0.233 -0.0122  3.1350  1.4358
  204DG      H4 4673   0.383   2.112   0.241 -0.2497 -0.9132  0.2427
  204DG      H5 4674   0.312   2.025   0.102 -2.9938 -1.0098  1.1900
  204DG      H6 4675  -0.339   2.398  -0.179 -0.7490  0.5110 -2.1649
  204DG      H7 4676  -0.260   2.564  -0.147  2.6075 -0.0862 -0.6742
  204DG      H8 4677  -0.263   2.484  -0.302 -2.0523 -0.1708 -0.2715
  204DG      O9 4678   0.279   2.224   0.106 -0.1050  0.1725  0.1056
  204DG     O10 4679  -0.133   2.397  -0.165 -0.2302  0.3039 -0.0449
  204DG     C11 4680   0.220   2.331   0.175 -0.3551 -0.3445  0.4516
  204DG     C12 4681  -0.010   2.458  -0.217  0.1990  0.1547 -0.0753
  204DG     H13 4682   0.298   2.360   0.246  1.0123 -0.2784 -1.0258
  204DG     H14 4683   0.132   2.317   0.238 -0.0864  2.8628  1.7659
  204DG     H15 4684  -0.036   2.535  -0.289  2.2875 -0.8853 -2.0449
  204DG     H16 4685   0.048   2.389  -0.277  0.3721  0.2427 -0.0097
  204DG     C17 4686   0.203   2.447   0.071  0.5328 -0.1841  0.7260
  204DG     C18 4687   0.067   2.519  -0.101 -0.1746  0.0771 -0.2458
  204DG     O19 4688   0.094   2.416  -0.014 -0.4493  0.4694  0.0766
  204DG     H20 4689   0.294   2.456   0.012  0.3510 -0.8191  0.3384
  204DG     H21 4690   0.192   2.538   0.129 -0.2662 -1.9826  3.5920
  204DG     H22 4691   0.159   2.560  -0.141  0.4372  0.6742  1.6298
  204DG     H23 4692   0.014   2.601  -0.050  0.4577 -0.3649  1.1682
  205DG      C1 4693   3.042   5.094   3.626 -0.3740 -0.0959  0.4953
  205DG      C2 4694   3.548   5.369   3.976 -0.5032  0.7020  0.0370
  205DG      H3 4695   2.936   5.088   3.603 -0.6022 -2.3470  1.8492
  205DG      H4 4696   3.069   5.016   3.696 -1.8644 -0.4738  0.6721
  205DG      H5 4697   3.102   5.084   3.535  1.3421  2.7337  1.1706
  205DG      H6 4698   3.534   5.265   4.005  0.4611  1.2992  2.9484
  205DG      H7 4699   3.635   5.366   3.910  0.4285 -0.5573  1.2419
  205DG      H8 4700   3.587   5.428   4.059 -1.6530  2.2434 -0.4769
  205DG      O9 4701   3.076   5.217   3.688 -0.1407 -0.0119 -0.0877
  205DG     O10 4702   3.435   5.420   3.924  0.1931 -0.0517  0.2992
  205DG     C11 4703   2.999   5.234   3.804 -0.3751 -1.1402  0.4553
  205DG     C12 4704   3.342   5.455   4.021  0.3960  0.2382  0.5539
  205DG     H13 4705   3.001   5.155   3.879  1.0802 -0.5856  1.0487
  205DG     H14 4706   2.895   5.250   3.773 -0.4005  0.9890  1.4454
  205DG     H15 4707   3.367   5.543   4.080 -2.7846  1.6014  0.0597
  205DG     H16 4708   3.343   5.375   4.095  1.7966  0.0430  0.3629
  205DG     C17 4709   3.021   5.369   3.882 -0.0518  0.9714  0.3231
  205DG     C18 4710   3.209   5.490   3.958 -0.5736 -0.1938 -0.2426
  205DG     O19 4711   3.156   5.366   3.921  0.2769 -0.5286 -0.8015
  205DG     H20 4712   2.948   5.380   3.963 -2.0242  2.3797 -1.5434
  205DG     H21 4713   2.995   5.450   3.814 -0.5265  0.3051 -0.3064
  205DG     H22 4714   3.143   5.537   4.031 -1.1696 -0.4803 -0.5957
  205DG     H23 4715   3.220   5.562   3.877 -1.3863  3.1718  2.3545
  206DG      C1 4716   4.808   2.168   1.172 -0.1619  0.4726 -0.0371
  206DG      C2 4717   5.205   2.517   0.641  0.1355  0.0337 -0.1540
  206DG      H3 4718   4.720   2.227   1.198 -0.7197 -0.7114  0.8613
  206DG      H4 4719   4.845   2.158   1.274 -2.2639 -0.9409  0.6550
  206DG      H5 4720   4.783   2.065   1.149 -1.2473  0.9094 -0.9169
  206DG      H6 4721   5.215   2.535   0.534  1.1690  0.4753  0.0109
  206DG      H7 4722   5.193   2.615   0.687  3.2349  0.2169  0.4357
  206DG      H8 4723   5.295   2.477   0.687 -0.7593  0.4121  2.0576
  206DG      O9 4724   4.897   2.217   1.071  0.8410 -0.6017 -0.5193
  206DG     O10 4725   5.102   2.423   0.672  0.3237 -0.1316 -0.4862
  206DG     C11 4726   4.814   2.241   0.958  0.3032  0.3381 -0.0619
  206DG     C12 4727   4.976   2.466   0.616 -0.1802  0.8656 -0.4233
  206DG     H13 4728   4.730   2.302   0.990 -1.0425 -2.2368  1.6761
  206DG     H14 4729   4.762   2.156   0.913 -2.3085  0.9575  1.5948
  206DG     H15 4730   4.988   2.507   0.515 -1.8273  0.0388 -0.9980
  206DG     H16 4731   4.928   2.537   0.682 -0.0637  1.7283 -1.2444
  206DG     C17 4732   4.892   2.312   0.853  0.7325 -0.2605  0.9069
  206DG     C18 4733   4.877   2.340   0.613 -0.5765  0.2487  1.2611
  206DG     O19 4734   4.811   2.318   0.737  0.1333  0.3040  0.2112
  206DG     H20 4735   4.985   2.260   0.830 -0.6700 -2.2520 -0.5707
  206DG     H21 4736   4.914   2.413   0.889 -1.0533  0.8562 -0.9194
  206DG     H22 4737   4.813   2.351   0.525  0.1867 -0.8031  0.5475
  206DG     H23 4738   4.937   2.256   0.578  1.3239  1.7510  0.7641
  207DG      C1 4739   0.353   0.849   4.900 -0.4440 -0.6643 -0.1639
  207DG      C2 4740   0.212   1.026   5.468  0.7635  0.2656  0.0346
  207DG      H3 4741   0.428   0.774   4.924 -1.7964 -2.1744 -0.4768
  207DG      H4 4742   0.348   0.858   4.791  0.6325  0.0705 -0.1713
  207DG      H5 4743   0.260   0.806   4.937 -0.6179  0.5911  0.9247
  207DG      H6 4744   0.182   1.070   5.563 -0.4568 -1.3036  0.4330
  207DG      H7 4745   0.136   0.958   5.429 -1.4358  1.9854  1.0743
  207DG      H8 4746   0.301   0.965   5.481  0.5654 -0.0232  0.0740
  207DG      O9 4747   0.360   0.972   4.974 -0.7830 -0.0039  0.4033
  207DG     O10 4748   0.246   1.118   5.368  0.2645 -0.3764 -0.2680
  207DG     C11 4749   0.291   1.073   4.899  0.6593 -0.3963  0.3967
  207DG     C12 4750   0.137   1.205   5.326  0.5629 -0.5571 -0.4357
  207DG     H13 4751   0.195   1.035   4.866  0.8751 -1.1259  0.5914
  207DG     H14 4752   0.360   1.105   4.821  1.3144  1.5005  1.6677
  207DG     H15 4753   0.127   1.280   5.404 -0.4295 -0.6573 -0.4530
  207DG     H16 4754   0.038   1.159   5.322 -0.3940  1.4300 -0.8820
  207DG     C17 4755   0.264   1.193   4.985 -0.5881  0.7397 -0.3944
  207DG     C18 4756   0.176   1.255   5.189 -0.4248 -0.1075  0.0447
  207DG     O19 4757   0.217   1.151   5.111  0.2252  0.1899 -0.1888
  207DG     H20 4758   0.195   1.262   4.936  0.0460  0.4473 -1.7426
  207DG     H21 4759   0.353   1.254   4.999 -1.0613  1.1608  0.9756
  207DG     H22 4760   0.097   1.307   5.136 -0.3802 -1.9656 -1.9796
  207DG     H23 4761   0.261   1.322   5.204 -0.2212 -0.4695  0.5716
  208DG      C1 4762   1.920   1.692   3.549 -0.1654  0.8880  0.5253
  208DG      C2 4763   1.330   1.688   3.110  0.1359 -0.6893  0.7562
  208DG      H3 4764   1.884   1.602   3.598  0.0885  1.0249  0.9715
  208DG      H4 4765   1.968   1.744   3.633 -0.9253  0.5725  1.1743
  208DG      H5 4766   1.997   1.670   3.476 -1.4803 -0.5408 -0.4840
  208DG      H6 4767   1.228   1.725   3.105  0.4916  0.1280 -1.7325
  208DG      H7 4768   1.335   1.642   3.011 -0.7646  1.1553 -0.2080
  208DG      H8 4769   1.341   1.613   3.188 -1.4045 -2.8908 -1.0253
  208DG      O9 4770   1.807   1.767   3.492  0.1966 -0.1155 -0.1418
  208DG     O10 4771   1.425   1.788   3.126  0.2587  0.7398  0.8268
  208DG     C11 4772   1.844   1.886   3.434 -1.2769  0.2508  0.8502
  208DG     C12 4773   1.401   1.869   3.241  0.3690  0.6113 -0.0559
  208DG     H13 4774   1.898   1.863   3.342  0.2181  1.2007  1.4503
  208DG     H14 4775   1.911   1.950   3.492 -0.1542 -0.6034  0.5305
  208DG     H15 4776   1.386   1.800   3.324 -2.2297  1.8678  0.6245
  208DG     H16 4777   1.307   1.924   3.234  0.7312  1.3707  0.8993
  208DG     C17 4778   1.716   1.958   3.403  0.1938  0.0749 -0.1388
  208DG     C18 4779   1.518   1.961   3.276 -0.4632  0.5223 -0.4521
  208DG     O19 4780   1.619   1.880   3.336 -0.3690 -0.4138  0.2798
  208DG     H20 4781   1.745   2.051   3.355 -1.3992  0.9784  0.5552
  208DG     H21 4782   1.674   1.988   3.500  0.0969  2.6976 -0.9059
  208DG     H22 4783   1.557   2.017   3.191 -2.2524  0.9200 -1.0535
  208DG     H23 4784   1.483   2.028   3.355 -0.5887  1.5630 -1.3722
  209DG      C1 4785   1.615   0.717   2.918  0.5259 -0.2958  0.0578
  209DG      C2 4786   2.227   1.092   2.753 -0.0964 -0.2527  0.5645
  209DG      H3 4787   1.594   0.654   3.005  1.6858  0.1708  0.7054
  209DG      H4 4788   1.654   0.649   2.843  2.3985  0.3318  0.4105
  209DG      H5 4789   1.525   0.771   2.889  0.9445  0.2814 -0.1738
  209DG      H6 4790   2.331   1.098   2.784 -0.3029  0.0686  1.2114
  209DG      H7 4791   2.216   1.016   2.675 -0.4768  1.6214 -1.2814
  209DG      H8 4792   2.193   1.183   2.703 -2.0866 -0.8911  0.6822
  209DG      O9 4793   1.719   0.803   2.969  0.0517 -0.4995  0.6945
  209DG     O10 4794   2.137   1.047   2.850  0.4218  0.1339 -0.5707
  209DG     C11 4795   1.677   0.925   3.036  0.7891  0.6332 -0.3490
  209DG     C12 4796   2.106   1.153   2.944 -0.4193 -0.4139  0.7447
  209DG     H13 4797   1.607   0.892   3.112  1.3246 -1.2031 -0.6039
  209DG     H14 4798   1.618   0.995   2.976  0.3625  0.7573  0.2077
  209DG     H15 4799   2.067   1.242   2.895  0.2045 -0.9467 -0.7562
  209DG     H16 4800   2.193   1.196   2.993  0.2489  0.4364 -1.0963
  209DG     C17 4801   1.791   1.008   3.097 -0.7640  0.3901 -0.7868
  209DG     C18 4802   2.007   1.102   3.051 -0.1307  0.2857  0.3896
  209DG     O19 4803   1.882   1.057   2.992 -0.4825  0.0026 -0.9855
  209DG     H20 4804   1.856   0.954   3.167 -0.9680  0.2906 -0.6719
  209DG     H21 4805   1.745   1.085   3.158  0.6439  1.0429 -0.5101
  209DG     H22 4806   2.055   1.016   3.099  0.9066  0.6133 -0.0601
  209DG     H23 4807   1.983   1.177   3.126 -1.4765 -0.2236  0.5062
  210DG      C1 4808   3.053   2.119   2.699  0.5759 -0.3633 -0.6518
  210DG      C2 4809   2.464   1.904   2.980 -0.6675  0.3809 -0.5148
  210DG      H3 4810   3.094   2.152   2.794 -0.6179  2.1589 -0.9349
  210DG      H4 4811   3.102   2.182   2.625  1.9949  0.8226  1.1996
  210DG      H5 4812   3.079   2.013   2.697  0.6914 -0.3603  0.3140
  210DG      H6 4813   2.497   1.805   2.946 -0.0600  0.1298  0.7355
  210DG      H7 4814   2.509   1.919   3.078  0.8912 -2.0782 -0.7565
  210DG      H8 4815   2.357   1.911   2.995 -0.3279  2.7753  1.2579
  210DG      O9 4816   2.913   2.136   2.701 -0.2916  0.7851 -0.3749
  210DG     O10 4817   2.505   2.009   2.891 -0.6616  0.2116  0.7800
  210DG     C11 4818   2.881   2.270   2.727 -0.7522  0.0192 -0.1133
  210DG     C12 4819   2.466   2.134   2.926  0.3841  0.3533 -0.5906
  210DG     H13 4820   2.939   2.340   2.667  0.2176 -0.1478  0.5850
  210DG     H14 4821   2.916   2.289   2.829 -1.6635 -0.7830  0.3550
  210DG     H15 4822   2.495   2.170   3.024  1.1417 -3.5524  0.7893
  210DG     H16 4823   2.357   2.138   2.928  0.2823 -1.0458 -1.6377
  210DG     C17 4824   2.731   2.296   2.723 -0.2955  0.1822 -0.4167
  210DG     C18 4825   2.524   2.233   2.823 -0.0339 -0.6099 -0.4379
  210DG     O19 4826   2.669   2.218   2.829  1.0930 -0.0161 -0.0540
  210DG     H20 4827   2.689   2.260   2.630  1.5857 -2.7920 -0.2572
  210DG     H21 4828   2.704   2.401   2.729  0.1142  0.5625 -3.7128
  210DG     H22 4829   2.480   2.211   2.726 -2.0442 -1.8775  0.6911
  210DG     H23 4830   2.503   2.334   2.856 -0.3615 -1.0178  0.6360
  211DG      C1 4831   5.258   5.499   5.356  0.3677 -0.1820  0.1214
  211DG      C2 4832   5.779   5.855   5.521 -0.0642  0.0224  0.2408
  211DG      H3 4833   5.267   5.393   5.380 -1.4472 -0.0105  1.8388
  211DG      H4 4834   5.320   5.524   5.271  0.9893  2.1835  1.1887
  211DG      H5 4835   5.154   5.526   5.340  1.0107  3.3404  1.1400
  211DG      H6 4836   5.803   5.821   5.421  2.7657  0.6752  0.6099
  211DG      H7 4837   5.768   5.963   5.514 -0.8238 -0.1354 -1.2325
  211DG      H8 4838   5.856   5.833   5.596 -0.9614 -2.4421  0.5440
  211DG      O9 4839   5.316   5.552   5.471  0.0178 -0.0762 -0.3876
  211DG     O10 4840   5.668   5.773   5.567 -0.6514  0.3694  0.4901
  211DG     C11 4841   5.271   5.507   5.603  0.5375 -0.4469 -0.7036
  211DG     C12 4842   5.628   5.812   5.694  0.3440 -0.1703  0.8637
  211DG     H13 4843   5.284   5.399   5.602 -1.0934 -0.6708 -1.9155
  211DG     H14 4844   5.166   5.531   5.621  1.3629  1.1165  2.8584
  211DG     H15 4845   5.606   5.919   5.689  1.2007  0.2528  3.9293
  211DG     H16 4846   5.711   5.809   5.764 -1.3042  0.4069  2.9309
  211DG     C17 4847   5.372   5.556   5.712 -0.0106  0.2094  0.0673
  211DG     C18 4848   5.510   5.738   5.754  0.4336 -0.2629 -0.3557
  211DG     O19 4849   5.426   5.679   5.662 -0.1524 -0.4244  0.6809
  211DG     H20 4850   5.451   5.482   5.721 -1.1946 -1.0964  0.1326
  211DG     H21 4851   5.335   5.574   5.814  0.9951  1.3196  0.2628
  211DG     H22 4852   5.559   5.663   5.816  1.7179  0.9551  0.1410
  211DG     H23 4853   5.450   5.806   5.815  1.2127 -0.8904  1.1515
  212DG      C1 4854   1.641   3.464   3.986 -0.3044 -0.0115 -0.2835
  212DG      C2 4855   1.935   3.766   3.841  0.3930 -0.0433 -0.0296
  212DG      H3 4856   1.745   3.469   3.955 -0.2223 -0.3631 -0.0802
  212DG      H4 4857   1.577   3.448   3.900 -1.3550  0.4713  0.3946
  212DG      H5 4858   1.633   3.380   4.056 -1.1550 -0.1790 -0.5706
  212DG      H6 4859   1.884   3.743   3.748 -1.5646 -1.7354  1.3596
  212DG      H7 4860   2.034   3.809   3.827  0.4641 -0.1775  0.0597
  212DG      H8 4861   1.962   3.664   3.869 -2.7931 -1.4370 -1.4799
  212DG      O9 4862   1.610   3.581   4.061  0.1553 -0.2852 -0.0057
  212DG     O10 4863   1.841   3.820   3.931  0.1349 -0.5947  0.3753
  212DG     C11 4864   1.686   3.588   4.184  0.4933  0.7417 -1.2572
  212DG     C12 4865   1.900   3.832   4.060  0.4005  0.8550 -0.1812
  212DG     H13 4866   1.789   3.561   4.161  0.3089  0.1911 -1.4410
  212DG     H14 4867   1.651   3.512   4.254 -0.2901  2.7541  0.6883
  212DG     H15 4868   1.991   3.892   4.054  0.3557  0.8762 -0.6515
  212DG     H16 4869   1.932   3.737   4.102  0.1054  0.8525  0.0446
  212DG     C17 4870   1.686   3.720   4.255 -0.2216  0.1469 -0.0743
  212DG     C18 4871   1.801   3.902   4.153 -0.4277  0.5607 -0.1550
  212DG     O19 4872   1.682   3.823   4.162 -0.1696 -0.0359 -0.0113
  212DG     H20 4873   1.754   3.727   4.341 -1.3417 -0.1924  0.8633
  212DG     H21 4874   1.587   3.745   4.293 -0.0383 -1.5177  1.6472
  212DG     H22 4875   1.848   3.907   4.252 -0.8457  2.4180 -0.0064
  212DG     H23 4876   1.784   4.002   4.113  0.9591  0.1644 -1.8485
  213DG      C1 4877   2.898   4.185   0.775 -0.1659  1.1499  0.4071
  213DG      C2 4878   2.744   4.900   1.031 -0.4750 -0.2708  0.3913
  213DG      H3 4879   2.991   4.135   0.800  0.5385  1.6237 -1.1516
  213DG      H4 4880   2.918   4.247   0.688 -1.2381  0.4499 -0.3661
  213DG      H5 4881   2.823   4.108   0.757  0.0199  1.0084  0.2380
  213DG      H6 4882   2.727   4.957   1.122 -3.2274 -2.1000  1.1392
  213DG      H7 4883   2.818   4.949   0.968 -0.3935 -0.1649  0.5684
  213DG      H8 4884   2.654   4.888   0.970 -1.4064  0.3788  1.6039
  213DG      O9 4885   2.884   4.276   0.886 -0.6384  1.2267  0.1687
  213DG     O10 4886   2.800   4.777   1.065  0.2884  0.6080 -0.4538
  213DG     C11 4887   2.769   4.355   0.869  0.0625 -0.3193  0.0139
  213DG     C12 4888   2.721   4.696   1.150 -0.6055  0.4370 -0.0856
  213DG     H13 4889   2.678   4.305   0.836  0.5204 -0.5628 -0.9297
  213DG     H14 4890   2.797   4.430   0.795 -1.2050  1.2610  1.0843
  213DG     H15 4891   2.618   4.681   1.117 -0.5914 -4.3790  1.2490
  213DG     H16 4892   2.704   4.737   1.250 -0.4505 -1.4256  0.7572
  213DG     C17 4893   2.732   4.426   0.995  0.8066  0.5102  0.1087
  213DG     C18 4894   2.791   4.563   1.179 -0.0973 -0.6200  0.0186
  213DG     O19 4895   2.833   4.495   1.065 -0.1049  0.5831  0.3784
  213DG     H20 4896   2.689   4.348   1.058 -0.3529 -1.3631 -2.7590
  213DG     H21 4897   2.658   4.502   0.972  2.7533  2.2654 -0.6333
  213DG     H22 4898   2.875   4.592   1.243 -1.0300 -1.0442  1.5051
  213DG     H23 4899   2.739   4.499   1.251  0.1709 -1.3446 -0.4262
  214DG      C1 4900   1.117   0.713   4.753 -0.4405 -0.5887 -0.0256
  214DG      C2 4901   0.894   0.291   4.214 -0.0664  0.2448 -0.3956
  214DG      H3 4902   1.051   0.770   4.688  0.2085 -0.6791 -0.7669
  214DG      H4 4903   1.211   0.765   4.736 -1.9157  2.0711 -0.7111
  214DG      H5 4904   1.082   0.746   4.851 -1.0518  1.7532 -0.9529
  214DG      H6 4905   0.950   0.198   4.199  0.3464  0.2615  0.9431
  214DG      H7 4906   0.821   0.282   4.133 -0.6883  2.2484 -0.1034
  214DG      H8 4907   0.951   0.375   4.176  1.2833  0.1183  1.2252
  214DG      O9 4908   1.115   0.569   4.744  0.3466  0.2194 -0.6810
  214DG     O10 4909   0.826   0.282   4.343  0.2097 -0.2421  0.4592
  214DG     C11 4910   1.153   0.511   4.618 -0.3564  0.3350 -0.4790
  214DG     C12 4911   0.749   0.405   4.364  0.3105 -0.9257 -0.2672
  214DG     H13 4912   1.177   0.405   4.630  1.3341  0.8282  0.9171
  214DG     H14 4913   1.249   0.554   4.587 -1.0058  1.2109 -1.3470
  214DG     H15 4914   0.668   0.396   4.437  1.7428  0.7542  1.6534
  214DG     H16 4915   0.696   0.426   4.272  1.5623 -0.2512 -0.8644
  214DG     C17 4916   1.051   0.538   4.500 -0.6131 -0.1083 -0.9748
  214DG     C18 4917   0.824   0.524   4.425 -0.4204 -0.0156 -0.7294
  214DG     O19 4918   0.916   0.493   4.529 -0.0930  0.0884  0.7445
  214DG     H20 4919   1.093   0.491   4.411  2.3207 -2.3717  1.3804
  214DG     H21 4920   1.053   0.646   4.482 -0.0074 -0.0892 -0.8048
  214DG     H22 4921   0.876   0.589   4.354  1.6233  1.4242  1.9006
  214DG     H23 4922   0.758   0.601   4.466  1.1317  1.3791 -0.6934
  215DG      C1 4923   3.039   1.719   2.045  0.0993 -0.0995  0.2254
  215DG      C2 4924   2.859   2.109   1.573 -0.1329 -0.0410  0.1745
  215DG      H3 4925   3.058   1.611   2.037 -0.7429 -0.2936  0.7974
  215DG      H4 4926   2.932   1.730   2.062  0.5194 -0.2490  3.6127
  215DG      H5 4927   3.081   1.747   2.142  0.7352 -0.1301 -0.0317
  215DG      H6 4928   2.774   2.111   1.641  1.5290  0.4884  2.3457
  215DG      H7 4929   2.882   2.215   1.569 -0.5287  0.0575  0.3873
  215DG      H8 4930   2.829   2.070   1.476  0.5003 -1.9216  0.6803
  215DG      O9 4931   3.080   1.822   1.957  0.1668  0.5748 -0.1505
  215DG     O10 4932   2.956   2.039   1.641  0.0037  0.4748 -0.4154
  215DG     C11 4933   3.217   1.823   1.920 -0.8209  0.1275 -0.0208
  215DG     C12 4934   3.075   2.029   1.557  0.7015  0.3769  0.4982
  215DG     H13 4935   3.242   1.751   1.843 -0.9215  2.8793 -2.8325
  215DG     H14 4936   3.278   1.795   2.007 -1.5828 -0.8684  0.2079
  215DG     H15 4937   3.096   2.132   1.532 -1.1323  0.8573  0.7719
  215DG     H16 4938   3.056   1.979   1.462 -0.9356  2.4460 -0.3330
  215DG     C17 4939   3.270   1.967   1.861 -0.1880 -0.6165 -0.4928
  215DG     C18 4940   3.184   1.973   1.639  0.0200  0.2992 -0.0388
  215DG     O19 4941   3.185   2.031   1.765  0.4437 -0.2939 -0.4209
  215DG     H20 4942   3.368   1.960   1.814  0.9029 -1.6581  1.7656
  215DG     H21 4943   3.291   2.043   1.935 -0.4573 -0.1805 -0.8603
  215DG     H22 4944   3.187   1.866   1.660  0.3951  0.3103 -0.0159
  215DG     H23 4945   3.280   2.000   1.595  2.7234 -2.6056  3.4719
  216DG      C1 4946   5.165   3.776   3.725  0.4721 -0.1152  0.3904
  216DG      C2 4947   5.300   4.249   4.325 -0.2136 -0.0137 -0.8381
  216DG      H3 4948   5.208   3.687   3.679 -0.7901 -0.7872  0.4790
  216DG      H4 4949   5.139   3.849   3.648 -0.2355  0.0656  0.7971
  216DG      H5 4950   5.072   3.737   3.767 -0.2545 -1.4581 -2.2113
  216DG      H6 4951   5.251   4.222   4.419  1.8029 -0.5174  0.1262
  216DG      H7 4952   5.390   4.307   4.349  1.3129 -2.0416 -1.3400
  216DG      H8 4953   5.238   4.317   4.267 -1.7788 -0.4145  0.2846
  216DG      O9 4954   5.258   3.846   3.809  0.4283  0.3024 -0.2845
  216DG     O10 4955   5.352   4.133   4.254 -0.1996 -0.2950  0.4992
  216DG     C11 4956   5.331   3.771   3.896 -0.2091  0.2889 -0.4797
  216DG     C12 4957   5.426   4.175   4.138  0.3903 -0.5252 -0.4368
  216DG     H13 4958   5.371   3.692   3.833  0.1163 -0.5615  0.7601
  216DG     H14 4959   5.261   3.736   3.971  0.2448  2.5786  1.1371
  216DG     H15 4960   5.512   4.237   4.164  0.0094  0.0636 -0.5822
  216DG     H16 4961   5.363   4.227   4.066 -1.6793 -1.7262  0.4166
  216DG     C17 4962   5.442   3.856   3.959  0.2699 -0.6035  0.1969
  216DG     C18 4963   5.501   4.050   4.073  0.5654  0.2749 -0.2699
  216DG     O19 4964   5.385   3.970   4.027  0.2318 -0.3484 -0.1013
  216DG     H20 4965   5.525   3.884   3.895  0.1574 -0.4362  0.1221
  216DG     H21 4966   5.477   3.792   4.040 -1.2531 -2.9844 -0.9041
  216DG     H22 4967   5.561   4.089   3.990 -0.1775  1.3298 -0.3463
  216DG     H23 4968   5.579   3.997   4.127  1.7868 -1.5814 -3.5609
  217DG      C1 4969   4.498   0.883   0.007 -0.3087 -0.5880 -0.3082
  217DG      C2 4970   4.344   1.334   0.470  0.6577 -0.2113  0.7770
  217DG      H3 4971   4.605   0.892  -0.009 -0.4425 -0.4685 -1.1719
  217DG      H4 4972   4.449   0.951  -0.063 -0.9237  0.6003  1.2019
  217DG      H5 4973   4.474   0.784  -0.031 -1.0786 -0.0833 -1.1906
  217DG      H6 4974   4.340   1.382   0.372 -0.2456 -0.5492  0.6461
  217DG      H7 4975   4.258   1.362   0.531  0.3626 -0.4532  0.4699
  217DG      H8 4976   4.431   1.379   0.519 -0.2580  2.3179  0.2415
  217DG      O9 4977   4.456   0.907   0.145  0.8712 -0.5496 -0.2765
  217DG     O10 4978   4.346   1.196   0.454 -0.2826  0.0477 -0.4898
  217DG     C11 4979   4.508   0.808   0.238  0.2922 -0.4079 -0.1195
  217DG     C12 4980   4.379   1.133   0.573 -0.2251 -0.0383 -0.4341
  217DG     H13 4981   4.617   0.817   0.239  0.4698 -1.4291 -2.4245
  217DG     H14 4982   4.477   0.711   0.199  1.5999 -0.6109 -0.7033
  217DG     H15 4983   4.311   1.161   0.654 -0.3172  1.8176 -1.1154
  217DG     H16 4984   4.475   1.172   0.606  1.2285 -1.8910 -2.2192
  217DG     C17 4985   4.436   0.823   0.382  0.1377 -0.1667  0.1281
  217DG     C18 4986   4.393   0.975   0.559 -1.0457 -0.2015  0.4506
  217DG     O19 4987   4.467   0.946   0.439  0.3629  0.3783 -0.0399
  217DG     H20 4988   4.474   0.747   0.450  0.3184  0.1634  0.4014
  217DG     H21 4989   4.330   0.797   0.372  0.5309 -1.2462 -1.6788
  217DG     H22 4990   4.443   0.929   0.644  0.2115 -2.9458 -1.6308
  217DG     H23 4991   4.291   0.936   0.556 -1.7148  1.3686  1.3887
  218DG      C1 4992   5.431   0.087   4.039 -0.5048 -0.4575  0.5860
  218DG      C2 4993   5.238   0.833   4.344  0.4248  0.1016  0.1377
  218DG      H3 4994   5.428   0.070   3.931  2.0406  0.4087  0.3258
  218DG      H4 4995   5.356   0.027   4.092  0.6411 -1.4025  1.1813
  218DG      H5 4996   5.528   0.065   4.084 -0.5228  0.3863  1.0594
  218DG      H6 4997   5.290   0.868   4.255  0.1923 -0.9364 -0.4154
  218DG      H7 4998   5.158   0.906   4.356  0.4049  0.1867 -0.4608
  218DG      H8 4999   5.307   0.845   4.428  1.9795  1.9230 -1.3169
  218DG      O9 5000   5.411   0.226   4.073  0.8828  0.6339  0.1701
  218DG     O10 5001   5.199   0.700   4.314  0.3012  0.0415  0.1938
  218DG     C11 5002   5.511   0.300   4.024 -0.3550 -0.4876  0.2222
  218DG     C12 5003   5.308   0.604   4.313 -0.3316  0.2288  0.6745
  218DG     H13 5004   5.521   0.283   3.917  0.4093  1.0817  0.0165
  218DG     H14 5005   5.599   0.284   4.087 -0.9835  1.2746  1.6326
  218DG     H15 5006   5.274   0.508   4.352  1.6414 -0.5444  0.6108
  218DG     H16 5007   5.390   0.631   4.380  0.9237 -1.0177 -0.2953
  218DG     C17 5008   5.480   0.448   4.027 -0.0180 -0.0033  0.6211
  218DG     C18 5009   5.350   0.577   4.166 -0.0755  0.1979 -0.1305
  218DG     O19 5010   5.445   0.473   4.161 -0.0953 -0.6112  0.2083
  218DG     H20 5011   5.398   0.470   3.958  0.7862 -1.1390 -0.7476
  218DG     H21 5012   5.563   0.509   3.991 -0.2940  0.7029  1.1604
  218DG     H22 5013   5.258   0.555   4.112 -1.0276 -0.2940  1.6135
  218DG     H23 5014   5.395   0.662   4.116  1.7620 -0.3046  0.5990
  219DG      C1 5015   2.066   5.053   2.756 -0.9513  0.4858 -0.4625
  219DG      C2 5016   2.748   5.338   2.852 -0.8692  0.4289 -0.7896
  219DG      H3 5017   2.044   5.160   2.755  1.9622  1.1819  0.0814
  219DG      H4 5018   2.017   5.006   2.841  1.8544 -2.3776 -0.2289
  219DG      H5 5019   2.036   5.016   2.658  0.1166  1.6401 -1.2608
  219DG      H6 5020   2.701   5.423   2.901 -1.8550 -0.9926  0.8594
  219DG      H7 5021   2.851   5.354   2.886 -0.3997  0.1764 -2.0576
  219DG      H8 5022   2.736   5.336   2.744 -2.9831 -2.1195 -0.6087
  219DG      O9 5023   2.203   5.041   2.774 -0.3322  0.1088  0.4835
  219DG     O10 5024   2.680   5.232   2.916 -0.1196  0.0560  0.1903
  219DG     C11 5025   2.299   5.096   2.674  0.3959 -0.2077  0.5990
  219DG     C12 5026   2.718   5.109   2.847  0.0211 -0.4223 -0.0378
  219DG     H13 5027   2.301   5.203   2.692 -1.5580 -0.4604  2.7769
  219DG     H14 5028   2.262   5.062   2.577  0.4221 -2.8372  1.4141
  219DG     H15 5029   2.818   5.089   2.885  0.2157 -0.7380 -0.7215
  219DG     H16 5030   2.728   5.129   2.741  0.0776  0.4267  0.1188
  219DG     C17 5031   2.439   5.036   2.702 -0.6635 -0.0974  0.1419
  219DG     C18 5032   2.610   5.006   2.883 -0.1131 -0.4843 -0.1757
  219DG     O19 5033   2.486   5.061   2.834  0.0151 -0.7764  0.0243
  219DG     H20 5034   2.512   5.065   2.627 -0.0024  0.1752  0.8762
  219DG     H21 5035   2.421   4.928   2.701 -3.2650  0.2394  1.9869
  219DG     H22 5036   2.626   4.905   2.846  0.8920 -0.5264  0.3109
  219DG     H23 5037   2.618   4.994   2.991  2.4198  1.1657 -0.0779
  220DG      C1 5038   4.886   3.937   5.330 -0.1183  0.0990 -0.1315
  220DG      C2 5039   4.702   4.517   5.527  0.0591  0.6597  0.3766
  220DG      H3 5040   4.971   3.871   5.316 -0.1555  0.2057 -0.8819
  220DG      H4 5041   4.860   3.998   5.243  1.4221  0.0598 -0.6448
  220DG      H5 5042   4.801   3.872   5.349  0.1087  0.1051  0.9635
  220DG      H6 5043   4.619   4.464   5.574  1.5734 -2.3560 -0.1232
  220DG      H7 5044   4.713   4.624   5.550 -0.0535  1.5152 -3.0909
  220DG      H8 5045   4.675   4.529   5.423  2.2855  2.2618 -0.1077
  220DG      O9 5046   4.905   4.035   5.427 -0.3739 -0.1590  0.1048
  220DG     O10 5047   4.815   4.444   5.558 -0.4763  0.4051  0.3603
  220DG     C11 5048   4.958   3.985   5.548  0.2238 -0.1027  0.2526
  220DG     C12 5049   4.852   4.443   5.692 -0.0980 -0.7139 -0.6217
  220DG     H13 5050   5.054   3.937   5.528 -1.4786 -2.8938 -2.0077
  220DG     H14 5051   4.895   3.911   5.599  0.7068 -1.1864 -0.6634
  220DG     H15 5052   4.762   4.437   5.753 -0.7518 -0.3201 -1.5230
  220DG     H16 5053   4.905   4.535   5.719 -0.4613 -0.8803  0.7367
  220DG     C17 5054   4.991   4.101   5.644 -0.3253 -0.1763  0.3723
  220DG     C18 5055   4.937   4.321   5.723  0.2189  0.1187 -0.7559
  220DG     O19 5056   4.889   4.204   5.646 -0.5260  0.2085  0.1026
  220DG     H20 5057   5.075   4.161   5.611 -1.3963  0.2240 -1.8358
  220DG     H21 5058   5.014   4.077   5.748 -0.6465 -2.1232  0.0452
  220DG     H22 5059   5.043   4.333   5.703  0.1802 -2.0222 -2.6208
  220DG     H23 5060   4.916   4.297   5.828  0.4890  0.7898 -0.5418
  221DG      C1 5061   0.159   1.844   1.195 -0.7185 -0.7718 -0.0855
  221DG      C2 5062   0.257   2.366   0.761 -0.4605  0.1354 -0.0732
  221DG      H3 5063   0.216   1.756   1.164 -0.4172 -0.3803 -0.6653
  221DG      H4 5064   0.072   1.862   1.132 -0.2382 -1.5432 -1.0102
  221DG      H5 5065   0.120   1.831   1.296 -0.4953 -1.3624 -0.0743
  221DG      H6 5066   0.329   2.344   0.682 -0.2090  0.6370  0.0117
  221DG      H7 5067   0.164   2.310   0.762 -0.9870  0.9882  0.9795
  221DG      H8 5068   0.252   2.474   0.751 -1.0534 -0.1223 -4.1210
  221DG      O9 5069   0.248   1.956   1.187 -0.2461 -0.4606  0.0525
  221DG     O10 5070   0.324   2.339   0.885  0.0676 -0.0957  0.4342
  221DG     C11 5071   0.331   1.980   1.077 -0.1572 -0.7733 -0.7877
  221DG     C12 5072   0.461   2.375   0.893  1.1251 -0.5330 -0.3915
  221DG     H13 5073   0.282   1.987   0.979 -1.8400  2.1528  0.1268
  221DG     H14 5074   0.403   1.899   1.067  2.2204  0.8063  1.9493
  221DG     H15 5075   0.478   2.476   0.929  2.1018 -1.0680  0.7075
  221DG     H16 5076   0.516   2.357   0.800 -1.7761 -0.0582 -2.3375
  221DG     C17 5077   0.408   2.109   1.100 -0.4719 -0.3709  0.0962
  221DG     C18 5078   0.531   2.288   1.000  0.0632  0.5742 -0.0588
  221DG     O19 5079   0.485   2.153   0.989  0.5650 -0.4174 -0.3489
  221DG     H20 5080   0.474   2.115   1.186  0.2291  0.5898 -0.4911
  221DG     H21 5081   0.339   2.188   1.127 -0.0162 -0.6284  2.1224
  221DG     H22 5082   0.640   2.298   0.997  0.1177  1.3835  2.1586
  221DG     H23 5083   0.509   2.337   1.096  0.1802  0.6265 -0.0586
  222DG      C1 5084   2.563   3.145   0.353  0.7265 -0.4619 -0.2547
  222DG      C2 5085   2.907   3.416   0.907 -0.0403 -0.1959 -0.1142
  222DG      H3 5086   2.649   3.212   0.347  1.6240 -1.3887  1.4140
  222DG      H4 5087   2.479   3.169   0.288 -1.2155  0.2300  2.3101
  222DG      H5 5088   2.599   3.047   0.321 -0.1634 -1.1475  0.7505
  222DG      H6 5089   2.901   3.455   1.009 -0.5892  0.6004 -0.4413
  222DG      H7 5090   2.980   3.336   0.903  1.2861  1.0082 -2.5587
  222DG      H8 5091   2.939   3.492   0.836  0.3105  0.3565  0.6225
  222DG      O9 5092   2.535   3.131   0.486 -0.3663 -1.0412 -0.2485
  222DG     O10 5093   2.777   3.372   0.875 -0.6410 -0.2009  0.3102
  222DG     C11 5094   2.490   3.258   0.540 -0.8906  0.2795  0.1408
  222DG     C12 5095   2.732   3.262   0.946  0.3997  0.7016  0.2443
  222DG     H13 5096   2.394   3.278   0.491  0.8853  0.0518 -3.8361
  222DG     H14 5097   2.555   3.343   0.519 -0.4794 -0.4799 -1.9136
  222DG     H15 5098   2.732   3.271   1.054  0.5071 -2.4738  0.6126
  222DG     H16 5099   2.793   3.174   0.922 -0.6215 -0.4181  1.5896
  222DG     C17 5100   2.470   3.253   0.693  0.6612  0.3223  0.5258
  222DG     C18 5101   2.589   3.242   0.898  0.3819  0.6179  0.8329
  222DG     O19 5102   2.590   3.225   0.756 -0.6259 -0.2436  0.0638
  222DG     H20 5103   2.397   3.177   0.721 -0.3711  1.6045  1.4052
  222DG     H21 5104   2.417   3.341   0.729 -1.1755 -0.5363  0.0425
  222DG     H22 5105   2.555   3.147   0.940  1.1416  0.7892  1.8873
  222DG     H23 5106   2.518   3.318   0.931  0.6591  1.3878 -0.3043
  223DG      C1 5107   3.308   3.874   4.627  0.2846 -0.1844 -0.3405
  223DG      C2 5108   2.862   3.994   4.029  0.4764  0.7938  0.5150
  223DG      H3 5109   3.316   3.974   4.668  0.2878 -0.4403  0.2920
  223DG      H4 5110   3.379   3.815   4.684  0.7814  2.3697  1.8566
  223DG      H5 5111   3.210   3.839   4.658 -0.4353  1.9888  0.0171
  223DG      H6 5112   2.754   4.009   4.041  0.3981 -0.7544  2.0038
  223DG      H7 5113   2.908   4.091   4.051  1.3209  0.2532  1.1610
  223DG      H8 5114   2.883   3.982   3.923 -0.8726  1.9239  0.0797
  223DG      O9 5115   3.339   3.882   4.489 -0.3584 -0.2060  0.0261
  223DG     O10 5116   2.908   3.880   4.110  0.2689  0.2302  0.6524
  223DG     C11 5117   3.320   3.752   4.422 -0.5660 -0.5635 -0.6477
  223DG     C12 5118   2.890   3.897   4.251  0.0568 -0.0411  0.0229
  223DG     H13 5119   3.378   3.679   4.478 -0.9525 -0.4241 -0.0591
  223DG     H14 5120   3.365   3.751   4.322  0.8762 -3.4378 -0.0768
  223DG     H15 5121   2.782   3.894   4.264  0.1813  0.1927  1.2397
  223DG     H16 5122   2.925   3.988   4.300  0.2231  0.1358 -0.4108
  223DG     C17 5123   3.177   3.706   4.405  0.0781  0.1630 -0.1104
  223DG     C18 5124   2.965   3.775   4.314  0.0558 -0.0736  0.1279
  223DG     O19 5125   3.103   3.811   4.340  0.5089  0.8485 -0.0241
  223DG     H20 5126   3.132   3.675   4.500 -2.8229  2.0562 -0.7413
  223DG     H21 5127   3.179   3.617   4.342  0.5481  0.0185  0.0962
  223DG     H22 5128   2.918   3.752   4.410 -2.5740 -4.1008 -1.8583
  223DG     H23 5129   2.947   3.680   4.263  2.6271 -1.8338  2.2091
  224DG      C1 5130   3.206   4.117   4.134 -0.5916 -0.3494  0.2375
  224DG      C2 5131   3.016   4.025   3.404 -0.1728 -1.0004  0.0427
  224DG      H3 5132   3.312   4.094   4.132 -0.7994 -1.2875 -0.7479
  224DG      H4 5133   3.149   4.025   4.150  0.0896 -0.2991  3.7380
  224DG      H5 5134   3.182   4.183   4.217 -1.8650  1.7120 -1.6462
  224DG      H6 5135   2.909   4.042   3.392  0.0808 -0.1448 -1.1480
  224DG      H7 5136   3.053   4.019   3.302  1.2880  0.6205  0.4516
  224DG      H8 5137   3.037   3.931   3.456  1.1072  0.6409  2.6543
  224DG      O9 5138   3.158   4.174   4.015 -0.1226 -0.5798 -0.3863
  224DG     O10 5139   3.076   4.131   3.472 -0.2470 -0.4429  0.6936
  224DG     C11 5140   3.246   4.282   3.971  0.1566  0.4535 -0.0884
  224DG     C12 5141   3.005   4.190   3.574  0.0434 -0.4464  0.2425
  224DG     H13 5142   3.334   4.230   3.935 -2.0038 -2.0195 -2.1593
  224DG     H14 5143   3.268   4.353   4.051 -0.9628  0.5877  0.1160
  224DG     H15 5144   2.967   4.121   3.649  0.5479 -1.5260 -0.4660
  224DG     H16 5145   2.927   4.249   3.525  1.7800  3.0320  1.2705
  224DG     C17 5146   3.199   4.342   3.840  0.1534  1.0261  1.0056
  224DG     C18 5147   3.083   4.299   3.641 -0.1090  0.3547  0.0649
  224DG     O19 5148   3.146   4.241   3.756  0.0286 -0.2422  0.5871
  224DG     H20 5149   3.275   4.410   3.802 -0.3270  1.0932  0.1366
  224DG     H21 5150   3.117   4.412   3.857 -0.9719  0.3355 -1.1660
  224DG     H22 5151   3.164   4.329   3.575  0.2411 -1.6956 -0.4947
  224DG     H23 5152   3.018   4.381   3.672  0.1407  0.7815 -0.5160
  225DG      C1 5153   2.720   2.798   3.111 -0.1303  0.8278  0.0031
  225DG      C2 5154   2.984   2.296   3.559  0.4665  0.3816 -0.4073
  225DG      H3 5155   2.667   2.825   3.019  0.8848  0.8976 -0.5797
  225DG      H4 5156   2.828   2.790   3.097  0.1596  1.0130  1.9310
  225DG      H5 5157   2.713   2.874   3.190 -0.5008 -0.3344  1.1126
  225DG      H6 5158   3.075   2.258   3.513  0.7868  1.2488 -0.4978
  225DG      H7 5159   2.995   2.397   3.598  0.7586  0.7447 -1.4008
  225DG      H8 5160   2.952   2.224   3.635  0.4778  1.9653  1.1548
  225DG      O9 5161   2.666   2.678   3.167  0.1677  0.3160  0.1207
  225DG     O10 5162   2.887   2.294   3.453  0.6658 -0.3989 -0.2978
  225DG     C11 5163   2.658   2.562   3.089 -0.1823 -0.5259  0.2137
  225DG     C12 5164   2.756   2.341   3.493 -0.4825 -0.7349  0.1864
  225DG     H13 5165   2.757   2.536   3.054 -0.0732 -0.2806  0.3339
  225DG     H14 5166   2.593   2.575   3.003 -2.4875  0.6618  1.9917
  225DG     H15 5167   2.756   2.442   3.535  0.7907 -1.4404  2.0178
  225DG     H16 5168   2.719   2.276   3.572 -1.3377 -0.8926 -0.3351
  225DG     C17 5169   2.606   2.445   3.175 -0.2973 -0.4020 -0.5217
  225DG     C18 5170   2.662   2.336   3.379  0.1492 -0.2414 -0.6702
  225DG     O19 5171   2.696   2.442   3.284 -0.2307 -0.1096 -0.1781
  225DG     H20 5172   2.620   2.352   3.121  2.5140 -0.1015 -0.4846
  225DG     H21 5173   2.506   2.470   3.211 -0.2564 -1.3593  0.2828
  225DG     H22 5174   2.670   2.236   3.335 -1.8976 -0.6385 -0.2492
  225DG     H23 5175   2.556   2.343   3.404  0.4950  2.1912  0.3191
  226DG      C1 5176   3.341   2.942   2.821 -0.0293  0.3843  0.4733
  226DG      C2 5177   3.703   3.487   3.069 -0.8299  0.2927 -0.1976
  226DG      H3 5178   3.309   2.839   2.836 -0.6011  0.2778 -1.2097
  226DG      H4 5179   3.417   2.934   2.744  2.5711 -2.3562  3.0667
  226DG      H5 5180   3.253   2.993   2.782 -0.8744 -0.3571  1.3494
  226DG      H6 5181   3.676   3.542   2.979  1.1441  0.9543 -0.4333
  226DG      H7 5182   3.719   3.540   3.162  1.7553 -3.2446  1.6216
  226DG      H8 5183   3.800   3.437   3.065 -1.3946 -0.8274 -0.3756
  226DG      O9 5184   3.388   3.007   2.939  0.1791  0.3205  0.2744
  226DG     O10 5185   3.606   3.387   3.096 -0.2030  0.2337  0.4493
  226DG     C11 5186   3.310   2.972   3.053 -0.6394 -0.3388  0.2335
  226DG     C12 5187   3.633   3.302   3.209  0.0615  0.2620 -0.6799
  226DG     H13 5188   3.291   2.864   3.057 -0.7233 -0.4188 -1.4629
  226DG     H14 5189   3.215   3.024   3.046 -0.3890  0.3232  1.5344
  226DG     H15 5190   3.671   3.362   3.292  0.0596 -0.5108 -0.1087
  226DG     H16 5191   3.714   3.240   3.172  0.8916  1.7171 -1.3753
  226DG     C17 5192   3.380   3.037   3.178 -0.4535 -0.1665 -0.3563
  226DG     C18 5193   3.510   3.212   3.249 -0.7422 -1.1037  0.3131
  226DG     O19 5194   3.480   3.133   3.140 -0.4954  0.8750 -0.1110
  226DG     H20 5195   3.439   2.958   3.224  2.0610  1.6488 -0.2664
  226DG     H21 5196   3.311   3.071   3.255 -0.4065  2.1249 -1.2347
  226DG     H22 5197   3.554   3.164   3.337  0.8419  1.4306  1.0277
  226DG     H23 5198   3.435   3.282   3.285  2.8520  2.2521  2.1436
  227DG      C1 5199   3.188   1.083   2.743 -0.2547 -0.1211  1.0399
  227DG      C2 5200   2.513   0.885   2.821 -0.2544 -0.3200 -0.2346
  227DG      H3 5201   3.214   1.028   2.834 -0.1533 -0.0486  1.0541
  227DG      H4 5202   3.175   1.188   2.771 -2.0642 -0.2927  1.0048
  227DG      H5 5203   3.269   1.082   2.671 -0.6351  0.7903  0.5766
  227DG      H6 5204   2.560   0.834   2.904 -1.2786 -1.4559 -0.3325
  227DG      H7 5205   2.493   0.989   2.847 -2.0144 -0.6038 -0.3344
  227DG      H8 5206   2.419   0.839   2.790  1.0011 -1.3017 -2.8597
  227DG      O9 5207   3.064   1.044   2.688  0.3477 -0.3064 -0.2380
  227DG     O10 5208   2.613   0.889   2.718 -0.2342 -0.2426 -0.1724
  227DG     C11 5209   3.015   1.132   2.581  0.1988 -0.3146 -0.4622
  227DG     C12 5210   2.591   0.990   2.624 -0.7894 -0.4673 -0.3401
  227DG     H13 5211   3.054   1.093   2.487 -1.1864 -1.7144 -0.4951
  227DG     H14 5212   3.041   1.236   2.600 -0.6962 -0.3756  1.2641
  227DG     H15 5213   2.596   1.092   2.662  0.9501 -0.3704 -0.7535
  227DG     H16 5214   2.493   0.987   2.578 -0.3160 -1.6118 -1.3079
  227DG     C17 5215   2.862   1.110   2.570 -0.6310  0.1807 -0.3249
  227DG     C18 5216   2.690   0.952   2.515 -0.3807  0.1125  0.6115
  227DG     O19 5217   2.827   0.972   2.552  0.2263 -0.2837  0.9813
  227DG     H20 5218   2.827   1.161   2.480  2.0798  2.2735 -0.3179
  227DG     H21 5219   2.814   1.167   2.649  1.0625  1.5312 -0.2236
  227DG     H22 5220   2.672   0.847   2.494 -0.6115  0.0737  1.0034
  227DG     H23 5221   2.670   1.001   2.420  1.6653  0.8768  0.5173
  228DG      C1 5222   4.513   1.156   3.088  0.0003  0.4973  0.4851
  228DG      C2 5223   3.719   1.463   3.061  0.3690  0.4074  0.2559
  228DG      H3 5224   4.538   1.092   3.004 -2.3822  1.7363 -1.2763
  228DG      H4 5225   4.447   1.100   3.154  1.9873  0.3790  2.5235
  228DG      H5 5226   4.602   1.173   3.150  0.6332  1.8186 -0.7242
  228DG      H6 5227   3.677   1.379   3.005  1.0916  0.3304 -0.1862
  228DG      H7 5228   3.685   1.454   3.164 -1.5313 -0.9394 -0.4146
  228DG      H8 5229   3.686   1.557   3.016 -2.3000 -1.1497 -1.3412
  228DG      O9 5230   4.469   1.274   3.021  0.6557 -0.1745  0.0288
  228DG     O10 5231   3.859   1.459   3.043 -0.9409 -0.0099  0.3269
  228DG     C11 5232   4.328   1.274   3.001  0.8821  0.3222  0.3415
  228DG     C12 5233   3.908   1.504   2.915 -0.4131  0.8737 -0.1295
  228DG     H13 5234   4.266   1.224   3.076 -0.8263  0.9653 -0.6034
  228DG     H14 5235   4.323   1.218   2.908  1.0041 -1.0480  1.1361
  228DG     H15 5236   3.870   1.606   2.907 -1.2258  0.5661 -0.3775
  228DG     H16 5237   3.868   1.442   2.835 -2.0909  1.3746  0.2669
  228DG     C17 5238   4.273   1.417   2.981  0.4155 -0.3866  0.0160
  228DG     C18 5239   4.063   1.506   2.924  0.0529 -0.6481  0.5465
  228DG     O19 5240   4.127   1.406   3.002  1.0232  0.8564  0.2286
  228DG     H20 5241   4.298   1.454   2.882 -0.8511 -0.6044 -0.4054
  228DG     H21 5242   4.305   1.470   3.071 -0.8045 -2.0199  1.4973
  228DG     H22 5243   4.098   1.518   2.822 -1.1932 -0.8471  0.0803
  228DG     H23 5244   4.079   1.604   2.971  0.9557 -1.0082  1.0211
  229DG      C1 5245   4.981   2.714   3.244  0.1684 -0.5592  0.6071
  229DG      C2 5246   4.846   2.562   3.928  0.6383  0.1316  0.5497
  229DG      H3 5247   4.961   2.690   3.139  2.0387 -2.3729  0.5948
  229DG      H4 5248   5.063   2.645   3.262  0.0851 -1.5521 -2.2304
  229DG      H5 5249   5.016   2.817   3.255 -0.0797 -0.3546 -0.4148
  229DG      H6 5250   4.796   2.514   4.013  0.0387 -2.6522 -1.2637
  229DG      H7 5251   4.952   2.544   3.944  0.7338  1.0306  0.9787
  229DG      H8 5252   4.846   2.671   3.938  2.2670  0.2372 -0.3451
  229DG      O9 5253   4.868   2.685   3.328  0.2333  0.0546  0.1759
  229DG     O10 5254   4.796   2.524   3.805 -0.0693 -0.0440  0.4319
  229DG     C11 5255   4.806   2.562   3.293 -0.3622 -0.3010 -0.1664
  229DG     C12 5256   4.667   2.567   3.766 -0.5092  0.0678  0.2307
  229DG     H13 5257   4.890   2.493   3.295 -0.5840 -0.5719  2.1004
  229DG     H14 5258   4.771   2.585   3.193 -0.6202  4.5095  0.8120
  229DG     H15 5259   4.658   2.675   3.753 -0.8841  0.1490  1.0825
  229DG     H16 5260   4.596   2.538   3.844 -0.3125  0.6374  0.6239
  229DG     C17 5261   4.691   2.538   3.389  0.4710 -0.3535 -0.1026
  229DG     C18 5262   4.647   2.496   3.626 -0.1563  0.3490 -0.0087
  229DG     O19 5263   4.734   2.553   3.529 -0.2230  0.2264  0.6746
  229DG     H20 5264   4.653   2.436   3.376  2.3047 -0.9533 -1.1953
  229DG     H21 5265   4.608   2.607   3.375  0.4445 -0.2154  0.7457
  229DG     H22 5266   4.666   2.389   3.637 -1.1508  0.0344 -1.1429
  229DG     H23 5267   4.545   2.480   3.589  0.0049 -0.1679 -0.2329
  230DG      C1 5268   0.314   1.127   0.648 -0.4472  0.2662  0.0543
  230DG      C2 5269   0.900   1.141   0.689 -0.5180  0.2994 -0.6117
  230DG      H3 5270   0.297   1.201   0.570  0.3830 -1.0441 -1.4300
  230DG      H4 5271   0.325   1.198   0.730 -0.9409  0.8307 -0.3618
  230DG      H5 5272   0.226   1.074   0.685 -1.2526  2.6509  1.8340
  230DG      H6 5273   0.851   1.059   0.742 -0.3043 -1.4230 -2.9420
  230DG      H7 5274   1.006   1.131   0.713 -0.6743  0.3811  0.1360
  230DG      H8 5275   0.864   1.232   0.737 -0.8668  1.3581 -2.7576
  230DG      O9 5276   0.434   1.056   0.622 -0.6337  0.1209 -0.0497
  230DG     O10 5277   0.872   1.150   0.550 -0.5895 -0.0860 -0.6337
  230DG     C11 5278   0.427   0.969   0.512  0.4110  0.0783  1.2728
  230DG     C12 5279   0.901   1.028   0.481  0.6927  0.0958 -0.8133
  230DG     H13 5280   0.397   1.015   0.418  1.6910 -1.1804  0.2046
  230DG     H14 5281   0.344   0.902   0.533  0.6867 -0.2072  1.4584
  230DG     H15 5282   0.995   0.988   0.520  0.6671  1.8701  1.2262
  230DG     H16 5283   0.905   1.045   0.373  0.6861  2.0673 -0.5419
  230DG     C17 5284   0.560   0.894   0.498 -0.7498  0.2174  0.1928
  230DG     C18 5285   0.795   0.923   0.510  0.3192 -0.8488 -0.1356
  230DG     O19 5286   0.668   0.986   0.479  0.2986 -0.1353 -0.8625
  230DG     H20 5287   0.545   0.821   0.419 -2.4562 -0.7213  1.3361
  230DG     H21 5288   0.580   0.826   0.581 -1.6950 -1.3565 -0.8278
  230DG     H22 5289   0.812   0.845   0.435  0.5005 -0.4322 -0.5350
  230DG     H23 5290   0.799   0.887   0.612 -0.3246  0.6832  0.4516
  231DG      C1 5291   1.567   3.725   3.646  0.2337  0.2124 -0.2488
  231DG      C2 5292   1.451   4.073   4.187 -0.2888 -0.2466 -0.3204
  231DG      H3 5293   1.543   3.832   3.651 -1.0658 -0.0498 -0.5007
  231DG      H4 5294   1.529   3.680   3.554 -1.5185 -0.9754  1.0073
  231DG      H5 5295   1.676   3.716   3.642  0.2227  0.3444 -1.1482
  231DG      H6 5296   1.546   4.115   4.152  0.9118 -1.1845  1.6119
  231DG      H7 5297   1.374   4.150   4.187  0.0784  0.1301  0.1675
  231DG      H8 5298   1.470   4.043   4.290 -1.0837  0.9421  0.1900
  231DG      O9 5299   1.509   3.662   3.763 -0.0048 -0.2208  0.3143
  231DG     O10 5300   1.429   3.955   4.110  0.2457 -0.2074  0.3446
  231DG     C11 5301   1.362   3.659   3.753 -0.2307 -0.1320  0.4523
  231DG     C12 5302   1.305   3.892   4.157  0.2124 -0.0148 -0.2915
  231DG     H13 5303   1.340   3.573   3.691 -1.1887 -0.1554  0.8139
  231DG     H14 5304   1.326   3.755   3.716  2.4289  0.1723 -1.6739
  231DG     H15 5305   1.222   3.962   4.144 -1.3657 -2.0952 -2.0055
  231DG     H16 5306   1.321   3.868   4.262 -2.8432 -0.8614  0.0762
  231DG     C17 5307   1.302   3.634   3.892  0.1266 -0.4915 -0.0841
  231DG     C18 5308   1.274   3.754   4.094  0.2619  0.4852 -0.3045
  231DG     O19 5309   1.301   3.756   3.962  0.3047 -0.2979  1.1258
  231DG     H20 5310   1.362   3.556   3.939  1.3653  0.3187 -0.2804
  231DG     H21 5311   1.198   3.601   3.890 -0.0204 -0.0804  0.5001
  231DG     H22 5312   1.329   3.673   4.142  0.4731 -0.0507 -1.4156
  231DG     H23 5313   1.171   3.724   4.115  0.3562  1.5052  1.9612
  232DG      C1 5314   4.849   2.824   0.219 -0.8884  0.5717 -0.1765
  232DG      C2 5315   5.535   2.562   0.408  0.7635 -0.0031 -0.2216
  232DG      H3 5316   4.910   2.847   0.132 -0.1920  0.0435  0.1611
  232DG      H4 5317   4.857   2.909   0.287  2.5795 -1.0501  1.7176
  232DG      H5 5318   4.746   2.818   0.184 -0.8207  1.0330 -0.4636
  232DG      H6 5319   5.512   2.605   0.505 -1.5539  1.3352 -1.2942
  232DG      H7 5320   5.605   2.480   0.427 -0.5975 -1.5532 -1.5240
  232DG      H8 5321   5.569   2.645   0.347 -0.6271  0.7673  0.0124
  232DG      O9 5322   4.890   2.706   0.290  0.1835 -0.3474 -0.2960
  232DG     O10 5323   5.415   2.506   0.353 -0.4202 -0.0803 -0.9048
  232DG     C11 5324   4.886   2.586   0.212  0.2213  0.3980  0.5082
  232DG     C12 5325   5.329   2.605   0.301 -0.2586  0.3865  0.1024
  232DG     H13 5326   4.789   2.583   0.163  1.2446 -1.7486 -1.5715
  232DG     H14 5327   4.900   2.508   0.287 -0.1962 -0.5729 -0.4038
  232DG     H15 5328   5.372   2.667   0.222  0.4934 -1.4113 -0.9686
  232DG     H16 5329   5.289   2.665   0.383  0.1074  1.0891 -0.2230
  232DG     C17 5330   5.012   2.568   0.117  1.0728 -0.1558 -0.0315
  232DG     C18 5331   5.223   2.524   0.226 -0.1828 -0.6141 -0.4575
  232DG     O19 5332   5.128   2.623   0.176  0.4912  0.2044  0.1833
  232DG     H20 5333   4.994   2.639   0.036 -1.0155  2.2864  2.3661
  232DG     H21 5334   5.016   2.464   0.086  1.0280 -0.0042 -0.5552
  232DG     H22 5335   5.283   2.483   0.145  2.7675  1.1056  0.6713
  232DG     H23 5336   5.167   2.446   0.277  0.9928 -0.2046  1.6149
  233DG      C1 5337   0.635   1.177   0.884  1.0200 -0.3814  0.1054
  233DG      C2 5338   0.735   1.265   0.224 -0.8362  0.8567  1.3455
  233DG      H3 5339   0.589   1.213   0.976  0.4503 -1.5247  0.2760
  233DG      H4 5340   0.742   1.172   0.904  1.1892  2.6482  0.4029
  233DG      H5 5341   0.596   1.080   0.854 -0.5123  0.5312 -1.0230
  233DG      H6 5342   0.664   1.183   0.222 -1.5620  1.4757 -0.3640
  233DG      H7 5343   0.714   1.331   0.139 -2.6586 -0.1507  0.9565
  233DG      H8 5344   0.839   1.237   0.239 -0.6814  0.5464 -0.1595
  233DG      O9 5345   0.617   1.272   0.780  0.3262 -0.7628  0.0779
  233DG     O10 5346   0.703   1.343   0.334 -0.1873 -0.0358  0.0380
  233DG     C11 5347   0.634   1.413   0.810  0.1121  0.1015 -0.5026
  233DG     C12 5348   0.783   1.455   0.354 -0.7724 -0.2848  0.1552
  233DG     H13 5349   0.737   1.429   0.844  0.2440  1.0595 -1.2979
  233DG     H14 5350   0.567   1.438   0.893  2.2096 -0.6119  1.5185
  233DG     H15 5351   0.804   1.508   0.262  1.9993 -1.1303  0.1921
  233DG     H16 5352   0.883   1.430   0.389 -0.3158  0.5974 -0.4772
  233DG     C17 5353   0.609   1.500   0.686 -0.1864  0.4477  0.9431
  233DG     C18 5354   0.710   1.541   0.464  0.4992 -0.3577 -0.6161
  233DG     O19 5355   0.704   1.459   0.581 -0.4371  0.2993  0.0576
  233DG     H20 5356   0.624   1.602   0.720  1.2169  0.2637  0.9484
  233DG     H21 5357   0.508   1.477   0.652  0.5336 -0.7904 -0.4852
  233DG     H22 5358   0.768   1.631   0.483  0.0924  0.3613 -2.4930
  233DG     H23 5359   0.607   1.568   0.441  0.0872  0.9459  2.3574
  234DG      C1 5360   0.920   1.289   4.293 -0.4722 -0.1764 -0.5943
  234DG      C2 5361   1.292   2.048   4.219 -0.4901 -0.7619 -0.2152
  234DG      H3 5362   0.904   1.300   4.400 -0.1896  0.9271 -0.6490
  234DG      H4 5363   1.012   1.239   4.263 -0.8920 -1.0309 -0.4788
  234DG      H5 5364   0.837   1.234   4.249 -0.9740  0.6118 -0.6699
  234DG      H6 5365   1.304   2.014   4.321 -0.3401  1.1243  0.4455
  234DG      H7 5366   1.383   2.030   4.162  1.6502  0.7926  2.4874
  234DG      H8 5367   1.305   2.156   4.231  0.6502 -0.5958 -2.3775
  234DG      O9 5368   0.915   1.423   4.251 -0.2607  0.0206  0.2148
  234DG     O10 5369   1.176   1.994   4.164 -0.1064 -0.5607  0.3569
  234DG     C11 5370   0.936   1.443   4.106  0.7888  0.2964  0.0775
  234DG     C12 5371   1.188   1.852   4.148  0.0583 -0.4751 -0.3762
  234DG     H13 5372   0.858   1.402   4.042 -0.1602 -0.0382  1.4056
  234DG     H14 5373   1.031   1.399   4.075  0.4814  0.0660 -0.5781
  234DG     H15 5374   1.204   1.797   4.240 -0.7315 -0.5054 -0.2473
  234DG     H16 5375   1.267   1.827   4.078 -0.2937  1.8531 -1.7254
  234DG     C17 5376   0.930   1.597   4.070 -0.5941 -0.2303  0.2547
  234DG     C18 5377   1.052   1.813   4.100  0.3855 -0.3633  0.3168
  234DG     O19 5378   1.046   1.671   4.121  0.1277  0.7416  0.0045
  234DG     H20 5379   0.842   1.651   4.104  0.5034  2.5854 -1.0366
  234DG     H21 5380   0.932   1.610   3.962  1.2605  0.5552  0.3522
  234DG     H22 5381   0.972   1.848   4.165 -0.2614 -0.5254 -0.3765
  234DG     H23 5382   1.042   1.846   3.996 -1.0564 -1.2852  0.1338
  235DG      C1 5383   0.280   3.551   1.310  0.2116 -0.0294  0.1040
  235DG      C2 5384  -0.088   3.192   0.957 -0.2188  0.2798  0.1560
  235DG      H3 5385   0.215   3.609   1.376 -1.3222 -0.9908 -0.4947
  235DG      H4 5386   0.377   3.600   1.309  0.7231 -1.0246  0.1889
  235DG      H5 5387   0.292   3.453   1.356 -2.6245  0.4663  2.2063
  235DG      H6 5388  -0.083   3.135   1.050 -2.2803  1.1686  0.8685
  235DG      H7 5389  -0.163   3.270   0.969 -1.0718 -0.5213  0.1368
  235DG      H8 5390  -0.106   3.126   0.872  0.4666 -1.4132  1.2628
  235DG      O9 5391   0.213   3.517   1.186  0.3865 -0.3413  0.1685
  235DG     O10 5392   0.036   3.249   0.930  0.0932 -0.1088 -0.1605
  235DG     C11 5393   0.244   3.619   1.085 -0.6034  0.6981  0.3103
  235DG     C12 5394   0.042   3.335   0.813 -0.3873  0.2110  0.0384
  235DG     H13 5395   0.351   3.637   1.078 -0.6700  0.9654 -0.0562
  235DG     H14 5396   0.201   3.715   1.114 -1.0043  0.0796  1.8591
  235DG     H15 5397  -0.022   3.423   0.822  1.7983  2.1315 -1.8536
  235DG     H16 5398   0.022   3.284   0.719  2.1582 -0.4599 -0.2108
  235DG     C17 5399   0.189   3.576   0.947  0.0039  0.9907  0.7085
  235DG     C18 5400   0.185   3.388   0.805  0.3522 -0.1094  0.4159
  235DG     O19 5401   0.237   3.447   0.921  0.2704 -0.1270 -0.0430
  235DG     H20 5402   0.220   3.647   0.869 -0.4947 -0.0994 -0.5099
  235DG     H21 5403   0.081   3.581   0.944  0.0139  1.9326 -2.4581
  235DG     H22 5404   0.249   3.306   0.773 -2.3855 -1.8258 -0.9948
  235DG     H23 5405   0.198   3.465   0.730 -0.9922  0.2365  0.5092
  236DG      C1 5406   0.128   0.049   5.353  0.3140 -0.6014 -0.0461
  236DG      C2 5407  -0.480   0.296   5.421  0.1953  0.0451 -0.0866
  236DG      H3 5408   0.106  -0.039   5.293 -3.2826 -0.3679  0.6765
  236DG      H4 5409   0.097   0.018   5.453 -0.0772  0.3090  0.1240
  236DG      H5 5410   0.233   0.076   5.342  0.1374  0.1472  0.0520
  236DG      H6 5411  -0.562   0.366   5.406  1.7051  2.0924  0.7131
  236DG      H7 5412  -0.512   0.193   5.409  0.4280 -0.2696  1.7608
  236DG      H8 5413  -0.457   0.310   5.527  0.6393  0.3015 -0.2151
  236DG      O9 5414   0.053   0.166   5.304 -0.1705  0.4390  0.0156
  236DG     O10 5415  -0.355   0.324   5.347 -0.0665 -0.4140 -0.4877
  236DG     C11 5416   0.083   0.206   5.174 -0.3275 -0.1167 -0.2607
  236DG     C12 5417  -0.372   0.309   5.204  0.6282  0.5081  0.1888
  236DG     H13 5418   0.065   0.123   5.106 -1.2618  0.2776 -0.5118
  236DG     H14 5419   0.187   0.237   5.177 -0.3368 -0.0410  3.1770
  236DG     H15 5420  -0.462   0.361   5.169  0.5848 -0.4269 -1.1573
  236DG     H16 5421  -0.384   0.202   5.186  0.2419  0.5873 -0.0494
  236DG     C17 5422  -0.010   0.315   5.136 -0.6428 -0.3421 -0.1514
  236DG     C18 5423  -0.242   0.358   5.132 -0.0770  0.1748 -0.2745
  236DG     O19 5424  -0.137   0.267   5.161  0.3148 -0.3310 -0.4602
  236DG     H20 5425   0.004   0.326   5.029 -1.5028  0.3442 -0.2066
  236DG     H21 5426   0.012   0.415   5.175 -0.1805 -0.9553  1.2045
  236DG     H22 5427  -0.252   0.346   5.024 -0.8737 -1.3844 -0.0554
  236DG     H23 5428  -0.214   0.461   5.154 -0.5594  0.3020 -0.2518
  237DG      C1 5429   2.317   4.879   5.457  0.4036  0.4920 -0.4323
  237DG      C2 5430   2.421   5.570   5.486 -0.4215 -0.0866  0.1189
  237DG      H3 5431   2.257   4.798   5.417  1.0358  0.5924 -1.6183
  237DG      H4 5432   2.301   4.884   5.565  1.8966 -0.6275 -0.1167
  237DG      H5 5433   2.425   4.865   5.456  0.6248  1.8261  0.9508
  237DG      H6 5434   2.479   5.549   5.576  3.1519 -0.7791 -2.1177
  237DG      H7 5435   2.497   5.605   5.415  0.4052 -1.3347  0.3456
  237DG      H8 5436   2.361   5.658   5.511 -2.0015 -1.5593  1.7522
  237DG      O9 5437   2.271   5.003   5.404 -0.3780 -0.6210  0.1151
  237DG     O10 5438   2.348   5.459   5.436  0.5739  0.2694  0.4901
  237DG     C11 5439   2.271   5.000   5.262 -0.1581 -0.3200  0.3380
  237DG     C12 5440   2.332   5.464   5.294 -1.0897  0.5329 -0.1484
  237DG     H13 5441   2.218   4.910   5.232 -1.2237  0.6209 -0.7279
  237DG     H14 5442   2.376   4.983   5.239 -0.1179 -1.6833  1.4330
  237DG     H15 5443   2.430   5.444   5.251 -1.1322 -4.5973  1.4797
  237DG     H16 5444   2.311   5.567   5.263  0.6948  0.2775 -2.4723
  237DG     C17 5445   2.210   5.129   5.210  0.0144  0.4521  0.0856
  237DG     C18 5446   2.233   5.363   5.238 -0.1846  0.0067  0.0746
  237DG     O19 5447   2.254   5.237   5.290 -0.6935 -0.1830 -0.3310
  237DG     H20 5448   2.101   5.126   5.200  0.1374  0.1871 -1.3171
  237DG     H21 5449   2.243   5.141   5.107  1.2823  0.8837  0.5242
  237DG     H22 5450   2.130   5.395   5.251 -0.2618  0.5798 -1.7046
  237DG     H23 5451   2.248   5.361   5.130  0.1136  0.5287  0.1065
  238DG      C1 5452   1.910   2.362   1.870  0.1517 -0.2521 -0.1544
  238DG      C2 5453   1.236   2.291   1.871  0.1191 -0.2414 -0.1272
  238DG      H3 5454   1.926   2.257   1.896  0.4879  0.4338  2.8829
  238DG      H4 5455   1.917   2.400   1.973 -2.1152 -0.2568  0.0419
  238DG      H5 5456   1.995   2.405   1.817 -0.7335  0.1041 -1.3215
  238DG      H6 5457   1.175   2.210   1.911  2.1268 -1.4291  0.6674
  238DG      H7 5458   1.239   2.345   1.966 -0.4899 -0.5770  0.0916
  238DG      H8 5459   1.193   2.346   1.787 -0.2201  2.4251  1.6568
  238DG      O9 5460   1.795   2.392   1.804  0.4143  0.5904 -0.2943
  238DG     O10 5461   1.368   2.266   1.839 -0.0825 -0.6434  0.3505
  238DG     C11 5462   1.793   2.342   1.673 -0.1251  0.3219  0.2741
  238DG     C12 5463   1.369   2.178   1.727  0.6070  0.2239 -0.7861
  238DG     H13 5464   1.891   2.338   1.626 -0.3285 -1.2165 -0.0527
  238DG     H14 5465   1.729   2.407   1.613  0.8217  2.6563  1.6528
  238DG     H15 5466   1.342   2.224   1.632 -1.3555 -0.6342 -0.6792
  238DG     H16 5467   1.298   2.097   1.744 -1.9631  2.1834 -1.5155
  238DG     C17 5468   1.720   2.211   1.665  0.0106  0.1024 -0.0867
  238DG     C18 5469   1.510   2.124   1.704  0.6181 -0.2809 -0.5238
  238DG     O19 5470   1.587   2.240   1.699  0.2418 -0.4024 -0.2200
  238DG     H20 5471   1.771   2.131   1.718 -0.5269  0.5498  1.1578
  238DG     H21 5472   1.726   2.172   1.563  3.7823 -1.4511  0.5649
  238DG     H22 5473   1.538   2.053   1.783  1.5914 -1.0333 -1.5114
  238DG     H23 5474   1.509   2.067   1.611 -0.1970 -1.3887  0.1259
  239DG      C1 5475   4.070   1.469   3.663  0.1608 -0.8053 -0.0627
  239DG      C2 5476   3.961   1.100   3.065 -0.9621  0.3394  0.2726
  239DG      H3 5477   4.040   1.389   3.731  0.9129 -3.2718 -2.4809
  239DG      H4 5478   4.064   1.567   3.711 -2.1283 -0.5623 -0.7355
  239DG      H5 5479   4.175   1.446   3.645  0.2786 -0.3078 -0.0190
  239DG      H6 5480   4.066   1.120   3.048 -0.7578  1.4136  2.3672
  239DG      H7 5481   3.941   0.993   3.071 -1.1676  0.4557  2.9296
  239DG      H8 5482   3.899   1.138   2.984 -0.6354 -0.7070 -0.4851
  239DG      O9 5483   4.000   1.467   3.535 -0.2945  0.4175 -0.3458
  239DG     O10 5484   3.914   1.169   3.176 -0.5759  0.4858 -0.6297
  239DG     C11 5485   3.860   1.470   3.550 -0.2395 -0.1621 -0.1764
  239DG     C12 5486   3.782   1.134   3.215  0.4691  1.0389  0.4778
  239DG     H13 5487   3.825   1.533   3.469  0.6075  0.8390  0.2188
  239DG     H14 5488   3.843   1.517   3.647  2.3102 -0.0050  0.2578
  239DG     H15 5489   3.765   1.026   3.207 -1.9016  1.3129  0.9167
  239DG     H16 5490   3.704   1.182   3.156 -1.8089 -0.8855  1.7108
  239DG     C17 5491   3.804   1.331   3.530  0.1597  0.0122 -0.4217
  239DG     C18 5492   3.770   1.175   3.364  0.0054  1.2241 -0.2409
  239DG     O19 5493   3.817   1.305   3.396 -0.5035 -0.0950  0.4826
  239DG     H20 5494   3.697   1.343   3.551  0.5946  2.3854  0.8528
  239DG     H21 5495   3.848   1.260   3.600 -0.6578  1.4197  1.6387
  239DG     H22 5496   3.675   1.147   3.408 -0.1746  1.4815 -0.4600
  239DG     H23 5497   3.847   1.117   3.415 -1.4732  2.0649  3.2882
  240DG      C1 5498   3.424   0.223   1.615 -0.0807 -0.6135 -0.6391
  240DG      C2 5499   3.759  -0.376   1.336 -0.5887  0.0044  0.0661
  240DG      H3 5500   3.513   0.278   1.643 -0.5843 -0.2205  0.1990
  240DG      H4 5501   3.403   0.147   1.690 -0.0348  0.1655  0.1659
  240DG      H5 5502   3.340   0.288   1.592 -0.4132 -0.3070  1.3143
  240DG      H6 5503   3.688  -0.435   1.393 -1.2768 -0.9628 -1.7464
  240DG      H7 5504   3.753  -0.416   1.235 -0.5131  1.8737 -0.7205
  240DG      H8 5505   3.861  -0.385   1.376 -1.4159  0.3230  2.4236
  240DG      O9 5506   3.454   0.136   1.505  0.3197 -0.2954 -0.0744
  240DG     O10 5507   3.719  -0.240   1.323 -0.1479  0.5953 -0.5411
  240DG     C11 5508   3.486   0.218   1.390  0.1155  0.9010 -0.6752
  240DG     C12 5509   3.589  -0.236   1.267  0.1205 -0.8638  0.1596
  240DG     H13 5510   3.568   0.289   1.399 -1.5815  2.6915  3.5586
  240DG     H14 5511   3.397   0.276   1.365 -1.3664 -0.6895  0.6561
  240DG     H15 5512   3.519  -0.274   1.341  1.7514 -2.5763  0.8916
  240DG     H16 5513   3.581  -0.299   1.178 -0.7965  1.2258 -1.3362
  240DG     C17 5514   3.518   0.126   1.275  0.7215  0.5098  0.0862
  240DG     C18 5515   3.570  -0.097   1.218 -0.3686 -0.4427 -0.2768
  240DG     O19 5516   3.571   0.000   1.317 -0.2425  0.0681 -0.4023
  240DG     H20 5517   3.594   0.166   1.207  0.8537 -1.0782 -0.7515
  240DG     H21 5518   3.423   0.100   1.230  0.5137  2.4310 -0.6607
  240DG     H22 5519   3.650  -0.066   1.150 -0.2935  1.6590  0.6832
  240DG     H23 5520   3.480  -0.088   1.158 -0.1879 -0.0221 -0.4917
  241DG      C1 5521   3.594   2.720   3.117  0.8807  0.1202 -0.3050
  241DG      C2 5522   4.196   2.455   2.828 -0.4753  0.0481 -0.1152
  241DG      H3 5523   3.561   2.745   3.218 -0.4565 -0.8778 -0.4753
  241DG      H4 5524   3.514   2.657   3.080 -0.5365  1.1825  0.8110
  241DG      H5 5525   3.584   2.804   3.048  1.2178 -0.6079 -1.2550
  241DG      H6 5526   4.140   2.364   2.805 -2.3361  1.0915  0.1429
  241DG      H7 5527   4.206   2.521   2.743 -0.6821  0.6411  0.3177
  241DG      H8 5528   4.300   2.425   2.844  0.3463  2.5565 -0.4329
  241DG      O9 5529   3.717   2.652   3.109  0.2182  0.5854  0.6453
  241DG     O10 5530   4.146   2.530   2.943 -0.1271  0.4740  0.1801
  241DG     C11 5531   3.825   2.739   3.138 -1.1908 -0.2177  0.2057
  241DG     C12 5532   4.141   2.443   3.051  0.0259 -0.0762 -0.3595
  241DG     H13 5533   3.802   2.771   3.240 -1.4261 -0.6719  0.2978
  241DG     H14 5534   3.821   2.838   3.093 -2.4210  0.8849  2.5753
  241DG     H15 5535   4.235   2.390   3.067  0.1290 -0.0757 -0.9459
  241DG     H16 5536   4.075   2.356   3.039 -0.3894  0.2980 -0.8156
  241DG     C17 5537   3.973   2.684   3.128  0.1095  0.0688  0.5785
  241DG     C18 5538   4.115   2.512   3.183  0.2751  0.2126  1.0122
  241DG     O19 5539   3.987   2.559   3.195  0.4225  0.3360  0.4098
  241DG     H20 5540   4.043   2.749   3.181  0.4000  1.8035 -1.7639
  241DG     H21 5541   4.018   2.694   3.029  2.3415 -0.5066  1.4824
  241DG     H22 5542   4.136   2.434   3.256  0.4788  1.1387  1.9539
  241DG     H23 5543   4.191   2.586   3.209  0.6860 -0.3640  1.4634
  242DG      C1 5544   1.741   3.231   1.427 -1.0761 -0.1329  0.1827
  242DG      C2 5545   1.795   3.932   1.437 -1.0255 -0.3007 -0.1757
  242DG      H3 5546   1.686   3.137   1.426  0.2100 -0.9030 -0.4507
  242DG      H4 5547   1.842   3.213   1.392 -1.1413  1.4125 -0.8839
  242DG      H5 5548   1.703   3.297   1.349  1.4898  0.6859 -0.4586
  242DG      H6 5549   1.869   4.001   1.477 -1.5836 -0.3093  0.9176
  242DG      H7 5550   1.847   3.838   1.416 -1.0141 -0.1022 -1.0849
  242DG      H8 5551   1.776   3.976   1.339  0.2992  0.2312 -0.2170
  242DG      O9 5552   1.722   3.295   1.546  0.2554  0.1919 -0.7147
  242DG     O10 5553   1.686   3.931   1.534  0.0784  0.0190  0.4566
  242DG     C11 5554   1.791   3.417   1.560 -0.2258  0.2697  0.0809
  242DG     C12 5555   1.716   3.886   1.667  0.0146 -0.0184 -0.6304
  242DG     H13 5556   1.810   3.459   1.462  1.5309 -0.8191 -0.0978
  242DG     H14 5557   1.895   3.397   1.588  1.0041  2.3347 -2.6076
  242DG     H15 5558   1.677   3.960   1.737  0.6319 -0.7559  0.5273
  242DG     H16 5559   1.823   3.895   1.690  0.1049  2.4492 -1.6480
  242DG     C17 5560   1.712   3.508   1.656  0.2548  0.0590 -0.2584
  242DG     C18 5561   1.672   3.745   1.708 -0.6411 -0.4984 -0.1935
  242DG     O19 5562   1.740   3.650   1.631 -0.5351 -0.3917  0.1923
  242DG     H20 5563   1.735   3.484   1.760 -3.1252 -2.2126  0.1279
  242DG     H21 5564   1.606   3.481   1.660  0.3584 -0.3060  0.2414
  242DG     H22 5565   1.673   3.742   1.817  0.6528  2.1606 -0.0581
  242DG     H23 5566   1.566   3.735   1.684 -1.2843  1.8514  1.2654
  243DG      C1 5567   5.388   1.702   1.977 -0.1878 -0.2141  0.4056
  243DG      C2 5568   6.171   1.399   2.125  0.7554  0.2282  0.2615
  243DG      H3 5569   5.416   1.739   2.076  0.3132  1.0767 -0.1885
  243DG      H4 5570   5.325   1.614   1.986  1.3988 -1.3209  1.0458
  243DG      H5 5571   5.340   1.786   1.928  3.2114  0.6494 -1.8344
  243DG      H6 5572   6.115   1.359   2.209  1.3606  2.3622  1.7659
  243DG      H7 5573   6.227   1.314   2.087 -0.4348 -0.7419  0.6255
  243DG      H8 5574   6.227   1.486   2.159  1.6776 -1.0642  2.1820
  243DG      O9 5575   5.507   1.668   1.909 -0.2711  0.2134  0.1789
  243DG     O10 5576   6.085   1.433   2.015 -0.0219 -0.1536  0.3931
  243DG     C11 5577   5.605   1.773   1.920  0.4653  0.3476  0.7907
  243DG     C12 5578   5.943   1.476   2.036 -0.7472  0.0955  0.1681
  243DG     H13 5579   5.610   1.818   2.019 -2.3821 -2.3273  2.3320
  243DG     H14 5580   5.575   1.850   1.849  3.6548  1.6298  0.6780
  243DG     H15 5581   5.923   1.531   2.129  0.1417 -0.1260  0.4968
  243DG     H16 5582   5.883   1.386   2.026  1.7077 -1.4690 -1.4345
  243DG     C17 5583   5.731   1.711   1.867  0.4096 -0.0890 -0.5655
  243DG     C18 5584   5.904   1.566   1.925 -0.1017  0.3030 -0.0037
  243DG     O19 5585   5.787   1.624   1.961  0.1955  0.7500 -0.6166
  243DG     H20 5586   5.796   1.798   1.860 -0.2374  0.5331  0.7630
  243DG     H21 5587   5.706   1.664   1.771 -0.9595 -0.3949 -0.0827
  243DG     H22 5588   5.984   1.638   1.905 -0.1533  0.1208 -0.9517
  243DG     H23 5589   5.893   1.513   1.830  0.0425  0.1981  0.0379
  244DG      C1 5590   3.835   3.559   1.566  0.1880  0.2344  0.6381
  244DG      C2 5591   3.642   4.245   1.409  0.6017 -0.7293  0.0430
  244DG      H3 5592   3.796   3.554   1.668  0.3561  1.2908  0.7679
  244DG      H4 5593   3.944   3.568   1.568  0.2469  0.0900 -0.8930
  244DG      H5 5594   3.816   3.463   1.518 -1.0094  1.3504 -1.2873
  244DG      H6 5595   3.617   4.252   1.515  0.1915 -0.7371 -0.0504
  244DG      H7 5596   3.738   4.295   1.399 -0.3764  1.7140  1.7914
  244DG      H8 5597   3.584   4.321   1.356  1.6203  0.9717  1.2533
  244DG      O9 5598   3.782   3.665   1.479  0.2077 -0.0736 -0.1736
  244DG     O10 5599   3.636   4.113   1.366  0.3508  0.3838  0.2566
  244DG     C11 5600   3.837   3.664   1.348 -0.0263  0.2194 -0.1207
  244DG     C12 5601   3.700   4.099   1.242  0.5046  0.2445 -0.3049
  244DG     H13 5602   3.854   3.564   1.307 -1.7586 -0.2200  0.1419
  244DG     H14 5603   3.932   3.716   1.337 -0.3991  0.6950 -1.2551
  244DG     H15 5604   3.805   4.129   1.246  0.2628  1.0432  0.3502
  244DG     H16 5605   3.646   4.164   1.173 -0.5066  0.2929  0.4999
  244DG     C17 5606   3.745   3.736   1.255 -0.1734 -0.0847  0.8944
  244DG     C18 5607   3.679   3.957   1.206 -0.4862 -0.1649 -0.0211
  244DG     O19 5608   3.746   3.873   1.302  0.3300  0.2101 -0.1643
  244DG     H20 5609   3.648   3.687   1.256 -0.4229  0.3694 -0.0782
  244DG     H21 5610   3.779   3.723   1.152 -1.9544  1.3096  0.0787
  244DG     H22 5611   3.574   3.930   1.215 -1.0044  1.7340  0.0712
  244DG     H23 5612   3.704   3.945   1.101 -1.0677 -0.9371 -0.0808
  245DG      C1 5613   2.022   1.398   4.165 -0.5605  0.0854 -0.2078
  245DG      C2 5614   1.436   1.096   4.179  0.4818 -0.1501  0.0390
  245DG      H3 5615   2.072   1.305   4.137 -0.2574 -0.0626  0.7707
  245DG      H4 5616   2.027   1.400   4.274  2.1517  0.8893 -0.2727
  245DG      H5 5617   2.091   1.477   4.135  1.0349 -0.9639  0.5308
  245DG      H6 5618   1.374   1.012   4.151  0.1165 -0.4871  1.7397
  245DG      H7 5619   1.450   1.099   4.287  3.6100  2.7706 -0.2812
  245DG      H8 5620   1.376   1.187   4.168  0.8753  0.0089 -0.8779
  245DG      O9 5621   1.895   1.421   4.104 -0.0720 -0.4189  0.6640
  245DG     O10 5622   1.565   1.105   4.125 -0.1208  0.0139  0.1921
  245DG     C11 5623   1.886   1.427   3.965 -0.1616  0.1620 -0.3027
  245DG     C12 5624   1.564   1.060   3.990  0.3782  0.4131  0.4280
  245DG     H13 5625   1.970   1.480   3.921 -0.0018  1.2091  1.1975
  245DG     H14 5626   1.799   1.486   3.935  0.1620  0.4168 -0.7385
  245DG     H15 5627   1.490   1.108   3.927  0.6623  1.5217  0.9233
  245DG     H16 5628   1.548   0.952   3.992 -2.4379  0.7181 -0.5094
  245DG     C17 5629   1.862   1.283   3.912 -0.2464  0.2702 -0.6262
  245DG     C18 5630   1.701   1.102   3.934  0.3426  0.4173  0.1882
  245DG     O19 5631   1.727   1.240   3.943 -0.0419 -0.0469 -0.0112
  245DG     H20 5632   1.944   1.229   3.960  1.5060  1.9912 -1.5209
  245DG     H21 5633   1.884   1.273   3.806 -1.7758 -1.7525 -0.8199
  245DG     H22 5634   1.777   1.050   3.992  1.2578  1.3643 -0.1289
  245DG     H23 5635   1.703   1.061   3.833  1.2010 -0.8640  0.6990
  246DG      C1 5636   1.703   5.083   3.148  0.7504 -0.3196  0.1402
  246DG      C2 5637   1.390   5.080   2.586  0.9527 -0.1089  0.3756
  246DG      H3 5638   1.612   5.025   3.135  0.8114 -0.5137  0.5507
  246DG      H4 5639   1.680   5.179   3.195  0.8608 -0.7964  1.2046
  246DG      H5 5640   1.773   5.035   3.217  1.9339  0.1390 -0.7029
  246DG      H6 5641   1.421   5.106   2.688  1.9242  1.8250 -0.3470
  246DG      H7 5642   1.342   5.171   2.548 -3.6277 -1.5741  1.9968
  246DG      H8 5643   1.315   5.002   2.583  0.8519 -0.0014  0.0464
  246DG      O9 5644   1.749   5.105   3.017 -0.2484 -0.5625  0.0912
  246DG     O10 5645   1.485   5.034   2.496  0.3264 -0.8379  0.1880
  246DG     C11 5646   1.685   5.212   2.951  0.3892 -0.4418 -0.7003
  246DG     C12 5647   1.612   5.096   2.502 -0.4995  0.3881  0.1672
  246DG     H13 5648   1.723   5.302   2.998  1.6281 -2.4078  2.3687
  246DG     H14 5649   1.580   5.202   2.979  0.0525  2.4406 -0.7109
  246DG     H15 5650   1.599   5.203   2.516 -1.9772  0.2229  0.2284
  246DG     H16 5651   1.664   5.081   2.408 -1.8803  2.2106 -0.9733
  246DG     C17 5652   1.701   5.206   2.788 -0.3993 -0.6763 -0.1423
  246DG     C18 5653   1.699   5.041   2.623  0.2337  0.3502  0.5928
  246DG     O19 5654   1.655   5.085   2.748  0.1060  0.3609 -0.1649
  246DG     H20 5655   1.805   5.221   2.759 -0.9385 -2.7459 -3.7366
  246DG     H21 5656   1.644   5.275   2.726 -1.7423 -1.8914 -0.3115
  246DG     H22 5657   1.706   4.935   2.602  1.4036  0.5853 -0.3141
  246DG     H23 5658   1.797   5.082   2.597  1.8194 -3.2048  0.4803
  247DG      C1 5659   0.484   2.662   1.190  0.1721 -0.0688 -0.0806
  247DG      C2 5660   1.071   2.307   1.483 -0.1344 -0.0863  0.0243
  247DG      H3 5661   0.462   2.721   1.278 -1.6280 -2.3071  1.0942
  247DG      H4 5662   0.451   2.562   1.219 -0.8627  0.1671 -0.3834
  247DG      H5 5663   0.432   2.702   1.103  0.6814  1.2835  0.2260
  247DG      H6 5664   1.039   2.323   1.586  0.6599 -1.4813  0.5209
  247DG      H7 5665   1.027   2.210   1.459 -2.9319  1.0427  0.2097
  247DG      H8 5666   1.180   2.308   1.486 -0.1351  1.5261  0.8271
  247DG      O9 5667   0.626   2.653   1.172  0.8904 -0.0697 -0.1831
  247DG     O10 5668   1.028   2.401   1.389 -0.1940 -0.3724 -0.0997
  247DG     C11 5669   0.701   2.774   1.199 -0.3860  0.4559  0.0366
  247DG     C12 5670   1.071   2.530   1.411  0.3227  0.2215 -0.2105
  247DG     H13 5671   0.681   2.810   1.300  2.5879 -1.5457  1.4980
  247DG     H14 5672   0.669   2.853   1.131  0.2122  0.7711  0.1166
  247DG     H15 5673   1.180   2.528   1.407  0.3164  0.6318 -0.6991
  247DG     H16 5674   1.045   2.561   1.512 -2.1603 -0.1215 -0.6722
  247DG     C17 5675   0.850   2.741   1.196  0.1893 -0.1436  0.5968
  247DG     C18 5676   1.021   2.627   1.294  0.0064  0.0217 -1.3065
  247DG     O19 5677   0.886   2.655   1.301 -0.1271  0.2561 -0.3709
  247DG     H20 5678   0.903   2.836   1.197 -0.4898  0.2500  0.1935
  247DG     H21 5679   0.864   2.697   1.098 -0.0958  1.4700 -0.1991
  247DG     H22 5680   1.072   2.722   1.304 -0.7411  0.2853  0.5296
  247DG     H23 5681   1.031   2.579   1.197 -0.9883 -0.5265 -1.1592
  248DG      C1 5682   3.901   1.720   3.278 -0.6053 -0.6241 -0.3508
  248DG      C2 5683   4.170   1.064   3.344 -0.8835  0.5598 -0.7420
  248DG      H3 5684   3.806   1.674   3.304 -0.5670  0.4761  1.9636
  248DG      H4 5685   3.900   1.717   3.169 -0.4700  0.3917 -0.3874
  248DG      H5 5686   3.895   1.818   3.326 -1.0478 -0.3773 -0.8944
  248DG      H6 5687   4.137   1.047   3.446  1.2614  1.2007  0.1155
  248DG      H7 5688   4.098   1.033   3.268 -1.4775  2.2703 -0.9239
  248DG      H8 5689   4.259   1.003   3.334 -1.4804 -0.8670  1.9001
  248DG      O9 5690   4.011   1.639   3.322 -0.2075 -0.0067  0.0597
  248DG     O10 5691   4.191   1.198   3.311  0.2386 -0.4176  0.0344
  248DG     C11 5692   4.129   1.701   3.283  0.3655 -0.2756 -1.2335
  248DG     C12 5693   4.277   1.263   3.407 -0.0099 -0.3032  0.5112
  248DG     H13 5694   4.142   1.801   3.325  1.9277 -1.0070  0.1404
  248DG     H14 5695   4.135   1.720   3.176  0.1987  1.4701 -0.9669
  248DG     H15 5696   4.357   1.191   3.420 -0.0245 -0.6033 -0.8532
  248DG     H16 5697   4.225   1.268   3.502 -0.4069  0.1533  0.2748
  248DG     C17 5698   4.250   1.624   3.332  0.0512  0.3027 -0.1530
  248DG     C18 5699   4.329   1.405   3.366 -0.0404 -0.1420  0.3795
  248DG     O19 5700   4.224   1.489   3.315 -0.4070  0.0140 -0.2393
  248DG     H20 5701   4.256   1.636   3.441  1.5530 -4.0272  0.4480
  248DG     H21 5702   4.349   1.652   3.295 -0.0142  2.6421  1.1755
  248DG     H22 5703   4.374   1.451   3.453  2.6897 -0.1407 -0.9502
  248DG     H23 5704   4.412   1.395   3.297  0.9002 -0.6487  1.5582
  249DG      C1 5705   5.371   2.346   2.673  0.1542 -0.0800 -0.4511
  249DG      C2 5706   5.704   2.472   3.303 -0.4455 -0.3566  0.3375
  249DG      H3 5707   5.409   2.405   2.756  1.7540  1.0300 -1.9033
  249DG      H4 5708   5.283   2.394   2.629 -2.0463 -2.3984  1.1159
  249DG      H5 5709   5.445   2.360   2.594 -0.3003  0.1172 -0.8509
  249DG      H6 5710   5.679   2.565   3.252 -2.0632 -0.4342  0.9478
  249DG      H7 5711   5.693   2.479   3.411  3.6801 -0.9244  0.9489
  249DG      H8 5712   5.806   2.434   3.300 -0.2291  0.2780 -1.4501
  249DG      O9 5713   5.342   2.211   2.701  0.2780 -0.5167  0.2338
  249DG     O10 5714   5.615   2.379   3.249  0.3653 -0.0996 -0.3805
  249DG     C11 5715   5.458   2.131   2.722  0.1046  0.3368  0.0247
  249DG     C12 5716   5.616   2.383   3.109 -0.2427  0.4350 -0.0697
  249DG     H13 5717   5.546   2.169   2.671 -0.8423  0.3803 -1.6581
  249DG     H14 5718   5.438   2.032   2.679 -1.7657  0.9775 -0.6780
  249DG     H15 5719   5.711   2.345   3.072 -0.8849 -0.7508 -0.5307
  249DG     H16 5720   5.593   2.470   3.047  2.9128 -0.3289 -2.5929
  249DG     C17 5721   5.482   2.127   2.868 -0.0480  0.3071  0.0879
  249DG     C18 5722   5.519   2.275   3.056  0.0461  0.0099  0.5433
  249DG     O19 5723   5.536   2.252   2.914  0.4501 -0.1996 -0.4046
  249DG     H20 5724   5.538   2.037   2.893 -1.0264 -0.9624 -2.0272
  249DG     H21 5725   5.387   2.113   2.920 -0.0365  0.9280  0.2752
  249DG     H22 5726   5.532   2.184   3.114 -1.0277 -0.0681  0.6828
  249DG     H23 5727   5.419   2.307   3.083 -0.2261 -0.3148 -0.0728
  250DG      C1 5728   2.683   1.429   3.688  0.1283 -0.0238 -0.3302
  250DG      C2 5729   3.062   1.916   3.483  0.2677 -0.7022  0.4545
  250DG      H3 5730   2.715   1.375   3.777 -1.1260  0.0308  0.1744
  250DG      H4 5731   2.752   1.409   3.605  2.1092 -0.5552  1.3678
  250DG      H5 5732   2.591   1.377   3.660 -0.5179 -0.3602  2.2274
  250DG      H6 5733   3.070   2.020   3.454  0.4735 -1.2911 -1.7369
  250DG      H7 5734   3.158   1.874   3.512 -0.7161 -1.1477  3.4740
  250DG      H8 5735   3.030   1.865   3.392 -0.8105 -0.1137  0.4838
  250DG      O9 5736   2.663   1.568   3.704 -0.3949  0.2945  0.3330
  250DG     O10 5737   2.960   1.884   3.569 -0.2581 -0.2026 -0.2463
  250DG     C11 5738   2.649   1.611   3.837  0.0666 -0.0169  0.1611
  250DG     C12 5739   2.998   1.928   3.704  0.4638 -0.1873  0.2881
  250DG     H13 5740   2.692   1.546   3.913 -2.6807 -2.7483 -0.4376
  250DG     H14 5741   2.544   1.624   3.861  0.5006  0.6699  1.8315
  250DG     H15 5742   3.020   2.034   3.716  1.7881 -0.6358  2.3440
  250DG     H16 5743   3.091   1.887   3.742  0.6816  0.6073  0.6329
  250DG     C17 5744   2.700   1.751   3.849  0.1444 -1.0365  0.8594
  250DG     C18 5745   2.880   1.900   3.796 -0.6646  0.4898  0.5776
  250DG     O19 5746   2.832   1.764   3.788 -0.1455  0.0370  0.1265
  250DG     H20 5747   2.674   1.801   3.942 -4.6394 -0.0632 -0.7247
  250DG     H21 5748   2.638   1.800   3.774 -0.7571 -0.6093  1.8511
  250DG     H22 5749   2.908   1.909   3.901 -1.9743 -1.5115  1.1503
  250DG     H23 5750   2.804   1.976   3.774 -1.0437  0.0973  0.5159
  251DG      C1 5751   1.041   5.430   2.144 -0.5305 -1.0437 -0.0453
  251DG      C2 5752   1.220   5.613   2.740  0.3043  0.3989  0.1986
  251DG      H3 5753   1.051   5.537   2.131  1.7259 -1.3755 -1.6851
  251DG      H4 5754   0.942   5.408   2.103 -1.0629  0.7624  0.2134
  251DG      H5 5755   1.125   5.369   2.110 -0.2935 -0.9901  0.4416
  251DG      H6 5756   1.252   5.624   2.843 -1.8663  2.7427  0.7189
  251DG      H7 5757   1.308   5.605   2.675 -1.4408 -1.1813 -2.1221
  251DG      H8 5758   1.160   5.702   2.721 -0.5587 -0.5827 -2.0613
  251DG      O9 5759   1.043   5.405   2.286  0.1923  0.1639 -0.1738
  251DG     O10 5760   1.130   5.509   2.703 -0.2311  0.2713  0.4286
  251DG     C11 5761   1.049   5.261   2.298  0.5684 -0.2351 -0.1147
  251DG     C12 5762   1.174   5.374   2.736  0.0403 -0.2472 -0.0535
  251DG     H13 5763   1.150   5.232   2.268  0.9313  2.7034 -2.1591
  251DG     H14 5764   0.985   5.215   2.223  0.6018  0.3022 -0.4795
  251DG     H15 5765   1.165   5.363   2.844  0.5487  1.2434  0.1723
  251DG     H16 5766   1.277   5.357   2.704 -0.4528  0.3305 -2.0887
  251DG     C17 5767   1.029   5.211   2.443  0.0964  0.3661 -0.4707
  251DG     C18 5768   1.093   5.274   2.660  0.0779 -0.3125  0.3204
  251DG     O19 5769   1.106   5.295   2.520  0.2366 -0.2634 -0.1348
  251DG     H20 5770   1.058   5.107   2.456  0.6254  0.7743  2.2166
  251DG     H21 5771   0.923   5.218   2.466  0.4069  2.6356  0.5267
  251DG     H22 5772   1.130   5.174   2.685  1.1093 -0.4995 -1.7782
  251DG     H23 5773   0.989   5.273   2.691  0.2318 -3.7660  1.1363
  252DG      C1 5774   3.116   0.689   1.710  0.5304 -0.4595  0.1943
  252DG      C2 5775   3.256   0.867   2.162 -0.0428  0.2545 -0.1469
  252DG      H3 5776   3.090   0.583   1.710  0.0622 -0.3629 -1.2354
  252DG      H4 5777   3.026   0.747   1.690  1.7778  1.6937  0.5072
  252DG      H5 5778   3.157   0.721   1.806  2.0447 -0.6009 -0.3632
  252DG      H6 5779   3.231   0.956   2.220  0.6639  0.6707 -0.4651
  252DG      H7 5780   3.172   0.849   2.095 -0.8538 -1.2378  1.2095
  252DG      H8 5781   3.277   0.775   2.216  0.9469  0.7969  0.4347
  252DG      O9 5782   3.193   0.728   1.595  0.2134  0.0671  0.7264
  252DG     O10 5783   3.380   0.887   2.093 -0.1452 -0.1668  0.0196
  252DG     C11 5784   3.334   0.697   1.601  0.6398  0.2153 -0.2542
  252DG     C12 5785   3.367   0.980   1.994  0.0943 -0.4569 -0.5671
  252DG     H13 5786   3.366   0.684   1.497 -0.1784 -0.5648 -0.4209
  252DG     H14 5787   3.341   0.598   1.647  0.7154 -0.7756 -2.2838
  252DG     H15 5788   3.396   1.083   2.019 -0.8468 -0.0467 -1.1099
  252DG     H16 5789   3.264   1.000   1.965 -0.1740  0.2167  0.7608
  252DG     C17 5790   3.416   0.798   1.676 -0.3424 -0.5135  0.2389
  252DG     C18 5791   3.433   0.945   1.863 -0.3301  0.2294  0.3383
  252DG     O19 5792   3.358   0.837   1.802 -0.3417 -0.3462  0.1002
  252DG     H20 5793   3.403   0.887   1.615 -1.3111 -0.9051 -0.1537
  252DG     H21 5794   3.522   0.775   1.684  0.1505  0.4599 -2.5213
  252DG     H22 5795   3.433   1.031   1.797  1.5996  0.7916  1.0181
  252DG     H23 5796   3.538   0.919   1.873 -0.2190  1.0747  1.6853
  253DG      C1 5797   1.186   2.243   5.084 -0.0254 -0.2172  0.1275
  253DG      C2 5798   1.445   2.364   4.441 -0.3253 -0.3197  0.0993
  253DG      H3 5799   1.097   2.307   5.089 -1.4779 -2.0791 -0.7322
  253DG      H4 5800   1.270   2.277   5.144 -0.6748 -0.4110  1.1720
  253DG      H5 5801   1.151   2.157   5.141  0.6601 -2.7990 -3.0541
  253DG      H6 5802   1.368   2.441   4.435 -0.5064 -0.5427 -0.5098
  253DG      H7 5803   1.534   2.419   4.473 -0.7930 -1.1168  3.1115
  253DG      H8 5804   1.463   2.313   4.347  2.4566 -0.7309  0.7782
  253DG      O9 5805   1.232   2.198   4.959 -0.1718 -0.0129  0.0053
  253DG     O10 5806   1.419   2.269   4.547 -0.4628 -0.1119  0.1031
  253DG     C11 5807   1.300   2.076   4.966 -0.0990 -0.1355 -0.2291
  253DG     C12 5808   1.519   2.166   4.551 -0.2616 -0.1542 -0.2575
  253DG     H13 5809   1.234   2.003   5.014  1.0003 -0.9516  0.0777
  253DG     H14 5810   1.387   2.085   5.031  0.0139  0.0871 -0.4122
  253DG     H15 5811   1.598   2.199   4.619 -0.4929  1.4920 -0.7307
  253DG     H16 5812   1.566   2.127   4.462  0.0345  1.5328 -0.8837
  253DG     C17 5813   1.328   2.022   4.826  0.1413 -0.1907  0.1583
  253DG     C18 5814   1.457   2.051   4.628 -0.5149 -0.0162  0.1167
  253DG     O19 5815   1.400   2.113   4.748 -0.1561 -0.0146 -0.0037
  253DG     H20 5816   1.244   1.982   4.768 -1.1000  2.6666 -0.1965
  253DG     H21 5817   1.391   1.935   4.842  0.3450  0.1846  1.5002
  253DG     H22 5818   1.388   2.004   4.558  0.1263  0.3013 -0.7578
  253DG     H23 5819   1.530   1.973   4.653 -1.1946 -1.0422 -0.9337
  254DG      C1 5820   1.588   3.709   2.839  0.5307  0.1507 -0.1781
  254DG      C2 5821   1.960   4.046   2.448 -0.4397  0.9616 -0.5057
  254DG      H3 5822   1.553   3.800   2.889  2.6371  0.4502  0.8775
  254DG      H4 5823   1.693   3.696   2.868  0.5778 -1.9327 -1.1576
  254DG      H5 5824   1.524   3.626   2.866  0.9562 -0.5973 -1.3799
  254DG      H6 5825   2.039   3.971   2.438 -2.1525 -1.7233  3.6766
  254DG      H7 5826   1.971   4.129   2.377 -0.3722  0.5730 -0.9535
  254DG      H8 5827   1.990   4.088   2.544  2.5686  2.0114 -1.7733
  254DG      O9 5828   1.584   3.723   2.705 -0.0627 -0.3587  0.1922
  254DG     O10 5829   1.831   3.999   2.464 -0.4281 -0.1134  0.0283
  254DG     C11 5830   1.458   3.759   2.651  0.0416 -0.1227 -0.3463
  254DG     C12 5831   1.776   3.944   2.351  0.1699  0.5862 -0.1840
  254DG     H13 5832   1.428   3.846   2.710  1.5217 -0.1030  0.4181
  254DG     H14 5833   1.394   3.672   2.669 -0.0737  0.1871  0.8008
  254DG     H15 5834   1.821   3.850   2.319 -1.4346  0.2564 -1.6355
  254DG     H16 5835   1.788   4.008   2.263  0.6230  0.8463  0.0664
  254DG     C17 5836   1.460   3.817   2.515  0.5803 -0.2120 -0.0359
  254DG     C18 5837   1.621   3.920   2.367 -0.3456  0.4497  0.0498
  254DG     O19 5838   1.594   3.840   2.479 -0.1592  0.4203 -0.5702
  254DG     H20 5839   1.406   3.911   2.510  0.3313 -0.3349  0.3238
  254DG     H21 5840   1.404   3.756   2.444 -0.3040  1.2640 -0.6496
  254DG     H22 5841   1.574   4.017   2.386 -1.0324  0.5183 -1.8169
  254DG     H23 5842   1.574   3.878   2.278 -3.7729 -0.3294  2.0484
  255DG      C1 5843   5.095   4.020   4.131  0.9028  1.1549  0.0577
  255DG      C2 5844   4.374   4.016   4.044  0.9707  0.3339  0.1621
  255DG      H3 5845   5.095   4.093   4.211 -0.7939  0.5893  0.6309
  255DG      H4 5846   5.094   4.070   4.034 -0.4147  2.7177  0.8298
  255DG      H5 5847   5.180   3.953   4.145 -0.4927 -0.6914  0.1391
  255DG      H6 5848   4.280   3.983   4.088  1.0839  0.2043  0.3104
  255DG      H7 5849   4.389   4.112   4.092  3.9879 -0.6393  1.4439
  255DG      H8 5850   4.373   4.024   3.935  0.7905 -0.4562  0.0983
  255DG      O9 5851   4.977   3.933   4.143 -0.1628  0.1968  0.1508
  255DG     O10 5852   4.490   3.937   4.069  0.3901 -0.1479 -0.1767
  255DG     C11 5853   4.978   3.815   4.066 -0.2168 -0.8831  0.1341
  255DG     C12 5854   4.508   3.823   3.991 -0.7065  0.3327 -0.1260
  255DG     H13 5855   5.068   3.762   4.097  1.9914  2.6018  0.2421
  255DG     H14 5856   4.983   3.841   3.960 -3.5530 -1.5835 -0.2950
  255DG     H15 5857   4.527   3.856   3.888  0.7032 -0.4942 -0.1516
  255DG     H16 5858   4.421   3.757   3.989 -1.2176  0.9330  1.0871
  255DG     C17 5859   4.853   3.732   4.082  0.5678 -0.1387  0.2389
  255DG     C18 5860   4.620   3.737   4.051  0.0488  1.2191 -0.4996
  255DG     O19 5861   4.738   3.808   4.042 -0.1403  0.2679  0.2759
  255DG     H20 5862   4.835   3.710   4.187  2.3702  1.7479  1.0323
  255DG     H21 5863   4.870   3.641   4.025 -2.5979 -0.0092 -1.0898
  255DG     H22 5864   4.596   3.705   4.152  1.3842 -0.4629 -0.6669
  255DG     H23 5865   4.636   3.644   3.996 -0.4305  0.5964  0.4070
  256DG      C1 5866   3.206   0.106   1.984 -0.2441 -0.0677 -0.2709
  256DG      C2 5867   2.960  -0.068   2.541 -0.3650 -0.4707  0.6073
  256DG      H3 5868   3.232   0.099   1.879 -3.6568 -1.2428 -1.1521
  256DG      H4 5869   3.291   0.150   2.036  0.6035  1.1207 -2.5216
  256DG      H5 5870   3.130   0.184   1.991  0.0356  0.0598  3.0004
  256DG      H6 5871   3.041  -0.007   2.579  0.3189 -0.9231 -0.0997
  256DG      H7 5872   2.875  -0.000   2.537 -1.6672 -2.0485  0.4339
  256DG      H8 5873   2.950  -0.157   2.603  1.4165 -1.3830 -0.3594
  256DG      O9 5874   3.167  -0.009   2.052  0.2554 -0.4815  0.4062
  256DG     O10 5875   2.996  -0.110   2.414  0.2022  0.4162  0.1387
  256DG     C11 5876   3.058  -0.077   1.995  0.1824 -0.1518 -0.4128
  256DG     C12 5877   2.947  -0.237   2.384  0.2815 -0.5003 -0.2962
  256DG     H13 5878   3.065  -0.082   1.887  0.1795  0.3998 -0.4439
  256DG     H14 5879   2.959  -0.038   2.022 -0.0063 -1.9696  1.8893
  256DG     H15 5880   2.843  -0.240   2.416  0.0689 -0.0001 -0.9154
  256DG     H16 5881   3.009  -0.313   2.431  1.8451  1.4696  0.9947
  256DG     C17 5882   3.077  -0.215   2.044  0.1375  0.5236 -0.0711
  256DG     C18 5883   2.941  -0.254   2.233 -0.6257  0.4933 -0.3103
  256DG     O19 5884   3.070  -0.215   2.185  0.1805  0.0108 -0.1631
  256DG     H20 5885   3.183  -0.238   2.032  0.2119  0.4577  0.6483
  256DG     H21 5886   3.026  -0.295   1.990  1.5119  0.4546 -1.3138
  256DG     H22 5887   2.919  -0.355   2.198 -0.1842 -0.8579  2.8981
  256DG     H23 5888   2.869  -0.185   2.189 -0.5717 -1.3308 -3.6016
  257DG      C1 5889   4.008   1.454   5.324 -0.7665  0.1063 -0.3374
  257DG      C2 5890   3.511   0.983   5.077  0.0509 -0.2159 -0.1528
  257DG      H3 5891   4.028   1.501   5.228  0.8006  0.0096 -0.0808
  257DG      H4 5892   4.100   1.406   5.356 -0.5221  0.7105 -0.1224
  257DG      H5 5893   3.955   1.517   5.396  0.2295  1.2640 -0.5786
  257DG      H6 5894   3.491   0.882   5.113  0.9319  0.2997  1.9463
  257DG      H7 5895   3.427   1.006   5.011  0.0818 -0.7819 -0.3990
  257DG      H8 5896   3.604   0.984   5.020  0.8289  1.4201  1.0660
  257DG      O9 5897   3.929   1.340   5.295  0.4002 -0.1109 -0.2121
  257DG     O10 5898   3.510   1.086   5.172 -0.6408  0.0606  0.1904
  257DG     C11 5899   3.993   1.262   5.190  0.3177 -0.2232 -0.0231
  257DG     C12 5900   3.606   1.067   5.268  0.2696 -0.6771  0.0399
  257DG     H13 5901   4.030   1.173   5.242 -0.3335  0.2588  1.2885
  257DG     H14 5902   4.079   1.317   5.151 -2.1254  3.1133 -1.1179
  257DG     H15 5903   3.595   0.989   5.343  0.8780  0.5781  1.4881
  257DG     H16 5904   3.589   1.155   5.330 -2.5961 -1.3306  0.3371
  257DG     C17 5905   3.903   1.209   5.078 -0.0304 -0.0069  0.5239
  257DG     C18 5906   3.758   1.089   5.233  0.0111  0.1674 -0.7592
  257DG     O19 5907   3.776   1.192   5.136  0.7307 -0.4712  0.5029
  257DG     H20 5908   3.940   1.122   5.024  0.1035  1.4092 -1.8058
  257DG     H21 5909   3.879   1.289   5.008  1.1995  0.2910  0.4283
  257DG     H22 5910   3.820   1.112   5.320  0.3616  3.8912 -1.8433
  257DG     H23 5911   3.808   1.002   5.190  0.9672  0.6773 -0.7037
  258DG      C1 5912   1.189   5.208   0.683 -0.9056 -0.3677  0.1976
  258DG      C2 5913   0.887   5.531   0.156 -0.6420 -0.1723  0.7991
  258DG      H3 5914   1.212   5.296   0.743  1.7162 -1.6268  1.1498
  258DG      H4 5915   1.258   5.135   0.723 -0.3932  0.4209  0.7744
  258DG      H5 5916   1.091   5.161   0.699 -0.9692 -0.3478 -0.1246
  258DG      H6 5917   0.869   5.526   0.048  0.9386 -0.0148  0.5081
  258DG      H7 5918   0.805   5.481   0.207  1.6772 -1.5205  3.4722
  258DG      H8 5919   0.888   5.635   0.190  0.5561 -0.0328  0.3940
  258DG      O9 5920   1.206   5.226   0.545  0.0793 -0.3778 -0.7302
  258DG     O10 5921   0.997   5.455   0.199  0.0315  0.3639 -0.0776
  258DG     C11 5922   1.329   5.298   0.517 -0.4547 -0.0759 -0.2345
  258DG     C12 5923   1.122   5.478   0.137  0.1344 -0.1858  0.2142
  258DG     H13 5924   1.418   5.248   0.555 -0.7172  0.7925  1.5995
  258DG     H14 5925   1.331   5.395   0.566  1.9923  0.7078 -1.6661
  258DG     H15 5926   1.150   5.569   0.190  1.7159  0.5078 -1.6711
  258DG     H16 5927   1.116   5.486   0.028 -1.0684  0.9621  0.3230
  258DG     C17 5928   1.342   5.292   0.361 -0.4394 -0.6709  0.1191
  258DG     C18 5929   1.230   5.371   0.164 -0.0345 -0.2837  0.8640
  258DG     O19 5930   1.237   5.373   0.303  0.0874 -0.3826  0.0454
  258DG     H20 5931   1.346   5.187   0.331  2.3179 -0.8433  0.8006
  258DG     H21 5932   1.434   5.344   0.336  0.5265 -1.0705  2.5598
  258DG     H22 5933   1.205   5.267   0.143  1.1544 -1.0870  3.1039
  258DG     H23 5934   1.323   5.394   0.112 -0.5159 -1.0113 -0.3619
  259DG      C1 5935   0.622   3.726   1.721  1.2974 -0.1163  0.8672
  259DG      C2 5936   0.503   3.882   0.916  0.1991 -0.3607  0.4340
  259DG      H3 5937   0.668   3.642   1.772  3.5436 -1.2242 -2.6610
  259DG      H4 5938   0.524   3.712   1.677  0.4361  1.8938  1.9972
  259DG      H5 5939   0.598   3.811   1.786 -1.8858  1.1512 -1.7178
  259DG      H6 5940   0.611   3.872   0.905 -0.0462 -1.4063 -1.5917
  259DG      H7 5941   0.459   3.786   0.943  0.1034  0.0378  1.7737
  259DG      H8 5942   0.452   3.922   0.829  0.5858  0.3177  0.5097
  259DG      O9 5943   0.694   3.776   1.608 -0.1252 -0.2489  0.2553
  259DG     O10 5944   0.481   3.979   1.021  0.4768 -0.1244 -0.0229
  259DG     C11 5945   0.705   3.679   1.507  0.2652  0.1043  0.7138
  259DG     C12 5946   0.496   3.928   1.153 -0.0328 -0.0332  0.5262
  259DG     H13 5947   0.618   3.613   1.496  0.0645  0.7797 -2.9415
  259DG     H14 5948   0.797   3.624   1.525  0.8079  0.8888  0.4268
  259DG     H15 5949   0.413   3.869   1.191  1.8268 -1.0725  3.3161
  259DG     H16 5950   0.496   4.016   1.217 -1.6508  0.1801  0.2613
  259DG     C17 5951   0.738   3.745   1.366  0.0394  0.0161 -0.1062
  259DG     C18 5952   0.633   3.856   1.178  0.4852 -0.4186 -0.3394
  259DG     O19 5953   0.628   3.818   1.316 -0.1802  0.3699 -0.0270
  259DG     H20 5954   0.773   3.673   1.293 -0.8426 -1.5733  0.9853
  259DG     H21 5955   0.817   3.819   1.379  0.3349  0.0891 -2.0236
  259DG     H22 5956   0.640   3.769   1.112 -0.1752 -1.4435  0.8877
  259DG     H23 5957   0.718   3.922   1.160  0.2098  0.0380  0.0275
  260DG      C1 5958   0.703   4.209   2.721 -0.2846  0.3800 -0.1495
  260DG      C2 5959   0.777   4.060   2.349  0.1008  0.0660 -0.4919
  260DG      H3 5960   0.767   4.133   2.674 -1.0533 -0.5376  0.2459
  260DG      H4 5961   0.612   4.173   2.770  0.5770 -0.2168  1.0847
  260DG      H5 5962   0.763   4.265   2.793 -1.8580  3.9433 -1.3990
  260DG      H6 5963   0.881   4.064   2.317  0.4279  0.7186  0.5907
  260DG      H7 5964   0.767   4.121   2.439  1.3270 -2.9644  1.8453
  260DG      H8 5965   0.750   3.963   2.390 -1.8695  1.1287  0.8870
  260DG      O9 5966   0.666   4.303   2.616 -0.0086  0.5395  0.0491
  260DG     O10 5967   0.676   4.099   2.257  0.4657 -0.4534  0.0782
  260DG     C11 5968   0.770   4.397   2.587 -0.1636 -0.6626  0.8457
  260DG     C12 5969   0.705   4.214   2.178 -0.6231 -0.4476 -1.0513
  260DG     H13 5970   0.868   4.353   2.570 -0.5560 -1.7108  1.1889
  260DG     H14 5971   0.780   4.470   2.667 -0.3108  0.5650 -0.2227
  260DG     H15 5972   0.642   4.200   2.090 -1.2321  2.1694 -1.1002
  260DG     H16 5973   0.804   4.208   2.133 -0.3947  0.8989 -0.7505
  260DG     C17 5974   0.754   4.472   2.447 -0.3959 -0.1624  0.3599
  260DG     C18 5975   0.677   4.342   2.262  0.0734  0.3068 -0.1554
  260DG     O19 5976   0.791   4.393   2.339  0.7101  0.5428 -0.8673
  260DG     H20 5977   0.822   4.558   2.453 -1.4383  0.7397 -0.4633
  260DG     H21 5978   0.658   4.522   2.439 -0.7212 -1.0165 -1.6886
  260DG     H22 5979   0.639   4.421   2.197 -0.2516 -0.0897 -0.4546
  260DG     H23 5980   0.591   4.312   2.322  0.8535 -2.9447 -0.4907
  261DG      C1 5981   2.046   4.224   0.148 -0.0923 -0.2789  0.0879
  261DG      C2 5982   2.086   4.690  -0.335 -0.3423  0.3488 -0.8688
  261DG      H3 5983   2.055   4.125   0.194 -1.4517 -0.7589 -0.6262
  261DG      H4 5984   1.940   4.238   0.128  0.0006  0.0345 -0.1797
  261DG      H5 5985   2.074   4.307   0.213  0.2675 -0.0465 -0.3601
  261DG      H6 5986   2.008   4.622  -0.369  0.5340 -2.3356  1.9474
  261DG      H7 5987   2.035   4.772  -0.285  0.6976  1.6901 -1.9254
  261DG      H8 5988   2.140   4.720  -0.424 -1.3756  1.4816 -1.1346
  261DG      O9 5989   2.114   4.245   0.025  0.8228 -0.2894 -0.5138
  261DG     O10 5990   2.179   4.631  -0.242  0.0580 -0.6057  0.2286
  261DG     C11 5991   2.067   4.168  -0.083 -0.4003 -0.0188  1.1008
  261DG     C12 5992   2.258   4.534  -0.305 -0.2467 -0.2467 -0.0902
  261DG     H13 5993   1.959   4.171  -0.083 -0.3959  2.7344  0.7626
  261DG     H14 5994   2.098   4.066  -0.060 -0.5238 -1.0082 -2.5071
  261DG     H15 5995   2.341   4.523  -0.235  0.4067 -0.8516 -0.9369
  261DG     H16 5996   2.303   4.566  -0.399  0.8733 -1.2505  0.0662
  261DG     C17 5997   2.133   4.220  -0.215  0.5639  0.3808 -0.2915
  261DG     C18 5998   2.184   4.407  -0.347 -0.3803  0.0682  0.6059
  261DG     O19 5999   2.133   4.362  -0.228 -0.0813 -0.1592 -0.1496
  261DG     H20 6000   2.085   4.172  -0.300 -1.5366  1.9753 -0.0983
  261DG     H21 6001   2.240   4.201  -0.217  0.8613  1.9137 -0.4672
  261DG     H22 6002   2.105   4.439  -0.415 -0.4177  1.8697  1.4483
  261DG     H23 6003   2.263   4.345  -0.389  0.9448  1.9174  0.2793
  262DG      C1 6004   3.689   3.942   3.394  0.0045  0.5025 -0.2025
  262DG      C2 6005   4.277   3.993   2.903 -0.3835 -0.6531 -0.2702
  262DG      H3 6006   3.728   3.937   3.496 -2.0831 -0.5554  0.5982
  262DG      H4 6007   3.722   3.844   3.357 -1.6889 -0.2355  0.1309
  262DG      H5 6008   3.582   3.930   3.407  0.0977 -3.7405 -1.6078
  262DG      H6 6009   4.365   4.058   2.897 -1.4238  0.6475 -2.9839
  262DG      H7 6010   4.300   3.930   2.989 -0.8275  0.9339  1.0477
  262DG      H8 6011   4.269   3.930   2.814 -0.8947 -0.7626 -0.1490
  262DG      O9 6012   3.749   4.049   3.334 -0.2595 -0.1411  0.4710
  262DG     O10 6013   4.156   4.070   2.932  0.2030  0.2524 -0.2111
  262DG     C11 6014   3.723   4.060   3.197  0.2946  0.0986 -0.1506
  262DG     C12 6015   4.161   4.143   3.052 -0.4685 -0.2853  0.2162
  262DG     H13 6016   3.620   4.098   3.189  0.0849 -0.0476  1.6212
  262DG     H14 6017   3.733   3.960   3.155 -1.8022 -1.2668  2.2793
  262DG     H15 6018   4.246   4.211   3.042 -1.4004  0.6006 -2.8129
  262DG     H16 6019   4.196   4.080   3.134 -0.9535 -0.6778  0.1254
  262DG     C17 6020   3.811   4.167   3.136  0.1338 -0.3922  0.3433
  262DG     C18 6021   4.038   4.218   3.087  0.3885  0.0587 -0.1528
  262DG     O19 6022   3.948   4.125   3.145  0.0791 -0.7991 -0.4810
  262DG     H20 6023   3.786   4.257   3.191 -0.7289  0.6279 -1.6073
  262DG     H21 6024   3.773   4.182   3.035 -1.2084  0.0047  0.8801
  262DG     H22 6025   4.074   4.281   3.168 -0.8244 -0.7380  1.0326
  262DG     H23 6026   3.996   4.282   3.009 -0.1869 -0.3782 -0.2058
  263DG      C1 6027   3.466   1.949   2.222 -0.2663  0.2994 -0.4944
  263DG      C2 6028   3.855   1.293   1.918 -0.0204 -0.4787  0.0039
  263DG      H3 6029   3.382   1.889   2.259  0.0956 -0.6315 -1.1502
  263DG      H4 6030   3.423   2.043   2.188  0.9905  0.6207 -1.2231
  263DG      H5 6031   3.506   1.978   2.319 -1.3319 -0.3500  0.1681
  263DG      H6 6032   3.749   1.272   1.910 -0.2610  0.1726  1.1627
  263DG      H7 6033   3.917   1.237   1.848 -0.8913  1.1177 -2.1563
  263DG      H8 6034   3.878   1.264   2.021 -5.2252 -1.5477  1.1416
  263DG      O9 6035   3.549   1.875   2.140 -0.3239  0.5129  0.1334
  263DG     O10 6036   3.873   1.437   1.900  0.0869 -0.2727 -0.0635
  263DG     C11 6037   3.665   1.944   2.103 -0.2367  0.0554  0.1161
  263DG     C12 6038   3.801   1.507   1.999 -0.4267 -0.0859 -0.2699
  263DG     H13 6039   3.712   1.963   2.199  0.2579  1.5765 -0.4032
  263DG     H14 6040   3.642   2.037   2.051 -1.7959  0.0595  0.7697
  263DG     H15 6041   3.814   1.469   2.101  0.4190  1.3901  0.2046
  263DG     H16 6042   3.694   1.505   1.978 -0.4969  3.0219 -0.5809
  263DG     C17 6043   3.757   1.859   2.014 -0.4688 -0.3753 -0.3395
  263DG     C18 6044   3.851   1.652   1.995  0.0645  0.1503  0.1330
  263DG     O19 6045   3.761   1.731   2.071  0.0080  0.3752 -0.1895
  263DG     H20 6046   3.857   1.900   1.999 -1.2357  1.4492 -0.6618
  263DG     H21 6047   3.708   1.862   1.917 -0.3874 -0.3378 -0.3804
  263DG     H22 6048   3.957   1.650   2.021  0.6201 -1.0615 -2.0058
  263DG     H23 6049   3.857   1.685   1.891  1.0510 -0.5515 -0.0438
  264DG      C1 6050   0.213   2.809   4.667  0.0351 -0.1164 -0.6692
  264DG      C2 6051   0.150   2.663   4.057 -0.0552  0.4495  0.3330
  264DG      H3 6052   0.281   2.818   4.751 -0.5405  1.2923 -0.3303
  264DG      H4 6053   0.181   2.706   4.652 -0.8867  0.1400 -0.5071
  264DG      H5 6054   0.127   2.867   4.700  1.3214  1.0371  0.7594
  264DG      H6 6055   0.249   2.616   4.055 -0.4803 -0.4685  0.1613
  264DG      H7 6056   0.080   2.593   4.103 -1.7917  2.4311  0.8320
  264DG      H8 6057   0.119   2.684   3.955  1.6246  1.7492  0.0392
  264DG      O9 6058   0.241   2.876   4.539  0.0823  0.5861 -0.4242
  264DG     O10 6059   0.169   2.784   4.133  0.2851 -0.0111 -0.5255
  264DG     C11 6060   0.374   2.917   4.519  0.1402  0.3566  0.1748
  264DG     C12 6061   0.262   2.872   4.068 -0.1357 -0.2296 -0.7651
  264DG     H13 6062   0.444   2.834   4.514  2.1155  2.0222 -2.6052
  264DG     H14 6063   0.403   2.982   4.602  0.4389  0.0529  0.3113
  264DG     H15 6064   0.204   2.910   3.984 -1.0045 -1.6343 -0.8200
  264DG     H16 6065   0.350   2.820   4.031 -0.8558 -2.4350  0.4426
  264DG     C17 6066   0.364   3.004   4.401 -0.0065 -0.0420  0.7822
  264DG     C18 6067   0.304   2.985   4.165 -0.0822  0.2432 -0.3253
  264DG     O19 6068   0.322   2.927   4.294  0.3631  0.3536  0.2064
  264DG     H20 6069   0.464   3.046   4.393 -0.3847  1.0703  1.6263
  264DG     H21 6070   0.284   3.076   4.420  0.5269  0.8441 -0.2803
  264DG     H22 6071   0.398   3.029   4.133  0.7683 -1.6318 -0.5235
  264DG     H23 6072   0.229   3.065   4.170 -2.3943 -1.8701  1.6282
  265DG      C1 6073   2.317   5.413   0.270 -0.4617 -0.1837  0.0614
  265DG      C2 6074   2.555   5.204  -0.278  0.5780 -0.2223 -0.0844
  265DG      H3 6075   2.387   5.492   0.297  0.1294  0.0298 -1.9292
  265DG      H4 6076   2.244   5.402   0.350  1.3690 -0.6028  1.7225
  265DG      H5 6077   2.271   5.454   0.179  0.2212 -0.8179 -0.5793
  265DG      H6 6078   2.581   5.122  -0.344 -0.4428 -1.3076  0.8115
  265DG      H7 6079   2.463   5.244  -0.322  0.8072 -0.1628 -0.5051
  265DG      H8 6080   2.631   5.282  -0.279 -0.8142  1.2345  1.1031
  265DG      O9 6081   2.384   5.303   0.219 -0.1305  0.0335  0.4134
  265DG     O10 6082   2.540   5.180  -0.140 -0.4068 -0.2364  0.3985
  265DG     C11 6083   2.463   5.235   0.315 -0.4216 -0.9665 -0.3435
  265DG     C12 6084   2.665   5.146  -0.073  0.2844  0.3059 -0.0980
  265DG     H13 6085   2.414   5.230   0.412 -1.9873  0.3375 -1.0300
  265DG     H14 6086   2.553   5.293   0.335 -1.9670  1.2024  0.7167
  265DG     H15 6087   2.737   5.225  -0.095  2.0494 -1.5300 -1.3058
  265DG     H16 6088   2.692   5.045  -0.102 -0.3133  0.4231 -1.1196
  265DG     C17 6089   2.499   5.096   0.266  0.0630  0.6045 -0.0563
  265DG     C18 6090   2.645   5.159   0.079 -0.3652  0.2011  0.3334
  265DG     O19 6091   2.533   5.082   0.128 -0.0070 -0.1095  0.1561
  265DG     H20 6092   2.422   5.020   0.274  3.0787 -2.8038 -0.3946
  265DG     H21 6093   2.572   5.044   0.329 -0.7342  0.4434  0.7495
  265DG     H22 6094   2.726   5.116   0.139 -0.8482 -1.8310 -0.3943
  265DG     H23 6095   2.634   5.264   0.106  2.6571  0.5498  0.6505
  266DG      C1 6096   2.701   3.701   4.625  0.7677 -0.5205  0.6578
  266DG      C2 6097   2.158   4.113   4.380 -0.5036 -0.2884 -0.5363
  266DG      H3 6098   2.702   3.722   4.732 -1.4556  1.7248  0.3467
  266DG      H4 6099   2.795   3.653   4.598  0.7829  0.3613 -1.0106
  266DG      H5 6100   2.634   3.624   4.587  0.3965  0.6427 -1.1902
  266DG      H6 6101   2.093   4.083   4.297 -0.3157  0.8556 -1.1252
  266DG      H7 6102   2.232   4.041   4.414 -0.2978  0.3487  0.4138
  266DG      H8 6103   2.095   4.150   4.462 -1.4784 -1.0096 -0.9380
  266DG      O9 6104   2.697   3.820   4.555 -0.1365 -0.0161 -0.0802
  266DG     O10 6105   2.228   4.219   4.319  0.5693 -0.4063 -0.0485
  266DG     C11 6106   2.571   3.884   4.552  0.0440 -0.4722  0.3695
  266DG     C12 6107   2.335   4.277   4.390  0.3934 -0.4722 -0.0131
  266DG     H13 6108   2.527   3.891   4.651 -1.3699 -4.3205  0.1858
  266DG     H14 6109   2.503   3.827   4.488 -0.0580 -1.8798  1.6914
  266DG     H15 6110   2.306   4.307   4.491 -2.4171  1.7909 -1.3404
  266DG     H16 6111   2.348   4.379   4.353 -0.4745  0.5867  2.4033
  266DG     C17 6112   2.586   4.026   4.486  0.5309  0.3676 -0.7026
  266DG     C18 6113   2.466   4.197   4.382  0.5414 -0.6510  0.3159
  266DG     O19 6114   2.460   4.081   4.465  0.1529 -0.4838  0.4090
  266DG     H20 6115   2.635   4.015   4.390 -0.9962  1.7187 -1.6925
  266DG     H21 6116   2.648   4.084   4.555 -0.4208  0.2122  0.3278
  266DG     H22 6117   2.490   4.170   4.279 -0.6983  0.1211 -0.1929
  266DG     H23 6118   2.543   4.260   4.427  0.5572  0.1718 -0.8189
  267DG      C1 6119   4.660   0.329   0.699  0.1894 -0.0650 -0.3567
  267DG      C2 6120   4.017   0.256   0.467  0.0543  0.1391 -0.2161
  267DG      H3 6121   4.662   0.327   0.808  0.8551  3.2901 -0.2094
  267DG      H4 6122   4.629   0.424   0.656 -0.4083  0.2977  0.8270
  267DG      H5 6123   4.767   0.334   0.677  0.8242 -0.3243  2.2681
  267DG      H6 6124   4.020   0.337   0.395 -1.0572 -1.1041 -1.7300
  267DG      H7 6125   3.946   0.192   0.414 -1.5494  0.9175  0.9066
  267DG      H8 6126   3.972   0.284   0.563 -1.5046 -0.9903 -0.5705
  267DG      O9 6127   4.589   0.217   0.644  0.1352  0.4674  0.2389
  267DG     O10 6128   4.127   0.176   0.490 -0.7318 -0.1638 -0.3731
  267DG     C11 6129   4.600   0.197   0.502  0.0896 -0.2638 -0.0681
  267DG     C12 6130   4.173   0.100   0.377 -0.0018 -0.2344 -0.3916
  267DG     H13 6131   4.704   0.182   0.474 -0.7186  0.6286 -4.1600
  267DG     H14 6132   4.566   0.284   0.446 -0.1405  0.0713  0.5828
  267DG     H15 6133   4.181   0.166   0.290 -0.7736  0.5763  0.1465
  267DG     H16 6134   4.100   0.028   0.340  1.8111 -2.2978 -0.1939
  267DG     C17 6135   4.515   0.082   0.455 -0.4863  0.7289  0.1102
  267DG     C18 6136   4.295   0.021   0.407 -0.2483 -0.0194  0.6824
  267DG     O19 6137   4.381   0.122   0.456  0.4421 -0.4046 -0.4712
  267DG     H20 6138   4.525   0.006   0.532  1.7673  1.1900  0.3252
  267DG     H21 6139   4.547   0.047   0.357  0.6874 -1.7430  1.2999
  267DG     H22 6140   4.273  -0.048   0.489 -2.6873  1.7927  1.6824
  267DG     H23 6141   4.332  -0.029   0.318 -1.2330 -0.8933  0.7482
  268DG      C1 6142   1.965   1.489   0.901  0.0836  0.0272 -0.2989
  268DG      C2 6143   2.007   2.219   0.908  0.4222  0.0473  0.8158
  268DG      H3 6144   1.862   1.507   0.931  0.1961  0.5491 -0.2208
  268DG      H4 6145   2.018   1.459   0.991 -1.0738  0.0148  0.4034
  268DG      H5 6146   1.974   1.403   0.834 -0.3888 -0.1856 -0.0998
  268DG      H6 6147   2.013   2.288   0.824  0.9267 -0.7817  0.1513
  268DG      H7 6148   1.903   2.214   0.939  0.3642 -2.9338  0.4642
  268DG      H8 6149   2.071   2.271   0.979  1.1432 -0.2073  0.3661
  268DG      O9 6150   2.019   1.606   0.843 -0.4705  0.0257 -0.3863
  268DG     O10 6151   2.039   2.094   0.851  0.2987  0.6931 -0.3194
  268DG     C11 6152   2.150   1.592   0.796 -0.1891  0.3684  0.4503
  268DG     C12 6153   2.180   2.067   0.844  0.2489 -0.1210 -0.8947
  268DG     H13 6154   2.145   1.502   0.734  1.9595  0.6991 -0.2710
  268DG     H14 6155   2.213   1.578   0.884  0.4651  0.5026  0.0119
  268DG     H15 6156   2.210   2.019   0.937 -1.1104  0.8363  0.0824
  268DG     H16 6157   2.241   2.153   0.819  0.1610 -0.2355 -1.5264
  268DG     C17 6158   2.195   1.718   0.719 -0.1488  0.0598 -0.7685
  268DG     C18 6159   2.203   1.954   0.741  0.9080  0.0661  0.4959
  268DG     O19 6160   2.148   1.834   0.786 -0.3151 -0.1991  0.7323
  268DG     H20 6161   2.148   1.726   0.621 -0.2750 -0.3295 -0.7413
  268DG     H21 6162   2.304   1.726   0.714 -0.3009  1.7742 -2.5477
  268DG     H22 6163   2.156   1.982   0.647 -0.2290  3.2991  1.8965
  268DG     H23 6164   2.311   1.943   0.726  1.0324  1.0798  0.5593
  269DG      C1 6165   0.325   4.299   4.048  0.1338  0.4715 -0.2341
  269DG      C2 6166   0.625   4.112   4.631  0.2351  0.3303  0.1818
  269DG      H3 6167   0.293   4.225   3.974 -0.3661  0.9983 -0.5602
  269DG      H4 6168   0.348   4.389   3.992  0.7149  0.9118  0.6949
  269DG      H5 6169   0.243   4.323   4.115  0.0102  0.0365 -0.2269
  269DG      H6 6170   0.672   4.190   4.690  0.6424 -0.4674  0.9426
  269DG      H7 6171   0.518   4.129   4.634  0.3446  1.1036 -0.0990
  269DG      H8 6172   0.662   4.024   4.684 -0.0644  1.5877  2.6381
  269DG      O9 6173   0.436   4.254   4.122 -0.4922  0.3605 -0.3120
  269DG     O10 6174   0.650   4.121   4.493 -0.0178 -0.0808  0.1507
  269DG     C11 6175   0.555   4.231   4.046  0.1042 -0.8652  0.1360
  269DG     C12 6176   0.786   4.104   4.453 -0.4428  0.4271  0.1795
  269DG     H13 6177   0.555   4.288   3.953  1.1280 -1.2606 -0.1250
  269DG     H14 6178   0.549   4.132   3.999  1.4341 -1.0064  0.2362
  269DG     H15 6179   0.800   3.996   4.445 -0.7416  0.5342 -2.4248
  269DG     H16 6180   0.864   4.146   4.516 -1.6601  2.2042  0.5780
  269DG     C17 6181   0.687   4.240   4.126 -0.2194  0.4696 -0.2846
  269DG     C18 6182   0.798   4.164   4.316  0.2219 -0.6819  0.3474
  269DG     O19 6183   0.684   4.142   4.237 -0.6604 -0.2965  0.2007
  269DG     H20 6184   0.688   4.340   4.171 -1.4659  0.7539 -0.8381
  269DG     H21 6185   0.777   4.227   4.065 -0.1750 -2.6934  0.2874
  269DG     H22 6186   0.807   4.270   4.339 -1.5720 -0.9383  2.5156
  269DG     H23 6187   0.886   4.137   4.257  0.5348  0.2302  0.3806
  270DG      C1 6188   0.999   5.043   1.116 -1.3888 -0.5075 -0.6666
  270DG      C2 6189   1.162   4.796   0.340  0.0699  0.1501  0.2938
  270DG      H3 6190   1.085   5.080   1.174 -1.0119 -0.6234 -1.1439
  270DG      H4 6191   0.952   4.975   1.187 -1.3762  2.0273  1.9791
  270DG      H5 6192   0.926   5.122   1.100  0.6195  1.4661 -0.7115
  270DG      H6 6193   1.186   4.902   0.347  0.9940 -0.0688  0.6208
  270DG      H7 6194   1.227   4.761   0.259  0.2985  0.0016  0.5373
  270DG      H8 6195   1.057   4.778   0.319 -0.1282  1.9150 -0.3251
  270DG      O9 6196   1.053   4.986   1.000  0.1270 -0.1319  0.0370
  270DG     O10 6197   1.204   4.732   0.464  0.3057 -0.0293 -0.2340
  270DG     C11 6198   1.159   4.887   1.032 -0.4470 -0.1066 -0.3782
  270DG     C12 6199   1.110   4.770   0.565  0.1236 -0.3129 -0.5430
  270DG     H13 6200   1.113   4.806   1.087  1.2433 -0.3503  0.7604
  270DG     H14 6201   1.245   4.924   1.089 -1.4721  1.6570  0.0968
  270DG     H15 6202   1.003   4.768   0.543 -0.0059  1.5985 -0.2870
  270DG     H16 6203   1.131   4.875   0.588 -1.2848  0.4153 -2.3239
  270DG     C17 6204   1.215   4.834   0.894  1.0110  0.2548 -0.2867
  270DG     C18 6205   1.152   4.699   0.696  0.9314  0.0203 -0.2006
  270DG     O19 6206   1.106   4.774   0.815 -0.2754 -0.7169 -0.4934
  270DG     H20 6207   1.286   4.753   0.908  0.3634 -0.4149 -0.7962
  270DG     H21 6208   1.274   4.908   0.839 -0.3308  1.1920 -0.5075
  270DG     H22 6209   1.112   4.598   0.694 -1.6567  0.9696 -0.0978
  270DG     H23 6210   1.259   4.684   0.711  0.9469  0.4430  0.1162
  271DG      C1 6211   3.476   0.820   2.846 -0.1056  0.1173 -0.1973
  271DG      C2 6212   3.974   0.822   2.434 -0.0557  0.4172  0.4081
  271DG      H3 6213   3.402   0.785   2.775  0.2947 -1.5557  0.1510
  271DG      H4 6214   3.427   0.840   2.941  1.2579 -1.6550  0.9451
  271DG      H5 6215   3.547   0.738   2.860 -1.2455 -0.7460  0.6284
  271DG      H6 6216   4.033   0.777   2.513 -0.3427 -0.2321  0.2552
  271DG      H7 6217   3.923   0.752   2.368  3.1766 -0.1680 -1.7245
  271DG      H8 6218   4.047   0.853   2.359  0.1423 -2.0057 -0.4716
  271DG      O9 6219   3.531   0.939   2.797  0.7062 -0.4027 -0.0475
  271DG     O10 6220   3.899   0.929   2.492  0.2557  0.3397  0.2393
  271DG     C11 6221   3.620   1.014   2.878 -0.8211  0.0219  0.0907
  271DG     C12 6222   3.977   1.013   2.567  0.4425 -0.1500  0.2323
  271DG     H13 6223   3.697   0.953   2.925 -1.9314  0.1275  2.1296
  271DG     H14 6224   3.563   1.075   2.948 -1.0770 -1.6826  1.4453
  271DG     H15 6225   4.053   1.058   2.504 -0.9530  0.8792 -0.7921
  271DG     H16 6226   4.034   0.958   2.641  0.0959 -1.5397 -0.5058
  271DG     C17 6227   3.698   1.115   2.792  0.4340 -0.1541 -0.7787
  271DG     C18 6228   3.888   1.116   2.637 -0.4342 -0.2325 -0.2332
  271DG     O19 6229   3.795   1.043   2.720 -0.0690  0.3556 -0.5138
  271DG     H20 6230   3.753   1.183   2.857 -1.4927  0.7291 -0.0275
  271DG     H21 6231   3.623   1.166   2.732 -0.2899  1.9804  1.7811
  271DG     H22 6232   3.957   1.178   2.694  0.5463 -1.5201  0.0239
  271DG     H23 6233   3.832   1.182   2.571 -1.5520  0.3298  1.2104
  272DG      C1 6234   4.396   5.339   5.062  0.2786  0.0896  0.7107
  272DG      C2 6235   4.490   5.281   4.397  0.6021  0.4683 -0.2686
  272DG      H3 6236   4.432   5.236   5.052 -0.4881 -0.1918  0.8249
  272DG      H4 6237   4.298   5.340   5.109 -0.0114  0.1480  0.1243
  272DG      H5 6238   4.458   5.401   5.126 -0.4901  1.1097  0.4981
  272DG      H6 6239   4.459   5.286   4.293 -0.6868  0.6249  0.1026
  272DG      H7 6240   4.598   5.288   4.404  0.8948 -0.8859 -2.5824
  272DG      H8 6241   4.474   5.180   4.435  0.1004  1.1440  1.4340
  272DG      O9 6242   4.389   5.396   4.934  0.2462 -0.2329  0.6808
  272DG     O10 6243   4.445   5.393   4.473  0.0909  0.0105 -0.2088
  272DG     C11 6244   4.326   5.522   4.931 -0.3263 -0.4476  0.3280
  272DG     C12 6245   4.309   5.431   4.467  0.2490  0.5594 -0.1822
  272DG     H13 6246   4.410   5.590   4.947 -1.9890  1.9644 -0.4694
  272DG     H14 6247   4.258   5.547   5.013  1.8395  2.3492  1.4221
  272DG     H15 6248   4.247   5.342   4.469  0.5787  0.2280 -2.2946
  272DG     H16 6249   4.292   5.489   4.376 -0.3200 -0.2528 -0.5965
  272DG     C17 6250   4.253   5.549   4.803  0.5361  0.1895 -0.9897
  272DG     C18 6251   4.289   5.534   4.577  0.7212  0.1589 -0.3122
  272DG     O19 6252   4.330   5.489   4.702  0.2362 -0.4811 -0.4932
  272DG     H20 6253   4.257   5.655   4.778 -2.2331  0.4267 -0.8338
  272DG     H21 6254   4.148   5.518   4.809  0.6759 -0.3188 -1.1274
  272DG     H22 6255   4.345   5.624   4.551 -0.7300  1.0685 -0.3444
  272DG     H23 6256   4.184   5.559   4.573  0.9484  1.0968 -0.5357
  273DG      C1 6257   1.426   0.987   2.171  0.3816 -0.6542  0.1773
  273DG      C2 6258   1.805   1.259   2.665  0.3835 -0.2079  0.1362
  273DG      H3 6259   1.505   0.933   2.120 -1.2014 -2.1213 -0.8448
  273DG      H4 6260   1.403   1.077   2.113  1.8977 -0.5595 -0.3219
  273DG      H5 6261   1.338   0.924   2.160  1.5900 -2.1143 -1.7862
  273DG      H6 6262   1.704   1.227   2.689 -0.4108 -0.5221 -3.2197
  273DG      H7 6263   1.855   1.258   2.762  0.2578 -2.1265  0.2240
  273DG      H8 6264   1.813   1.359   2.624  1.3291 -0.5164 -0.4756
  273DG      O9 6265   1.464   1.010   2.303  0.2473 -0.6192  0.1359
  273DG     O10 6266   1.867   1.154   2.588  0.3825  0.0286  0.6451
  273DG     C11 6267   1.462   0.891   2.379  0.0895 -0.1241  0.2547
  273DG     C12 6268   1.867   1.028   2.646  0.4428  0.7083  0.0577
  273DG     H13 6269   1.498   0.805   2.323 -2.0974  0.3214 -1.9823
  273DG     H14 6270   1.354   0.875   2.390 -0.0722  0.5997 -0.2665
  273DG     H15 6271   1.896   1.035   2.751 -0.3407 -0.3308  0.3581
  273DG     H16 6272   1.943   0.964   2.603 -1.7190 -1.4816 -0.7133
  273DG     C17 6273   1.524   0.925   2.519  0.6879  0.0513 -0.3142
  273DG     C18 6274   1.728   0.966   2.638 -0.0715 -0.8934 -0.1398
  273DG     O19 6275   1.666   0.952   2.511  0.1927 -0.1560 -0.0450
  273DG     H20 6276   1.520   0.838   2.585 -2.7269  0.5277  0.2747
  273DG     H21 6277   1.476   1.011   2.564  0.0708 -0.3316 -0.2359
  273DG     H22 6278   1.748   0.861   2.659  0.3824 -1.1268 -1.6220
  273DG     H23 6279   1.660   1.007   2.713 -1.1731 -1.7773 -0.6453
  274DG      C1 6280   0.834   1.803   0.690  0.4501 -0.0050  0.1069
  274DG      C2 6281   1.042   2.283   1.058  0.0568 -0.3595  0.3554
  274DG      H3 6282   0.916   1.827   0.623  1.1330 -1.3282  0.4304
  274DG      H4 6283   0.738   1.791   0.640  0.7170 -2.3579  0.0221
  274DG      H5 6284   0.862   1.702   0.719  0.5937  0.4154  1.5011
  274DG      H6 6285   1.106   2.328   1.134  1.1165  0.0616 -0.7406
  274DG      H7 6286   1.108   2.283   0.971  0.6391 -1.3370  0.7744
  274DG      H8 6287   0.956   2.349   1.047  0.2137 -0.1392  0.4340
  274DG      O9 6288   0.828   1.880   0.811  0.2439  0.4733  0.0825
  274DG     O10 6289   1.009   2.154   1.085 -0.5920  0.2313  1.0905
  274DG     C11 6290   0.724   1.850   0.900  0.0541 -0.2581  0.5420
  274DG     C12 6291   0.893   2.149   1.166 -0.4257  0.6263  0.2207
  274DG     H13 6292   0.746   1.745   0.918 -1.0660 -1.3278 -3.4321
  274DG     H14 6293   0.626   1.858   0.855 -0.4287 -2.5953  1.0581
  274DG     H15 6294   0.806   2.195   1.118  0.0573  0.2490 -1.0546
  274DG     H16 6295   0.922   2.203   1.256  0.0150  0.8099 -0.0227
  274DG     C17 6296   0.728   1.939   1.023 -0.1634  0.3232  0.3448
  274DG     C18 6297   0.861   2.004   1.212 -0.2529  0.5005  0.1530
  274DG     O19 6298   0.843   1.914   1.102  0.4938 -0.4068 -0.2898
  274DG     H20 6299   0.636   1.922   1.079 -1.6231  3.5824 -0.7852
  274DG     H21 6300   0.711   2.044   1.000 -1.2681  0.1678  0.3719
  274DG     H22 6301   0.942   1.974   1.279 -0.8882 -0.5032  0.4941
  274DG     H23 6302   0.770   2.016   1.271 -0.7736 -1.6009 -0.1497
  275DG      C1 6303   2.118   5.376   4.833  0.0856  0.0924 -0.3031
  275DG      C2 6304   2.855   5.495   5.086  0.5297  0.5795 -0.6360
  275DG      H3 6305   2.117   5.452   4.755 -0.4228  1.8441  1.3407
  275DG      H4 6306   2.052   5.419   4.908  0.6914 -1.0926  0.9776
  275DG      H5 6307   2.058   5.289   4.806 -3.6851  0.6667  4.7420
  275DG      H6 6308   2.957   5.457   5.095  0.6433  0.9882 -0.1056
  275DG      H7 6309   2.869   5.602   5.069  0.8385  0.6512  0.0217
  275DG      H8 6310   2.798   5.487   5.178  1.0450  1.4786 -0.2267
  275DG      O9 6311   2.242   5.328   4.883 -0.1972  0.4806  0.1621
  275DG     O10 6312   2.781   5.431   4.978 -0.9678 -0.2341 -0.3485
  275DG     C11 6313   2.317   5.270   4.781  0.1786 -0.1741 -0.0936
  275DG     C12 6314   2.663   5.507   4.943  0.2161 -0.0223  0.0212
  275DG     H13 6315   2.334   5.338   4.697 -0.5535  2.3618  1.6830
  275DG     H14 6316   2.263   5.190   4.731 -1.2540  2.4001 -3.0360
  275DG     H15 6317   2.701   5.596   4.894  0.1866 -0.2879 -0.4929
  275DG     H16 6318   2.602   5.536   5.028  1.1835 -1.1429  1.1322
  275DG     C17 6319   2.451   5.222   4.843  0.1116 -0.1624  0.4113
  275DG     C18 6320   2.577   5.421   4.850  0.1782  0.2472 -0.0766
  275DG     O19 6321   2.529   5.307   4.922 -0.1165  0.3536  0.5628
  275DG     H20 6322   2.513   5.184   4.762 -0.2794  1.0622 -0.4959
  275DG     H21 6323   2.415   5.136   4.900 -2.8531  0.8582  0.2553
  275DG     H22 6324   2.503   5.484   4.800  0.1759 -0.1348 -0.5610
  275DG     H23 6325   2.648   5.389   4.774  0.7894  1.1397  0.1132
  276DG      C1 6326   5.468   0.086   2.069 -0.2991  0.2822 -0.2023
  276DG      C2 6327   6.043   0.524   2.134 -0.4884 -1.0503  0.2189
  276DG      H3 6328   5.392   0.009   2.080  0.4926 -0.3098  1.6209
  276DG      H4 6329   5.444   0.161   1.994  1.2461  0.9500 -0.0670
  276DG      H5 6330   5.467   0.132   2.168  2.4744 -0.0669  0.0536
  276DG      H6 6331   6.048   0.573   2.231  0.9089 -1.5545  0.4335
  276DG      H7 6332   6.136   0.467   2.129  1.3741  1.6788  1.0846
  276DG      H8 6333   6.045   0.603   2.059 -1.3403 -0.6934  0.5619
  276DG      O9 6334   5.601   0.035   2.052 -0.4063 -0.0218 -0.2650
  276DG     O10 6335   5.926   0.457   2.130  0.4349 -0.1008 -0.1625
  276DG     C11 6336   5.653   0.028   1.918 -1.3633  0.5009 -0.0363
  276DG     C12 6337   5.921   0.381   2.008  0.3048  0.3382 -0.1111
  276DG     H13 6338   5.568  -0.008   1.859 -0.4537 -1.3953 -0.2630
  276DG     H14 6339   5.729  -0.048   1.905  0.1775  1.4142  2.8772
  276DG     H15 6340   6.010   0.319   1.993  0.8485  1.2263 -0.6330
  276DG     H16 6341   5.916   0.442   1.918 -2.5745 -0.5626 -0.6581
  276DG     C17 6342   5.681   0.160   1.850 -0.3914 -0.1765  0.0578
  276DG     C18 6343   5.805   0.288   2.005 -0.3649  0.3722  0.1104
  276DG     O19 6344   5.809   0.209   1.884 -0.1918 -0.6490  0.2062
  276DG     H20 6345   5.607   0.236   1.877  1.1336  0.3979  3.0088
  276DG     H21 6346   5.678   0.151   1.741  0.5396 -1.0311  0.0871
  276DG     H22 6347   5.800   0.227   2.095  1.5118 -0.1840 -0.1122
  276DG     H23 6348   5.716   0.350   2.013 -1.7869 -1.5424 -0.1874
  277DG      C1 6349   1.893   2.211   3.822 -0.4037  0.3775 -0.3329
  277DG      C2 6350   1.614   1.768   4.443 -0.9721  0.2399  0.2847
  277DG      H3 6351   1.952   2.217   3.914 -1.7136 -0.3805  0.5829
  277DG      H4 6352   1.815   2.283   3.799 -0.7937 -0.1736 -0.7636
  277DG      H5 6353   1.964   2.215   3.739  0.3168 -0.6321  0.2069
  277DG      H6 6354   1.583   1.678   4.496  0.3851 -0.3890  0.0602
  277DG      H7 6355   1.684   1.813   4.514  0.4439 -0.6543 -0.4734
  277DG      H8 6356   1.526   1.830   4.427  0.1593  2.1621  1.1182
  277DG      O9 6357   1.842   2.078   3.829  0.1916  0.2007 -0.2249
  277DG     O10 6358   1.664   1.730   4.316  0.3336 -0.2113  0.4531
  277DG     C11 6359   1.941   1.984   3.860  0.2964  0.4917  0.3832
  277DG     C12 6360   1.721   1.839   4.249 -0.0313  0.7664  0.2503
  277DG     H13 6361   2.008   2.004   3.943 -0.5498 -1.2735  1.5651
  277DG     H14 6362   2.007   1.962   3.776  0.7911 -1.3624  1.2087
  277DG     H15 6363   1.802   1.876   4.311 -0.1950  0.8366  0.4231
  277DG     H16 6364   1.650   1.921   4.240 -1.9126 -0.9407 -1.7338
  277DG     C17 6365   1.868   1.852   3.903  0.2866  0.1241  0.4400
  277DG     C18 6366   1.763   1.786   4.111  0.0966  0.0536 -0.1503
  277DG     O19 6367   1.816   1.886   4.026  0.0311 -0.1405  0.2513
  277DG     H20 6368   1.937   1.770   3.922  0.9202  0.9594  1.8995
  277DG     H21 6369   1.807   1.838   3.814  2.5636  0.7190 -1.3039
  277DG     H22 6370   1.838   1.709   4.131  1.8637  1.3974 -1.3616
  277DG     H23 6371   1.683   1.731   4.062  0.3814  1.2970 -2.0919
  278DG      C1 6372   1.503   4.330   2.277 -0.2120 -0.2978 -0.3472
  278DG      C2 6373   1.805   4.268   1.732 -0.4885  0.8276  0.4583
  278DG      H3 6374   1.433   4.341   2.194  0.3303  1.2109 -0.6374
  278DG      H4 6375   1.498   4.412   2.349  0.8665 -0.5520  0.0284
  278DG      H5 6376   1.464   4.258   2.349  2.9642 -1.2252  0.6090
  278DG      H6 6377   1.750   4.336   1.797  1.3832  1.0966  1.8356
  278DG      H7 6378   1.821   4.320   1.637  1.6016 -1.4525 -0.5379
  278DG      H8 6379   1.744   4.180   1.709  0.2241  0.6081 -0.6805
  278DG      O9 6380   1.632   4.321   2.227  0.4742 -0.6879  0.1644
  278DG     O10 6381   1.934   4.224   1.771 -0.6144  0.2744 -0.9747
  278DG     C11 6382   1.675   4.438   2.163  0.2725  0.3388  0.2717
  278DG     C12 6383   1.938   4.137   1.892 -0.1626 -0.3116  0.2053
  278DG     H13 6384   1.685   4.528   2.224  0.4446 -0.8002  1.9994
  278DG     H14 6385   1.625   4.460   2.069  1.3326 -2.0253 -0.9357
  278DG     H15 6386   2.033   4.086   1.881 -1.0720 -1.8075 -1.1888
  278DG     H16 6387   1.850   4.073   1.892 -1.0912  0.8377  2.5738
  278DG     C17 6388   1.813   4.406   2.112 -0.6935 -0.1807  0.3656
  278DG     C18 6389   1.936   4.230   2.012  1.1677 -0.2154  0.4687
  278DG     O19 6390   1.809   4.293   2.026 -0.4653 -0.3555 -0.2729
  278DG     H20 6391   1.888   4.397   2.190 -0.7607 -1.6695  0.2890
  278DG     H21 6392   1.845   4.484   2.043 -1.4120  0.0258  0.2593
  278DG     H22 6393   1.944   4.161   2.096  0.7440 -1.5267 -0.5267
  278DG     H23 6394   2.008   4.311   2.004 -0.1227  0.8717 -0.6181
  279DG      C1 6395   3.825   3.954   1.865  0.1371  0.3930 -0.5091
  279DG      C2 6396   3.404   3.732   1.417 -0.4241 -0.6011  0.3740
  279DG      H3 6397   3.891   4.035   1.895  0.3842  0.6223 -1.6452
  279DG      H4 6398   3.887   3.872   1.830 -1.7163 -0.7106 -1.3871
  279DG      H5 6399   3.764   3.921   1.950 -0.4279 -1.4289 -1.5690
  279DG      H6 6400   3.488   3.665   1.400 -0.4491 -0.8033  1.0293
  279DG      H7 6401   3.340   3.695   1.497 -2.4360  1.6040 -0.1048
  279DG      H8 6402   3.351   3.754   1.324  0.1172  0.3917  0.2834
  279DG      O9 6403   3.744   4.019   1.757 -0.2661  0.3633  0.1366
  279DG     O10 6404   3.458   3.856   1.462 -0.2843 -0.1175 -0.0654
  279DG     C11 6405   3.680   4.138   1.800 -0.7838 -0.1120  0.5282
  279DG     C12 6406   3.354   3.944   1.503  0.6087 -0.2164  0.0858
  279DG     H13 6407   3.720   4.223   1.745  0.2857 -1.9713 -1.7250
  279DG     H14 6408   3.694   4.152   1.908  1.8222 -0.4241  0.2936
  279DG     H15 6409   3.255   3.904   1.481 -0.5292  1.5809  1.6325
  279DG     H16 6410   3.357   4.033   1.440 -1.2108 -0.3242 -0.2230
  279DG     C17 6411   3.524   4.100   1.789 -0.5290  0.0752  0.5654
  279DG     C18 6412   3.375   3.989   1.650  0.4253  0.4355  0.5722
  279DG     O19 6413   3.502   4.045   1.657  0.9448  0.3460  0.5333
  279DG     H20 6414   3.467   4.192   1.803 -0.8167 -0.1615  0.9662
  279DG     H21 6415   3.511   4.024   1.866 -1.4244 -1.2089 -0.8164
  279DG     H22 6416   3.305   4.064   1.687  1.0275  0.0122  2.7208
  279DG     H23 6417   3.369   3.906   1.720 -0.2110 -0.8624 -0.9546
  280DG      C1 6418   3.077   0.366   5.072 -0.0624  0.2067  0.0901
  280DG      C2 6419   3.589   0.116   4.663  0.4500  0.0466  0.1357
  280DG      H3 6420   3.028   0.439   5.008  1.8029  0.8789 -0.6536
  280DG      H4 6421   3.025   0.376   5.167  1.4229 -0.3437  1.0051
  280DG      H5 6422   3.063   0.262   5.043  1.2416 -0.2231  0.9207
  280DG      H6 6423   3.550   0.015   4.676  0.1976  0.2287  0.8335
  280DG      H7 6424   3.531   0.158   4.580  0.1755  0.6775  0.6408
  280DG      H8 6425   3.691   0.093   4.631 -0.0437 -0.3176 -1.2515
  280DG      O9 6426   3.217   0.390   5.093  0.1758  0.0424  0.0236
  280DG     O10 6427   3.586   0.204   4.778 -0.1592  1.0520 -0.1548
  280DG     C11 6428   3.279   0.395   4.973 -0.3813  0.4065 -0.1371
  280DG     C12 6429   3.619   0.128   4.899  0.7252  0.2209 -0.4258
  280DG     H13 6430   3.248   0.487   4.924  0.5827 -0.4414 -2.5439
  280DG     H14 6431   3.246   0.304   4.922  0.5500 -0.3145  0.5029
  280DG     H15 6432   3.725   0.103   4.895  1.0567  1.7509 -2.2041
  280DG     H16 6433   3.556   0.038   4.899  1.9312 -0.6586 -0.8956
  280DG     C17 6434   3.436   0.384   4.984 -0.2924 -0.2158  0.0920
  280DG     C18 6435   3.598   0.215   5.026  0.8696  0.2881 -0.0692
  280DG     O19 6436   3.461   0.251   5.034  0.1574 -0.1899  0.0841
  280DG     H20 6437   3.478   0.455   5.055  0.2223 -0.3611 -0.0642
  280DG     H21 6438   3.473   0.410   4.885 -0.4991  2.8185  0.6992
  280DG     H22 6439   3.622   0.165   5.120  2.0473  0.8530 -0.0394
  280DG     H23 6440   3.664   0.302   5.027  2.0312 -0.5563  1.7830
  281DG      C1 6441   1.884   0.671   4.931  0.4077 -0.4963  0.0617
  281DG      C2 6442   2.142   0.407   4.377  0.5908  0.0398 -0.6883
  281DG      H3 6443   1.866   0.751   5.002 -0.2574  0.3923 -1.0705
  281DG      H4 6444   1.919   0.581   4.983  1.3177 -0.2831 -0.1574
  281DG      H5 6445   1.793   0.644   4.878 -2.2299  1.2765  3.3521
  281DG      H6 6446   2.137   0.314   4.434 -1.1067  1.3211  1.4459
  281DG      H7 6447   2.042   0.417   4.333  0.4207  0.1980 -0.2778
  281DG      H8 6448   2.217   0.397   4.299  0.0367 -3.7175 -0.9264
  281DG      O9 6449   1.983   0.706   4.833 -0.1814 -0.4340 -0.1946
  281DG     O10 6450   2.151   0.521   4.458 -0.0899 -0.1154 -0.1876
  281DG     C11 6451   1.965   0.833   4.780 -0.8130 -0.0121 -0.3605
  281DG     C12 6452   2.138   0.633   4.385  0.1674 -0.5984 -0.2274
  281DG     H13 6453   1.988   0.910   4.853 -0.2961  0.8919 -1.4405
  281DG     H14 6454   1.864   0.848   4.740 -0.3212 -0.4789 -1.8396
  281DG     H15 6455   2.036   0.645   4.348  0.3561  0.7824 -0.3487
  281DG     H16 6456   2.196   0.641   4.293 -1.9878 -2.7395 -1.9225
  281DG     C17 6457   2.064   0.859   4.660 -0.2489  0.6285  0.4696
  281DG     C18 6458   2.159   0.756   4.477  0.2443 -0.2036 -0.2678
  281DG     O19 6459   2.060   0.746   4.577 -0.4398  0.1945 -0.2051
  281DG     H20 6460   2.158   0.878   4.710 -0.2645  0.3784  0.5944
  281DG     H21 6461   2.045   0.949   4.602 -0.8056 -1.0184 -2.1066
  281DG     H22 6462   2.259   0.751   4.519  0.0592  2.1025  0.5780
  281DG     H23 6463   2.147   0.849   4.422 -0.0108  0.1800  0.4248
  282DG      C1 6464   4.236   0.723   4.672  0.1034  0.3838 -0.3194
  282DG      C2 6465   3.630   0.680   4.356  0.3188  0.3480  0.2618
  282DG      H3 6466   4.224   0.615   4.663  2.2449  0.1379 -0.7960
  282DG      H4 6467   4.176   0.760   4.755 -2.9165  0.0367 -2.1681
  282DG      H5 6468   4.339   0.754   4.685  0.1069  0.5473 -0.7222
  282DG      H6 6469   3.562   0.731   4.288 -1.1287 -0.7877  0.8190
  282DG      H7 6470   3.620   0.573   4.340  0.9542  0.0774  1.5393
  282DG      H8 6471   3.603   0.700   4.460  2.5502  1.0762  0.7671
  282DG      O9 6472   4.182   0.774   4.549 -0.1125 -0.1063 -0.5643
  282DG     O10 6473   3.766   0.719   4.345 -0.6457  0.0082 -0.3536
  282DG     C11 6474   4.253   0.722   4.438 -0.4145 -0.6553 -0.2002
  282DG     C12 6475   3.834   0.665   4.237  0.4047 -0.0421  0.5376
  282DG     H13 6476   4.277   0.616   4.432  2.8156  0.0344 -2.0072
  282DG     H14 6477   4.355   0.761   4.433 -0.0935 -1.3718  0.6239
  282DG     H15 6478   3.768   0.686   4.153  1.2879  3.5594  0.5641
  282DG     H16 6479   3.862   0.559   4.238  0.2350 -0.0996  2.4106
  282DG     C17 6480   4.179   0.755   4.308 -0.6869 -0.1742 -0.1201
  282DG     C18 6481   3.967   0.737   4.214 -0.1898 -0.6331 -0.1759
  282DG     O19 6482   4.049   0.701   4.319 -0.1306 -0.4891  0.5089
  282DG     H20 6483   4.231   0.703   4.227 -1.7625 -1.4199 -0.0478
  282DG     H21 6484   4.177   0.863   4.296 -0.7002  0.3318  3.2860
  282DG     H22 6485   4.009   0.689   4.126 -0.1968 -0.6587 -0.1657
  282DG     H23 6486   3.953   0.843   4.193  0.0256 -0.6960 -0.6496
  283DG      C1 6487   4.221   3.410   5.095  0.5934  0.5065  0.0020
  283DG      C2 6488   4.593   2.752   4.685 -0.3607  0.1528  0.4710
  283DG      H3 6489   4.151   3.415   5.011  2.6722  2.2438 -1.7754
  283DG      H4 6490   4.256   3.511   5.119  0.3519  0.4320  0.6772
  283DG      H5 6491   4.169   3.382   5.186  1.6757 -1.0541  0.1730
  283DG      H6 6492   4.660   2.667   4.685  0.3996  0.7351  0.0870
  283DG      H7 6493   4.493   2.716   4.710 -0.2667  1.3691  2.9046
  283DG      H8 6494   4.609   2.798   4.587  2.7819  0.0374  0.8237
  283DG      O9 6495   4.331   3.325   5.063 -0.0903 -0.0949  0.1936
  283DG     O10 6496   4.643   2.840   4.782 -0.0952 -0.5429 -0.7582
  283DG     C11 6497   4.416   3.369   4.955  0.3140  0.1180 -0.3516
  283DG     C12 6498   4.544   2.936   4.812  0.7474  0.6974  0.0620
  283DG     H13 6499   4.450   3.470   4.977 -0.3103  0.0279  1.1841
  283DG     H14 6500   4.357   3.380   4.863 -1.7119  0.9224  0.9705
  283DG     H15 6501   4.461   2.892   4.867 -1.1649  3.2488 -0.6386
  283DG     H16 6502   4.500   2.966   4.717 -0.5408  0.0979  0.4469
  283DG     C17 6503   4.538   3.277   4.951  0.3608  0.3631  0.4797
  283DG     C18 6504   4.598   3.057   4.881  0.4909  0.5142  0.0630
  283DG     O19 6505   4.491   3.150   4.911  0.4505  0.1184 -0.1890
  283DG     H20 6506   4.582   3.271   5.051 -0.5290 -0.9357  0.8215
  283DG     H21 6507   4.614   3.316   4.883  0.9428  0.2446  1.0520
  283DG     H22 6508   4.655   3.030   4.970 -0.8671 -3.9746 -0.1831
  283DG     H23 6509   4.663   3.103   4.807  1.8986 -1.5573 -0.0551
  284DG      C1 6510   2.280   4.362   4.788  0.0131 -0.0447  0.1130
  284DG      C2 6511   2.841   3.735   5.009  0.1224 -0.2004  0.7665
  284DG      H3 6512   2.233   4.443   4.844  0.8094  0.6314 -0.1811
  284DG      H4 6513   2.209   4.338   4.709 -0.0535  1.7631 -0.4066
  284DG      H5 6514   2.373   4.384   4.735  0.6015 -0.5788  0.8937
  284DG      H6 6515   2.919   3.751   4.935 -0.7002 -0.5794 -0.2025
  284DG      H7 6516   2.873   3.780   5.103  0.5029  1.3594 -0.0843
  284DG      H8 6517   2.837   3.628   5.028 -1.8353 -0.1297  0.8877
  284DG      O9 6518   2.308   4.269   4.889  0.4266 -0.5379 -0.6021
  284DG     O10 6519   2.723   3.790   4.970  0.2010 -0.4014 -0.3667
  284DG     C11 6520   2.412   4.183   4.859  0.5710 -0.6735  0.1470
  284DG     C12 6521   2.632   3.801   5.077  0.0513  0.4118  0.1856
  284DG     H13 6522   2.497   4.246   4.886  1.6344 -1.0804 -2.0179
  284DG     H14 6523   2.418   4.161   4.753  3.4335 -2.2798  0.5213
  284DG     H15 6524   2.672   3.871   5.149 -0.2531 -0.2250  0.9930
  284DG     H16 6525   2.614   3.698   5.110  1.7611 -0.5349 -1.6088
  284DG     C17 6526   2.395   4.055   4.950 -0.3347 -0.3153  0.7311
  284DG     C18 6527   2.504   3.855   5.016 -0.6371 -0.8026  0.1359
  284DG     O19 6528   2.521   3.988   4.961 -0.1778  0.5340 -0.5852
  284DG     H20 6529   2.307   3.999   4.916 -2.3743  1.9371  1.9657
  284DG     H21 6530   2.382   4.082   5.055  0.6827 -0.5533  0.9303
  284DG     H22 6531   2.470   3.802   4.927  2.4296 -0.3337 -1.4534
  284DG     H23 6532   2.426   3.848   5.091  0.8085 -0.1287  1.7896
  285DG      C1 6533   1.842   3.571   2.471  0.3734 -0.1258  0.0634
  285DG      C2 6534   1.770   3.997   2.960 -0.1998 -0.2639 -0.5850
  285DG      H3 6535   1.745   3.619   2.481  0.5037 -0.0758  1.2215
  285DG      H4 6536   1.837   3.468   2.506  1.2180 -0.9113 -1.9718
  285DG      H5 6537   1.882   3.588   2.371 -0.8674 -1.0370 -0.6090
  285DG      H6 6538   1.809   4.081   3.018 -0.1200  0.8521 -2.2015
  285DG      H7 6539   1.669   4.027   2.933 -1.0334 -1.8342  0.5708
  285DG      H8 6540   1.765   3.910   3.026 -0.0110  0.9080  1.0321
  285DG      O9 6541   1.920   3.624   2.575  0.1123  0.0940 -0.1983
  285DG     O10 6542   1.862   3.986   2.855  1.0626 -0.7315 -0.2346
  285DG     C11 6543   2.062   3.629   2.572 -0.4073 -0.9842 -0.0615
  285DG     C12 6544   2.000   3.969   2.901  0.2203 -0.1843 -0.2153
  285DG     H13 6545   2.079   3.693   2.486  1.0255 -3.8314 -2.0643
  285DG     H14 6546   2.108   3.531   2.560  2.1045 -0.0012  0.7837
  285DG     H15 6547   2.008   3.993   3.007  0.1005  1.3764 -0.5404
  285DG     H16 6548   2.068   4.015   2.829 -0.6165  0.6559 -0.5010
  285DG     C17 6549   2.112   3.675   2.709  0.0596  0.3369 -0.2559
  285DG     C18 6550   2.031   3.814   2.889 -0.9107 -0.9609  0.4235
  285DG     O19 6551   2.010   3.766   2.756 -0.2270  0.1647  0.1239
  285DG     H20 6552   2.215   3.708   2.719  0.8263 -2.4587  2.6971
  285DG     H21 6553   2.122   3.583   2.766 -1.5875 -0.2591 -0.8639
  285DG     H22 6554   2.135   3.805   2.919 -0.8460 -1.6323  0.0282
  285DG     H23 6555   1.972   3.762   2.964 -1.1770 -0.5124  0.5314
  286DG      C1 6556   4.013   2.492   4.205 -0.4727 -0.1431 -0.6239
  286DG      C2 6557   3.653   2.113   4.822 -1.2865  0.6397  0.2591
  286DG      H3 6558   4.037   2.459   4.104 -1.0160  1.7484 -1.4140
  286DG      H4 6559   4.051   2.591   4.231 -2.8721  0.8559 -0.5816
  286DG      H5 6560   3.904   2.501   4.209 -0.3137  1.4743  1.6148
  286DG      H6 6561   3.669   2.025   4.885  0.8240  1.1148  0.4781
  286DG      H7 6562   3.681   2.199   4.884 -0.0079 -0.4034  1.1892
  286DG      H8 6563   3.550   2.114   4.788 -1.7966  1.0207  1.7195
  286DG      O9 6564   4.035   2.403   4.318 -0.1626 -0.5628  0.2321
  286DG     O10 6565   3.750   2.123   4.716 -0.3253 -0.1326  0.1648
  286DG     C11 6566   3.983   2.270   4.297  0.0433  0.0099 -0.4661
  286DG     C12 6567   3.888   2.102   4.745 -0.0816 -0.0427 -0.6852
  286DG     H13 6568   4.018   2.227   4.203 -0.6221 -1.7664  0.0704
  286DG     H14 6569   3.876   2.279   4.278 -0.4783 -1.3575  1.5505
  286DG     H15 6570   3.889   2.025   4.822 -0.2437 -0.0181 -0.6591
  286DG     H16 6571   3.927   2.194   4.786 -1.2118  1.1173 -2.1071
  286DG     C17 6572   4.022   2.168   4.409 -0.0418  0.1532 -0.3944
  286DG     C18 6573   3.967   2.078   4.612  0.4267 -0.1996 -0.6904
  286DG     O19 6574   3.951   2.190   4.532  0.0732  0.0585  0.0859
  286DG     H20 6575   4.130   2.167   4.422 -0.0279  0.0097 -0.5230
  286DG     H21 6576   4.002   2.070   4.366 -0.0895  0.0519 -0.1485
  286DG     H22 6577   4.072   2.057   4.633  0.5171 -0.3358 -1.2493
  286DG     H23 6578   3.923   1.994   4.557 -2.0578 -0.2664  1.2400
  287DG      C1 6579   0.339   5.292   4.484  0.1611 -0.2635  0.0768
  287DG      C2 6580   0.025   4.902   4.800  0.7955 -1.2588  0.1933
  287DG      H3 6581   0.391   5.212   4.536 -0.9308 -0.3625  1.0704
  287DG      H4 6582   0.341   5.381   4.546  0.2799  0.6294 -1.1618
  287DG      H5 6583   0.387   5.328   4.393  0.5168  2.6126  1.2787
  287DG      H6 6584   0.045   4.958   4.892 -1.1156 -0.8293  0.3908
  287DG      H7 6585  -0.058   4.835   4.821 -3.4431  2.9253 -1.3298
  287DG      H8 6586   0.116   4.845   4.783  0.6185 -1.8243  1.0744
  287DG      O9 6587   0.202   5.263   4.470 -0.5026 -0.3967  0.2351
  287DG     O10 6588   0.003   4.998   4.694 -0.0831 -0.2029  0.4033
  287DG     C11 6589   0.179   5.149   4.384  0.6267 -0.1001  0.2933
  287DG     C12 6590  -0.096   4.962   4.598  0.0596  0.2945 -0.1715
  287DG     H13 6591   0.224   5.057   4.422  0.0834  0.1679  1.6122
  287DG     H14 6592   0.222   5.184   4.290 -1.2850 -0.4048 -0.7680
  287DG     H15 6593  -0.177   4.911   4.651 -2.4469  5.0826  1.1584
  287DG     H16 6594  -0.045   4.896   4.527 -0.6415 -0.1416 -0.2833
  287DG     C17 6595   0.030   5.119   4.361  1.1581  0.6946  0.0818
  287DG     C18 6596  -0.147   5.078   4.513  0.4833 -0.4336 -0.5370
  287DG     O19 6597  -0.032   5.153   4.482  0.8903  0.0949  0.1703
  287DG     H20 6598   0.017   5.014   4.335  1.2326  0.5051  0.7946
  287DG     H21 6599  -0.002   5.184   4.280  0.5497  0.4617  0.1325
  287DG     H22 6600  -0.214   5.053   4.431 -0.5025 -2.5754  0.8270
  287DG     H23 6601  -0.200   5.142   4.583  0.7056 -0.0954 -0.6732
  288DG      C1 6602   0.600   5.301   1.346  0.4741 -0.0149 -0.2458
  288DG      C2 6603   1.352   5.678   1.480  0.1222 -0.0541  0.3384
  288DG      H3 6604   0.566   5.404   1.347 -1.8727 -0.7347  0.3835
  288DG      H4 6605   0.521   5.230   1.371 -0.7930  1.4375 -0.0043
  288DG      H5 6606   0.633   5.260   1.251  0.8843  1.7423 -0.8999
  288DG      H6 6607   1.430   5.645   1.549  2.3468  0.5021 -1.7659
  288DG      H7 6608   1.394   5.686   1.380 -0.4270 -3.2342 -0.2403
  288DG      H8 6609   1.317   5.776   1.514  2.9296  1.6311 -1.1890
  288DG      O9 6610   0.716   5.279   1.422 -0.1805  0.1334  0.7077
  288DG     O10 6611   1.240   5.584   1.479  0.3623 -0.2010  0.4385
  288DG     C11 6612   0.818   5.372   1.407  0.4368 -0.1557  0.5222
  288DG     C12 6613   1.282   5.458   1.440 -0.4040 -0.2548 -0.3489
  288DG     H13 6614   0.791   5.471   1.443  0.0035 -0.2004  0.3360
  288DG     H14 6615   0.830   5.385   1.299 -0.2531 -0.8149  0.3550
  288DG     H15 6616   1.372   5.426   1.493 -0.5552 -1.6001 -0.8512
  288DG     H16 6617   1.295   5.457   1.332 -1.5165  0.8692 -0.5117
  288DG     C17 6618   0.942   5.331   1.484  0.0234 -0.0852 -0.6349
  288DG     C18 6619   1.176   5.362   1.482  0.3921 -0.1050  0.5342
  288DG     O19 6620   1.051   5.401   1.426 -0.0833 -0.5688 -0.5127
  288DG     H20 6621   0.966   5.225   1.473  2.3318  0.3058  0.0254
  288DG     H21 6622   0.935   5.353   1.591 -0.8244  0.0328 -0.7042
  288DG     H22 6623   1.192   5.259   1.450 -0.8217 -0.5147  1.1666
  288DG     H23 6624   1.173   5.360   1.591  2.2616 -1.5503  0.6103
  289DG      C1 6625   0.564   4.129   0.641 -0.2345 -0.4379  0.6133
  289DG      C2 6626   0.327   4.794   0.730 -0.1135 -0.1737  0.8592
  289DG      H3 6627   0.476   4.132   0.576  0.7920 -0.5556 -0.8327
  289DG      H4 6628   0.560   4.053   0.718 -1.7032  1.0670  2.1217
  289DG      H5 6629   0.650   4.102   0.580 -1.3350 -1.1221 -0.7105
  289DG      H6 6630   0.301   4.789   0.624  2.9186  0.6560 -0.0254
  289DG      H7 6631   0.249   4.852   0.779  1.7580  3.1902  0.1130
  289DG      H8 6632   0.413   4.860   0.734 -1.1989  1.3013  0.5990
  289DG      O9 6633   0.570   4.267   0.694  0.1830  0.4383  0.0249
  289DG     O10 6634   0.354   4.664   0.776  0.3388 -0.0379  0.8492
  289DG     C11 6635   0.595   4.268   0.839  0.4706  0.2629  0.5835
  289DG     C12 6636   0.363   4.648   0.909 -0.5132 -0.3684 -0.2115
  289DG     H13 6637   0.681   4.203   0.857 -0.2680 -1.1058 -0.6572
  289DG     H14 6638   0.512   4.236   0.901 -1.4411 -0.1742 -2.0204
  289DG     H15 6639   0.267   4.651   0.959  0.2020 -1.7692  1.3567
  289DG     H16 6640   0.433   4.724   0.946  0.4925 -0.9045 -0.9423
  289DG     C17 6641   0.634   4.403   0.894  0.3901  0.2595 -0.1496
  289DG     C18 6642   0.419   4.517   0.935 -0.2423 -0.0757 -0.0147
  289DG     O19 6643   0.547   4.521   0.863 -0.0509 -0.2961 -0.1904
  289DG     H20 6644   0.723   4.451   0.852  0.8872 -0.7660 -0.2962
  289DG     H21 6645   0.630   4.406   1.003 -1.7901  1.0347 -0.1993
  289DG     H22 6646   0.439   4.509   1.042 -1.3178 -1.6339  0.1080
  289DG     H23 6647   0.353   4.441   0.893  1.4102 -1.1293 -0.8096
  290DG      C1 6648   2.926   2.493   5.426  0.0240 -0.1700 -0.5524
  290DG      C2 6649   3.338   1.891   5.120 -0.6176 -0.3150 -0.2083
  290DG      H3 6650   3.009   2.540   5.374 -0.4441 -0.9024 -1.9999
  290DG      H4 6651   2.931   2.503   5.535 -0.1472 -0.6879 -0.4934
  290DG      H5 6652   2.836   2.549   5.401  1.1972  2.3947  0.5585
  290DG      H6 6653   3.389   1.849   5.206  1.8897  0.9435 -0.9768
  290DG      H7 6654   3.376   1.842   5.030 -0.8722 -0.4147 -0.2627
  290DG      H8 6655   3.370   1.995   5.120 -3.8382  0.8200  1.3667
  290DG      O9 6656   2.928   2.355   5.388 -0.8698 -0.1335 -0.3073
  290DG     O10 6657   3.198   1.884   5.131  0.2578  0.0359  0.2212
  290DG     C11 6658   2.893   2.345   5.251 -0.8820  0.1493  0.0844
  290DG     C12 6659   3.152   1.942   5.255 -0.0948 -0.4137  0.6784
  290DG     H13 6660   2.967   2.395   5.188  0.9096 -1.3254  0.9108
  290DG     H14 6661   2.790   2.379   5.240 -0.7531  0.3544 -0.5607
  290DG     H15 6662   3.210   2.026   5.293 -1.6582  0.3815  1.4012
  290DG     H16 6663   3.150   1.860   5.327  1.1514  0.3177  1.5770
  290DG     C17 6664   2.882   2.196   5.221 -0.6111  0.2095  0.5307
  290DG     C18 6665   3.011   1.995   5.235 -0.7643  0.0870 -0.4475
  290DG     O19 6666   3.014   2.136   5.250 -0.6987  0.0418 -0.1049
  290DG     H20 6667   2.857   2.185   5.116 -0.9694  3.9236  0.0997
  290DG     H21 6668   2.798   2.150   5.273 -1.3025  0.2160 -0.5456
  290DG     H22 6669   2.965   1.964   5.142 -1.2253 -0.4468 -0.0490
  290DG     H23 6670   2.956   1.962   5.324 -0.4503  0.5454 -0.0749
  291DG      C1 6671   2.170   1.975   4.183 -0.7519 -0.2940  0.3559
  291DG      C2 6672   2.278   1.758   3.395  0.0519 -0.1894  0.2404
  291DG      H3 6673   2.061   1.974   4.174 -0.6762 -0.9888 -0.8152
  291DG      H4 6674   2.206   2.076   4.166  1.8800 -1.0534  1.0787
  291DG      H5 6675   2.191   1.942   4.284 -0.3695 -0.5953  0.1802
  291DG      H6 6676   2.290   1.686   3.314 -1.8398 -1.2277  0.8375
  291DG      H7 6677   2.188   1.819   3.381  1.5214  2.0429 -0.0975
  291DG      H8 6678   2.363   1.828   3.393 -0.5140  0.5773 -3.2323
  291DG      O9 6679   2.242   1.896   4.087 -0.1025  0.2716 -0.3000
  291DG     O10 6680   2.278   1.678   3.509  0.3610  0.0429 -0.3369
  291DG     C11 6681   2.203   1.762   4.102  0.1244  0.2902  0.2573
  291DG     C12 6682   2.278   1.753   3.628 -0.2044 -0.3816 -0.0075
  291DG     H13 6683   2.094   1.755   4.099  0.1940 -0.3483 -1.1101
  291DG     H14 6684   2.241   1.726   4.198  0.9354 -1.3396 -0.6383
  291DG     H15 6685   2.202   1.832   3.620 -1.0443 -1.1512  0.1970
  291DG     H16 6686   2.374   1.801   3.647  0.1283 -0.6729 -0.8705
  291DG     C17 6687   2.244   1.677   3.980 -0.6326  0.7963 -0.0855
  291DG     C18 6688   2.241   1.659   3.744 -0.0386  0.2401 -0.4879
  291DG     O19 6689   2.227   1.744   3.854 -0.3716  0.0305  0.3539
  291DG     H20 6690   2.188   1.584   3.980  2.2932 -1.0806  0.3284
  291DG     H21 6691   2.350   1.657   3.991 -0.9017 -0.0130  1.1265
  291DG     H22 6692   2.145   1.610   3.729 -1.4803  1.4086  3.5651
  291DG     H23 6693   2.324   1.589   3.753 -0.0649  0.0807 -1.3822
  292DG      C1 6694   3.105   1.798   2.440  0.5031  0.7752 -0.1400
  292DG      C2 6695   2.842   2.044   3.088  0.2096 -0.1724  0.0372
  292DG      H3 6696   3.079   1.724   2.365 -1.9170  2.6882 -1.3501
  292DG      H4 6697   3.212   1.820   2.439  0.6340  1.1175  3.9064
  292DG      H5 6698   3.051   1.892   2.423 -0.4308  0.0586 -1.3014
  292DG      H6 6699   2.745   2.093   3.096  0.8027  1.0282  0.1424
  292DG      H7 6700   2.876   2.035   3.191 -1.5416  0.4919  0.7155
  292DG      H8 6701   2.909   2.116   3.040  0.3628 -1.3558 -1.6015
  292DG      O9 6702   3.060   1.752   2.568 -0.6020  0.0749 -1.0975
  292DG     O10 6703   2.820   1.918   3.017  0.4187 -0.4552  0.2373
  292DG     C11 6704   2.916   1.720   2.575  0.4309  0.6081 -0.3807
  292DG     C12 6705   2.942   1.853   3.028  0.7276 -0.0570  0.4592
  292DG     H13 6706   2.917   1.647   2.494  1.5007  1.3984 -1.1073
  292DG     H14 6707   2.843   1.798   2.554  1.6501  1.6243 -0.9921
  292DG     H15 6708   2.965   1.834   3.133 -1.2087 -1.7046  0.6381
  292DG     H16 6709   3.016   1.915   2.977  0.9207 -1.2488 -0.7758
  292DG     C17 6710   2.880   1.669   2.715 -0.0303 -0.3643 -0.4087
  292DG     C18 6711   2.918   1.730   2.937 -0.2090  0.1380 -0.4014
  292DG     O19 6712   2.937   1.766   2.804  0.1308 -0.0430 -0.2236
  292DG     H20 6713   2.938   1.578   2.723  0.3291 -0.2662 -1.7170
  292DG     H21 6714   2.773   1.665   2.736  0.0914  0.5886  0.4885
  292DG     H22 6715   2.991   1.660   2.978 -0.1364  0.4796  0.0667
  292DG     H23 6716   2.827   1.684   2.978  0.2538  1.1018  1.9054
  293DG      C1 6717   1.578   2.196   2.123 -0.1159  0.1044  0.0805
  293DG      C2 6718   1.832   2.706   1.811  0.1457 -0.4104 -0.8639
  293DG      H3 6719   1.683   2.198   2.153 -0.5929 -0.1001  1.8969
  293DG      H4 6720   1.559   2.123   2.044  0.3007 -0.9590  0.9229
  293DG      H5 6721   1.526   2.145   2.204  2.1298 -1.3373  0.7126
  293DG      H6 6722   1.922   2.645   1.808  0.9891  0.5752  1.5873
  293DG      H7 6723   1.770   2.676   1.726 -0.0291 -0.9568 -0.5456
  293DG      H8 6724   1.847   2.814   1.804 -0.0640 -0.0262  2.6000
  293DG      O9 6725   1.523   2.317   2.095 -0.2706 -0.2209 -0.1180
  293DG     O10 6726   1.767   2.669   1.930 -0.2372  0.6607  0.0685
  293DG     C11 6727   1.499   2.403   2.203  0.4801 -0.2022 -0.3872
  293DG     C12 6728   1.677   2.773   1.971  0.4411 -0.3714 -0.8438
  293DG     H13 6729   1.583   2.410   2.272 -0.6920  1.5323  0.9419
  293DG     H14 6730   1.408   2.365   2.250 -0.3112  2.8078  0.7509
  293DG     H15 6731   1.609   2.784   1.887 -0.1920  0.9813 -0.1782
  293DG     H16 6732   1.725   2.868   1.994 -1.9454  0.4254  1.3248
  293DG     C17 6733   1.463   2.541   2.153  0.7584 -0.0979 -0.1359
  293DG     C18 6734   1.609   2.718   2.103 -0.0168  0.1624  0.3548
  293DG     O19 6735   1.564   2.588   2.069 -0.5623  0.1769 -0.3797
  293DG     H20 6736   1.452   2.607   2.239 -1.4914  2.8137 -2.4318
  293DG     H21 6737   1.366   2.546   2.103  0.7148  0.3752 -0.0053
  293DG     H22 6738   1.688   2.717   2.178  2.0590  2.6353 -1.5962
  293DG     H23 6739   1.535   2.792   2.132  0.9791  0.9577  0.9526
  294DG      C1 6740   4.329   1.054   2.254  0.0002  0.6419 -0.0912
  294DG      C2 6741   4.849   0.706   2.098  0.2552 -0.3127  0.3269
  294DG      H3 6742   4.296   1.067   2.151  0.7324  1.0331 -0.2823
  294DG      H4 6743   4.279   1.134   2.307  0.3392  0.6618  0.2004
  294DG      H5 6744   4.304   0.957   2.297  3.8504  0.5757  2.5356
  294DG      H6 6745   4.920   0.624   2.113  1.8083  0.9700  0.1903
  294DG      H7 6746   4.791   0.696   2.006  0.9317 -1.3322 -0.0167
  294DG      H8 6747   4.930   0.775   2.074  1.4919 -1.9534 -0.4547
  294DG      O9 6748   4.470   1.065   2.266  0.1966  0.3860 -0.9051
  294DG     O10 6749   4.768   0.738   2.210  0.3177 -0.2818  0.0476
  294DG     C11 6750   4.520   1.057   2.397 -0.0443  0.2199 -0.3593
  294DG     C12 6751   4.675   0.638   2.255 -0.7240  0.0134 -0.8768
  294DG     H13 6752   4.454   1.109   2.466 -1.0691  0.3581 -1.4225
  294DG     H14 6753   4.627   1.081   2.397  0.1046 -0.3871 -1.3918
  294DG     H15 6754   4.739   0.560   2.296 -0.8524  0.4475  0.1888
  294DG     H16 6755   4.613   0.605   2.172 -1.2079  0.9212 -0.8993
  294DG     C17 6756   4.514   0.914   2.448 -0.0002  0.0346 -0.6062
  294DG     C18 6757   4.589   0.697   2.376 -0.1007 -0.4176  0.0042
  294DG     O19 6758   4.548   0.822   2.344 -0.4655 -0.5383  0.1881
  294DG     H20 6759   4.416   0.885   2.485  0.1772  1.2949  0.9137
  294DG     H21 6760   4.590   0.911   2.526  0.8057 -1.9833 -1.3989
  294DG     H22 6761   4.502   0.633   2.389 -2.0040  2.2639  1.1744
  294DG     H23 6762   4.660   0.694   2.459  0.7855  2.3562 -0.5608
  295DG      C1 6763   1.818   2.533   0.848 -0.1801 -0.1167 -0.0662
  295DG      C2 6764   1.878   2.873   1.501  0.0425 -0.2496  0.4047
  295DG      H3 6765   1.765   2.615   0.799  0.7475 -0.0350 -0.9928
  295DG      H4 6766   1.742   2.467   0.889  0.1039 -0.3343  0.1134
  295DG      H5 6767   1.872   2.479   0.770  1.6200 -1.5557  2.0463
  295DG      H6 6768   1.773   2.845   1.489 -0.4735  0.6605  2.3133
  295DG      H7 6769   1.914   2.893   1.603  1.7101 -3.6142  0.5830
  295DG      H8 6770   1.881   2.963   1.440 -0.2942 -1.3728 -1.3348
  295DG      O9 6771   1.906   2.577   0.954 -0.3087  0.4564 -0.1255
  295DG     O10 6772   1.961   2.786   1.430 -0.4512 -0.2008 -0.0900
  295DG     C11 6773   1.832   2.649   1.055 -0.3638 -0.5613 -0.0119
  295DG     C12 6774   1.962   2.651   1.473  0.2222  0.5520 -0.4153
  295DG     H13 6775   1.751   2.580   1.080  0.3649 -1.3482  0.2452
  295DG     H14 6776   1.807   2.746   1.012  0.4874 -0.8728 -1.2785
  295DG     H15 6777   1.860   2.613   1.482  0.0189  1.4759  1.5984
  295DG     H16 6778   2.005   2.641   1.572  1.3911  0.6376 -0.9014
  295DG     C17 6779   1.909   2.677   1.184  0.2738 -0.8246 -0.4576
  295DG     C18 6780   2.040   2.571   1.367 -0.0285 -0.4580 -1.1703
  295DG     O19 6781   1.954   2.561   1.249 -0.0322  0.4739 -0.1613
  295DG     H20 6782   1.836   2.729   1.246  1.2326 -0.9376  0.8190
  295DG     H21 6783   1.996   2.740   1.165 -0.7324  0.8063  0.1421
  295DG     H22 6784   2.130   2.626   1.340  1.3138 -1.4321  1.0214
  295DG     H23 6785   2.078   2.477   1.406 -0.3018  0.3904  1.2771
  296DG      C1 6786   5.129   3.174   3.213 -0.6999 -0.3888 -0.1319
  296DG      C2 6787   4.580   3.374   3.291 -0.2687  0.4294 -0.1265
  296DG      H3 6788   5.188   3.178   3.305 -0.9963  1.0056  0.0137
  296DG      H4 6789   5.101   3.275   3.186 -0.4041 -0.4565 -0.6962
  296DG      H5 6790   5.193   3.139   3.132 -0.9498  3.1105 -2.0006
  296DG      H6 6791   4.633   3.469   3.300 -2.0711  1.4087  0.9229
  296DG      H7 6792   4.616   3.334   3.197 -0.3872  0.3541 -0.1405
  296DG      H8 6793   4.473   3.395   3.286  0.1728  3.0596  0.0887
  296DG      O9 6794   5.002   3.111   3.232  0.5833 -0.2128  0.4345
  296DG     O10 6795   4.621   3.286   3.397  0.0971  0.1782 -0.1387
  296DG     C11 6796   4.948   3.068   3.113 -0.4079  0.3979 -0.0603
  296DG     C12 6797   4.553   3.157   3.385  0.6014 -0.1028  0.1344
  296DG     H13 6798   5.008   2.993   3.060 -1.3185 -1.3955  1.3154
  296DG     H14 6799   4.936   3.159   3.056  0.2530  0.4440 -0.1350
  296DG     H15 6800   4.448   3.167   3.360  0.5283  0.0496  0.4816
  296DG     H16 6801   4.562   3.101   3.478 -0.5121 -0.3153  0.1195
  296DG     C17 6802   4.803   3.016   3.151 -0.1926  0.0322  0.7187
  296DG     C18 6803   4.608   3.082   3.264  0.3918 -0.1104 -0.1864
  296DG     O19 6804   4.750   3.093   3.248  0.1584 -0.4714 -0.1365
  296DG     H20 6805   4.805   2.913   3.187  0.1127  0.2095  1.2035
  296DG     H21 6806   4.734   3.018   3.066 -1.1299  3.1008  1.4242
  296DG     H22 6807   4.575   2.982   3.289 -1.4909  1.1930  3.2379
  296DG     H23 6808   4.550   3.105   3.175 -0.3193 -1.1016  0.0019
  297DG      C1 6809   1.440   2.227   2.976 -0.7644  0.6366  1.0772
  297DG      C2 6810   1.513   2.516   3.709 -0.9053  0.3567  0.1529
  297DG      H3 6811   1.357   2.225   2.906 -0.1548 -0.3473  0.3383
  297DG      H4 6812   1.511   2.149   2.948 -3.0688 -0.7989 -1.1194
  297DG      H5 6813   1.493   2.319   2.954  0.0425  0.1647  0.9750
  297DG      H6 6814   1.447   2.509   3.795  2.3594  1.0263  2.9049
  297DG      H7 6815   1.616   2.505   3.741 -0.1001 -0.2938 -2.4271
  297DG      H8 6816   1.523   2.617   3.669 -0.8121  0.5011  0.5425
  297DG      O9 6817   1.398   2.198   3.107 -0.4165  0.6046 -0.1087
  297DG     O10 6818   1.478   2.452   3.588  0.8152  0.3984  0.5471
  297DG     C11 6819   1.303   2.292   3.158 -0.2951 -0.1865 -0.1107
  297DG     C12 6820   1.431   2.315   3.604  0.2008  0.6463 -0.5487
  297DG     H13 6821   1.217   2.288   3.090 -1.0920  3.4224  0.4856
  297DG     H14 6822   1.343   2.393   3.166 -1.3750  0.3233 -0.9479
  297DG     H15 6823   1.400   2.293   3.707 -0.9266 -1.2346 -1.2355
  297DG     H16 6824   1.518   2.249   3.604  0.1662  0.5894 -0.0525
  297DG     C17 6825   1.262   2.248   3.293 -0.1323  0.4638 -0.5219
  297DG     C18 6826   1.320   2.274   3.510 -0.0769 -0.1308  0.1942
  297DG     O19 6827   1.359   2.296   3.382 -0.1082 -0.0936  0.3760
  297DG     H20 6828   1.235   2.142   3.298  0.0211  0.4763  0.8828
  297DG     H21 6829   1.171   2.299   3.324  1.7797  2.4352  2.3261
  297DG     H22 6830   1.287   2.170   3.516 -2.9165  0.5884 -0.9115
  297DG     H23 6831   1.231   2.331   3.537  0.0653 -0.3932  1.2765
  298DG      C1 6832   0.021   1.338   0.661  0.1097 -0.3621 -0.3183
  298DG      C2 6833  -0.151   0.901   1.307 -0.1566 -0.0904 -0.4917
  298DG      H3 6834  -0.022   1.301   0.569 -1.2975  0.3609  0.0112
  298DG      H4 6835   0.127   1.354   0.643  0.2637  0.7474  1.2871
  298DG      H5 6836  -0.034   1.428   0.689 -2.3926 -1.9628  0.2877
  298DG      H6 6837  -0.196   0.805   1.331  0.0731  0.3316  1.9407
  298DG      H7 6838  -0.049   0.909   1.347  0.5590  1.1347 -2.3997
  298DG      H8 6839  -0.211   0.974   1.361  0.9529 -1.5795  3.0895
  298DG      O9 6840   0.008   1.256   0.776 -0.2973  0.4089 -0.0774
  298DG     O10 6841  -0.149   0.920   1.163  0.2390  0.1857 -1.0119
  298DG     C11 6842  -0.121   1.199   0.783 -0.1032 -0.3811 -1.0508
  298DG     C12 6843  -0.274   0.903   1.096 -0.2910 -0.3460  0.1491
  298DG     H13 6844  -0.156   1.158   0.688  0.8711  1.1241 -2.1095
  298DG     H14 6845  -0.184   1.284   0.811  1.5218  0.6145 -0.2865
  298DG     H15 6846  -0.348   0.972   1.138  0.8908  0.9814  0.1400
  298DG     H16 6847  -0.303   0.802   1.125  0.2712 -0.2511  1.0991
  298DG     C17 6848  -0.122   1.099   0.896 -0.4546 -0.5354 -0.0549
  298DG     C18 6849  -0.267   0.926   0.944 -0.5493 -0.3345 -0.4443
  298DG     O19 6850  -0.248   1.061   0.903  0.8709  0.2324  0.0412
  298DG     H20 6851  -0.107   1.139   0.997 -2.5865  0.5792 -0.1356
  298DG     H21 6852  -0.053   1.015   0.891  0.7654  0.5223 -2.2457
  298DG     H22 6853  -0.196   0.853   0.908 -1.0619 -0.1299 -1.9153
  298DG     H23 6854  -0.360   0.888   0.903 -1.9439 -0.0197  2.1618
  299DG      C1 6855   1.100   2.687   3.477 -0.6100 -0.1156 -0.4350
  299DG      C2 6856   1.309   2.897   2.838 -0.4433 -0.9594 -0.0399
  299DG      H3 6857   1.102   2.585   3.518  0.0999 -0.5528 -1.5151
  299DG      H4 6858   1.007   2.735   3.507 -1.7084 -0.8716 -2.4596
  299DG      H5 6859   1.176   2.749   3.524 -1.9235  0.7882  0.5534
  299DG      H6 6860   1.361   2.980   2.885 -0.4566 -2.1773  2.2459
  299DG      H7 6861   1.362   2.848   2.756  0.5995 -1.3503  0.8377
  299DG      H8 6862   1.218   2.946   2.803 -0.5001  0.7003  2.2327
  299DG      O9 6863   1.120   2.674   3.342  0.1163 -0.4530  0.0602
  299DG     O10 6864   1.290   2.805   2.940  0.0608 -0.3575 -0.0078
  299DG     C11 6865   1.036   2.578   3.285  0.3663  0.1309  0.0947
  299DG     C12 6866   1.208   2.700   2.887  0.0895 -0.6647 -0.4940
  299DG     H13 6867   0.932   2.592   3.313 -0.7107  0.3033 -3.5035
  299DG     H14 6868   1.054   2.476   3.319  0.8465 -0.3919 -1.6448
  299DG     H15 6869   1.228   2.678   2.782  1.5129 -1.1103 -0.1503
  299DG     H16 6870   1.103   2.727   2.883  0.0063 -0.4320  1.8028
  299DG     C17 6871   1.036   2.575   3.129  0.4425 -0.0397 -0.2025
  299DG     C18 6872   1.227   2.572   2.969  0.6407  0.2988  0.2610
  299DG     O19 6873   1.177   2.572   3.103 -0.0909 -0.4499  0.3363
  299DG     H20 6874   0.983   2.663   3.091  0.6227  0.3553  0.4506
  299DG     H21 6875   0.978   2.493   3.087 -1.4827  1.1463  0.0173
  299DG     H22 6876   1.171   2.498   2.911  2.6947 -1.6635  0.6001
  299DG     H23 6877   1.332   2.544   2.956  0.7060  1.1678 -1.4436
  300DG      C1 6878   5.252   1.987   3.642 -0.7513 -0.5473 -0.0466
  300DG      C2 6879   4.736   1.757   4.036  0.1103  0.8384  0.5423
  300DG      H3 6880   5.181   2.034   3.574 -0.7994 -1.0735 -0.3685
  300DG      H4 6881   5.260   1.883   3.610 -3.1576 -1.5352  2.1436
  300DG      H5 6882   5.343   2.041   3.617 -0.6511 -1.5850 -2.2071
  300DG      H6 6883   4.758   1.651   4.021 -4.3413 -0.4596  1.5762
  300DG      H7 6884   4.685   1.758   4.132  0.6338 -0.2470  0.8407
  300DG      H8 6885   4.664   1.792   3.962 -0.4020 -0.4970  0.3857
  300DG      O9 6886   5.209   1.996   3.783 -0.4387 -0.2712 -0.0163
  300DG     O10 6887   4.858   1.827   4.037  0.3158 -0.0134 -0.0066
  300DG     C11 6888   5.308   1.939   3.867  0.4494  0.2758 -0.8506
  300DG     C12 6889   4.947   1.778   4.138 -1.0044 -0.2446 -1.0868
  300DG     H13 6890   5.401   1.995   3.865  0.4087  0.3270 -1.8901
  300DG     H14 6891   5.323   1.835   3.838 -1.3949 -0.1423 -0.4576
  300DG     H15 6892   4.978   1.677   4.112 -0.3576 -0.0948 -0.9017
  300DG     H16 6893   4.912   1.777   4.241 -0.3591  0.3087 -0.8636
  300DG     C17 6894   5.251   1.937   4.008  0.6507  0.1735 -0.3028
  300DG     C18 6895   5.068   1.877   4.142  0.0415  0.0124  0.3427
  300DG     O19 6896   5.118   1.887   4.012  0.4955 -0.5967 -0.3441
  300DG     H20 6897   5.248   2.041   4.041 -1.8126  1.2109 -3.2729
  300DG     H21 6898   5.318   1.873   4.065  1.7311  0.4344 -1.2338
  300DG     H22 6899   5.042   1.976   4.179  1.0712  0.3809  0.1111
  300DG     H23 6900   5.147   1.847   4.211  1.9949  3.9275  0.1096
  301DG      C1 6901   0.275   1.752   4.662  0.0600  0.0374  0.0479
  301DG      C2 6902   0.838   1.377   4.814 -0.0078 -0.3328 -0.2224
  301DG      H3 6903   0.273   1.799   4.564 -0.3642 -0.4361 -0.1716
  301DG      H4 6904   0.330   1.824   4.723 -1.3785  1.6049 -0.4218
  301DG      H5 6905   0.173   1.762   4.698  0.1913  0.8427  0.2111
  301DG      H6 6906   0.883   1.468   4.851 -2.0761  0.9012 -0.5885
  301DG      H7 6907   0.820   1.306   4.895 -2.6172  0.3967 -0.0580
  301DG      H8 6908   0.920   1.338   4.754  0.2904 -1.8712  1.1130
  301DG      O9 6909   0.325   1.620   4.665 -0.0776  0.0684  0.2027
  301DG     O10 6910   0.730   1.410   4.727  0.1089 -0.1922 -0.4448
  301DG     C11 6911   0.282   1.546   4.553 -0.2201 -0.1168 -0.3849
  301DG     C12 6912   0.678   1.300   4.649 -1.0948  0.2366 -0.1654
  301DG     H13 6913   0.279   1.602   4.459 -0.0639  2.3497  0.9728
  301DG     H14 6914   0.179   1.521   4.575 -0.0460 -2.1493 -1.6834
  301DG     H15 6915   0.609   1.244   4.713 -0.9897 -0.3597 -0.5718
  301DG     H16 6916   0.763   1.240   4.618  0.0784  0.1110  2.9306
  301DG     C17 6917   0.369   1.418   4.546  0.2109 -0.2527  0.5569
  301DG     C18 6918   0.606   1.353   4.526  0.2213  0.6125  0.0385
  301DG     O19 6919   0.510   1.453   4.546  0.3525  0.3603 -0.5241
  301DG     H20 6920   0.338   1.372   4.453 -0.5413  1.0674  0.1271
  301DG     H21 6921   0.352   1.348   4.628 -0.3712 -0.5667  0.1743
  301DG     H22 6922   0.676   1.398   4.456  1.0122 -0.3779  0.1842
  301DG     H23 6923   0.558   1.266   4.481 -1.6077  1.9452 -0.7148
  302DG      C1 6924   3.614   2.480   2.163  0.1961 -0.0346 -0.3017
  302DG      C2 6925   3.332   2.886   1.916 -0.1793 -0.2476 -0.0287
  302DG      H3 6926   3.525   2.494   2.223  0.9309 -1.6313  1.2926
  302DG      H4 6927   3.701   2.538   2.196  1.0456 -1.3083 -0.2182
  302DG      H5 6928   3.647   2.377   2.183  1.9534  0.3310 -1.0919
  302DG      H6 6929   3.232   2.926   1.925  0.2911  1.0254 -0.2496
  302DG      H7 6930   3.322   2.796   1.976  1.2638 -1.0142 -0.8840
  302DG      H8 6931   3.407   2.951   1.962  2.0924 -0.7303 -2.7454
  302DG      O9 6932   3.576   2.492   2.032  0.3072 -1.0165  0.6668
  302DG     O10 6933   3.356   2.867   1.781  0.2989  0.2289 -0.8379
  302DG     C11 6934   3.470   2.404   1.990 -0.0798  0.6005  0.6742
  302DG     C12 6935   3.296   2.755   1.713  0.0905 -0.3310 -0.3131
  302DG     H13 6936   3.384   2.434   2.050 -0.1951  0.9857  0.3211
  302DG     H14 6937   3.495   2.298   1.990  0.5850  0.6453 -2.9522
  302DG     H15 6938   3.276   2.802   1.616 -1.5131  1.7086  0.9153
  302DG     H16 6939   3.191   2.744   1.743  0.4089  1.8765  1.8872
  302DG     C17 6940   3.431   2.442   1.847  0.1742 -0.1124  0.5341
  302DG     C18 6941   3.369   2.619   1.707  0.6251 -0.4510 -0.3296
  302DG     O19 6942   3.366   2.567   1.840 -0.4252  0.2713 -0.0524
  302DG     H20 6943   3.373   2.355   1.817 -0.4159  1.2478 -2.5871
  302DG     H21 6944   3.517   2.440   1.780 -1.3728 -1.0048 -1.5102
  302DG     H22 6945   3.322   2.557   1.630 -2.6575  0.5662  0.6995
  302DG     H23 6946   3.474   2.623   1.678  0.6903  1.9191  0.0310
  303DG      C1 6947   1.878   0.942   3.602 -0.1804 -0.0745  0.0415
  303DG      C2 6948   2.439   0.304   3.841  0.3471  0.3066  0.5154
  303DG      H3 6949   1.935   0.984   3.520  0.3856  1.0127  0.9574
  303DG      H4 6950   1.797   1.010   3.629 -0.7697 -0.8653  0.3223
  303DG      H5 6951   1.848   0.846   3.560  3.6122 -1.6173  0.4188
  303DG      H6 6952   2.440   0.224   3.768  0.0069 -1.1797  2.0666
  303DG      H7 6953   2.528   0.365   3.826  0.3684  0.2065  0.2305
  303DG      H8 6954   2.453   0.253   3.937 -1.2428  0.1185  0.6741
  303DG      O9 6955   1.965   0.912   3.716 -0.1671 -0.2045 -0.0108
  303DG     O10 6956   2.318   0.384   3.841 -0.1319  0.1466 -0.2364
  303DG     C11 6957   2.066   0.818   3.694  0.0690 -0.1684 -0.3980
  303DG     C12 6958   2.319   0.481   3.944 -0.2567  0.1676 -0.2423
  303DG     H13 6959   2.151   0.880   3.667 -1.4951  1.8587 -0.9099
  303DG     H14 6960   2.052   0.751   3.609  1.5178 -0.3130 -0.5535
  303DG     H15 6961   2.408   0.544   3.940 -0.2492  0.2955  1.2880
  303DG     H16 6962   2.308   0.434   4.042 -1.1174 -2.6797 -1.5917
  303DG     C17 6963   2.091   0.748   3.831  0.2405  0.6533  0.4233
  303DG     C18 6964   2.190   0.564   3.931 -0.2052  0.1516 -1.0745
  303DG     O19 6965   2.184   0.644   3.818  0.6632 -0.1155 -0.1327
  303DG     H20 6966   1.994   0.702   3.851  0.8017 -0.6866  0.1591
  303DG     H21 6967   2.143   0.815   3.900 -0.5672  0.3530  1.3522
  303DG     H22 6968   2.096   0.509   3.932 -0.7250  1.0270 -0.3140
  303DG     H23 6969   2.184   0.631   4.016 -0.8214  1.2690 -1.9646
  304DG      C1 6970   2.472   2.204   0.120 -0.6064 -0.6091  0.0835
  304DG      C2 6971   2.054   2.188  -0.563  0.1623 -0.7995 -0.4485
  304DG      H3 6972   2.417   2.153   0.200 -1.0068 -1.9878 -1.0382
  304DG      H4 6973   2.412   2.293   0.101 -1.8288 -0.9525  1.9900
  304DG      H5 6974   2.569   2.247   0.148 -2.5123  2.6392  2.5073
  304DG      H6 6975   1.958   2.168  -0.610 -0.6732 -0.0054  0.8602
  304DG      H7 6976   2.079   2.292  -0.587 -2.0074  0.0714  0.8068
  304DG      H8 6977   2.125   2.116  -0.605  0.8492  1.0288 -2.6529
  304DG      O9 6978   2.482   2.117   0.010  0.3785  0.4196  0.4955
  304DG     O10 6979   2.028   2.179  -0.425 -0.0173 -0.2856 -0.3992
  304DG     C11 6980   2.542   2.173  -0.108 -0.0194  0.1817  0.0124
  304DG     C12 6981   2.132   2.132  -0.342  0.1986  1.3185 -0.0600
  304DG     H13 6982   2.590   2.093  -0.164  3.1391  3.4272 -2.3705
  304DG     H14 6983   2.621   2.238  -0.071  1.3854  0.6124 -3.4241
  304DG     H15 6984   2.162   2.028  -0.352  0.0834  0.7934  3.5747
  304DG     H16 6985   2.075   2.129  -0.249  0.5132  0.1952  0.1052
  304DG     C17 6986   2.438   2.258  -0.188 -0.3420  0.2897 -0.5615
  304DG     C18 6987   2.259   2.218  -0.340  0.3945  1.1158 -0.0122
  304DG     O19 6988   2.319   2.186  -0.217  0.0511 -0.5349  0.0479
  304DG     H20 6989   2.482   2.286  -0.284  1.7929 -1.3866 -0.1702
  304DG     H21 6990   2.412   2.348  -0.134 -0.9205  0.1193 -0.5490
  304DG     H22 6991   2.330   2.206  -0.422  0.2583 -0.4399  0.0684
  304DG     H23 6992   2.230   2.323  -0.331 -0.6688  1.1264 -2.7338
  305DG      C1 6993   5.392   4.267   3.352 -0.5401  0.1032 -0.4579
  305DG      C2 6994   5.003   4.037   3.454 -0.6530  0.3239 -0.3693
  305DG      H3 6995   5.409   4.262   3.245 -0.9926  2.9459 -0.7353
  305DG      H4 6996   5.316   4.345   3.359 -0.5427 -0.0369  2.6374
  305DG      H5 6997   5.357   4.172   3.393  0.9452 -0.6363 -0.8227
  305DG      H6 6998   4.946   4.129   3.441 -0.4322  0.6851  1.0523
  305DG      H7 6999   5.015   3.990   3.356 -0.8449 -0.9719  0.2174
  305DG      H8 7000   4.943   3.972   3.518 -1.1281  1.8949  0.8483
  305DG      O9 7001   5.512   4.302   3.421 -0.1729 -0.8757 -0.1426
  305DG     O10 7002   5.125   4.074   3.522  0.1606  0.2017  0.0995
  305DG     C11 7003   5.503   4.360   3.550  0.5805 -0.1149 -0.0964
  305DG     C12 7004   5.108   4.129   3.653  0.2092  0.3336 -0.0665
  305DG     H13 7005   5.438   4.448   3.543 -0.7345 -0.7913  2.4536
  305DG     H14 7006   5.598   4.405   3.577  0.8107 -0.9374  0.4962
  305DG     H15 7007   5.066   4.049   3.713 -0.6102  0.2494 -0.7331
  305DG     H16 7008   5.033   4.208   3.653  0.2343  0.3592 -0.2925
  305DG     C17 7009   5.441   4.272   3.654 -0.0918 -0.1906 -0.3212
  305DG     C18 7010   5.232   4.184   3.727  0.2195 -0.5131  0.2100
  305DG     O19 7011   5.299   4.258   3.629  0.3790 -0.3674 -0.5559
  305DG     H20 7012   5.466   4.316   3.751 -0.2323  2.7401 -1.5291
  305DG     H21 7013   5.490   4.174   3.657 -0.7967 -0.5661 -0.7600
  305DG     H22 7014   5.210   4.243   3.816 -1.1482  0.4089 -0.6907
  305DG     H23 7015   5.285   4.099   3.770 -0.9235 -0.5418  1.6480
  306DG      C1 7016   1.053   1.531   0.876 -0.1456 -0.2534 -0.4918
  306DG      C2 7017   0.892   2.165   0.764 -0.1908 -0.4367 -0.6835
  306DG      H3 7018   0.950   1.532   0.911  0.2222 -1.8885  0.7536
  306DG      H4 7019   1.114   1.480   0.950 -0.3293  0.6487  0.3056
  306DG      H5 7020   1.055   1.471   0.785  1.8684 -0.2423 -0.4927
  306DG      H6 7021   0.830   2.160   0.853 -1.6765  0.0053 -1.6604
  306DG      H7 7022   0.915   2.270   0.744 -3.5062  0.7785  1.1906
  306DG      H8 7023   0.829   2.122   0.687 -2.6735 -0.5592  1.2839
  306DG      O9 7024   1.099   1.667   0.847  0.4633  0.7136 -0.1306
  306DG     O10 7025   1.010   2.100   0.793 -0.5796  0.0797 -0.2940
  306DG     C11 7026   1.235   1.679   0.823 -0.5084  0.1288  0.1173
  306DG     C12 7027   1.120   2.132   0.696  0.4056  0.1885 -0.0115
  306DG     H13 7028   1.270   1.611   0.746 -0.4146  0.9925 -0.6098
  306DG     H14 7029   1.282   1.636   0.912  1.3860 -0.3191 -1.0613
  306DG     H15 7030   1.137   2.240   0.703 -0.5960  0.4557 -1.3522
  306DG     H16 7031   1.086   2.114   0.595 -0.2792  0.0260  0.2440
  306DG     C17 7032   1.284   1.829   0.807  0.3103  0.3540 -0.4459
  306DG     C18 7033   1.239   2.043   0.728 -0.0008 -0.0165  0.4625
  306DG     O19 7034   1.190   1.916   0.744 -0.2853  0.1176 -0.2184
  306DG     H20 7035   1.380   1.824   0.755  0.3255 -1.1809 -0.3081
  306DG     H21 7036   1.300   1.861   0.910 -0.4619 -1.6137  0.3348
  306DG     H22 7037   1.308   2.038   0.644 -1.7363 -0.4585 -1.0275
  306DG     H23 7038   1.294   2.093   0.807  0.4083  0.8123 -0.3155
  307DG      C1 7039   0.326   4.388   2.541  0.9867 -0.1711 -0.3926
  307DG      C2 7040   0.321   4.161   2.115 -0.1111 -0.1340 -0.7394
  307DG      H3 7041   0.409   4.458   2.540 -1.2499  2.6752 -0.1455
  307DG      H4 7042   0.275   4.397   2.445  2.1110  1.5285 -0.8717
  307DG      H5 7043   0.368   4.288   2.546 -1.0997 -1.0533  0.8959
  307DG      H6 7044   0.250   4.179   2.035  0.1282 -2.5872 -1.5986
  307DG      H7 7045   0.408   4.221   2.089  0.7292 -0.5460  0.9712
  307DG      H8 7046   0.355   4.057   2.110  0.4253 -0.0112  0.0690
  307DG      O9 7047   0.240   4.413   2.652  0.1021 -0.2166 -0.3918
  307DG     O10 7048   0.269   4.188   2.247  0.0181 -0.1793  0.0564
  307DG     C11 7049   0.146   4.304   2.671 -0.8239 -0.1610 -0.5038
  307DG     C12 7050   0.136   4.128   2.261  0.4069  0.1691 -0.3145
  307DG     H13 7051   0.103   4.332   2.767 -2.1831 -0.6181 -0.9664
  307DG     H14 7052   0.201   4.212   2.689  1.4716  1.1757 -0.2445
  307DG     H15 7053   0.126   4.021   2.241 -1.5311  0.2527  0.0857
  307DG     H16 7054   0.055   4.174   2.205  1.0830  2.3875  0.4326
  307DG     C17 7055   0.019   4.294   2.583  0.0762 -0.1450  0.4276
  307DG     C18 7056   0.093   4.135   2.412  0.3560  0.4721 -0.1496
  307DG     O19 7057   0.069   4.272   2.455  0.2230  0.0960 -0.3336
  307DG     H20 7058  -0.032   4.390   2.574 -0.1928 -0.4468 -1.7913
  307DG     H21 7059  -0.054   4.216   2.604 -0.0399 -0.4587 -1.0437
  307DG     H22 7060   0.001   4.079   2.430 -0.2142  1.7259  1.0848
  307DG     H23 7061   0.171   4.097   2.478 -0.2906 -0.7043 -0.0361
  308DG      C1 7062   0.622   0.938   5.494  0.9179  0.4119 -0.3415
  308DG      C2 7063   0.070   0.768   5.192 -0.2594  0.1134 -0.7935
  308DG      H3 7064   0.705   0.999   5.458  0.0301  0.6477 -2.1317
  308DG      H4 7065   0.661   0.870   5.569  1.2757  0.0558 -0.8459
  308DG      H5 7066   0.549   1.005   5.540 -0.3657 -0.1728 -1.4479
  308DG      H6 7067   0.059   0.783   5.085  0.1025  1.5677 -0.6535
  308DG      H7 7068   0.000   0.698   5.238 -1.7327  3.0104  1.6874
  308DG      H8 7069   0.052   0.863   5.242 -1.4181 -0.3059 -0.3926
  308DG      O9 7070   0.565   0.869   5.381 -0.0107  1.2606  0.0723
  308DG     O10 7071   0.207   0.745   5.217 -0.3809 -0.4240 -0.3726
  308DG     C11 7072   0.653   0.766   5.322 -0.2081  0.2432  1.2049
  308DG     C12 7073   0.257   0.607   5.190  0.2960 -0.3098 -0.3404
  308DG     H13 7074   0.657   0.680   5.389  1.0387  0.0473  0.9104
  308DG     H14 7075   0.752   0.810   5.309  0.9014 -2.2991  0.4858
  308DG     H15 7076   0.235   0.575   5.089  1.2522 -1.6067 -0.1644
  308DG     H16 7077   0.200   0.534   5.248  0.6706  0.1304  0.6215
  308DG     C17 7078   0.604   0.714   5.188  0.1098 -0.2582 -0.1313
  308DG     C18 7079   0.407   0.596   5.223  0.0786 -0.4205 -0.1353
  308DG     O19 7080   0.467   0.714   5.180  0.4988 -0.1698  0.5020
  308DG     H20 7081   0.648   0.620   5.155  1.4530  0.8892 -1.8193
  308DG     H21 7082   0.645   0.782   5.112  2.7465  0.0711  1.4477
  308DG     H22 7083   0.423   0.589   5.331  2.2484 -0.2078 -0.3893
  308DG     H23 7084   0.445   0.507   5.172 -0.2687 -0.1953 -0.7880
  309DG      C1 7085   2.508   3.942   0.609  0.0389  0.4213  0.0900
  309DG      C2 7086   1.848   4.462   0.554  0.1715  0.4408  0.3261
  309DG      H3 7087   2.490   3.861   0.679  1.6633 -1.3164 -1.3907
  309DG      H4 7088   2.613   3.971   0.603  0.5600 -1.3798 -0.1163
  309DG      H5 7089   2.474   3.897   0.515 -1.7230 -0.0262  0.9048
  309DG      H6 7090   1.789   4.554   0.555 -1.3836 -0.4593 -1.9417
  309DG      H7 7091   1.842   4.411   0.458 -1.5825  0.2488  0.5010
  309DG      H8 7092   1.796   4.402   0.629 -1.2797  0.3830 -0.6959
  309DG      O9 7093   2.418   4.051   0.633  0.4154 -0.7145  0.4684
  309DG     O10 7094   1.987   4.482   0.580 -0.1016  0.1548 -0.2563
  309DG     C11 7095   2.449   4.138   0.742  0.3877  1.0504  0.4230
  309DG     C12 7096   2.042   4.359   0.633 -0.0412  0.0842 -0.0633
  309DG     H13 7097   2.558   4.136   0.749  0.4704  0.0737 -0.8191
  309DG     H14 7098   2.410   4.105   0.838  2.4890 -1.8559  0.4034
  309DG     H15 7099   2.057   4.270   0.571  0.7420  0.4396 -0.4062
  309DG     H16 7100   1.986   4.320   0.718  0.9690  1.3800  1.2436
  309DG     C17 7101   2.394   4.278   0.726  0.1262  0.0499  0.3754
  309DG     C18 7102   2.188   4.394   0.669 -0.0057  0.1707  0.3455
  309DG     O19 7103   2.257   4.270   0.688 -0.0676  0.1084  0.0924
  309DG     H20 7104   2.458   4.316   0.646 -0.4727 -3.2360 -1.8413
  309DG     H21 7105   2.411   4.339   0.816  0.0820  0.9670 -0.2242
  309DG     H22 7106   2.240   4.435   0.582  0.1595 -1.9377 -0.5987
  309DG     H23 7107   2.194   4.456   0.759  0.2149 -0.6619  0.9082
  310DG      C1 7108   2.601   3.667   0.962 -0.3645  0.0112 -0.2419
  310DG      C2 7109   2.846   3.381   1.335  0.7191  0.0500  0.6261
  310DG      H3 7110   2.648   3.620   1.048  1.9577  3.6301  0.6719
  310DG      H4 7111   2.670   3.748   0.936  1.7176 -1.5906  0.0616
  310DG      H5 7112   2.590   3.592   0.883  0.4003  0.2291 -0.5577
  310DG      H6 7113   2.945   3.405   1.373  1.7256 -0.6810 -1.3919
  310DG      H7 7114   2.791   3.326   1.411 -2.0392 -0.4812 -1.5682
  310DG      H8 7115   2.847   3.325   1.241 -1.7004  1.9306 -0.6528
  310DG      O9 7116   2.476   3.725   0.981 -0.3356 -0.3203 -0.2962
  310DG     O10 7117   2.777   3.509   1.301  0.0444 -0.1908 -0.4361
  310DG     C11 7118   2.471   3.805   1.101 -0.0488  0.0681 -0.1029
  310DG     C12 7119   2.755   3.596   1.415 -0.3288 -0.6525  0.1919
  310DG     H13 7120   2.373   3.852   1.101  0.5453  1.5319 -3.3928
  310DG     H14 7121   2.548   3.882   1.105 -2.0303  2.1113  0.2958
  310DG     H15 7122   2.821   3.682   1.427 -1.4537  0.1905  0.4826
  310DG     H16 7123   2.790   3.545   1.504  0.3247 -1.8643 -0.7192
  310DG     C17 7124   2.477   3.733   1.236  0.2742  0.1902  0.1436
  310DG     C18 7125   2.613   3.645   1.406 -0.3395 -0.5396  0.2477
  310DG     O19 7126   2.606   3.711   1.280 -0.3572  0.5082 -0.4084
  310DG     H20 7127   2.416   3.643   1.230 -1.9307  1.6061  0.2425
  310DG     H21 7128   2.437   3.794   1.317  1.5458  1.0611  0.1347
  310DG     H22 7129   2.550   3.556   1.400  1.8132 -2.1334  0.1287
  310DG     H23 7130   2.594   3.709   1.492  3.6075  2.0226 -0.5543
  311DG      C1 7131   4.849   5.044   2.335 -0.4136 -0.3819 -0.0653
  311DG      C2 7132   4.415   5.234   1.821  0.7993 -0.0110 -1.1676
  311DG      H3 7133   4.837   4.935   2.333  0.2558 -0.4508 -1.4817
  311DG      H4 7134   4.894   5.069   2.431  1.3521 -0.7648 -0.7542
  311DG      H5 7135   4.921   5.071   2.258 -1.2912  0.6910 -0.5503
  311DG      H6 7136   4.468   5.162   1.759  2.8184  0.8605 -0.5433
  311DG      H7 7137   4.309   5.211   1.807 -0.1591  2.0340  1.7294
  311DG      H8 7138   4.438   5.337   1.792 -0.4703 -0.1695 -2.9144
  311DG      O9 7139   4.731   5.122   2.314  0.0240 -0.6923  0.1759
  311DG     O10 7140   4.450   5.225   1.964  0.1925 -0.3735  0.0418
  311DG     C11 7141   4.622   5.094   2.400  0.3372 -0.2109  0.2057
  311DG     C12 7142   4.387   5.325   2.043  0.2792  0.0160  0.3051
  311DG     H13 7143   4.645   5.086   2.506  0.5587 -0.7962  0.1178
  311DG     H14 7144   4.582   5.000   2.364  0.5448 -0.6896  1.2001
  311DG     H15 7145   4.285   5.342   2.010  0.7628  0.5804 -0.9428
  311DG     H16 7146   4.437   5.421   2.028 -1.2182  0.5207 -1.9341
  311DG     C17 7147   4.519   5.201   2.372 -0.1675 -0.1888  0.6799
  311DG     C18 7148   4.392   5.299   2.192  0.4575 -0.3435 -0.6984
  311DG     O19 7149   4.481   5.188   2.234  0.4956  0.8131  0.4650
  311DG     H20 7150   4.563   5.300   2.386  1.5961 -0.8770  0.3897
  311DG     H21 7151   4.430   5.179   2.431 -0.5057 -1.5459 -0.2958
  311DG     H22 7152   4.411   5.392   2.245  0.8747  0.3428 -1.9952
  311DG     H23 7153   4.294   5.261   2.221  0.8151 -0.9041 -0.2058
  312DG      C1 7154   0.402   0.047   0.123  0.1037 -0.5887 -0.5174
  312DG      C2 7155   0.679   0.558   0.787  0.4236  0.8017 -1.3816
  312DG      H3 7156   0.453  -0.049   0.115  0.6499 -0.4975  1.4740
  312DG      H4 7157   0.451   0.114   0.052 -0.0016  1.0489  0.9027
  312DG      H5 7158   0.301   0.028   0.086  0.4273 -1.0470 -1.1908
  312DG      H6 7159   0.681   0.662   0.817 -1.2798  0.0025  1.8882
  312DG      H7 7160   0.578   0.517   0.778  0.9712 -0.5176 -1.7121
  312DG      H8 7161   0.724   0.508   0.872  0.7804  4.1123  0.5397
  312DG      O9 7162   0.411   0.114   0.249  0.0253  0.3214  0.3159
  312DG     O10 7163   0.777   0.540   0.684  0.2497 -0.1005  0.3978
  312DG     C11 7164   0.541   0.135   0.289 -0.0455 -0.5693 -0.4050
  312DG     C12 7165   0.777   0.422   0.619  0.1997  1.1723 -0.1405
  312DG     H13 7166   0.611   0.141   0.206  0.8404  1.2234  0.4279
  312DG     H14 7167   0.569   0.048   0.349 -0.1577 -0.1533  0.2579
  312DG     H15 7168   0.780   0.345   0.695 -0.8702  0.8982 -0.3494
  312DG     H16 7169   0.870   0.418   0.563  0.0449 -1.7387 -0.3251
  312DG     C17 7170   0.552   0.259   0.367  0.1009 -1.1089  0.0599
  312DG     C18 7171   0.655   0.402   0.526 -0.0728  0.4068  0.1802
  312DG     O19 7172   0.669   0.279   0.448 -0.2348  0.1468  0.2996
  312DG     H20 7173   0.465   0.266   0.432  0.8620  1.7046  0.9186
  312DG     H21 7174   0.545   0.341   0.295  2.8983 -0.0923  0.8234
  312DG     H22 7175   0.558   0.413   0.573  0.4936 -1.5560  1.9476
  312DG     H23 7176   0.652   0.483   0.453  0.5886  0.9736  0.7688
  313DG      C1 7177   3.856   2.485   0.830 -0.6480 -0.3017 -0.5679
  313DG      C2 7178   3.445   3.244   0.677  0.0913  0.4959  0.0803
  313DG      H3 7179   3.809   2.471   0.733  1.7852 -1.4872 -1.6691
  313DG      H4 7180   3.867   2.389   0.879 -0.4606  0.0671  0.1298
  313DG      H5 7181   3.955   2.521   0.803 -0.4882  0.2733  0.6915
  313DG      H6 7182   3.501   3.217   0.587 -1.3812 -0.9373 -0.4571
  313DG      H7 7183   3.337   3.252   0.668  0.0185  0.8111  1.1224
  313DG      H8 7184   3.482   3.342   0.705 -0.2832  0.3248  1.2253
  313DG      O9 7185   3.780   2.578   0.904 -0.5932  0.4249 -0.4593
  313DG     O10 7186   3.479   3.135   0.768 -0.1023 -0.6051 -0.0948
  313DG     C11 7187   3.750   2.699   0.833  0.1424 -0.4728 -0.3644
  313DG     C12 7188   3.400   3.019   0.749  0.3256  0.8615 -0.6972
  313DG     H13 7189   3.708   2.668   0.737 -1.3215  0.4328 -0.0443
  313DG     H14 7190   3.838   2.759   0.808  0.2325 -0.7388 -0.7005
  313DG     H15 7191   3.391   2.989   0.645 -0.2549  0.1814 -0.4588
  313DG     H16 7192   3.299   3.024   0.791  0.5763  1.1056 -0.1079
  313DG     C17 7193   3.645   2.774   0.911  0.8042  0.7017 -0.6399
  313DG     C18 7194   3.451   2.905   0.840  0.2862 -0.1737 -0.8242
  313DG     O19 7195   3.588   2.862   0.816 -0.1695 -0.4975 -0.0845
  313DG     H20 7196   3.681   2.839   0.992  0.4021 -2.8048  2.6612
  313DG     H21 7197   3.578   2.703   0.960  0.6598  1.1763 -0.1279
  313DG     H22 7198   3.440   2.931   0.945  1.1895  1.0424 -1.0068
  313DG     H23 7199   3.393   2.814   0.825  2.1474 -1.9415  1.8417
  314DG      C1 7200   1.235   2.901   4.402 -0.0614 -0.7632 -0.0855
  314DG      C2 7201   0.958   2.676   5.198 -0.4836 -0.4809 -0.2572
  314DG      H3 7202   1.298   2.955   4.330 -0.0824 -0.5582  0.0516
  314DG      H4 7203   1.152   2.862   4.343  0.4213 -1.2648 -0.4402
  314DG      H5 7204   1.305   2.829   4.443  0.9903 -0.3570 -1.0893
  314DG      H6 7205   0.850   2.664   5.185 -0.4411  0.2260 -1.3217
  314DG      H7 7206   0.993   2.573   5.206  0.0233 -0.3215 -0.4209
  314DG      H8 7207   0.977   2.726   5.293 -0.1539 -2.2445  0.6460
  314DG      O9 7208   1.175   2.977   4.509  0.0941 -0.7769  0.2420
  314DG     O10 7209   1.028   2.749   5.102 -0.1564  0.4013  0.6374
  314DG     C11 7210   1.132   2.896   4.616  0.3281 -0.6704 -0.4510
  314DG     C12 7211   0.975   2.879   5.082 -0.1655 -0.5684 -0.3221
  314DG     H13 7212   1.199   2.817   4.652 -1.0925 -1.7235 -0.0446
  314DG     H14 7213   1.039   2.853   4.581  0.3928 -2.0773  0.9964
  314DG     H15 7214   0.960   2.934   5.175 -2.7755 -2.8567  0.7345
  314DG     H16 7215   0.874   2.874   5.042 -0.3204 -1.6324  0.1900
  314DG     C17 7216   1.104   2.980   4.748 -0.5097 -0.4477  0.1520
  314DG     C18 7217   1.044   2.976   4.981  0.1890 -0.0022  0.2390
  314DG     O19 7218   1.069   2.907   4.863 -0.0083 -0.6366 -0.6233
  314DG     H20 7219   1.022   3.049   4.724  0.6019  0.5772 -0.8161
  314DG     H21 7220   1.181   3.053   4.771 -3.1864  2.0709  1.8196
  314DG     H22 7221   0.970   3.054   4.971  0.1706  0.2594  2.1334
  314DG     H23 7222   1.137   3.015   5.023 -0.9373 -0.6758  3.6203
  315DG      C1 7223   2.418   4.277   3.052  0.2691  0.1328  0.1391
  315DG      C2 7224   2.858   4.716   2.939 -0.8850  0.2617  0.3264
  315DG      H3 7225   2.371   4.374   3.066  0.7490  0.2430  1.0791
  315DG      H4 7226   2.354   4.204   3.102  2.2070 -1.8260 -0.0819
  315DG      H5 7227   2.409   4.249   2.947  2.6673 -0.6464  0.0944
  315DG      H6 7228   2.827   4.806   2.991  1.9668  2.5123 -1.5236
  315DG      H7 7229   2.959   4.745   2.910 -1.6390 -0.5279 -3.8504
  315DG      H8 7230   2.798   4.703   2.849 -1.0323  0.0449  0.4554
  315DG      O9 7231   2.553   4.276   3.095 -0.2862 -0.4891 -0.3183
  315DG     O10 7232   2.849   4.601   3.010  0.1999  0.5926 -0.2198
  315DG     C11 7233   2.568   4.294   3.231  0.1351 -0.1539  0.1648
  315DG     C12 7234   2.909   4.602   3.144 -0.4549  0.8393  0.2648
  315DG     H13 7235   2.523   4.207   3.281 -2.9278  0.8365 -0.6626
  315DG     H14 7236   2.508   4.379   3.263  2.6081  1.7776 -0.0354
  315DG     H15 7237   2.856   4.675   3.206 -1.5127  0.1950  0.1421
  315DG     H16 7238   3.012   4.637   3.140  0.0172 -0.4736  0.5352
  315DG     C17 7239   2.712   4.321   3.263 -0.2462  0.5293 -0.3702
  315DG     C18 7240   2.893   4.469   3.216 -0.5035  0.1943  0.2932
  315DG     O19 7241   2.768   4.418   3.178  0.0581  0.1637 -0.3280
  315DG     H20 7242   2.758   4.224   3.243  1.4712  1.0898  0.5706
  315DG     H21 7243   2.717   4.350   3.368  2.8013 -3.4987  0.8629
  315DG     H22 7244   2.973   4.400   3.190 -0.9635  0.3772 -1.7135
  315DG     H23 7245   2.893   4.481   3.325  2.6156 -1.3950  0.5868
  316DG      C1 7246   2.470   0.296   0.231  0.7257  0.0182 -0.2317
  316DG      C2 7247   2.066  -0.088   0.646  0.2859 -0.8291  0.0754
  316DG      H3 7248   2.542   0.376   0.245 -0.3985  0.9406  0.4412
  316DG      H4 7249   2.387   0.326   0.168  0.4658 -0.9855 -0.3902
  316DG      H5 7250   2.525   0.215   0.184  1.6668  0.8022 -0.5079
  316DG      H6 7251   2.045  -0.160   0.726 -1.0888 -0.0148  0.4780
  316DG      H7 7252   1.972  -0.033   0.640 -0.1065 -1.3505  1.1387
  316DG      H8 7253   2.095  -0.130   0.550  2.1074  0.5178 -0.0076
  316DG      O9 7254   2.429   0.259   0.369  0.2470  0.8162  0.7296
  316DG     O10 7255   2.173  -0.002   0.669 -0.1506  0.7311  0.2831
  316DG     C11 7256   2.547   0.233   0.447  0.1099  0.1136 -0.3275
  316DG     C12 7257   2.290  -0.073   0.710  0.4220  1.0096  0.1597
  316DG     H13 7258   2.614   0.319   0.453  0.6174 -0.2167 -1.2550
  316DG     H14 7259   2.606   0.158   0.396 -0.9991 -2.0519  1.3690
  316DG     H15 7260   2.340  -0.131   0.632  0.6880  0.3034  0.8393
  316DG     H16 7261   2.289  -0.136   0.799 -1.3895  0.8311  0.0533
  316DG     C17 7262   2.507   0.179   0.592 -0.3289 -0.1773  0.3501
  316DG     C18 7263   2.386   0.036   0.734 -0.4284  0.1758  0.2012
  316DG     O19 7264   2.418   0.075   0.603  0.5188  0.3668  0.0348
  316DG     H20 7265   2.464   0.260   0.650  2.0270  0.5974  1.1049
  316DG     H21 7266   2.594   0.145   0.649  0.1364 -0.8109 -0.7014
  316DG     H22 7267   2.340   0.116   0.791 -1.9311 -0.1452 -0.5089
  316DG     H23 7268   2.473   0.000   0.789 -1.3184 -1.1401  0.8256
  317DG      C1 7269   0.690   2.554   4.191 -0.5568  0.0299  1.2962
  317DG      C2 7270   0.706   3.036   4.760 -0.4267 -0.5063  0.7239
  317DG      H3 7271   0.798   2.566   4.181 -0.7248  0.9569  0.3822
  317DG      H4 7272   0.646   2.640   4.139 -3.7060 -0.5390  2.8100
  317DG      H5 7273   0.647   2.465   4.145  1.4125  0.6315 -2.0763
  317DG      H6 7274   0.659   3.074   4.850 -0.3466  3.5225 -0.7204
  317DG      H7 7275   0.814   3.037   4.771 -0.4438 -0.9145  0.9579
  317DG      H8 7276   0.671   3.095   4.675 -1.0203 -0.4805  0.9847
  317DG      O9 7277   0.666   2.570   4.327 -0.5750  0.0849 -0.1338
  317DG     O10 7278   0.662   2.909   4.712 -0.7968  0.9774  0.2744
  317DG     C11 7279   0.713   2.478   4.422 -0.2170 -0.5918 -0.0287
  317DG     C12 7280   0.702   2.800   4.790 -0.5602  0.8463 -0.0473
  317DG     H13 7281   0.819   2.495   4.402 -0.7902 -0.3558 -3.6073
  317DG     H14 7282   0.687   2.377   4.391  0.2783 -0.6359 -0.3238
  317DG     H15 7283   0.687   2.825   4.895  1.2289  0.2950  0.3781
  317DG     H16 7284   0.809   2.783   4.776 -0.6809  0.9826 -1.2510
  317DG     C17 7285   0.659   2.497   4.564  0.4221 -0.0482  0.3547
  317DG     C18 7286   0.637   2.667   4.739  0.2787 -0.2762 -0.4042
  317DG     O19 7287   0.675   2.635   4.604  0.2381  0.1184  0.2439
  317DG     H20 7288   0.722   2.438   4.630  0.9982 -1.4101 -1.3445
  317DG     H21 7289   0.558   2.465   4.589  0.2055  0.6847  0.4341
  317DG     H22 7290   0.678   2.591   4.806  0.8811  1.0694  0.8035
  317DG     H23 7291   0.528   2.670   4.744  0.2199 -1.2447 -0.7995
  318DG      C1 7292   1.767   4.689   5.393 -1.0579  0.4999  0.2541
  318DG      C2 7293   2.370   4.533   5.615  0.3109 -0.7096  0.4808
  318DG      H3 7294   1.800   4.770   5.458 -0.8867  0.0670  0.7144
  318DG      H4 7295   1.659   4.697   5.378 -0.7939  2.9642 -0.8762
  318DG      H5 7296   1.799   4.714   5.292 -1.1567 -0.5468 -0.0467
  318DG      H6 7297   2.418   4.626   5.646  0.2637 -0.4015 -0.3660
  318DG      H7 7298   2.415   4.447   5.665  0.4824 -0.3170  1.0144
  318DG      H8 7299   2.381   4.511   5.509  2.1059  0.7442  0.3112
  318DG      O9 7300   1.814   4.553   5.437 -0.0854 -0.0410 -0.4558
  318DG     O10 7301   2.235   4.552   5.629 -0.4530 -0.1368 -0.5715
  318DG     C11 7302   1.755   4.527   5.563  0.4604 -0.1935 -0.1390
  318DG     C12 7303   2.193   4.588   5.766  0.5441  0.8856 -0.0494
  318DG     H13 7304   1.766   4.418   5.564 -0.3407 -0.2745  0.2676
  318DG     H14 7305   1.647   4.542   5.572  0.5170 -0.7784  1.9884
  318DG     H15 7306   2.269   4.649   5.815  0.0342  2.1821 -0.8272
  318DG     H16 7307   2.202   4.488   5.809 -2.1989  1.0172  1.0709
  318DG     C17 7308   1.832   4.600   5.680  0.0118 -1.5487  0.7572
  318DG     C18 7309   2.045   4.637   5.763  0.0924  0.3807  0.0826
  318DG     O19 7310   1.963   4.552   5.678  0.0724  0.7058 -0.1049
  318DG     H20 7311   1.793   4.577   5.779  0.5375 -1.6824  0.9382
  318DG     H21 7312   1.821   4.707   5.664 -2.5658 -1.9148 -0.3492
  318DG     H22 7313   2.010   4.645   5.866  0.4774  1.0488  0.1633
  318DG     H23 7314   2.048   4.739   5.727 -0.5422  0.9222  1.5120
  319DG      C1 7315   1.912   0.534   0.962  0.4105  0.3510  0.1169
  319DG      C2 7316   2.508   0.939   0.789 -0.3906  0.4771  0.1928
  319DG      H3 7317   1.894   0.457   1.038 -2.0637  0.1570 -0.5856
  319DG      H4 7318   1.819   0.564   0.914  1.1516 -1.0283 -2.3366
  319DG      H5 7319   1.959   0.617   1.016 -0.8966  0.5073  1.0519
  319DG      H6 7320   2.462   1.008   0.719 -3.4310 -1.2855  0.2838
  319DG      H7 7321   2.520   0.991   0.884 -1.4713 -0.2437  0.7450
  319DG      H8 7322   2.607   0.911   0.754  0.2222  1.3877  1.1365
  319DG      O9 7323   1.999   0.476   0.869  0.0689  1.0162 -0.4311
  319DG     O10 7324   2.428   0.828   0.809  0.7387  0.0058 -0.0688
  319DG     C11 7325   2.112   0.432   0.937 -0.4340 -0.0867  0.3806
  319DG     C12 7326   2.400   0.753   0.698 -0.1641  0.3119  0.7116
  319DG     H13 7327   2.086   0.331   0.972 -1.0905 -0.3127 -0.7391
  319DG     H14 7328   2.130   0.486   1.030 -0.2016  1.1453 -0.3571
  319DG     H15 7329   2.492   0.748   0.640  1.8173 -2.1268  3.6722
  319DG     H16 7330   2.329   0.807   0.636 -0.1043 -0.9266 -0.4887
  319DG     C17 7331   2.231   0.448   0.841  0.3446  0.2427 -0.3559
  319DG     C18 7332   2.377   0.606   0.728  0.1187 -0.4340 -0.3577
  319DG     O19 7333   2.259   0.584   0.811 -0.3548 -0.0213  0.4260
  319DG     H20 7334   2.203   0.383   0.757  0.6830 -1.9369  1.1370
  319DG     H21 7335   2.319   0.403   0.886  1.1182  2.2353  0.2127
  319DG     H22 7336   2.362   0.551   0.636 -0.2859  0.7062 -0.9935
  319DG     H23 7337   2.454   0.551   0.782  0.4131 -1.0015 -1.3371
  320DG      C1 7338   3.612   1.140   4.580  0.6003  0.0732 -0.4115
  320DG      C2 7339   3.117   1.612   4.772 -0.7174  0.5702 -0.4885
  320DG      H3 7340   3.705   1.167   4.529  0.8373 -0.7410 -0.4293
  320DG      H4 7341   3.531   1.128   4.508 -0.4627 -0.9155  0.9063
  320DG      H5 7342   3.638   1.044   4.625 -0.0205 -0.8670 -1.9881
  320DG      H6 7343   3.032   1.566   4.822 -1.6218 -0.3191 -2.7377
  320DG      H7 7344   3.132   1.718   4.793 -0.9191  0.4328  0.4017
  320DG      H8 7345   3.095   1.610   4.665 -0.9196 -0.7930 -0.4427
  320DG      O9 7346   3.561   1.240   4.668  0.9993 -0.2841 -0.1910
  320DG     O10 7347   3.238   1.543   4.796 -0.1513  0.4429 -0.5170
  320DG     C11 7348   3.584   1.214   4.801  0.1789 -0.2008 -0.2653
  320DG     C12 7349   3.257   1.529   4.935  0.3508 -0.3279 -0.3255
  320DG     H13 7350   3.681   1.164   4.811 -0.5487 -1.7081 -0.5307
  320DG     H14 7351   3.507   1.152   4.845 -1.9057  3.4315  1.6811
  320DG     H15 7352   3.189   1.459   4.984  0.5598  0.9939  1.9532
  320DG     H16 7353   3.234   1.618   4.994 -2.0645  0.7921 -2.7407
  320DG     C17 7354   3.569   1.340   4.887 -0.0397  0.1017  0.5416
  320DG     C18 7355   3.401   1.495   4.948 -0.3252 -0.1229  0.7012
  320DG     O19 7356   3.440   1.389   4.863  0.0737  0.6789  0.1969
  320DG     H20 7357   3.646   1.410   4.856 -0.4881  0.2296 -0.3188
  320DG     H21 7358   3.580   1.307   4.991 -1.4484 -4.6595 -0.5586
  320DG     H22 7359   3.454   1.583   4.912 -0.3209  0.1919  1.4629
  320DG     H23 7360   3.418   1.470   5.052 -1.2174 -0.3111  0.8129
  321DG      C1 7361   1.165   1.185   1.433  0.1933  0.1918 -0.4600
  321DG      C2 7362   1.002   1.280   2.018 -0.8539 -0.6892 -0.7517
  321DG      H3 7363   1.186   1.224   1.334 -0.1276  0.0644 -0.5793
  321DG      H4 7364   1.059   1.189   1.457  0.4065  1.4013  0.3681
  321DG      H5 7365   1.192   1.079   1.439 -3.8114 -0.9305  0.9113
  321DG      H6 7366   1.021   1.295   2.124  1.9552 -0.0822 -1.2552
  321DG      H7 7367   0.900   1.302   1.988 -1.1700 -0.9655  0.0843
  321DG      H8 7368   1.007   1.171   2.011  0.8711 -0.7341  0.7039
  321DG      O9 7369   1.222   1.257   1.538 -0.6086  0.0739 -0.0729
  321DG     O10 7370   1.106   1.334   1.938  0.1435 -0.7893 -0.0001
  321DG     C11 7371   1.249   1.392   1.509  0.1581  0.3234 -0.0266
  321DG     C12 7372   1.140   1.466   1.967 -0.1424 -0.8804 -0.0140
  321DG     H13 7373   1.157   1.443   1.483 -0.4519  0.8685  2.8074
  321DG     H14 7374   1.318   1.403   1.425  1.7824  0.0606  1.2082
  321DG     H15 7375   1.181   1.482   2.067 -0.0065  2.9509 -0.5072
  321DG     H16 7376   1.054   1.532   1.953 -1.8461 -2.9640  0.2065
  321DG     C17 7377   1.303   1.461   1.635  0.1121 -0.7406 -1.5480
  321DG     C18 7378   1.239   1.520   1.864 -0.2563  0.0610  0.2252
  321DG     O19 7379   1.209   1.454   1.744  0.0762 -0.0841 -0.2167
  321DG     H20 7380   1.336   1.563   1.612  1.0396 -0.7213 -0.2349
  321DG     H21 7381   1.398   1.417   1.666  1.0875  1.8721 -0.5035
  321DG     H22 7382   1.255   1.628   1.867  2.2512 -0.2341  0.0934
  321DG     H23 7383   1.338   1.486   1.895  0.5067  2.7556  1.0342
  322DG      C1 7384   0.966   2.914   3.764  0.2862  0.2207 -0.1474
  322DG      C2 7385   0.144   2.457   3.777 -0.4625 -0.0159  0.6144
  322DG      H3 7386   0.900   2.955   3.840 -0.8021 -1.3151 -0.2150
  322DG      H4 7387   0.956   2.963   3.667 -0.8398 -1.6437 -1.0470
  322DG      H5 7388   1.068   2.913   3.803 -0.0775 -0.2527  0.8235
  322DG      H6 7389   0.152   2.460   3.886 -0.8826 -1.4893  0.7130
  322DG      H7 7390   0.092   2.548   3.748  0.0980  0.9347  2.4422
  322DG      H8 7391   0.084   2.367   3.762 -1.4054  0.6741  0.1200
  322DG      O9 7392   0.916   2.782   3.732  0.3069  0.0547  0.7673
  322DG     O10 7393   0.273   2.444   3.718 -0.5196 -0.1059  0.1567
  322DG     C11 7394   0.774   2.775   3.741 -0.5972  0.4070  0.4886
  322DG     C12 7395   0.367   2.531   3.784  0.1933  0.0495  0.2444
  322DG     H13 7396   0.744   2.843   3.662 -0.6482  1.4069  1.3332
  322DG     H14 7397   0.746   2.810   3.841 -0.5037 -0.3283  0.7789
  322DG     H15 7398   0.370   2.521   3.892  0.2780  0.7276  0.3131
  322DG     H16 7399   0.326   2.628   3.755  0.2793 -0.0786 -0.3257
  322DG     C17 7400   0.726   2.628   3.723  0.2736 -0.4290 -0.4879
  322DG     C18 7401   0.518   2.513   3.737  0.3508  0.2486 -0.8299
  322DG     O19 7402   0.597   2.627   3.777  0.0708  0.4235  0.2958
  322DG     H20 7403   0.790   2.555   3.771  1.9262  2.0735  1.3689
  322DG     H21 7404   0.729   2.605   3.616  2.6477 -1.0278 -0.3420
  322DG     H22 7405   0.561   2.421   3.777  0.2115  1.0118  1.2114
  322DG     H23 7406   0.515   2.503   3.629 -0.8373  0.0781 -0.7971
  323DG      C1 7407   2.431   4.132   0.279 -0.1202  0.0525  0.1008
  323DG      C2 7408   2.719   4.498  -0.105  0.1553 -1.0958 -0.2531
  323DG      H3 7409   2.499   4.060   0.324  0.7193  0.6830 -0.1256
  323DG      H4 7410   2.341   4.073   0.268  0.0640 -0.2206  0.0609
  323DG      H5 7411   2.430   4.224   0.338  1.9593  0.4316 -0.3534
  323DG      H6 7412   2.753   4.566  -0.183  0.3661 -2.3341 -1.2693
  323DG      H7 7413   2.612   4.514  -0.087  0.4453 -1.6222  2.2616
  323DG      H8 7414   2.764   4.536  -0.013 -2.0859 -1.1548  0.9433
  323DG      O9 7415   2.473   4.178   0.150  0.0042 -0.3734 -0.3161
  323DG     O10 7416   2.755   4.369  -0.142  0.3526  0.0112 -0.0918
  323DG     C11 7417   2.463   4.077   0.047  0.6252  0.1604 -0.1369
  323DG     C12 7418   2.674   4.320  -0.248 -0.0730 -0.1891 -0.1482
  323DG     H13 7419   2.359   4.046   0.054  1.3834 -2.3600  1.1644
  323DG     H14 7420   2.524   3.992   0.078  2.2076  1.5052  0.6457
  323DG     H15 7421   2.700   4.359  -0.346 -1.5312 -0.0664 -0.5108
  323DG     H16 7422   2.573   4.359  -0.239 -0.0030 -0.3216  1.4551
  323DG     C17 7423   2.494   4.120  -0.098  0.4000 -0.1044  0.2306
  323DG     C18 7424   2.688   4.163  -0.244 -0.1598  0.3363 -0.5600
  323DG     O19 7425   2.630   4.100  -0.125 -0.3938 -0.2374  0.1467
  323DG     H20 7426   2.475   4.226  -0.114 -1.5184  0.0063  2.6226
  323DG     H21 7427   2.438   4.059  -0.169  0.4797  1.8968 -1.6380
  323DG     H22 7428   2.624   4.114  -0.318 -2.6344  0.2170  1.5423
  323DG     H23 7429   2.795   4.143  -0.245 -0.2420 -0.1744  0.1874
  324DG      C1 7430   1.540   2.377   4.897  0.2291 -0.0019 -0.1731
  324DG      C2 7431   0.961   2.260   4.776 -0.4874  0.5665  0.1412
  324DG      H3 7432   1.619   2.436   4.945 -0.0415  2.0837 -2.1432
  324DG      H4 7433   1.550   2.391   4.790 -0.0431  2.3847  0.0574
  324DG      H5 7434   1.548   2.270   4.919 -2.0671  0.0333  1.1762
  324DG      H6 7435   0.982   2.154   4.767 -0.6210  0.6301 -1.0788
  324DG      H7 7436   0.955   2.285   4.882 -1.6038  1.2390 -0.0580
  324DG      H8 7437   0.858   2.278   4.743  0.3797  1.8823 -2.0806
  324DG      O9 7438   1.413   2.401   4.954 -0.7864  0.0476  0.2984
  324DG     O10 7439   1.061   2.341   4.708  0.0594 -0.1379 -0.2848
  324DG     C11 7440   1.400   2.541   4.974  0.0006 -0.1933  0.1695
  324DG     C12 7441   1.027   2.478   4.690  0.1106 -0.2497 -0.7859
  324DG     H13 7442   1.466   2.593   4.904 -0.7282  0.1989 -0.2390
  324DG     H14 7443   1.437   2.555   5.076 -1.7021 -1.6303  1.0314
  324DG     H15 7444   0.926   2.495   4.653  0.2354  1.7948 -0.3271
  324DG     H16 7445   1.096   2.498   4.608 -0.3767 -1.2519 -1.4538
  324DG     C17 7446   1.253   2.582   4.957  0.2387  0.2213  0.4659
  324DG     C18 7447   1.068   2.564   4.815 -0.5046  0.0371 -0.2920
  324DG     O19 7448   1.204   2.532   4.840 -0.3512 -0.3880  0.0655
  324DG     H20 7449   1.249   2.691   4.963 -1.5365  0.1110  2.6532
  324DG     H21 7450   1.188   2.548   5.037  2.1407 -2.2289  1.0984
  324DG     H22 7451   1.038   2.667   4.797 -1.3315  0.1470  1.5091
  324DG     H23 7452   1.002   2.526   4.893  0.0460 -0.0152  0.1602
  325DG      C1 7453   2.444   5.381   3.125  0.6886  0.6208 -0.3881
  325DG      C2 7454   1.975   5.896   3.059  0.4931 -1.3085  0.0962
  325DG      H3 7455   2.471   5.374   3.231  0.8274  1.5314 -0.3500
  325DG      H4 7456   2.470   5.484   3.099 -0.9168  1.3204  0.6092
  325DG      H5 7457   2.504   5.308   3.071  2.1724  0.7222  1.0436
  325DG      H6 7458   1.871   5.916   3.087  0.1730 -0.0386 -1.7956
  325DG      H7 7459   2.041   5.904   3.146 -1.3469  1.2943  1.4190
  325DG      H8 7460   2.019   5.968   2.991 -0.2530 -0.0654  0.8663
  325DG      O9 7461   2.305   5.366   3.109  0.4717  0.9667  0.9111
  325DG     O10 7462   1.979   5.765   3.008  0.2093 -0.2406  0.0240
  325DG     C11 7463   2.261   5.380   2.971 -0.0923 -0.0978 -0.8003
  325DG     C12 7464   1.906   5.669   3.079  0.6980  0.6932  0.0702
  325DG     H13 7465   2.296   5.292   2.917 -1.5079 -1.1736 -0.0423
  325DG     H14 7466   2.314   5.464   2.927 -0.5178  0.0954 -0.9411
  325DG     H15 7467   1.799   5.690   3.073  0.2645 -1.6013 -2.0165
  325DG     H16 7468   1.934   5.684   3.183  1.8406  0.4584 -0.1903
  325DG     C17 7469   2.107   5.397   2.961 -0.0999  0.3122 -0.5838
  325DG     C18 7470   1.927   5.525   3.024  0.0587  0.1782 -0.0909
  325DG     O19 7471   2.068   5.514   3.028 -0.0068  0.3862 -0.4504
  325DG     H20 7472   2.054   5.311   3.002  3.7690 -1.0879  2.0353
  325DG     H21 7473   2.071   5.418   2.860 -2.4538  0.2190  0.1745
  325DG     H22 7474   1.882   5.450   3.089  2.0576 -2.9684 -2.0624
  325DG     H23 7475   1.901   5.510   2.919  2.3878 -0.6631 -0.6175
  326DG      C1 7476   3.195   1.638   0.930  1.0694  0.3989  0.2492
  326DG      C2 7477   2.913   0.891   0.870  0.7240 -0.1798 -0.5239
  326DG      H3 7478   3.102   1.659   0.983  0.4094  0.4328 -0.8820
  326DG      H4 7479   3.240   1.735   0.911 -1.7536  1.9164  0.7350
  326DG      H5 7480   3.260   1.580   0.996  4.3711 -0.4577 -3.3512
  326DG      H6 7481   2.990   0.842   0.929 -0.4274  0.0732  1.2513
  326DG      H7 7482   2.819   0.903   0.923  1.2737  0.4027  0.3408
  326DG      H8 7483   2.905   0.821   0.787  0.8000 -0.2050 -0.5099
  326DG      O9 7484   3.181   1.566   0.803 -0.0303 -0.8689 -0.1964
  326DG     O10 7485   2.942   1.023   0.835  0.4592  0.2576 -0.2794
  326DG     C11 7486   3.096   1.456   0.818  0.4856  0.3906 -0.4115
  326DG     C12 7487   2.854   1.087   0.745 -0.3132 -1.0921  0.0968
  326DG     H13 7488   2.994   1.491   0.828  0.2171 -0.8292  1.6591
  326DG     H14 7489   3.118   1.403   0.911 -0.9033 -1.5009 -1.0924
  326DG     H15 7490   2.750   1.078   0.776  0.2240 -2.8996  1.5356
  326DG     H16 7491   2.846   1.049   0.643  0.2300 -0.2325 -0.2733
  326DG     C17 7492   3.099   1.367   0.697  0.4390 -0.2064  0.2644
  326DG     C18 7493   2.900   1.232   0.742 -1.1517  0.2495  0.3080
  326DG     O19 7494   3.045   1.238   0.737 -0.1364  0.1435 -0.1840
  326DG     H20 7495   3.200   1.347   0.662 -0.1705 -0.1431 -1.6784
  326DG     H21 7496   3.030   1.406   0.621 -0.8703 -1.3064  0.8446
  326DG     H22 7497   2.855   1.289   0.661 -1.7380  1.4778  1.4475
  326DG     H23 7498   2.869   1.277   0.837  0.9172  0.1542  1.0679
  327DG      C1 7499   4.113   4.846   2.368 -0.0521 -0.4462  0.6268
  327DG      C2 7500   3.487   4.306   2.113  0.0564 -0.0113 -0.0189
  327DG      H3 7501   4.065   4.885   2.458 -1.3479  1.1321 -0.6883
  327DG      H4 7502   4.066   4.893   2.282  1.6370  1.5007  0.6810
  327DG      H5 7503   4.217   4.880   2.365  1.4556 -4.5862 -0.4150
  327DG      H6 7504   3.505   4.216   2.054  0.6099 -0.0874  0.2611
  327DG      H7 7505   3.415   4.285   2.192 -1.2171  0.1513 -1.1055
  327DG      H8 7506   3.446   4.386   2.052  3.3325  0.0373 -2.4451
  327DG      O9 7507   4.105   4.707   2.364 -0.3020 -0.1692  0.2444
  327DG     O10 7508   3.612   4.365   2.152 -0.0831  0.3733 -0.4105
  327DG     C11 7509   3.979   4.652   2.324 -0.3551 -0.0442  0.2873
  327DG     C12 7510   3.688   4.273   2.233  0.1755 -0.8239 -0.0069
  327DG     H13 7511   3.940   4.704   2.237 -0.2285  1.0981  0.8894
  327DG     H14 7512   3.909   4.675   2.406  1.8662 -1.2849  2.6831
  327DG     H15 7513   3.694   4.172   2.193 -3.2052 -0.1595 -2.6054
  327DG     H16 7514   3.659   4.262   2.337 -0.0727  0.2576  0.0529
  327DG     C17 7515   3.975   4.496   2.303  0.1917  0.2212  0.1544
  327DG     C18 7516   3.828   4.327   2.229 -0.3339 -0.1559 -0.0110
  327DG     O19 7517   3.841   4.466   2.263  0.1813  0.3566 -0.2583
  327DG     H20 7518   4.012   4.438   2.387  2.6728  2.7437  0.9862
  327DG     H21 7519   4.049   4.470   2.227  0.7034 -0.8166  0.9853
  327DG     H22 7520   3.895   4.265   2.290 -3.4311 -0.7981  3.0184
  327DG     H23 7521   3.865   4.304   2.129  0.1820 -0.4298  0.2355
  328DG      C1 7522   0.811   0.691   2.910  0.3235 -0.3748 -0.4450
  328DG      C2 7523   1.086   1.041   2.328 -0.2557  0.6067 -0.3810
  328DG      H3 7524   0.793   0.669   3.016 -0.5340  1.3904 -0.1870
  328DG      H4 7525   0.823   0.593   2.864 -1.6525 -0.6927 -0.3523
  328DG      H5 7526   0.720   0.729   2.865  0.9675  0.3970 -1.1264
  328DG      H6 7527   1.114   0.958   2.263 -0.3989 -0.0633  0.3928
  328DG      H7 7528   0.979   1.060   2.315 -0.2666  1.0489  0.3399
  328DG      H8 7529   1.161   1.111   2.292  0.0835  0.1593 -0.5664
  328DG      O9 7530   0.907   0.785   2.867  0.3709  0.0326  0.4217
  328DG     O10 7531   1.114   1.019   2.463 -0.2405  0.3469  0.0905
  328DG     C11 7532   0.918   0.899   2.943  0.1174  0.2046 -0.2315
  328DG     C12 7533   1.092   1.126   2.551  0.7070  0.3303 -0.1282
  328DG     H13 7534   0.922   0.887   3.051 -0.3884  1.7953 -0.0040
  328DG     H14 7535   0.832   0.963   2.920  1.0360  1.5212 -0.1331
  328DG     H15 7536   0.988   1.157   2.547  0.8613  1.0839  1.0334
  328DG     H16 7537   1.167   1.201   2.524  3.7396 -0.9316  3.7240
  328DG     C17 7538   1.046   0.971   2.890  0.3492  0.4648 -0.0387
  328DG     C18 7539   1.133   1.072   2.685  0.3613 -0.6536  0.3154
  328DG     O19 7540   1.029   0.995   2.748  0.4181 -0.3485 -0.2715
  328DG     H20 7541   1.141   0.921   2.909  0.6667  0.9528 -0.3108
  328DG     H21 7542   1.054   1.072   2.929  0.9525  0.7195 -0.7949
  328DG     H22 7543   1.224   1.013   2.670  0.9871  0.3606  0.0672
  328DG     H23 7544   1.159   1.155   2.750 -1.9761 -0.4819  1.1465
  329DG      C1 7545   4.221   5.386   0.825  0.3890 -0.1562  0.6279
  329DG      C2 7546   4.240   5.994   0.567  0.0670 -0.1380  0.0076
  329DG      H3 7547   4.127   5.379   0.771  1.0125 -0.5593 -0.4329
  329DG      H4 7548   4.196   5.343   0.923  1.7388 -1.5116  0.4103
  329DG      H5 7549   4.300   5.314   0.803 -0.2777 -0.9898  0.9026
  329DG      H6 7550   4.261   6.099   0.548  0.2175 -0.2479 -0.4431
  329DG      H7 7551   4.260   5.942   0.473  0.3082 -1.2001  0.6216
  329DG      H8 7552   4.137   5.981   0.601  0.5748 -0.8936  1.3287
  329DG      O9 7553   4.272   5.517   0.836  0.4825  0.3299  0.1804
  329DG     O10 7554   4.323   5.943   0.672 -0.3464 -0.0737 -0.7845
  329DG     C11 7555   4.279   5.564   0.970 -0.6099 -0.0174  0.3118
  329DG     C12 7556   4.306   6.012   0.801 -0.0217  0.0978 -0.3586
  329DG     H13 7557   4.337   5.486   1.020 -0.5747 -0.5122 -0.4754
  329DG     H14 7558   4.178   5.569   1.011 -0.4431  1.0966  0.6228
  329DG     H15 7559   4.203   6.038   0.825  0.0017 -1.7771  2.1611
  329DG     H16 7560   4.367   6.102   0.811 -1.0560  0.8210 -0.4205
  329DG     C17 7561   4.358   5.703   0.976  0.1711  0.4113  0.0188
  329DG     C18 7562   4.353   5.929   0.920 -0.5084  0.2896  0.0150
  329DG     O19 7563   4.291   5.808   0.893 -0.3545  0.4031 -0.0758
  329DG     H20 7564   4.461   5.697   0.941 -0.0955 -1.3951 -0.5226
  329DG     H21 7565   4.367   5.733   1.081 -1.2523 -0.0249  0.2840
  329DG     H22 7566   4.461   5.920   0.925 -0.5964 -0.9207 -0.1069
  329DG     H23 7567   4.306   5.970   1.009 -1.4834 -0.1070 -0.2940
  330DG      C1 7568   0.635   1.840   2.671 -0.1846  0.4863  0.3010
  330DG      C2 7569   0.549   2.444   2.533  0.1841 -0.5891  0.6402
  330DG      H3 7570   0.711   1.769   2.703 -1.7688 -1.9267 -0.9917
  330DG      H4 7571   0.569   1.798   2.596  0.2262  0.4497 -0.0418
  330DG      H5 7572   0.571   1.861   2.757  0.7948  0.5420  1.0410
  330DG      H6 7573   0.477   2.384   2.477 -0.2840  1.3798 -1.0082
  330DG      H7 7574   0.493   2.466   2.624 -0.5289 -0.4891  0.1942
  330DG      H8 7575   0.565   2.539   2.480  0.7673 -1.0474 -0.0219
  330DG      O9 7576   0.689   1.960   2.622 -0.0658  0.3561 -0.1359
  330DG     O10 7577   0.669   2.369   2.554  0.5906 -0.0798 -0.5015
  330DG     C11 7578   0.775   1.942   2.512 -0.5364  0.7021  0.7012
  330DG     C12 7579   0.740   2.375   2.435 -0.0887 -0.8771 -0.1878
  330DG     H13 7580   0.744   1.869   2.437  0.1716  1.2755 -0.1718
  330DG     H14 7581   0.876   1.920   2.546 -0.9987  0.2189  1.8141
  330DG     H15 7582   0.739   2.480   2.406  0.0907 -0.7980  0.0884
  330DG     H16 7583   0.681   2.329   2.356 -0.3176  0.2561 -0.6945
  330DG     C17 7584   0.797   2.073   2.438  0.4862 -0.8468  0.3830
  330DG     C18 7585   0.876   2.309   2.444  0.0231  0.1613  0.5286
  330DG     O19 7586   0.856   2.181   2.516  0.3304  0.2134 -0.8308
  330DG     H20 7587   0.697   2.104   2.406  0.8366  0.0412  0.1032
  330DG     H21 7588   0.867   2.052   2.357  1.0475  0.5847  0.4578
  330DG     H22 7589   0.919   2.304   2.343 -1.9823 -0.9838 -0.3305
  330DG     H23 7590   0.943   2.373   2.500 -1.6775  2.5468 -0.0049
  331DG      C1 7591   4.422   2.300   0.845  0.0562 -0.3073  0.2442
  331DG      C2 7592   3.904   1.905   1.248 -0.0311  0.3270 -0.1122
  331DG      H3 7593   4.467   2.398   0.832  1.2282 -0.8406  0.1715
  331DG      H4 7594   4.329   2.282   0.791 -0.2332 -1.8232  1.1861
  331DG      H5 7595   4.499   2.230   0.815 -0.3207 -1.4137  1.6967
  331DG      H6 7596   3.877   1.888   1.352 -0.6932  0.6450 -0.2234
  331DG      H7 7597   3.814   1.930   1.192 -0.1280 -1.4562 -0.8260
  331DG      H8 7598   3.925   1.806   1.207 -0.0717  1.0876 -2.1164
  331DG      O9 7599   4.403   2.270   0.985  0.6921  0.6171 -0.4209
  331DG     O10 7600   4.000   2.012   1.234  0.4366  0.0763  0.0177
  331DG     C11 7601   4.333   2.364   1.066 -0.0770  0.2901 -0.4138
  331DG     C12 7602   4.026   2.040   1.099  0.2022 -0.1899  0.1019
  331DG     H13 7603   4.254   2.415   1.010 -0.8832 -0.8400 -0.3261
  331DG     H14 7604   4.405   2.439   1.100  0.4185 -0.5062  0.3369
  331DG     H15 7605   3.946   2.098   1.052  1.2921  1.2927 -0.0081
  331DG     H16 7606   4.039   1.950   1.039  0.1454  0.4460 -0.8965
  331DG     C17 7607   4.279   2.293   1.189  0.1075  0.0023 -0.9000
  331DG     C18 7608   4.163   2.114   1.094  0.7000  0.4665  0.1280
  331DG     O19 7609   4.154   2.238   1.169 -0.2141 -0.0382  0.0515
  331DG     H20 7610   4.266   2.365   1.269  0.8936 -1.1525  0.2990
  331DG     H21 7611   4.351   2.220   1.225  1.4915  0.1283 -3.2071
  331DG     H22 7612   4.234   2.039   1.131 -1.5096 -1.0859  1.4447
  331DG     H23 7613   4.181   2.139   0.990  1.0879 -2.2211 -0.5317
  332DG      C1 7614   2.013   0.049   0.081 -0.1687  0.1325  0.1357
  332DG      C2 7615   1.794   0.221   0.709 -0.0822 -0.4763  0.3486
  332DG      H3 7616   1.978   0.138   0.029  0.2728  0.3654  0.2272
  332DG      H4 7617   2.027  -0.033   0.012 -1.5331 -2.5739  2.8420
  332DG      H5 7618   2.111   0.080   0.118 -1.5048 -0.1390  4.4099
  332DG      H6 7619   1.841   0.164   0.789  1.1646 -1.0865 -0.7550
  332DG      H7 7620   1.861   0.294   0.663  0.8777 -1.2263  0.5106
  332DG      H8 7621   1.700   0.269   0.733 -1.2771 -2.3581 -0.3678
  332DG      O9 7622   1.925   0.015   0.183 -0.2520 -0.6488 -0.3072
  332DG     O10 7623   1.779   0.130   0.597  0.3841 -0.0304 -0.5685
  332DG     C11 7624   1.795  -0.035   0.145  0.1713 -0.2045  0.1991
  332DG     C12 7625   1.697   0.017   0.619 -0.2858  0.0859  0.0981
  332DG     H13 7626   1.828  -0.108   0.072 -0.3406  0.0076 -0.2484
  332DG     H14 7627   1.739   0.052   0.111 -2.4345 -1.7349  0.3567
  332DG     H15 7628   1.592   0.047   0.621 -0.4854 -0.0296 -3.1450
  332DG     H16 7629   1.726  -0.021   0.717  0.7999  0.5798 -0.0219
  332DG     C17 7630   1.729  -0.108   0.263  0.0242 -0.3198  0.3607
  332DG     C18 7631   1.713  -0.089   0.511 -0.3112 -0.6740  0.7209
  332DG     O19 7632   1.737  -0.025   0.384 -0.5510 -0.0557  0.8962
  332DG     H20 7633   1.760  -0.213   0.270 -2.9972 -1.4109 -1.0719
  332DG     H21 7634   1.621  -0.101   0.253 -0.0802  0.4176  1.7302
  332DG     H22 7635   1.778  -0.174   0.531 -1.8163 -2.2447 -0.6782
  332DG     H23 7636   1.618  -0.142   0.503  0.3542 -2.3218  2.8757
  333DG      C1 7637   0.018   0.598   1.641 -0.7091  0.1545  0.0006
  333DG      C2 7638   0.689   0.707   1.812  0.7261  0.0010 -0.4021
  333DG      H3 7639  -0.066   0.564   1.580  0.8267 -0.3027 -1.9405
  333DG      H4 7640  -0.012   0.698   1.670 -0.8020  0.4234 -0.9920
  333DG      H5 7641   0.025   0.525   1.722  2.3285 -0.9177 -1.1098
  333DG      H6 7642   0.676   0.814   1.793 -3.8783 -0.3680 -0.2652
  333DG      H7 7643   0.641   0.691   1.908  0.9826  3.5853  0.4770
  333DG      H8 7644   0.797   0.693   1.816  0.6608 -0.2245  1.3209
  333DG      O9 7645   0.139   0.602   1.558  0.2195 -0.1714  0.0776
  333DG     O10 7646   0.620   0.632   1.716 -0.1354 -0.1837  0.2278
  333DG     C11 7647   0.198   0.478   1.546  0.7022 -0.4683 -0.1858
  333DG     C12 7648   0.639   0.667   1.582  0.3440  0.8573  0.7230
  333DG     H13 7649   0.130   0.402   1.506  0.3375 -0.4258  0.3413
  333DG     H14 7650   0.222   0.439   1.645  3.5123 -0.6246 -0.8393
  333DG     H15 7651   0.746   0.668   1.560  0.1880 -0.8760 -0.2234
  333DG     H16 7652   0.611   0.768   1.549  0.8605  0.8345  0.1960
  333DG     C17 7653   0.329   0.494   1.470  0.2314 -0.0208  0.1024
  333DG     C18 7654   0.553   0.574   1.501 -0.1345  0.0739  0.5132
  333DG     O19 7655   0.428   0.560   1.560  0.6369  0.4008 -0.0180
  333DG     H20 7656   0.317   0.558   1.383 -0.2795 -0.2762 -0.0173
  333DG     H21 7657   0.362   0.392   1.450 -1.3890 -0.3781 -0.9133
  333DG     H22 7658   0.534   0.620   1.404 -0.7085 -2.5008 -0.7086
  333DG     H23 7659   0.614   0.484   1.489 -2.3127 -1.6315  1.6025
  334DG      C1 7660   0.339   2.564   4.401  0.2014 -0.3281  0.6943
  334DG      C2 7661  -0.050   3.038   4.387  0.0396  0.0774 -0.8223
  334DG      H3 7662   0.392   2.469   4.408  1.6252  0.5333  2.4172
  334DG      H4 7663   0.348   2.616   4.497 -0.9156  0.4785  0.3716
  334DG      H5 7664   0.397   2.640   4.348 -0.0275  0.2296  1.2285
  334DG      H6 7665  -0.027   3.052   4.493 -2.1023 -3.3342  0.2732
  334DG      H7 7666   0.032   3.053   4.317 -0.2252  0.2255 -1.1009
  334DG      H8 7667  -0.130   3.105   4.355 -0.2121 -0.1728 -0.7152
  334DG      O9 7668   0.201   2.552   4.363 -0.3386 -0.0984  0.0460
  334DG     O10 7669  -0.095   2.907   4.365 -0.0379 -0.7734  0.3699
  334DG     C11 7670   0.129   2.470   4.461  0.4380  0.5316 -0.1802
  334DG     C12 7671  -0.159   2.853   4.481 -0.2935  0.3694  0.5659
  334DG     H13 7672   0.162   2.501   4.560  0.0188  0.1951  0.0682
  334DG     H14 7673   0.143   2.362   4.460  2.5143  0.7645 -0.5783
  334DG     H15 7674  -0.261   2.892   4.481 -0.8394 -0.9360 -0.5027
  334DG     H16 7675  -0.105   2.872   4.573  2.2214 -0.9591 -0.5224
  334DG     C17 7676  -0.024   2.496   4.449  0.0708  0.3999  0.4158
  334DG     C18 7677  -0.162   2.694   4.464 -0.9115 -0.1251  0.8617
  334DG     O19 7678  -0.032   2.637   4.459 -0.6597 -0.0590 -0.6679
  334DG     H20 7679  -0.083   2.458   4.533  0.9377  0.6036  1.1376
  334DG     H21 7680  -0.068   2.467   4.354 -2.5709  1.4516  1.2297
  334DG     H22 7681  -0.215   2.644   4.545  0.9220 -1.5236  1.2645
  334DG     H23 7682  -0.204   2.663   4.368 -2.3913  0.9811  1.1147
  335DG      C1 7683   2.473   4.894   2.153 -0.5468 -0.4217  0.2335
  335DG      C2 7684   2.479   5.355   1.679  0.3479 -0.1509  0.1446
  335DG      H3 7685   2.373   4.886   2.110  0.5207 -1.8717 -2.1712
  335DG      H4 7686   2.480   4.965   2.235 -1.8898 -0.7066  0.6289
  335DG      H5 7687   2.516   4.803   2.194  2.5699 -0.9363 -3.6030
  335DG      H6 7688   2.523   5.375   1.581  0.4689 -0.6739  0.0875
  335DG      H7 7689   2.380   5.321   1.650 -1.0999  3.6320  0.1219
  335DG      H8 7690   2.484   5.452   1.729  0.9522 -0.7258  1.2596
  335DG      O9 7691   2.555   4.917   2.046 -0.0623  0.1445 -0.2481
  335DG     O10 7692   2.559   5.263   1.742 -0.2551  0.1102 -0.1045
  335DG     C11 7693   2.691   4.947   2.084 -0.2989  0.8330  0.1640
  335DG     C12 7694   2.694   5.299   1.761 -0.1718  0.5474  0.1917
  335DG     H13 7695   2.742   4.857   2.117  1.0612  1.2588 -0.7070
  335DG     H14 7696   2.704   5.028   2.155  3.5608 -0.1460  0.8113
  335DG     H15 7697   2.693   5.372   1.842  0.6325  0.5514  0.2078
  335DG     H16 7698   2.730   5.338   1.665 -2.1432  2.2190  0.0530
  335DG     C17 7699   2.769   4.999   1.960  0.4134  0.2877  0.2678
  335DG     C18 7700   2.771   5.176   1.808  0.0307 -0.4778 -0.1662
  335DG     O19 7701   2.703   5.117   1.917  0.2244  0.3882  0.5272
  335DG     H20 7702   2.779   4.926   1.880  3.7587  0.4821  0.3543
  335DG     H21 7703   2.876   5.006   1.980  0.4944  1.0205 -0.3432
  335DG     H22 7704   2.767   5.102   1.728 -0.6630 -0.2360 -0.3573
  335DG     H23 7705   2.874   5.202   1.833 -0.4682 -0.0402  1.5552
  336DG      C1 7706   2.593   4.812   1.628  0.5079 -0.4820 -0.2436
  336DG      C2 7707   2.389   5.294   2.055 -0.6847 -0.0807  0.0942
  336DG      H3 7708   2.690   4.858   1.642  1.7635 -2.3754 -2.0825
  336DG      H4 7709   2.573   4.813   1.521  0.9332  1.0864 -0.3242
  336DG      H5 7710   2.592   4.708   1.661 -1.9162 -0.8879 -1.3584
  336DG      H6 7711   2.332   5.378   2.096 -0.0341  0.6256 -0.4155
  336DG      H7 7712   2.425   5.222   2.127 -0.3936 -0.7616 -0.7175
  336DG      H8 7713   2.471   5.359   2.023 -1.1387 -0.0592 -1.0646
  336DG      O9 7714   2.483   4.891   1.681 -0.1246 -0.0801 -0.4081
  336DG     O10 7715   2.321   5.232   1.945  0.0697 -0.1725 -0.7613
  336DG     C11 7716   2.356   4.832   1.670 -0.0130 -0.4978  0.1119
  336DG     C12 7717   2.211   5.154   1.993  0.4354  0.4661 -0.3226
  336DG     H13 7718   2.350   4.753   1.745 -1.8348  0.7059  1.3100
  336DG     H14 7719   2.333   4.779   1.578 -2.0224 -1.8669  1.3122
  336DG     H15 7720   2.127   5.213   2.031  0.2302 -1.6898  2.9870
  336DG     H16 7721   2.246   5.087   2.071 -0.0486  0.5279 -0.0516
  336DG     C17 7722   2.244   4.926   1.708  0.2619  0.8745  0.2682
  336DG     C18 7723   2.177   5.070   1.871  0.0754  0.0703  0.5256
  336DG     O19 7724   2.269   4.974   1.835  0.2961 -0.2671  0.1571
  336DG     H20 7725   2.151   4.870   1.703  0.0589  1.0722  1.4167
  336DG     H21 7726   2.219   5.001   1.633 -1.7934  0.8049  0.8331
  336DG     H22 7727   2.080   5.023   1.888 -0.3652  0.2872 -1.2257
  336DG     H23 7728   2.163   5.138   1.787  1.2455 -0.4761 -0.1288
  337DG      C1 7729   2.440   2.946   4.895 -0.1645  0.4832  0.2988
  337DG      C2 7730   2.739   3.051   5.520 -0.2671 -0.2311  0.5162
  337DG      H3 7731   2.512   2.865   4.881  0.3157  0.6547  1.6769
  337DG      H4 7732   2.480   3.037   4.850 -0.7183 -0.6516 -2.7371
  337DG      H5 7733   2.346   2.925   4.843  0.6707  0.5962 -1.3445
  337DG      H6 7734   2.782   2.967   5.465  0.9883  0.9718 -0.4195
  337DG      H7 7735   2.797   3.141   5.498  0.1760 -0.5430  0.3858
  337DG      H8 7736   2.725   3.032   5.626 -2.5107 -0.4436  0.2283
  337DG      O9 7737   2.426   2.955   5.035 -0.5241 -0.3469  0.4149
  337DG     O10 7738   2.617   3.085   5.458  0.1741 -0.2605 -0.2315
  337DG     C11 7739   2.300   2.996   5.085 -0.5900 -0.6589 -0.2721
  337DG     C12 7740   2.512   2.999   5.502 -0.3405  0.0725  0.2188
  337DG     H13 7741   2.229   2.939   5.024 -0.0207 -1.2929 -0.3599
  337DG     H14 7742   2.284   3.103   5.075  0.2862 -0.5882 -1.0428
  337DG     H15 7743   2.503   2.998   5.611 -2.5566 -2.6986  0.1396
  337DG     H16 7744   2.531   2.894   5.476 -2.3455 -0.9485  2.4544
  337DG     C17 7745   2.283   2.966   5.235 -0.1772  0.5609  0.0400
  337DG     C18 7746   2.389   3.049   5.438  0.5725 -0.2215  0.2489
  337DG     O19 7747   2.392   3.040   5.297  0.5375  0.0156 -0.4903
  337DG     H20 7748   2.287   2.858   5.246  0.3638  0.6630  0.9573
  337DG     H21 7749   2.187   3.007   5.267  0.0612  1.1427  0.0296
  337DG     H22 7750   2.303   2.995   5.479  0.8890 -0.5132  0.5356
  337DG     H23 7751   2.351   3.150   5.455 -2.7862 -0.9602 -1.8085
  338DG      C1 7752   3.124   4.464   4.963 -0.3678  0.5702  0.4544
  338DG      C2 7753   2.798   5.060   4.866  0.8047  0.1806 -0.1330
  338DG      H3 7754   3.044   4.407   4.916 -0.3843 -0.9839  2.2636
  338DG      H4 7755   3.174   4.411   5.044  0.0092 -0.6038 -0.5171
  338DG      H5 7756   3.190   4.485   4.878  0.4183 -0.3505  0.8135
  338DG      H6 7757   2.696   5.039   4.899  1.0121 -1.1782 -0.3006
  338DG      H7 7758   2.811   5.168   4.862  1.2049  0.1480  0.1929
  338DG      H8 7759   2.808   5.027   4.762 -0.4359  0.3302 -0.3156
  338DG      O9 7760   3.078   4.591   5.014  0.1767 -0.6023  0.5995
  338DG     O10 7761   2.885   5.000   4.952  0.3916  0.5636 -0.7426
  338DG     C11 7762   3.018   4.580   5.147 -0.3016  0.3331 -0.3271
  338DG     C12 7763   2.842   5.030   5.082 -0.5293  0.0760 -0.0147
  338DG     H13 7764   3.060   4.508   5.217 -1.0569  0.1850 -0.0151
  338DG     H14 7765   2.915   4.548   5.129 -0.1858 -0.5140  0.4600
  338DG     H15 7766   2.743   4.986   5.087 -0.0970 -0.9510 -0.3262
  338DG     H16 7767   2.826   5.134   5.111  0.3485  0.7189 -1.7033
  338DG     C17 7768   3.007   4.721   5.217  0.4334 -0.9291  0.4290
  338DG     C18 7769   2.926   4.947   5.180  0.8120  0.2731 -0.5858
  338DG     O19 7770   2.925   4.811   5.143 -0.4383  0.1172 -0.2594
  338DG     H20 7771   3.104   4.760   5.249  1.0919 -2.1420 -0.0350
  338DG     H21 7772   2.952   4.708   5.311  0.1130 -0.5909  0.2918
  338DG     H22 7773   3.028   4.983   5.191  1.4491 -2.0266  1.8681
  338DG     H23 7774   2.895   4.958   5.284  3.2274 -2.0561  0.4909
  339DG      C1 7775   5.077   4.867   1.027  0.6127 -0.3231 -0.3810
  339DG      C2 7776   5.129   4.196   0.834 -0.1330 -0.2647  0.3804
  339DG      H3 7777   5.045   4.897   0.927 -0.6146  1.4980  0.4987
  339DG      H4 7778   5.118   4.953   1.080 -0.7717  0.0890  0.0862
  339DG      H5 7779   4.985   4.839   1.080 -0.6770 -0.3209 -2.5150
  339DG      H6 7780   5.125   4.130   0.921 -1.2979 -0.1992  0.4012
  339DG      H7 7781   5.022   4.212   0.818  0.0833  0.0951 -0.8190
  339DG      H8 7782   5.158   4.131   0.752  0.5163 -1.5542  1.5882
  339DG      O9 7783   5.168   4.766   1.013 -0.1255  0.4602  0.1833
  339DG     O10 7784   5.193   4.315   0.864  0.0139  0.0854 -0.2419
  339DG     C11 7785   5.229   4.728   1.142 -0.5189 -0.3042 -0.7806
  339DG     C12 7786   5.319   4.296   0.934 -0.0653  0.5756 -0.1877
  339DG     H13 7787   5.160   4.675   1.207  1.1982 -1.1409  0.4396
  339DG     H14 7788   5.266   4.807   1.207 -2.4510 -1.3869  1.8001
  339DG     H15 7789   5.387   4.243   0.867  1.5590  1.6957  0.5015
  339DG     H16 7790   5.295   4.238   1.023 -1.1151 -0.3315 -1.0430
  339DG     C17 7791   5.343   4.626   1.106 -0.0613 -0.3749 -0.0358
  339DG     C18 7792   5.386   4.426   0.980 -0.2982  0.5624  0.8016
  339DG     O19 7793   5.289   4.524   1.028 -0.0365  0.7486  0.3092
  339DG     H20 7794   5.379   4.584   1.200 -0.0164 -0.1512  0.0470
  339DG     H21 7795   5.422   4.679   1.053  0.2333 -1.1423 -0.3734
  339DG     H22 7796   5.465   4.403   1.052 -0.3452 -2.4905  0.0025
  339DG     H23 7797   5.435   4.476   0.896 -1.9375  0.5675 -0.1862
  340DG      C1 7798   2.332   4.618   0.951  0.2957 -0.8203  0.6262
  340DG      C2 7799   2.042   3.988   0.824  0.4075  0.4794 -0.3924
  340DG      H3 7800   2.356   4.688   1.030 -1.9371  1.1495 -0.3416
  340DG      H4 7801   2.234   4.637   0.909 -0.1685 -1.5660  1.3418
  340DG      H5 7802   2.413   4.616   0.878  1.0184  3.4382  1.0859
  340DG      H6 7803   2.021   3.890   0.781  0.5580 -0.3314  1.3005
  340DG      H7 7804   2.010   4.054   0.743  0.5654  0.5916 -0.3648
  340DG      H8 7805   2.150   3.995   0.838  0.5730 -0.6357 -1.0183
  340DG      O9 7806   2.324   4.486   1.003  0.3866 -0.0483  0.6596
  340DG     O10 7807   1.966   4.002   0.938  0.0034 -0.3140  0.1671
  340DG     C11 7808   2.269   4.476   1.130  0.6447 -0.5260 -0.7404
  340DG     C12 7809   1.978   4.136   0.995  0.5951 -0.1624 -0.1905
  340DG     H13 7810   2.170   4.522   1.127 -0.1548 -1.8865  1.7929
  340DG     H14 7811   2.337   4.521   1.202  0.8813 -2.2401  0.1588
  340DG     H15 7812   1.900   4.149   1.071 -1.3697 -1.9883 -1.7724
  340DG     H16 7813   1.965   4.218   0.925 -1.3180  0.0553  0.3630
  340DG     C17 7814   2.255   4.326   1.171  0.8359  0.1698 -0.4373
  340DG     C18 7815   2.121   4.153   1.053  0.7423  0.1095 -0.0173
  340DG     O19 7816   2.138   4.286   1.095 -0.0643 -0.0689 -0.1338
  340DG     H20 7817   2.234   4.305   1.276 -2.5407 -1.4211 -1.2959
  340DG     H21 7818   2.344   4.267   1.150  1.5530  1.1593 -0.2418
  340DG     H22 7819   2.143   4.086   1.136 -0.8497  1.2932  1.4490
  340DG     H23 7820   2.204   4.126   0.987  1.0980 -0.4407  0.6429
  341DG      C1 7821   3.199   4.295   1.844 -0.3722  0.5327 -0.0577
  341DG      C2 7822   2.656   4.435   2.241 -0.2226  0.1657 -0.3491
  341DG      H3 7823   3.222   4.201   1.894  0.7482  0.9922  0.3193
  341DG      H4 7824   3.264   4.363   1.900  1.4578 -0.6124 -0.6807
  341DG      H5 7825   3.237   4.299   1.742  1.3419 -0.1182  0.5185
  341DG      H6 7826   2.556   4.469   2.270  0.2685  2.0403 -0.7808
  341DG      H7 7827   2.674   4.339   2.291 -2.7869  0.4286  1.3233
  341DG      H8 7828   2.723   4.505   2.290  0.3671 -1.0491  0.6625
  341DG      O9 7829   3.067   4.331   1.879  0.1119  0.1185  0.7050
  341DG     O10 7830   2.678   4.428   2.106  0.0564 -0.2495  0.0967
  341DG     C11 7831   3.039   4.468   1.834 -1.2246  0.0438  0.0192
  341DG     C12 7832   2.655   4.558   2.052 -0.3067 -0.4241  0.8007
  341DG     H13 7833   3.103   4.491   1.748 -0.2805  0.7888  0.8937
  341DG     H14 7834   3.076   4.537   1.909  3.6072  0.1485 -2.0293
  341DG     H15 7835   2.720   4.636   2.092  0.0392  0.4043 -1.2387
  341DG     H16 7836   2.550   4.588   2.059 -0.3797 -0.4751  0.0358
  341DG     C17 7837   2.900   4.483   1.785  0.0552  1.4110 -0.0211
  341DG     C18 7838   2.698   4.545   1.907  0.3644  0.6012  0.6777
  341DG     O19 7839   2.818   4.462   1.898  0.4089 -0.0583 -0.0289
  341DG     H20 7840   2.891   4.408   1.706  0.9973  0.1330  1.0355
  341DG     H21 7841   2.892   4.580   1.737  1.4714  1.4271 -0.2479
  341DG     H22 7842   2.620   4.506   1.842  1.5036  1.7294 -1.4822
  341DG     H23 7843   2.715   4.646   1.869 -1.9849  0.7051 -0.2376
  342DG      C1 7844   0.503   3.452   3.819 -0.9749  0.3588 -0.3548
  342DG      C2 7845   0.822   3.486   3.220 -0.2820  1.0187 -0.3942
  342DG      H3 7846   0.508   3.558   3.794  0.9286 -0.1352 -2.2939
  342DG      H4 7847   0.583   3.437   3.892  0.4437  1.6641 -1.5648
  342DG      H5 7848   0.413   3.432   3.877  0.5635 -0.6096  1.8688
  342DG      H6 7849   0.819   3.456   3.115  0.3941 -0.7461  0.0543
  342DG      H7 7850   0.791   3.589   3.238 -1.6475  0.2405  2.1359
  342DG      H8 7851   0.923   3.479   3.261 -0.2010 -3.3865 -0.8695
  342DG      O9 7852   0.529   3.373   3.700  0.3962  0.0972 -0.0593
  342DG     O10 7853   0.730   3.407   3.293  0.3230 -0.5134 -0.2392
  342DG     C11 7854   0.535   3.231   3.716  0.1796 -0.2306  0.3087
  342DG     C12 7855   0.768   3.272   3.302 -0.3605 -0.6084 -0.3477
  342DG     H13 7856   0.443   3.203   3.769 -0.2605  0.1248 -0.2575
  342DG     H14 7857   0.624   3.209   3.775  0.6389 -1.1137 -0.6799
  342DG     H15 7858   0.865   3.270   3.352 -0.2698  4.0478  0.0656
  342DG     H16 7859   0.780   3.233   3.201 -1.5313  0.4138 -0.8999
  342DG     C17 7860   0.554   3.153   3.580  0.1426  0.1028  0.4739
  342DG     C18 7861   0.662   3.180   3.369  0.2118  0.6681 -0.5078
  342DG     O19 7862   0.611   3.239   3.488  0.1781  0.2529 -0.0338
  342DG     H20 7863   0.456   3.127   3.539  0.6750 -1.2579  0.0028
  342DG     H21 7864   0.597   3.054   3.595 -1.2973 -0.6122  0.0639
  342DG     H22 7865   0.585   3.162   3.294 -0.9438 -1.5286  1.1169
  342DG     H23 7866   0.705   3.086   3.403 -0.7978  0.2057 -0.4742
  343DG      C1 7867   0.302   3.404   3.440 -1.2184 -0.5331 -0.1880
  343DG      C2 7868   0.889   3.714   3.563  0.2290  0.1693  0.0331
  343DG      H3 7869   0.313   3.326   3.515  0.4714 -1.6969 -1.5859
  343DG      H4 7870   0.214   3.376   3.382 -0.4446  0.9507 -2.1798
  343DG      H5 7871   0.266   3.499   3.481  0.8377 -0.4504  1.5842
  343DG      H6 7872   0.887   3.676   3.665  0.7093 -0.3961 -0.1641
  343DG      H7 7873   0.964   3.642   3.532  1.2030  0.4974  1.5425
  343DG      H8 7874   0.933   3.813   3.554 -0.6630  0.4543 -1.7352
  343DG      O9 7875   0.416   3.421   3.354  0.0114  0.4343  0.6694
  343DG     O10 7876   0.765   3.709   3.499 -0.1835 -0.1956  0.5563
  343DG     C11 7877   0.395   3.526   3.263 -0.3484 -1.1036 -0.5762
  343DG     C12 7878   0.660   3.784   3.561  0.4224 -0.5559  0.0787
  343DG     H13 7879   0.300   3.512   3.211 -0.9381 -0.8509  0.3980
  343DG     H14 7880   0.480   3.529   3.194 -0.2639  3.8107 -0.6646
  343DG     H15 7881   0.700   3.884   3.577  2.1367 -1.1888 -0.0864
  343DG     H16 7882   0.643   3.740   3.659  2.5671 -2.3915 -0.2999
  343DG     C17 7883   0.405   3.666   3.318  0.6268 -0.3066 -0.3194
  343DG     C18 7884   0.542   3.797   3.469 -0.1254  0.3027 -0.3529
  343DG     O19 7885   0.501   3.665   3.414 -0.3980  0.0933 -0.4432
  343DG     H20 7886   0.309   3.681   3.368  0.4292 -0.6259 -0.6008
  343DG     H21 7887   0.415   3.735   3.235  0.1371 -0.8832 -0.8638
  343DG     H22 7888   0.470   3.847   3.534 -1.2265 -1.0834 -0.4654
  343DG     H23 7889   0.576   3.870   3.396  1.9524 -1.3600 -1.1838
  344DG      C1 7890   5.309   2.269   4.876  0.0376 -0.2644  0.3077
  344DG      C2 7891   5.342   2.815   5.354 -0.0753 -0.1414 -0.3329
  344DG      H3 7892   5.382   2.224   4.809  0.7617  0.7267  0.4063
  344DG      H4 7893   5.206   2.241   4.854 -0.1157 -1.8327  2.6744
  344DG      H5 7894   5.340   2.245   4.978 -0.7007  0.3466  0.6855
  344DG      H6 7895   5.233   2.821   5.354 -0.0322  0.9117 -0.9035
  344DG      H7 7896   5.367   2.757   5.442 -1.8912  0.5267  0.6886
  344DG      H8 7897   5.376   2.915   5.380  1.8763 -0.5616 -1.1339
  344DG      O9 7898   5.324   2.408   4.860  0.0701  0.0059  0.9387
  344DG     O10 7899   5.401   2.780   5.226  0.4454  0.2837 -0.2938
  344DG     C11 7900   5.458   2.443   4.862  0.0072 -0.3567  0.2876
  344DG     C12 7901   5.337   2.846   5.118  0.6306 -0.1139  0.1658
  344DG     H13 7902   5.519   2.422   4.775  1.0442  1.3405  0.5649
  344DG     H14 7903   5.505   2.400   4.951 -0.6458 -0.3174  0.6597
  344DG     H15 7904   5.342   2.955   5.117 -0.4210 -0.0487  0.5697
  344DG     H16 7905   5.231   2.820   5.107  0.0968  1.9670  0.0346
  344DG     C17 7906   5.466   2.593   4.881 -0.3313 -0.2461  0.3582
  344DG     C18 7907   5.397   2.787   4.988 -0.8228 -0.7946  0.3015
  344DG     O19 7908   5.379   2.648   4.983 -0.3316 -0.0691 -0.3248
  344DG     H20 7909   5.453   2.648   4.788 -2.1139 -1.2265 -0.0078
  344DG     H21 7910   5.570   2.618   4.904 -1.1967  1.3691  2.9472
  344DG     H22 7911   5.353   2.827   4.897 -3.5053 -0.3485  1.6924
  344DG     H23 7912   5.503   2.811   4.993 -0.4047 -2.1573 -1.1615
  345DG      C1 7913   2.430   2.667   1.520 -0.7063  0.1372 -0.5591
  345DG      C2 7914   2.334   3.407   1.464  0.0209 -0.3185  0.0515
  345DG      H3 7915   2.366   2.614   1.591 -0.1066  0.1084 -0.0214
  345DG      H4 7916   2.527   2.696   1.562 -0.3878 -1.2262 -0.2952
  345DG      H5 7917   2.459   2.592   1.447  2.9314 -0.4694  1.2609
  345DG      H6 7918   2.383   3.466   1.542  0.5186 -0.2494 -0.3123
  345DG      H7 7919   2.407   3.378   1.388 -0.0334 -0.1148 -0.0791
  345DG      H8 7920   2.254   3.461   1.415  1.0813  1.2256 -0.0641
  345DG      O9 7921   2.355   2.776   1.470 -0.1812  0.2600  0.2835
  345DG     O10 7922   2.284   3.282   1.505 -0.0998  0.3126  0.2007
  345DG     C11 7923   2.299   2.851   1.579 -0.4595 -0.2983 -0.3899
  345DG     C12 7924   2.181   3.280   1.596  0.8574  0.0040 -0.4994
  345DG     H13 7925   2.379   2.871   1.651 -1.6199 -1.2611  1.2645
  345DG     H14 7926   2.225   2.790   1.631 -1.8690 -0.0716 -2.0738
  345DG     H15 7927   2.104   3.345   1.556 -0.0583  0.3726  1.7428
  345DG     H16 7928   2.213   3.323   1.691  2.1829 -0.5425 -0.6719
  345DG     C17 7929   2.235   2.980   1.525 -0.5481  0.0542 -0.3664
  345DG     C18 7930   2.105   3.156   1.610 -0.2775  0.0795  0.2688
  345DG     O19 7931   2.191   3.053   1.639  0.0993  0.2460  0.1600
  345DG     H20 7932   2.151   2.965   1.457 -0.0841 -1.8191 -0.5829
  345DG     H21 7933   2.318   3.029   1.475  0.7266 -2.2446 -0.6326
  345DG     H22 7934   2.031   3.171   1.689 -0.9353  1.7423 -0.6125
  345DG     H23 7935   2.044   3.140   1.521  2.7580  1.6289 -2.2708
  346DG      C1 7936   4.900   4.657   4.410  0.2031 -0.2433 -0.1250
  346DG      C2 7937   5.142   5.335   4.335  0.1109  0.1972 -0.0947
  346DG      H3 7938   5.007   4.642   4.424  0.1515 -0.0458  0.5106
  346DG      H4 7939   4.860   4.585   4.339  0.7393 -2.0032  1.2925
  346DG      H5 7940   4.860   4.636   4.509  0.4822 -1.7594 -0.3199
  346DG      H6 7941   5.073   5.420   4.331  1.9651  1.7526 -0.5286
  346DG      H7 7942   5.160   5.297   4.435 -0.3447  1.4775  0.5000
  346DG      H8 7943   5.232   5.365   4.280 -0.1602 -1.0303 -1.2519
  346DG      O9 7944   4.869   4.789   4.373 -0.4433  0.1764  0.1223
  346DG     O10 7945   5.074   5.239   4.256 -0.0902  0.1762  0.5244
  346DG     C11 7946   4.733   4.820   4.363 -0.3589 -0.2025  0.0145
  346DG     C12 7947   4.962   5.187   4.315  0.5764  0.6646  0.2882
  346DG     H13 7948   4.682   4.830   4.459  1.1239 -0.3679  0.8452
  346DG     H14 7949   4.678   4.733   4.327 -1.0984 -0.0281  0.6742
  346DG     H15 7950   4.881   5.257   4.334  0.3007 -0.1492  2.3054
  346DG     H16 7951   4.990   5.156   4.416 -0.8664 -0.0055  0.4973
  346DG     C17 7952   4.690   4.946   4.273  0.2731  0.0327  0.2139
  346DG     C18 7953   4.895   5.077   4.237 -0.1168  0.0446 -0.0834
  346DG     O19 7954   4.770   5.065   4.302 -0.0818 -0.0130  0.0469
  346DG     H20 7955   4.583   4.961   4.285  0.5464  2.6072  0.0544
  346DG     H21 7956   4.702   4.918   4.168  1.0732 -1.9691  0.8013
  346DG     H22 7957   4.877   5.119   4.138  0.0436  1.1029  0.3253
  346DG     H23 7958   4.948   4.982   4.233  0.8666  0.6090 -0.7995
  347DG      C1 7959   1.308   1.344   0.581 -0.0850  0.3237 -0.4227
  347DG      C2 7960   1.045   0.619   0.454  0.0407  0.6403  0.3870
  347DG      H3 7961   1.382   1.398   0.521  1.0548 -0.4759  0.2291
  347DG      H4 7962   1.333   1.370   0.684  0.7557  0.3456 -0.6225
  347DG      H5 7963   1.204   1.374   0.565 -0.2365 -0.5350 -1.0650
  347DG      H6 7964   1.085   0.616   0.555  0.0107  2.2348  0.4635
  347DG      H7 7965   0.937   0.626   0.462 -0.0558 -0.9038  0.8858
  347DG      H8 7966   1.067   0.519   0.415  0.4169  0.2230  1.6021
  347DG      O9 7967   1.334   1.205   0.570  0.0528 -1.0421 -0.1494
  347DG     O10 7968   1.087   0.737   0.398 -0.8951  0.4787  0.2341
  347DG     C11 7969   1.296   1.173   0.433 -0.3236  0.4194 -0.3982
  347DG     C12 7970   1.217   0.738   0.338  0.1539 -0.5547 -0.3528
  347DG     H13 7971   1.360   1.231   0.367  0.9196 -0.2060  0.2325
  347DG     H14 7972   1.190   1.193   0.417 -0.3486 -0.1716 -1.0281
  347DG     H15 7973   1.232   0.816   0.262 -2.0964  0.8381  0.5227
  347DG     H16 7974   1.249   0.643   0.295  0.1329  0.1555 -2.0321
  347DG     C17 7975   1.334   1.033   0.390  0.4079 -0.3541 -1.1009
  347DG     C18 7976   1.315   0.792   0.444  0.4088  0.4412  0.1929
  347DG     O19 7977   1.291   0.924   0.476 -0.7397  0.0652 -0.3355
  347DG     H20 7978   1.441   1.028   0.367  0.0669 -0.3168 -2.8209
  347DG     H21 7979   1.283   1.018   0.294  0.7510 -2.1312 -1.0551
  347DG     H22 7980   1.299   0.731   0.533 -0.1697  0.0719 -0.1567
  347DG     H23 7981   1.419   0.783   0.414  0.5596  0.6924  0.6385
  348DG      C1 7982   5.461   3.816   4.337  0.2053 -0.1123 -0.2828
  348DG      C2 7983   5.559   3.102   4.844 -0.4485  1.0036 -0.3633
  348DG      H3 7984   5.367   3.843   4.289  0.4636 -1.3439 -1.5403
  348DG      H4 7985   5.536   3.797   4.260  0.9801 -1.6203  0.7904
  348DG      H5 7986   5.487   3.907   4.393  0.8113 -0.7809  0.5463
  348DG      H6 7987   5.544   2.996   4.862 -0.4450  0.5072 -2.9600
  348DG      H7 7988   5.666   3.113   4.829  0.4182 -1.0930  3.0909
  348DG      H8 7989   5.533   3.154   4.937 -0.3728  0.6078 -0.1210
  348DG      O9 7990   5.437   3.702   4.427  0.4607  0.3611  0.4133
  348DG     O10 7991   5.473   3.157   4.746  0.1999  0.2345  0.1143
  348DG     C11 7992   5.398   3.592   4.354  0.3079  0.2037 -0.0878
  348DG     C12 7993   5.510   3.286   4.699 -0.6833  1.1606  0.6706
  348DG     H13 7994   5.481   3.548   4.298  1.7980  0.4678  1.8197
  348DG     H14 7995   5.314   3.628   4.294 -0.4570  1.4100  1.6267
  348DG     H15 7996   5.599   3.288   4.635 -0.8160  0.7245  0.4731
  348DG     H16 7997   5.535   3.361   4.774 -0.0579  1.0863  0.5408
  348DG     C17 7998   5.334   3.504   4.457  0.0763 -0.7121  0.6836
  348DG     C18 7999   5.400   3.341   4.615  0.7630 -1.0933  0.4510
  348DG     O19 8000   5.437   3.456   4.544  0.0803  0.0100  0.0708
  348DG     H20 8001   5.292   3.417   4.406 -1.1166 -1.8830  3.4555
  348DG     H21 8002   5.243   3.544   4.502  0.8142  1.2546  0.5199
  348DG     H22 8003   5.367   3.270   4.540  0.0892 -0.1100 -0.2094
  348DG     H23 8004   5.316   3.363   4.681 -1.6910 -0.9567 -2.5030
  349DG      C1 8005   0.484   3.765   4.464  0.2663  0.4415  0.2309
  349DG      C2 8006   0.537   4.463   4.460  0.6287  0.5922  0.1265
  349DG      H3 8007   0.448   3.677   4.517 -0.2205  0.0304 -0.7544
  349DG      H4 8008   0.592   3.767   4.478  0.5318 -2.3437 -0.7693
  349DG      H5 8009   0.478   3.758   4.355 -0.5477  0.6583  0.2561
  349DG      H6 8010   0.512   4.558   4.508  3.0581  0.0508  2.7325
  349DG      H7 8011   0.637   4.452   4.500  0.5799  0.1815  0.1377
  349DG      H8 8012   0.538   4.468   4.351  0.4685 -1.4803 -0.0129
  349DG      O9 8013   0.413   3.886   4.502  0.0694 -0.1962  0.4323
  349DG     O10 8014   0.451   4.351   4.491 -0.0616  0.0204 -0.7907
  349DG     C11 8015   0.266   3.884   4.498  0.3139 -0.4604  0.5499
  349DG     C12 8016   0.306   4.366   4.478 -0.8187  0.6130 -0.4846
  349DG     H13 8017   0.222   3.803   4.557 -1.3529  1.3178  1.8697
  349DG     H14 8018   0.242   3.881   4.392 -0.0081  1.8481  0.5064
  349DG     H15 8019   0.297   4.368   4.369  2.9990  1.4276 -0.9246
  349DG     H16 8020   0.276   4.456   4.532  1.6031  1.5571 -0.5896
  349DG     C17 8021   0.207   4.022   4.550  0.0413 -1.0549 -0.4421
  349DG     C18 8022   0.228   4.252   4.540 -0.1700 -0.4562 -0.2999
  349DG     O19 8023   0.278   4.134   4.491  0.3183 -0.0996 -0.0652
  349DG     H20 8024   0.223   4.019   4.658  0.5947 -0.5249 -0.5093
  349DG     H21 8025   0.098   4.027   4.542 -0.0918 -2.4987  0.0437
  349DG     H22 8026   0.233   4.258   4.648  2.8179 -1.7644 -0.2564
  349DG     H23 8027   0.119   4.255   4.531 -0.4374  0.0007  2.4533
  350DG      C1 8028   1.672   4.019   4.521 -0.0012  0.6369  0.7321
  350DG      C2 8029   2.297   3.631   4.782 -0.3199 -0.0650 -0.3675
  350DG      H3 8030   1.732   4.067   4.443 -0.8961  1.0346  0.2661
  350DG      H4 8031   1.623   4.110   4.554 -0.7356  0.5016  0.0491
  350DG      H5 8032   1.607   3.950   4.467 -0.5698 -0.6217  2.8993
  350DG      H6 8033   2.375   3.599   4.714  1.3080  2.4365  0.1873
  350DG      H7 8034   2.298   3.740   4.781  0.2217 -0.0709 -0.8467
  350DG      H8 8035   2.337   3.600   4.879  2.0465  0.8717 -0.9788
  350DG      O9 8036   1.758   3.940   4.607  0.0215  0.2109  0.0953
  350DG     O10 8037   2.172   3.576   4.755  0.4011 -0.1912 -0.0414
  350DG     C11 8038   1.870   4.013   4.656  0.3829  0.4841 -0.1250
  350DG     C12 8039   2.069   3.597   4.859 -0.0249 -0.8145 -0.1353
  350DG     H13 8040   1.853   4.113   4.696  1.4638  0.2275  1.0463
  350DG     H14 8041   1.938   4.028   4.572  0.4658  0.6781 -0.0244
  350DG     H15 8042   2.109   3.564   4.955 -1.2246  0.1893  0.7452
  350DG     H16 8043   1.996   3.522   4.828  1.0794 -2.1795  0.4499
  350DG     C17 8044   1.931   3.934   4.772  1.0078 -0.1676  0.2446
  350DG     C18 8045   2.017   3.742   4.876  0.8548 -0.4491 -0.2857
  350DG     O19 8046   1.966   3.799   4.750 -0.4772 -0.3623 -0.0964
  350DG     H20 8047   1.854   3.938   4.849 -0.3903  4.6845 -1.0402
  350DG     H21 8048   2.008   3.997   4.817 -0.0387  2.0399 -0.8891
  350DG     H22 8049   1.926   3.740   4.935  1.7532  0.1673  1.1575
  350DG     H23 8050   2.086   3.805   4.932  0.8967 -0.8445  0.1195
  351DG      C1 8051   3.039   1.478   1.723  0.3469 -0.2818  0.1541
  351DG      C2 8052   2.909   1.180   1.102  0.2379 -0.5407  0.1953
  351DG      H3 8053   3.126   1.414   1.739  0.5385 -1.0229 -3.1472
  351DG      H4 8054   2.949   1.458   1.781  0.5040 -1.2671  0.0687
  351DG      H5 8055   3.073   1.569   1.773 -0.1105 -0.3675  0.6323
  351DG      H6 8056   2.966   1.205   1.013  0.8478  0.4348  0.8434
  351DG      H7 8057   2.962   1.098   1.149 -1.3126 -0.1165  2.8768
  351DG      H8 8058   2.817   1.136   1.063  1.0508 -1.7652 -0.4096
  351DG      O9 8059   3.004   1.494   1.583  0.9475 -0.1933  0.6511
  351DG     O10 8060   2.901   1.287   1.192  0.0494 -0.0408 -0.3884
  351DG     C11 8061   2.927   1.611   1.558  0.4980 -0.0473  0.0257
  351DG     C12 8062   2.804   1.382   1.148  0.9674 -0.4812  0.3503
  351DG     H13 8063   2.986   1.694   1.599  1.4752 -0.9872  0.5848
  351DG     H14 8064   2.837   1.606   1.618  0.6601  0.2768  0.3036
  351DG     H15 8065   2.709   1.346   1.186  2.0481 -0.8518  2.9078
  351DG     H16 8066   2.774   1.392   1.043 -2.4368  2.2448  1.3916
  351DG     C17 8067   2.905   1.626   1.409  0.3636 -0.5111  0.5523
  351DG     C18 8068   2.824   1.518   1.205 -0.3280  0.1496  0.1563
  351DG     O19 8069   2.843   1.511   1.347 -0.7022 -0.4792 -0.0175
  351DG     H20 8070   2.995   1.643   1.350 -0.6110  1.0608 -0.5683
  351DG     H21 8071   2.843   1.712   1.384  3.0232  1.3919  0.0261
  351DG     H22 8072   2.906   1.560   1.147 -1.0669 -0.9648 -1.7975
  351DG     H23 8073   2.742   1.589   1.194 -0.1012  0.3528 -0.2285
  352DG      C1 8074   1.362   2.998   3.628  1.0122  0.0852 -0.0729
  352DG      C2 8075   1.915   3.189   3.083 -0.1952  0.4501 -0.5902
  352DG      H3 8076   1.350   2.890   3.620  1.2928  0.1369 -1.5975
  352DG      H4 8077   1.313   3.051   3.546 -1.2775 -0.4626  0.8800
  352DG      H5 8078   1.322   3.035   3.722 -4.2666 -0.7062 -1.6879
  352DG      H6 8079   1.858   3.127   3.013  1.2445 -1.6576 -0.0095
  352DG      H7 8080   1.927   3.289   3.041 -3.6073  2.9303  3.5858
  352DG      H8 8081   2.010   3.137   3.094 -1.6512 -1.8261  2.9185
  352DG      O9 8082   1.502   3.037   3.620  0.0357 -0.1438 -0.2882
  352DG     O10 8083   1.852   3.205   3.210 -0.0667 -0.6765 -1.0757
  352DG     C11 8084   1.511   3.179   3.610 -0.0803  0.4452 -0.2096
  352DG     C12 8085   1.891   3.117   3.311 -0.2293 -0.3587 -0.1395
  352DG     H13 8086   1.463   3.217   3.700  1.3759  3.5062 -0.6147
  352DG     H14 8087   1.459   3.224   3.525  0.1727  0.5527 -0.3079
  352DG     H15 8088   2.000   3.107   3.307 -0.0715  0.0296  2.0369
  352DG     H16 8089   1.852   3.016   3.303  0.7712 -0.6413 -2.4630
  352DG     C17 8090   1.665   3.194   3.610  0.0605  0.5467  0.0318
  352DG     C18 8091   1.851   3.171   3.454 -0.6422  0.3052 -0.5879
  352DG     O19 8092   1.712   3.154   3.478 -0.2086  0.0364 -0.0917
  352DG     H20 8093   1.723   3.139   3.684 -0.6443  0.4239  0.5075
  352DG     H21 8094   1.685   3.299   3.633  0.7335  0.5704 -0.6506
  352DG     H22 8095   1.894   3.114   3.537 -0.3838 -0.1994 -1.0690
  352DG     H23 8096   1.875   3.277   3.468  2.0292 -0.2540 -0.5297
  353DG      C1 8097   0.975   5.395   0.900 -0.2683 -0.0472 -0.0385
  353DG      C2 8098   0.890   5.061   0.327  0.0981 -0.1379 -0.5494
  353DG      H3 8099   1.063   5.457   0.885  0.3192 -0.9235 -0.3199
  353DG      H4 8100   1.013   5.297   0.929  1.9588  0.1153 -2.0732
  353DG      H5 8101   0.919   5.437   0.984  1.5668 -1.4762  2.0121
  353DG      H6 8102   0.818   4.979   0.327 -1.7954  1.4403  0.9480
  353DG      H7 8103   0.899   5.105   0.228  1.2575 -1.3987 -1.0485
  353DG      H8 8104   0.988   5.020   0.351  0.5969  0.4312 -1.5752
  353DG      O9 8105   0.902   5.385   0.781 -0.2799 -0.0744  0.2457
  353DG     O10 8106   0.859   5.165   0.420 -0.6862 -0.5285  1.1490
  353DG     C11 8107   0.793   5.476   0.773  0.1101 -0.5034  0.5009
  353DG     C12 8108   0.720   5.202   0.415 -0.0325 -0.1761  0.6406
  353DG     H13 8109   0.813   5.572   0.820  1.6806 -0.4614 -0.1728
  353DG     H14 8110   0.696   5.433   0.798 -0.2280 -0.2588 -0.3484
  353DG     H15 8111   0.656   5.114   0.420  0.4431 -0.9037 -3.0973
  353DG     H16 8112   0.707   5.260   0.323  3.5673 -1.3798 -0.7959
  353DG     C17 8113   0.779   5.509   0.627  0.7569 -0.8244 -0.5423
  353DG     C18 8114   0.692   5.296   0.527 -0.4757 -0.3041  0.8556
  353DG     O19 8115   0.791   5.405   0.526 -0.3302 -0.3554 -0.3566
  353DG     H20 8116   0.838   5.595   0.597 -0.0377  0.1004  0.4473
  353DG     H21 8117   0.677   5.547   0.612  0.3947 -1.9359 -1.0032
  353DG     H22 8118   0.593   5.340   0.512 -0.3452 -0.4284 -0.4979
  353DG     H23 8119   0.688   5.237   0.618  0.2615 -2.6280 -0.5268
  354DG      C1 8120   4.936   1.321   4.972  0.4094  0.1733 -0.1324
  354DG      C2 8121   5.112   0.756   5.088 -0.4453  0.4286 -0.3435
  354DG      H3 8122   4.887   1.414   4.945  0.0978  1.2066  3.5200
  354DG      H4 8123   4.907   1.257   4.888 -0.4863  0.0221  0.2809
  354DG      H5 8124   5.042   1.346   4.976  0.1997  1.1169 -0.3034
  354DG      H6 8125   5.103   0.651   5.059 -0.8164  0.0084  1.1859
  354DG      H7 8126   5.199   0.793   5.034 -0.9188  1.0643 -0.6844
  354DG      H8 8127   5.132   0.776   5.193 -3.4754  1.0760  0.2094
  354DG      O9 8128   4.882   1.269   5.095  0.1461  0.2611 -0.1218
  354DG     O10 8129   5.004   0.843   5.035 -0.4913 -0.4418 -0.4076
  354DG     C11 8130   4.738   1.246   5.115 -0.0334 -0.2497 -0.4394
  354DG     C12 8131   4.875   0.801   5.072 -0.0765  0.4282  0.0320
  354DG     H13 8132   4.691   1.336   5.076 -2.7135 -1.2707  0.1698
  354DG     H14 8133   4.702   1.243   5.218  0.1869  0.9905 -0.3023
  354DG     H15 8134   4.878   0.785   5.179  1.1671  1.1106  0.1177
  354DG     H16 8135   4.856   0.704   5.025  0.1152 -0.9731  2.6779
  354DG     C17 8136   4.701   1.121   5.044  0.3078  0.1703 -0.3089
  354DG     C18 8137   4.764   0.893   5.022 -0.1905 -0.2383 -0.2498
  354DG     O19 8138   4.792   1.017   5.086 -0.5543 -0.8112 -0.1246
  354DG     H20 8139   4.703   1.129   4.935  1.1882 -0.1554 -0.3286
  354DG     H21 8140   4.598   1.109   5.077  0.4129  1.6633  0.6599
  354DG     H22 8141   4.774   0.903   4.914 -0.8469  2.4754 -0.1166
  354DG     H23 8142   4.664   0.858   5.047 -0.4797  0.4592 -0.4139
  355DG      C1 8143   1.503   2.969   5.358 -0.0536  0.0979  0.4621
  355DG      C2 8144   1.772   2.346   5.230 -0.1776 -0.0700  0.4479
  355DG      H3 8145   1.518   3.069   5.400  1.5816 -0.5478  1.5372
  355DG      H4 8146   1.586   2.937   5.294 -2.5677 -2.4852 -1.7381
  355DG      H5 8147   1.520   2.906   5.445  2.5255  1.0674  0.7765
  355DG      H6 8148   1.763   2.254   5.288  1.2927 -2.1506 -2.3675
  355DG      H7 8149   1.778   2.321   5.124  0.3566  0.2798  0.3882
  355DG      H8 8150   1.872   2.384   5.251 -0.6014  2.0724 -1.0649
  355DG      O9 8151   1.378   2.955   5.288 -0.1035  0.5012  0.3681
  355DG     O10 8152   1.664   2.433   5.248  0.2787  0.1521  0.4651
  355DG     C11 8153   1.349   2.838   5.214  0.1420  0.5357  0.2990
  355DG     C12 8154   1.655   2.493   5.376  0.6808 -0.0809 -0.2958
  355DG     H13 8155   1.425   2.832   5.136 -2.0804 -0.1332 -1.9842
  355DG     H14 8156   1.254   2.836   5.159  0.5446 -1.0056 -0.3929
  355DG     H15 8157   1.731   2.568   5.398 -0.0413  0.2934  1.0743
  355DG     H16 8158   1.679   2.410   5.442  2.0429  1.6044  1.4796
  355DG     C17 8159   1.358   2.703   5.293 -0.1044 -0.2465 -0.2503
  355DG     C18 8160   1.511   2.546   5.396 -0.4560 -0.0809 -0.1228
  355DG     O19 8161   1.492   2.651   5.298 -0.5045  0.5020 -0.3899
  355DG     H20 8162   1.294   2.620   5.266  1.1899 -1.8097  1.3057
  355DG     H21 8163   1.325   2.725   5.394  0.2205  1.2118 -0.4270
  355DG     H22 8164   1.441   2.464   5.378 -0.0667 -0.1115 -1.6059
  355DG     H23 8165   1.497   2.582   5.498  2.4346  0.0348  0.3083
  356DG      C1 8166   1.237   5.380   3.645 -0.0543 -0.0613 -0.1808
  356DG      C2 8167   0.646   5.529   3.257 -0.4802 -0.9431  0.1995
  356DG      H3 8168   1.227   5.273   3.627 -0.0598  0.2719 -2.5803
  356DG      H4 8169   1.307   5.394   3.727  2.2652  3.2989 -2.4533
  356DG      H5 8170   1.290   5.404   3.552  0.9606 -0.4693  0.2775
  356DG      H6 8171   0.602   5.624   3.227  1.6241 -0.6038 -2.1427
  356DG      H7 8172   0.722   5.521   3.180 -0.1871  1.3749  0.1690
  356DG      H8 8173   0.579   5.445   3.242 -0.4903 -0.7142 -1.1250
  356DG      O9 8174   1.110   5.446   3.677  0.1030 -0.7279  0.7899
  356DG     O10 8175   0.721   5.536   3.375 -0.1813 -0.3281  0.1888
  356DG     C11 8176   1.017   5.393   3.773  0.7844 -0.5107 -0.2186
  356DG     C12 8177   0.628   5.534   3.491  0.3895 -0.2953  0.6018
  356DG     H13 8178   1.066   5.392   3.871 -0.0325 -0.5499  0.2026
  356DG     H14 8179   0.995   5.288   3.756 -0.7220 -0.1997 -0.3787
  356DG     H15 8180   0.574   5.440   3.488  0.8838 -0.6454 -3.5986
  356DG     H16 8181   0.562   5.621   3.483  2.5314  1.2704 -1.7061
  356DG     C17 8182   0.883   5.470   3.766  0.5229 -0.2995 -0.2490
  356DG     C18 8183   0.712   5.549   3.619  0.5622 -0.2111 -0.0067
  356DG     O19 8184   0.822   5.464   3.640 -0.0190  0.1248 -0.1060
  356DG     H20 8185   0.905   5.573   3.793 -1.1127 -0.4536  2.0260
  356DG     H21 8186   0.816   5.431   3.843 -3.1432  1.0245 -2.5247
  356DG     H22 8187   0.736   5.655   3.629 -1.7588  0.1606  3.0389
  356DG     H23 8188   0.640   5.525   3.697  2.6778 -1.0768  1.7938
  357DG      C1 8189   1.220   4.527   3.474 -0.3960 -0.1827  0.0052
  357DG      C2 8190   0.902   4.703   2.882  0.1794 -0.3530 -0.6381
  357DG      H3 8191   1.307   4.561   3.531 -0.2687  0.7053 -0.7019
  357DG      H4 8192   1.245   4.429   3.436  0.6535 -0.2703  0.8470
  357DG      H5 8193   1.134   4.512   3.539 -0.7470 -0.3268 -0.4946
  357DG      H6 8194   0.985   4.647   2.839  1.6472  0.2365  1.3042
  357DG      H7 8195   0.819   4.637   2.908  0.9943 -1.2639 -0.3084
  357DG      H8 8196   0.882   4.785   2.813 -1.2455  0.1527  0.3232
  357DG      O9 8197   1.201   4.631   3.378 -0.0666  0.2770 -0.4829
  357DG     O10 8198   0.949   4.763   3.003 -0.0148  0.4241  0.5084
  357DG     C11 8199   1.158   4.754   3.441 -0.3896  0.5479  0.0094
  357DG     C12 8200   1.050   4.862   2.985 -0.3319 -0.1304 -0.0550
  357DG     H13 8201   1.210   4.776   3.534 -1.3864  0.3687  0.6239
  357DG     H14 8202   1.050   4.742   3.455 -0.3905  1.3579  0.7241
  357DG     H15 8203   1.016   4.946   2.925  0.9293  1.8137  1.8134
  357DG     H16 8204   1.142   4.819   2.944  0.6708  0.3904  1.5793
  357DG     C17 8205   1.181   4.866   3.339  0.2789  0.3714  0.3720
  357DG     C18 8206   1.081   4.923   3.127  0.2840  0.4172 -0.4510
  357DG     O19 8207   1.128   4.818   3.210  0.5017 -0.3293 -0.0500
  357DG     H20 8208   1.286   4.894   3.328  0.5895 -1.3714 -1.9886
  357DG     H21 8209   1.132   4.958   3.367 -0.4574  0.4251 -1.0038
  357DG     H22 8210   1.165   4.989   3.106  0.7117  0.6455  1.7595
  357DG     H23 8211   0.999   4.983   3.164 -0.9911 -2.3133  1.5022
  358DG      C1 8212   2.389   5.031   1.291 -0.2696 -0.2835 -0.8592
  358DG      C2 8213   3.030   4.922   1.670 -0.4329 -0.0111  0.3565
  358DG      H3 8214   2.351   4.956   1.221 -0.5345  0.5473 -1.6214
  358DG      H4 8215   2.340   5.127   1.274 -0.5808  0.0426  1.5228
  358DG      H5 8216   2.355   4.990   1.386  1.6387 -2.2318 -0.9268
  358DG      H6 8217   3.024   4.901   1.776 -2.3666  1.9818  0.7335
  358DG      H7 8218   3.129   4.897   1.632  0.3593  2.5617  0.5386
  358DG      H8 8219   3.017   5.028   1.648  1.0771  0.1763  0.3076
  358DG      O9 8220   2.534   5.037   1.289 -0.5592  0.2010  0.1811
  358DG     O10 8221   2.933   4.837   1.611  0.1559  0.3485 -0.4990
  358DG     C11 8222   2.591   5.152   1.356  0.2023  0.6560  0.3965
  358DG     C12 8223   2.937   4.827   1.471 -0.3276  0.6546  0.0764
  358DG     H13 8224   2.546   5.149   1.456 -0.3097  0.8466  0.1764
  358DG     H14 8225   2.563   5.244   1.306  1.3397  0.5281 -0.5098
  358DG     H15 8226   2.850   4.764   1.451  0.9840 -1.7556  1.4791
  358DG     H16 8227   3.027   4.785   1.426 -1.5739  1.8553 -3.9570
  358DG     C17 8228   2.742   5.133   1.355 -0.1744 -0.0752  0.0113
  358DG     C18 8229   2.906   4.958   1.394 -0.3851  0.8271  0.2010
  358DG     O19 8230   2.775   5.007   1.411 -0.1219 -0.4963 -0.2530
  358DG     H20 8231   2.784   5.217   1.411 -0.0313 -1.2516  1.7318
  358DG     H21 8232   2.780   5.117   1.254 -1.7524  0.6977 -0.7439
  358DG     H22 8233   2.981   5.032   1.424  1.3680  0.9390 -3.8962
  358DG     H23 8234   2.925   4.939   1.289  0.2175  0.1539  0.4219
  359DG      C1 8235   4.059   4.017   1.170 -0.6514  0.3138 -0.0901
  359DG      C2 8236   4.790   4.130   1.188 -0.6999 -0.0651 -0.3718
  359DG      H3 8237   3.987   3.938   1.146 -1.5199  1.3263 -0.9592
  359DG      H4 8238   4.105   4.049   1.076  0.8550 -1.1662  0.0969
  359DG      H5 8239   4.008   4.107   1.205 -1.0626 -0.3113  0.9566
  359DG      H6 8240   4.754   4.233   1.199 -0.7910  0.0982 -1.9279
  359DG      H7 8241   4.882   4.114   1.243  0.7685 -0.4061 -2.7835
  359DG      H8 8242   4.808   4.118   1.081 -0.3097  0.4396 -0.3655
  359DG      O9 8243   4.162   3.984   1.260 -0.3015  0.0580  0.2446
  359DG     O10 8244   4.692   4.026   1.212 -0.0976  0.0498  0.0891
  359DG     C11 8245   4.224   3.866   1.223 -0.0053  0.2167  0.0588
  359DG     C12 8246   4.662   4.024   1.348  0.3646  0.1254 -0.1125
  359DG     H13 8247   4.257   3.877   1.120 -3.0549  0.1292 -1.0486
  359DG     H14 8248   4.155   3.782   1.229  0.4592 -0.2126 -0.6158
  359DG     H15 8249   4.612   4.113   1.388 -2.6963 -1.4447 -0.1077
  359DG     H16 8250   4.744   3.995   1.413  1.1824 -1.0565 -1.6258
  359DG     C17 8251   4.341   3.834   1.311  0.1722 -0.6314 -0.1755
  359DG     C18 8252   4.557   3.914   1.372 -0.1362  0.2260 -0.8151
  359DG     O19 8253   4.439   3.929   1.292 -0.5424 -0.1680 -0.7247
  359DG     H20 8254   4.382   3.735   1.291  1.8873  0.3360 -1.7718
  359DG     H21 8255   4.310   3.839   1.416  1.7169  0.2485  0.2822
  359DG     H22 8256   4.593   3.811   1.359  0.6124  0.3500  0.1437
  359DG     H23 8257   4.523   3.926   1.475 -0.1552  2.2600 -1.0307
  360DG      C1 8258   4.429   4.084   0.770 -0.2367 -0.5433  0.1823
  360DG      C2 8259   4.608   4.788   1.128 -0.4066  0.2044 -0.1199
  360DG      H3 8260   4.488   3.993   0.763  1.0427  0.3699 -2.8659
  360DG      H4 8261   4.498   4.160   0.731 -0.0466 -1.3804 -1.1931
  360DG      H5 8262   4.349   4.071   0.697  0.4533  2.7912 -1.3906
  360DG      H6 8263   4.526   4.847   1.168  1.1897  2.4496  0.0330
  360DG      H7 8264   4.701   4.826   1.171 -0.4762 -0.3698  0.5445
  360DG      H8 8265   4.615   4.802   1.020 -0.0585 -1.5781 -0.3638
  360DG      O9 8266   4.380   4.140   0.894 -1.3829  0.6145  0.3501
  360DG     O10 8267   4.595   4.649   1.160 -0.1151 -0.0249 -0.6079
  360DG     C11 8268   4.475   4.145   1.000  0.3087 -0.3125  0.2071
  360DG     C12 8269   4.500   4.585   1.073 -0.3127  0.3492  0.0508
  360DG     H13 8270   4.562   4.197   0.959  0.6231 -0.9646  0.0335
  360DG     H14 8271   4.504   4.046   1.035  1.5463  0.0164  0.1631
  360DG     H15 8272   4.523   4.613   0.971 -0.1571  0.9657  0.2528
  360DG     H16 8273   4.405   4.622   1.111  1.2912  2.5769  2.2302
  360DG     C17 8274   4.411   4.216   1.108 -0.1977  0.5959 -0.4608
  360DG     C18 8275   4.520   4.435   1.119  1.3780 -0.1503  0.2255
  360DG     O19 8276   4.401   4.357   1.088  0.7924  0.3189  0.7781
  360DG     H20 8277   4.473   4.190   1.194  1.1010 -0.8892 -1.7714
  360DG     H21 8278   4.309   4.184   1.131 -0.1870  0.9734  0.1329
  360DG     H22 8279   4.598   4.385   1.062 -0.0418 -0.7246 -1.2949
  360DG     H23 8280   4.561   4.427   1.219 -0.5649  0.7840  1.1464
  361DG      C1 8281   1.191   2.736   4.057  0.8334  0.1291  0.2167
  361DG      C2 8282   1.081   3.303   4.187 -0.0692 -0.5060  1.2778
  361DG      H3 8283   1.115   2.707   3.984  1.1950 -1.4694  0.4385
  361DG      H4 8284   1.193   2.840   4.089  2.6532  0.3575 -0.5098
  361DG      H5 8285   1.157   2.677   4.141 -1.2289  0.1282 -0.5705
  361DG      H6 8286   1.142   3.389   4.216  1.4410 -1.2637  0.4942
  361DG      H7 8287   1.016   3.318   4.100 -0.3822 -1.0123  1.4239
  361DG      H8 8288   1.016   3.264   4.264 -2.5063  0.8035 -0.0064
  361DG      O9 8289   1.325   2.698   4.013 -0.2484  0.1322  0.3104
  361DG     O10 8290   1.163   3.192   4.162  0.3222 -0.0816  0.0917
  361DG     C11 8291   1.384   2.784   3.915 -0.1002  0.4245  0.7165
  361DG     C12 8292   1.270   3.232   4.076 -0.0493 -0.1193  0.8577
  361DG     H13 8293   1.312   2.818   3.840 -0.1111  0.3860  0.7096
  361DG     H14 8294   1.457   2.734   3.852 -1.6636  0.9361 -1.6679
  361DG     H15 8295   1.311   3.326   4.111 -1.4885  0.2929  1.5093
  361DG     H16 8296   1.229   3.253   3.978  2.7526  1.1826 -0.1201
  361DG     C17 8297   1.444   2.910   3.981 -0.3795 -0.1583 -0.4974
  361DG     C18 8298   1.380   3.119   4.074 -0.8995 -0.4350 -0.7388
  361DG     O19 8299   1.338   2.999   4.002  0.3214 -0.3723  1.2176
  361DG     H20 8300   1.509   2.948   3.902  0.6070  1.3800  0.9794
  361DG     H21 8301   1.497   2.886   4.073  0.1803  1.2363 -0.4289
  361DG     H22 8302   1.470   3.150   4.022 -0.0026  0.7690  1.3749
  361DG     H23 8303   1.411   3.100   4.177 -0.4311 -0.4528 -0.8811
  362DG      C1 8304   2.699   4.792   0.083 -0.3466 -0.0877 -0.9924
  362DG      C2 8305   3.448   4.995   0.446  0.4876 -0.4282 -0.1345
  362DG      H3 8306   2.678   4.699   0.136  2.9729  0.6787  2.0836
  362DG      H4 8307   2.645   4.788  -0.011 -0.6031 -2.5488 -0.8136
  362DG      H5 8308   2.660   4.866   0.153 -0.6986 -1.3489  0.1890
  362DG      H6 8309   3.400   5.006   0.543  1.0865  1.9738 -0.0458
  362DG      H7 8310   3.544   4.943   0.445  0.2363 -0.8898 -0.5300
  362DG      H8 8311   3.455   5.099   0.415  0.1390 -0.2475  0.3766
  362DG      O9 8312   2.837   4.809   0.054 -0.2610  0.0875 -0.3365
  362DG     O10 8313   3.364   4.945   0.338 -0.3195  0.2376 -0.4428
  362DG     C11 8314   2.916   4.850   0.169 -0.5194 -0.4934 -0.1361
  362DG     C12 8315   3.346   4.809   0.353  0.1674  0.9055 -0.0491
  362DG     H13 8316   2.875   4.805   0.259  0.8106 -1.2744  0.0987
  362DG     H14 8317   2.904   4.957   0.190 -1.5212 -0.3957 -1.1395
  362DG     H15 8318   3.287   4.785   0.442  1.2075  2.3753  1.0835
  362DG     H16 8319   3.440   4.755   0.362 -0.5391 -0.8626 -2.3997
  362DG     C17 8320   3.063   4.827   0.139 -0.5772  0.2489 -0.2545
  362DG     C18 8321   3.262   4.769   0.229  0.3417  0.1699  0.0227
  362DG     O19 8322   3.143   4.836   0.254 -0.0391  0.1159  0.3629
  362DG     H20 8323   3.085   4.899   0.060  0.6017  0.9943  0.7333
  362DG     H21 8324   3.080   4.733   0.087 -2.5649  1.0683 -2.6300
  362DG     H22 8325   3.316   4.808   0.143 -1.2627 -1.0051 -1.6016
  362DG     H23 8326   3.261   4.664   0.201 -0.0157  0.4600 -1.1297
  363DG      C1 8327   2.011   5.293   3.323  0.0017  0.0967 -0.2286
  363DG      C2 8328   2.025   5.294   4.016  0.0961 -0.0485  1.0044
  363DG      H3 8329   2.095   5.224   3.313 -0.1935 -0.2279  0.3120
  363DG      H4 8330   2.002   5.370   3.246  1.4444  1.0738  0.5313
  363DG      H5 8331   1.917   5.238   3.315 -1.5917  2.2163  2.1984
  363DG      H6 8332   2.003   5.188   4.004  0.1389 -0.1184  1.4998
  363DG      H7 8333   2.134   5.303   4.017  0.2344 -0.5263 -1.6720
  363DG      H8 8334   1.968   5.309   4.108  0.5620 -0.8942  1.4420
  363DG      O9 8335   2.006   5.358   3.450  0.1302  0.2778  0.3226
  363DG     O10 8336   1.983   5.371   3.906 -0.4779  0.3475 -0.3384
  363DG     C11 8337   2.097   5.460   3.467  1.1928  0.4715  0.0375
  363DG     C12 8338   2.005   5.512   3.924  0.0891 -0.1037 -0.0895
  363DG     H13 8339   2.111   5.509   3.370  0.5395  0.3720 -0.1121
  363DG     H14 8340   2.194   5.425   3.500  1.4032 -0.4754 -1.4895
  363DG     H15 8341   2.111   5.530   3.945  0.5771 -3.9560  1.4734
  363DG     H16 8342   1.939   5.549   4.003 -1.2618 -1.2336 -0.6601
  363DG     C17 8343   2.050   5.557   3.579  0.5983  0.0223  0.1247
  363DG     C18 8344   1.974   5.568   3.792 -0.0645  1.0671  0.8957
  363DG     O19 8345   2.041   5.487   3.700 -0.0398 -0.2162  0.8155
  363DG     H20 8346   1.952   5.601   3.557  1.5623  1.5928 -1.3760
  363DG     H21 8347   2.126   5.634   3.591  0.3727  0.3819 -0.6392
  363DG     H22 8348   1.866   5.556   3.785 -0.0095 -0.0960  1.8670
  363DG     H23 8349   2.009   5.671   3.786 -0.6123  1.2138 -0.1415
  364DG      C1 8350   1.922   4.452   4.595 -0.0282  0.5356  0.2011
  364DG      C2 8351   1.253   4.284   5.126  0.8285 -1.0304  0.6580
  364DG      H3 8352   1.851   4.403   4.529 -1.3454  0.5732  1.5531
  364DG      H4 8353   2.019   4.423   4.553  1.5070  2.1847  2.3734
  364DG      H5 8354   1.897   4.558   4.596 -0.0210  0.6619  4.4488
  364DG      H6 8355   1.176   4.361   5.123 -1.5606 -3.2967 -2.0093
  364DG      H7 8356   1.210   4.196   5.077  2.1691 -1.3036 -0.0843
  364DG      H8 8357   1.281   4.254   5.227  2.6097 -2.9773 -0.3376
  364DG      O9 8358   1.905   4.406   4.728 -0.0828 -0.1771 -0.4150
  364DG     O10 8359   1.363   4.311   5.048  0.0946  0.3020 -0.0720
  364DG     C11 8360   1.784   4.444   4.792  0.2990 -0.2617  0.3013
  364DG     C12 8361   1.338   4.338   4.913 -0.2147 -0.0885  0.0836
  364DG     H13 8362   1.749   4.546   4.775  0.0900 -0.5612 -1.1780
  364DG     H14 8363   1.795   4.435   4.900 -0.1589 -2.3726  0.2087
  364DG     H15 8364   1.316   4.444   4.899 -1.8594 -0.3333  0.5554
  364DG     H16 8365   1.249   4.282   4.883 -0.7764  0.3629  0.8578
  364DG     C17 8366   1.674   4.345   4.760  0.0269  0.2555 -0.1725
  364DG     C18 8367   1.455   4.286   4.820  0.1928  0.0569 -0.8042
  364DG     O19 8368   1.562   4.374   4.840  0.1978  0.2787  0.0923
  364DG     H20 8369   1.710   4.247   4.790  0.4334 -0.0052 -1.4633
  364DG     H21 8370   1.659   4.341   4.652 -0.1758 -0.0931 -0.1330
  364DG     H22 8371   1.479   4.182   4.841 -0.2542 -0.0491 -0.8050
  364DG     H23 8372   1.419   4.311   4.720 -1.6354 -0.4833 -0.3317
  365DG      C1 8373   1.996   5.416   4.371  0.2033 -0.0894 -0.8117
  365DG      C2 8374   2.576   5.385   3.823 -0.0827  0.1103  0.0170
  365DG      H3 8375   2.021   5.310   4.370 -0.1133 -0.1958  0.5770
  365DG      H4 8376   1.924   5.441   4.293 -1.3229  0.2788  0.6438
  365DG      H5 8377   1.952   5.439   4.468 -0.5584 -0.2716 -1.1073
  365DG      H6 8378   2.536   5.338   3.733  0.9800  1.7827 -1.3848
  365DG      H7 8379   2.573   5.492   3.807 -0.3303 -0.0894 -1.4325
  365DG      H8 8380   2.682   5.361   3.821 -0.7469 -3.3529 -1.8389
  365DG      O9 8381   2.106   5.503   4.346 -0.1471  0.5548 -0.1694
  365DG     O10 8382   2.534   5.332   3.947 -0.4937  0.0853  0.6890
  365DG     C11 8383   2.216   5.484   4.429 -0.5541 -0.0061  0.3029
  365DG     C12 8384   2.470   5.429   4.031  0.4407 -0.1544  0.2762
  365DG     H13 8385   2.190   5.451   4.529 -0.9507  1.0245  0.5497
  365DG     H14 8386   2.264   5.581   4.443 -0.4473  0.1702 -1.0795
  365DG     H15 8387   2.373   5.443   3.983 -0.3414 -2.2636  1.0673
  365DG     H16 8388   2.507   5.530   4.045 -1.2575  0.3389  1.6201
  365DG     C17 8389   2.316   5.383   4.369 -0.5066 -0.1998  0.2698
  365DG     C18 8390   2.446   5.371   4.174  0.2504  0.4613  0.2105
  365DG     O19 8391   2.372   5.454   4.260  0.1641  0.1652 -0.1762
  365DG     H20 8392   2.260   5.293   4.344 -0.0701 -0.5085  0.4027
  365DG     H21 8393   2.392   5.358   4.443 -2.0802 -2.8327  1.1268
  365DG     H22 8394   2.390   5.281   4.146  2.0858 -0.0205 -2.2159
  365DG     H23 8395   2.543   5.340   4.213  0.2294 -0.7780 -0.6696
  366DG      C1 8396   0.452   3.413   1.915 -0.2176 -0.2776 -0.0573
  366DG      C2 8397  -0.167   3.194   2.154 -0.4977  0.5832 -0.4416
  366DG      H3 8398   0.453   3.405   2.023  0.0921 -0.9723 -0.1024
  366DG      H4 8399   0.427   3.518   1.905 -0.4329 -0.3428 -0.2157
  366DG      H5 8400   0.549   3.389   1.871  1.0009  3.0901  0.5562
  366DG      H6 8401  -0.196   3.152   2.250 -3.6614  0.7635 -1.2005
  366DG      H7 8402  -0.171   3.303   2.161 -2.9122  0.4376  1.8195
  366DG      H8 8403  -0.249   3.179   2.083 -0.8036 -1.0557  0.2142
  366DG      O9 8404   0.356   3.319   1.865 -0.5045  0.7247 -0.0412
  366DG     O10 8405  -0.043   3.151   2.102 -0.0216 -0.2845 -0.4382
  366DG     C11 8406   0.401   3.188   1.872  0.2255 -0.2897 -0.8008
  366DG     C12 8407  -0.047   3.033   2.025  0.2902  0.7022  0.5544
  366DG     H13 8408   0.457   3.175   1.965 -0.8744  2.1256  0.2911
  366DG     H14 8409   0.468   3.172   1.788  3.1940  3.0045  0.6709
  366DG     H15 8410  -0.119   3.044   1.944  1.8089  0.2488 -0.9074
  366DG     H16 8411  -0.085   2.946   2.079 -0.5043  0.1865 -0.8004
  366DG     C17 8412   0.289   3.087   1.862 -0.0616 -0.2511 -0.2233
  366DG     C18 8413   0.094   2.997   1.967  0.5705 -0.2517  0.9776
  366DG     O19 8414   0.176   3.106   1.950  0.3283 -0.4080  0.3570
  366DG     H20 8415   0.334   2.990   1.882 -2.3713 -1.5959 -1.0752
  366DG     H21 8416   0.251   3.092   1.760  1.2373  1.6275 -0.6745
  366DG     H22 8417   0.148   2.924   2.028  0.1898 -2.4059 -1.0993
  366DG     H23 8418   0.077   2.937   1.878 -1.3918 -0.0399  1.1689
  367DG      C1 8419   5.032   3.151   0.963  0.3879  0.2936  0.0807
  367DG      C2 8420   5.335   3.612   1.529 -0.6271  0.3179  0.6196
  367DG      H3 8421   5.074   3.099   0.877 -0.3381 -0.1223 -0.0364
  367DG      H4 8422   4.928   3.162   0.932 -0.0104  1.2196  1.6284
  367DG      H5 8423   5.031   3.083   1.049 -2.1202  2.3582  1.8377
  367DG      H6 8424   5.307   3.713   1.497 -2.4754 -0.2446  0.3024
  367DG      H7 8425   5.256   3.584   1.599 -0.8537 -1.4094 -0.2723
  367DG      H8 8426   5.432   3.615   1.578 -0.5595  1.0717  0.4537
  367DG      O9 8427   5.089   3.277   0.990 -0.7049 -0.7978  0.4262
  367DG     O10 8428   5.335   3.515   1.417  0.4233 -0.2402  0.3268
  367DG     C11 8429   5.026   3.350   1.095 -0.9848  0.1094 -0.2003
  367DG     C12 8430   5.373   3.563   1.285  0.0648 -0.0323 -0.1685
  367DG     H13 8431   4.992   3.297   1.185 -1.5741  1.5029  0.4242
  367DG     H14 8432   4.940   3.395   1.045  0.2801  2.1105 -0.6490
  367DG     H15 8433   5.473   3.601   1.302  0.1174 -0.2734  0.0698
  367DG     H16 8434   5.300   3.644   1.279 -1.0519 -0.7249  2.3801
  367DG     C17 8435   5.121   3.459   1.133  0.2289 -0.7490  0.4438
  367DG     C18 8436   5.360   3.470   1.164 -0.2414  0.1375 -0.7138
  367DG     O19 8437   5.246   3.392   1.175  0.8879  0.0717  0.2760
  367DG     H20 8438   5.089   3.521   1.217  1.1071  0.6053 -0.1911
  367DG     H21 8439   5.133   3.524   1.046  0.1557 -0.4849  0.6280
  367DG     H22 8440   5.376   3.518   1.067 -1.2683 -1.4513 -1.7151
  367DG     H23 8441   5.444   3.401   1.176  0.9587  1.6545 -0.0317
  368DG      C1 8442   0.392   2.140   2.531  0.2540 -0.3523  0.0176
  368DG      C2 8443   0.879   2.470   2.795  0.2758 -0.6040 -0.1797
  368DG      H3 8444   0.449   2.158   2.440  0.1265  1.7076  0.3066
  368DG      H4 8445   0.301   2.199   2.519 -0.7157 -2.0667 -1.7860
  368DG      H5 8446   0.345   2.041   2.535 -3.2276  1.2015  1.7141
  368DG      H6 8447   0.969   2.427   2.838  0.4602  1.2965  1.4798
  368DG      H7 8448   0.886   2.464   2.686  1.2126 -1.2435 -0.0977
  368DG      H8 8449   0.866   2.572   2.832 -2.5537 -0.1199 -2.2106
  368DG      O9 8450   0.463   2.164   2.645 -0.0689 -0.4583 -0.5402
  368DG     O10 8451   0.769   2.383   2.825 -0.1584  0.5242 -0.1289
  368DG     C11 8452   0.366   2.167   2.755 -0.1942 -0.0884  0.2607
  368DG     C12 8453   0.693   2.440   2.932  0.4344 -0.4156  0.0099
  368DG     H13 8454   0.307   2.076   2.769  1.6694 -1.2842  0.6732
  368DG     H14 8455   0.294   2.248   2.752 -0.5969 -0.3615  1.8165
  368DG     H15 8456   0.645   2.533   2.902 -0.7483 -0.9571  0.1598
  368DG     H16 8457   0.755   2.453   3.020 -0.0137  0.1969  0.2415
  368DG     C17 8458   0.434   2.196   2.888 -0.3920 -0.0271 -0.4230
  368DG     C18 8459   0.597   2.333   2.981 -0.7843 -0.4872 -0.3465
  368DG     O19 8460   0.527   2.301   2.867 -0.4066  0.7936 -0.7525
  368DG     H20 8461   0.485   2.104   2.916 -0.9326 -0.2561 -0.1691
  368DG     H21 8462   0.367   2.219   2.971 -1.2398 -0.9141 -0.8398
  368DG     H22 8463   0.655   2.249   3.020 -1.1539 -0.5781  0.0262
  368DG     H23 8464   0.533   2.361   3.065 -0.3959 -1.6495  0.3703
  369DG      C1 8465   2.239   2.620   5.067 -0.3583  0.0946  0.1051
  369DG      C2 8466   2.005   3.262   5.392 -0.2208  0.2723  0.4020
  369DG      H3 8467   2.248   2.583   5.169  2.7824  0.6448  0.1393
  369DG      H4 8468   2.336   2.667   5.046  1.1561 -1.1331  3.5136
  369DG      H5 8469   2.223   2.545   4.991  0.2905  0.8923 -0.8494
  369DG      H6 8470   2.098   3.255   5.336  1.2207  2.1637  2.3721
  369DG      H7 8471   1.964   3.355   5.354 -1.3888 -0.6667 -0.7124
  369DG      H8 8472   2.044   3.268   5.494  2.7329 -0.8714 -0.5456
  369DG      O9 8473   2.134   2.722   5.047  0.3214  0.3705 -0.6793
  369DG     O10 8474   1.913   3.153   5.369  0.3326 -0.3731 -0.1946
  369DG     C11 8475   2.017   2.692   5.125  0.5153  0.3754  0.3340
  369DG     C12 8476   1.855   3.158   5.244 -0.2999 -0.3538 -0.5293
  369DG     H13 8477   2.036   2.689   5.232 -2.1883  1.4135  0.9023
  369DG     H14 8478   1.979   2.595   5.094  0.6619 -0.0465  1.4235
  369DG     H15 8479   1.917   3.203   5.166  0.2382  0.6191  0.4318
  369DG     H16 8480   1.763   3.215   5.235 -0.5218 -0.8861 -1.9403
  369DG     C17 8481   1.913   2.804   5.111  0.3511 -0.6543  0.1229
  369DG     C18 8482   1.828   3.010   5.201 -0.6149  0.3622 -0.2287
  369DG     O19 8483   1.948   2.935   5.159 -0.0223  0.3663  0.0406
  369DG     H20 8484   1.822   2.776   5.165  0.1171  0.5491  0.3768
  369DG     H21 8485   1.892   2.814   5.004 -1.6248  0.6577  0.5737
  369DG     H22 8486   1.794   2.957   5.290  0.4930 -1.4995 -0.8648
  369DG     H23 8487   1.762   3.005   5.115  1.1988  0.2063 -1.6655
  370DG      C1 8488   3.392   0.897   0.217  0.1950  0.0838 -0.5098
  370DG      C2 8489   2.740   0.673   0.363 -0.7782  0.7206 -0.5477
  370DG      H3 8490   3.434   0.924   0.120  1.8441 -1.1034 -0.1759
  370DG      H4 8491   3.466   0.826   0.254 -0.1864 -0.6104 -1.0573
  370DG      H5 8492   3.365   0.975   0.289  0.3543  0.0272 -0.3886
  370DG      H6 8493   2.776   0.588   0.422  1.7196  2.6125  0.8344
  370DG      H7 8494   2.746   0.758   0.430 -2.5640  1.2841 -1.0612
  370DG      H8 8495   2.641   0.643   0.328 -0.6340 -1.5474  0.7682
  370DG      O9 8496   3.276   0.819   0.192  0.3140 -0.7332  0.1292
  370DG     O10 8497   2.835   0.685   0.261  0.1700 -0.2353  0.8374
  370DG     C11 8498   3.298   0.714   0.093 -0.1266  0.0143  0.0354
  370DG     C12 8499   2.846   0.573   0.173  0.5631 -0.3093 -0.0439
  370DG     H13 8500   3.335   0.620   0.134 -3.7467 -0.7561  1.9194
  370DG     H14 8501   3.358   0.749   0.009 -1.0936  1.1567 -0.1993
  370DG     H15 8502   2.750   0.564   0.121 -0.6545  1.2410  1.7923
  370DG     H16 8503   2.875   0.482   0.225  0.6462 -0.0051  0.4457
  370DG     C17 8504   3.168   0.676   0.030  0.0172 -0.1963  0.1958
  370DG     C18 8505   2.941   0.618   0.068  0.2185  0.5578  0.4825
  370DG     O19 8506   3.065   0.663   0.127  0.1098  0.4487  0.2323
  370DG     H20 8507   3.186   0.586  -0.030  0.2578  0.9118 -1.4731
  370DG     H21 8508   3.136   0.736  -0.055  0.5111  1.4755  1.1507
  370DG     H22 8509   2.961   0.549  -0.014 -0.1490  2.1905 -1.0584
  370DG     H23 8510   2.905   0.703   0.010  1.7040  2.0664  1.6808
  371DG      C1 8511   4.647   4.945   2.766 -0.5655  0.0470 -0.2706
  371DG      C2 8512   4.511   4.548   2.900 -0.0634  0.1747 -0.8217
  371DG      H3 8513   4.632   4.872   2.687  3.3132  0.4907 -1.6558
  371DG      H4 8514   4.654   4.885   2.857 -0.2992  1.0201  0.3691
  371DG      H5 8515   4.746   4.985   2.742  1.0349 -2.0822  2.2236
  371DG      H6 8516   4.569   4.458   2.879 -2.8192 -1.9803  0.0626
  371DG      H7 8517   4.560   4.624   2.840  2.0732 -1.7173 -1.6264
  371DG      H8 8518   4.516   4.568   3.007  1.9531  1.5016 -1.1205
  371DG      O9 8519   4.549   5.043   2.763 -0.4036  0.1349  0.1531
  371DG     O10 8520   4.376   4.527   2.876 -0.1251 -0.3316  0.4213
  371DG     C11 8521   4.433   5.016   2.839 -0.8063 -0.1880  0.2486
  371DG     C12 8522   4.328   4.541   2.742 -0.7265  0.7066 -0.2620
  371DG     H13 8523   4.387   5.115   2.843  0.6347  0.4735  1.2731
  371DG     H14 8524   4.463   5.000   2.943  0.8844 -0.0109 -0.1779
  371DG     H15 8525   4.242   4.473   2.742  0.4283 -0.8398  1.3039
  371DG     H16 8526   4.399   4.502   2.670  1.3306  0.8532  1.5719
  371DG     C17 8527   4.334   4.923   2.773  0.0853  0.4034  0.2376
  371DG     C18 8528   4.283   4.689   2.725  0.2119 -0.3982  0.0934
  371DG     O19 8529   4.369   4.787   2.785 -0.1377 -0.8202 -0.1315
  371DG     H20 8530   4.319   4.939   2.667  0.8856 -2.0286 -0.3009
  371DG     H21 8531   4.233   4.926   2.815  0.2551 -0.0978  0.6909
  371DG     H22 8532   4.283   4.716   2.619 -0.4214  2.3230  0.6980
  371DG     H23 8533   4.187   4.703   2.776  1.3991  0.3539  2.2721
  372DG      C1 8534   2.798   0.563   4.454 -0.0567  0.2647 -0.2479
  372DG      C2 8535   3.158  -0.015   4.422  0.0129 -0.4543  0.2387
  372DG      H3 8536   2.702   0.571   4.402  1.5084  3.6108 -3.0257
  372DG      H4 8537   2.813   0.661   4.500  2.5050 -0.2878  0.2285
  372DG      H5 8538   2.787   0.495   4.538 -0.8289  0.4815 -0.1619
  372DG      H6 8539   3.055  -0.050   4.418 -0.2069  0.2270 -0.3213
  372DG      H7 8540   3.228  -0.091   4.388 -0.6062 -0.6859 -0.5632
  372DG      H8 8541   3.177   0.017   4.524 -1.7498 -0.1952  0.5288
  372DG      O9 8542   2.905   0.524   4.366 -0.4465 -0.1151  1.0521
  372DG     O10 8543   3.163   0.106   4.350  0.9837  0.3416 -0.0126
  372DG     C11 8544   3.040   0.560   4.410  0.1688 -0.3075  0.6675
  372DG     C12 8545   3.278   0.175   4.344 -0.2670  0.1639  0.0908
  372DG     H13 8546   3.060   0.506   4.503  2.9413 -0.4273  0.1002
  372DG     H14 8547   3.041   0.668   4.423  3.2174 -0.3402  1.4383
  372DG     H15 8548   3.344   0.105   4.293 -1.3080 -2.1373  1.7027
  372DG     H16 8549   3.325   0.189   4.442 -0.8845  0.6000  0.3332
  372DG     C17 8550   3.146   0.508   4.308  0.4066 -0.7911 -0.4098
  372DG     C18 8551   3.267   0.304   4.272  0.0100 -0.3520  0.5146
  372DG     O19 8552   3.165   0.375   4.336  0.0102 -0.3837  0.3392
  372DG     H20 8553   3.238   0.562   4.331  1.0931 -2.3727  0.7631
  372DG     H21 8554   3.120   0.524   4.204  1.6096 -0.3706 -0.6606
  372DG     H22 8555   3.363   0.353   4.286  0.5566 -1.0336 -0.6979
  372DG     H23 8556   3.237   0.302   4.167  0.1140  0.1946  0.4716
  373DG      C1 8557   4.125   1.289   1.649 -0.3244  0.6927  0.1778
  373DG      C2 8558   4.331   0.860   1.159  0.0649  0.0247  0.1403
  373DG      H3 8559   4.158   1.311   1.751 -0.3754  2.2375 -0.1151
  373DG      H4 8560   4.017   1.297   1.652 -0.3321  0.3608  0.9859
  373DG      H5 8561   4.151   1.366   1.577 -0.9162  1.7334  1.0458
  373DG      H6 8562   4.320   0.769   1.100  1.2541  0.3604 -0.6394
  373DG      H7 8563   4.296   0.936   1.089  0.6445  0.4055  0.2624
  373DG      H8 8564   4.438   0.873   1.175  0.0914  0.2005 -0.1833
  373DG      O9 8565   4.161   1.158   1.602 -0.2617  0.3896 -0.0908
  373DG     O10 8566   4.243   0.858   1.274 -0.0830 -0.2404  0.0724
  373DG     C11 8567   4.126   1.058   1.699  0.4196  0.1524  0.9337
  373DG     C12 8568   4.289   0.767   1.376 -0.1133  0.0858  0.5294
  373DG     H13 8569   4.022   1.065   1.730 -0.4185  0.5286 -1.7205
  373DG     H14 8570   4.178   1.079   1.793  1.1380  1.0107  0.3604
  373DG     H15 8571   4.386   0.793   1.417  0.4164 -1.9568  0.6676
  373DG     H16 8572   4.309   0.665   1.344  2.0861  0.8440 -0.7238
  373DG     C17 8573   4.175   0.911   1.659 -0.2164  0.4240 -0.5328
  373DG     C18 8574   4.185   0.755   1.484  0.3105 -0.2048  0.9226
  373DG     O19 8575   4.141   0.873   1.530  0.8460 -0.0321  0.3790
  373DG     H20 8576   4.142   0.838   1.732  1.6307  0.1271  0.0648
  373DG     H21 8577   4.284   0.912   1.663 -0.1710  0.7221 -1.5061
  373DG     H22 8578   4.096   0.704   1.447  0.2713 -0.6931  1.6554
  373DG     H23 8579   4.226   0.692   1.563 -0.6294 -0.5717  1.1283
  374DG      C1 8580   0.610   3.399   1.288 -0.4069 -0.1779  0.3050
  374DG      C2 8581   0.998   3.376   1.427 -0.3108 -0.9712  0.2522
  374DG      H3 8582   0.710   3.365   1.260 -0.5864  0.3188 -0.9995
  374DG      H4 8583   0.612   3.428   1.393  1.2897 -1.1397  0.5629
  374DG      H5 8584   0.601   3.490   1.228  1.0550 -0.2686 -0.0791
  374DG      H6 8585   1.035   3.343   1.329  0.4421  0.6660 -0.0529
  374DG      H7 8586   0.978   3.482   1.411  2.3286 -0.3743  0.4712
  374DG      H8 8587   1.077   3.361   1.500 -1.5485 -2.1060  1.4135
  374DG      O9 8588   0.511   3.304   1.259  0.1044  0.5610 -0.1994
  374DG     O10 8589   0.886   3.286   1.443 -0.4781 -0.1618  0.4654
  374DG     C11 8590   0.525   3.188   1.345 -0.1951  0.3175  0.8710
  374DG     C12 8591   0.850   3.285   1.583 -0.0858 -0.1615 -0.0979
  374DG     H13 8592   0.621   3.138   1.333 -0.9360 -1.3910  1.7981
  374DG     H14 8593   0.457   3.115   1.301  2.4736 -0.5339 -2.2363
  374DG     H15 8594   0.825   3.383   1.624 -2.1787  0.1555 -1.9289
  374DG     H16 8595   0.931   3.240   1.640  1.3363 -0.4309 -2.2211
  374DG     C17 8596   0.504   3.212   1.491  0.2733 -0.7410 -1.0921
  374DG     C18 8597   0.725   3.206   1.603  0.0970  0.1627  0.4351
  374DG     O19 8598   0.606   3.278   1.561  0.1580 -0.5119 -0.5681
  374DG     H20 8599   0.481   3.121   1.547  1.4003  0.4058  1.3853
  374DG     H21 8600   0.409   3.264   1.501  1.5204  1.6949 -1.2729
  374DG     H22 8601   0.721   3.107   1.560 -2.0582  0.8920 -1.2381
  374DG     H23 8602   0.710   3.206   1.711  1.2730  1.0625  0.6149
  375DG      C1 8603   4.935   3.125   2.212  0.0243  0.2495 -0.2083
  375DG      C2 8604   4.824   2.773   2.834 -0.1222 -0.8764 -0.4542
  375DG      H3 8605   4.897   3.223   2.183 -1.6966 -0.9175 -2.1838
  375DG      H4 8606   5.040   3.119   2.183  0.2296 -1.5307  0.8100
  375DG      H5 8607   4.943   3.108   2.320 -0.6872 -0.3213 -0.2404
  375DG      H6 8608   4.925   2.734   2.837  0.6358  0.7564 -2.4092
  375DG      H7 8609   4.798   2.790   2.939  0.6942  0.9711 -0.5069
  375DG      H8 8610   4.758   2.700   2.788  1.2443 -2.7193  0.3722
  375DG      O9 8611   4.859   3.019   2.148  0.1908 -0.3381  0.4088
  375DG     O10 8612   4.810   2.890   2.756  0.0062 -0.1247 -0.1647
  375DG     C11 8613   4.894   2.874   2.166  0.6846 -0.2408  0.5164
  375DG     C12 8614   4.878   2.884   2.638  0.2729 -0.1273  0.5395
  375DG     H13 8615   5.001   2.858   2.178  0.6094  0.2474  2.0271
  375DG     H14 8616   4.871   2.816   2.077 -2.7228 -1.2205  1.8671
  375DG     H15 8617   4.976   2.840   2.653  0.4521  0.2992  0.6428
  375DG     H16 8618   4.909   2.985   2.611  0.7636 -0.6746 -1.0318
  375DG     C17 8619   4.808   2.819   2.280 -0.2710  0.0562 -0.3018
  375DG     C18 8620   4.801   2.825   2.519  0.4585  0.1291  0.4992
  375DG     O19 8621   4.868   2.867   2.407  0.3718 -0.1113  0.0501
  375DG     H20 8622   4.816   2.712   2.264  0.3372  0.1958 -0.9884
  375DG     H21 8623   4.703   2.848   2.266  0.1932  2.4963  0.7835
  375DG     H22 8624   4.794   2.716   2.511 -1.8676  0.3352 -1.4249
  375DG     H23 8625   4.698   2.860   2.512  1.2796  2.5144 -0.7304
  376DG      C1 8626   0.397   3.265   4.801  0.4732 -0.2242  0.6574
  376DG      C2 8627   0.034   3.645   5.408 -0.1922 -0.0506  0.3844
  376DG      H3 8628   0.425   3.174   4.747  0.2869  0.2507 -0.2620
  376DG      H4 8629   0.478   3.337   4.797  0.0584  0.2842  1.4498
  376DG      H5 8630   0.307   3.297   4.748 -0.0924 -2.0885  0.3778
  376DG      H6 8631   0.056   3.750   5.387  1.5850 -0.6537 -1.0680
  376DG      H7 8632  -0.066   3.636   5.451 -0.3168  1.8188  0.5956
  376DG      H8 8633   0.106   3.609   5.483  2.3273  0.2088 -1.7505
  376DG      O9 8634   0.377   3.228   4.933 -0.1359 -0.6664 -0.0229
  376DG     O10 8635   0.041   3.562   5.291  0.3422 -0.4829  0.6814
  376DG     C11 8636   0.294   3.320   4.998  0.3246  0.5240 -0.0342
  376DG     C12 8637   0.008   3.432   5.325 -0.4800  0.6990 -0.1864
  376DG     H13 8638   0.198   3.342   4.952  0.3904  1.3456  0.2032
  376DG     H14 8639   0.346   3.416   5.005 -1.1653  1.3357  0.3013
  376DG     H15 8640  -0.101   3.437   5.320 -0.4606  2.8616  0.2718
  376DG     H16 8641   0.044   3.409   5.425  0.9185  1.7203 -0.4246
  376DG     C17 8642   0.270   3.261   5.136  0.2666 -0.1942 -0.2471
  376DG     C18 8643   0.064   3.341   5.223 -0.6574  0.2157 -0.1651
  376DG     O19 8644   0.206   3.356   5.217 -0.1456 -0.4378  0.0628
  376DG     H20 8645   0.364   3.229   5.182 -0.0418 -1.8883 -0.7320
  376DG     H21 8646   0.209   3.173   5.120 -1.1015  0.9027 -1.2753
  376DG     H22 8647   0.025   3.243   5.251 -2.6295  0.8330 -0.6275
  376DG     H23 8648   0.018   3.368   5.128 -1.3336  0.7399  0.2993
  377DG      C1 8649   1.742   4.984   5.106  0.2041 -0.0442 -0.3522
  377DG      C2 8650   1.147   5.133   5.405 -0.5682  0.7441  0.4091
  377DG      H3 8651   1.767   4.882   5.075 -2.0329 -1.5808  2.4824
  377DG      H4 8652   1.833   5.036   5.135 -0.2135 -0.1638  1.2803
  377DG      H5 8653   1.717   5.035   5.013  2.4219  0.8465 -0.5392
  377DG      H6 8654   1.125   5.099   5.303 -2.5383 -1.5899  1.5124
  377DG      H7 8655   1.059   5.104   5.462  0.8696 -1.6024  1.5969
  377DG      H8 8656   1.145   5.242   5.399 -2.6978  0.7894  0.9646
  377DG      O9 8657   1.645   4.979   5.208  0.4164 -0.1372 -0.7616
  377DG     O10 8658   1.258   5.069   5.471  0.7329 -0.0718 -0.6423
  377DG     C11 8659   1.675   5.013   5.339  0.5463 -0.4781 -0.7092
  377DG     C12 8660   1.252   4.928   5.460  1.1513  0.7493  0.3840
  377DG     H13 8661   1.719   5.113   5.334  1.8664 -0.9258  0.8301
  377DG     H14 8662   1.755   4.949   5.378  1.6480  1.9546  1.3616
  377DG     H15 8663   1.225   4.893   5.361  1.9900  1.7924 -0.2464
  377DG     H16 8664   1.179   4.886   5.529  0.7072 -0.4320 -0.7809
  377DG     C17 8665   1.550   5.011   5.424  0.3398 -0.2385  0.9911
  377DG     C18 8666   1.385   4.862   5.506  0.0745 -0.3922 -0.3728
  377DG     O19 8667   1.481   4.886   5.407  0.1700 -0.0075 -0.0629
  377DG     H20 8668   1.485   5.095   5.399 -1.4941 -1.6181  0.9561
  377DG     H21 8669   1.592   5.032   5.522  0.9733 -0.3490  0.7551
  377DG     H22 8670   1.406   4.898   5.607 -0.1021  0.7489 -0.7355
  377DG     H23 8671   1.355   4.757   5.501 -0.5797 -0.1470 -2.7175
  378DG      C1 8672   2.364   2.698   4.627 -0.4557 -0.0804 -0.1499
  378DG      C2 8673   1.743   3.320   4.453 -0.0551  0.7993  0.4032
  378DG      H3 8674   2.470   2.670   4.628 -0.2156  0.7957  0.8524
  378DG      H4 8675   2.310   2.604   4.620  1.9597 -1.4871 -1.1311
  378DG      H5 8676   2.333   2.735   4.725 -1.3365 -1.9967  0.3432
  378DG      H6 8677   1.782   3.422   4.462 -2.2305  1.8123 -0.9422
  378DG      H7 8678   1.686   3.299   4.363  1.3420 -1.7652  0.0451
  378DG      H8 8679   1.669   3.299   4.530 -0.3350 -1.0743 -0.3329
  378DG      O9 8680   2.314   2.796   4.541 -0.2442 -0.2583 -0.0519
  378DG     O10 8681   1.846   3.224   4.458 -0.4654 -0.0808 -0.0995
  378DG     C11 8682   2.180   2.826   4.555 -0.9616 -0.7532  0.0121
  378DG     C12 8683   1.901   3.177   4.337 -0.5355 -0.3750 -0.3428
  378DG     H13 8684   2.148   2.844   4.657  1.1715 -1.5947  0.8864
  378DG     H14 8685   2.125   2.738   4.521 -1.7085 -1.1990  2.2481
  378DG     H15 8686   1.903   3.263   4.271  0.1563 -0.4565 -0.4300
  378DG     H16 8687   1.835   3.101   4.294 -1.7140  0.9133 -0.8763
  378DG     C17 8688   2.168   2.966   4.467  0.0292  0.2500 -0.3402
  378DG     C18 8689   2.046   3.137   4.366 -0.6308  1.2245 -0.4053
  378DG     O19 8690   2.040   3.009   4.439  0.0336 -0.4375  0.4739
  378DG     H20 8691   2.212   2.952   4.369  2.1468 -1.5241  0.7809
  378DG     H21 8692   2.227   3.043   4.517  1.0192 -0.1284 -0.9185
  378DG     H22 8693   2.104   3.125   4.275  0.6200 -0.3042  0.5469
  378DG     H23 8694   2.082   3.222   4.425  0.5345 -0.7673  1.9228
  379DG      C1 8695   0.341   2.591   2.883 -0.6653  0.4591 -0.1604
  379DG      C2 8696   0.068   3.161   2.497  0.0080  1.1294  0.7723
  379DG      H3 8697   0.408   2.666   2.925 -0.5894  0.6964 -0.6933
  379DG      H4 8698   0.392   2.509   2.831 -1.8196  0.7447 -1.8235
  379DG      H5 8699   0.265   2.553   2.951 -0.0671 -0.1297  0.1909
  379DG      H6 8700  -0.021   3.170   2.559 -2.6006 -0.6084 -2.3843
  379DG      H7 8701   0.148   3.222   2.538 -2.1619  3.7141  1.4498
  379DG      H8 8702   0.057   3.218   2.405  2.3170  0.9402  0.3198
  379DG      O9 8703   0.272   2.641   2.768 -0.3385  0.0767  0.5829
  379DG     O10 8704   0.096   3.021   2.491 -0.4389  0.7238  0.4635
  379DG     C11 8705   0.175   2.561   2.695  0.1220 -0.0830 -1.0054
  379DG     C12 8706  -0.013   2.937   2.475  0.2653 -0.3106  0.4839
  379DG     H13 8707   0.085   2.562   2.755 -0.1351  1.8219 -1.3491
  379DG     H14 8708   0.204   2.456   2.691 -0.9394 -0.3935 -0.8787
  379DG     H15 8709  -0.064   2.965   2.383  0.7593 -0.7991  0.0566
  379DG     H16 8710  -0.087   2.950   2.554 -1.6852  3.1308 -1.6360
  379DG     C17 8711   0.147   2.613   2.552 -0.4231  0.1093 -0.3404
  379DG     C18 8712   0.028   2.788   2.459  0.8149 -0.2762 -0.4803
  379DG     O19 8713   0.102   2.743   2.574 -0.0669 -0.0357 -0.2335
  379DG     H20 8714   0.092   2.543   2.490  0.4705 -0.0324 -0.9983
  379DG     H21 8715   0.246   2.615   2.505  0.9642  0.6817  2.3892
  379DG     H22 8716  -0.062   2.728   2.462  1.6342 -1.5473 -0.4424
  379DG     H23 8717   0.091   2.785   2.370  1.4626 -0.6053 -0.0220
  380DG      C1 8718   0.899   4.172   4.945 -0.0423 -0.1578  0.2284
  380DG      C2 8719   0.459   4.400   5.412 -0.0753 -0.3838  0.2727
  380DG      H3 8720   0.825   4.202   4.871  1.4580 -1.2775 -1.8085
  380DG      H4 8721   0.926   4.077   4.900  0.6387 -1.2364  2.6927
  380DG      H5 8722   0.973   4.252   4.944  0.1654 -0.2390  2.7150
  380DG      H6 8723   0.480   4.473   5.489 -1.3718  0.1783  0.1208
  380DG      H7 8724   0.426   4.450   5.321 -0.6290 -1.2290 -0.0092
  380DG      H8 8725   0.369   4.339   5.421 -0.5203 -0.3396 -2.7518
  380DG      O9 8726   0.841   4.146   5.071  0.1765  0.2396 -0.3259
  380DG     O10 8727   0.576   4.329   5.372  0.1172  0.7962 -0.2358
  380DG     C11 8728   0.939   4.130   5.180  0.3392  0.7684  0.1481
  380DG     C12 8729   0.654   4.275   5.477 -0.2143 -0.2568 -0.5350
  380DG     H13 8730   0.975   4.226   5.215  1.8477  0.1400  0.3857
  380DG     H14 8731   1.025   4.077   5.140  0.2115 -0.7979  1.7833
  380DG     H15 8732   0.610   4.188   5.526 -1.4289  0.9926  0.6999
  380DG     H16 8733   0.673   4.349   5.555  2.1012  0.4440 -1.6746
  380DG     C17 8734   0.872   4.044   5.296  0.2903  0.5057  0.1052
  380DG     C18 8735   0.785   4.227   5.413 -0.5611 -0.8204 -0.0846
  380DG     O19 8736   0.750   4.113   5.336  0.3770  0.0450  0.0234
  380DG     H20 8737   0.932   4.025   5.384  1.0311 -0.4256 -0.5781
  380DG     H21 8738   0.839   3.948   5.256 -0.2655  0.7469 -0.0219
  380DG     H22 8739   0.820   4.302   5.342 -0.9091 -1.1732 -0.6332
  380DG     H23 8740   0.868   4.217   5.483  0.6301  3.7702 -0.4737
  381DG      C1 8741   4.789   3.457   3.679  0.2117  0.4068  0.0983
  381DG      C2 8742   4.766   2.896   3.574  1.0703  0.1262  0.1317
  381DG      H3 8743   4.819   3.562   3.686 -0.8941  0.7627 -0.2990
  381DG      H4 8744   4.769   3.419   3.779 -2.3694  2.5247  0.4999
  381DG      H5 8745   4.698   3.450   3.620  1.3484 -0.6660 -1.5975
  381DG      H6 8746   4.794   2.797   3.539  0.1932 -0.1517  0.2089
  381DG      H7 8747   4.759   2.888   3.682 -1.6557 -2.6113 -0.1404
  381DG      H8 8748   4.661   2.914   3.550  1.4851  0.2469 -1.7475
  381DG      O9 8749   4.879   3.367   3.613 -0.3720  0.2289 -0.0171
  381DG     O10 8750   4.867   2.996   3.560 -0.1396  0.0905  0.2687
  381DG     C11 8751   5.007   3.385   3.664 -0.0291  0.3162 -0.3807
  381DG     C12 8752   4.995   2.955   3.609  0.5081  0.0776 -0.4628
  381DG     H13 8753   5.021   3.429   3.763 -0.7242  0.8497 -0.5148
  381DG     H14 8754   5.066   3.444   3.594 -0.2674  2.9177  1.4528
  381DG     H15 8755   5.014   2.851   3.583 -0.4470  0.1181 -1.3805
  381DG     H16 8756   4.994   2.971   3.717 -1.5201 -0.5531 -0.3416
  381DG     C17 8757   5.073   3.243   3.691 -0.2506 -0.9741 -0.0615
  381DG     C18 8758   5.115   3.039   3.562 -0.2380 -0.3983 -0.1524
  381DG     O19 8759   5.077   3.177   3.567 -0.1302  0.4090 -0.1777
  381DG     H20 8760   5.026   3.200   3.780  1.4880  0.6676  1.7674
  381DG     H21 8761   5.176   3.255   3.724 -0.0180  1.4777 -1.4875
  381DG     H22 8762   5.206   3.033   3.621  0.3914 -0.6322 -1.1238
  381DG     H23 8763   5.138   3.017   3.458 -0.1729  0.9430 -0.4488
  382DG      C1 8764   4.661   3.142   0.064  0.0514 -0.0011  0.0588
  382DG      C2 8765   5.226   3.773   0.207 -0.2861 -0.9800  0.0945
  382DG      H3 8766   4.680   3.062   0.136  0.0451 -1.3810 -1.4158
  382DG      H4 8767   4.659   3.106  -0.039  0.6777 -0.1882  0.1070
  382DG      H5 8768   4.560   3.170   0.094 -0.1382 -0.5666 -0.0386
  382DG      H6 8769   5.141   3.828   0.248  1.1975 -0.0321  2.0585
  382DG      H7 8770   5.269   3.731   0.298 -1.8954 -0.2123  1.2778
  382DG      H8 8771   5.299   3.851   0.185 -1.7620 -0.3309 -3.0867
  382DG      O9 8772   4.761   3.246   0.081  0.1183  1.2487 -0.0251
  382DG     O10 8773   5.211   3.694   0.097  0.2722  0.0043 -0.4998
  382DG     C11 8774   4.776   3.298   0.214  0.7814  0.0174 -0.5358
  382DG     C12 8775   5.093   3.621   0.095 -0.0831 -0.4995 -0.2936
  382DG     H13 8776   4.734   3.216   0.272 -4.1850  0.3528 -3.1512
  382DG     H14 8777   4.705   3.379   0.234  3.0002  2.1707 -0.8895
  382DG     H15 8778   5.104   3.566   0.001 -3.2937  0.9639 -1.6626
  382DG     H16 8779   5.007   3.686   0.103 -0.3105 -1.0068  3.2642
  382DG     C17 8780   4.919   3.342   0.262 -0.1911  0.7281  0.1763
  382DG     C18 8781   5.070   3.532   0.219  0.5564 -0.1518  0.2516
  382DG     O19 8782   4.955   3.454   0.175 -0.0842 -0.0003  0.4397
  382DG     H20 8783   4.993   3.262   0.253  0.8915  1.8172 -0.8410
  382DG     H21 8784   4.903   3.384   0.362 -0.7946  0.7655  0.0690
  382DG     H22 8785   5.149   3.459   0.235  0.2462 -0.9569 -1.5936
  382DG     H23 8786   5.040   3.585   0.309 -2.2652 -0.2162 -0.5557
  383DG      C1 8787   3.614   0.954   3.675 -0.6673 -0.4617  0.6724
  383DG      C2 8788   3.719   0.376   3.266 -0.2058 -0.0570 -0.2121
  383DG      H3 8789   3.525   1.016   3.661 -0.0250  0.3290  0.0117
  383DG      H4 8790   3.697   1.021   3.651 -0.0056 -1.7885 -0.9788
  383DG      H5 8791   3.630   0.911   3.774  0.3083  1.8453  1.6031
  383DG      H6 8792   3.616   0.370   3.300 -0.0206 -0.5163  0.2929
  383DG      H7 8793   3.748   0.333   3.170  1.3657  0.2692  0.0903
  383DG      H8 8794   3.775   0.334   3.351  1.1785  0.8395 -0.6454
  383DG      O9 8795   3.611   0.854   3.573 -0.5680  0.1819  0.2358
  383DG     O10 8796   3.759   0.510   3.266  0.0935  0.5620  0.4743
  383DG     C11 8797   3.490   0.771   3.584 -0.5679 -0.5643  0.3748
  383DG     C12 8798   3.683   0.589   3.174 -0.2321  0.5681 -0.4548
  383DG     H13 8799   3.397   0.825   3.599  0.9252  2.8073 -1.2855
  383DG     H14 8800   3.503   0.694   3.660  0.5186 -0.1402  0.6427
  383DG     H15 8801   3.682   0.544   3.074  1.3548 -0.3772 -0.0824
  383DG     H16 8802   3.731   0.686   3.163 -0.0382  0.8274  2.0897
  383DG     C17 8803   3.470   0.708   3.448 -0.4169  0.2572  0.6828
  383DG     C18 8804   3.545   0.617   3.236 -0.1064 -0.2031  0.3446
  383DG     O19 8805   3.579   0.671   3.361  0.5145  0.3873  0.1639
  383DG     H20 8806   3.408   0.771   3.383 -0.0242  1.6689  1.6385
  383DG     H21 8807   3.403   0.622   3.444  1.0773 -0.9113 -1.6332
  383DG     H22 8808   3.482   0.689   3.185  0.7438  0.9437  0.8837
  383DG     H23 8809   3.482   0.528   3.239 -2.0291  1.0708 -0.6707
  384DG      C1 8810   2.274   3.593   0.696  0.0956 -0.1927  0.3139
  384DG      C2 8811   1.850   3.572   0.181  0.5600  0.4318  0.0670
  384DG      H3 8812   2.299   3.548   0.793  1.3091 -1.5388 -0.5689
  384DG      H4 8813   2.211   3.681   0.700 -0.6172 -0.6758 -0.0243
  384DG      H5 8814   2.370   3.623   0.654  1.1800 -0.0688  2.7055
  384DG      H6 8815   1.809   3.502   0.108 -1.4519 -0.2540  1.7658
  384DG      H7 8816   1.769   3.633   0.221  0.2319  1.2810 -1.7918
  384DG      H8 8817   1.925   3.632   0.129 -0.7055  0.9391 -1.2190
  384DG      O9 8818   2.220   3.481   0.621 -0.0432 -0.0103 -0.0306
  384DG     O10 8819   1.901   3.493   0.289  0.0372  0.3206  0.0203
  384DG     C11 8820   2.130   3.402   0.690  0.1142 -1.0108 -0.8111
  384DG     C12 8821   1.826   3.383   0.345  0.1192  0.2827  0.6413
  384DG     H13 8822   2.061   3.474   0.733  0.8849  0.3877 -1.8476
  384DG     H14 8823   2.191   3.368   0.774  1.1390  2.3093 -0.0599
  384DG     H15 8824   1.786   3.329   0.260  1.2961  1.9403 -1.0407
  384DG     H16 8825   1.746   3.426   0.405  0.9437 -1.2648  3.0237
  384DG     C17 8826   2.057   3.301   0.614 -0.2153  0.0894 -0.2814
  384DG     C18 8827   1.912   3.291   0.439  0.0776  0.2930  0.4156
  384DG     O19 8828   1.973   3.376   0.532  0.7854  0.1435  0.0952
  384DG     H20 8829   1.985   3.242   0.672  1.0325 -1.1909  0.0144
  384DG     H21 8830   2.123   3.227   0.570 -0.2517 -1.7852  2.5385
  384DG     H22 8831   1.855   3.214   0.492  0.4206 -0.2153  0.0555
  384DG     H23 8832   1.985   3.249   0.370 -0.2477  0.5469 -0.0908
  385DG      C1 8833   0.481   3.217   0.461 -0.1903 -0.3594 -0.2897
  385DG      C2 8834   0.957   2.503   0.465 -0.5059  0.2123  0.0013
  385DG      H3 8835   0.480   3.323   0.487  3.3178 -0.8292  2.4472
  385DG      H4 8836   0.420   3.164   0.534 -0.0147 -1.6414 -1.0483
  385DG      H5 8837   0.430   3.203   0.365 -0.5263 -1.0366 -0.0230
  385DG      H6 8838   0.915   2.462   0.557 -0.9093  0.8207  0.0998
  385DG      H7 8839   0.901   2.456   0.384  0.2007 -0.5320 -0.0659
  385DG      H8 8840   1.063   2.482   0.456 -0.2924  1.7042 -1.7171
  385DG      O9 8841   0.615   3.179   0.448  0.0654  0.2712 -0.4049
  385DG     O10 8842   0.954   2.647   0.463 -0.1155  0.3531 -0.2455
  385DG     C11 8843   0.628   3.036   0.439  0.3285 -0.3001 -0.4609
  385DG     C12 8844   0.955   2.696   0.332  0.3406 -0.0873 -0.3116
  385DG     H13 8845   0.575   2.988   0.356  0.8353  0.0627 -0.9922
  385DG     H14 8846   0.612   2.994   0.539 -1.1699  1.4571  0.1019
  385DG     H15 8847   0.886   2.642   0.267 -0.6587 -1.4158  1.7253
  385DG     H16 8848   1.049   2.681   0.280  0.6855  0.0811  0.2551
  385DG     C17 8849   0.776   3.010   0.416  0.3290  0.6905 -0.3023
  385DG     C18 8850   0.926   2.843   0.347 -0.2130 -0.0218 -0.0939
  385DG     O19 8851   0.805   2.870   0.409  0.1895  0.5931  0.5516
  385DG     H20 8852   0.835   3.051   0.499  1.2200  2.1936 -1.6189
  385DG     H21 8853   0.810   3.067   0.330  1.9224 -1.6340 -1.2898
  385DG     H22 8854   1.011   2.875   0.407 -0.4707 -1.7405  1.2824
  385DG     H23 8855   0.926   2.892   0.249 -0.5263  0.1971  0.0121
  386DG      C1 8856   1.666   3.032   0.165 -0.2161 -0.5174  0.3484
  386DG      C2 8857   2.268   2.602  -0.023  0.7101 -0.8489  0.2148
  386DG      H3 8858   1.717   3.049   0.070  0.4649  2.1410  1.1111
  386DG      H4 8859   1.600   3.118   0.162 -0.8209 -0.9751  0.3972
  386DG      H5 8860   1.620   2.935   0.179  0.3724 -1.0992 -1.4595
  386DG      H6 8861   2.353   2.623  -0.088  1.1453  0.0618  1.0606
  386DG      H7 8862   2.304   2.565   0.073  0.6269  0.4388  0.7605
  386DG      H8 8863   2.208   2.516  -0.053  0.1619 -0.8517  1.2723
  386DG      O9 8864   1.749   3.069   0.273 -0.5562  0.0778  0.2506
  386DG     O10 8865   2.190   2.726  -0.021  0.3099  0.3801 -0.1762
  386DG     C11 8866   1.815   2.959   0.336  0.1182 -0.4495 -0.8168
  386DG     C12 8867   2.084   2.731   0.071  0.4894  0.4179  0.1672
  386DG     H13 8868   1.748   2.879   0.369 -0.1833  0.3690  0.6386
  386DG     H14 8869   1.845   2.999   0.432  0.4225 -1.6965 -0.3809
  386DG     H15 8870   2.137   2.753   0.164  0.4190 -0.5516  0.4389
  386DG     H16 8871   2.045   2.630   0.076  1.9406 -0.1973 -0.2913
  386DG     C17 8872   1.929   2.916   0.250 -1.1818  0.0893 -0.2833
  386DG     C18 8873   1.978   2.838   0.033 -1.0400 -0.1207  0.5491
  386DG     O19 8874   1.883   2.854   0.130 -0.0221 -0.1957 -0.5269
  386DG     H20 8875   1.994   2.842   0.296  1.2175  2.6662  0.7910
  386DG     H21 8876   1.996   3.001   0.232 -0.3083  0.0877  2.5022
  386DG     H22 8877   2.026   2.935   0.020  0.2112 -0.7187  0.5686
  386DG     H23 8878   1.935   2.819  -0.065  0.9233  1.1354 -0.6206
  387DG      C1 8879   0.235   3.324   4.353 -0.2900 -0.1935 -0.5835
  387DG      C2 8880   0.760   2.886   4.373 -0.3759  0.5863 -0.0270
  387DG      H3 8881   0.186   3.416   4.321  0.5683  0.1372 -0.9757
  387DG      H4 8882   0.277   3.345   4.451  0.3903  1.6746 -1.2251
  387DG      H5 8883   0.161   3.244   4.357  0.2176 -0.6940 -1.1231
  387DG      H6 8884   0.809   2.803   4.322 -0.0412 -0.3433  1.7271
  387DG      H7 8885   0.819   2.901   4.463  1.6336  1.2430 -1.3516
  387DG      H8 8886   0.663   2.846   4.402  0.3436 -2.7713 -1.7192
  387DG      O9 8887   0.322   3.293   4.244  0.7503  0.4798 -0.5034
  387DG     O10 8888   0.764   3.005   4.293 -0.0340  0.4842 -0.2005
  387DG     C11 8889   0.445   3.358   4.256  0.3932 -0.1075  0.4439
  387DG     C12 8890   0.708   2.981   4.166  0.3151 -0.0638 -0.2308
  387DG     H13 8891   0.498   3.348   4.351 -0.1145 -0.2837  0.7088
  387DG     H14 8892   0.442   3.465   4.234  2.6397 -0.5217 -2.5581
  387DG     H15 8893   0.619   2.921   4.182  0.5031  0.0374  1.3861
  387DG     H16 8894   0.784   2.930   4.107  0.8202  0.0553  0.2974
  387DG     C17 8895   0.547   3.302   4.158 -0.4675 -0.4466 -0.6976
  387DG     C18 8896   0.671   3.118   4.110 -0.1511  0.3160 -0.2479
  387DG     O19 8897   0.566   3.165   4.188 -0.2812 -0.2751 -0.1038
  387DG     H20 8898   0.644   3.350   4.169 -0.8187  0.4609 -1.4475
  387DG     H21 8899   0.513   3.300   4.055 -0.1788 -2.0883 -0.7842
  387DG     H22 8900   0.760   3.180   4.100  0.6650 -0.7085  0.4573
  387DG     H23 8901   0.626   3.094   4.014  0.1921 -0.6174 -0.1857
  388DG      C1 8902   3.312   4.396   0.345  0.2369 -0.4414  0.3057
  388DG      C2 8903   2.935   3.954   0.287  0.3460 -0.1669  0.8813
  388DG      H3 8904   3.378   4.312   0.321  1.0803  1.1961 -3.9633
  388DG      H4 8905   3.335   4.421   0.449  0.9989  0.7771 -0.1462
  388DG      H5 8906   3.352   4.472   0.278  0.9702 -1.5383 -0.5448
  388DG      H6 8907   2.834   3.917   0.307 -1.3209  3.1860 -0.5388
  388DG      H7 8908   2.999   3.867   0.274  1.2382  0.5558  0.3750
  388DG      H8 8909   2.966   4.007   0.377  1.0941 -1.3385  1.3419
  388DG      O9 8910   3.182   4.351   0.332  0.1614 -0.4349 -0.0728
  388DG     O10 8911   2.940   4.027   0.164 -0.4482  0.3018 -0.2660
  388DG     C11 8912   3.085   4.448   0.369  0.2924  0.3772  0.5144
  388DG     C12 8913   2.834   4.126   0.142 -0.2071  0.3577  0.0985
  388DG     H13 8914   3.100   4.542   0.317 -0.8659  0.6237  0.5953
  388DG     H14 8915   3.097   4.490   0.468 -1.6115  0.6985  0.6507
  388DG     H15 8916   2.744   4.065   0.132  1.5008 -2.2797 -0.5315
  388DG     H16 8917   2.848   4.175   0.045 -2.8484  1.2365  0.0832
  388DG     C17 8918   2.942   4.397   0.360 -0.1697 -0.0808 -0.2957
  388DG     C18 8919   2.813   4.231   0.249 -0.8089  0.6906 -0.6086
  388DG     O19 8920   2.942   4.281   0.277  0.6787 -0.0293  0.0720
  388DG     H20 8921   2.878   4.477   0.322 -1.3606  0.0219  1.7979
  388DG     H21 8922   2.905   4.364   0.457 -1.4317  0.4721 -0.5693
  388DG     H22 8923   2.740   4.309   0.227 -0.1651  1.2968 -0.6388
  388DG     H23 8924   2.766   4.190   0.339 -0.2817 -0.0040 -0.6464
  389DG      C1 8925   4.870   3.182   5.163  0.3892  0.9033 -0.0939
  389DG      C2 8926   5.262   2.981   5.735  0.6647 -0.4323  0.4101
  389DG      H3 8927   4.854   3.202   5.057  1.3159  1.8306 -0.0742
  389DG      H4 8928   4.917   3.268   5.210 -1.4620  0.4156  2.8658
  389DG      H5 8929   4.774   3.160   5.209  1.3393 -1.0862  1.0934
  389DG      H6 8930   5.349   3.010   5.795 -0.5602 -0.7389  2.4020
  389DG      H7 8931   5.188   2.931   5.796 -0.2819 -0.6476 -0.8602
  389DG      H8 8932   5.284   2.899   5.667  3.4867 -0.5756  1.3755
  389DG      O9 8933   4.967   3.076   5.181  0.6787 -0.0614  0.5439
  389DG     O10 8934   5.207   3.084   5.661  0.3395  0.1901 -0.7001
  389DG     C11 8935   4.958   3.013   5.308  0.2524 -0.3006  0.0856
  389DG     C12 8936   5.292   3.160   5.582 -0.7462  0.4059 -0.5403
  389DG     H13 8937   5.005   2.915   5.301  1.2897  0.1551  0.3612
  389DG     H14 8938   4.857   3.009   5.347 -0.3480  1.1383 -1.2064
  389DG     H15 8939   5.352   3.092   5.521 -2.1833 -0.2810 -1.2314
  389DG     H16 8940   5.343   3.225   5.653 -2.5557  0.7425  0.5152
  389DG     C17 8941   5.024   3.104   5.411 -0.5350  0.0883 -0.6063
  389DG     C18 8942   5.221   3.230   5.470 -0.2300 -0.2821  0.0519
  389DG     O19 8943   5.158   3.146   5.379  0.2031  0.5515  0.6761
  389DG     H20 8944   5.032   3.061   5.510  1.0657  2.1217  0.2191
  389DG     H21 8945   4.965   3.196   5.414 -1.5603 -0.5304 -1.1896
  389DG     H22 8946   5.152   3.305   5.507 -0.8710 -0.1375 -1.3694
  389DG     H23 8947   5.305   3.259   5.408  1.6688 -1.6651  1.8410
  390DG      C1 8948   0.945   5.159   4.946 -0.2713  0.1909  0.1860
  390DG      C2 8949   1.471   4.722   4.925 -0.9534  0.5206  0.3364
  390DG      H3 8950   0.838   5.175   4.945 -0.4270 -0.7916 -0.8156
  390DG      H4 8951   0.985   5.199   4.853  2.4577 -0.2455  1.0816
  390DG      H5 8952   0.996   5.211   5.027  0.8040 -0.3710 -0.0986
  390DG      H6 8953   1.509   4.620   4.936  1.5969  1.3823  0.0735
  390DG      H7 8954   1.491   4.739   4.819  1.3254 -0.7242  0.5145
  390DG      H8 8955   1.531   4.797   4.975 -0.9134  0.8391 -0.1868
  390DG      O9 8956   0.978   5.011   4.953 -0.3620  0.0680 -0.2516
  390DG     O10 8957   1.334   4.724   4.958 -0.2049 -0.4217  0.6034
  390DG     C11 8958   0.915   4.948   5.071 -0.5697  0.1131  0.5391
  390DG     C12 8959   1.311   4.704   5.097  0.2689  0.6546 -0.2337
  390DG     H13 8960   0.807   4.944   5.057 -0.4958  1.4740 -0.6921
  390DG     H14 8961   0.926   4.996   5.168  0.5774 -0.4835  0.7247
  390DG     H15 8962   1.361   4.783   5.153  1.5513  0.5174 -1.1371
  390DG     H16 8963   1.353   4.610   5.134  0.3941  1.4156  1.7160
  390DG     C17 8964   0.965   4.805   5.078  0.6926  0.0394 -0.5120
  390DG     C18 8965   1.161   4.679   5.122 -0.7256 -0.0314 -0.1106
  390DG     O19 8966   1.104   4.802   5.086 -0.3253 -0.1086  0.1346
  390DG     H20 8967   0.927   4.758   4.987  0.1757  1.3927 -1.0235
  390DG     H21 8968   0.919   4.754   5.163 -0.2900  0.2189 -0.9179
  390DG     H22 8969   1.111   4.603   5.062 -2.4244  1.5900 -0.8612
  390DG     H23 8970   1.142   4.666   5.229 -0.8363 -0.5063 -0.1843
  391DG      C1 8971   4.364   3.614   2.839  0.4417 -0.6655  0.1212
  391DG      C2 8972   4.272   3.329   2.237  0.2255 -0.0830  0.6422
  391DG      H3 8973   4.299   3.702   2.837  1.6842  0.4090  2.6529
  391DG      H4 8974   4.437   3.646   2.913  0.8872  0.1807 -0.6620
  391DG      H5 8975   4.306   3.532   2.881  1.4510 -0.4732  1.9640
  391DG      H6 8976   4.268   3.322   2.128 -3.2561 -2.0406  0.7771
  391DG      H7 8977   4.269   3.221   2.247  3.4054 -0.3362 -0.0874
  391DG      H8 8978   4.178   3.373   2.269  0.8844 -1.0231  4.2364
  391DG      O9 8979   4.417   3.589   2.717  0.1390 -0.3608  0.1513
  391DG     O10 8980   4.386   3.402   2.286  0.4249  0.2055  0.4507
  391DG     C11 8981   4.475   3.707   2.659  1.1877  0.5177  0.0072
  391DG     C12 8982   4.384   3.537   2.240  0.6280  0.0810 -0.2997
  391DG     H13 8983   4.547   3.743   2.733  0.5618  0.3454  0.7017
  391DG     H14 8984   4.399   3.780   2.631 -1.3411 -2.5599 -1.7948
  391DG     H15 8985   4.284   3.576   2.259  0.9559  0.6734  0.2399
  391DG     H16 8986   4.399   3.546   2.132 -2.6282  0.5931 -0.8306
  391DG     C17 8987   4.552   3.663   2.534  0.0061 -0.8092  0.5826
  391DG     C18 8988   4.492   3.610   2.314 -0.2814  0.1854 -0.0840
  391DG     O19 8989   4.449   3.610   2.451 -0.1366 -0.1065 -0.2702
  391DG     H20 8990   4.616   3.584   2.573  1.5679  0.9444  1.7020
  391DG     H21 8991   4.605   3.750   2.496 -0.3015  0.0611  2.0781
  391DG     H22 8992   4.585   3.554   2.307  0.3306  1.1929 -0.1506
  391DG     H23 8993   4.513   3.712   2.281  0.7924 -0.7350 -2.4724
  392DG      C1 8994   4.837   1.920   4.458 -0.0384  0.0793  0.5986
  392DG      C2 8995   5.424   2.300   4.101  0.2592 -0.2337 -0.0089
  392DG      H3 8996   4.887   1.823   4.457 -0.2413 -0.0219 -0.4676
  392DG      H4 8997   4.774   1.909   4.370 -0.5894 -0.4839  1.0565
  392DG      H5 8998   4.780   1.927   4.551  2.7479  1.3520  2.3549
  392DG      H6 8999   5.389   2.277   4.000 -1.3534 -0.1951  0.5120
  392DG      H7 9000   5.475   2.396   4.095  0.1641 -0.2553 -1.4988
  392DG      H8 9001   5.483   2.212   4.126 -0.0784 -0.5165 -0.1887
  392DG      O9 9002   4.937   2.024   4.456 -0.0633  0.5778  0.2425
  392DG     O10 9003   5.316   2.307   4.203  0.0781 -0.6941 -0.5128
  392DG     C11 9004   4.882   2.159   4.445  0.4431 -0.3973  0.3630
  392DG     C12 9005   5.214   2.405   4.186  0.0650 -0.2178 -0.6321
  392DG     H13 9006   4.820   2.181   4.533  1.3243  0.4707  0.7904
  392DG     H14 9007   4.820   2.157   4.355 -0.6885 -0.8263  1.1235
  392DG     H15 9008   5.157   2.393   4.094 -0.3338  2.9784 -0.9352
  392DG     H16 9009   5.252   2.507   4.175 -1.6064  0.4222 -0.6684
  392DG     C17 9010   4.993   2.264   4.445 -0.5743  0.2873  0.1475
  392DG     C18 9011   5.122   2.400   4.303 -0.0713  0.1727  0.0439
  392DG     O19 9012   5.065   2.270   4.319  0.0384 -0.8764  0.1031
  392DG     H20 9013   5.072   2.247   4.519  0.9662 -0.9321 -1.6943
  392DG     H21 9014   4.948   2.362   4.461 -0.8176  0.3136 -0.6654
  392DG     H22 9015   5.165   2.426   4.400 -1.0390  1.4196  0.1656
  392DG     H23 9016   5.043   2.474   4.291 -0.1783 -0.3290 -3.1929
  393DG      C1 9017   5.382   3.360   3.499  0.0499  0.3575  0.3159
  393DG      C2 9018   5.553   2.914   2.862  0.0281  0.1949  0.5426
  393DG      H3 9019   5.348   3.415   3.412  1.4137 -0.0467 -0.5051
  393DG      H4 9020   5.397   3.436   3.576 -1.7585  0.9871  0.0909
  393DG      H5 9021   5.310   3.286   3.533  1.8865 -2.0795 -0.7441
  393DG      H6 9022   5.462   2.967   2.834 -0.8365 -1.6210 -0.2558
  393DG      H7 9023   5.630   2.929   2.786  0.7724 -4.4427  0.0811
  393DG      H8 9024   5.530   2.808   2.870  0.5199 -0.0385 -0.8956
  393DG      O9 9025   5.501   3.291   3.459  0.3149  0.1463  0.0540
  393DG     O10 9026   5.589   2.971   2.984 -0.5299 -0.1374 -0.8019
  393DG     C11 9027   5.474   3.192   3.356  0.1715 -0.0803 -0.4262
  393DG     C12 9028   5.677   2.892   3.063 -0.4272 -0.3145 -0.6852
  393DG     H13 9029   5.444   3.230   3.259 -0.3830  1.0763  0.1819
  393DG     H14 9030   5.400   3.117   3.384 -1.1918  0.9845 -1.0682
  393DG     H15 9031   5.765   2.883   2.999  2.0318  0.4164  2.3792
  393DG     H16 9032   5.613   2.809   3.092 -1.9315  1.1319  0.2649
  393DG     C17 9033   5.611   3.132   3.333 -0.3904  0.7349  0.0967
  393DG     C18 9034   5.714   2.966   3.194 -0.3138  0.1495  0.0408
  393DG     O19 9035   5.595   3.029   3.240 -0.1247  0.1403  0.4090
  393DG     H20 9036   5.657   3.095   3.425  2.1460  3.0825 -0.0795
  393DG     H21 9037   5.677   3.208   3.290 -1.4105  3.1607  2.5144
  393DG     H22 9038   5.769   2.909   3.269  1.4891 -0.5349 -1.6907
  393DG     H23 9039   5.788   3.041   3.167  1.7045 -2.0280 -0.8559
  394DG      C1 9040   2.026   0.074   1.056 -0.1181 -0.5325  0.5170
  394DG      C2 9041   1.574  -0.296   0.799  0.0839 -0.2127 -0.7071
  394DG      H3 9042   2.109   0.105   1.119  1.4622  1.7342 -2.4440
  394DG      H4 9043   1.970   0.167   1.040  0.7508 -0.0372  0.3055
  394DG      H5 9044   2.081   0.040   0.969  0.6468 -0.9538  1.1505
  394DG      H6 9045   1.513  -0.207   0.790  0.5801  0.0882 -1.1511
  394DG      H7 9046   1.600  -0.329   0.698 -0.6249 -3.1096 -0.0329
  394DG      H8 9047   1.517  -0.377   0.844  0.7424  0.3631  1.2365
  394DG      O9 9048   1.960  -0.028   1.123  0.4896 -0.0603 -0.3084
  394DG     O10 9049   1.688  -0.261   0.876  0.1454  0.0638  0.2141
  394DG     C11 9050   2.036  -0.148   1.142 -0.6827  0.1617  0.9482
  394DG     C12 9051   1.765  -0.379   0.893 -0.2748 -0.1662  0.2511
  394DG     H13 9052   2.114  -0.123   1.213 -1.2349  0.3908  1.4827
  394DG     H14 9053   2.089  -0.177   1.051 -0.5418 -2.5027  1.7868
  394DG     H15 9054   1.786  -0.419   0.794 -0.0053 -1.2461  0.7367
  394DG     H16 9055   1.717  -0.457   0.951 -0.0862 -1.2957 -1.0688
  394DG     C17 9056   1.939  -0.259   1.190  0.4182 -0.2975  0.2330
  394DG     C18 9057   1.885  -0.345   0.980  1.2130 -0.1268  0.3838
  394DG     O19 9058   1.836  -0.285   1.098 -0.0339  0.1868  0.1005
  394DG     H20 9059   1.891  -0.222   1.281 -1.1393  0.8000 -0.9814
  394DG     H21 9060   1.997  -0.346   1.220  3.3888  1.3854 -0.2323
  394DG     H22 9061   1.936  -0.438   1.006  2.1747  0.4748  0.6989
  394DG     H23 9062   1.942  -0.269   0.925 -0.8658  1.3319  0.1280
  395DG      C1 9063   3.035   1.529   5.274 -1.5061  0.3821 -0.1249
  395DG      C2 9064   2.986   0.823   5.170 -0.4993  0.8283 -0.1922
  395DG      H3 9065   2.933   1.567   5.272 -1.5673  0.5938  2.8527
  395DG      H4 9066   3.058   1.514   5.168 -0.0737 -0.2736  0.2664
  395DG      H5 9067   3.104   1.604   5.310 -0.8392 -1.2012  2.1212
  395DG      H6 9068   3.039   0.731   5.196 -0.6672  0.4746 -1.0763
  395DG      H7 9069   2.880   0.798   5.178 -0.7655  1.4922 -1.4318
  395DG      H8 9070   2.995   0.845   5.064 -1.6725 -1.5574 -0.8647
  395DG      O9 9071   3.029   1.419   5.356 -0.1642 -0.5785  0.4555
  395DG     O10 9072   3.024   0.925   5.261 -0.2296 -0.0667 -0.1906
  395DG     C11 9073   3.155   1.372   5.399 -0.2895  0.4598 -0.7285
  395DG     C12 9074   3.157   0.978   5.240 -0.6045 -0.0668  0.2895
  395DG     H13 9075   3.193   1.449   5.466  1.0771  0.6050 -1.6413
  395DG     H14 9076   3.228   1.348   5.323  1.2234 -0.2399  0.8850
  395DG     H15 9077   3.162   1.051   5.159 -0.7581 -0.6471 -0.2422
  395DG     H16 9078   3.227   0.899   5.215 -0.9067 -0.3613  0.3768
  395DG     C17 9079   3.142   1.249   5.487 -0.2272 -0.3093 -0.1780
  395DG     C18 9080   3.202   1.058   5.366  0.6409 -0.1768  1.0581
  395DG     O19 9081   3.097   1.144   5.408  0.4207  0.4000 -0.3828
  395DG     H20 9082   3.061   1.274   5.556 -0.4574 -0.1381 -0.5066
  395DG     H21 9083   3.238   1.225   5.534  0.8268  1.8439 -1.1207
  395DG     H22 9084   3.213   0.986   5.446  3.0715 -0.5135  0.4928
  395DG     H23 9085   3.301   1.101   5.354  0.2829 -0.0774 -3.9092
  396DG      C1 9086   1.562   4.723   1.674 -0.8190 -0.0303 -0.1795
  396DG      C2 9087   1.841   4.676   2.450 -0.4306  1.7117 -0.2963
  396DG      H3 9088   1.492   4.806   1.671 -0.7276  0.0195 -1.1849
  396DG      H4 9089   1.514   4.625   1.678  0.4468 -0.6417  0.7819
  396DG      H5 9090   1.622   4.703   1.586  1.7431  1.5235  1.0919
  396DG      H6 9091   1.738   4.711   2.457  0.0506  3.3482 -0.8793
  396DG      H7 9092   1.853   4.579   2.497  1.0206  2.5133  1.1024
  396DG      H8 9093   1.895   4.751   2.509  0.4894  0.8145  0.0327
  396DG      O9 9094   1.649   4.741   1.789  0.4066  0.4476  0.2924
  396DG     O10 9095   1.890   4.673   2.318  0.5477  0.3870  0.4459
  396DG     C11 9096   1.763   4.655   1.791 -0.3442 -0.3073  0.2373
  396DG     C12 9097   1.883   4.801   2.252  0.1121 -0.2680  1.0815
  396DG     H13 9098   1.810   4.638   1.695  0.8302 -1.8371  1.0498
  396DG     H14 9099   1.738   4.555   1.826  1.1422 -1.2493 -1.2704
  396DG     H15 9100   1.948   4.875   2.298  0.0403 -0.3415  1.3046
  396DG     H16 9101   1.787   4.853   2.253  0.3233  0.3273 -1.8396
  396DG     C17 9102   1.876   4.713   1.877 -0.5936 -0.3307  0.1191
  396DG     C18 9103   1.920   4.787   2.107 -0.1033 -0.0863 -0.0321
  396DG     O19 9104   1.824   4.740   2.011 -1.0718  0.6988 -0.3133
  396DG     H20 9105   1.922   4.797   1.824  2.1830 -1.7045  0.1531
  396DG     H21 9106   1.955   4.638   1.878  0.9450  1.1219 -2.3862
  396DG     H22 9107   1.938   4.890   2.079 -2.0588  0.1400 -0.6041
  396DG     H23 9108   2.017   4.742   2.088  1.0018  2.0936  0.1379
  397DG      C1 9109   4.543   4.001   3.650  0.5289  0.2108  0.4171
  397DG      C2 9110   4.547   4.204   3.134  0.4758  0.0040 -0.0037
  397DG      H3 9111   4.472   4.063   3.706  1.1671  0.0487  1.4205
  397DG      H4 9112   4.569   4.039   3.551  2.3070 -0.8438  0.4403
  397DG      H5 9113   4.628   3.992   3.716 -0.3088 -2.6260  1.2260
  397DG      H6 9114   4.474   4.276   3.170 -1.1455 -1.9672  0.8710
  397DG      H7 9115   4.651   4.236   3.129 -0.6073  4.0063 -0.4914
  397DG      H8 9116   4.513   4.178   3.033 -0.4038  0.8119  0.0707
  397DG      O9 9117   4.480   3.870   3.644  0.0757  0.1202  0.1313
  397DG     O10 9118   4.519   4.088   3.214 -0.3900  0.1967 -0.1588
  397DG     C11 9119   4.569   3.764   3.605  0.1472 -0.0457  0.2353
  397DG     C12 9120   4.606   3.982   3.180  0.3472  0.4486 -0.4138
  397DG     H13 9121   4.570   3.672   3.664  1.0034 -2.4528 -3.2153
  397DG     H14 9122   4.673   3.793   3.614 -0.1731  1.6711 -1.0980
  397DG     H15 9123   4.709   4.006   3.210  0.6802 -1.2134 -0.1703
  397DG     H16 9124   4.603   3.961   3.073  0.5307 -0.4952 -0.2379
  397DG     C17 9125   4.539   3.741   3.455 -0.5220  0.2434  0.2949
  397DG     C18 9126   4.562   3.846   3.249 -0.3744 -0.2351 -0.2604
  397DG     O19 9127   4.577   3.858   3.384 -0.1748  0.5106 -0.1075
  397DG     H20 9128   4.436   3.710   3.441 -0.9278 -0.3731  3.7094
  397DG     H21 9129   4.594   3.648   3.436 -0.9618  0.4585 -2.4216
  397DG     H22 9130   4.457   3.833   3.222 -0.4666  1.2141 -0.6921
  397DG     H23 9131   4.631   3.775   3.202  1.9960  1.3646  0.6085
  398DG      C1 9132   3.361   3.777   3.302 -0.0005  0.6220 -0.2608
  398DG      C2 9133   3.629   3.624   4.084  0.5244 -0.5048 -0.0715
  398DG      H3 9134   3.285   3.710   3.262  0.8939 -1.2118  0.9603
  398DG      H4 9135   3.435   3.806   3.228 -0.7581 -0.1274 -1.3363
  398DG      H5 9136   3.313   3.869   3.336 -1.1225  0.5482 -1.5957
  398DG      H6 9137   3.526   3.593   4.102 -0.6363  2.7829 -0.3991
  398DG      H7 9138   3.694   3.585   4.162 -0.1689 -2.5085 -0.4414
  398DG      H8 9139   3.627   3.731   4.106 -0.4876 -0.5030 -0.1215
  398DG      O9 9140   3.421   3.718   3.417 -0.6516  0.0617 -0.3007
  398DG     O10 9141   3.669   3.613   3.951 -0.3440 -0.4669 -0.4874
  398DG     C11 9142   3.498   3.603   3.389 -0.0466  0.2612 -0.1390
  398DG     C12 9143   3.557   3.615   3.864  0.2972 -0.1955 -0.6419
  398DG     H13 9144   3.546   3.600   3.292  1.9306 -2.1498  0.7995
  398DG     H14 9145   3.428   3.523   3.366  0.3139 -0.3775  0.9040
  398DG     H15 9146   3.496   3.705   3.867 -0.7598 -0.8150  3.9046
  398DG     H16 9147   3.494   3.528   3.882  0.4505  0.0835  1.4513
  398DG     C17 9148   3.595   3.580   3.504 -0.7535 -0.1731  0.1272
  398DG     C18 9149   3.620   3.610   3.730 -0.3710 -0.5063 -0.0432
  398DG     O19 9150   3.531   3.588   3.628  0.1334 -0.2770  0.2235
  398DG     H20 9151   3.679   3.648   3.493 -1.1842  0.0243 -2.6680
  398DG     H21 9152   3.654   3.489   3.499  0.2987  0.5424 -0.9929
  398DG     H22 9153   3.685   3.696   3.715  0.0307 -0.6226  0.9498
  398DG     H23 9154   3.688   3.524   3.728 -1.9181 -1.7715 -0.7663
  399DG      C1 9155   1.880   4.633   4.197  0.1534 -0.5345 -0.2664
  399DG      C2 9156   1.204   4.611   3.804  0.4303 -0.2902 -0.4516
  399DG      H3 9157   1.976   4.629   4.144  1.1644 -1.1948  1.5304
  399DG      H4 9158   1.906   4.673   4.295 -0.2404 -1.5315  0.2550
  399DG      H5 9159   1.820   4.703   4.138  1.2721 -0.7053 -1.6689
  399DG      H6 9160   1.230   4.708   3.760 -0.5967  0.5163  0.6674
  399DG      H7 9161   1.125   4.555   3.753  0.3811 -0.7996  0.1747
  399DG      H8 9162   1.182   4.627   3.909  2.2221  0.1237 -0.0983
  399DG      O9 9163   1.817   4.511   4.221  0.3972  0.4621 -0.1056
  399DG     O10 9164   1.314   4.523   3.798  0.2596  0.2851  0.1385
  399DG     C11 9165   1.825   4.433   4.099  0.2381  0.0574  0.6133
  399DG     C12 9166   1.414   4.566   3.889 -0.5994 -0.1938 -0.1650
  399DG     H13 9167   1.784   4.336   4.129  1.5782 -0.7218  0.0462
  399DG     H14 9168   1.930   4.414   4.076  0.2907  1.0260 -0.0038
  399DG     H15 9169   1.371   4.577   3.988 -0.8026 -1.2927 -0.1150
  399DG     H16 9170   1.448   4.663   3.854 -1.6529 -0.1875 -1.2219
  399DG     C17 9171   1.763   4.490   3.963  0.0224  0.2169  0.2388
  399DG     C18 9172   1.544   4.487   3.872  0.0489 -0.9324 -0.2362
  399DG     O19 9173   1.629   4.546   3.961  0.0550 -0.2373 -0.1227
  399DG     H20 9174   1.766   4.411   3.889  0.4624  0.3844  0.0749
  399DG     H21 9175   1.829   4.570   3.928  1.8561  0.2582  3.3897
  399DG     H22 9176   1.532   4.380   3.892  0.3896 -1.1131 -0.9662
  399DG     H23 9177   1.573   4.510   3.770 -3.0271  0.1605 -0.9630
  400DG      C1 9178   0.723   4.800   4.362  0.0820 -0.7263  0.4465
  400DG      C2 9179   0.804   4.480   3.815 -0.2582 -0.2884  0.6937
  400DG      H3 9180   0.718   4.909   4.368  3.4991 -0.4243 -0.5282
  400DG      H4 9181   0.828   4.773   4.359  1.3123  3.4445 -0.4600
  400DG      H5 9182   0.669   4.751   4.443  0.4543 -3.1101 -0.6590
  400DG      H6 9183   0.858   4.417   3.885 -0.9102 -1.5604  0.0761
  400DG      H7 9184   0.777   4.422   3.727  1.0739 -0.3104  0.2690
  400DG      H8 9185   0.866   4.568   3.794 -0.8560 -0.2117 -0.9532
  400DG      O9 9186   0.661   4.762   4.240  0.0897  0.0851 -0.0306
  400DG     O10 9187   0.692   4.541   3.880 -0.6125 -0.2769  0.0378
  400DG     C11 9188   0.529   4.797   4.228  0.3533 -0.0515  0.4917
  400DG     C12 9189   0.623   4.640   3.797  0.0861  0.3606  0.3739
  400DG     H13 9190   0.517   4.901   4.195 -2.3085 -0.6568 -0.7116
  400DG     H14 9191   0.475   4.769   4.319 -0.5502 -1.1381 -0.3511
  400DG     H15 9192   0.592   4.587   3.707  0.1161 -1.2017  1.2465
  400DG     H16 9193   0.692   4.724   3.784 -0.2953  1.3979  3.8529
  400DG     C17 9194   0.463   4.715   4.122  0.3964 -0.0354 -0.1335
  400DG     C18 9195   0.497   4.671   3.883 -0.4701  0.3149 -0.2293
  400DG     O19 9196   0.527   4.744   4.000 -0.3878  0.0513 -0.3479
  400DG     H20 9197   0.355   4.732   4.126  0.5249  0.8388 -0.1207
  400DG     H21 9198   0.466   4.608   4.144 -2.8123 -0.4263 -0.9667
  400DG     H22 9199   0.425   4.738   3.835  0.6652  1.7681  0.0184
  400DG     H23 9200   0.444   4.579   3.905  0.3681 -0.2320 -0.4613
  401DG      C1 9201   0.770   2.891   2.906  0.3571 -0.2409 -0.5840
  401DG      C2 9202   0.478   3.373   2.533 -0.0702 -0.1686  0.5518
  401DG      H3 9203   0.705   2.935   2.982  0.1943 -0.5165 -0.5612
  401DG      H4 9204   0.852   2.839   2.956  0.7773 -0.0712 -1.0901
  401DG      H5 9205   0.724   2.815   2.843 -0.1828  0.0973 -0.6048
  401DG      H6 9206   0.468   3.451   2.457  0.9125 -1.3381 -0.8369
  401DG      H7 9207   0.439   3.285   2.481  0.3758 -0.4527  0.6929
  401DG      H8 9208   0.410   3.381   2.617 -0.9100 -1.6559  0.0620
  401DG      O9 9209   0.824   2.996   2.829  0.7630 -0.0752  0.0588
  401DG     O10 9210   0.613   3.338   2.577  0.8081 -0.2055  0.1106
  401DG     C11 9211   0.902   3.089   2.901  0.4702 -1.3040 -0.2328
  401DG     C12 9212   0.680   3.442   2.658 -0.4070  0.0308  0.0903
  401DG     H13 9213   0.999   3.043   2.919  2.0853  1.2463 -1.6982
  401DG     H14 9214   0.876   3.108   3.005  2.7362 -1.7204  0.4550
  401DG     H15 9215   0.630   3.463   2.753  0.1459  0.2478  0.3417
  401DG     H16 9216   0.703   3.533   2.603 -1.0413  2.2852  3.2466
  401DG     C17 9217   0.926   3.221   2.819  0.5506  0.2767 -0.5006
  401DG     C18 9218   0.815   3.390   2.701  0.1227 -0.2092  0.2145
  401DG     O19 9219   0.797   3.270   2.765 -0.2918 -0.0363 -0.2784
  401DG     H20 9220   1.001   3.195   2.744  1.6302 -3.4442  1.5845
  401DG     H21 9221   0.966   3.291   2.892  1.2595 -0.0741 -0.5499
  401DG     H22 9222   0.884   3.377   2.617 -0.8526 -1.0290 -0.4976
  401DG     H23 9223   0.861   3.461   2.769  2.0832  0.5601 -1.7666
  402DG      C1 9224   4.926   0.921   5.409 -0.0677  0.7178 -0.6132
  402DG      C2 9225   5.164   1.070   4.806 -0.3622  0.3640  0.1055
  402DG      H3 9226   4.952   0.816   5.401  0.5327  0.9707 -2.3600
  402DG      H4 9227   4.838   0.934   5.346 -0.2652  1.1700 -0.2507
  402DG      H5 9228   4.902   0.946   5.513 -1.3015  0.4697 -0.8232
  402DG      H6 9229   5.057   1.085   4.791 -0.3086  0.2369 -0.4299
  402DG      H7 9230   5.220   1.128   4.732  0.1649 -2.9458 -2.3207
  402DG      H8 9231   5.191   0.965   4.791  2.1804  0.8139  0.9044
  402DG      O9 9232   5.022   1.005   5.350 -0.1327  0.3619  0.1215
  402DG     O10 9233   5.202   1.104   4.941 -0.1903 -0.0955 -0.3161
  402DG     C11 9234   5.147   0.999   5.422  0.9475 -0.0951 -0.9551
  402DG     C12 9235   5.330   1.051   4.974 -0.5607  0.0215 -0.3565
  402DG     H13 9236   5.170   0.899   5.458  0.5266  0.4342  0.9295
  402DG     H14 9237   5.140   1.059   5.513 -4.7672 -0.7060 -0.6252
  402DG     H15 9238   5.404   1.093   4.907  0.2002 -0.5419  0.1210
  402DG     H16 9239   5.341   0.944   4.959  2.2251  0.2589 -0.4503
  402DG     C17 9240   5.258   1.076   5.346 -0.2687 -0.0841 -0.1929
  402DG     C18 9241   5.349   1.088   5.119 -0.5207  0.0539  0.0546
  402DG     O19 9242   5.251   1.037   5.202  0.1196  0.0373  0.1521
  402DG     H20 9243   5.357   1.059   5.388 -0.4420  0.5062  0.4745
  402DG     H21 9244   5.230   1.181   5.355 -2.9734 -0.8282  0.7761
  402DG     H22 9245   5.445   1.050   5.152  0.4121  2.3898  0.2294
  402DG     H23 9246   5.347   1.196   5.134  0.4985  0.2821 -1.2770
  403DG      C1 9247   4.796   1.703   0.076  0.5657 -0.5856 -0.4351
  403DG      C2 9248   4.381   2.215   0.164  0.1663 -0.0178 -0.5880
  403DG      H3 9249   4.843   1.640   0.151  2.0562 -0.7779 -1.5088
  403DG      H4 9250   4.860   1.684  -0.009  1.4125  0.6099 -0.0949
  403DG      H5 9251   4.692   1.670   0.067  0.0922  0.7913 -0.3165
  403DG      H6 9252   4.327   2.167   0.083  1.8968 -0.9039 -1.2815
  403DG      H7 9253   4.332   2.192   0.259  0.4150  0.4647 -0.3365
  403DG      H8 9254   4.381   2.323   0.152  0.3476  0.1273  0.5813
  403DG      O9 9255   4.800   1.843   0.103  0.5223  0.0623  0.1634
  403DG     O10 9256   4.512   2.177   0.166 -0.4725 -0.0469 -0.0154
  403DG     C11 9257   4.907   1.881   0.184  1.0349 -0.2039  0.0468
  403DG     C12 9258   4.596   2.236   0.257 -0.6900  0.5480  0.2433
  403DG     H13 9259   4.999   1.855   0.132  1.8145  1.1289  0.6887
  403DG     H14 9260   4.904   1.833   0.282 -0.0003  1.6968  1.0075
  403DG     H15 9261   4.580   2.218   0.363 -0.1661 -0.5314  0.1509
  403DG     H16 9262   4.580   2.344   0.250 -1.0394  0.6858  2.5287
  403DG     C17 9263   4.903   2.034   0.198  0.0163  0.0756  0.0641
  403DG     C18 9264   4.739   2.198   0.213 -0.2455 -0.1253  1.0394
  403DG     O19 9265   4.761   2.060   0.218 -0.0388  0.9420  0.5050
  403DG     H20 9266   4.937   2.084   0.107  0.4993  1.3266  0.8966
  403DG     H21 9267   4.972   2.072   0.273  1.6735 -0.5717 -1.0814
  403DG     H22 9268   4.764   2.219   0.109  1.0737  0.3731  1.4307
  403DG     H23 9269   4.820   2.248   0.267  1.9865 -1.1539 -1.1599
  404DG      C1 9270   4.063   5.130   1.603  0.1008 -0.0287 -0.2417
  404DG      C2 9271   3.643   5.621   1.882  0.1270 -0.0871  0.0146
  404DG      H3 9272   4.133   5.095   1.678  1.4673  1.5913 -0.7165
  404DG      H4 9273   4.109   5.215   1.552  0.0409  0.3028  0.2464
  404DG      H5 9274   4.049   5.048   1.533 -1.9935  0.4309 -0.4474
  404DG      H6 9275   3.548   5.568   1.895 -0.0468  0.6592  2.2165
  404DG      H7 9276   3.701   5.595   1.970  0.7751  1.0795 -0.0621
  404DG      H8 9277   3.622   5.728   1.879 -3.1614 -0.5689 -4.3820
  404DG      O9 9278   3.933   5.158   1.663  0.3185 -0.2272  0.1138
  404DG     O10 9279   3.696   5.579   1.754  0.4159  0.0905 -0.0072
  404DG     C11 9280   3.931   5.241   1.785  0.2523  0.1687 -0.2362
  404DG     C12 9281   3.816   5.650   1.712 -0.1919  0.5839 -0.3300
  404DG     H13 9282   3.988   5.206   1.871 -0.1298  1.0604  0.3890
  404DG     H14 9283   3.837   5.241   1.840 -0.1016  0.9285 -0.8191
  404DG     H15 9284   3.886   5.652   1.795  0.3306 -4.3003 -0.3606
  404DG     H16 9285   3.790   5.742   1.659 -1.2938 -0.4119 -1.6079
  404DG     C17 9286   3.961   5.384   1.744 -0.8186  0.3584  0.3550
  404DG     C18 9287   3.896   5.565   1.613 -0.2615 -0.4749  0.1953
  404DG     O19 9288   3.873   5.426   1.639  0.7799 -0.3976  0.3470
  404DG     H20 9289   4.067   5.394   1.719 -0.6279  0.2220  1.0973
  404DG     H21 9290   3.964   5.458   1.824 -2.4146 -0.0271  0.8038
  404DG     H22 9291   3.867   5.588   1.511  0.4145 -0.6616 -0.0444
  404DG     H23 9292   4.002   5.589   1.607 -0.8870  2.3628 -0.5436
  405DG      C1 9293   3.061   4.432   2.352  0.0743  0.8204 -0.4718
  405DG      C2 9294   2.686   4.186   1.817  0.5658 -0.3129 -0.3093
  405DG      H3 9295   3.169   4.426   2.360  0.2204  1.8034 -1.5132
  405DG      H4 9296   3.016   4.430   2.452 -1.2390  0.4104 -1.0535
  405DG      H5 9297   3.049   4.526   2.299  2.4709  1.7050  0.4422
  405DG      H6 9298   2.760   4.167   1.739  0.6980  1.3047 -0.6067
  405DG      H7 9299   2.606   4.115   1.795  1.3729 -1.8032  1.2692
  405DG      H8 9300   2.646   4.286   1.799  0.0622 -0.0143  2.0488
  405DG      O9 9301   3.019   4.326   2.278  0.0288  0.4174 -0.2751
  405DG     O10 9302   2.737   4.176   1.952 -0.3406  0.2332 -0.1340
  405DG     C11 9303   3.067   4.198   2.318 -0.3937 -0.1706  0.4696
  405DG     C12 9304   2.782   4.045   1.982  0.8251 -0.0817  0.3865
  405DG     H13 9305   3.101   4.191   2.422  0.0251 -0.4727  0.3124
  405DG     H14 9306   3.150   4.190   2.248  0.1792  3.2222  0.5958
  405DG     H15 9307   2.876   4.022   1.932  1.6717  1.5476  1.1442
  405DG     H16 9308   2.703   3.979   1.947  0.5725  0.3902  0.0592
  405DG     C17 9309   2.950   4.101   2.303  0.2219  0.3050  0.0339
  405DG     C18 9310   2.789   4.034   2.133 -0.4187 -0.1988  0.1204
  405DG     O19 9311   2.898   4.116   2.169  0.2901  0.3063 -0.1699
  405DG     H20 9312   2.865   4.104   2.372 -0.3735  1.9316 -0.7034
  405DG     H21 9313   2.999   4.005   2.316  1.7438  1.1141  0.5729
  405DG     H22 9314   2.699   4.079   2.174  0.5334  3.0244 -0.9545
  405DG     H23 9315   2.791   3.935   2.177 -0.3786  0.6367  2.0916
  406DG      C1 9316   4.196   2.051   1.592 -0.5951  0.3239  0.3938
  406DG      C2 9317   3.825   2.405   1.193  0.4295  0.4444  0.2121
  406DG      H3 9318   4.168   1.988   1.507  1.2651 -0.2917  0.2002
  406DG      H4 9319   4.119   2.038   1.668 -2.8832  1.1035 -1.6445
  406DG      H5 9320   4.295   2.022   1.626 -0.2584  1.8998  0.8734
  406DG      H6 9321   3.831   2.333   1.111 -1.2660  2.0648 -1.4320
  406DG      H7 9322   3.743   2.376   1.258 -1.0117  1.2477 -1.1660
  406DG      H8 9323   3.802   2.502   1.149  0.8430 -0.4072 -2.0351
  406DG      O9 9324   4.186   2.184   1.538 -0.1437 -0.7039  0.3914
  406DG     O10 9325   3.945   2.417   1.266 -0.1242 -0.3803  0.3351
  406DG     C11 9326   4.226   2.276   1.643  0.6248 -0.0701  0.7031
  406DG     C12 9327   3.944   2.529   1.351 -0.4052  0.4524 -0.7498
  406DG     H13 9328   4.327   2.264   1.682  0.0678 -2.0554  1.6543
  406DG     H14 9329   4.161   2.260   1.729  0.3956 -1.5221  0.2961
  406DG     H15 9330   3.866   2.522   1.427  1.5920 -0.5340  1.3204
  406DG     H16 9331   3.931   2.615   1.285  1.5349  3.3868  2.3767
  406DG     C17 9332   4.200   2.420   1.592  0.1461  0.5361 -0.2321
  406DG     C18 9333   4.082   2.553   1.436  0.0816  0.3406  0.2678
  406DG     O19 9334   4.084   2.429   1.509  0.2332 -0.0959  0.2554
  406DG     H20 9335   4.289   2.461   1.545  0.5182 -1.8770 -1.8188
  406DG     H21 9336   4.197   2.477   1.686 -1.8123 -0.0030  0.0691
  406DG     H22 9337   4.162   2.563   1.363  0.4849 -0.3495  0.6027
  406DG     H23 9338   4.076   2.638   1.504  1.7130 -0.3003  1.2742
  407DG      C1 9339   3.132   3.634   0.075 -0.0037  0.4177 -0.2862
  407DG      C2 9340   2.920   3.827   0.640  0.4597 -0.6098 -0.2964
  407DG      H3 9341   3.158   3.549   0.012  1.3994 -1.6464  2.8118
  407DG      H4 9342   3.225   3.648   0.130 -0.2523 -2.5387  1.0834
  407DG      H5 9343   3.101   3.717   0.011 -2.3349 -0.4018 -0.3080
  407DG      H6 9344   2.955   3.924   0.606 -2.4322  0.2364 -1.2193
  407DG      H7 9345   2.895   3.867   0.739  0.4679  0.5015 -0.7296
  407DG      H8 9346   3.010   3.767   0.638  1.2737  0.5768 -0.2350
  407DG      O9 9347   3.026   3.594   0.166  0.5042  0.3219 -0.2638
  407DG     O10 9348   2.811   3.797   0.561 -0.1761  0.1396  0.9543
  407DG     C11 9349   2.895   3.627   0.106 -0.5186 -0.3395  0.1970
  407DG     C12 9350   2.783   3.660   0.565 -0.1939  0.2971 -0.7749
  407DG     H13 9351   2.876   3.576   0.011  0.1975  0.8772 -0.6267
  407DG     H14 9352   2.897   3.736   0.098 -1.4774 -0.2371  1.1368
  407DG     H15 9353   2.718   3.642   0.651  1.3745 -0.6224  0.2675
  407DG     H16 9354   2.875   3.607   0.592 -0.0865  0.6980 -0.3383
  407DG     C17 9355   2.781   3.584   0.204  0.5026 -0.2776 -0.3612
  407DG     C18 9356   2.721   3.609   0.436 -0.5430  0.4627  0.2977
  407DG     O19 9357   2.806   3.650   0.331  0.3238  0.2671  0.1789
  407DG     H20 9358   2.798   3.478   0.222  2.2414  0.0013 -0.1750
  407DG     H21 9359   2.681   3.608   0.168  0.7607  1.9526  0.2675
  407DG     H22 9360   2.702   3.502   0.440  1.0985  0.0669 -1.3124
  407DG     H23 9361   2.626   3.658   0.417  0.8415  1.8226 -4.2312
  408DG      C1 9362   2.387   0.780   1.139 -0.0683  1.0306  0.3014
  408DG      C2 9363   2.722   0.637   1.734 -0.2205  0.9134 -0.1506
  408DG      H3 9364   2.292   0.808   1.184 -0.8465 -1.0462  0.0699
  408DG      H4 9365   2.368   0.734   1.042 -2.1756 -1.0786  1.6052
  408DG      H5 9366   2.450   0.867   1.120  1.7153 -0.5004 -1.3069
  408DG      H6 9367   2.760   0.739   1.730  0.8858  0.6698  2.1823
  408DG      H7 9368   2.644   0.641   1.811 -2.5214  0.4252 -2.3377
  408DG      H8 9369   2.803   0.576   1.774  1.2060  2.2247 -0.9514
  408DG      O9 9370   2.447   0.687   1.233  0.1193  0.1037 -0.4656
  408DG     O10 9371   2.670   0.582   1.618  0.3174  0.3551  1.0208
  408DG     C11 9372   2.368   0.561   1.230  0.1083  0.4297 -0.6092
  408DG     C12 9373   2.602   0.456   1.642  0.1744  0.4321  0.5136
  408DG     H13 9374   2.340   0.526   1.131  1.4148 -2.6183  0.0050
  408DG     H14 9375   2.284   0.577   1.298  1.0894 -2.6680  1.5491
  408DG     H15 9376   2.511   0.474   1.698  0.3944 -0.6721  1.2607
  408DG     H16 9377   2.658   0.386   1.704  2.2151 -0.9937 -2.6621
  408DG     C17 9378   2.439   0.448   1.295 -0.0286  0.5411 -0.6774
  408DG     C18 9379   2.558   0.391   1.507 -0.4113  0.4450 -0.1006
  408DG     O19 9380   2.486   0.481   1.428  0.1631 -0.0364 -0.0456
  408DG     H20 9381   2.529   0.436   1.233 -0.0465  2.6313 -1.1853
  408DG     H21 9382   2.371   0.363   1.291 -0.1283  0.6468 -1.5214
  408DG     H22 9383   2.645   0.356   1.452 -0.4778  1.6482 -1.0198
  408DG     H23 9384   2.493   0.309   1.538  0.7498 -0.1085  0.9175
  409DG      C1 9385   0.481   4.873   1.584  0.2788  0.3648 -0.6075
  409DG      C2 9386   0.617   4.210   1.402 -0.2098  0.3851 -0.3175
  409DG      H3 9387   0.500   4.977   1.611 -1.6751  0.2991  1.3060
  409DG      H4 9388   0.373   4.868   1.565  0.2321 -0.0431 -0.2477
  409DG      H5 9389   0.525   4.848   1.487 -0.1564  2.9863 -1.5696
  409DG      H6 9390   0.513   4.242   1.398  0.4388  2.4608 -2.4273
  409DG      H7 9391   0.649   4.204   1.298  1.7618 -0.4087  0.2841
  409DG      H8 9392   0.632   4.106   1.432 -1.2153  0.1575 -0.5545
  409DG      O9 9393   0.515   4.768   1.669  0.5157  0.0663  0.6211
  409DG     O10 9394   0.690   4.304   1.483  0.1365 -0.2729  0.6109
  409DG     C11 9395   0.653   4.779   1.721 -0.2759 -0.5027 -0.4934
  409DG     C12 9396   0.701   4.434   1.423 -0.0820  0.1519  0.1647
  409DG     H13 9397   0.663   4.850   1.803 -1.7535 -1.7656  0.8409
  409DG     H14 9398   0.723   4.808   1.643 -0.3509 -2.3630 -1.3009
  409DG     H15 9399   0.612   4.454   1.363  0.3040  1.6073  0.0448
  409DG     H16 9400   0.785   4.437   1.353  0.8101  1.7434  1.2453
  409DG     C17 9401   0.689   4.635   1.753 -0.0045 -0.1241 -0.1472
  409DG     C18 9402   0.723   4.552   1.522  0.5521  0.4470  0.3280
  409DG     O19 9403   0.661   4.535   1.653  0.5671  0.1480  0.7636
  409DG     H20 9404   0.636   4.597   1.840 -0.6470  0.0178 -0.4682
  409DG     H21 9405   0.795   4.625   1.773 -0.0219  0.4823  0.2936
  409DG     H22 9406   0.829   4.562   1.546  0.1801 -1.8094  3.5123
  409DG     H23 9407   0.675   4.644   1.488 -1.1356  0.0323  1.4636
  410DG      C1 9408   4.908   4.505   1.102 -0.6436  0.3052  0.1730
  410DG      C2 9409   5.058   4.845   0.636  0.0316  0.3790 -0.8551
  410DG      H3 9410   4.943   4.600   1.143  0.8627 -0.1477  0.0099
  410DG      H4 9411   4.988   4.431   1.110 -1.0868 -1.2245 -5.3204
  410DG      H5 9412   4.812   4.479   1.145  0.5765 -2.7911  1.3290
  410DG      H6 9413   4.958   4.819   0.668  1.6873 -4.6454  1.4113
  410DG      H7 9414   5.101   4.903   0.718 -1.7562  1.8472 -0.9043
  410DG      H8 9415   5.055   4.901   0.543  1.7004  0.5255 -0.8580
  410DG      O9 9416   4.903   4.535   0.957  0.3770 -0.0697  0.1494
  410DG     O10 9417   5.131   4.726   0.625  0.0010  0.2197  0.7872
  410DG     C11 9418   4.833   4.447   0.871  0.5640  0.3722 -0.2856
  410DG     C12 9419   5.087   4.644   0.522 -0.3350  0.2239  0.3115
  410DG     H13 9420   4.731   4.438   0.907  1.2390 -2.2664  1.2063
  410DG     H14 9421   4.880   4.350   0.885  0.7533  0.6896  1.6446
  410DG     H15 9422   5.155   4.559   0.515  0.0857  0.3967  1.9909
  410DG     H16 9423   5.091   4.691   0.423 -2.0199  1.3356  0.7283
  410DG     C17 9424   4.824   4.504   0.728 -0.6080  0.2559 -0.1912
  410DG     C18 9425   4.953   4.568   0.548 -0.5673  0.0550 -0.2393
  410DG     O19 9426   4.955   4.542   0.686 -0.3500 -0.4862 -0.2650
  410DG     H20 9427   4.763   4.594   0.718 -0.0283  0.9346  1.8882
  410DG     H21 9428   4.784   4.426   0.664  2.5637 -0.7184 -1.1904
  410DG     H22 9429   4.868   4.630   0.522  0.0941  1.0724 -0.0446
  410DG     H23 9430   4.945   4.476   0.491 -1.1091 -0.1189  0.1081
  411THF     O1 9431   3.306   2.201   2.551  0.9585 -0.0416 -0.2362
  411THF     C2 9432   3.320   2.346   2.547  0.3512  0.5427  0.4715
  411THF     C3 9433   3.412   2.136   2.611  0.3228  0.1742  0.4832
  411THF     H4 9434   3.269   2.377   2.638 -1.1632  0.6908 -0.4096
  411THF     H5 9435   3.262   2.394   2.468 -0.1964  1.2033  1.2662
  411THF     H6 9436   3.387   2.088   2.706  0.4826  2.4205  1.7191
  411THF     H7 9437   3.448   2.058   2.543  0.3982  2.0109 -1.6868
  411THF     C8 9438   3.514   2.245   2.636  0.4458  0.9926 -1.0525
  411THF     C9 9439   3.469   2.357   2.551 -0.1712 -0.5613  0.3372
  411THF    H10 9440   3.620   2.220   2.627  0.6619  1.4997 -0.0602
  411THF    H11 9441   3.507   2.288   2.736  1.7441 -1.5858  0.2209
  411THF    H12 9442   3.503   2.454   2.590  0.3144 -1.7413  3.0661
  411THF    H13 9443   3.510   2.340   2.451 -0.9760 -0.2792 -0.0462
  412THF     O1 9444   0.560   1.216   4.210 -0.0980  0.2312 -0.2209
  412THF     C2 9445   0.552   1.233   4.069  0.5479  0.1203 -1.0143
  412THF     C3 9446   0.461   1.116   4.247 -0.0291 -0.3902  0.4029
  412THF     H4 9447   0.615   1.152   4.031 -1.4301 -1.3452 -1.3393
  412THF     H5 9448   0.582   1.331   4.033 -1.2653  1.6337  1.2988
  412THF     H6 9449   0.508   1.021   4.219  1.6565  0.4778  0.1826
  412THF     H7 9450   0.442   1.130   4.353  2.0900  0.9163  0.6566
  412THF     C8 9451   0.344   1.167   4.159 -0.1036 -1.1547 -0.2876
  412THF     C9 9452   0.408   1.189   4.026  0.2066 -0.6290 -0.4667
  412THF    H10 9453   0.291   1.257   4.189  0.8395 -0.1505 -1.5707
  412THF    H11 9454   0.259   1.098   4.154 -1.4309  0.4645 -1.4762
  412THF    H12 9455   0.418   1.089   3.986  2.0519 -1.5257  1.9608
  412THF    H13 9456   0.350   1.251   3.957 -0.0723 -0.5925 -0.2007
  413THF     O1 9457   2.321   0.651   4.835  0.2273  0.8652 -0.1458
  413THF     C2 9458   2.294   0.655   4.969  0.1504 -0.0681 -0.2888
  413THF     C3 9459   2.411   0.750   4.799  0.6833 -0.7231  0.4095
  413THF     H4 9460   2.343   0.582   5.034 -2.2006 -0.5692  1.0709
  413THF     H5 9461   2.185   0.645   4.975  0.1518  0.4013  0.5995
  413THF     H6 9462   2.498   0.719   4.742 -0.4166 -0.5434 -1.4430
  413THF     H7 9463   2.363   0.811   4.722  1.0432  0.6797  1.2529
  413THF     C8 9464   2.446   0.831   4.921  0.0782 -0.2445 -0.7245
  413THF     C9 9465   2.327   0.796   5.011  0.0611 -0.5310 -0.0578
  413THF    H10 9466   2.466   0.938   4.911 -0.0498  0.1941  2.5167
  413THF    H11 9467   2.536   0.802   4.975 -0.1182  2.6267  1.4130
  413THF    H12 9468   2.367   0.783   5.111 -2.3260  0.0514  1.0393
  413THF    H13 9469   2.250   0.873   5.016 -0.0620 -0.6249 -0.4495
  414THF     O1 9470   4.889   2.587   4.927  0.5428  0.3630 -0.2475
  414THF     C2 9471   4.904   2.454   4.894  0.5623  0.7929  0.0323
  414THF     C3 9472   4.999   2.656   4.873 -0.1585 -0.3769  0.0868
  414THF     H4 9473   4.811   2.397   4.909  0.7925  0.0354 -1.2926
  414THF     H5 9474   4.985   2.401   4.944 -1.4854 -2.0625  0.6324
  414THF     H6 9475   4.988   2.764   4.862  1.6324 -0.3463 -2.0849
  414THF     H7 9476   5.087   2.639   4.936 -0.3807 -1.0547  0.2224
  414THF     C8 9477   5.005   2.595   4.732  0.2818 -0.6635  0.0550
  414THF     C9 9478   4.929   2.463   4.743 -0.6479 -0.0898 -0.5784
  414THF    H10 9479   5.105   2.596   4.689  1.2306  1.3679  2.1364
  414THF    H11 9480   4.935   2.660   4.679 -0.1104  0.0605  1.4332
  414THF    H12 9481   4.843   2.456   4.676  0.3131 -0.5623 -1.7931
  414THF    H13 9482   4.982   2.370   4.722  1.5359  0.9912 -0.1272
  415THF     O1 9483   3.011   3.307   0.596  0.1094 -0.3888 -0.0620
  415THF     C2 9484   3.053   3.272   0.466  0.5811 -0.2882  0.0462
  415THF     C3 9485   2.913   3.207   0.627 -0.3281 -0.9542  0.3026
  415THF     H4 9486   3.138   3.335   0.441 -0.4011  0.7538 -0.8138
  415THF     H5 9487   2.978   3.310   0.396  0.5297 -1.4997 -0.5827
  415THF     H6 9488   2.906   3.199   0.735  0.1119  0.4450  0.4509
  415THF     H7 9489   2.818   3.247   0.592  0.2449  1.0643  0.9291
  415THF     C8 9490   2.950   3.080   0.555  0.3345  0.1893  0.1970
  415THF     C9 9491   3.064   3.118   0.465 -0.1885 -0.2885  0.4121
  415THF    H10 9492   2.863   3.060   0.492 -1.5676 -0.9212  2.9889
  415THF    H11 9493   2.970   2.989   0.613  0.3482 -0.4357 -0.7678
  415THF    H12 9494   3.159   3.089   0.508  0.5982  0.8489 -0.5058
  415THF    H13 9495   3.065   3.064   0.370  1.0518  2.7025 -1.4323
  416THF     O1 9496   5.378   4.727   0.810  0.0086  0.2998 -0.4059
  416THF     C2 9497   5.404   4.864   0.823  0.7346  0.3778  0.1886
  416THF     C3 9498   5.459   4.673   0.706 -0.0155  0.2912 -0.1516
  416THF     H4 9499   5.454   4.890   0.916 -0.7070  0.6126  0.9253
  416THF     H5 9500   5.306   4.911   0.833  1.3480  1.2348  2.9389
  416THF     H6 9501   5.557   4.655   0.749  0.4112  1.7089 -0.4832
  416THF     H7 9502   5.419   4.580   0.667 -0.2626 -0.3462  1.5383
  416THF     C8 9503   5.471   4.791   0.606 -0.2402  0.3867  0.1160
  416THF     C9 9504   5.465   4.914   0.691 -0.2806 -0.3695  0.7034
  416THF    H10 9505   5.382   4.776   0.546  0.2406  0.4385 -0.6230
  416THF    H11 9506   5.557   4.784   0.539 -0.4750 -0.3501 -0.1178
  416THF    H12 9507   5.563   4.959   0.708 -0.7591  1.9095 -1.8267
  416THF    H13 9508   5.399   4.983   0.637  1.5467  1.1133  0.2376
  417THF     O1 9509   1.649   0.836   4.618  0.2742  0.0454  0.2727
  417THF     C2 9510   1.685   0.823   4.479  0.3093 -0.2079 -0.7008
  417THF     C3 9511   1.507   0.831   4.614 -0.1844 -0.1181  0.5785
  417THF     H4 9512   1.792   0.806   4.468  0.5437  1.5259 -1.4312
  417THF     H5 9513   1.660   0.917   4.430 -1.1287  0.0282  0.4351
  417THF     H6 9514   1.459   0.806   4.709 -0.3128 -2.6959 -0.0864
  417THF     H7 9515   1.477   0.927   4.574 -0.6403  0.0369  1.2783
  417THF     C8 9516   1.483   0.716   4.518 -0.1648  0.2190 -1.0115
  417THF     C9 9517   1.600   0.714   4.432  0.2785  0.4526 -0.1788
  417THF    H10 9518   1.393   0.730   4.458 -1.4612  0.9588  0.9939
  417THF    H11 9519   1.476   0.615   4.560 -0.5232  1.2420  1.5629
  417THF    H12 9520   1.651   0.618   4.431 -0.5794 -0.0205 -0.5098
  417THF    H13 9521   1.556   0.731   4.333  1.2070 -0.0624 -0.7004
  418THF     O1 9522   2.054   2.599   3.724 -0.6196  0.2850  0.2108
  418THF     C2 9523   2.107   2.691   3.629  0.2034 -1.1157  0.2871
  418THF     C3 9524   1.914   2.589   3.705 -0.2931  0.3967  0.0152
  418THF     H4 9525   2.135   2.636   3.540 -0.7394 -0.3821 -0.4769
  418THF     H5 9526   2.194   2.739   3.674 -1.4376 -0.3182  2.8700
  418THF     H6 9527   1.886   2.491   3.666  1.6574  0.1274 -0.8635
  418THF     H7 9528   1.872   2.603   3.804  1.1316  1.6287  0.4782
  418THF     C8 9529   1.876   2.697   3.596  0.1929  0.2760 -0.2574
  418THF     C9 9530   2.001   2.790   3.592  0.9846 -0.0297  0.5324
  418THF    H10 9531   1.788   2.751   3.632  0.1568  0.8696 -1.1950
  418THF    H11 9532   1.870   2.652   3.497  4.6806 -1.5272  0.0504
  418THF    H12 9533   2.023   2.834   3.495 -1.3039  0.0882  0.0060
  418THF    H13 9534   1.989   2.861   3.675  0.7627 -0.4620  0.8771
  419THF     O1 9535   4.494   1.496   5.175 -0.0484 -0.1056  0.3493
  419THF     C2 9536   4.444   1.471   5.047  0.3732 -0.6538  0.8240
  419THF     C3 9537   4.409   1.454   5.280 -0.0958 -0.2562  0.4256
  419THF     H4 9538   4.529   1.470   4.979  1.3597  0.6898  1.9664
  419THF     H5 9539   4.372   1.546   5.015  0.2911 -2.1325 -2.8870
  419THF     H6 9540   4.471   1.452   5.369 -0.0972  0.0422  0.4354
  419THF     H7 9541   4.333   1.533   5.284  3.9593  4.0123  1.6127
  419THF     C8 9542   4.372   1.317   5.226 -0.6161 -0.1405  0.3192
  419THF     C9 9543   4.364   1.344   5.074 -0.1035  0.0147 -0.6675
  419THF    H10 9544   4.277   1.286   5.269 -0.4620 -2.6976 -0.9745
  419THF    H11 9545   4.457   1.253   5.250  0.3624 -0.0831 -2.5257
  419THF    H12 9546   4.397   1.255   5.019 -0.2529 -0.3702 -0.1410
  419THF    H13 9547   4.259   1.356   5.047  0.2568  0.8127 -1.7744
  420THF     O1 9548   3.743   3.924   0.266 -0.0436 -0.1396 -0.2589
  420THF     C2 9549   3.812   3.809   0.223  0.0223 -0.5741 -0.0280
  420THF     C3 9550   3.758   4.024   0.169 -0.4240 -0.4436  0.2607
  420THF     H4 9551   3.745   3.723   0.215 -0.4988  0.0033 -2.5818
  420THF     H5 9552   3.882   3.764   0.293  0.4648 -0.1598 -0.1968
  420THF     H6 9553   3.671   4.087   0.151 -1.3077 -2.0477 -1.5460
  420THF     H7 9554   3.844   4.086   0.194 -1.3899  0.9336  0.2891
  420THF     C8 9555   3.784   3.946   0.042  0.1834 -0.8344 -0.3393
  420THF     C9 9556   3.856   3.831   0.085 -0.3001 -0.1091  0.5207
  420THF    H10 9557   3.843   4.000  -0.031  1.7670 -1.4271  0.4648
  420THF    H11 9558   3.690   3.917  -0.005  0.5370 -0.1202 -1.5202
  420THF    H12 9559   3.839   3.752   0.012  2.8673 -0.1042 -0.3704
  420THF    H13 9560   3.965   3.839   0.082 -0.0867 -2.3369  0.5428
  421THF     O1 9561   0.828   0.056   4.817  0.6005 -0.1740 -0.6557
  421THF     C2 9562   0.814   0.139   4.705  0.1728  0.0254 -0.0856
  421THF     C3 9563   0.711  -0.022   4.810  0.7282 -0.1436  0.1529
  421THF     H4 9564   0.919   0.151   4.678 -0.1945  0.8166 -1.2526
  421THF     H5 9565   0.764   0.230   4.737  0.2613 -0.6011  1.9685
  421THF     H6 9566   0.701  -0.104   4.880 -1.7150 -0.8666 -0.9445
  421THF     H7 9567   0.630   0.043   4.842 -1.9291 -3.4335  0.5817
  421THF     C8 9568   0.700  -0.064   4.664  0.5029  0.0976  0.0482
  421THF     C9 9569   0.741   0.067   4.596  0.1500 -0.2826  0.2511
  421THF    H10 9570   0.601  -0.099   4.636  1.0654 -1.3944 -0.1246
  421THF    H11 9571   0.769  -0.141   4.630  0.5640  1.1632 -2.4652
  421THF    H12 9572   0.791   0.075   4.499 -2.0604  1.5303 -0.8439
  421THF    H13 9573   0.648   0.123   4.584  0.2555 -0.2367 -0.3748
  422THF     O1 9574   2.102   2.222   0.297 -0.6795  0.2313 -0.6000
  422THF     C2 9575   2.021   2.116   0.353  0.1918 -0.1827  0.0756
  422THF     C3 9576   2.054   2.260   0.169  0.8014 -0.3141  0.1389
  422THF     H4 9577   1.941   2.171   0.404  1.3949  1.4975  0.2065
  422THF     H5 9578   2.059   2.042   0.424 -0.4922  0.0251  0.6825
  422THF     H6 9579   1.972   2.326   0.196  1.1512 -0.0341  0.5332
  422THF     H7 9580   2.135   2.309   0.114 -0.0357 -1.1013 -1.8789
  422THF     C8 9581   2.015   2.130   0.111  0.0800 -0.0116  0.1315
  422THF     C9 9582   1.999   2.034   0.229  0.5327 -0.1378  0.0410
  422THF    H10 9583   2.100   2.094   0.053 -0.5391  1.3098 -1.6829
  422THF    H11 9584   1.930   2.134   0.043 -0.2040  0.1291  0.4868
  422THF    H12 9585   1.894   2.002   0.232  0.2889  0.5793 -0.6478
  422THF    H13 9586   2.068   1.952   0.211 -2.2356 -3.3754  2.5436
  423THF     O1 9587   2.863   3.128   2.880 -0.1013  0.0967  0.3245
  423THF     C2 9588   2.989   3.144   2.833 -0.0160 -0.9207  0.4043
  423THF     C3 9589   2.803   3.258   2.873 -0.1894  0.2667  0.3431
  423THF     H4 9590   3.036   3.047   2.816  1.8423 -0.0655  0.3673
  423THF     H5 9591   3.046   3.188   2.915  0.1242 -2.2497  1.0493
  423THF     H6 9592   2.696   3.239   2.875 -0.6248  2.4450  1.9179
  423THF     H7 9593   2.813   3.311   2.968 -0.4624 -3.3881  2.5837
  423THF     C8 9594   2.854   3.319   2.747  0.7315  0.3668 -0.4123
  423THF     C9 9595   2.960   3.212   2.703  0.3979 -0.0729  0.1764
  423THF    H10 9596   2.890   3.421   2.752 -1.1535  1.1481 -1.4438
  423THF    H11 9597   2.771   3.319   2.675 -0.0861 -0.4399  0.4970
  423THF    H12 9598   2.909   3.142   2.638 -0.2615 -2.2421  2.8484
  423THF    H13 9599   3.052   3.252   2.659  0.0746  0.3627 -0.1090
  424THF     O1 9600   3.994   1.501   1.412 -0.4919 -0.0244 -0.2680
  424THF     C2 9601   3.900   1.555   1.497  0.1903 -0.0881  0.3352
  424THF     C3 9602   4.098   1.595   1.388  0.0543  0.1326 -0.1986
  424THF     H4 9603   3.822   1.485   1.528 -1.9529  0.5323 -3.1006
  424THF     H5 9604   3.842   1.631   1.445  1.6792 -0.2501 -1.6387
  424THF     H6 9605   4.185   1.530   1.374 -0.0219  0.3962 -2.2717
  424THF     H7 9606   4.075   1.665   1.307  1.7865 -0.8430 -1.6263
  424THF     C8 9607   4.104   1.673   1.523 -0.1878  0.5208 -0.0807
  424THF     C9 9608   3.979   1.627   1.600 -0.1561 -0.2118 -0.6232
  424THF    H10 9609   4.111   1.780   1.501 -1.2311  0.2798 -1.8128
  424THF    H11 9610   4.195   1.646   1.575 -0.2491 -2.4783 -1.3756
  424THF    H12 9611   4.001   1.579   1.696 -2.0999  1.4801  0.7446
  424THF    H13 9612   3.923   1.719   1.617  0.7845  0.1414  0.7430
  425THF     O1 9613   3.860   3.839   4.360  0.5341  0.0288  0.8319
  425THF     C2 9614   3.895   3.708   4.389 -0.2186  0.5640 -0.0231
  425THF     C3 9615   3.733   3.883   4.417 -0.5100 -0.3522 -0.2885
  425THF     H4 9616   3.990   3.704   4.442 -0.6148  1.1442  0.7562
  425THF     H5 9617   3.896   3.658   4.292  0.2247  1.5229 -0.5266
  425THF     H6 9618   3.751   3.950   4.502  0.9486 -0.1869 -0.7005
  425THF     H7 9619   3.673   3.939   4.345  0.0363 -1.0038 -1.2735
  425THF     C8 9620   3.667   3.745   4.450  0.3670  0.2541 -0.8601
  425THF     C9 9621   3.785   3.652   4.480  0.3263 -0.4456 -0.2662
  425THF    H10 9622   3.607   3.706   4.368 -1.8623  0.5184  0.5274
  425THF    H11 9623   3.601   3.751   4.537  1.0487 -1.1183 -0.2172
  425THF    H12 9624   3.809   3.658   4.586 -1.9149 -0.7802  0.3138
  425THF    H13 9625   3.777   3.554   4.432  4.1339  0.7747 -4.0304
  426THF     O1 9626   0.429   0.586   0.227  0.2524  0.1006  0.2632
  426THF     C2 9627   0.396   0.698   0.145 -0.0036 -0.2185 -0.1516
  426THF     C3 9628   0.354   0.585   0.342  0.1062  0.0408  0.3097
  426THF     H4 9629   0.423   0.694   0.040 -3.4562  1.1331 -1.2229
  426THF     H5 9630   0.464   0.775   0.183 -0.4981 -0.6599  1.7641
  426THF     H6 9631   0.323   0.485   0.374  0.4539 -0.3354 -0.5033
  426THF     H7 9632   0.424   0.625   0.415  1.3448  0.7872 -1.2441
  426THF     C8 9633   0.228   0.674   0.311 -0.7450  0.4025 -0.2287
  426THF     C9 9634   0.247   0.711   0.163 -0.4459  0.3679 -0.2194
  426THF    H10 9635   0.228   0.767   0.367  1.4859  1.2075 -1.4211
  426THF    H11 9636   0.132   0.625   0.326  0.3955 -3.0888 -2.7449
  426THF    H12 9637   0.208   0.645   0.085  3.5532  0.5493 -2.6879
  426THF    H13 9638   0.205   0.808   0.139 -1.7711  0.1937  1.2508
  427THF     O1 9639   0.121   5.307   2.468 -0.7159  0.1394  0.3675
  427THF     C2 9640   0.229   5.326   2.551  0.1271  0.0990  0.0184
  427THF     C3 9641   0.132   5.404   2.364 -0.4722 -0.1164  1.0404
  427THF     H4 9642   0.262   5.243   2.613 -1.8046 -0.5409  0.2367
  427THF     H5 9643   0.203   5.409   2.617  1.3239  2.8785 -2.7318
  427THF     H6 9644   0.074   5.392   2.273  0.9611  0.3066  0.0223
  427THF     H7 9645   0.131   5.508   2.396  0.8123  0.7039 -1.3133
  427THF     C8 9646   0.279   5.390   2.321  0.2681  0.1256 -0.4735
  427THF     C9 9647   0.350   5.364   2.455  0.5539  0.2904 -0.1540
  427THF    H10 9648   0.308   5.486   2.277  0.2012  0.6951  0.6743
  427THF    H11 9649   0.294   5.330   2.232  2.1526 -0.2929  0.0942
  427THF    H12 9650   0.421   5.281   2.449 -1.8393 -1.8952  0.1566
  427THF    H13 9651   0.404   5.454   2.485  1.2531  0.4498 -1.7866
  428THF     O1 9652   4.258   2.208   2.423 -0.4794 -0.2605  0.0015
  428THF     C2 9653   4.301   2.124   2.526 -0.4829 -0.7896 -0.7059
  428THF     C3 9654   4.371   2.221   2.339  0.3825 -0.2089 -0.2281
  428THF     H4 9655   4.295   2.022   2.488 -1.3801 -1.0728  0.1748
  428THF     H5 9656   4.247   2.116   2.620  2.1411 -1.9816  0.8188
  428THF     H6 9657   4.359   2.139   2.267  0.4830 -0.3383 -0.0967
  428THF     H7 9658   4.379   2.319   2.292  0.9409  0.3729  1.0400
  428THF     C8 9659   4.496   2.196   2.419  0.4299 -0.9429 -0.3740
  428THF     C9 9660   4.445   2.162   2.558 -0.1183  0.0996 -0.8592
  428THF    H10 9661   4.547   2.292   2.424  3.3301 -2.3324 -1.2003
  428THF    H11 9662   4.571   2.125   2.385  1.5385  0.1336 -0.2485
  428THF    H12 9663   4.497   2.073   2.593  0.8357  0.6929 -0.7372
  428THF    H13 9664   4.452   2.241   2.632  2.2289 -0.8552  0.0539
  429THF     O1 9665   1.441   3.501   4.476  0.2918  0.0985 -0.1635
  429THF     C2 9666   1.341   3.608   4.483  0.4645  0.4108 -0.3807
  429THF     C3 9667   1.382   3.381   4.429 -0.0310  0.0211  0.4946
  429THF     H4 9668   1.347   3.672   4.396  0.6010  0.3853 -0.3923
  429THF     H5 9669   1.360   3.671   4.570 -1.9770 -1.9861  2.0693
  429THF     H6 9670   1.365   3.380   4.321  3.1442  0.5767 -0.1037
  429THF     H7 9671   1.444   3.294   4.452  0.7802 -0.2318 -2.2917
  429THF     C8 9672   1.254   3.388   4.507 -0.5040  0.2220  1.0293
  429THF     C9 9673   1.210   3.529   4.504  0.1860 -0.1123  0.5057
  429THF    H10 9674   1.277   3.362   4.610  1.8184  1.2441  0.8293
  429THF    H11 9675   1.181   3.317   4.468  0.1842 -0.2280  0.5381
  429THF    H12 9676   1.146   3.544   4.417  0.8464 -2.8261 -0.5378
  429THF    H13 9677   1.155   3.558   4.593 -0.6649  0.1252 -0.0865
  430THF     O1 9678   4.028   0.717   0.898 -0.3525 -0.0440  0.2939
  430THF     C2 9679   3.982   0.834   0.827 -0.6675  0.7431  0.3791
  430THF     C3 9680   3.981   0.719   1.027  0.1814  0.3449  0.3555
  430THF     H4 9681   3.952   0.800   0.728  0.3802 -2.4292  1.0345
  430THF     H5 9682   4.069   0.898   0.838  2.7359 -3.2526 -0.4819
  430THF     H6 9683   3.999   0.627   1.085  0.4906  0.3726  0.3072
  430THF     H7 9684   4.048   0.789   1.077 -1.8670  1.1056  2.1865
  430THF     C8 9685   3.835   0.776   0.996 -0.2450 -0.2437 -0.3075
  430THF     C9 9686   3.845   0.875   0.894  0.5758 -0.1801  0.7665
  430THF    H10 9687   3.790   0.817   1.087  2.4105  1.7258  0.2270
  430THF    H11 9688   3.765   0.699   0.962 -1.6438  0.6078  0.5718
  430THF    H12 9689   3.761   0.869   0.824 -0.0296  0.0572  1.4652
  430THF    H13 9690   3.852   0.975   0.936  2.5246  0.0479 -0.0134
  431THF     O1 9691   4.940   4.490   1.967  0.4831 -0.2890  0.1532
  431THF     C2 9692   5.054   4.444   2.045  0.0033  0.4410 -0.0001
  431THF     C3 9693   4.975   4.505   1.832 -0.6619  0.3398 -0.2596
  431THF     H4 9694   5.022   4.349   2.089 -0.4406  0.1458 -0.9293
  431THF     H5 9695   5.089   4.515   2.119 -1.2771  1.2325 -0.1177
  431THF     H6 9696   4.895   4.474   1.765 -0.4166 -1.3559  0.1929
  431THF     H7 9697   4.998   4.612   1.829 -1.1311  0.4195 -2.0371
  431THF     C8 9698   5.105   4.420   1.812 -0.1386 -0.1162  0.2638
  431THF     C9 9699   5.168   4.429   1.948  0.3154 -0.1488  0.2865
  431THF    H10 9700   5.158   4.444   1.720  1.1716 -0.1634  0.9788
  431THF    H11 9701   5.068   4.318   1.809 -2.9628  0.6092  3.6914
  431THF    H12 9702   5.216   4.333   1.965 -1.8826 -1.6905 -1.5547
  431THF    H13 9703   5.234   4.515   1.952  0.0417  0.0300  1.2840
  432THF     O1 9704   4.053   1.150   0.694  0.1323  0.0239 -0.3066
  432THF     C2 9705   4.021   1.288   0.715  0.0070 -0.4923  0.7493
  432THF     C3 9706   3.977   1.106   0.585  1.1707  0.8358  0.6462
  432THF     H4 9707   4.058   1.356   0.638 -4.2959  1.4883  0.0939
  432THF     H5 9708   4.057   1.332   0.807 -0.2224 -0.8032  0.9906
  432THF     H6 9709   4.012   1.145   0.490  0.9298  1.5759  0.8598
  432THF     H7 9710   3.979   0.997   0.576  0.2580  0.6936  1.8497
  432THF     C8 9711   3.838   1.161   0.625 -0.2544 -0.2344  0.1407
  432THF     C9 9712   3.868   1.286   0.707 -0.6547 -0.1928 -0.1672
  432THF    H10 9713   3.779   1.093   0.686  0.1021 -2.2194 -1.6004
  432THF    H11 9714   3.778   1.181   0.537  0.5120 -1.3192 -0.6519
  432THF    H12 9715   3.834   1.378   0.660 -0.5244  0.2499  0.5871
  432THF    H13 9716   3.820   1.277   0.804  0.6692  0.4814  0.5702
  433THF     O1 9717   3.837   2.853   2.561 -0.3692  0.1967 -0.0467
  433THF     C2 9718   3.941   2.843   2.653  0.2452  0.2039  0.2490
  433THF     C3 9719   3.811   2.720   2.517  0.0632  0.3864  0.0720
  433THF     H4 9720   3.941   2.918   2.732 -0.6294  0.2340  0.2246
  433THF     H5 9721   4.038   2.856   2.604  1.2173  0.6898  2.1960
  433THF     H6 9722   3.713   2.706   2.472  1.1927  2.1519 -3.3948
  433THF     H7 9723   3.886   2.697   2.440  0.4927  2.2250 -0.1127
  433THF     C8 9724   3.824   2.639   2.646 -0.6089  0.0091  0.0657
  433THF     C9 9725   3.933   2.706   2.722 -0.1771  0.2825  0.1608
  433THF    H10 9726   3.842   2.533   2.625  1.4726  0.5183 -0.9539
  433THF    H11 9727   3.732   2.653   2.702  0.6857 -0.1566  2.3430
  433THF    H12 9728   3.910   2.715   2.828 -0.2014 -1.8927  0.3861
  433THF    H13 9729   4.019   2.640   2.714  0.2760  0.9385 -0.5451
  434THF     O1 9730   3.466   1.493   2.773  0.5845  0.3334 -0.2663
  434THF     C2 9731   3.344   1.428   2.737  0.3345  0.7208 -0.6733
  434THF     C3 9732   3.440   1.625   2.794  0.4968  0.6309 -0.1961
  434THF     H4 9733   3.275   1.416   2.820  1.4830  1.0508  0.3671
  434THF     H5 9734   3.350   1.330   2.691  0.2731 -0.0266  0.8591
  434THF     H6 9735   3.418   1.631   2.901  0.9182  0.6799 -0.1101
  434THF     H7 9736   3.532   1.680   2.776  0.0784  1.8575  1.1409
  434THF     C8 9737   3.324   1.657   2.694  0.3049 -0.1310  0.3393
  434THF     C9 9738   3.284   1.521   2.635  0.5458 -0.9797  0.1197
  434THF    H10 9739   3.364   1.723   2.617  0.4018 -0.4711  0.0919
  434THF    H11 9740   3.240   1.704   2.744  0.9293  1.2879  0.0859
  434THF    H12 9741   3.179   1.508   2.612  0.7840  1.3595 -2.8727
  434THF    H13 9742   3.335   1.523   2.539 -0.4577 -0.3167 -0.4200
  435THF     O1 9743   3.036   2.160   2.102 -0.2012  0.2072  0.0318
  435THF     C2 9744   3.132   2.263   2.123 -0.1919 -0.1882  0.0515
  435THF     C3 9745   2.996   2.107   2.230 -0.2425 -0.4403 -0.9605
  435THF     H4 9746   3.155   2.328   2.039 -1.4968  1.1769  0.6988
  435THF     H5 9747   3.221   2.205   2.150  0.1799  0.7319  0.8571
  435THF     H6 9748   2.896   2.064   2.227  0.2049 -1.5769 -0.0480
  435THF     H7 9749   3.075   2.038   2.259  0.4052  0.4185 -0.6376
  435THF     C8 9750   3.005   2.221   2.329  0.1162  0.3791 -0.0396
  435THF     C9 9751   3.067   2.333   2.239 -0.6052  0.0571 -0.3378
  435THF    H10 9752   3.060   2.208   2.422  1.6916  0.0922 -0.9710
  435THF    H11 9753   2.912   2.260   2.370 -1.1302 -0.2778 -2.0917
  435THF    H12 9754   2.994   2.402   2.197 -2.4322 -0.2716  2.0641
  435THF    H13 9755   3.137   2.396   2.294 -1.6511  1.4153 -0.5092
  436THF     O1 9756   0.384   4.092   0.155 -0.0326 -0.5031 -0.0141
  436THF     C2 9757   0.362   4.042   0.024 -0.0994  0.0025 -0.7006
  436THF     C3 9758   0.309   4.016   0.244  0.2549  0.3149 -0.1200
  436THF     H4 9759   0.394   3.940   0.002 -1.8280 -0.5665 -0.7611
  436THF     H5 9760   0.383   4.112  -0.057 -0.5567 -0.4750 -1.2476
  436THF     H6 9761   0.362   3.921   0.258  2.6850  1.5085 -0.6326
  436THF     H7 9762   0.297   4.060   0.343  1.2345 -1.7990  1.0048
  436THF     C8 9763   0.178   3.994   0.164  0.5349 -0.0809  0.0024
  436THF     C9 9764   0.211   4.035   0.025 -0.1087  0.1958 -0.4760
  436THF    H10 9765   0.083   4.025   0.206 -0.2791 -0.9905 -1.1095
  436THF    H11 9766   0.177   3.885   0.175 -0.3291 -0.0158  0.6189
  436THF    H12 9767   0.174   3.961  -0.046 -0.2732  1.0278 -1.2727
  436THF    H13 9768   0.172   4.134   0.002 -0.1116 -0.4316 -3.6263
  437THF     O1 9769   2.081   2.734   2.337  0.1111  0.3757  0.3320
  437THF     C2 9770   2.029   2.629   2.248  0.1117  0.3552 -0.1423
  437THF     C3 9771   2.017   2.728   2.466  0.2176  0.2528  0.0821
  437THF     H4 9772   2.103   2.550   2.235  1.6280  1.6713  0.1677
  437THF     H5 9773   2.012   2.665   2.147  0.3868 -0.5786 -0.5267
  437THF     H6 9774   2.079   2.674   2.537 -0.1931 -0.0864  0.1897
  437THF     H7 9775   1.995   2.822   2.517  0.9069  0.1620  0.5582
  437THF     C8 9776   1.881   2.673   2.440  0.7582 -0.8517 -0.1672
  437THF     C9 9777   1.902   2.571   2.327  0.1858  0.1435 -0.5685
  437THF    H10 9778   1.818   2.756   2.408  0.6347 -0.8675  0.0320
  437THF    H11 9779   1.839   2.620   2.526  2.1672 -0.3440  0.8530
  437THF    H12 9780   1.920   2.469   2.359 -0.3670  0.4058  0.6478
  437THF    H13 9781   1.815   2.556   2.264  1.0843 -1.0662 -1.5697
  438THF     O1 9782   2.036   3.446   1.877  0.0082  0.3062  0.4129
  438THF     C2 9783   1.959   3.493   1.989  0.9982 -0.3150 -0.3456
  438THF     C3 9784   2.110   3.560   1.826  0.3458 -0.2029  0.2296
  438THF     H4 9785   1.999   3.459   2.085  1.6151 -0.3620 -0.6168
  438THF     H5 9786   1.864   3.439   1.988  1.0220 -0.4594  1.3758
  438THF     H6 9787   2.202   3.564   1.884 -0.4006  0.7535  1.3947
  438THF     H7 9788   2.127   3.554   1.718  0.0577 -1.2884  0.2373
  438THF     C8 9789   2.035   3.688   1.859 -1.0822  0.3833 -0.5155
  438THF     C9 9790   1.960   3.649   1.983  0.8964 -0.2857 -0.2605
  438THF    H10 9791   1.963   3.716   1.782  1.6574  4.5130 -1.9305
  438THF    H11 9792   2.103   3.773   1.858  0.8520 -1.1056 -0.7743
  438THF    H12 9793   1.996   3.689   2.077 -0.5052 -1.7340  0.9480
  438THF    H13 9794   1.857   3.682   1.972  0.5026 -1.3312  0.1408
  439THF     O1 9795   4.426   2.091   4.082 -0.0461  0.1150  0.7142
  439THF     C2 9796   4.466   2.025   3.961 -0.2831  0.6724 -0.1784
  439THF     C3 9797   4.303   2.155   4.050  0.3468  0.1432 -0.0138
  439THF     H4 9798   4.414   1.933   3.935  0.8738  0.6472 -2.6784
  439THF     H5 9799   4.571   1.994   3.966 -0.8740 -1.7773 -1.4619
  439THF     H6 9800   4.222   2.084   4.030 -0.7965  1.4215 -0.1084
  439THF     H7 9801   4.273   2.219   4.133  0.6560 -0.4479  0.5670
  439THF     C8 9802   4.337   2.233   3.919 -0.3530  0.0709 -0.1865
  439THF     C9 9803   4.441   2.134   3.855  0.9311  0.0539  0.1639
  439THF    H10 9804   4.395   2.318   3.954 -1.3992  0.5703  0.3982
  439THF    H11 9805   4.256   2.271   3.856 -0.7651 -0.2779  0.1255
  439THF    H12 9806   4.424   2.090   3.757  1.2380 -1.1374  0.6306
  439THF    H13 9807   4.539   2.183   3.846  1.6342 -1.5727 -2.3155
  440THF     O1 9808   3.642   3.341   4.294  0.3869  0.6356 -0.4507
  440THF     C2 9809   3.645   3.308   4.439 -0.0482 -0.4323 -0.7553
  440THF     C3 9810   3.502   3.347   4.273 -0.0416 -0.9127  0.6288
  440THF     H4 9811   3.614   3.401   4.487  0.1445 -0.6423 -0.2154
  440THF     H5 9812   3.745   3.274   4.465 -0.7349 -1.5126  0.5576
  440THF     H6 9813   3.442   3.429   4.313  0.1795  0.1318 -1.0735
  440THF     H7 9814   3.455   3.348   4.175 -1.4253  0.3053  1.2632
  440THF     C8 9815   3.438   3.227   4.343  1.1569  0.1319 -0.8088
  440THF     C9 9816   3.541   3.202   4.457  0.3715  0.1622 -0.4391
  440THF    H10 9817   3.411   3.139   4.285 -2.6083 -1.0483  2.3086
  440THF    H11 9818   3.344   3.259   4.389  1.4877 -2.4197  1.9725
  440THF    H12 9819   3.512   3.221   4.560  1.2268  0.8977 -0.3195
  440THF    H13 9820   3.577   3.100   4.449 -0.1972 -0.1651  0.9779
  441THF     O1 9821   3.574   1.032   1.029 -0.4874 -0.3028 -0.0716
  441THF     C2 9822   3.587   1.109   0.913  0.0176  0.1659  0.6980
  441THF     C3 9823   3.433   1.001   1.037  0.6495 -0.0690 -0.0508
  441THF     H4 9824   3.586   1.041   0.828 -1.5072  0.1358  0.7058
  441THF     H5 9825   3.690   1.146   0.910  0.5683 -1.1037  2.5217
  441THF     H6 9826   3.406   0.913   0.979  2.4413 -1.5550  1.2806
  441THF     H7 9827   3.417   0.988   1.144  0.4755 -1.5441 -0.2328
  441THF     C8 9828   3.363   1.129   0.987 -0.0765 -0.2789  0.3321
  441THF     C9 9829   3.470   1.206   0.908 -0.2359 -0.2393  0.3655
  441THF    H10 9830   3.317   1.183   1.069  1.7361  0.9697  0.5773
  441THF    H11 9831   3.283   1.109   0.916  0.8538 -1.3134 -0.4601
  441THF    H12 9832   3.432   1.237   0.811 -0.6291  0.0830  0.6200
  441THF    H13 9833   3.506   1.292   0.965  1.4283 -2.1756  2.4668
  442THF     O1 9834   4.842   5.191   5.267 -0.4898  0.5717  0.2107
  442THF     C2 9835   4.949   5.101   5.231  0.2744  0.1657 -0.5662
  442THF     C3 9836   4.828   5.284   5.161 -1.0988 -0.7151  0.4568
  442THF     H4 9837   4.933   5.031   5.150 -1.0025 -1.2120  0.8108
  442THF     H5 9838   4.987   5.051   5.320 -0.4324 -1.2411 -1.0192
  442THF     H6 9839   4.772   5.243   5.077  2.5979 -1.8336 -1.7155
  442THF     H7 9840   4.780   5.373   5.204 -0.0563  0.4919 -0.7743
  442THF     C8 9841   4.976   5.312   5.124 -0.4071  0.5333 -0.8189
  442THF     C9 9842   5.054   5.206   5.194  1.1225  0.9710  0.6018
  442THF    H10 9843   4.998   5.417   5.146  2.3306 -0.3150  1.1368
  442THF    H11 9844   4.987   5.287   5.019  1.2608  0.8967 -0.7555
  442THF    H12 9845   5.136   5.175   5.129 -0.2113 -0.4312 -0.4845
  442THF    H13 9846   5.104   5.247   5.282  2.2221 -0.8719  0.8930
  443THF     O1 9847   3.580   4.828   3.200 -0.3450 -0.3423  0.5409
  443THF     C2 9848   3.607   4.869   3.065 -0.7873 -0.6427 -0.0413
  443THF     C3 9849   3.447   4.856   3.223 -0.4454  0.2295  0.5261
  443THF     H4 9850   3.584   4.790   2.994  1.6533 -0.8982 -0.6579
  443THF     H5 9851   3.713   4.892   3.050 -0.9250 -1.0159 -1.7529
  443THF     H6 9852   3.381   4.798   3.158  0.8119 -0.8010  0.1469
  443THF     H7 9853   3.417   4.844   3.328 -2.6670 -0.0128 -0.0849
  443THF     C8 9854   3.449   4.998   3.174  0.0176  0.0048  0.1410
  443THF     C9 9855   3.536   5.004   3.052  0.0357 -0.4210  0.5632
  443THF    H10 9856   3.502   5.066   3.241 -0.8575  0.5119  0.3332
  443THF    H11 9857   3.349   5.042   3.166  0.1567 -0.0417 -2.6931
  443THF    H12 9858   3.474   5.028   2.965 -1.4060  0.0706  1.6806
  443THF    H13 9859   3.611   5.083   3.055  0.4822 -0.6650 -1.9509
  444THF     O1 9860   2.496   5.156   4.519 -0.3502  0.3708 -0.2157
  444THF     C2 9861   2.400   5.057   4.496 -0.1485  0.8419  0.0028
  444THF     C3 9862   2.620   5.111   4.477 -0.3057 -0.2742  0.0449
  444THF     H4 9863   2.297   5.091   4.487 -0.9022 -1.4460 -0.6440
  444THF     H5 9864   2.398   4.988   4.579  1.1372 -0.4851 -1.0167
  444THF     H6 9865   2.653   5.190   4.409  1.4003 -1.6107 -0.7498
  444THF     H7 9866   2.679   5.115   4.568 -0.1375  1.1695 -0.0943
  444THF     C8 9867   2.606   4.983   4.398  0.0202 -0.0145 -0.0521
  444THF     C9 9868   2.458   4.987   4.370  0.3528 -0.3262  0.1411
  444THF    H10 9869   2.639   4.893   4.450 -0.4802 -0.1123  0.1007
  444THF    H11 9870   2.659   4.991   4.303  1.4663  3.2150  0.8871
  444THF    H12 9871   2.430   5.039   4.279 -0.3835  3.0689  2.1453
  444THF    H13 9872   2.435   4.881   4.358 -0.4504 -0.0756 -0.6570
  445THF     O1 9873   2.229   4.777   3.129 -0.0744  0.1863 -0.3259
  445THF     C2 9874   2.161   4.766   3.255 -0.3898  0.7252  0.3166
  445THF     C3 9875   2.181   4.892   3.065 -0.2159 -0.3024  0.2305
  445THF     H4 9876   2.234   4.725   3.325  0.4814  1.1905 -0.3037
  445THF     H5 9877   2.074   4.701   3.246  0.8765 -1.2630  1.5166
  445THF     H6 9878   2.259   4.929   2.998  0.5021 -0.6164  0.8765
  445THF     H7 9879   2.104   4.852   2.998  1.0833  1.2584 -2.3762
  445THF     C8 9880   2.121   4.987   3.162 -0.1022 -0.2160 -0.1860
  445THF     C9 9881   2.130   4.914   3.288  0.5487 -0.0301 -0.0727
  445THF    H10 9882   2.021   5.028   3.151 -0.6413 -1.5579 -0.5125
  445THF    H11 9883   2.192   5.069   3.164 -1.2209  0.7905 -0.7435
  445THF    H12 9884   2.209   4.953   3.352  1.0863  0.8675 -1.2517
  445THF    H13 9885   2.028   4.916   3.327  0.0423 -0.1075 -1.3548
  446THF     O1 9886   4.406   2.741   3.908  0.4289 -0.2550 -0.9896
  446THF     C2 9887   4.263   2.766   3.909  0.0435  0.2961  0.3838
  446THF     C3 9888   4.433   2.695   4.041 -0.0759 -0.0439 -0.3178
  446THF     H4 9889   4.206   2.673   3.908 -1.5438  1.2045  1.6369
  446THF     H5 9890   4.228   2.830   3.828  0.6731  2.9730  2.0930
  446THF     H6 9891   4.423   2.587   4.051  1.9711 -0.4564 -2.0379
  446THF     H7 9892   4.536   2.712   4.072 -0.8922 -0.4174  2.9685
  446THF     C8 9893   4.344   2.769   4.140 -0.0104 -0.2581  0.4129
  446THF     C9 9894   4.242   2.833   4.050  0.0280  0.6681 -0.6417
  446THF    H10 9895   4.398   2.847   4.194  1.7008 -0.0929 -1.4355
  446THF    H11 9896   4.292   2.704   4.210 -0.1316  0.2032  0.7574
  446THF    H12 9897   4.140   2.825   4.087  0.0123 -0.5816 -0.9144
  446THF    H13 9898   4.263   2.939   4.036  4.4942  0.0207 -0.2709
  447THF     O1 9899   1.286   1.777   3.805 -0.3104 -0.2850 -0.5502
  447THF     C2 9900   1.388   1.880   3.808 -0.0626  0.0879 -0.6491
  447THF     C3 9901   1.196   1.800   3.697 -0.1344 -0.6147 -0.2777
  447THF     H4 9902   1.479   1.850   3.860 -0.9510  0.4839  1.2426
  447THF     H5 9903   1.342   1.963   3.861 -1.7299 -0.6956 -0.8300
  447THF     H6 9904   1.145   1.706   3.673  0.5500 -1.0251 -0.1617
  447THF     H7 9905   1.131   1.885   3.714  2.6556  1.7415 -0.6530
  447THF     C8 9906   1.290   1.844   3.588 -0.2524 -0.1920  0.5355
  447THF     C9 9907   1.413   1.895   3.662  1.1781 -0.3364  0.0281
  447THF    H10 9908   1.237   1.921   3.533  0.1993  0.2630  0.7326
  447THF    H11 9909   1.311   1.764   3.517 -2.0931  1.2954 -1.8292
  447THF    H12 9910   1.494   1.831   3.627  0.4221 -1.0244 -0.4949
  447THF    H13 9911   1.462   1.985   3.625  0.8826 -1.2198 -2.7190
  448THF     O1 9912   4.996   4.956   4.930 -0.5495 -0.3432 -0.2480
  448THF     C2 9913   5.115   4.877   4.907  0.0834 -0.8516  0.0089
  448THF     C3 9914   4.890   4.868   4.972  0.0121 -0.0088 -0.4943
  448THF     H4 9915   5.210   4.930   4.910 -0.9837  1.1233  1.1239
  448THF     H5 9916   5.131   4.827   4.811  0.5039 -0.3772 -0.1694
  448THF     H6 9917   4.825   4.927   5.037  3.4764  1.5858  1.8587
  448THF     H7 9918   4.834   4.836   4.885 -1.8315  2.5905 -0.3653
  448THF     C8 9919   4.960   4.762   5.055  0.4068 -0.4784  0.4923
  448THF     C9 9920   5.107   4.796   5.039  0.8951  0.4497  0.7159
  448THF    H10 9921   4.935   4.663   5.016 -0.1017  0.1957 -0.9832
  448THF    H11 9922   4.939   4.766   5.162  1.6825  1.3915  0.7124
  448THF    H12 9923   5.133   4.855   5.127 -0.8539 -1.3566  2.5570
  448THF    H13 9924   5.180   4.718   5.021  0.7683  0.2581  1.0364
  449THF     O1 9925   0.456   1.714   1.610 -0.4056  0.2189  0.5735
  449THF     C2 9926   0.444   1.846   1.574  0.2091  0.2838  0.4396
  449THF     C3 9927   0.528   1.646   1.505  0.2122  0.6672  1.0218
  449THF     H4 9928   0.460   1.908   1.662  1.8141 -0.5978  0.7990
  449THF     H5 9929   0.344   1.860   1.534  0.9805 -0.6510 -1.9802
  449THF     H6 9930   0.629   1.617   1.535  0.3280 -1.1141 -0.8240
  449THF     H7 9931   0.468   1.558   1.479  0.9353  0.2741  0.6570
  449THF     C8 9932   0.535   1.744   1.383 -0.1777  0.4373 -0.2235
  449THF     C9 9933   0.538   1.876   1.459  0.3838 -0.1746  0.0165
  449THF    H10 9934   0.447   1.732   1.321 -0.4440 -0.5030  0.3213
  449THF    H11 9935   0.623   1.734   1.319 -0.1720  0.0385 -0.1571
  449THF    H12 9936   0.639   1.898   1.492  0.8348  0.8545 -1.8418
  449THF    H13 9937   0.500   1.959   1.399 -0.1037 -0.4053 -0.0047
  450THF     O1 9938   2.217   3.260   0.977  0.3001  0.2632  0.0268
  450THF     C2 9939   2.166   3.134   0.948  1.1333  0.5621  0.4655
  450THF     C3 9940   2.301   3.248   1.092 -0.1465 -0.2949  0.5207
  450THF     H4 9941   2.248   3.075   0.906 -1.0075 -1.6687 -0.8526
  450THF     H5 9942   2.083   3.136   0.877  0.8433 -1.4251  0.6709
  450THF     H6 9943   2.383   3.179   1.077 -1.0760 -1.5370  0.9539
  450THF     H7 9944   2.331   3.349   1.121 -0.8188  0.0690 -0.0158
  450THF     C8 9945   2.202   3.171   1.185  0.4632 -0.2414 -0.0143
  450THF     C9 9946   2.117   3.086   1.086  0.6522  0.3072 -0.8581
  450THF    H10 9947   2.130   3.231   1.240 -0.0918 -0.5930 -0.3485
  450THF    H11 9948   2.256   3.110   1.258  0.2912  0.3033  0.5728
  450THF    H12 9949   2.150   2.984   1.102  0.5822  0.2592 -1.0113
  450THF    H13 9950   2.009   3.098   1.095  0.6351 -0.1013 -0.5307
  451THF     O1 9951   4.600   0.865   3.718  0.6630  0.2787  0.2561
  451THF     C2 9952   4.671   0.988   3.722  0.3291  0.5154 -0.0794
  451THF     C3 9953   4.462   0.890   3.718  0.3348  0.5738 -0.3658
  451THF     H4 9954   4.769   0.983   3.675 -0.9162  0.6175 -2.8326
  451THF     H5 9955   4.674   1.015   3.828 -1.0023 -0.1880  0.1561
  451THF     H6 9956   4.399   0.807   3.685 -1.0885  2.1281 -1.7998
  451THF     H7 9957   4.422   0.923   3.814  0.1609  0.5649 -0.4336
  451THF     C8 9958   4.446   1.007   3.626 -0.3772 -0.4679 -0.5276
  451THF     C9 9959   4.584   1.073   3.640 -0.4245  0.4464 -0.3476
  451THF    H10 9960   4.362   1.071   3.653  1.9676  2.9382 -0.5964
  451THF    H11 9961   4.428   0.964   3.528 -2.5335 -1.2043  0.1327
  451THF    H12 9962   4.622   1.098   3.541  1.1593 -0.0402  0.1014
  451THF    H13 9963   4.578   1.170   3.689  0.3139  0.1744  0.2973
  452THF     O1 9964   0.621   2.214   1.385 -0.1499 -0.0557  0.3066
  452THF     C2 9965   0.724   2.305   1.436  0.6293 -0.1142  0.9651
  452THF     C3 9966   0.506   2.234   1.463 -0.3768  0.1477  0.2300
  452THF     H4 9967   0.802   2.335   1.366  0.7921  0.5048  1.4016
  452THF     H5 9968   0.775   2.252   1.515  0.5789 -1.7107 -0.0334
  452THF     H6 9969   0.424   2.187   1.409  0.2675 -0.7895  0.0509
  452THF     H7 9970   0.522   2.186   1.560 -0.4210 -1.9508 -0.7411
  452THF     C8 9971   0.497   2.384   1.492  0.0385  0.5328 -0.5043
  452THF     C9 9972   0.643   2.417   1.492 -0.3322  0.5410  0.1556
  452THF    H10 9973   0.451   2.426   1.582 -1.8589 -0.6744 -0.8535
  452THF    H11 9974   0.452   2.441   1.411  0.7613  0.7927 -0.7227
  452THF    H12 9975   0.655   2.512   1.439 -1.2140 -0.3467 -1.7325
  452THF    H13 9976   0.676   2.438   1.594  0.2334  1.0619 -0.1265
  453THF     O1 9977   4.605   2.287   1.982  0.0358 -0.0175 -0.8607
  453THF     C2 9978   4.480   2.338   1.951 -0.8699  0.2037 -0.0223
  453THF     C3 9979   4.674   2.385   2.065  0.0776 -0.0996  0.1543
  453THF     H4 9980   4.409   2.289   2.017  2.6213 -2.1174  2.3604
  453THF     H5 9981   4.471   2.296   1.850  1.1745 -1.1578  0.3130
  453THF     H6 9982   4.640   2.367   2.167 -1.9184 -0.0363 -0.4399
  453THF     H7 9983   4.782   2.375   2.061  0.2721  0.7722  2.0565
  453THF     C8 9984   4.616   2.521   2.019  0.1415  0.0157 -0.4077
  453THF     C9 9985   4.490   2.492   1.942  0.2268 -0.0131  0.3174
  453THF    H10 9986   4.685   2.569   1.950  0.1926  1.7712  0.8114
  453THF    H11 9987   4.603   2.594   2.099  1.1255 -0.6675  0.4068
  453THF    H12 9988   4.401   2.539   1.984  0.9498  0.0400  1.8604
  453THF    H13 9989   4.502   2.523   1.839 -0.7742  3.3947  1.0980
  454THF     O1 9990   3.730   2.919   3.699  0.8940  0.0839 -0.6893
  454THF     C2 9991   3.641   3.023   3.665  0.4234  0.5612 -0.5279
  454THF     C3 9992   3.836   2.980   3.760  0.4824 -0.1008  0.5035
  454THF     H4 9993   3.591   3.063   3.754  1.0430 -0.6092  0.3909
  454THF     H5 9994   3.559   2.985   3.604 -1.5103 -2.1800  3.3203
  454THF     H6 9995   3.795   2.988   3.861 -2.1365  0.9640 -0.5546
  454THF     H7 9996   3.929   2.924   3.766  0.1639 -0.7231 -0.2046
  454THF     C8 9997   3.850   3.111   3.691  0.4608  0.4663 -0.1335
  454THF     C9 9998   3.736   3.123   3.598 -0.0985  0.1656 -0.2868
  454THF    H10 9999   3.945   3.113   3.638  0.1396 -0.1891 -0.7555
  454THF    H1110000   3.849   3.197   3.759  1.1294  0.9667 -0.7414
  454THF    H1210001   3.692   3.220   3.577  0.0283  0.1045 -0.8384
  454THF    H1310002   3.763   3.093   3.497  0.6997  0.3849 -0.1436
  455THF     O110003   4.097   5.196   3.423  0.4439 -0.4505  0.2180
  455THF     C210004   4.060   5.182   3.554 -0.0157  0.5161  0.2670
  455THF     C310005   4.049   5.090   3.361 -0.5109  0.0854 -0.1223
  455THF     H410006   4.087   5.274   3.607  1.0479 -0.3583  1.3106
  455THF     H510007   4.105   5.095   3.603  0.6451  0.3037 -0.6888
  455THF     H610008   4.037   5.120   3.257 -0.8200  0.6508  0.0731
  455THF     H710009   4.115   5.004   3.367 -0.0041  0.5532  1.2714
  455THF     C810010   3.907   5.073   3.417  0.6434 -0.4908 -0.8910
  455THF     C910011   3.912   5.167   3.535  1.0812  0.3247  0.1414
  455THF    H1010012   3.881   4.971   3.444 -1.1079 -0.3839 -2.0362
  455THF    H1110013   3.824   5.107   3.354 -0.4067  0.5946  0.9849
  455THF    H1210014   3.862   5.264   3.529  1.9318  1.0585  3.1277
  455THF    H1310015   3.868   5.111   3.617 -0.0666 -0.6591 -1.1014
  456THF     O110016   0.176   2.870   0.111 -0.2671  0.0218 -0.1187
  456THF     C210017   0.187   3.002   0.166 -0.5560 -0.6212  0.2874
  456THF     C310018   0.239   2.863  -0.014  0.0616 -0.4057  0.0479
  456THF     H410019   0.287   3.019   0.206 -0.9788  0.6981  0.8285
  456THF     H510020   0.111   3.006   0.245  0.2364 -1.3113  1.1029
  456THF     H610021   0.347   2.850  -0.003  0.4572  1.1166 -1.5264
  456THF     H710022   0.193   2.791  -0.082  0.6832  1.6316 -2.6965
  456THF     C810023   0.189   2.991  -0.081  0.2289 -0.4342 -0.0805
  456THF     C910024   0.170   3.090   0.034  0.3963 -0.3937  0.1308
  456THF    H1010025   0.098   2.966  -0.136  1.7214  0.5942 -3.3045
  456THF    H1110026   0.259   3.034  -0.153  3.2917  0.3982  3.1087
  456THF    H1210027   0.245   3.170   0.035 -1.1185  1.1114  1.9590
  456THF    H1310028   0.068   3.128   0.030  1.4218  3.3543  3.0197
  457THF     O110029   5.205   4.516   4.844 -0.4918 -0.3125  0.0739
  457THF     C210030   5.088   4.489   4.779  0.5480  0.5723 -0.7763
  457THF     C310031   5.306   4.515   4.741  0.0327  0.0910  0.8207
  457THF     H410032   5.017   4.570   4.792 -1.4873 -1.1106 -0.8557
  457THF     H510033   5.031   4.405   4.820  1.5095 -0.2455 -1.0649
  457THF     H610034   5.374   4.599   4.754 -0.2615  0.6861 -1.1957
  457THF     H710035   5.360   4.421   4.737 -1.0424 -0.5053 -0.3672
  457THF     C810036   5.236   4.534   4.607  0.5392  0.0820  0.0663
  457THF     C910037   5.108   4.453   4.636  0.6045  0.6069  0.2401
  457THF    H1010038   5.304   4.491   4.533 -0.4879 -2.1007  0.2937
  457THF    H1110039   5.228   4.639   4.578 -1.3927 -0.3096 -1.0277
  457THF    H1210040   5.020   4.481   4.580  0.7125  0.2770 -0.0990
  457THF    H1310041   5.124   4.345   4.629  2.5408  0.6880  2.1123
  458THF     O110042   1.062   3.971   1.558 -0.4107  1.1533 -0.0381
  458THF     C210043   1.099   3.838   1.530  0.3177  0.4884  0.3232
  458THF     C310044   1.007   4.030   1.445  0.2046  0.2340 -0.0577
  458THF     H410045   1.020   3.767   1.555 -0.3488  0.9325 -0.4790
  458THF     H510046   1.183   3.807   1.593 -0.1830 -1.5634  0.0644
  458THF     H610047   0.899   4.014   1.449 -0.0751  2.1351  0.9237
  458THF     H710048   1.013   4.138   1.438  1.1854  0.0715 -2.4298
  458THF     C810049   1.081   3.971   1.326  0.1207 -0.4130 -0.1708
  458THF     C910050   1.127   3.835   1.380 -0.5128 -0.1387 -0.3291
  458THF    H1010051   1.169   4.030   1.300  0.1223  0.5482  1.8102
  458THF    H1110052   1.015   3.965   1.239  0.8863  1.4640 -0.9316
  458THF    H1210053   1.084   3.752   1.324  0.1403 -1.0669  0.5101
  458THF    H1310054   1.230   3.826   1.345 -0.2062  0.4590  0.3819
  459THF     O110055   3.477   1.622   4.593 -0.1136  0.5047 -0.2349
  459THF     C210056   3.608   1.610   4.629  0.0934  0.3134 -0.1334
  459THF     C310057   3.449   1.762   4.573  0.8099  0.3937 -0.8380
  459THF     H410058   3.643   1.509   4.610 -2.2249 -0.6273  0.2388
  459THF     H510059   3.611   1.627   4.737  0.9510  0.7791 -0.2190
  459THF     H610060   3.382   1.784   4.490  1.5174 -0.2362 -1.5867
  459THF     H710061   3.404   1.794   4.667  1.0710  0.7794 -0.8393
  459THF     C810062   3.584   1.835   4.561 -0.8065 -0.0491 -0.0149
  459THF     C910063   3.683   1.718   4.541  0.0674  0.9681 -0.4020
  459THF    H1010064   3.606   1.889   4.653 -1.3116 -1.3807  0.9301
  459THF    H1110065   3.580   1.896   4.470 -0.3335  3.4322  2.1130
  459THF    H1210066   3.685   1.683   4.438  4.6617 -0.2828 -0.1129
  459THF    H1310067   3.787   1.734   4.570  0.4605 -0.8955 -0.6506
  460THF     O110068   1.796   4.225   5.115  0.0438  0.6277 -0.1873
  460THF     C210069   1.713   4.118   5.091 -0.3447  0.1603 -0.9845
  460THF     C310070   1.721   4.336   5.162 -0.6312 -0.3698  0.5548
  460THF     H410071   1.754   4.017   5.080 -1.1523 -0.5396  1.6000
  460THF     H510072   1.664   4.147   4.998 -3.7709  1.7061  1.0662
  460THF     H610073   1.785   4.404   5.218  0.3253  0.3289 -1.2817
  460THF     H710074   1.672   4.399   5.088  0.6014  1.7115  1.4267
  460THF     C810075   1.614   4.263   5.249 -0.2981 -0.4848  0.4808
  460THF     C910076   1.605   4.121   5.197 -0.0925  0.5632  0.5308
  460THF    H1010077   1.524   4.320   5.226 -1.7216 -2.6484  0.4593
  460THF    H1110078   1.634   4.259   5.356  1.3565 -0.9135  0.1791
  460THF    H1210079   1.638   4.051   5.273  0.5283 -0.8162 -0.9416
  460THF    H1310080   1.509   4.097   5.152  1.4269  2.8112 -4.6266
  461THF     O110081   3.190   4.663   2.102 -0.0164 -0.1204 -0.4714
  461THF     C210082   3.102   4.774   2.110  0.2129  0.1294 -0.7353
  461THF     C310083   3.318   4.716   2.101 -0.4985 -0.4741  0.0821
  461THF     H410084   2.996   4.753   2.125 -0.3030  2.8858  0.1223
  461THF     H510085   3.116   4.819   2.012 -1.5209  1.2198 -0.5268
  461THF     H610086   3.391   4.637   2.118 -0.6065 -0.8281 -1.0116
  461THF     H710087   3.338   4.750   2.000  1.6051 -2.8384 -0.3967
  461THF     C810088   3.312   4.835   2.197 -0.2523  0.4304  0.2810
  461THF     C910089   3.165   4.854   2.225 -0.3641  0.1996 -0.0849
  461THF    H1010090   3.366   4.922   2.159  1.9116 -0.3520  1.3734
  461THF    H1110091   3.353   4.801   2.292  1.1300  0.3144 -0.3316
  461THF    H1210092   3.131   4.812   2.319 -1.1173 -0.1048 -0.4812
  461THF    H1310093   3.124   4.955   2.222 -1.6994 -0.2664  1.2826
  462THF     O110094   1.844   2.518   3.188  0.2114 -0.2109  0.0885
  462THF     C210095   1.930   2.443   3.266 -0.0788 -0.4860 -0.7030
  462THF     C310096   1.735   2.445   3.131 -0.9320  0.2694 -0.7221
  462THF     H410097   1.945   2.489   3.364 -0.0103 -0.7197 -0.6009
  462THF     H510098   2.029   2.425   3.224  1.8876 -1.2718  3.6139
  462THF     H610099   1.644   2.504   3.120  0.2491  2.6430  1.1752
  462THF     H710100   1.770   2.405   3.036 -1.0486 -0.3247 -0.5213
  462THF     C810101   1.712   2.350   3.247 -1.2984 -0.3588  0.3712
  462THF     C910102   1.857   2.306   3.282  0.1846 -0.5076  0.2661
  462THF    H1010103   1.638   2.275   3.217 -2.6447  0.9326  0.3630
  462THF    H1110104   1.666   2.406   3.327  2.0668  1.1245  1.4593
  462THF    H1210105   1.865   2.256   3.378 -0.3800  0.5917  0.9093
  462THF    H1310106   1.883   2.232   3.207  0.4177 -0.9128  0.7462
  463THF     O110107   2.290   4.871   3.880  0.0924  0.0286 -0.0787
  463THF     C210108   2.236   4.740   3.857 -0.5573  0.2873 -0.5862
  463THF     C310109   2.320   4.868   4.021 -0.4429 -0.3589  0.6411
  463THF     H410110   2.317   4.666   3.853 -2.1868 -1.5659 -0.7080
  463THF     H510111   2.194   4.736   3.757 -0.7538  0.8851 -0.5306
  463THF     H610112   2.420   4.829   4.038 -0.3887  0.2694  1.8657
  463THF     H710113   2.320   4.972   4.052  2.9075 -0.1800  0.3687
  463THF     C810114   2.219   4.776   4.087  0.2573 -0.0276  0.0933
  463THF     C910115   2.143   4.717   3.967  0.1558 -0.4822  0.3806
  463THF    H1010116   2.144   4.829   4.145  0.6941  1.1272 -0.3674
  463THF    H1110117   2.254   4.706   4.163  0.3416 -0.7226 -0.5674
  463THF    H1210118   2.112   4.613   3.963 -1.8876  0.1094  0.0441
  463THF    H1310119   2.050   4.770   3.946  0.7292  0.8039  0.9730
  464THF     O110120   2.894   3.343   4.143  0.1611 -0.0382 -0.0088
  464THF     C210121   2.925   3.212   4.184 -0.3587 -0.0291 -0.1250
  464THF     C310122   3.002   3.431   4.181  0.1795 -0.8765 -0.1676
  464THF     H410123   2.903   3.128   4.118 -2.0115 -0.0209  0.3606
  464THF     H510124   2.864   3.194   4.273 -0.7273 -0.0278 -0.3773
  464THF     H610125   3.010   3.513   4.110 -0.5450 -1.0275 -0.4311
  464THF     H710126   2.965   3.472   4.275 -1.5335 -1.0159 -0.7405
  464THF     C810127   3.122   3.345   4.172  0.7103 -0.3277  0.4419
  464THF     C910128   3.069   3.216   4.233 -0.9549 -0.4744  0.4831
  464THF    H1010129   3.206   3.376   4.234 -0.9772  0.3394  2.5140
  464THF    H1110130   3.158   3.329   4.070  1.7797 -2.5315  1.1045
  464THF    H1210131   3.123   3.125   4.206  0.3186  0.2329  0.5668
  464THF    H1310132   3.066   3.229   4.341 -2.1897 -0.7389  0.4967
  465THF     O110133   5.154   0.062   2.650  0.7254 -0.2747  0.4875
  465THF     C210134   5.278   0.131   2.642  0.6373  0.6853  0.4732
  465THF     C310135   5.172  -0.042   2.748  0.7612  0.3572 -0.2035
  465THF     H410136   5.283   0.213   2.714 -2.3035  2.6576 -1.3509
  465THF     H510137   5.278   0.177   2.543 -0.5237 -3.1303 -1.4840
  465THF     H610138   5.186  -0.006   2.850  2.8573 -2.5662  0.6760
  465THF     H710139   5.106  -0.127   2.736  2.7388 -1.3803  0.5835
  465THF     C810140   5.302  -0.100   2.713  0.0823 -0.4118 -0.0605
  465THF     C910141   5.377   0.015   2.656 -0.0377 -0.5836 -0.1701
  465THF    H1010142   5.299  -0.173   2.632  0.2743 -0.2624 -0.2051
  465THF    H1110143   5.347  -0.146   2.801  1.1179 -0.9647 -0.8529
  465THF    H1210144   5.458   0.044   2.723 -1.2615  0.4277  0.9205
  465THF    H1310145   5.412  -0.002   2.554  0.0033 -0.2985 -0.2044
  466THF     O110146   0.092   5.261   0.383  0.3191 -0.6112 -0.1266
  466THF     C210147   0.167   5.248   0.263 -0.0049  0.7816  0.0876
  466THF     C310148   0.168   5.217   0.487  0.1823  0.2605  0.0964
  466THF     H410149   0.175   5.344   0.211  1.4767 -1.3808 -4.2266
  466THF     H510150   0.104   5.180   0.206 -0.5580 -0.1843  1.7941
  466THF     H610151   0.223   5.303   0.525 -0.1291  0.3636  0.3184
  466THF     H710152   0.120   5.183   0.579  1.9447  1.1748  1.4259
  466THF     C810153   0.274   5.120   0.438  0.4563  0.7554 -0.6408
  466THF     C910154   0.304   5.173   0.296  0.1181 -0.2896 -0.5461
  466THF    H1010155   0.232   5.019   0.439  2.1037  0.0254  0.9877
  466THF    H1110156   0.362   5.117   0.503  1.2418  0.5050 -1.6982
  466THF    H1210157   0.384   5.246   0.285  0.2373 -0.5495 -1.5235
  466THF    H1310158   0.329   5.097   0.222  0.0942 -0.5230 -0.3118
  467THF     O110159   1.560   4.102   1.175  0.0366 -0.4725 -0.6704
  467THF     C210160   1.442   4.050   1.236  0.5081  0.1379  0.3818
  467THF     C310161   1.613   4.004   1.088  0.2215 -0.3144 -0.3395
  467THF     H410162   1.395   4.140   1.276 -1.2307  0.1420 -1.5326
  467THF     H510163   1.470   3.984   1.319  0.6955  0.6590  0.7384
  467THF     H610164   1.687   4.039   1.017 -0.7159  1.7609 -0.3821
  467THF     H710165   1.644   3.916   1.144 -1.1522  0.0287  1.0483
  467THF     C810166   1.495   3.958   1.016 -0.1161  0.1344 -0.4846
  467THF     C910167   1.377   3.974   1.120  0.6262 -0.3405  0.3500
  467THF    H1010168   1.511   3.851   0.998  2.2730 -0.1420  2.5621
  467THF    H1110169   1.475   4.009   0.922 -1.5131 -0.8221 -0.7460
  467THF    H1210170   1.282   4.015   1.085 -0.1178 -1.9811  0.3823
  467THF    H1310171   1.354   3.875   1.159 -2.0173 -1.0080 -2.5338
  468THF     O110172   1.347   3.463   1.376  0.5495 -0.0771  0.0187
  468THF     C210173   1.283   3.494   1.249 -0.8351 -0.4008  0.2931
  468THF     C310174   1.424   3.579   1.401 -0.0390 -0.0682  0.3208
  468THF     H410175   1.196   3.559   1.265 -0.8973 -0.2935 -0.4525
  468THF     H510176   1.247   3.400   1.208  0.0763 -0.9467  0.7170
  468THF     H610177   1.353   3.646   1.450 -1.4731  0.6412 -2.5236
  468THF     H710178   1.499   3.560   1.478  0.8875 -0.9947 -0.7702
  468THF     C810179   1.477   3.630   1.263  0.6222 -0.2337 -0.7899
  468THF     C910180   1.386   3.568   1.159 -0.0373  0.2967  0.1860
  468THF    H1010181   1.580   3.597   1.255  0.4680 -0.6697 -1.0171
  468THF    H1110182   1.474   3.739   1.269 -2.9111 -0.2608  0.0191
  468THF    H1210183   1.331   3.642   1.101 -0.6810 -1.1598 -1.1444
  468THF    H1310184   1.442   3.493   1.102  0.7777 -0.5617  2.0177
  469THF     O110185   1.980   3.301   4.931  0.0912 -0.2003  0.0280
  469THF     C210186   1.911   3.239   4.829 -0.4478 -0.0129 -0.1411
  469THF     C310187   2.100   3.235   4.939 -0.6116 -0.2653 -0.5266
  469THF     H410188   1.831   3.301   4.787  1.7243  3.1412  0.0098
  469THF     H510189   1.874   3.153   4.885  2.1208  0.3230  2.3212
  469THF     H610190   2.172   3.273   5.012 -1.4081  1.9500 -0.8414
  469THF     H710191   2.092   3.139   4.991  2.3391 -1.6850 -2.4306
  469THF     C810192   2.145   3.225   4.799 -0.7492 -0.4671 -0.1320
  469THF     C910193   2.016   3.188   4.732 -0.2186  0.0162  0.2295
  469THF    H1010194   2.218   3.145   4.792 -0.5659 -0.1853 -1.7468
  469THF    H1110195   2.180   3.319   4.757  0.3351  0.0257  1.7597
  469THF    H1210196   2.009   3.231   4.632  2.2233  0.3527  0.1406
  469THF    H1310197   2.005   3.080   4.727 -2.0665  0.2070 -0.6149
  470THF     O110198   1.234   2.252   3.878 -0.1194  0.0849  0.5582
  470THF     C210199   1.123   2.190   3.814 -1.0101  0.5099 -0.9746
  470THF     C310200   1.180   2.360   3.955  0.1168 -0.0400  1.1245
  470THF     H410201   1.085   2.104   3.868 -0.5750 -0.4023 -2.0801
  470THF     H510202   1.157   2.148   3.719  2.7357 -1.2187  0.8858
  470THF     H610203   1.140   2.328   4.051  0.3214  0.7438  1.4818
  470THF     H710204   1.249   2.444   3.967 -0.4427  0.6426 -0.2436
  470THF     C810205   1.081   2.418   3.852  0.3129 -0.0520 -0.2508
  470THF     C910206   1.027   2.298   3.776  0.2081  0.1041 -0.4686
  470THF    H1010207   1.123   2.485   3.777 -0.3734  0.9065  0.2080
  470THF    H1110208   1.002   2.478   3.897  1.2855  1.4823 -0.5212
  470THF    H1210209   0.931   2.266   3.816 -1.1643  2.1923 -1.9056
  470THF    H1310210   1.023   2.310   3.668  1.8901  0.4179 -0.5321
  471THF     O110211   0.031   3.573   2.895  0.0521  0.2278  0.0834
  471THF     C210212   0.111   3.482   2.971  0.1343 -0.4096  0.1077
  471THF     C310213  -0.102   3.528   2.915  0.7365  0.6936 -0.4588
  471THF     H410214   0.206   3.530   2.996 -0.4164  0.1188  1.2928
  471THF     H510215   0.136   3.395   2.910 -1.0623 -0.1219 -0.8323
  471THF     H610216  -0.183   3.593   2.881 -1.1892 -0.2591  1.9281
  471THF     H710217  -0.096   3.444   2.846  1.2263  1.3700 -1.2612
  471THF     C810218  -0.106   3.490   3.063 -0.2671  0.0277  0.5199
  471THF     C910219   0.037   3.439   3.087  0.2576 -0.3942 -0.5748
  471THF    H1010220  -0.169   3.404   3.086 -0.3665  0.4225  1.7959
  471THF    H1110221  -0.133   3.572   3.130 -0.3143  0.0164  0.5143
  471THF    H1210222   0.073   3.473   3.184 -1.2473  0.3563 -0.2365
  471THF    H1310223   0.039   3.330   3.094  0.2530 -0.3063  1.3103
  472THF     O110224   3.398   2.291   0.410 -0.1827  0.2666  0.5545
  472THF     C210225   3.373   2.209   0.527 -0.9587  0.2366  0.8098
  472THF     C310226   3.529   2.261   0.353 -0.7797  0.0466  0.2141
  472THF     H410227   3.309   2.126   0.498 -1.8159  0.3859  2.2202
  472THF     H510228   3.325   2.261   0.609 -0.4555  0.2496  1.1025
  472THF     H610229   3.525   2.256   0.245 -3.3748 -1.0854  0.2841
  472THF     H710230   3.604   2.332   0.386 -0.3666 -0.4958  0.4738
  472THF     C810231   3.574   2.129   0.426 -0.4815 -0.2857  0.4198
  472THF     C910232   3.510   2.146   0.563  1.3044  0.6922  0.4124
  472THF    H1010233   3.682   2.116   0.414 -0.5929  0.4553 -2.0361
  472THF    H1110234   3.526   2.047   0.372 -0.8810 -0.0021  0.3391
  472THF    H1210235   3.492   2.050   0.611 -0.5811  1.0162  0.4352
  472THF    H1310236   3.555   2.220   0.630  0.3211  0.7544  1.0293
  473THF     O110237   0.256   0.351   0.701  0.1033 -0.0720  0.6385
  473THF     C210238   0.323   0.224   0.711 -0.0773  1.0173  0.1781
  473THF     C310239   0.117   0.312   0.701  0.0239  0.1192 -0.7966
  473THF     H410240   0.310   0.188   0.813 -0.1701  0.0838 -0.1535
  473THF     H510241   0.429   0.232   0.686 -0.0495  0.5973  0.1640
  473THF     H610242   0.093   0.268   0.797  0.2744 -0.5749 -1.0467
  473THF     H710243   0.040   0.388   0.686 -2.8027 -2.4268 -0.1730
  473THF     C810244   0.119   0.206   0.590 -0.3572  0.3726 -0.5290
  473THF     C910245   0.250   0.134   0.612 -0.1097  0.2810  0.1080
  473THF    H1010246   0.140   0.249   0.492  1.9002 -0.0529 -0.2890
  473THF    H1110247   0.035   0.137   0.590  0.3949 -0.5855  0.5282
  473THF    H1210248   0.239   0.037   0.659 -0.1439  1.3620  2.4503
  473THF    H1310249   0.304   0.131   0.517  0.2996 -0.7937  0.3643
  474THF     O110250   5.271   2.901   0.999 -0.3200  0.2894  0.3970
  474THF     C210251   5.323   2.852   1.125  0.0374 -0.5485  0.4048
  474THF     C310252   5.199   2.794   0.940 -0.6386 -1.0358 -0.9312
  474THF     H410253   5.322   2.939   1.191 -1.7955  1.5954 -2.2153
  474THF     H510254   5.424   2.815   1.114  0.4152  0.0362  1.7352
  474THF     H610255   5.113   2.827   0.881  0.0702  0.9401 -0.9339
  474THF     H710256   5.269   2.729   0.887 -1.9459 -3.3969  0.0943
  474THF     C810257   5.149   2.711   1.055  0.4824  0.4274  0.9261
  474THF     C910258   5.236   2.742   1.171  0.4977 -0.9981 -0.1387
  474THF    H1010259   5.150   2.604   1.033 -1.0273  0.7851 -1.2064
  474THF    H1110260   5.050   2.749   1.081  0.1581  0.2649 -0.0412
  474THF    H1210261   5.185   2.765   1.265 -1.0965  0.9553 -1.3988
  474THF    H1310262   5.302   2.655   1.175  0.7774 -0.8479 -1.2434
  475THF     O110263   3.465   0.703   3.918 -0.1803  0.1734 -0.1823
  475THF     C210264   3.371   0.807   3.928  0.7646 -0.1810 -0.3897
  475THF     C310265   3.390   0.588   3.954  0.1489 -0.0073 -0.0015
  475THF     H410266   3.376   0.890   3.857  1.8834 -0.9122 -1.2153
  475THF     H510267   3.372   0.839   4.032 -1.1042  2.3487 -1.0303
  475THF     H610268   3.391   0.522   3.867  1.6521  1.4443 -1.1530
  475THF     H710269   3.435   0.544   4.044  1.9487  2.7115  0.5718
  475THF     C810270   3.250   0.627   3.981  0.5207 -0.7982  0.0644
  475THF     C910271   3.234   0.751   3.893 -0.2890  0.0785  0.6038
  475THF    H1010272   3.243   0.659   4.085 -0.1371 -1.9772  0.3965
  475THF    H1110273   3.176   0.548   3.967 -2.7192  2.4853 -4.8670
  475THF    H1210274   3.229   0.738   3.785  0.5739  2.7375  0.1779
  475THF    H1310275   3.149   0.816   3.913 -2.3857 -2.0913 -0.6733
  476THF     O110276   3.811   2.360   3.791  0.3180  0.4572 -0.3349
  476THF     C210277   3.830   2.472   3.872  0.1822 -0.2214 -0.4441
  476THF     C310278   3.669   2.336   3.779 -0.2927  0.8169 -0.0669
  476THF     H410279   3.808   2.567   3.823 -0.0569 -1.6440 -3.3207
  476THF     H510280   3.928   2.467   3.920  0.1560  0.7149 -0.2693
  476THF     H610281   3.621   2.383   3.693 -0.7696  0.1321 -0.1880
  476THF     H710282   3.650   2.229   3.764  1.8787 -0.0532  2.5099
  476THF     C810283   3.610   2.386   3.905 -0.6515  0.0593  0.1948
  476THF     C910284   3.724   2.444   3.984 -0.5983  0.5117 -0.8353
  476THF    H1010285   3.541   2.327   3.966 -0.4459 -0.0021  0.3692
  476THF    H1110286   3.540   2.462   3.871 -1.0496  0.5797  2.0682
  476THF    H1210287   3.711   2.534   4.045  2.1251  0.4504 -0.0005
  476THF    H1310288   3.764   2.363   4.045 -1.9103 -0.3349 -1.0800
  477THF     O110289   2.805   2.158   0.261  0.3284 -0.6290  0.3697
  477THF     C210290   2.870   2.248   0.171 -0.0919 -0.1960  0.1459
  477THF     C310291   2.910   2.091   0.336  0.2515 -0.8045  0.1331
  477THF     H410292   2.911   2.330   0.229 -1.4157  1.5255 -1.2538
  477THF     H510293   2.806   2.286   0.091 -1.2747  0.0363  1.1894
  477THF     H610294   2.954   2.161   0.407  0.3160 -0.1179 -0.5719
  477THF     H710295   2.861   2.006   0.385  1.9843 -1.3503  0.9908
  477THF     C810296   3.012   2.054   0.234  0.2871  0.0034 -0.0056
  477THF     C910297   2.995   2.161   0.127 -0.0197 -0.1352  0.3521
  477THF    H1010298   3.005   1.949   0.207 -4.4618 -0.2954  1.4778
  477THF    H1110299   3.109   2.063   0.283  1.7085  0.5383 -2.7398
  477THF    H1210300   3.082   2.227   0.118  1.5483 -2.2635 -1.0224
  477THF    H1310301   2.969   2.133   0.025 -0.5354  2.8415 -0.4550
  478THF     O110302   2.693   5.488   2.116 -0.7981  0.0417 -0.1361
  478THF     C210303   2.650   5.521   2.240 -0.7047 -0.0657 -0.5849
  478THF     C310304   2.668   5.599   2.029 -0.1875 -0.4868  0.0795
  478THF     H410305   2.725   5.569   2.302 -0.6947 -0.6340 -0.1526
  478THF     H510306   2.634   5.430   2.298  0.0328  0.0393 -0.2098
  478THF     H610307   2.753   5.667   2.037 -1.0277  0.4965  0.8609
  478THF     H710308   2.662   5.578   1.922  0.0713  1.2216 -0.3046
  478THF     C810309   2.539   5.657   2.079  0.2220 -0.2104  0.4124
  478THF     C910310   2.528   5.609   2.221  0.2528  0.2628  0.2192
  478THF    H1010311   2.455   5.625   2.018 -0.8597 -2.2727  2.7966
  478THF    H1110312   2.526   5.764   2.061 -1.7588 -0.6827 -1.2191
  478THF    H1210313   2.522   5.689   2.295 -1.9422  0.1665  0.1920
  478THF    H1310314   2.441   5.546   2.237  0.7807 -1.2618 -2.3591
  479THF     O110315   4.041   4.721   3.281 -0.5524  0.0762  0.7146
  479THF     C210316   3.934   4.709   3.195  0.1885 -0.2669 -0.6427
  479THF     C310317   4.158   4.721   3.200 -0.3914 -1.2792  0.9630
  479THF     H410318   3.847   4.747   3.248  1.8874  0.5586  1.7465
  479THF     H510319   3.908   4.609   3.162 -2.4320  0.7256 -1.8533
  479THF     H610320   4.233   4.760   3.269  1.9480 -0.8306 -1.6459
  479THF     H710321   4.199   4.623   3.178 -0.5462 -1.1667  0.1258
  479THF     C810322   4.122   4.804   3.075  0.1882 -0.2011  0.3549
  479THF     C910323   3.970   4.809   3.085  0.2778 -0.1190  0.3974
  479THF    H1010324   4.151   4.765   2.978  0.7345  1.9007 -0.3752
  479THF    H1110325   4.151   4.909   3.088 -1.3396  0.2476  0.4117
  479THF    H1210326   3.935   4.908   3.114  0.6166 -0.2314  1.2029
  479THF    H1310327   3.928   4.779   2.989  1.1808  1.6250 -0.5920
  480THF     O110328   2.948   4.298   2.960  0.0773 -0.4973 -0.1187
  480THF     C210329   3.020   4.359   2.858 -0.2065 -0.3479  0.5109
  480THF     C310330   3.043   4.202   3.007  0.3299 -0.2919 -0.4530
  480THF     H410331   2.978   4.453   2.822 -0.6525 -1.1725 -1.2855
  480THF     H510332   3.027   4.285   2.778  0.5318 -2.6991  2.6354
  480THF     H610333   3.003   4.177   3.105 -1.2858 -0.0254 -1.0180
  480THF     H710334   3.047   4.106   2.954 -0.0280 -0.5245 -0.0560
  480THF     C810335   3.179   4.275   3.017 -0.4761 -0.1249 -0.7013
  480THF     C910336   3.161   4.384   2.909  0.3103  0.1664 -0.1672
  480THF    H1010337   3.267   4.211   3.004  0.1097  0.3808  0.6597
  480THF    H1110338   3.180   4.311   3.119 -0.9201 -0.4062 -0.5962
  480THF    H1210339   3.146   4.473   2.970 -1.0421 -0.7179  0.8663
  480THF    H1310340   3.235   4.393   2.830  0.2960 -0.1469 -0.2176
  481THF     O110341   0.649   0.376   1.094 -0.6293  0.3257 -0.1628
  481THF     C210342   0.518   0.341   1.061 -0.0526  0.1422 -0.4229
  481THF     C310343   0.717   0.257   1.123 -0.1833  0.1404  0.6206
  481THF     H410344   0.505   0.327   0.953  2.8827  1.9357 -1.1058
  481THF     H510345   0.450   0.422   1.088  0.2228  0.4515 -0.6530
  481THF     H610346   0.809   0.248   1.065 -0.3188 -0.1299  0.4479
  481THF     H710347   0.750   0.246   1.227  1.4666  4.4639  0.7986
  481THF     C810348   0.619   0.139   1.105 -0.4662 -0.2811 -0.5020
  481THF     C910349   0.483   0.206   1.123  0.1329  0.1476  0.2829
  481THF    H1010350   0.636   0.051   1.167 -1.5723 -0.4806 -0.4589
  481THF    H1110351   0.618   0.091   1.006 -0.4566 -1.9622  0.2768
  481THF    H1210352   0.402   0.151   1.076 -0.3178  0.4888  0.6582
  481THF    H1310353   0.457   0.213   1.229  0.1489 -0.5830  0.3421
  482THF     O110354   2.632   1.954   2.560  0.6534 -0.5904 -0.0123
  482THF     C210355   2.534   1.851   2.537 -0.2532  0.1311  0.7814
  482THF     C310356   2.666   2.009   2.432 -0.1909  0.3397 -0.1774
  482THF     H410357   2.442   1.905   2.562 -0.2893 -0.6506  2.4933
  482THF     H510358   2.556   1.772   2.609  1.4376 -1.9150 -1.8021
  482THF     H610359   2.589   2.075   2.391 -1.6609 -1.8140 -1.0608
  482THF     H710360   2.765   2.052   2.443  0.2384 -1.1335  2.6232
  482THF     C810361   2.665   1.888   2.336 -0.0641  0.4949 -0.5441
  482THF     C910362   2.541   1.823   2.390 -0.0421 -0.5072 -0.5933
  482THF    H1010363   2.753   1.823   2.344 -0.4249 -0.7894 -4.6484
  482THF    H1110364   2.659   1.913   2.230 -0.0287  0.8944 -0.4527
  482THF    H1210365   2.459   1.879   2.345 -0.7664  1.4402  2.7667
  482THF    H1310366   2.529   1.716   2.378  3.1580 -1.0085 -0.1903
  483THF     O110367   0.211   4.785   5.341  0.1270  0.3237 -0.0540
  483THF     C210368   0.298   4.882   5.283 -0.8013  0.1230  1.0978
  483THF     C310369   0.267   4.748   5.470  0.4925 -0.0919  0.2454
  483THF     H410370   0.270   4.983   5.315 -0.7879  0.5628 -0.2076
  483THF     H510371   0.284   4.891   5.175  0.2655  0.8220  1.0010
  483THF     H610372   0.204   4.806   5.539  0.0843  0.2386 -0.3909
  483THF     H710373   0.261   4.640   5.485  2.9873 -0.3586 -0.3158
  483THF     C810374   0.413   4.800   5.472  0.1874  0.7691 -1.1807
  483THF     C910375   0.439   4.831   5.326  0.3623  0.2969 -0.1122
  483THF    H1010376   0.474   4.723   5.519 -1.4945 -1.0645 -1.8894
  483THF    H1110377   0.427   4.895   5.525 -0.5987  0.3669 -0.2188
  483THF    H1210378   0.518   4.898   5.292  1.1135 -0.3863  0.2567
  483THF    H1310379   0.461   4.736   5.278  1.0327  0.0112  0.7443
  484THF     O110380   0.807   2.404   1.982 -0.0479 -0.6206 -0.6281
  484THF     C210381   0.818   2.264   2.018  0.2169 -0.1120 -0.6204
  484THF     C310382   0.706   2.420   1.876 -0.0891  0.5086 -1.6619
  484THF     H410383   0.816   2.255   2.126  1.6044  1.5374 -0.4108
  484THF     H510384   0.918   2.237   1.984  1.9747  2.4525  1.9808
  484THF     H610385   0.619   2.450   1.934  2.1860  1.5897  1.4820
  484THF     H710386   0.742   2.494   1.806 -1.2876  0.0179 -2.8345
  484THF     C810387   0.693   2.279   1.817  0.6529 -0.1994  0.0558
  484THF     C910388   0.703   2.196   1.942 -0.6801  0.2594  0.2239
  484THF    H1010389   0.771   2.257   1.745  1.1724 -0.3753  0.6676
  484THF    H1110390   0.600   2.259   1.764  0.7080  0.3342 -0.2552
  484THF    H1210391   0.622   2.203   2.015  0.6075 -1.4547  1.9105
  484THF    H1310392   0.720   2.090   1.924 -1.2196  0.5118 -2.2495
  485THF     O110393   4.146   3.661   3.905  0.2633  0.4239 -0.1946
  485THF     C210394   4.028   3.635   3.982 -0.3342 -0.0901 -0.2088
  485THF     C310395   4.106   3.751   3.804 -0.6537  0.6593 -0.4389
  485THF     H410396   4.047   3.603   4.085  0.8885  0.6725 -0.1746
  485THF     H510397   3.971   3.564   3.922  1.3942  0.2578 -2.3655
  485THF     H610398   4.195   3.802   3.766 -0.9893  0.8345 -0.9958
  485THF     H710399   4.061   3.685   3.730 -0.8664  0.2654  0.0373
  485THF     C810400   3.997   3.841   3.860 -0.3221 -0.2618  0.1619
  485THF     C910401   3.955   3.771   3.987  0.1047  0.0422 -0.1041
  485THF    H1010402   3.921   3.853   3.783  0.7446 -3.8957 -1.7188
  485THF    H1110403   4.056   3.930   3.880  1.3022 -1.7546  2.5615
  485THF    H1210404   3.990   3.813   4.080 -1.2808  1.3400 -0.1287
  485THF    H1310405   3.848   3.782   4.003  0.2047  0.6777  0.1515
  486THF     O110406   4.568   4.367   2.081  0.2499 -0.5526  0.9961
  486THF     C210407   4.613   4.233   2.080  0.2078 -0.2702  0.5667
  486THF     C310408   4.437   4.365   2.129  0.3154 -0.4448 -0.0708
  486THF     H410409   4.689   4.213   2.155 -0.4228 -1.1996  0.9631
  486THF     H510410   4.653   4.206   1.982  1.1356 -0.1478  0.8989
  486THF     H610411   4.431   4.356   2.238  2.5076  0.4764  0.1762
  486THF     H710412   4.393   4.461   2.103  0.6559 -0.2233  0.1623
  486THF     C810413   4.387   4.239   2.063  0.3969  0.0130  0.1382
  486THF     C910414   4.493   4.140   2.104  0.9675 -0.2913  0.3980
  486THF    H1010415   4.380   4.251   1.955 -0.6718  1.3160  0.3187
  486THF    H1110416   4.288   4.216   2.103  0.6972  1.2224  1.6976
  486THF    H1210417   4.487   4.111   2.209  1.7087 -2.2843 -0.0641
  486THF    H1310418   4.496   4.059   2.031 -0.6700  0.6315 -0.7522
  487THF     O110419   0.327   1.706   5.308  0.1337  0.0116  0.5444
  487THF     C210420   0.452   1.653   5.354 -0.7052 -0.1287  0.3899
  487THF     C310421   0.237   1.665   5.410 -0.0346 -0.0635  0.0872
  487THF     H410422   0.531   1.701   5.296 -1.5634  0.9798  0.0906
  487THF     H510423   0.453   1.544   5.348  2.9190 -0.1299 -3.5461
  487THF     H610424   0.140   1.715   5.405  0.2865  0.4941 -1.0566
  487THF     H710425   0.220   1.558   5.405 -0.5994  0.0883 -2.5810
  487THF     C810426   0.317   1.711   5.537 -0.5207 -0.3732  0.8473
  487THF     C910427   0.467   1.699   5.491  0.2561 -0.0306  0.3314
  487THF    H1010428   0.286   1.666   5.631 -0.2329  4.4412  3.6111
  487THF    H1110429   0.282   1.814   5.550 -1.8476 -0.7420  0.3542
  487THF    H1210430   0.511   1.799   5.498 -0.2925  0.3273 -1.0628
  487THF    H1310431   0.533   1.636   5.552  2.5679 -0.5195 -2.4662
  488THF     O110432   4.698   4.278   1.568 -0.1630 -0.3314  0.6946
  488THF     C210433   4.628   4.306   1.694  0.1896 -0.6722  1.0001
  488THF     C310434   4.716   4.395   1.498  0.3943  0.1870 -0.1668
  488THF     H410435   4.699   4.300   1.776  0.9486 -2.2056  0.2796
  488THF     H510436   4.548   4.239   1.725 -1.8614  2.3748  2.7813
  488THF     H610437   4.799   4.458   1.531 -1.1053  0.7222  2.9241
  488THF     H710438   4.721   4.388   1.390  0.2614  1.5047 -0.2721
  488THF     C810439   4.587   4.474   1.528  0.0270  0.3766  0.3259
  488THF     C910440   4.558   4.441   1.675  0.5087 -0.0836  0.6824
  488THF    H1010441   4.508   4.427   1.471 -0.1001  0.0550  0.7641
  488THF    H1110442   4.602   4.578   1.499  1.4481  0.0094 -0.3566
  488THF    H1210443   4.600   4.526   1.728 -2.1942  2.6638 -1.2104
  488THF    H1310444   4.455   4.433   1.710  0.7836  1.3433  1.8716
  489THF     O110445   1.491   2.215   1.240  0.0274  0.1823  0.2250
  489THF     C210446   1.392   2.318   1.211 -1.1871 -0.4032 -0.2252
  489THF     C310447   1.601   2.271   1.301 -0.5373  0.1008  0.8694
  489THF     H410448   1.331   2.345   1.297 -3.0582 -1.3255 -1.1997
  489THF     H510449   1.333   2.293   1.123 -0.5520 -1.6650 -0.3179
  489THF     H610450   1.580   2.313   1.400  0.6760  2.3316  0.2669
  489THF     H710451   1.687   2.205   1.295  0.3222  1.3054 -1.2221
  489THF     C810452   1.621   2.399   1.210  0.2393  0.6072  0.8766
  489THF     C910453   1.478   2.441   1.187 -0.1680 -0.5906  0.1782
  489THF    H1010454   1.670   2.364   1.119  1.4995 -3.0013  2.7184
  489THF    H1110455   1.690   2.469   1.256  3.1176 -1.0936 -0.5238
  489THF    H1210456   1.453   2.528   1.248  1.5115 -0.3255  0.5555
  489THF    H1310457   1.464   2.483   1.088  0.7051  1.0154  0.6958
  490THF     O110458   4.681   1.435   0.254  0.1460  0.3160 -0.0931
  490THF     C210459   4.626   1.316   0.210 -0.1222  0.1530 -0.1355
  490THF     C310460   4.776   1.411   0.357  0.5082  0.4000 -0.2520
  490THF     H410461   4.641   1.305   0.103  0.8171  0.6255 -0.0647
  490THF     H510462   4.518   1.311   0.223 -0.0232 -1.1593  0.3199
  490THF     H610463   4.857   1.483   0.339 -0.6221  1.4991 -1.1096
  490THF     H710464   4.723   1.432   0.450  1.4248  2.6465 -0.1685
  490THF     C810465   4.819   1.267   0.347 -0.2275 -0.0120  0.0536
  490THF     C910466   4.700   1.202   0.282  0.7815  0.0261  0.2723
  490THF    H1010467   4.857   1.213   0.434 -2.6083 -0.7373  0.7041
  490THF    H1110468   4.896   1.269   0.269 -3.3195 -0.9957 -3.2839
  490THF    H1210469   4.726   1.122   0.213  0.7068  2.1562 -2.4118
  490THF    H1310470   4.637   1.162   0.361  2.3784 -0.8375  1.1528
  491THF     O110471   4.066   4.467   1.363  0.2190  0.5136 -0.1893
  491THF     C210472   4.204   4.470   1.363  0.5945  0.3926  0.3479
  491THF     C310473   4.023   4.594   1.412  0.5028  0.6277 -0.2160
  491THF     H410474   4.242   4.535   1.284 -1.9852 -0.0389 -1.3648
  491THF     H510475   4.250   4.374   1.340 -0.5667  0.2908 -1.8096
  491THF     H610476   4.007   4.667   1.332  0.1040  0.5960 -0.1679
  491THF     H710477   3.926   4.574   1.457  0.7557 -1.4764 -0.5143
  491THF     C810478   4.118   4.634   1.520  0.7627 -0.0591  0.4633
  491THF     C910479   4.233   4.535   1.500 -0.1585  0.9033  0.4250
  491THF    H1010480   4.067   4.630   1.616  1.7247 -1.2235  0.9531
  491THF    H1110481   4.146   4.733   1.486  2.2420 -1.1946 -1.8623
  491THF    H1210482   4.326   4.591   1.497  1.4489 -1.6298 -2.4052
  491THF    H1310483   4.229   4.460   1.579  1.5844  0.4885  0.1636
  492THF     O110484   3.837   3.658   2.825  0.2901  0.3163  0.2079
  492THF     C210485   3.734   3.746   2.779  1.2104  0.2731 -0.5471
  492THF     C310486   3.950   3.741   2.843  0.0519 -0.6127  0.0731
  492THF     H410487   3.640   3.697   2.807  2.3416 -0.7999  1.6500
  492THF     H510488   3.744   3.749   2.671  0.4368 -0.3280 -0.6438
  492THF     H610489   4.011   3.684   2.912  0.9923  0.3897  0.0980
  492THF     H710490   4.003   3.772   2.753 -0.8990  0.9227  0.0028
  492THF     C810491   3.894   3.859   2.911  0.8383 -0.4044 -0.0589
  492THF     C910492   3.763   3.881   2.839 -0.3287  0.2470  0.7270
  492THF    H1010493   3.958   3.946   2.897  0.5795  0.1816  2.1019
  492THF    H1110494   3.888   3.844   3.019  1.1146  0.8537  0.1486
  492THF    H1210495   3.679   3.918   2.898 -0.5206 -0.5983  0.9906
  492THF    H1310496   3.761   3.956   2.760 -0.1224 -0.7817 -0.2794
  493THF     O110497   3.948   2.427   2.164 -0.3301  0.0757  0.3982
  493THF     C210498   3.976   2.361   2.034  0.0204  0.1098  0.6283
  493THF     C310499   3.981   2.339   2.269  0.1087  0.5903 -0.8226
  493THF     H410500   4.082   2.354   2.011  0.1012  2.7781 -0.1727
  493THF     H510501   3.919   2.397   1.948  1.4015 -1.6369 -1.1025
  493THF     H610502   4.090   2.338   2.274  0.1184 -0.6399 -0.9052
  493THF     H710503   3.934   2.375   2.361  0.0811 -2.6284  0.5642
  493THF     C810504   3.937   2.198   2.228  0.2314 -0.2592  0.5942
  493THF     C910505   3.926   2.218   2.071  0.2708 -0.0654 -0.3466
  493THF    H1010506   3.840   2.178   2.273 -0.2241  2.9477  1.2156
  493THF    H1110507   3.995   2.114   2.267 -0.2916 -0.6639  0.5153
  493THF    H1210508   3.980   2.142   2.015 -1.2028 -0.7508 -0.9061
  493THF    H1310509   3.822   2.202   2.042  0.1237  0.1214  0.0665
  494THF     O110510   1.347   3.049   2.439  0.2034 -0.3436 -0.4005
  494THF     C210511   1.459   2.965   2.425  0.1397 -0.4542 -0.3599
  494THF     C310512   1.380   3.182   2.408 -0.3181  0.5160  0.1994
  494THF     H410513   1.448   2.913   2.330 -0.6377  0.8915 -1.0162
  494THF     H510514   1.456   2.906   2.517  1.0654  0.6757  0.4257
  494THF     H610515   1.317   3.208   2.323 -0.7882 -2.5951 -0.5419
  494THF     H710516   1.350   3.250   2.487 -1.6602 -1.0801  1.1278
  494THF     C810517   1.527   3.191   2.370  0.1943  0.4637 -1.0341
  494THF     C910518   1.573   3.059   2.429  0.1256 -0.3470  0.2257
  494THF    H1010519   1.588   3.266   2.420 -1.0122  0.5594  0.3719
  494THF    H1110520   1.545   3.174   2.264 -1.3837 -2.3726 -0.9525
  494THF    H1210521   1.666   3.015   2.393 -0.0452  1.6431 -3.0918
  494THF    H1310522   1.577   3.072   2.537  2.5122 -3.4792  0.6489
  495THF     O110523   4.678   1.374   0.953  0.6184  0.2658  0.2259
  495THF     C210524   4.820   1.399   0.978  0.6110  0.3456  0.0653
  495THF     C310525   4.633   1.438   0.830 -0.5573  0.2037  0.3403
  495THF     H410526   4.875   1.307   0.999 -1.8741 -1.3550 -0.5725
  495THF     H510527   4.821   1.471   1.060 -0.7683  0.1599  0.2708
  495THF     H610528   4.554   1.373   0.793 -0.9211  0.3154  0.9092
  495THF     H710529   4.596   1.539   0.840 -0.9088  0.0660  0.4297
  495THF     C810530   4.751   1.425   0.738  0.2131  0.8759 -0.2936
  495THF     C910531   4.862   1.457   0.842  0.0080  0.3933 -0.0530
  495THF    H1010532   4.751   1.491   0.651 -3.3223  0.8415 -0.4779
  495THF    H1110533   4.763   1.324   0.701  2.8387  1.4013 -1.1256
  495THF    H1210534   4.962   1.422   0.815  0.3170  2.1775 -1.3582
  495THF    H1310535   4.869   1.566   0.843  0.0460  0.4976  3.4253
  496THF     O110536   3.320   3.972   2.029 -0.0943  0.0193 -0.6494
  496THF     C210537   3.199   3.895   2.044  0.1446 -0.1288 -0.3266
  496THF     C310538   3.408   3.932   2.126  0.8049  0.2722 -0.2508
  496THF     H410539   3.158   3.874   1.946  1.4104  0.9587 -1.1205
  496THF     H510540   3.133   3.967   2.094  1.2760  0.2533  0.6868
  496THF     H610541   3.512   3.963   2.118  0.1616  2.6487 -0.0860
  496THF     H710542   3.369   3.983   2.214 -0.7045 -0.5209 -0.4359
  496THF     C810543   3.388   3.778   2.141  0.6922 -0.5629 -0.7041
  496THF     C910544   3.238   3.765   2.111 -0.2223 -0.1712 -0.0881
  496THF    H1010545   3.423   3.728   2.231 -1.1394  1.0236  0.9903
  496THF    H1110546   3.443   3.735   2.057  0.5060 -1.3054 -0.4585
  496THF    H1210547   3.212   3.683   2.044  1.3476  1.4441 -2.8328
  496THF    H1310548   3.185   3.747   2.205 -0.7618 -0.5719 -0.4652
  497THF     O110549   1.563   1.411   0.913 -0.4858 -0.2105  0.1560
  497THF     C210550   1.535   1.268   0.916  0.4712  0.5230 -0.1266
  497THF     C310551   1.543   1.454   1.044 -0.2184  0.4031  0.1044
  497THF     H410552   1.616   1.217   0.968  0.5030  0.7543  0.0541
  497THF     H510553   1.517   1.225   0.817 -0.1614 -0.4569  0.3929
  497THF     H610554   1.629   1.419   1.101 -0.2545 -3.0358 -1.7030
  497THF     H710555   1.545   1.562   1.036 -0.9742  0.3133 -1.6072
  497THF     C810556   1.421   1.379   1.095  0.9836  0.0162 -0.5835
  497THF     C910557   1.407   1.259   1.001  0.6246  0.3514  0.1991
  497THF    H1010558   1.332   1.441   1.089  0.5920 -0.5320 -0.5114
  497THF    H1110559   1.430   1.344   1.198 -2.9261 -3.3171 -1.1126
  497THF    H1210560   1.391   1.164   1.051 -3.3484 -1.1908 -3.4846
  497THF    H1310561   1.331   1.273   0.925  0.3375  2.5997  0.8077
  498THF     O110562   4.978   0.692   1.150 -0.0716 -0.0818 -0.6228
  498THF     C210563   5.018   0.556   1.183 -0.4609 -0.1046 -0.1568
  498THF     C310564   4.913   0.687   1.021  0.5549  0.5140  0.1550
  498THF     H410565   4.936   0.499   1.226 -0.1976 -0.9510 -0.7426
  498THF     H510566   5.105   0.555   1.249 -2.3393  1.7711  2.5654
  498THF     H610567   4.811   0.655   1.040  0.6720  0.8950  1.5136
  498THF     H710568   4.905   0.792   0.992 -2.5672  0.9393  2.0847
  498THF     C810569   4.998   0.592   0.936 -0.1160  0.8199  0.0747
  498THF     C910570   5.051   0.492   1.051  0.4836  0.2763  0.0673
  498THF    H1010571   5.078   0.653   0.895  0.1183  0.4646  0.0027
  498THF    H1110572   4.953   0.540   0.850 -1.9762  1.3984  0.6454
  498THF    H1210573   4.993   0.402   1.033 -1.7455  1.3569  1.4445
  498THF    H1310574   5.158   0.471   1.043  0.4974  0.5085 -0.4203
  499THF     O110575   5.064   4.220   1.461  0.3453 -0.5130 -0.4886
  499THF     C210576   5.047   4.353   1.426  0.2164 -0.0584 -0.4405
  499THF     C310577   5.200   4.216   1.514  0.3741  0.0502  0.2593
  499THF     H410578   5.033   4.404   1.521 -2.0011 -0.4601 -0.5125
  499THF     H510579   4.964   4.363   1.356  0.0375  3.8947  0.1187
  499THF     H610580   5.199   4.234   1.622 -2.3207 -2.0994  0.6915
  499THF     H710581   5.236   4.114   1.513  1.6389  0.4725 -1.7517
  499THF     C810582   5.279   4.310   1.420  0.0127  0.5539 -0.3391
  499THF     C910583   5.181   4.393   1.358  0.2712 -0.6998  0.1834
  499THF    H1010584   5.329   4.246   1.346 -0.3729 -1.3075  0.9349
  499THF    H1110585   5.357   4.366   1.471  1.4725 -1.7418  0.1313
  499THF    H1210586   5.199   4.500   1.368 -0.8336 -0.4916  0.0682
  499THF    H1310587   5.184   4.362   1.254  0.9696  0.6966 -0.2374
  500THF     O110588   3.102   4.597   3.490 -0.3274  0.0168  0.5503
  500THF     C210589   3.236   4.622   3.501  0.2602 -0.0336 -0.6943
  500THF     C310590   3.038   4.694   3.574 -0.2585  0.7629  0.9546
  500THF     H410591   3.260   4.703   3.432  2.2046 -0.7577 -0.9285
  500THF     H510592   3.291   4.530   3.482 -0.9179 -0.1012 -4.5564
  500THF     H610593   3.024   4.791   3.526 -1.7675  1.4594  2.7086
  500THF     H710594   2.935   4.663   3.589 -0.5264  1.8317  1.3656
  500THF     C810595   3.121   4.701   3.699 -0.1718 -0.2819  0.4631
  500THF     C910596   3.260   4.681   3.638 -0.3738 -0.3138 -0.0894
  500THF    H1010597   3.087   4.622   3.767 -0.9907 -1.3441 -1.1110
  500THF    H1110598   3.096   4.800   3.737 -1.0713 -0.4571  0.3493
  500THF    H1210599   3.326   4.768   3.632  0.0624 -0.6869 -0.8068
  500THF    H1310600   3.321   4.610   3.694 -0.1904 -1.0644 -1.2181
  501THF     O110601   3.995   0.036   3.733  0.0835  0.2463 -0.7951
  501THF     C210602   4.050   0.163   3.682 -0.2735  0.4758 -0.5645
  501THF     C310603   3.859   0.031   3.711 -0.7602  0.2111 -0.1590
  501THF     H410604   4.145   0.150   3.631  1.1192  1.4813  1.6226
  501THF     H510605   4.073   0.226   3.768 -0.8647 -0.0919  0.0261
  501THF     H610606   3.843  -0.076   3.698  1.5478 -0.2103 -0.0137
  501THF     H710607   3.813   0.076   3.798 -1.2610 -0.9301  0.1864
  501THF     C810608   3.840   0.106   3.582  0.7717 -0.2189 -0.2731
  501THF     C910609   3.946   0.214   3.584 -0.1161  0.1982  0.2038
  501THF    H1010610   3.740   0.150   3.572  0.7569 -0.1386  0.1651
  501THF    H1110611   3.845   0.043   3.494  1.1754 -0.5731  0.0018
  501THF    H1210612   4.002   0.234   3.493  0.5358 -0.9839  0.3129
  501THF    H1310613   3.904   0.310   3.615 -1.7912  0.6073 -2.9901
  502THF     O110614   4.135   3.610   1.033  0.6168 -0.4777  0.4442
  502THF     C210615   4.053   3.534   0.944 -0.0160 -0.0756 -0.1005
  502THF     C310616   4.257   3.635   0.967 -0.3017 -0.5959 -0.2793
  502THF     H410617   4.018   3.603   0.868  2.7717 -0.1533 -1.5616
  502THF     H510618   3.984   3.488   1.015 -0.9438  1.1033 -0.2033
  502THF     H610619   4.297   3.736   0.957 -1.2644 -0.0029  1.4517
  502THF     H710620   4.332   3.598   1.037  0.0014  3.7999  2.1031
  502THF     C810621   4.257   3.546   0.845  0.2389  0.8120  0.6917
  502THF     C910622   4.146   3.445   0.874 -0.3079 -0.3076 -0.1668
  502THF    H1010623   4.352   3.497   0.822 -0.0421  0.7382 -0.3343
  502THF    H1110624   4.232   3.606   0.758 -0.5056  0.4127  0.6193
  502THF    H1210625   4.095   3.389   0.795  0.9710 -2.4236  0.4276
  502THF    H1310626   4.180   3.383   0.956  1.8854  2.3486  1.0713
  503THF     O110627   1.597   4.680   3.065 -0.1868  0.1085 -0.2673
  503THF     C210628   1.574   4.703   2.928 -0.1858  0.0942 -0.5878
  503THF     C310629   1.727   4.621   3.080 -0.6368 -0.6820  0.3687
  503THF     H410630   1.482   4.761   2.917 -0.1899  0.2227  0.0809
  503THF     H510631   1.565   4.601   2.891 -0.4278 -0.0365 -0.1628
  503THF     H610632   1.762   4.614   3.182 -1.3736 -0.5890  0.6330
  503THF     H710633   1.739   4.517   3.051  0.3776 -0.2489 -0.9093
  503THF     C810634   1.810   4.711   2.987  0.4338  0.0069  0.3274
  503THF     C910635   1.709   4.776   2.890 -0.8132 -0.3067 -0.2456
  503THF    H1010636   1.886   4.657   2.930 -1.1568 -0.7156 -1.2167
  503THF    H1110637   1.845   4.795   3.046  0.3870  1.4875 -1.6463
  503THF    H1210638   1.697   4.881   2.917  0.0782 -0.4069  0.5880
  503THF    H1310639   1.739   4.768   2.786  1.9344  1.8673  0.2788
  504THF     O110640   2.027   4.964   4.578  0.2808  0.8227 -0.4447
  504THF     C210641   2.084   4.841   4.545 -0.4463 -0.2994  0.3131
  504THF     C310642   1.970   4.954   4.714 -0.8990 -1.0179  0.4799
  504THF     H410643   2.150   4.858   4.460 -0.3954 -0.4505  0.3208
  504THF     H510644   2.006   4.769   4.521 -0.4859 -0.2665  0.3427
  504THF     H610645   1.949   5.053   4.753 -0.5184 -0.6405 -0.2467
  504THF     H710646   1.874   4.904   4.714 -2.3061  1.5049  0.2650
  504THF     C810647   2.089   4.889   4.789 -0.2516  0.6216 -0.1495
  504THF     C910648   2.161   4.807   4.675 -0.1184  0.2619 -0.2171
  504THF    H1010649   2.050   4.825   4.869 -1.4090  2.5139  0.8579
  504THF    H1110650   2.154   4.959   4.841 -0.7157  1.7016 -0.9920
  504THF    H1210651   2.265   4.839   4.668 -0.0569  0.2809  0.6067
  504THF    H1310652   2.163   4.698   4.669  0.8629  0.2347  0.4302
  505THF     O110653   1.290   2.427   0.803  0.0738  0.3593 -0.0795
  505THF     C210654   1.419   2.478   0.784 -0.2578  0.4801  0.4139
  505THF     C310655   1.207   2.539   0.769 -0.1606 -0.0543 -0.2956
  505THF     H410656   1.434   2.472   0.676  0.8744  2.3611  0.4292
  505THF     H510657   1.488   2.406   0.827 -1.2698 -1.4072 -0.9492
  505THF     H610658   1.188   2.551   0.662 -0.9764 -1.2222 -0.3028
  505THF     H710659   1.105   2.536   0.808 -0.4049 -1.0818 -0.9602
  505THF     C810660   1.274   2.659   0.831 -0.4562  0.0806 -0.4199
  505THF     C910661   1.423   2.626   0.828 -0.3045 -0.9799  0.0725
  505THF    H1010662   1.254   2.667   0.937  1.6837 -0.4633  0.0801
  505THF    H1110663   1.260   2.752   0.776 -2.2350 -0.5053 -1.0165
  505THF    H1210664   1.477   2.689   0.758 -1.1029 -1.1414 -0.7079
  505THF    H1310665   1.451   2.636   0.933 -0.5246 -0.5834  0.0931
  506THF     O110666   1.599   4.012   3.836  0.2524 -0.1235  0.2638
  506THF     C210667   1.695   4.120   3.831 -0.3045  0.5107 -0.0497
  506THF     C310668   1.477   4.062   3.795 -0.2221  0.6704 -0.2311
  506THF     H410669   1.789   4.065   3.834  0.1084  1.2513  1.1123
  506THF     H510670   1.696   4.189   3.914  2.2679  0.3501  0.1151
  506THF     H610671   1.415   3.975   3.773  3.9200 -2.3602 -0.9279
  506THF     H710672   1.443   4.125   3.877 -0.0537 -0.8281  1.0331
  506THF     C810673   1.519   4.140   3.668 -0.0829 -0.6783 -0.2251
  506THF     C910674   1.663   4.187   3.699  0.2514 -0.5634 -0.1169
  506THF    H1010675   1.458   4.229   3.650  1.9382  0.9957  0.7573
  506THF    H1110676   1.519   4.077   3.579 -0.0386  0.7252 -1.2535
  506THF    H1210677   1.736   4.160   3.623  0.5883 -2.0112  0.6814
  506THF    H1310678   1.670   4.295   3.711  0.8711 -0.8637  3.5245
  507THF     O110679   0.285   2.205   1.804 -0.3773  0.0984 -0.3202
  507THF     C210680   0.236   2.336   1.755  0.6120  0.1310  0.3844
  507THF     C310681   0.244   2.181   1.939  0.3433  0.1884 -0.5046
  507THF     H410682   0.241   2.340   1.647 -0.1076 -2.7047  0.1805
  507THF     H510683   0.305   2.412   1.793  1.1785  0.2375 -0.8092
  507THF     H610684   0.258   2.074   1.955 -2.3804 -0.3113 -0.9654
  507THF     H710685   0.299   2.241   2.011  1.2296 -0.7776 -0.3667
  507THF     C810686   0.098   2.229   1.930  0.0505  0.2843 -0.0092
  507THF     C910687   0.099   2.342   1.827  0.3527 -0.6634  0.0368
  507THF    H1010688   0.068   2.268   2.027  1.9435  0.5965  0.4825
  507THF    H1110689   0.029   2.149   1.901 -1.0030  2.1406 -3.1183
  507THF    H1210690   0.028   2.320   1.747 -0.3907 -2.1881  1.0743
  507THF    H1310691   0.098   2.444   1.868  0.1176 -0.5338 -0.2853
  508THF     O110692   3.256   3.520   1.245 -0.5979 -0.1469 -0.0264
  508THF     C210693   3.212   3.593   1.133 -0.5899 -0.6587  1.1850
  508THF     C310694   3.218   3.380   1.232 -0.3845 -0.6404 -0.3745
  508THF     H410695   3.249   3.690   1.101 -1.5530 -0.7151 -0.1733
  508THF     H510696   3.103   3.594   1.133 -0.6255  0.7347 -0.4810
  508THF     H610697   3.263   3.314   1.305 -1.1082 -1.5315 -0.7015
  508THF     H710698   3.110   3.365   1.235 -0.1285 -2.6129  1.0863
  508THF     C810699   3.258   3.358   1.085 -0.7459  0.1497 -0.4198
  508THF     C910700   3.257   3.504   1.019  0.1819 -0.6677 -0.2256
  508THF    H1010701   3.195   3.287   1.032  0.7604 -0.5189 -1.3573
  508THF    H1110702   3.360   3.320   1.081 -0.6225  0.5739 -2.2443
  508THF    H1210703   3.362   3.522   0.994 -0.1428  1.0291 -0.4879
  508THF    H1310704   3.192   3.530   0.935  0.0802 -0.3475 -0.0488
  509THF     O110705   4.613   3.361   4.626 -0.4264  1.2661 -0.8029
  509THF     C210706   4.548   3.249   4.568 -0.6614 -1.1785 -0.3077
  509THF     C310707   4.688   3.428   4.522  0.3383  0.5713 -0.4171
  509THF     H410708   4.462   3.293   4.516 -0.2061  0.9709  0.6170
  509THF     H510709   4.514   3.181   4.646  1.0725  0.3982  1.9706
  509THF     H610710   4.612   3.487   4.471  0.4231  0.5913 -0.5223
  509THF     H710711   4.763   3.499   4.555  0.0812  0.3337  0.7332
  509THF     C810712   4.745   3.315   4.441 -0.0694 -0.3753  0.2852
  509THF     C910713   4.650   3.195   4.469 -0.1876 -0.0358 -0.1988
  509THF    H1010714   4.847   3.292   4.471  1.0481  3.5387 -0.0239
  509THF    H1110715   4.746   3.350   4.338 -1.8204  1.5776  0.8655
  509THF    H1210716   4.608   3.155   4.377 -0.5208  1.5384 -0.7668
  509THF    H1310717   4.707   3.112   4.511  1.5560  0.0768 -2.1726
  510THF     O110718   0.396   2.519   2.256  0.3828 -0.9845 -0.0864
  510THF     C210719   0.268   2.516   2.218  0.2237 -0.3170  0.8631
  510THF     C310720   0.477   2.494   2.143  0.0462 -0.7596  0.0268
  510THF     H410721   0.203   2.559   2.294 -0.7828 -0.0117 -0.1488
  510THF     H510722   0.237   2.413   2.196  0.4031 -0.6822  2.2197
  510THF     H610723   0.583   2.511   2.155 -0.0523  1.5296 -1.7102
  510THF     H710724   0.471   2.386   2.130  0.5283 -1.0472  1.8645
  510THF     C810725   0.411   2.579   2.034  1.3430 -0.2202  1.2034
  510THF     C910726   0.271   2.601   2.093  0.2072 -0.4151  0.1762
  510THF    H1010727   0.414   2.529   1.937  0.4531  2.3610 -0.2631
  510THF    H1110728   0.461   2.675   2.024  0.7277 -0.0247 -0.3518
  510THF    H1210729   0.275   2.702   2.133 -0.5854 -1.1792  2.3234
  510THF    H1310730   0.189   2.579   2.024  1.5515 -2.0254 -0.9887
  511THF     O110731   3.665   2.812   4.794 -0.1785  0.8316 -0.8089
  511THF     C210732   3.792   2.834   4.867  0.7389  0.1386 -0.1893
  511THF     C310733   3.563   2.839   4.887 -0.2842  0.2845  0.1263
  511THF     H410734   3.809   2.941   4.877  2.2019 -0.1111  0.2330
  511THF     H510735   3.885   2.803   4.818  1.7488  2.3882  0.1612
  511THF     H610736   3.538   2.945   4.895 -3.1961 -0.1721 -1.5436
  511THF     H710737   3.468   2.806   4.845 -1.3231  1.7676  1.1963
  511THF     C810738   3.614   2.786   5.024  0.0032 -0.2767 -0.1030
  511THF     C910739   3.764   2.759   4.994  0.9471  0.1210 -0.8561
  511THF    H1010740   3.550   2.702   5.050  0.5071 -1.0454 -1.2730
  511THF    H1110741   3.603   2.855   5.108  5.7971 -0.0906  0.8474
  511THF    H1210742   3.825   2.780   5.082 -1.1239  0.0499  0.6678
  511THF    H1310743   3.771   2.651   4.979 -2.5715 -0.2996 -0.3219
  512THF     O110744   4.591   0.535   3.251 -0.7639  0.8238 -0.1795
  512THF     C210745   4.685   0.600   3.335 -0.0316  0.0521  0.6532
  512THF     C310746   4.518   0.636   3.188 -0.0526 -0.3931  0.1458
  512THF     H410747   4.774   0.631   3.281 -1.7256  1.0094 -1.7672
  512THF     H510748   4.720   0.527   3.408 -1.6423 -2.6428 -1.1220
  512THF     H610749   4.569   0.701   3.117 -0.7265  0.2402  0.2295
  512THF     H710750   4.438   0.580   3.140  0.9582 -0.0985 -2.0299
  512THF     C810751   4.483   0.727   3.311  0.3145 -0.0409  0.5063
  512THF     C910752   4.607   0.719   3.396 -0.2286 -0.1127 -0.2386
  512THF    H1010753   4.399   0.688   3.370 -1.6846 -0.5556 -2.4510
  512THF    H1110754   4.463   0.829   3.280 -1.1058 -0.8689 -1.5318
  512THF    H1210755   4.669   0.807   3.413 -0.0127 -0.4046  0.5545
  512THF    H1310756   4.575   0.684   3.495  1.6208  2.0685  1.2356
  513THF     O110757   1.125   4.301   0.149  0.2564  0.5234 -0.0672
  513THF     C210758   1.255   4.270   0.189 -0.7211  0.0204 -0.0420
  513THF     C310759   1.144   4.426   0.082  0.4455  0.0895 -0.2077
  513THF     H410760   1.256   4.167   0.226  0.5485  0.6321  1.7823
  513THF     H510761   1.273   4.330   0.278 -0.9347 -0.9800  0.7058
  513THF     H610762   1.056   4.446   0.020 -0.7613 -0.9201  1.1047
  513THF     H710763   1.149   4.501   0.161 -0.9982 -0.5201  0.4947
  513THF     C810764   1.284   4.416   0.014 -0.4339  0.2790 -0.3510
  513THF     C910765   1.351   4.291   0.072  0.6034 -0.0605  0.0762
  513THF    H1010766   1.340   4.508   0.030 -3.9654  2.3803  1.4276
  513THF    H1110767   1.270   4.403  -0.093  0.5753 -3.3378 -0.1486
  513THF    H1210768   1.348   4.218  -0.009 -0.9264  0.9240 -0.8102
  513THF    H1310769   1.455   4.306   0.101  1.8465 -0.8664 -3.4385
  514THF     O110770   1.564   1.158   1.367  0.0710 -0.4160 -0.1009
  514THF     C210771   1.607   1.292   1.402  0.5880 -0.2253  0.0353
  514THF     C310772   1.572   1.093   1.493 -0.6483  0.2614  0.1242
  514THF     H410773   1.524   1.352   1.438  1.2669  1.5852 -1.2595
  514THF     H510774   1.652   1.335   1.312 -0.2567  1.6323  0.4434
  514THF     H610775   1.491   1.133   1.555 -0.7629 -1.9827  1.5508
  514THF     H710776   1.553   0.986   1.485 -2.1898  0.5333 -0.2677
  514THF     C810777   1.701   1.146   1.563 -0.3517  0.2996  0.5268
  514THF     C910778   1.713   1.289   1.514  0.6645  0.0335 -0.3468
  514THF    H1010779   1.793   1.092   1.538 -0.0890  0.3791  1.3074
  514THF    H1110780   1.698   1.132   1.671  0.1289  0.6707  0.5939
  514THF    H1210781   1.672   1.355   1.591  1.9032 -0.1895  0.5317
  514THF    H1310782   1.813   1.305   1.476  0.8399  0.8723  0.4256
  515THF     O110783   0.699   2.098   5.334  0.0492  0.2217  0.4091
  515THF     C210784   0.686   2.097   5.193 -0.0109  0.4234 -0.1141
  515THF     C310785   0.567   2.136   5.373 -0.1892 -0.2704 -0.0246
  515THF     H410786   0.621   2.016   5.161 -0.4215  0.2034  1.2043
  515THF     H510787   0.782   2.085   5.143 -0.5322 -2.6705 -0.5592
  515THF     H610788   0.499   2.051   5.379  0.7681 -0.9858  1.0327
  515THF     H710789   0.554   2.180   5.472  2.0603 -3.0268  1.6401
  515THF     C810790   0.514   2.239   5.267 -0.0974  0.4770 -0.6376
  515THF     C910791   0.620   2.238   5.155  0.2232 -0.0912 -0.0766
  515THF    H1010792   0.505   2.330   5.327  2.7758 -0.5745  1.6686
  515THF    H1110793   0.424   2.204   5.218  0.0582  0.9168 -1.2438
  515THF    H1210794   0.568   2.237   5.060  0.3257  0.0778 -0.1340
  515THF    H1310795   0.693   2.318   5.167  1.6357 -1.3117 -0.2177
  516THF     O110796   1.480   4.665   4.415 -0.4370 -0.2377  0.0941
  516THF     C210797   1.390   4.609   4.320 -0.5613  0.8340 -0.1723
  516THF     C310798   1.505   4.574   4.512  0.1579  0.2954 -0.4566
  516THF     H410799   1.402   4.657   4.223  2.3498 -1.3158 -1.0111
  516THF     H510800   1.293   4.617   4.368 -1.0780  1.9251 -1.3291
  516THF     H610801   1.590   4.601   4.574  0.5786 -1.2385 -0.3109
  516THF     H710802   1.411   4.578   4.568 -0.0089  0.8341 -0.7706
  516THF     C810803   1.522   4.439   4.431  1.3384  0.3099  0.4824
  516THF     C910804   1.438   4.464   4.304 -0.6570 -0.8125  0.3592
  516THF    H1010805   1.495   4.351   4.489  1.8576 -1.1073 -1.3423
  516THF    H1110806   1.623   4.419   4.394  0.4015 -0.2972 -1.9019
  516THF    H1210807   1.511   4.461   4.223 -0.8188  0.8229  0.1037
  516THF    H1310808   1.354   4.399   4.282 -1.0852  0.6717 -3.1327
  517THF     O110809   3.702   5.297   3.156  0.2488 -0.3894  0.2090
  517THF     C210810   3.647   5.366   3.046 -0.5122 -0.5986 -0.6645
  517THF     C310811   3.779   5.390   3.227  0.3236 -0.4237 -0.0028
  517THF     H410812   3.561   5.312   3.006 -0.4094  0.0259 -1.7758
  517THF     H510813   3.723   5.387   2.971 -0.4181  0.3607 -0.3112
  517THF     H610814   3.799   5.354   3.328 -1.9417 -1.6551  0.0800
  517THF     H710815   3.875   5.408   3.179 -0.4779  0.1569 -1.4397
  517THF     C810816   3.688   5.512   3.227  0.2649  0.1948 -0.1642
  517THF     C910817   3.590   5.491   3.106 -0.3260 -0.3730 -0.4388
  517THF    H1010818   3.745   5.605   3.221  1.9313 -0.7389  0.5100
  517THF    H1110819   3.634   5.503   3.321 -0.0245 -0.9825 -0.4292
  517THF    H1210820   3.491   5.461   3.139 -0.2184  0.3763  0.6531
  517THF    H1310821   3.583   5.576   3.038 -2.0637  0.6545  0.9325
  518THF     O110822   3.243   4.658   2.639 -0.5140 -0.6687 -0.5389
  518THF     C210823   3.127   4.743   2.638 -0.1188  0.3196  0.2630
  518THF     C310824   3.327   4.723   2.736 -0.6748 -0.0473  0.2066
  518THF     H410825   3.074   4.714   2.728  2.0143 -1.5165  1.0397
  518THF     H510826   3.067   4.737   2.547  1.8304 -2.3108 -1.0093
  518THF     H610827   3.296   4.696   2.837 -0.6348 -0.6985  0.0483
  518THF     H710828   3.432   4.704   2.719 -1.1041 -0.3099 -2.5478
  518THF     C810829   3.311   4.872   2.711 -0.0841  0.4616 -0.0581
  518THF     C910830   3.182   4.885   2.640  0.5141  0.4545 -0.1033
  518THF    H1010831   3.394   4.914   2.655 -1.3699  1.1971 -1.4546
  518THF    H1110832   3.304   4.922   2.808 -2.5478 -0.0824  0.1083
  518THF    H1210833   3.117   4.943   2.705 -1.1720 -2.6566  1.1993
  518THF    H1310834   3.188   4.932   2.542  0.0145 -0.7383 -0.7315
  519THF     O110835   3.040   1.406   0.306  0.2918  0.0759 -0.3371
  519THF     C210836   2.903   1.444   0.330 -0.3340 -0.1995 -0.2581
  519THF     C310837   3.123   1.522   0.308 -0.0308  0.2260  0.1402
  519THF     H410838   2.868   1.424   0.432 -0.2337 -0.1803 -0.2202
  519THF     H510839   2.834   1.397   0.260 -0.7339  1.4020 -0.9912
  519THF     H610840   3.142   1.544   0.414 -1.9050 -0.6366  0.6876
  519THF     H710841   3.221   1.513   0.260  0.5553  1.5364  1.0100
  519THF     C810842   3.037   1.631   0.254 -0.0662 -0.1708  0.8455
  519THF     C910843   2.895   1.588   0.292  0.7637  0.0387  0.1038
  519THF    H1010844   3.048   1.642   0.147 -0.1411 -1.4444  0.6982
  519THF    H1110845   3.059   1.731   0.292  0.7494  1.2116 -2.9254
  519THF    H1210846   2.880   1.636   0.389 -2.1502 -4.3282  2.1299
  519THF    H1310847   2.820   1.603   0.214  1.8996  0.2835 -0.9709
  520THF     O110848   4.140   1.493   4.526 -0.3595 -0.5543 -0.3631
  520THF     C210849   4.147   1.547   4.657 -0.2262  0.2242 -0.3487
  520THF     C310850   4.008   1.465   4.489  0.5176 -0.3932  0.1009
  520THF     H410851   4.156   1.655   4.652  3.2387  0.1269  0.8175
  520THF     H510852   4.237   1.516   4.711 -0.9291 -1.2797  0.0398
  520THF     H610853   3.962   1.560   4.460 -1.9627 -0.9123  1.9948
  520THF     H710854   4.009   1.391   4.409 -0.2297 -0.2622 -0.0416
  520THF     C810855   3.951   1.410   4.620  0.5526  0.1430  0.4549
  520THF     C910856   4.030   1.486   4.731  0.6496 -0.0691  0.1368
  520THF    H1010857   3.975   1.305   4.630  0.7143  0.3480  2.6400
  520THF    H1110858   3.843   1.422   4.631  0.3372 -1.3299  0.1690
  520THF    H1210859   3.970   1.556   4.790 -0.4471 -0.8799  0.0230
  520THF    H1310860   4.070   1.414   4.801 -1.9318  0.4027  2.2616
  521THF     O110861   1.272   4.883   2.109 -0.1892  0.6312 -0.2237
  521THF     C210862   1.341   4.934   2.217  0.1084  0.2354  0.0135
  521THF     C310863   1.368   4.840   2.017  0.6664  0.7016 -0.4047
  521THF     H410864   1.365   4.851   2.283 -0.0032 -1.7537 -2.3458
  521THF     H510865   1.286   5.001   2.283  0.0132  2.1772 -1.9082
  521THF     H610866   1.410   4.748   2.057 -0.4294  1.0941  1.7883
  521THF     H710867   1.336   4.817   1.915  0.7576 -4.6891  0.5188
  521THF     C810868   1.470   4.955   2.020  0.0932  0.0025  0.8056
  521THF     C910869   1.465   5.008   2.158  0.3676  0.1563  1.3517
  521THF    H1010870   1.445   5.035   1.950  1.4456  0.4724  0.8243
  521THF    H1110871   1.564   4.907   1.990 -0.4047 -0.4831 -0.0080
  521THF    H1210872   1.554   4.981   2.214  2.1362  2.8101  0.0135
  521THF    H1310873   1.456   5.116   2.164 -2.2749 -0.0150  1.9938
  522THF     O110874   5.239   0.215   0.576  0.0242 -0.6147 -0.7365
  522THF     C210875   5.183   0.174   0.701 -0.0759 -0.0342 -0.4308
  522THF     C310876   5.137   0.249   0.485  0.3843  0.1040  0.3112
  522THF     H410877   5.194   0.246   0.782 -1.9371  0.2292 -0.3770
  522THF     H510878   5.230   0.081   0.731 -0.9611 -0.5519 -0.6143
  522THF     H610879   5.097   0.350   0.497 -0.3012 -0.2871  1.3964
  522THF     H710880   5.184   0.239   0.387  1.7321  0.0609  0.9337
  522THF     C810881   5.022   0.151   0.518 -0.4489  0.4785 -0.3046
  522THF     C910882   5.033   0.139   0.673 -0.0596 -0.1417  0.3287
  522THF    H1010883   5.056   0.056   0.477 -1.9419  0.2046 -0.9714
  522THF    H1110884   4.923   0.168   0.475 -0.1740  2.1015 -0.3687
  522THF    H1210885   4.969   0.216   0.716  0.6933 -0.0937  1.4273
  522THF    H1310886   5.005   0.042   0.714  1.3668 -0.3436  0.8901
  523THF     O110887   1.131   4.052   4.388  0.5818  0.0899  0.3838
  523THF     C210888   1.200   4.159   4.447 -0.1292 -0.1407 -0.1169
  523THF     C310889   1.126   3.954   4.488  0.0537 -0.1139  0.2061
  523THF     H410890   1.121   4.207   4.503 -1.1973 -1.5781 -0.3394
  523THF     H510891   1.244   4.231   4.377  1.5019  0.1064  1.1147
  523THF     H610892   1.056   3.986   4.566  1.2067 -0.4041  1.3985
  523THF     H710893   1.093   3.862   4.440 -1.5144  0.9369 -0.8622
  523THF     C810894   1.270   3.960   4.527 -0.4804  0.2354 -0.9931
  523THF     C910895   1.311   4.100   4.534  0.0508  0.3428 -0.0367
  523THF    H1010896   1.337   3.908   4.458  0.5509 -1.5617  1.2392
  523THF    H1110897   1.279   3.918   4.627 -0.0226  5.2515  1.3579
  523THF    H1210898   1.313   4.137   4.637  0.7803 -1.6752  0.7333
  523THF    H1310899   1.406   4.125   4.488  0.1045 -0.7819 -0.5738
  524THF     O110900   3.279   1.895   0.134  0.2411 -0.6317 -0.2219
  524THF     C210901   3.367   1.819   0.212  0.0852  0.5556 -0.0391
  524THF     C310902   3.350   2.004   0.078  0.0988 -0.7052  0.0519
  524THF     H410903   3.329   1.718   0.228 -0.3898  0.8428  0.6440
  524THF     H510904   3.391   1.877   0.300  0.0770  1.1693 -0.4350
  524THF     H610905   3.298   2.039  -0.011 -0.0772 -3.5340 -1.0504
  524THF     H710906   3.353   2.076   0.160  1.2255  1.3313 -1.6746
  524THF     C810907   3.486   1.949   0.045 -0.1620 -0.0079  0.0001
  524THF     C910908   3.497   1.826   0.135  0.2434  0.2238  0.4861
  524THF    H1010909   3.572   2.016   0.046  0.2213 -0.2362 -3.6924
  524THF    H1110910   3.488   1.914  -0.058  0.1960 -0.8262  0.2830
  524THF    H1210911   3.517   1.744   0.067  1.6264  0.8135  0.1537
  524THF    H1310912   3.579   1.836   0.207 -1.3645  0.1055  2.4196
  525THF     O110913   4.752   3.931   1.949  0.1748  0.2976  1.0186
  525THF     C210914   4.726   3.804   1.877  0.1136 -0.5563  0.1515
  525THF     C310915   4.865   3.987   1.880  0.1116 -0.4986  0.0116
  525THF     H410916   4.630   3.763   1.907  0.2576  0.0311  1.4904
  525THF     H510917   4.802   3.727   1.893 -0.6365 -1.1963  0.6967
  525THF     H610918   4.859   4.093   1.904 -0.6915 -0.4762 -0.2734
  525THF     H710919   4.962   3.952   1.917  0.3126 -0.6159 -0.6120
  525THF     C810920   4.860   3.939   1.732  0.8273  0.2780  0.0369
  525THF     C910921   4.731   3.858   1.731  0.0286 -0.2024  0.6733
  525THF    H1010922   4.956   3.895   1.705  1.0301  0.3098  0.6749
  525THF    H1110923   4.849   4.023   1.663  0.3800  1.1525  1.1286
  525THF    H1210924   4.652   3.930   1.710  0.4809 -0.1186 -0.8065
  525THF    H1310925   4.730   3.775   1.661 -1.6663 -0.8260  1.3857
  526THF     O110926   5.062   4.035   2.466 -0.0963  0.3762 -0.1790
  526THF     C210927   5.178   4.118   2.469  0.0024  0.2946  0.1602
  526THF     C310928   4.991   4.055   2.346  0.4804 -0.3467  0.2515
  526THF     H410929   5.263   4.069   2.517 -0.6646 -1.1851 -0.1100
  526THF     H510930   5.165   4.220   2.506 -2.3685  0.2616 -0.3860
  526THF     H610931   4.916   3.976   2.336 -1.5026  1.6925 -2.2948
  526THF     H710932   4.938   4.150   2.351 -1.0089 -1.0857 -0.9592
  526THF     C810933   5.108   4.047   2.255 -0.5466 -0.0777  0.1761
  526THF     C910934   5.219   4.124   2.320  0.7383 -0.3758 -0.1377
  526THF    H1010935   5.089   4.074   2.151 -1.6061 -0.2719  0.3129
  526THF    H1110936   5.140   3.943   2.256  2.6148  0.7912  1.1318
  526THF    H1210937   5.322   4.089   2.311  1.5955  1.0437  2.8125
  526THF    H1310938   5.227   4.225   2.280  1.1688 -0.4227 -0.1742
  527THF     O110939   0.924   1.742   4.630 -0.0464  0.0778 -0.5402
  527THF     C210940   1.035   1.825   4.661 -0.7587 -0.4489  0.2899
  527THF     C310941   0.979   1.633   4.552 -0.0385  0.8200 -0.6178
  527THF     H410942   1.089   1.782   4.746  2.2121  0.2874 -1.1130
  527THF     H510943   1.000   1.922   4.697  0.4053  0.5355 -1.1314
  527THF     H610944   1.027   1.555   4.612 -1.1085 -0.4893 -1.3909
  527THF     H710945   0.900   1.588   4.491 -2.0681  0.2457  2.1828
  527THF     C810946   1.078   1.701   4.465 -0.5348 -0.7981  0.1866
  527THF     C910947   1.128   1.820   4.543  0.0556  0.3036  0.0582
  527THF    H1010948   1.018   1.735   4.381  0.1441 -0.5108 -0.1896
  527THF    H1110949   1.152   1.630   4.429 -1.7903 -1.9723 -0.1584
  527THF    H1210950   1.236   1.816   4.549  0.1083  1.2428 -0.0624
  527THF    H1310951   1.123   1.913   4.486 -0.7201  0.5113  0.4473
  528THF     O110952   5.243   0.712   0.676 -0.7158  0.5317 -0.2540
  528THF     C210953   5.325   0.807   0.598  0.0917 -0.4209  0.0989
  528THF     C310954   5.246   0.578   0.613 -0.3124 -0.5457 -0.2393
  528THF     H410955   5.424   0.824   0.639  0.4350 -0.0821 -0.8482
  528THF     H510956   5.285   0.908   0.594  0.8210 -0.0600  1.2876
  528THF     H610957   5.289   0.505   0.681  1.0816  0.8747  0.4779
  528THF     H710958   5.148   0.543   0.583 -0.4581 -1.8633  1.5795
  528THF     C810959   5.340   0.598   0.494 -0.3610  0.1611 -1.3587
  528THF     C910960   5.337   0.746   0.465  0.2836  0.1174  0.9230
  528THF    H1010961   5.310   0.536   0.409 -0.2077 -2.5703  0.4610
  528THF    H1110962   5.441   0.562   0.511 -0.2014  1.3608  0.4995
  528THF    H1210963   5.429   0.772   0.414 -0.5543  0.2187 -0.6014
  528THF    H1310964   5.255   0.780   0.402  0.7864 -0.2422  0.0601
  529THF     O110965   2.651   4.398   4.276 -0.1075 -0.5438 -0.1007
  529THF     C210966   2.614   4.532   4.248 -0.6137 -0.5879  0.0655
  529THF     C310967   2.689   4.333   4.153 -0.6476 -0.6154  0.1511
  529THF     H410968   2.698   4.596   4.221 -1.3358  1.5935  2.5904
  529THF     H510969   2.561   4.581   4.329  0.4929  0.4053  0.2193
  529THF     H610970   2.795   4.344   4.129 -0.8346 -0.4975 -0.6682
  529THF     H710971   2.671   4.225   4.161 -0.4028 -0.5207  2.6864
  529THF     C810972   2.608   4.410   4.047  0.5864  0.4187  0.3360
  529THF     C910973   2.529   4.521   4.128 -0.5899  0.0117 -0.2200
  529THF    H1010974   2.546   4.353   3.977  2.1599  1.8402 -2.4048
  529THF    H1110975   2.679   4.462   3.982  2.1653  0.4352  2.0047
  529THF    H1210976   2.509   4.616   4.078  1.7142  1.2962  1.0870
  529THF    H1310977   2.433   4.483   4.163 -0.7009  1.1837  0.8247
  530THF     O110978   1.802   3.035   2.168  0.3603  0.7344  0.2172
  530THF     C210979   1.794   3.152   2.091  0.2842 -0.2403  0.1336
  530THF     C310980   1.946   3.013   2.178 -0.3782  0.0467  0.0125
  530THF     H410981   1.831   3.237   2.150  2.2295  0.6586 -2.2141
  530THF     H510982   1.694   3.163   2.051 -0.7776 -2.2810  2.0253
  530THF     H610983   1.979   3.093   2.244  0.6677 -0.6799  0.3881
  530THF     H710984   1.973   2.924   2.235 -0.8449 -0.4112 -0.4679
  530THF     C810985   1.998   3.032   2.036 -0.0231  0.5266 -0.2855
  530THF     C910986   1.887   3.125   1.978 -0.4479  0.6693 -0.5595
  530THF    H1010987   1.988   2.941   1.978  0.5523  0.3782 -0.1488
  530THF    H1110988   2.096   3.078   2.036 -0.6359  1.8902  0.2632
  530THF    H1210989   1.930   3.220   1.947  0.4291  0.2771 -0.5496
  530THF    H1310990   1.832   3.077   1.896 -0.3369 -0.7339  0.1657
  531THF     O110991   4.157   2.676   0.892 -0.1025  0.5518 -0.1617
  531THF     C210992   4.200   2.804   0.879 -0.0249 -0.6224 -0.7091
  531THF     C310993   4.127   2.650   1.027  0.3512 -0.3752 -0.3903
  531THF     H410994   4.197   2.842   0.777  3.3002  1.0997 -0.3157
  531THF     H510995   4.301   2.810   0.920 -0.1622 -2.1337 -0.0723
  531THF     H610996   4.071   2.558   1.046 -1.3892  0.6338 -0.4694
  531THF     H710997   4.221   2.655   1.081  1.4407 -0.6534 -2.1738
  531THF     C810998   4.042   2.772   1.058  0.3094  0.4750 -0.6268
  531THF     C910999   4.103   2.880   0.963  0.7275 -0.2695 -0.6518
  531THF    H1011000   4.029   2.790   1.165 -0.8449  0.5646 -0.7612
  531THF    H1111001   3.938   2.753   1.029 -0.3089  2.6713 -0.0534
  531THF    H1211002   4.025   2.925   0.901 -0.4417 -0.6261  0.5180
  531THF    H1311003   4.151   2.964   1.014  0.5023 -0.4830 -0.0843
  532THF     O111004   5.290   2.019   0.962 -0.4616  0.3858  0.2378
  532THF     C211005   5.182   1.952   1.026 -0.3668  0.1378 -0.1113
  532THF     C311006   5.366   2.086   1.057 -0.1017  0.2772  0.3117
  532THF     H411007   5.150   1.874   0.957 -0.6726  0.7796 -0.7042
  532THF     H511008   5.096   2.018   1.038 -0.4052  0.0586  0.0498
  532THF     H611009   5.472   2.066   1.040 -0.3542 -1.0723  0.1760
  532THF     H711010   5.335   2.188   1.039  1.1201  0.9395  1.6965
  532THF     C811011   5.314   2.033   1.194 -0.8060  0.3527 -0.1167
  532THF     C911012   5.238   1.911   1.150 -0.0259  0.2582  0.7087
  532THF    H1011013   5.247   2.101   1.247 -0.2943  0.5072  0.3311
  532THF    H1111014   5.397   2.013   1.261 -0.3677  0.2915 -0.6657
  532THF    H1211015   5.305   1.827   1.130 -0.7908 -0.5818  1.5489
  532THF    H1311016   5.155   1.883   1.216  0.8846 -2.7476  0.7269
  533THF     O111017   4.127   3.053   4.529  0.5413 -0.1758  0.2609
  533THF     C211018   4.057   2.936   4.485  0.6596 -0.3446  0.1809
  533THF     C311019   4.182   3.021   4.659  0.1162 -0.5268  0.3904
  533THF     H411020   4.057   2.938   4.376 -0.8327  1.2139  0.1599
  533THF     H511021   3.960   2.917   4.531 -0.0716  2.1903 -0.1666
  533THF     H611022   4.281   3.065   4.655  0.6596 -1.8031 -1.8874
  533THF     H711023   4.141   3.074   4.745  0.7426 -0.7849  0.8509
  533THF     C811024   4.183   2.866   4.667  0.1580  0.2182  0.4766
  533THF     C911025   4.148   2.819   4.524 -0.6973 -0.3538 -1.0234
  533THF    H1011026   4.107   2.823   4.732 -0.0994 -0.2406 -0.1170
  533THF    H1111027   4.283   2.836   4.697  0.4146  0.6018  0.0228
  533THF    H1211028   4.232   2.817   4.456 -0.3108  0.9121 -0.6085
  533THF    H1311029   4.098   2.724   4.502  1.6119 -1.8567 -0.2238
  534THF     O111030   4.017   4.112   3.647 -0.1395 -0.4592  0.0420
  534THF     C211031   4.001   4.243   3.590  0.1631 -0.7444 -0.3733
  534THF     C311032   4.150   4.057   3.628  0.9885  0.4258 -0.4855
  534THF     H411033   4.018   4.323   3.662 -1.5804 -2.3664  1.9970
  534THF     H511034   3.904   4.254   3.542  0.1229  1.0926  0.0453
  534THF     H611035   4.206   4.030   3.717 -0.4292  2.1275  1.0160
  534THF     H711036   4.121   3.972   3.566 -0.8049 -0.4864  1.4657
  534THF     C811037   4.221   4.170   3.548 -0.1216  0.1728  0.9663
  534THF     C911038   4.108   4.250   3.487 -0.5111 -0.6797  0.3173
  534THF    H1011039   4.296   4.142   3.474  0.7604  0.8253  1.5841
  534THF    H1111040   4.281   4.229   3.618 -0.6218  0.8211  0.8552
  534THF    H1211041   4.133   4.352   3.456 -0.8481 -1.6951 -3.8952
  534THF    H1311042   4.069   4.207   3.395  1.7166  1.9134 -2.0457
  535THF     O111043   5.005   4.847   0.243 -0.1711  0.0632  0.1170
  535THF     C211044   4.879   4.835   0.181  0.0164  0.4886 -0.2279
  535THF     C311045   5.100   4.789   0.157 -0.2439  0.1281  0.0839
  535THF     H411046   4.822   4.916   0.227 -0.6679 -0.7392  1.1942
  535THF     H511047   4.821   4.745   0.200 -1.2405  1.6325  1.7542
  535THF     H611048   5.189   4.852   0.160  0.4159 -0.7815  0.1075
  535THF     H711049   5.140   4.695   0.195  1.8763 -0.2467 -2.7673
  535THF     C811050   5.035   4.782   0.022 -0.7628 -0.5888 -0.4366
  535THF     C911051   4.907   4.856   0.032  0.1253 -0.5436 -0.4682
  535THF    H1011052   5.003   4.683  -0.011 -2.7659 -0.0499 -0.1919
  535THF    H1111053   5.095   4.814  -0.063  3.6399  0.6985  2.7354
  535THF    H1211054   4.923   4.962   0.015 -0.8556 -0.1224  1.0192
  535THF    H1311055   4.835   4.813  -0.037  0.3979 -2.8341  0.5723
  536THF     O111056   0.911   3.793   3.954  0.1961  0.4826 -0.4053
  536THF     C211057   0.872   3.850   4.079 -0.0435 -0.6893  0.0438
  536THF     C311058   0.824   3.687   3.930  0.5693  0.1793  0.0075
  536THF     H411059   0.777   3.901   4.069  0.5124  0.5111  0.6682
  536THF     H511060   0.941   3.923   4.122 -1.1411 -2.3889  5.4227
  536THF     H611061   0.735   3.714   3.873 -0.0671 -1.8709 -0.0545
  536THF     H711062   0.878   3.611   3.873 -1.8920 -1.5989 -0.1387
  536THF     C811063   0.801   3.624   4.067  0.4817  0.3515  0.2983
  536THF     C911064   0.853   3.726   4.168  0.3148  0.1892 -0.1214
  536THF    H1011065   0.853   3.529   4.076 -0.0821 -0.3414 -2.5753
  536THF    H1111066   0.699   3.601   4.099  0.3615  1.3373  0.6653
  536THF    H1211067   0.780   3.743   4.246  0.6920 -1.7342  0.7145
  536THF    H1311068   0.949   3.711   4.217 -0.1730 -0.2047  0.7324
  537THF     O111069   4.472   2.433   5.278 -0.2280 -0.4143 -0.0084
  537THF     C211070   4.446   2.487   5.152 -0.0549  0.8479 -0.6618
  537THF     C311071   4.415   2.307   5.286 -0.1687 -0.2508  0.0114
  537THF     H411072   4.509   2.574   5.129  0.3128  0.4697 -1.1241
  537THF     H511073   4.344   2.518   5.133 -0.6030 -0.2272  0.4375
  537THF     H611074   4.450   2.246   5.369  1.4727  0.4379 -0.1313
  537THF     H711075   4.308   2.321   5.304 -0.2264  0.3274 -0.7175
  537THF     C811076   4.449   2.247   5.152  0.1925  0.0391  0.0009
  537THF     C911077   4.484   2.370   5.058  0.4183  0.3112  0.4240
  537THF    H1011078   4.359   2.194   5.119 -0.7750 -1.3837  4.2983
  537THF    H1111079   4.537   2.183   5.149 -0.4096 -0.8443 -3.1114
  537THF    H1211080   4.587   2.367   5.024  0.1490  1.4470 -0.5903
  537THF    H1311081   4.421   2.355   4.969  0.8272 -1.9454  0.4550
  538THF     O111082   3.598   2.879   5.440 -0.7542  0.4309  0.2334
  538THF     C211083   3.702   2.792   5.409  0.1609 -0.1696  0.1641
  538THF     C311084   3.575   2.869   5.580 -0.6816 -0.6370  0.4454
  538THF     H411085   3.741   2.807   5.308 -1.7270  0.1168 -0.5793
  538THF     H511086   3.672   2.688   5.397 -0.7521 -0.1122  1.7544
  538THF     H611087   3.513   2.950   5.621  0.6577  0.1081  1.1001
  538THF     H711088   3.532   2.771   5.599  1.1679 -1.6022 -0.1416
  538THF     C811089   3.725   2.873   5.634 -0.5057 -0.4003 -0.1037
  538THF     C911090   3.807   2.819   5.516  0.0583 -1.0584 -0.7453
  538THF    H1011091   3.740   2.809   5.721  2.3353 -1.0367 -0.9700
  538THF    H1111092   3.758   2.972   5.665 -0.2770 -0.8166  1.0461
  538THF    H1211093   3.869   2.901   5.481 -2.3626  0.6068 -1.3929
  538THF    H1311094   3.871   2.733   5.536  0.6422 -0.3027  0.8837
  539THF     O111095   5.074   4.283   3.015  0.1364 -0.7051 -0.3807
  539THF     C211096   4.989   4.265   2.905  0.1016  0.7330 -0.0009
  539THF     C311097   5.188   4.201   3.004 -0.1443  0.4582  0.2440
  539THF     H411098   4.916   4.345   2.903 -0.7246 -0.0123 -1.1257
  539THF     H511099   4.930   4.175   2.923  1.5340 -0.1892  0.3332
  539THF     H611100   5.268   4.238   3.067 -1.8795 -1.6017  4.0305
  539THF     H711101   5.175   4.100   3.042  0.1929  0.0743 -0.6247
  539THF     C811102   5.224   4.214   2.856  0.1805  0.1123 -0.6160
  539THF     C911103   5.087   4.243   2.788  0.4287  0.4704 -0.5799
  539THF    H1011104   5.263   4.123   2.812 -1.7667 -1.0056 -0.1343
  539THF    H1111105   5.294   4.294   2.831  1.5792 -0.9207 -0.1394
  539THF    H1211106   5.100   4.338   2.735 -2.4982  1.6507  0.6355
  539THF    H1311107   5.053   4.165   2.720 -0.2304 -1.3987  1.7874
  540THF     O111108   4.974   3.013   0.664  0.2695  0.3193  0.1149
  540THF     C211109   5.063   2.917   0.612 -0.7210  0.7052  0.0011
  540THF     C311110   5.012   3.133   0.603 -0.3797 -0.3025 -0.1987
  540THF     H411111   5.044   2.887   0.510  0.2667  1.6638 -0.4867
  540THF     H511112   5.073   2.834   0.682 -0.4558  0.6476 -0.1023
  540THF     H611113   4.967   3.126   0.504 -2.6736  1.3446  0.6156
  540THF     H711114   4.965   3.216   0.656 -1.2441 -1.9883  1.8051
  540THF     C811115   5.160   3.134   0.591 -0.8742  0.1793  0.2287
  540THF     C911116   5.198   2.985   0.614 -0.0257  0.0545 -0.8079
  540THF    H1011117   5.198   3.187   0.678 -1.9557 -0.9334  1.4004
  540THF    H1111118   5.194   3.175   0.495  0.4943 -3.0240 -0.7851
  540THF    H1211119   5.259   2.962   0.527 -2.0124 -0.9657 -1.9977
  540THF    H1311120   5.258   2.967   0.703  0.0773 -0.5375 -0.9923
  541THF     O111121   5.320   5.307   4.781  0.2892 -0.6231  0.2593
  541THF     C211122   5.308   5.249   4.909 -0.7004  0.0410  0.0504
  541THF     C311123   5.286   5.446   4.789  0.0442 -0.1733  0.1546
  541THF     H411124   5.390   5.178   4.918 -0.1289  0.2493 -2.6710
  541THF     H511125   5.211   5.199   4.915  0.2643 -2.1771 -1.4350
  541THF     H611126   5.382   5.490   4.762  1.3235 -0.4882  3.5968
  541THF     H711127   5.201   5.478   4.729  2.3062  0.5940 -2.8876
  541THF     C811128   5.255   5.473   4.941  0.3860  0.0323 -0.1103
  541THF     C911129   5.322   5.361   5.014 -0.2059  0.3879 -0.4957
  541THF    H1011130   5.146   5.462   4.944  0.1535  0.8516 -2.7373
  541THF    H1111131   5.277   5.574   4.975 -1.3471  0.1303  0.8422
  541THF    H1211132   5.426   5.390   5.029  0.2632 -0.7282 -1.4706
  541THF    H1311133   5.276   5.339   5.110  0.6507 -0.4919 -0.2759
  542THF     O111134   0.529   1.185   5.241  0.8518  0.4030 -0.0884
  542THF     C211135   0.633   1.159   5.145  0.5693 -1.2971  0.4041
  542THF     C311136   0.580   1.256   5.345  0.2875 -0.2322 -0.5596
  542THF     H411137   0.601   1.135   5.043  1.0589 -0.6712  0.0930
  542THF     H511138   0.690   1.071   5.172  1.0463 -2.0197 -2.5536
  542THF     H611139   0.487   1.296   5.385  1.3287  1.3693  0.3363
  542THF     H711140   0.628   1.190   5.417 -1.1249 -1.6701 -0.8751
  542THF     C811141   0.677   1.352   5.273 -0.1875 -0.0551 -0.4707
  542THF     C911142   0.706   1.291   5.140  0.1414  0.5788 -0.3563
  542THF    H1011143   0.766   1.361   5.334 -0.5711 -2.2178  0.4854
  542THF    H1111144   0.637   1.454   5.273  3.7280  1.6463  0.5925
  542THF    H1211145   0.678   1.354   5.056 -1.8090  0.9335  0.4806
  542THF    H1311146   0.812   1.269   5.128  0.3498  2.4574 -2.5161
  543THF     O111147   3.150   4.704   0.696  0.1662  0.5081 -0.8043
  543THF     C211148   3.041   4.627   0.753 -0.4107  0.2444 -0.3641
  543THF     C311149   3.259   4.698   0.791  0.1811 -0.9085 -0.4008
  543THF     H411150   2.957   4.596   0.691  0.3812  1.3529 -2.0441
  543THF     H511151   2.993   4.671   0.841  0.7305  0.0068  0.4013
  543THF     H611152   3.351   4.735   0.746 -1.0470  2.0517 -0.6531
  543THF     H711153   3.249   4.769   0.873  1.0247  1.1516 -1.9934
  543THF     C811154   3.259   4.556   0.850 -0.7477  0.1033 -0.5484
  543THF     C911155   3.124   4.507   0.794  0.5765  0.2595  0.7818
  543THF    H1011156   3.270   4.556   0.959 -0.6030 -1.3535 -0.5462
  543THF    H1111157   3.337   4.500   0.800  0.0277  0.2499  0.4620
  543THF    H1211158   3.151   4.460   0.699 -1.3314  2.5450 -1.0197
  543THF    H1311159   3.062   4.433   0.845  0.0219  0.1596 -0.0306
  544THF     O111160   5.417   1.984   4.341 -0.0584 -1.0317 -0.4178
  544THF     C211161   5.538   2.015   4.417  1.1300 -0.4681 -0.1848
  544THF     C311162   5.299   2.023   4.418 -0.2481 -0.7785 -0.4951
  544THF     H411163   5.588   2.103   4.376  0.1694 -0.6411 -1.7854
  544THF     H511164   5.607   1.931   4.407  0.0123 -1.2629 -1.5257
  544THF     H611165   5.268   2.116   4.370  0.5663 -0.9284 -1.3525
  544THF     H711166   5.220   1.948   4.414  0.1814 -1.2995  0.4567
  544THF     C811167   5.348   2.044   4.562 -0.3759  0.3238 -0.7151
  544THF     C911168   5.506   2.034   4.563  0.8307 -0.3258  1.1332
  544THF    H1011169   5.284   1.982   4.626  0.9901 -2.1016 -1.5529
  544THF    H1111170   5.317   2.144   4.591  0.6088  0.4524 -0.0591
  544THF    H1211171   5.546   2.130   4.597 -1.6328  0.4478  2.0390
  544THF    H1311172   5.552   1.951   4.617  0.9918 -1.0774 -0.1299
  545THF     O111173   3.149   2.559   3.073 -0.4562 -0.6076  0.1807
  545THF     C211174   3.096   2.431   3.123 -0.5386  0.0194  0.5696
  545THF     C311175   3.243   2.523   2.972  0.0053 -0.1303  0.1565
  545THF     H411176   2.989   2.411   3.120 -0.1738 -2.2755  0.8260
  545THF     H511177   3.118   2.431   3.230  2.3568  0.5387  0.0472
  545THF     H611178   3.181   2.513   2.883  0.1437 -0.4936  0.1003
  545THF     H711179   3.310   2.609   2.964 -0.6624  0.9304  4.0041
  545THF     C811180   3.305   2.389   3.018 -0.6545  0.1645  0.0826
  545THF     C911181   3.177   2.316   3.054 -0.0682 -0.0472 -0.4812
  545THF    H1011182   3.357   2.400   3.113 -1.7223 -1.3643  0.8846
  545THF    H1111183   3.364   2.354   2.934 -0.4506 -1.9599  1.0410
  545THF    H1211184   3.111   2.288   2.972 -1.4194  1.9032 -0.1321
  545THF    H1311185   3.206   2.234   3.119  3.0564  0.5429 -0.9945
  546THF     O111186   2.305   2.465   0.997 -0.1448 -0.7900 -0.5357
  546THF     C211187   2.196   2.551   1.009  0.2359 -0.8169  0.2563
  546THF     C311188   2.418   2.529   1.076 -0.0692  1.1174 -0.1881
  546THF     H411189   2.154   2.525   1.106  0.4566  1.0965  0.9060
  546THF     H511190   2.134   2.526   0.924  2.1503  0.9405 -1.8128
  546THF     H611191   2.425   2.480   1.174  2.1392  1.1048 -0.2930
  546THF     H711192   2.520   2.527   1.037  0.7561  1.8136  1.7901
  546THF     C811193   2.374   2.676   1.094  0.0792  0.0589  0.5565
  546THF     C911194   2.252   2.697   1.017  0.0859  0.3217  0.5564
  546THF    H1011195   2.447   2.755   1.077 -0.1852  0.5389  1.5337
  546THF    H1111196   2.338   2.694   1.196 -0.9587  1.1951  0.0188
  546THF    H1211197   2.186   2.771   1.062  2.5372  2.2626  1.1608
  546THF    H1311198   2.282   2.718   0.914  3.4006 -3.2810  0.5443
  547THF     O111199   4.797   0.568   0.225  0.3646  0.2794 -0.1769
  547THF     C211200   4.772   0.568   0.367  0.6561  0.4818 -0.3056
  547THF     C311201   4.936   0.581   0.213  0.9294  0.4842  0.7561
  547THF     H411202   4.790   0.474   0.418 -2.2492 -0.1860 -0.3452
  547THF     H511203   4.669   0.593   0.391  0.2975 -1.6065  0.4880
  547THF     H611204   4.971   0.478   0.212  0.0900  0.1745 -1.2092
  547THF     H711205   4.960   0.631   0.119  1.9432  0.3004  0.9129
  547THF     C811206   4.987   0.651   0.334 -0.6847  0.3568 -0.3244
  547THF     C911207   4.873   0.672   0.422  0.2842  0.2070 -0.2907
  547THF    H1011208   5.030   0.746   0.302 -0.2841 -0.7331 -3.2783
  547THF    H1111209   5.063   0.591   0.384  0.2200  0.8763 -1.0416
  547THF    H1211210   4.906   0.645   0.522  2.2528  1.4846 -0.5489
  547THF    H1311211   4.825   0.769   0.431 -1.7541 -0.7979  0.4570
  548THF     O111212   0.548   1.848   3.036 -0.5670 -0.1751  0.1247
  548THF     C211213   0.625   1.896   3.147  0.1246 -0.3780  0.0750
  548THF     C311214   0.431   1.785   3.082 -0.4390  0.1796  0.0912
  548THF     H411215   0.669   1.995   3.140 -3.9496  1.9603  3.1554
  548THF     H511216   0.703   1.820   3.151 -2.0428 -2.7387  0.3989
  548THF     H611217   0.343   1.849   3.071 -0.8358 -0.2524  0.6873
  548THF     H711218   0.420   1.691   3.027  0.6726  0.4062 -0.5389
  548THF     C811219   0.455   1.755   3.228  0.6749  0.2479 -0.4251
  548THF     C911220   0.529   1.881   3.266  0.3843  0.0638 -0.0772
  548THF    H1011221   0.522   1.671   3.246  0.1201  0.0043  0.5762
  548THF    H1111222   0.361   1.744   3.280 -0.4664 -0.6830 -2.5543
  548THF    H1211223   0.459   1.965   3.269  0.7385  0.5648 -2.9723
  548THF    H1311224   0.579   1.885   3.362 -0.1645 -2.1807  0.3511
  549THF     O111225   3.378   1.673   1.588  0.1442 -0.0159 -0.2049
  549THF     C211226   3.347   1.599   1.477  0.0236 -0.5740 -0.0129
  549THF     C311227   3.497   1.742   1.554 -0.2813  0.3095 -0.2389
  549THF     H411228   3.241   1.572   1.473  0.2560 -1.3957 -1.5553
  549THF     H511229   3.405   1.507   1.472 -0.9752 -1.1377 -2.6500
  549THF     H611230   3.507   1.824   1.625  1.7527  1.4954 -1.7922
  549THF     H711231   3.590   1.685   1.563 -0.0913  0.6440 -0.0874
  549THF     C811232   3.481   1.793   1.409 -0.4217 -1.1687  0.3591
  549THF     C911233   3.376   1.692   1.356 -0.8114  0.1946  0.4658
  549THF    H1011234   3.575   1.802   1.354 -2.0929  0.0664 -2.4806
  549THF    H1111235   3.433   1.890   1.414  2.4700  0.4581 -0.9412
  549THF    H1211236   3.297   1.762   1.330 -0.5638  0.6879  1.0240
  549THF    H1311237   3.406   1.630   1.271 -1.8911 -0.2681  0.4068
  550THF     O111238   4.024   4.961   1.176  0.5077 -0.1889  0.8255
  550THF     C211239   3.984   5.057   1.075 -0.0206 -0.0437 -0.3415
  550THF     C311240   4.089   4.859   1.104  0.0560 -0.3378  0.1328
  550THF     H411241   3.966   5.156   1.116  1.3916 -0.9345  2.7198
  550THF     H511242   3.893   5.032   1.020 -1.0837  1.7556  0.4994
  550THF     H611243   4.148   4.801   1.176 -0.3677 -0.0716  0.6959
  550THF     H711244   4.016   4.795   1.054 -0.1693  0.7884 -1.0240
  550THF     C811245   4.166   4.924   0.991 -0.6893  0.0136  0.6036
  550THF     C911246   4.097   5.060   0.976 -0.1695  0.6663  0.6077
  550THF    H1011247   4.173   4.864   0.901  0.2475 -1.1654  1.4308
  550THF    H1111248   4.265   4.945   1.032 -0.8513 -0.7328  1.3935
  550THF    H1211249   4.171   5.133   1.009  2.2795 -0.1105 -2.5782
  550THF    H1311250   4.084   5.082   0.870  0.2868 -0.0719  0.3937
  551THF     O111251   3.543   1.529   1.134 -0.2240  0.3387  0.5219
  551THF     C211252   3.644   1.564   1.037  0.6307 -0.2751  0.2211
  551THF     C311253   3.604   1.443   1.227 -0.2502 -0.9609  0.2404
  551THF     H411254   3.648   1.671   1.021  1.2644 -0.0476  1.7456
  551THF     H511255   3.627   1.503   0.948  0.2386  0.5047 -0.2480
  551THF     H611256   3.622   1.500   1.318 -0.7817  0.4678 -0.5158
  551THF     H711257   3.529   1.368   1.251 -1.1059 -0.1699  0.0917
  551THF     C811258   3.734   1.387   1.171 -0.2352 -0.0089 -0.8920
  551THF     C911259   3.778   1.510   1.091 -0.1087  0.5760 -0.0550
  551THF    H1011260   3.716   1.292   1.122  2.1152 -1.7268  1.3538
  551THF    H1111261   3.793   1.348   1.254 -2.4966 -1.0681  0.3148
  551THF    H1211262   3.827   1.590   1.147 -1.4818  1.3286  0.1076
  551THF    H1311263   3.840   1.488   1.004  1.6394  0.8263  1.0787
  552THF     O111264   4.814   0.810   0.746  0.3277  0.1491 -0.1198
  552THF     C211265   4.672   0.805   0.722 -0.1666  0.3813  0.8516
  552THF     C311266   4.853   0.947   0.755  0.7759  0.5681 -1.2030
  552THF     H411267   4.628   0.705   0.720  0.2080  0.2263 -0.0920
  552THF     H511268   4.640   0.839   0.623  1.7741 -2.2947 -0.8339
  552THF     H611269   4.936   0.968   0.821 -0.0020  0.9991 -0.3469
  552THF     H711270   4.888   0.988   0.660  2.2926  0.6474 -0.6353
  552THF     C811271   4.729   1.016   0.813 -0.2347 -0.6108 -0.2978
  552THF     C911272   4.630   0.899   0.840 -0.8742  0.5168  0.0772
  552THF    H1011273   4.703   1.098   0.746  0.3837 -0.4773 -0.3870
  552THF    H1111274   4.753   1.074   0.903  1.8104 -1.0497 -0.5107
  552THF    H1211275   4.658   0.843   0.930 -0.8430 -2.1355 -1.4748
  552THF    H1311276   4.526   0.926   0.855 -0.9686  0.3633 -0.2932
  553THF     O111277   3.432   4.114   2.743 -0.6915  0.0238 -0.4120
  553THF     C211278   3.309   4.050   2.715 -0.1622  0.2952 -0.9438
  553THF     C311279   3.510   4.138   2.626 -0.5939  0.5655  0.3418
  553THF     H411280   3.225   4.115   2.740  0.9445  1.4873 -0.1667
  553THF     H511281   3.298   3.956   2.769 -0.5482  0.9810  0.2231
  553THF     H611282   3.475   4.236   2.594 -2.2250  0.8501  2.7578
  553THF     H711283   3.614   4.143   2.660 -0.2866 -1.6273 -0.1181
  553THF     C811284   3.474   4.015   2.539  0.3045  0.0480  0.5505
  553THF     C911285   3.330   4.004   2.570 -0.2289  0.4957  0.7963
  553THF    H1011286   3.516   3.926   2.587 -0.0897 -0.8267 -0.6822
  553THF    H1111287   3.499   4.011   2.433  1.1918  1.3554  0.6876
  553THF    H1211288   3.264   4.057   2.500 -2.1181 -2.6967 -0.0621
  553THF    H1311289   3.302   3.900   2.552 -0.1068  0.3324  1.5224
  554THF     O111290   5.178   1.054   2.079 -0.3161  0.7575  0.3680
  554THF     C211291   5.217   1.179   2.031  0.2917 -0.7891 -0.0480
  554THF     C311292   5.225   0.965   1.978 -0.6044 -0.1749  0.0174
  554THF     H411293   5.315   1.187   2.080  0.0098  1.1762  0.2619
  554THF     H511294   5.160   1.263   2.070  0.6841 -0.2537 -0.6215
  554THF     H611295   5.327   0.942   2.008 -1.3682 -0.0590  2.9732
  554THF     H711296   5.168   0.872   1.987 -0.2591 -0.2585  1.6611
  554THF     C811297   5.215   1.029   1.844 -0.0551  0.3511  0.6645
  554THF     C911298   5.213   1.173   1.880 -1.4434 -0.2994 -0.3662
  554THF    H1011299   5.122   1.001   1.794  0.6062 -0.3150 -0.2086
  554THF    H1111300   5.300   0.994   1.786 -0.9835  1.3925 -1.4322
  554THF    H1211301   5.287   1.241   1.839 -0.3489 -1.2573 -0.0169
  554THF    H1311302   5.118   1.217   1.849 -0.8206  2.7144  1.6529
  555THF     O111303   1.186   1.876   1.133 -0.2193  0.4850 -0.0087
  555THF     C211304   1.195   1.744   1.194 -0.2726 -0.2130  0.3142
  555THF     C311305   1.236   1.971   1.228  0.1425  0.3775 -0.8040
  555THF     H411306   1.192   1.657   1.130 -0.4783  1.9712 -2.8875
  555THF     H511307   1.102   1.738   1.251 -1.2141  0.2120 -1.1353
  555THF     H611308   1.297   2.058   1.204  0.2456  0.8146  0.9513
  555THF     H711309   1.160   2.010   1.296  3.7520  1.5860  2.9808
  555THF     C811310   1.334   1.897   1.322  0.7684 -0.2871 -0.1586
  555THF     C911311   1.317   1.756   1.282  0.9191 -0.3912  0.2335
  555THF    H1011312   1.305   1.901   1.427 -0.4497  0.7790 -0.5188
  555THF    H1111313   1.436   1.936   1.323  0.4508  0.5922 -0.6881
  555THF    H1211314   1.404   1.729   1.221  0.9734 -0.4732  0.3479
  555THF    H1311315   1.322   1.692   1.370  2.0572  1.0273  1.2510
  556THF     O111316   3.644   5.018   5.472 -0.0143  0.3427 -0.3903
  556THF     C211317   3.632   5.034   5.331  0.4553  0.3281 -0.1058
  556THF     C311318   3.534   4.943   5.526 -0.1709 -0.0601  0.8078
  556THF     H411319   3.701   4.972   5.273  1.8822  0.9811  0.8478
  556THF     H511320   3.644   5.141   5.318 -1.9870  0.5815 -0.7317
  556THF     H611321   3.582   4.871   5.592  2.6947 -0.1408 -1.1519
  556THF     H711322   3.470   5.015   5.578  2.0607  0.8139  2.5373
  556THF     C811323   3.475   4.879   5.402 -0.4485 -0.6247  0.3486
  556THF     C911324   3.494   4.985   5.295 -0.8192  0.0359 -0.2164
  556THF    H1011325   3.369   4.858   5.419 -0.6328  0.9123  1.2674
  556THF    H1111326   3.512   4.781   5.372 -1.4109 -0.5524 -1.1926
  556THF    H1211327   3.482   4.933   5.200 -0.5461  1.7109 -1.2174
  556THF    H1311328   3.430   5.073   5.295  0.3064  0.8867  0.3154
  557THF     O111329   3.426   2.407   5.246 -0.0996 -0.7355  0.2278
  557THF     C211330   3.533   2.381   5.325 -0.4642  0.2618 -0.1014
  557THF     C311331   3.311   2.363   5.310 -0.0130  0.8276  0.5748
  557THF     H411332   3.619   2.447   5.316 -1.3112  1.4856  0.4467
  557THF     H511333   3.566   2.278   5.309 -0.0622  0.0683  1.7659
  557THF     H611334   3.216   2.401   5.275  0.5276  1.5628 -0.1327
  557THF     H711335   3.299   2.255   5.300 -3.7581  1.2504 -1.0868
  557THF     C811336   3.329   2.401   5.457  0.0189  0.4142 -0.1385
  557THF     C911337   3.478   2.398   5.464 -0.2484  0.2369 -0.0768
  557THF    H1011338   3.293   2.319   5.520  0.7726  0.0814 -0.1313
  557THF    H1111339   3.297   2.503   5.479 -2.2100 -0.2014 -0.3124
  557THF    H1211340   3.515   2.477   5.531  1.6446 -0.9067  0.3126
  557THF    H1311341   3.502   2.306   5.517 -1.5790 -0.3541 -0.4636
  558THF     O111342   2.590   3.984   3.434 -0.4572 -0.2856  0.3989
  558THF     C211343   2.554   4.024   3.563  0.2376  0.0102  0.5740
  558THF     C311344   2.637   3.849   3.444  0.0258 -0.3644  0.0865
  558THF     H411345   2.458   3.976   3.584  0.6848 -1.7771 -1.1683
  558THF     H511346   2.532   4.131   3.570  1.4337  0.1628  2.9907
  558THF     H611347   2.559   3.781   3.412 -1.3446  1.6078 -1.0052
  558THF     H711348   2.722   3.851   3.377 -0.3298 -0.1845 -0.3638
  558THF     C811349   2.687   3.832   3.584  0.9177  0.0497 -0.2674
  558THF     C911350   2.659   3.964   3.656 -0.3988  0.0715 -0.0437
  558THF    H1011351   2.795   3.819   3.575  0.9223  0.3616 -0.6882
  558THF    H1111352   2.643   3.738   3.618  2.0504 -0.0738  0.9416
  558THF    H1211353   2.630   3.959   3.761  1.7283 -0.5978  0.5622
  558THF    H1311354   2.744   4.032   3.651 -0.2134 -0.2652 -1.7099
  559THF     O111355   2.631   3.254   4.406 -0.0858  0.3813 -0.9179
  559THF     C211356   2.523   3.199   4.484 -0.2127 -0.1019  0.4597
  559THF     C311357   2.611   3.386   4.400 -0.2299  0.0307  0.2047
  559THF     H411358   2.551   3.195   4.590 -2.3582 -1.3877  1.0360
  559THF     H511359   2.489   3.105   4.442 -1.0000  0.9382 -1.3342
  559THF     H611360   2.655   3.429   4.490 -1.1108  1.1332  0.1257
  559THF     H711361   2.660   3.425   4.311 -1.2165  0.9142  0.0317
  559THF     C811362   2.463   3.408   4.393 -0.3505  0.0858  0.1680
  559THF     C911363   2.404   3.296   4.473 -0.4519 -0.2660 -0.6268
  559THF    H1011364   2.433   3.392   4.289 -1.0025 -0.6411  0.4647
  559THF    H1111365   2.430   3.507   4.426  0.7940  0.7305 -0.5424
  559THF    H1211366   2.363   3.312   4.573  0.1697 -1.8633 -0.0666
  559THF    H1311367   2.316   3.254   4.425 -0.2625  1.1426 -2.3234
  560THF     O111368   5.115   1.119   3.277 -0.1953  0.0160 -0.0601
  560THF     C211369   5.068   1.032   3.380  0.1870  0.7433 -0.3431
  560THF     C311370   5.247   1.082   3.263  0.1224  0.0375 -0.0784
  560THF     H411371   5.054   0.933   3.338 -1.1796  0.2872  1.0511
  560THF     H511372   4.965   1.055   3.410 -0.2851 -2.5324  0.9377
  560THF     H611373   5.259   1.002   3.191  0.7023  0.3328 -0.3182
  560THF     H711374   5.309   1.165   3.228  1.5380 -1.2691 -0.7667
  560THF     C811375   5.302   1.035   3.401  0.0304 -0.4309  0.2713
  560THF     C911376   5.174   1.043   3.484  0.0150  0.0667  0.7619
  560THF    H1011377   5.379   1.103   3.438 -0.9964  1.6681 -1.2196
  560THF    H1111378   5.341   0.934   3.401 -2.4913 -1.4965 -1.6822
  560THF    H1211379   5.172   0.961   3.555 -0.4236 -1.8287 -1.3083
  560THF    H1311380   5.164   1.138   3.537 -0.6276  0.8846 -0.7459
  561THF     O111381   1.019   1.651   0.243  0.5105  0.2915 -0.2349
  561THF     C211382   1.003   1.749   0.147 -1.0416 -0.1673  0.0923
  561THF     C311383   1.085   1.690   0.359  0.0446 -0.7154 -0.0927
  561THF     H411384   0.904   1.742   0.101 -1.4749  3.2749  0.2601
  561THF     H511385   1.084   1.738   0.075 -1.9542 -1.3494 -0.7966
  561THF     H611386   1.019   1.659   0.439  0.6448  1.3760  1.2876
  561THF     H711387   1.184   1.651   0.383  0.9478  2.4244  1.9237
  561THF     C811388   1.086   1.844   0.344 -0.1418 -0.5802  0.2968
  561THF     C911389   1.005   1.881   0.218 -0.2546  0.2476  0.0749
  561THF    H1011390   1.191   1.869   0.326 -0.2429 -0.0664  0.4097
  561THF    H1111391   1.045   1.905   0.424  0.9746  2.3794 -1.2387
  561THF    H1211392   0.902   1.906   0.243 -0.8259 -2.5822  0.8970
  561THF    H1311393   1.052   1.962   0.163  0.1357  0.0574  0.1185
  562THF     O111394   5.455   0.516   4.890  0.3056  0.2658 -0.1852
  562THF     C211395   5.462   0.503   4.750  0.5884  0.4459  0.3273
  562THF     C311396   5.357   0.616   4.917  0.0291  0.8188 -1.0302
  562THF     H411397   5.370   0.460   4.710  1.8118 -0.8971 -1.2029
  562THF     H511398   5.548   0.446   4.716  0.1809 -0.7356  1.2434
  562THF     H611399   5.259   0.568   4.910 -1.1321  2.5064  1.5319
  562THF     H711400   5.369   0.652   5.020  0.5063 -1.3911 -0.2470
  562THF     C811401   5.405   0.720   4.811 -0.0974 -0.3571 -0.5289
  562THF     C911402   5.470   0.644   4.702 -0.0298 -0.3172  0.2733
  562THF    H1011403   5.478   0.791   4.850 -0.9865 -0.7778  2.1167
  562THF    H1111404   5.326   0.784   4.771  0.3980 -0.1958 -1.2586
  562THF    H1211405   5.415   0.657   4.608 -0.5949 -0.0107  0.6398
  562THF    H1311406   5.570   0.686   4.692 -0.1381  0.4814  2.1445
  563THF     O111407   4.418   2.001   2.835 -0.1348 -0.0041 -0.1223
  563THF     C211408   4.360   2.030   2.963 -0.7485  0.1240 -0.5344
  563THF     C311409   4.426   1.863   2.826  0.0084 -0.3462 -0.1177
  563THF     H411410   4.310   2.126   2.973 -2.5961 -0.6163 -2.0655
  563THF     H511411   4.442   2.036   3.036 -1.0992 -0.3879 -0.0884
  563THF     H611412   4.444   1.834   2.723  0.7941  0.3912 -0.2038
  563THF     H711413   4.522   1.839   2.873 -0.5633 -0.8773  0.8065
  563THF     C811414   4.295   1.812   2.892 -1.1338 -0.4169  0.4205
  563THF     C911415   4.285   1.904   3.005 -0.0178  0.1352 -0.6529
  563THF    H1011416   4.303   1.704   2.905 -1.6726 -0.7605 -1.6129
  563THF    H1111417   4.212   1.836   2.825 -0.7591  2.0174  0.7332
  563THF    H1211418   4.179   1.908   3.028  0.1191  0.7826 -0.0739
  563THF    H1311419   4.348   1.864   3.084 -1.2900  1.3874  1.0620
  564THF     O111420   0.640   3.606   5.267  0.3641  0.5452 -0.2576
  564THF     C211421   0.705   3.607   5.398  0.4362  0.3361  0.1711
  564THF     C311422   0.503   3.586   5.295  0.6037 -0.0175 -0.2260
  564THF     H411423   0.676   3.704   5.439  1.7734  1.5440 -1.6038
  564THF     H511424   0.813   3.600   5.386  0.3764 -1.8177  0.5927
  564THF     H611425   0.445   3.679   5.297  1.6358  0.6471 -0.2560
  564THF     H711426   0.468   3.547   5.200  1.2320  1.9070 -1.3186
  564THF     C811427   0.492   3.501   5.422 -0.0814 -0.0231  0.2353
  564THF     C911428   0.631   3.492   5.474 -0.1775  0.1935 -0.2428
  564THF    H1011429   0.443   3.407   5.395 -2.4599  0.8985  1.0612
  564THF    H1111430   0.422   3.547   5.491  0.2975  1.5451 -0.3909
  564THF    H1211431   0.648   3.500   5.581  2.8062 -2.6857 -0.3705
  564THF    H1311432   0.693   3.407   5.445 -1.0791 -0.5797  0.0376
  565THF     O111433   3.224   2.684   4.502  0.2302 -0.0001  0.2503
  565THF     C211434   3.249   2.693   4.363 -0.2537 -0.3726 -0.1724
  565THF     C311435   3.251   2.812   4.558 -0.0464  0.1014 -0.0681
  565THF     H411436   3.183   2.639   4.296  0.3170 -0.9486 -0.2764
  565THF     H511437   3.348   2.648   4.352  0.3066  1.1557 -1.9333
  565THF     H611438   3.214   2.821   4.660  0.8676  1.0994  0.2001
  565THF     H711439   3.360   2.809   4.567  0.2018 -1.0773 -2.6690
  565THF     C811440   3.206   2.906   4.451  0.4031  1.4034 -0.2358
  565THF     C911441   3.247   2.839   4.321  0.3427 -0.7238 -0.0632
  565THF    H1011442   3.243   3.007   4.466  3.1236  0.3426  1.0892
  565THF    H1111443   3.101   2.929   4.433 -0.0517  0.0202  0.4618
  565THF    H1211444   3.170   2.851   4.245 -2.0369 -0.2312  2.2726
  565THF    H1311445   3.333   2.879   4.267 -1.2296 -0.7183 -2.7422
  566THF     O111446   0.873   4.666   2.136  0.5069 -0.1853  0.1188
  566THF     C211447   0.744   4.715   2.191 -0.5609 -0.4113  0.7175
  566THF     C311448   0.954   4.784   2.115  0.7818  0.1650 -0.1755
  566THF     H411449   0.692   4.630   2.236 -2.7665 -0.0392 -0.9327
  566THF     H511450   0.671   4.741   2.115  0.2564 -0.4111 -0.0791
  566THF     H611451   1.061   4.772   2.096  0.5066  2.6293 -4.3650
  566THF     H711452   0.923   4.818   2.017  0.3978  1.0433  0.2468
  566THF     C811453   0.910   4.889   2.220 -0.7193  0.5544 -0.5282
  566THF     C911454   0.781   4.834   2.282 -0.5716 -0.2336 -0.7479
  566THF    H1011455   0.909   4.988   2.175  1.4569  0.3970 -1.0581
  566THF    H1111456   0.986   4.899   2.297 -1.4978 -1.6549  0.6265
  566THF    H1211457   0.798   4.818   2.389 -2.6412 -0.5658 -0.4289
  566THF    H1311458   0.698   4.903   2.295 -1.1533 -1.1568  0.7864
  567THF     O111459   0.520   4.985   4.544 -0.8102  0.0992  0.2889
  567THF     C211460   0.608   5.070   4.620  0.2213  0.4422 -0.2356
  567THF     C311461   0.439   4.914   4.632  0.1397 -0.5077 -0.4507
  567THF     H411462   0.572   5.172   4.630  0.2446  0.5918 -1.5789
  567THF     H511463   0.707   5.068   4.575  0.8077  2.9259  0.7740
  567THF     H611464   0.359   4.976   4.672  0.2881 -1.3302  1.2081
  567THF     H711465   0.391   4.831   4.579 -0.3837 -0.4256 -0.1146
  567THF     C811466   0.539   4.872   4.743  0.5430  0.1221 -0.0366
  567THF     C911467   0.619   4.998   4.757 -0.3492  0.4659  0.2554
  567THF    H1011468   0.611   4.791   4.729  2.7806  1.7013  1.6975
  567THF    H1111469   0.495   4.865   4.842  0.8504  2.8558  0.3504
  567THF    H1211470   0.593   5.066   4.837 -0.9053  0.7627 -0.1701
  567THF    H1311471   0.723   4.964   4.767  0.4742  2.4523 -0.8354
  568THF     O111472   4.058   2.926   5.098 -0.4361  0.7154 -1.0649
  568THF     C211473   4.092   2.840   5.212  0.2338  0.3267 -0.2232
  568THF     C311474   4.179   2.993   5.059  0.2493 -0.5378 -0.1581
  568THF     H411475   4.148   2.753   5.181 -1.2009 -0.1487 -1.5892
  568THF     H511476   4.010   2.828   5.283  2.3044  2.5801  2.8292
  568THF     H611477   4.248   2.923   5.011 -0.2789 -2.3291  1.5789
  568THF     H711478   4.149   3.067   4.985 -1.9203 -1.4256 -0.2534
  568THF     C811479   4.226   3.047   5.189  0.7246  0.7209 -0.7019
  568THF     C911480   4.201   2.930   5.285 -0.4106 -0.3719  0.4312
  568THF    H1011481   4.174   3.141   5.206  0.2222  0.9823 -3.2698
  568THF    H1111482   4.330   3.073   5.172  1.3354 -1.4035 -0.5390
  568THF    H1211483   4.292   2.872   5.297  0.7188  1.4316  1.1792
  568THF    H1311484   4.167   2.963   5.383 -2.8776 -2.3102  0.3098
  569THF     O111485   5.141   1.367   1.238 -0.1134  0.3034 -0.0609
  569THF     C211486   5.144   1.511   1.238  0.2319 -0.1030 -0.3258
  569THF     C311487   5.272   1.325   1.261  0.1329  0.1959 -0.4562
  569THF     H411488   5.120   1.564   1.331  4.0697  0.9918  0.2333
  569THF     H511489   5.056   1.529   1.176 -0.8656  0.5865  1.3568
  569THF     H611490   5.291   1.340   1.368  1.1948 -1.9154 -0.3085
  569THF     H711491   5.288   1.221   1.233  2.2794  0.2947  0.2151
  569THF     C811492   5.347   1.416   1.173 -0.2743  0.2937  0.1260
  569THF     C911493   5.281   1.549   1.181  0.0903  0.2270  0.0761
  569THF    H1011494   5.343   1.381   1.069 -2.9317 -0.5684  0.4378
  569THF    H1111495   5.455   1.410   1.188 -0.0130  1.8217 -0.9029
  569THF    H1211496   5.343   1.612   1.245  1.1209 -0.5150 -0.1803
  569THF    H1311497   5.283   1.597   1.083 -2.3846  1.1499  0.3920
  570THF     O111498   4.976   1.121   3.728 -0.0628  0.1763  0.2073
  570THF     C211499   5.006   1.255   3.762 -0.9125 -0.3692 -0.5288
  570THF     C311500   5.000   1.044   3.854 -0.6137 -0.3084  0.2011
  570THF     H411501   4.965   1.329   3.692  0.9621 -0.7964 -2.1530
  570THF     H511502   5.113   1.267   3.750 -1.2256  1.3256 -2.3311
  570THF     H611503   4.931   0.961   3.871  0.2341 -1.0077  0.2754
  570THF     H711504   5.103   1.009   3.859 -0.1305  1.1064  0.5753
  570THF     C811505   4.985   1.134   3.972  0.4079 -0.2258 -0.8431
  570THF     C911506   4.943   1.265   3.903  0.4589  0.0398  1.3628
  570THF    H1011507   5.076   1.133   4.032 -1.1928 -0.2372  1.7381
  570THF    H1111508   4.900   1.101   4.033  0.8075 -1.7981 -1.0897
  570THF    H1211509   4.835   1.268   3.888  0.8291  1.8185 -1.4844
  570THF    H1311510   4.970   1.348   3.968 -0.1595 -0.0541  1.7594
  571THF     O111511   2.063   3.591   4.310 -0.5979  0.2409 -0.0646
  571THF     C211512   2.077   3.623   4.447  0.0147 -0.5455  0.3187
  571THF     C311513   2.178   3.639   4.233  0.3191  0.0420 -0.8243
  571THF     H411514   2.115   3.553   4.522 -0.5454 -1.0673  0.1213
  571THF     H511515   1.978   3.633   4.491  0.2955 -4.3276  2.2487
  571THF     H611516   2.264   3.574   4.249  1.1629  0.7745 -2.2483
  571THF     H711517   2.146   3.639   4.129 -0.5845 -3.7689 -0.7069
  571THF     C811518   2.198   3.775   4.301  0.3385  0.6381  0.0493
  571THF     C911519   2.157   3.753   4.442  0.1958 -0.1073 -0.6380
  571THF    H1011520   2.140   3.857   4.259 -1.5489  0.7665  2.6476
  571THF    H1111521   2.300   3.809   4.285  0.1883  0.3998 -1.5173
  571THF    H1211522   2.231   3.759   4.522  1.3318  0.0858 -1.6782
  571THF    H1311523   2.102   3.843   4.470  0.5024  0.7271 -2.5350
  572THF     O111524   4.560   0.464   5.393  0.0095  0.0271  0.1621
  572THF     C211525   4.499   0.523   5.275 -0.2888  0.3135 -0.3646
  572THF     C311526   4.662   0.546   5.447  0.8121 -0.0056 -0.0984
  572THF     H411527   4.409   0.582   5.292 -1.4114 -1.2187 -0.7230
  572THF     H511528   4.464   0.448   5.204  0.8301 -0.7728  0.1929
  572THF     H611529   4.604   0.615   5.508 -1.2875 -1.2561 -0.6087
  572THF     H711530   4.722   0.484   5.514  1.0467  0.6082  0.2654
  572THF     C811531   4.726   0.602   5.321 -0.7450 -0.5515 -0.1456
  572THF     C911532   4.611   0.619   5.227 -0.1075 -0.0368  0.3365
  572THF    H1011533   4.800   0.532   5.280 -0.3814 -0.3457  0.1528
  572THF    H1111534   4.779   0.690   5.357 -4.4158  1.1290  1.5521
  572THF    H1211535   4.576   0.721   5.243  1.8080  0.6960  0.1401
  572THF    H1311536   4.640   0.609   5.122 -1.2730 -2.6283  0.1783
  573THF     O111537   3.944   4.867   3.679 -0.6154 -0.4658 -0.4547
  573THF     C211538   3.839   4.768   3.667 -0.6039  0.4277  0.1859
  573THF     C311539   4.063   4.807   3.622 -0.9570  0.6900 -0.4992
  573THF     H411540   3.764   4.793   3.592  0.7262  1.7757 -0.7494
  573THF     H511541   3.770   4.759   3.751 -2.3542 -0.7570 -1.3003
  573THF     H611542   4.046   4.808   3.515 -1.3131  1.0932 -0.4419
  573THF     H711543   4.158   4.852   3.652 -0.6349  0.4251 -1.1207
  573THF     C811544   4.060   4.656   3.661 -0.3987 -0.3550 -0.0973
  573THF     C911545   3.913   4.632   3.641  0.1037 -0.2216  0.1351
  573THF    H1011546   4.094   4.642   3.763 -3.2006  1.2640  1.2028
  573THF    H1111547   4.120   4.607   3.585 -0.8968  2.2732 -2.3250
  573THF    H1211548   3.897   4.592   3.541  0.9343 -1.6964  0.5513
  573THF    H1311549   3.884   4.554   3.711 -0.2206 -1.6946 -1.5736
  574THF     O111550   5.340   4.966   5.385 -0.6354  0.1802  0.0674
  574THF     C211551   5.430   5.010   5.484 -0.6138  0.5460  0.3866
  574THF     C311552   5.396   4.996   5.254 -0.1340  0.0373 -0.0626
  574THF     H411553   5.482   4.934   5.541  0.1767  2.1334  1.8559
  574THF     H511554   5.366   5.035   5.569 -0.7415 -1.3217  0.8989
  574THF     H611555   5.453   4.917   5.206 -0.0508  0.7974 -1.2700
  574THF     H711556   5.319   5.038   5.190  0.6727  1.8551  0.0726
  574THF     C811557   5.475   5.124   5.277 -0.7306  0.0130 -0.1503
  574THF     C911558   5.523   5.110   5.419  0.1353  0.3948  0.0995
  574THF    H1011559   5.409   5.210   5.273 -0.1255  0.5667  1.0987
  574THF    H1111560   5.541   5.152   5.196  2.2745 -1.2692  1.6855
  574THF    H1211561   5.623   5.073   5.441  0.0177  0.5476  0.9491
  574THF    H1311562   5.518   5.208   5.467  0.7476  0.0407  0.9225
  575THF     O111563   3.157   5.111   3.273 -0.0005  0.7767 -0.3707
  575THF     C211564   3.072   5.002   3.227  0.3752 -0.7596 -0.0713
  575THF     C311565   3.122   5.238   3.217 -0.7558  0.0674 -0.8339
  575THF     H411566   2.989   4.976   3.293  0.9094  0.3671  1.0952
  575THF     H511567   3.131   4.915   3.197 -1.0223 -2.2070  1.1897
  575THF     H611568   3.038   5.280   3.271 -1.1095  2.7002 -3.2430
  575THF     H711569   3.200   5.313   3.225 -1.1508  0.2804  2.2267
  575THF     C811570   3.084   5.192   3.077 -0.2952  0.2801  0.3594
  575THF     C911571   3.013   5.062   3.103 -0.0698 -0.2632 -0.2655
  575THF    H1011572   3.166   5.186   3.005  0.8648  1.0838  1.5612
  575THF    H1111573   3.012   5.261   3.032  1.4710  1.7268 -0.3705
  575THF    H1211574   2.906   5.075   3.118  0.2323  2.6553  0.0111
  575THF    H1311575   3.037   4.989   3.026  1.5433 -0.0386 -0.0166
  576THF     O111576   4.943   0.168   3.278 -0.5097  0.2908  0.2640
  576THF     C211577   4.977   0.097   3.388 -0.4126 -0.3833  0.4847
  576THF     C311578   4.865   0.280   3.324  0.4895 -0.4480 -0.5378
  576THF     H411579   5.070   0.134   3.431  0.3203 -0.9721 -0.5366
  576THF     H511580   4.995  -0.002   3.345  1.7582  1.3875 -3.1103
  576THF     H611581   4.922   0.368   3.354 -0.6466  0.6229 -1.4171
  576THF     H711582   4.800   0.309   3.241  1.7094  1.5951 -0.8375
  576THF     C811583   4.772   0.217   3.432  0.2842 -0.5532  0.3667
  576THF     C911584   4.861   0.113   3.489 -0.0787 -0.0957  0.2258
  576THF    H1011585   4.673   0.190   3.395 -0.7760 -1.1030  3.3526
  576THF    H1111586   4.755   0.292   3.510 -1.8105  1.0753 -1.5006
  576THF    H1211587   4.919   0.135   3.579 -1.8894  1.0816  1.1474
  576THF    H1311588   4.804   0.022   3.510  2.0460 -1.0746  2.1665
  577THF     O111589   4.467   3.605   0.434 -0.3180 -0.0205  0.6700
  577THF     C211590   4.471   3.726   0.509 -0.3523 -0.8367 -0.3981
  577THF     C311591   4.553   3.627   0.328 -0.2476  0.2774 -0.0067
  577THF     H411592   4.558   3.729   0.574 -0.5595 -1.6074 -0.0757
  577THF     H511593   4.391   3.745   0.581  0.5648  0.6230  0.2833
  577THF     H611594   4.656   3.613   0.361 -0.1761  1.7583  0.4871
  577THF     H711595   4.543   3.558   0.244 -0.5138 -1.6241  1.5162
  577THF     C811596   4.534   3.774   0.290  0.3148  0.1632 -0.7285
  577THF     C911597   4.466   3.840   0.411  0.6355 -0.2222  0.0735
  577THF    H1011598   4.468   3.780   0.203  0.1016 -3.3476 -0.9723
  577THF    H1111599   4.626   3.823   0.257 -1.3172  1.1887 -4.2509
  577THF    H1211600   4.516   3.933   0.437 -0.9580  0.7369 -0.1434
  577THF    H1311601   4.360   3.852   0.390  0.4310 -2.7225 -0.6463
  578THF     O111602   1.775   2.867   2.759  0.0072  0.8326 -0.1722
  578THF     C211603   1.653   2.803   2.790 -1.1510  0.0669 -0.1062
  578THF     C311604   1.881   2.812   2.824 -0.2143  0.2626  0.1467
  578THF     H411605   1.651   2.701   2.752 -0.8638 -0.3485  0.9637
  578THF     H511606   1.573   2.869   2.756 -1.0015  0.2351 -0.1353
  578THF     H611607   1.930   2.729   2.773 -0.2695  0.8361 -0.8536
  578THF     H711608   1.961   2.883   2.843 -0.0097  0.2788 -0.7469
  578THF     C811609   1.819   2.762   2.953  0.1789 -0.1712  0.6399
  578THF     C911610   1.665   2.770   2.940  0.3084 -0.1627  1.0487
  578THF    H1011611   1.865   2.819   3.034 -1.2344  1.4387  0.3630
  578THF    H1111612   1.861   2.666   2.983  2.3252  0.1768 -0.9902
  578THF    H1211613   1.618   2.679   2.976  0.0351 -0.1085  0.8321
  578THF    H1311614   1.621   2.845   3.006  0.7399 -1.0011  2.3287
  579THF     O111615   5.017   0.214   4.369 -0.1638  0.0397  0.6347
  579THF     C211616   4.909   0.307   4.393 -0.2630  0.3191  0.0389
  579THF     C311617   5.104   0.272   4.260 -0.1470  0.1283 -0.7089
  579THF     H411618   4.938   0.389   4.460 -0.8255  1.1938 -0.7529
  579THF     H511619   4.821   0.255   4.430  0.2874  0.2923  1.3711
  579THF     H611620   5.196   0.320   4.291 -0.5763  0.6515 -0.2183
  579THF     H711621   5.118   0.197   4.182 -0.2529 -1.4651  0.7329
  579THF     C811622   5.022   0.382   4.193 -0.0340  0.6730  0.6035
  579THF     C911623   4.880   0.362   4.244 -0.7677  0.3545  0.2279
  579THF    H1011624   5.020   0.379   4.084 -0.9743  0.1187  0.6318
  579THF    H1111625   5.069   0.476   4.222 -0.9787  1.2354  0.3444
  579THF    H1211626   4.821   0.454   4.246 -1.4753 -0.0829 -0.2485
  579THF    H1311627   4.832   0.287   4.182  0.7890 -0.0473 -0.5130
  580THF     O111628   1.657   4.171   3.219  0.0072  0.3469  0.4557
  580THF     C211629   1.718   4.271   3.300  0.6212  0.2506  0.0371
  580THF     C311630   1.534   4.212   3.166 -0.8045  0.0529 -0.8040
  580THF     H411631   1.781   4.332   3.235  1.3997 -1.2092 -0.6232
  580THF     H511632   1.776   4.236   3.385  0.1406  1.7118  1.0127
  580THF     H611633   1.556   4.281   3.085 -2.9022  1.7667 -0.0164
  580THF     H711634   1.474   4.124   3.141 -1.7935 -0.7849  3.6628
  580THF     C811635   1.474   4.288   3.289  0.3002 -0.4034 -0.7496
  580THF     C911636   1.595   4.359   3.346 -0.1914 -0.1078  0.6120
  580THF    H1011637   1.438   4.221   3.367 -0.5789  0.4861 -0.3758
  580THF    H1111638   1.403   4.364   3.256  1.1744  1.2854  1.0007
  580THF    H1211639   1.596   4.462   3.311  0.6441 -0.1452  0.5102
  580THF    H1311640   1.599   4.373   3.454  4.1056 -2.3376  0.9635
  581THF     O111641   1.543   5.065   0.457 -0.1551 -0.2835  0.4395
  581THF     C211642   1.639   5.037   0.358  0.0105 -0.5376 -0.4691
  581THF     C311643   1.525   4.943   0.523 -0.2477 -0.5024 -0.3825
  581THF     H411644   1.727   5.086   0.400  0.2460  2.7207 -4.1484
  581THF     H511645   1.624   5.088   0.262  1.4005 -0.8465 -0.8667
  581THF     H611646   1.510   4.968   0.628  0.6071  0.9849 -0.5924
  581THF     H711647   1.430   4.901   0.488  0.8985 -4.1817  0.4783
  581THF     C811648   1.641   4.856   0.495  0.2109  0.1934 -0.0861
  581THF     C911649   1.672   4.897   0.349  0.3494  0.3807 -0.1125
  581THF    H1011650   1.605   4.753   0.498 -3.4060  1.1943 -2.1421
  581THF    H1111651   1.728   4.874   0.557 -1.2393  1.5129  1.6862
  581THF    H1211652   1.774   4.872   0.320 -0.0481 -1.7234  0.1559
  581THF    H1311653   1.602   4.846   0.283  1.5462  0.1400 -1.2320
  582THF     O111654   1.632   1.199   5.031  0.5086  0.2289  0.1378
  582THF     C211655   1.565   1.185   4.910  0.4021  0.1980  0.1001
  582THF     C311656   1.655   1.070   5.092  0.4366 -0.7376 -0.7349
  582THF     H411657   1.630   1.260   4.864  1.9789 -1.2215 -0.1113
  582THF     H511658   1.462   1.219   4.911  0.8722  1.7204  0.7681
  582THF     H611659   1.733   1.077   5.167  0.3978  1.4308 -0.8350
  582THF     H711660   1.572   1.016   5.137  0.7003 -2.3004 -2.0510
  582THF     C811661   1.688   0.981   4.970  0.2323  0.0965 -0.4278
  582THF     C911662   1.591   1.040   4.861  0.0969 -0.2665 -0.0110
  582THF    H1011663   1.673   0.876   4.995 -0.1579 -0.2328 -1.9131
  582THF    H1111664   1.792   0.991   4.941  1.0244 -1.2260  1.7227
  582THF    H1211665   1.612   1.032   4.754 -2.3418  0.3991 -0.5985
  582THF    H1311666   1.492   0.994   4.867 -0.1369  0.1461 -0.6389
  583THF     O111667   2.675   4.499   3.574 -0.0014  0.2113  0.4207
  583THF     C211668   2.558   4.553   3.500 -0.1428 -0.2328 -0.6482
  583THF     C311669   2.647   4.526   3.711 -0.5605  0.2256 -0.2053
  583THF     H411670   2.476   4.485   3.522  0.0806 -0.8782 -1.7880
  583THF     H511671   2.593   4.563   3.397  1.5935  1.9653  0.0622
  583THF     H611672   2.578   4.450   3.748 -1.2654  0.8064 -0.2810
  583THF     H711673   2.744   4.514   3.759 -0.5011 -0.1965 -0.4320
  583THF     C811674   2.596   4.672   3.715 -0.3030  0.3148 -0.1235
  583THF     C911675   2.542   4.692   3.570  0.0399 -0.0978  0.0751
  583THF    H1011676   2.687   4.731   3.726  1.5484 -1.6619 -3.2095
  583THF    H1111677   2.536   4.682   3.805  0.5001  0.2991  0.4293
  583THF    H1211678   2.436   4.720   3.567  0.2802  1.2568  2.2260
  583THF    H1311679   2.590   4.770   3.511 -1.2191 -0.9263 -2.1840
  584THF     O111680   5.364   1.453   5.069  0.0761  0.6347  0.1948
  584THF     C211681   5.384   1.466   4.930  0.1264  0.4649  0.4956
  584THF     C311682   5.409   1.577   5.125 -0.9385 -0.3151  0.3682
  584THF     H411683   5.314   1.526   4.872 -1.6019 -2.3077 -0.4316
  584THF     H511684   5.392   1.366   4.889  0.0463 -0.0491  1.7136
  584THF     H611685   5.333   1.643   5.083 -0.7744 -1.6987 -2.3737
  584THF     H711686   5.410   1.571   5.234 -1.6061  2.4992  0.5888
  584THF     C811687   5.546   1.589   5.050  0.6498 -0.6191  0.0168
  584THF     C911688   5.513   1.538   4.912 -0.3242  0.0299  0.8672
  584THF    H1011689   5.618   1.530   5.106 -0.9235 -0.4285  2.4238
  584THF    H1111690   5.587   1.686   5.024  0.1395 -0.5233 -0.4631
  584THF    H1211691   5.508   1.614   4.834  2.2040  0.3263  0.9014
  584THF    H1311692   5.593   1.468   4.888 -1.4953 -1.0099 -0.1340
  585THF     O111693   4.864   3.683   2.769  0.1901  0.0853 -0.1166
  585THF     C211694   4.951   3.786   2.706  0.2407  0.2433  0.2852
  585THF     C311695   4.874   3.692   2.909 -0.0320  0.3123  0.0125
  585THF     H411696   4.913   3.830   2.614  0.5396  0.6397  0.3487
  585THF     H511697   5.042   3.732   2.677 -1.3444 -2.0648 -0.7392
  585THF     H611698   4.797   3.641   2.965  1.3591  1.0428  2.7805
  585THF     H711699   4.967   3.644   2.941 -0.1447 -0.4411 -0.7810
  585THF     C811700   4.862   3.844   2.929  0.3210 -0.8917  0.1673
  585THF     C911701   4.949   3.898   2.810  0.2689  0.2694 -0.8687
  585THF    H1011702   4.898   3.885   3.023  1.8890  1.4123 -1.3415
  585THF    H1111703   4.761   3.884   2.921  0.5035 -0.7152 -2.0175
  585THF    H1211704   4.931   3.996   2.767  0.2893 -0.0587 -1.6502
  585THF    H1311705   5.043   3.921   2.861 -0.3395 -1.1939  1.0712
  586THF     O111706   1.954   1.107   1.051 -0.1574  0.1226  0.4546
  586THF     C211707   1.943   0.984   0.982  0.2057  0.9079 -0.5769
  586THF     C311708   2.083   1.147   1.026 -0.6888  0.1890 -0.0831
  586THF     H411709   1.845   0.973   0.936  0.5898 -0.6728 -1.0720
  586THF     H511710   1.960   0.899   1.049  1.1723  0.7075 -1.0550
  586THF     H611711   2.090   1.249   1.063  1.3320 -1.0642  3.5360
  586THF     H711712   2.150   1.083   1.083 -1.2088 -0.5087 -0.2384
  586THF     C811713   2.116   1.112   0.878 -0.7349 -0.1466  0.1080
  586THF     C911714   2.050   0.977   0.871 -0.1501 -0.0100  0.6954
  586THF    H1011715   2.225   1.115   0.873 -0.4548 -0.1239  3.4916
  586THF    H1111716   2.071   1.181   0.807  0.3166  1.2988  0.7779
  586THF    H1211717   2.021   0.951   0.769 -1.0346  2.0504  0.3778
  586THF    H1311718   2.106   0.888   0.903 -2.4326 -1.6406  0.4154
  587THF     O111719   5.109   1.572   4.348  0.3416  0.1008 -0.2700
  587THF     C211720   5.238   1.538   4.311 -0.1328  0.0286  0.1374
  587THF     C311721   5.097   1.560   4.491  0.0454 -0.1861 -0.5153
  587THF     H411722   5.262   1.608   4.231  2.6333 -1.7167 -0.7071
  587THF     H511723   5.253   1.435   4.280  3.6875  0.2927  0.7119
  587THF     H611724   5.063   1.660   4.520  0.6379 -0.2918  0.5932
  587THF     H711725   5.020   1.488   4.521  0.4172 -0.0781  0.7968
  587THF     C811726   5.237   1.536   4.549 -0.4931  0.2124 -0.1213
  587THF     C911727   5.319   1.581   4.434  0.1862  0.1034 -0.6043
  587THF    H1011728   5.244   1.429   4.571 -1.7780  0.1992  0.2736
  587THF    H1111729   5.251   1.583   4.646 -1.4111  0.1615  0.0392
  587THF    H1211730   5.337   1.689   4.434  0.7688  0.0096 -1.1064
  587THF    H1311731   5.416   1.533   4.445  0.3671  0.6177  0.1463
  588THF     O111732   3.915   1.899   2.851  0.1502 -0.1484  0.3288
  588THF     C211733   3.774   1.886   2.828  0.2873 -0.0800 -0.2467
  588THF     C311734   3.967   1.979   2.739 -0.2997  0.6206 -0.9232
  588THF     H411735   3.709   1.972   2.846  1.8076  1.1028 -0.1456
  588THF     H511736   3.748   1.806   2.897 -0.9820 -0.4658 -1.1404
  588THF     H611737   3.939   2.084   2.749  0.5352  0.6084  3.0842
  588THF     H711738   4.072   1.955   2.718 -0.6128 -0.7218 -1.0625
  588THF     C811739   3.887   1.932   2.621 -0.1212  0.4047  0.4225
  588THF     C911740   3.773   1.849   2.681  0.1979  0.6243 -0.0218
  588THF    H1011741   3.936   1.871   2.546 -1.6507  0.5706 -0.7768
  588THF    H1111742   3.855   2.021   2.566 -1.7950 -0.7917 -0.6333
  588THF    H1211743   3.672   1.863   2.642  0.1588 -0.0329 -0.1626
  588THF    H1311744   3.797   1.744   2.666 -0.5634  0.2694  1.0753
  589THF     O111745   4.922   4.488   3.964 -0.1558  0.4327  0.0142
  589THF     C211746   4.958   4.564   3.853  0.2031 -0.2560  0.1977
  589THF     C311747   5.022   4.393   3.987 -0.0969 -0.6686  0.6582
  589THF     H411748   4.891   4.648   3.837 -0.1480 -0.2459  1.6414
  589THF     H511749   4.950   4.505   3.761  1.5775 -1.5728  0.8858
  589THF     H611750   5.013   4.337   4.080 -0.7287 -1.5394  0.0851
  589THF     H711751   5.008   4.315   3.912 -2.2397  0.0213  0.2558
  589THF     C811752   5.147   4.488   3.978  0.3100  0.1788 -0.2842
  589THF     C911753   5.106   4.599   3.882  0.3561  0.6675  0.2114
  589THF    H1011754   5.236   4.441   3.939 -0.0754 -1.5140  0.7662
  589THF    H1111755   5.176   4.529   4.075  0.3334  1.6004 -0.8610
  589THF    H1211756   5.114   4.700   3.923  1.9017  0.9272 -0.6619
  589THF    H1311757   5.163   4.607   3.789 -0.0800 -0.3145 -0.1537
  590THF     O111758   2.123   0.697   3.250  0.0162 -0.2614  0.7387
  590THF     C211759   2.154   0.821   3.296 -0.2676 -0.2435 -0.1052
  590THF     C311760   2.152   0.697   3.113  0.3070 -0.3766 -0.0775
  590THF     H411761   2.182   0.808   3.400 -0.2590 -1.0180 -0.1957
  590THF     H511762   2.081   0.901   3.284  0.3164  0.1819 -0.9912
  590THF     H611763   2.174   0.601   3.066  2.1930 -0.1535  0.2771
  590THF     H711764   2.073   0.749   3.060  1.1600 -1.7250 -2.8760
  590THF     C811765   2.278   0.776   3.091  0.2368 -0.2592 -0.1423
  590THF     C911766   2.282   0.869   3.214  0.4664  0.8945 -0.1130
  590THF    H1011767   2.277   0.830   2.996 -1.3496 -0.6244 -0.3597
  590THF    H1111768   2.368   0.714   3.089  0.4790  0.0991 -0.3737
  590THF    H1211769   2.368   0.844   3.277 -0.0184  0.2005  0.3053
  590THF    H1311770   2.298   0.974   3.190  0.6874  0.5710 -1.4498
  591THF     O111771   1.725   4.137   2.677 -0.1585 -0.4142  0.0131
  591THF     C211772   1.585   4.155   2.690  0.4899  0.0395  0.0796
  591THF     C311773   1.785   4.261   2.704  0.0574  0.0456  0.2509
  591THF     H411774   1.535   4.088   2.760  0.9760 -1.9295 -1.3726
  591THF     H511775   1.550   4.114   2.595 -0.4755 -0.2207  0.5400
  591THF     H611776   1.788   4.252   2.812  1.5992 -0.0973  0.2068
  591THF     H711777   1.882   4.275   2.656 -0.7482 -0.4112 -1.6227
  591THF     C811778   1.676   4.364   2.662  0.3319  0.1696  0.2158
  591THF     C911779   1.552   4.299   2.713 -0.0430  0.2043  0.1380
  591THF    H1011780   1.684   4.374   2.554  4.3734  2.2987  0.5450
  591THF    H1111781   1.694   4.459   2.711  2.3209  0.6306 -1.3036
  591THF    H1211782   1.546   4.311   2.821 -1.2357  1.6941 -0.0678
  591THF    H1311783   1.459   4.325   2.663 -2.1910 -2.9064  2.1927
  592THF     O111784   4.479   0.408   3.830 -0.5248 -0.3684 -0.1445
  592THF     C211785   4.556   0.436   3.721  0.3983 -0.2144  0.3017
  592THF     C311786   4.341   0.435   3.790 -0.6586 -0.0604 -0.2533
  592THF     H411787   4.650   0.381   3.715  1.0479  1.0213 -2.6635
  592THF     H511788   4.576   0.543   3.716  1.2061 -0.4219 -1.6351
  592THF     H611789   4.280   0.351   3.824 -0.3590 -0.1627  0.0378
  592THF     H711790   4.297   0.523   3.837 -0.6604 -0.1100 -0.1611
  592THF     C811791   4.339   0.457   3.638  0.2197  0.4155  0.0577
  592THF     C911792   4.469   0.395   3.606  0.0377 -0.2109  0.8114
  592THF    H1011793   4.327   0.563   3.617  1.3896  0.3042 -1.3177
  592THF    H1111794   4.252   0.411   3.590 -0.0037  2.2606 -1.4105
  592THF    H1211795   4.453   0.289   3.591  0.4013 -0.3088  1.1172
  592THF    H1311796   4.502   0.442   3.513  0.6832 -1.7447  0.2490
  593THF     O111797   3.256   2.715   3.441 -0.0838 -0.4867  0.2277
  593THF     C211798   3.203   2.842   3.467 -0.2758  0.7605 -0.0649
  593THF     C311799   3.164   2.612   3.478 -0.0549 -0.8032 -0.0204
  593THF     H411800   3.212   2.902   3.377 -0.5342 -1.0159 -1.3429
  593THF     H511801   3.262   2.892   3.544  2.6917 -0.1060 -1.6396
  593THF     H611802   3.175   2.523   3.417 -0.8689 -0.1605 -1.1381
  593THF     H711803   3.158   2.588   3.585  1.0917 -0.3366  0.1676
  593THF     C811804   3.030   2.685   3.455 -0.0148 -0.2991  0.0129
  593THF     C911805   3.060   2.823   3.508  0.1398  0.1939 -0.2599
  593THF    H1011806   2.951   2.624   3.500 -0.0981 -0.4057 -0.2680
  593THF    H1111807   3.013   2.695   3.347  1.4320  0.8357 -0.1411
  593THF    H1211808   2.993   2.898   3.469 -0.6285  0.8051  2.0900
  593THF    H1311809   3.057   2.827   3.617  0.4927  4.0021 -0.2671
  594THF     O111810   0.801   5.134   4.266  0.1381  0.5708  0.6599
  594THF     C211811   0.704   5.233   4.235  0.5535 -0.7679 -0.0828
  594THF     C311812   0.840   5.077   4.135 -0.2793 -0.1142 -0.0785
  594THF     H411813   0.689   5.298   4.320 -2.7413 -1.0845 -0.3137
  594THF     H511814   0.613   5.177   4.213  0.8917 -1.5031  0.3544
  594THF     H611815   0.935   5.023   4.136 -1.3662 -2.1370  0.1185
  594THF     H711816   0.761   5.018   4.087 -2.0179  0.9406  1.3750
  594THF     C811817   0.852   5.210   4.052 -0.2967 -0.6415 -0.2490
  594THF     C911818   0.755   5.308   4.114 -0.8329  0.3701  0.5452
  594THF    H1011819   0.828   5.205   3.946 -1.5530  1.3752 -0.1245
  594THF    H1111820   0.953   5.249   4.049 -0.4229 -0.2616  0.2426
  594THF    H1211821   0.808   5.399   4.142  2.1746 -0.9832 -0.3379
  594THF    H1311822   0.676   5.348   4.050 -0.0260  0.2721 -0.5192
  595THF     O111823   3.688   0.713   5.399  0.3926  0.3893  0.3240
  595THF     C211824   3.637   0.671   5.272 -0.0066 -0.0633  0.2222
  595THF     C311825   3.828   0.737   5.388  0.2957  0.6428 -0.4594
  595THF     H411826   3.538   0.710   5.252  0.2167  1.7598  2.2771
  595THF     H511827   3.629   0.563   5.273 -1.6615  0.0251  1.5630
  595THF     H611828   3.852   0.841   5.408 -0.3323  0.9804 -1.4165
  595THF     H711829   3.867   0.662   5.457  0.0016 -0.0088 -0.9956
  595THF     C811830   3.869   0.715   5.241  0.7972 -0.1848  0.3754
  595THF     C911831   3.740   0.702   5.162 -0.6061  0.2098 -0.1181
  595THF    H1011832   3.936   0.630   5.232 -0.1582 -0.9730  0.6568
  595THF    H1111833   3.930   0.799   5.205 -0.4226  0.2446 -0.7872
  595THF    H1211834   3.723   0.798   5.114  2.2199 -0.5562 -2.9197
  595THF    H1311835   3.756   0.635   5.078  0.3648 -0.8283  0.8500
  596THF     O111836   0.979   0.490   3.608  0.1572 -0.1808 -0.4539
  596THF     C211837   1.016   0.597   3.687 -0.4805 -0.2801 -0.0364
  596THF     C311838   0.928   0.385   3.698 -0.0925 -0.3652  0.4693
  596THF     H411839   1.027   0.686   3.625  2.3404  0.5573  1.4857
  596THF     H511840   1.116   0.576   3.726 -0.4794 -2.7807 -1.1909
  596THF     H611841   0.867   0.320   3.635 -0.8560 -1.4277  2.2208
  596THF     H711842   1.011   0.324   3.736  2.4895  1.2659 -2.0862
  596THF     C811843   0.850   0.462   3.802  0.3390  0.0656 -0.0947
  596THF     C911844   0.910   0.606   3.796 -0.2226 -0.1740  0.3879
  596THF    H1011845   0.853   0.411   3.898  0.9873 -2.2397 -1.2859
  596THF    H1111846   0.744   0.463   3.774 -0.4405 -0.0770  2.6073
  596THF    H1211847   0.834   0.679   3.770 -0.8156 -0.7134  0.5839
  596THF    H1311848   0.944   0.634   3.896  0.0046  0.7190  0.0663
  597THF     O111849   1.643   0.665   1.182 -0.1571  0.3865 -0.2681
  597THF     C211850   1.508   0.629   1.165 -0.4476 -0.9294 -0.0286
  597THF     C311851   1.660   0.794   1.127 -0.3671 -0.3360  0.6578
  597THF     H411852   1.466   0.574   1.249  2.2258 -3.1870 -0.0192
  597THF     H511853   1.508   0.561   1.079 -1.0688 -2.0681  0.8440
  597THF     H611854   1.748   0.851   1.160 -0.5586 -0.2759  1.0641
  597THF     H711855   1.670   0.784   1.019  1.5471 -0.0259  0.7617
  597THF     C811856   1.536   0.867   1.169 -0.4456 -0.1122 -0.1957
  597THF     C911857   1.435   0.763   1.140  0.4072  0.1240 -0.2804
  597THF    H1011858   1.530   0.962   1.116 -0.7940  0.0606  0.1532
  597THF    H1111859   1.560   0.900   1.270  0.5215  3.5158 -1.4655
  597THF    H1211860   1.351   0.775   1.209  0.1624 -0.8690 -0.3906
  597THF    H1311861   1.395   0.771   1.039  0.5443 -0.2943 -0.3680
  598THF     O111862   3.542   5.309   1.835  0.1477 -0.0610 -0.0881
  598THF     C211863   3.406   5.334   1.864  0.7757  0.0233 -0.5894
  598THF     C311864   3.563   5.176   1.795 -0.4967 -0.4233  0.4348
  598THF     H411865   3.390   5.422   1.801 -2.1797  0.7185  0.9498
  598THF     H511866   3.386   5.368   1.965 -1.6813 -0.1848 -0.9406
  598THF     H611867   3.638   5.155   1.718  0.1256  1.7921  0.3674
  598THF     H711868   3.583   5.109   1.879  0.5541  0.9223  1.2842
  598THF     C811869   3.432   5.143   1.728 -0.2419  0.1437 -0.4607
  598THF     C911870   3.333   5.207   1.820  0.1907  0.4222 -0.0062
  598THF    H1011871   3.422   5.036   1.712 -0.0400  0.3080 -1.7646
  598THF    H1111872   3.432   5.196   1.633  2.0915  3.4643  1.1854
  598THF    H1211873   3.242   5.234   1.767 -0.8865 -2.7737 -0.0200
  598THF    H1311874   3.315   5.140   1.905  0.1135  0.7345  0.2255
  599THF     O111875   1.962   1.560   5.374 -0.1623 -0.4218 -0.3948
  599THF     C211876   2.050   1.664   5.411 -0.4899 -0.4109 -0.0371
  599THF     C311877   1.876   1.529   5.481 -0.5621 -0.4422  0.4737
  599THF     H411878   2.013   1.761   5.377  1.3143  0.1237 -0.5530
  599THF     H511879   2.152   1.657   5.373 -0.4158  2.0257 -0.4763
  599THF     H611880   1.773   1.548   5.452  0.3751  1.3244 -2.0634
  599THF     H711881   1.892   1.433   5.530  1.3544 -0.7873 -0.7216
  599THF     C811882   1.910   1.629   5.595  0.1111 -0.1988 -0.3869
  599THF     C911883   2.056   1.657   5.557  1.0697 -0.3208  0.1138
  599THF    H1011884   1.899   1.576   5.689  2.4963 -0.4906 -0.2051
  599THF    H1111885   1.841   1.714   5.601  0.5775  0.1029  1.0349
  599THF    H1211886   2.096   1.746   5.607 -1.5333  0.1480  1.5350
  599THF    H1311887   2.114   1.567   5.577 -0.7741 -1.1858  1.9460
  600THF     O111888   0.781   1.644   5.215 -0.1552  0.1431  0.2654
  600THF     C211889   0.834   1.730   5.313 -0.1419 -0.5054 -0.1388
  600THF     C311890   0.861   1.645   5.092 -0.5329  0.0543  0.1488
  600THF     H411891   0.860   1.672   5.402 -1.0989 -1.0273 -0.1887
  600THF     H511892   0.768   1.814   5.335  0.1363  0.2916 -2.1304
  600THF     H611893   0.937   1.568   5.099 -1.0764 -0.7409 -1.8833
  600THF     H711894   0.799   1.633   5.003 -1.0979  2.4620  0.1536
  600THF     C811895   0.937   1.774   5.098 -0.5555  0.7273 -0.4763
  600THF     C911896   0.960   1.785   5.249 -0.1831  0.8762 -1.1216
  600THF    H1011897   0.871   1.857   5.072 -2.1591  0.2050  1.6413
  600THF    H1111898   1.023   1.776   5.032 -0.3229 -0.8748 -0.2543
  600THF    H1211899   1.036   1.713   5.280 -1.6431 -0.0622  0.4308
  600THF    H1311900   0.987   1.887   5.276  2.0685 -0.0052  0.2345
  601THF     O111901   3.947   4.710   0.716  0.0705  0.5995 -0.7115
  601THF     C211902   3.909   4.846   0.722  0.0016  0.8542  0.0975
  601THF     C311903   4.005   4.683   0.584  0.0949  0.5466 -0.4282
  601THF     H411904   3.992   4.914   0.745 -1.3827  2.2647  1.0820
  601THF     H511905   3.822   4.862   0.785  0.4839  3.9555  0.1278
  601THF     H611906   4.113   4.694   0.595  0.3158 -0.4056 -1.4601
  601THF     H711907   3.989   4.578   0.557 -0.8465  0.8729 -1.2181
  601THF     C811908   3.937   4.782   0.491  0.1469  0.4719 -0.0436
  601THF     C911909   3.856   4.869   0.583 -0.3856  0.0368  0.3120
  601THF    H1011910   3.866   4.734   0.423  1.0975  0.4451 -1.0466
  601THF    H1111911   4.010   4.834   0.428 -0.2385  0.9589 -0.0861
  601THF    H1211912   3.874   4.973   0.555  0.1810 -0.3109 -0.6650
  601THF    H1311913   3.750   4.847   0.568 -0.3537 -0.9762  1.4193
  602THF     O111914   2.226   3.938   1.437 -0.1017 -0.7075  0.1802
  602THF     C211915   2.228   3.859   1.549 -0.1958  0.5230 -0.2086
  602THF     C311916   2.264   4.067   1.478  0.8580  0.4135 -0.0728
  602THF     H411917   2.327   3.842   1.590 -0.1984 -4.0067 -1.5513
  602THF     H511918   2.184   3.760   1.537 -1.5483  1.1321 -0.5231
  602THF     H611919   2.367   4.074   1.445 -0.0319 -0.4961 -3.4779
  602THF     H711920   2.208   4.146   1.427  1.2119  1.7305  1.5032
  602THF     C811921   2.227   4.077   1.622 -0.3961 -0.4554 -0.2884
  602THF     C911922   2.162   3.947   1.649  0.7318 -0.5423  0.5558
  602THF    H1011923   2.166   4.164   1.644 -1.2322 -1.6933  2.9259
  602THF    H1111924   2.318   4.078   1.682  0.2961 -0.8471 -1.3021
  602THF    H1211925   2.166   3.927   1.756 -0.7615 -0.8867  0.5686
  602THF    H1311926   2.059   3.962   1.618  1.4058  1.6857 -0.8353
  603THF     O111927   5.454   2.051   0.191 -0.4510  0.1718  0.1343
  603THF     C211928   5.461   2.008   0.056 -0.1378  0.5405  0.1068
  603THF     C311929   5.340   2.138   0.197 -0.2224  0.1274  0.6426
  603THF     H411930   5.543   1.937   0.048 -0.5387  0.0104  0.6114
  603THF     H511931   5.474   2.090  -0.014 -0.4835 -0.0531 -0.6661
  603THF     H611932   5.330   2.149   0.305  0.8350  1.3752  0.6412
  603THF     H711933   5.350   2.237   0.152  0.7594 -0.0724  0.4148
  603THF     C811934   5.237   2.061   0.121  1.0202 -0.1462  0.2140
  603THF     C911935   5.317   1.957   0.041 -0.4624  0.0759  0.2449
  603THF    H1011936   5.171   2.128   0.066 -0.0520 -0.0911  1.5313
  603THF    H1111937   5.168   2.023   0.197  0.1900 -0.5625 -0.7232
  603THF    H1211938   5.309   1.866   0.101 -2.5688  1.7226  2.6949
  603THF    H1311939   5.279   1.935  -0.058 -2.2748 -0.8295  1.0829
  604THF     O111940   1.242   0.056   1.906  0.3437 -0.0647  0.4201
  604THF     C211941   1.199   0.154   1.818 -0.3109  0.0022  0.4639
  604THF     C311942   1.331   0.106   1.999  0.2982 -0.6358  0.3889
  604THF     H411943   1.096   0.155   1.856 -0.1821  1.7084  0.8402
  604THF     H511944   1.218   0.119   1.716 -0.2093 -0.4024  0.6206
  604THF     H611945   1.317   0.061   2.098 -2.1760  2.2279  1.5149
  604THF     H711946   1.433   0.095   1.963  0.3602 -0.3627  0.4780
  604THF     C811947   1.303   0.253   1.996 -0.2877 -0.3074 -0.8808
  604THF     C911948   1.275   0.278   1.849 -0.5091 -0.1775 -0.1511
  604THF    H1011949   1.382   0.319   2.033 -1.0179  1.0014 -1.5448
  604THF    H1111950   1.218   0.273   2.060  0.6392 -1.4765  0.7753
  604THF    H1211951   1.220   0.367   1.821 -0.2068  0.3950  1.0037
  604THF    H1311952   1.369   0.277   1.793 -0.5292 -1.4567 -0.1905
  605THF     O111953   2.474   2.653   1.798 -0.2713 -0.1174 -0.2049
  605THF     C211954   2.388   2.553   1.846  0.2527 -0.4177  0.5983
  605THF     C311955   2.594   2.656   1.876 -0.1564 -0.8647 -0.1058
  605THF     H411956   2.411   2.455   1.805 -0.5065 -0.2309 -0.3202
  605THF     H511957   2.285   2.578   1.818 -0.5624 -3.0259  0.9811
  605THF     H611958   2.665   2.580   1.844 -0.0209 -0.7938  0.0256
  605THF     H711959   2.638   2.754   1.861  1.0171 -1.2103  0.9832
  605THF     C811960   2.535   2.631   2.010  0.1269  0.3752 -0.0590
  605THF     C911961   2.404   2.551   1.993 -0.1015  0.3450 -0.6619
  605THF    H1011962   2.539   2.728   2.059  1.7638  0.1723  0.2746
  605THF    H1111963   2.599   2.561   2.063 -1.4119 -0.5852  0.6115
  605THF    H1211964   2.432   2.449   2.017  1.5308  0.3854 -2.2112
  605THF    H1311965   2.309   2.585   2.035 -1.4073 -0.1603 -2.9823
  606THF     O111966   3.611   4.533   4.391  0.2656  0.0547  0.1673
  606THF     C211967   3.488   4.593   4.344  1.0626  0.1934 -0.0642
  606THF     C311968   3.653   4.438   4.302  0.3579  0.2445  0.4857
  606THF     H411969   3.489   4.696   4.308 -1.2525  0.8292  1.4105
  606THF     H511970   3.411   4.589   4.421  1.9688  1.0649  0.9323
  606THF     H611971   3.714   4.496   4.233 -1.0373  0.8608 -0.2647
  606THF     H711972   3.714   4.358   4.344  1.9067  0.9201 -0.4074
  606THF     C811973   3.526   4.372   4.239  0.6491 -0.2168  0.3651
  606THF     C911974   3.447   4.501   4.221 -0.1124  0.1258 -0.3423
  606THF    H1011975   3.472   4.308   4.309 -2.6397  0.4012 -1.3842
  606THF    H1111976   3.539   4.305   4.155 -1.0502 -1.1218  0.7818
  606THF    H1211977   3.480   4.547   4.128  1.4211  0.6101  0.4050
  606THF    H1311978   3.343   4.467   4.216 -0.4094  0.8965  0.3937
  607THF     O111979   2.276   2.432   2.762 -0.5420 -0.1176  0.1572
  607THF     C211980   2.146   2.375   2.742  0.3899 -0.3979  0.0805
  607THF     C311981   2.255   2.515   2.872 -0.3694  0.4326 -0.2042
  607THF     H411982   2.158   2.298   2.665 -1.9996 -0.5389 -0.2250
  607THF     H511983   2.079   2.448   2.696  1.8761  0.9747 -0.0165
  607THF     H611984   2.354   2.548   2.906 -0.8107 -0.0382  1.6751
  607THF     H711985   2.191   2.594   2.833 -0.7449 -1.5335 -4.0148
  607THF     C811986   2.185   2.416   2.968  0.1113 -0.0863  0.0798
  607THF     C911987   2.094   2.333   2.878  0.6759 -0.5869  0.0495
  607THF    H1011988   2.132   2.473   3.045 -0.8049  1.5507 -1.6703
  607THF    H1111989   2.263   2.351   3.007  0.1479  0.8381  1.6244
  607THF    H1211990   2.104   2.225   2.891  0.9708 -0.5516  0.1100
  607THF    H1311991   1.989   2.363   2.887  0.5450 -1.1209  0.3606
  608THF     O111992   1.442   0.388   4.696 -0.4778  0.0660 -0.7863
  608THF     C211993   1.451   0.245   4.689  0.1221 -0.4398 -0.6487
  608THF     C311994   1.463   0.421   4.835 -0.6158  0.9936 -0.0341
  608THF     H411995   1.551   0.213   4.660  1.3100 -0.5402  2.9617
  608THF     H511996   1.384   0.222   4.607 -1.0997 -0.1153  0.2227
  608THF     H611997   1.569   0.412   4.857 -0.9057 -1.0862  0.8043
  608THF     H711998   1.438   0.526   4.848 -0.0651  1.1367 -0.1262
  608THF     C811999   1.388   0.323   4.921 -0.1674  0.0056 -0.6354
  608THF     C912000   1.415   0.200   4.835 -0.3998  0.5551  0.4127
  608THF    H1012001   1.286   0.358   4.907 -0.3195 -0.2164 -0.1019
  608THF    H1112002   1.421   0.328   5.025 -1.4822 -0.4382 -0.1781
  608THF    H1212003   1.502   0.149   4.876 -0.4188  1.2081  1.3040
  608THF    H1312004   1.328   0.135   4.842  0.5810 -0.6358  4.2265
  609THF     O112005   1.203   5.179   3.937  0.3819  0.0202  0.2874
  609THF     C212006   1.240   5.168   4.074  0.2721 -0.2698  0.2910
  609THF     C312007   1.257   5.068   3.864  0.1950  0.2518 -0.1395
  609THF     H412008   1.146   5.176   4.128  1.8494 -0.2414  3.2406
  609THF     H512009   1.298   5.249   4.118  0.9124 -1.0421  0.8935
  609THF     H612010   1.188   5.035   3.787 -1.1950  1.3285  0.6078
  609THF     H712011   1.352   5.104   3.824 -0.2551  1.1732 -0.4105
  609THF     C812012   1.271   4.958   3.972  0.4047  0.2504  0.1764
  609THF     C912013   1.307   5.035   4.099  0.3551 -0.5780  0.2274
  609THF    H1012014   1.345   4.883   3.944  1.2160  0.5859  1.3259
  609THF    H1112015   1.174   4.913   3.991  0.7201 -1.5317 -2.0046
  609THF    H1212016   1.281   4.993   4.196 -2.3234 -0.6832 -0.4554
  609THF    H1312017   1.415   5.046   4.093  0.2365  0.1349 -0.9171
  610THF     O112018   0.127   2.098   0.614  0.0543 -0.1508  0.9575
  610THF     C212019   0.036   2.070   0.711  0.1320 -0.5785  0.6689
  610THF     C312020   0.055   2.143   0.497 -0.4858  0.1615 -0.1849
  610THF     H412021   0.083   2.093   0.807  0.3673  1.2453  0.1555
  610THF     H512022   0.001   1.967   0.710  0.6271 -0.7522 -1.0765
  610THF     H612023   0.120   2.186   0.421  0.4180 -0.1950  0.3690
  610THF     H712024   0.014   2.049   0.459  0.1373 -0.4238  0.5688
  610THF     C812025  -0.043   2.238   0.559 -0.5315 -1.1023  0.4320
  610THF     C912026  -0.066   2.171   0.696  0.6922  0.3139  0.4204
  610THF    H1012027  -0.140   2.249   0.510  0.2405 -1.0953 -1.1810
  610THF    H1112028   0.014   2.326   0.586  0.1470 -1.8079  1.3498
  610THF    H1212029  -0.061   2.248   0.773  2.0343  1.5359 -0.8100
  610THF    H1312030  -0.168   2.134   0.703  1.2181 -0.9520  1.8944
  611THF     O112031   4.706   0.647   1.636  0.2835  0.1666  0.3072
  611THF     C212032   4.635   0.596   1.515 -1.0189 -0.5535  0.0195
  611THF     C312033   4.616   0.638   1.752 -0.6598  0.4755  0.3933
  611THF     H412034   4.706   0.559   1.442 -3.1018 -1.1360 -1.8198
  611THF     H512035   4.562   0.667   1.477  1.2376  0.9018 -1.8610
  611THF     H612036   4.652   0.636   1.855  1.6198 -0.0038 -0.3545
  611THF     H712037   4.527   0.700   1.760 -1.0874 -0.3024  2.4423
  611THF     C812038   4.557   0.496   1.727 -0.5681  0.0913  0.2567
  611THF     C912039   4.560   0.477   1.575  0.6566 -0.5143  0.1369
  611THF    H1012040   4.458   0.476   1.767 -0.9605 -0.6412 -1.0225
  611THF    H1112041   4.625   0.424   1.772 -0.8955  0.4185  1.3152
  611THF    H1212042   4.626   0.393   1.552 -0.2927 -1.5388  1.0065
  611THF    H1312043   4.459   0.474   1.533 -0.6568  1.1501  2.8881
  612THF     O112044   2.084   1.257   0.332  0.8275 -0.2558  0.1443
  612THF     C212045   2.207   1.332   0.312  0.7358  0.3459  0.0152
  612THF     C312046   2.055   1.255   0.475 -0.6460  0.4866  0.1779
  612THF     H412047   2.191   1.434   0.278 -0.3276  0.0769 -0.3277
  612THF     H512048   2.271   1.289   0.235 -0.5872  0.2899 -1.1021
  612THF     H612049   2.021   1.351   0.513 -0.6876  0.8988 -0.8760
  612THF     H712050   1.987   1.176   0.507 -0.1336 -0.2099 -0.4114
  612THF     C812051   2.201   1.227   0.525  0.3602 -0.0748  0.0608
  612THF     C912052   2.284   1.327   0.449 -0.1151 -0.4256 -0.0542
  612THF    H1012053   2.233   1.127   0.496  1.0846 -0.1501  1.0735
  612THF    H1112054   2.210   1.233   0.633 -0.8338 -1.7863  0.2997
  612THF    H1212055   2.287   1.419   0.506  0.5641 -1.0181  0.9102
  612THF    H1312056   2.382   1.283   0.427 -1.8000 -2.9433 -3.4951
  613THF     O112057   1.263   4.523   2.414 -0.3783  0.3897 -0.2625
  613THF     C212058   1.211   4.648   2.444 -0.2747 -0.0405 -0.5131
  613THF     C312059   1.192   4.424   2.493 -0.6901 -0.8186  0.7602
  613THF     H412060   1.143   4.674   2.362  0.7025  0.6584 -1.1222
  613THF     H512061   1.290   4.723   2.438 -0.1294 -0.1062  0.3851
  613THF     H612062   1.100   4.406   2.438  0.5687 -0.2193 -1.7023
  613THF     H712063   1.245   4.329   2.497 -0.4997 -0.6971  1.1689
  613THF     C812064   1.184   4.503   2.620  0.3209 -0.0905 -0.1810
  613THF     C912065   1.148   4.642   2.588 -0.1754 -0.2279  0.8002
  613THF    H1012066   1.279   4.499   2.674  0.1778  2.0628  0.3041
  613THF    H1112067   1.110   4.451   2.681  0.4911 -0.6790 -0.4590
  613THF    H1212068   1.043   4.660   2.568  0.0187  4.1474  2.5371
  613THF    H1312069   1.193   4.723   2.646 -0.0413  2.0716 -2.2304
  614THF     O112070   0.057   3.688   3.468  0.2802 -0.0266  0.2724
  614THF     C212071  -0.073   3.717   3.429 -0.2452 -0.5192  0.6310
  614THF     C312072   0.063   3.745   3.598  0.8094 -0.1600 -0.0908
  614THF     H412073  -0.150   3.658   3.477 -0.2976  0.3213  1.6077
  614THF     H512074  -0.082   3.700   3.321 -0.5701  1.2485  0.3409
  614THF     H612075   0.014   3.690   3.679  1.2052  2.0735  1.8015
  614THF     H712076   0.166   3.752   3.635  0.4395  1.6622  0.7077
  614THF     C812077   0.004   3.890   3.577  0.7662  0.4095  0.0136
  614THF     C912078  -0.088   3.863   3.456  0.2151 -0.3296 -0.1187
  614THF    H1012079   0.089   3.955   3.559  1.8717  0.5444  4.4923
  614THF    H1112080  -0.051   3.932   3.661  1.7672 -0.6409  1.2364
  614THF    H1212081  -0.191   3.880   3.488  0.6583 -0.2693  1.3331
  614THF    H1312082  -0.088   3.932   3.372 -0.8011 -0.0358  0.1048
  615THF     O112083   0.623   5.406   2.062  0.8002  0.4678 -0.1950
  615THF     C212084   0.537   5.425   1.945 -0.2021 -0.6085  0.2055
  615THF     C312085   0.589   5.285   2.123 -0.3873  0.4850  0.7988
  615THF     H412086   0.562   5.511   1.882  1.2326 -1.5054 -0.5078
  615THF     H512087   0.437   5.437   1.985 -0.5210 -0.4903 -0.6056
  615THF     H612088   0.687   5.242   2.143  0.1472  1.3027  0.0302
  615THF     H712089   0.534   5.300   2.216  1.0908 -0.0162  1.7862
  615THF     C812090   0.523   5.209   2.003 -0.0897  0.1670 -0.2104
  615THF     C912091   0.547   5.288   1.877 -0.5043 -0.6356 -0.0183
  615THF    H1012092   0.418   5.203   2.031 -0.2999  1.7665 -0.5439
  615THF    H1112093   0.550   5.104   2.006 -0.5700  0.0627  1.0933
  615THF    H1212094   0.645   5.269   1.832  0.5309  0.3904  1.6603
  615THF    H1312095   0.465   5.261   1.811 -1.1834  0.6563  0.2714
  616THF     O112096   0.431   4.250   3.476 -0.1761  0.0025  0.0510
  616THF     C212097   0.537   4.218   3.565  0.4011 -0.0511 -1.3816
  616THF     C312098   0.364   4.129   3.449  0.6577 -0.2087 -0.7986
  616THF     H412099   0.583   4.311   3.598 -0.2968  0.0727 -0.7222
  616THF     H512100   0.612   4.153   3.521  3.3827 -0.1649  3.2314
  616THF     H612101   0.282   4.143   3.378 -0.2293 -0.2509  0.1954
  616THF     H712102   0.427   4.057   3.396  0.5548 -2.5224  1.9420
  616THF     C812103   0.333   4.092   3.595  0.1936 -0.2392 -0.3666
  616THF     C912104   0.455   4.143   3.671  0.2019  0.2647  0.3728
  616THF    H1012105   0.301   3.990   3.614 -1.5354 -0.1937 -2.7011
  616THF    H1112106   0.253   4.161   3.624  0.0752 -0.1644 -0.8634
  616THF    H1212107   0.431   4.205   3.758  1.9818 -0.7447  1.6479
  616THF    H1312108   0.508   4.059   3.717 -1.7425 -0.2675  1.8279
  617THF     O112109   1.660   1.449   3.720  0.0954  0.4106 -0.0110
  617THF     C212110   1.579   1.562   3.700 -0.2953 -1.0010 -0.6179
  617THF     C312111   1.600   1.346   3.649 -0.3279  0.0314  0.6810
  617THF     H412112   1.628   1.655   3.728 -1.0288 -0.2580 -1.7342
  617THF     H512113   1.482   1.550   3.749 -0.1833 -1.3824 -0.4875
  617THF     H612114   1.668   1.262   3.657 -1.2016 -0.6894  0.7237
  617THF     H712115   1.509   1.324   3.705  0.4317  1.9826  2.8380
  617THF     C812116   1.577   1.408   3.511  0.4229  0.3375  0.8934
  617THF     C912117   1.544   1.554   3.548  0.0140  0.0949 -0.5101
  617THF    H1012118   1.499   1.362   3.451  1.1622  1.9019 -1.4003
  617THF    H1112119   1.675   1.408   3.463  0.6199 -1.3939  1.2295
  617THF    H1212120   1.614   1.624   3.502  2.8612 -1.4079  1.2086
  617THF    H1312121   1.452   1.604   3.518  2.0657  3.8828 -1.0760
  618THF     O112122   2.571   1.629   4.758 -0.1395  0.0848 -0.3856
  618THF     C212123   2.675   1.716   4.705 -0.1854  0.1080  0.5655
  618THF     C312124   2.612   1.494   4.736  0.4990 -0.4003 -0.4114
  618THF     H412125   2.760   1.720   4.772  0.5464 -1.7277 -0.1903
  618THF     H512126   2.616   1.807   4.697 -0.7207 -0.1922  1.0509
  618THF     H612127   2.648   1.436   4.821  2.8719  0.5578 -0.6724
  618THF     H712128   2.522   1.442   4.704  1.5450 -1.1269 -2.3411
  618THF     C812129   2.712   1.506   4.616 -0.5441  0.0961  0.6187
  618THF     C912130   2.707   1.648   4.569 -0.3181 -0.6060  0.2437
  618THF    H1012131   2.686   1.434   4.539  0.0240  1.4600 -0.9068
  618THF    H1112132   2.809   1.474   4.654  0.4941  1.9556 -0.3318
  618THF    H1212133   2.805   1.687   4.539 -2.2997  2.3840 -3.1149
  618THF    H1312134   2.635   1.668   4.490  0.9518 -1.0340 -1.0640
  619THF     O112135   0.354   1.058   2.801  0.0496 -0.2482 -0.1206
  619THF     C212136   0.334   1.184   2.746 -0.1729  0.4360 -0.3496
  619THF     C312137   0.487   1.019   2.764  0.3965  0.7413  0.0746
  619THF     H412138   0.246   1.225   2.794  0.2922 -1.0613  1.9450
  619THF     H512139   0.320   1.174   2.638 -2.0154 -0.5746 -0.0538
  619THF     H612140   0.506   0.940   2.836 -2.4259  1.2729  1.5432
  619THF     H712141   0.477   0.978   2.663  0.2021  3.0793 -0.9177
  619THF     C812142   0.571   1.148   2.772 -0.3828  0.3360  0.0391
  619THF     C912143   0.467   1.257   2.786 -0.0904  0.2550  0.4658
  619THF    H1012144   0.641   1.149   2.688 -1.4792 -0.4270 -0.9132
  619THF    H1112145   0.630   1.127   2.861 -0.5180 -2.8758 -0.4952
  619THF    H1212146   0.457   1.289   2.890 -0.3488  0.6055  0.3340
  619THF    H1312147   0.497   1.343   2.726 -1.2403  1.4281  1.5011
  620THF     O112148   4.229   2.702   0.064 -0.2522 -0.0894 -0.4719
  620THF     C212149   4.307   2.589   0.063 -0.1148 -0.2534  0.3334
  620THF     C312150   4.323   2.801   0.089 -0.2061  0.0630  0.2238
  620THF     H412151   4.362   2.575  -0.029  0.4020 -3.9544  1.0354
  620THF     H512152   4.242   2.501   0.064  0.3870 -0.6233  0.8961
  620THF     H612153   4.378   2.831  -0.000 -3.1694  1.2101 -1.3377
  620THF     H712154   4.258   2.883   0.119  0.4427 -0.1563  2.4330
  620THF     C812155   4.413   2.750   0.204 -0.0945 -0.2869  0.0900
  620THF     C912156   4.412   2.596   0.176 -0.3122  0.3883  0.6234
  620THF    H1012157   4.372   2.778   0.302  1.0497  4.2588 -0.4848
  620THF    H1112158   4.511   2.797   0.192 -0.5680  0.6908 -0.1051
  620THF    H1212159   4.511   2.564   0.143 -0.4557  0.0575  0.5014
  620THF    H1312160   4.380   2.531   0.257 -0.6931  0.7343  0.7572
  621THF     O112161   4.607   5.080   3.494  0.3977 -0.0463 -0.3663
  621THF     C212162   4.469   5.122   3.471 -0.0807  0.4506  0.0109
  621THF     C312163   4.682   5.199   3.527 -0.6886 -0.1945 -0.0499
  621THF     H412164   4.430   5.129   3.573 -0.1759 -1.6351  0.1510
  621THF     H512165   4.404   5.052   3.420 -0.1918  0.0575  0.6885
  621THF     H612166   4.690   5.200   3.636 -0.3090 -0.6038 -0.0700
  621THF     H712167   4.788   5.195   3.502 -0.2070 -0.3785  1.8489
  621THF     C812168   4.599   5.319   3.472 -0.0839  0.0171 -0.3744
  621THF     C912169   4.487   5.252   3.394  0.5847 -1.2607 -0.3725
  621THF    H1012170   4.661   5.374   3.401 -0.8784  0.8882 -0.4065
  621THF    H1112171   4.561   5.398   3.537  1.4814  1.4871 -1.1715
  621THF    H1212172   4.395   5.307   3.379  0.9857 -0.6917 -0.7976
  621THF    H1312173   4.530   5.228   3.297  2.0111  0.1286 -0.1237
  622THF     O112174   4.519   5.360   4.037  0.2393 -0.3089 -0.1766
  622THF     C212175   4.594   5.406   3.923 -0.3072 -1.1516  1.0572
  622THF     C312176   4.383   5.390   4.027  0.5303  0.0609 -0.3934
  622THF     H412177   4.642   5.322   3.874  0.9896  1.4121 -2.4922
  622THF     H512178   4.667   5.479   3.957 -0.5905 -0.0612 -0.5292
  622THF     H612179   4.323   5.318   4.082  0.9252  0.9988  1.3522
  622THF     H712180   4.361   5.480   4.084  1.6973  0.7666 -1.0162
  622THF     C812181   4.361   5.413   3.878  0.8255 -0.3794  0.4425
  622THF     C912182   4.493   5.479   3.841 -0.2862 -0.6338 -0.2975
  622THF    H1012183   4.268   5.466   3.857  0.7533 -1.4124 -2.2319
  622THF    H1112184   4.345   5.323   3.818 -0.1470 -0.1874  0.3882
  622THF    H1212185   4.518   5.497   3.737  1.8143 -1.3588  0.0483
  622THF    H1312186   4.489   5.580   3.882 -0.8142 -0.7883  0.0440
  623THF     O112187   0.813   0.082   2.369  0.2938 -0.5228  0.0791
  623THF     C212188   0.687   0.028   2.421  0.3018 -0.0924 -0.1863
  623THF     C312189   0.787   0.159   2.252 -0.3231  0.3973 -0.2387
  623THF     H412190   0.702   0.028   2.529  2.3214 -0.5130 -0.4260
  623THF     H512191   0.670  -0.076   2.393 -1.1549  0.1218 -0.1514
  623THF     H612192   0.876   0.218   2.230 -0.6540  1.6102  1.4501
  623THF     H712193   0.763   0.100   2.163 -0.7524 -1.8153  1.2789
  623THF     C812194   0.669   0.229   2.300 -0.4656  0.3856 -0.0090
  623THF     C912195   0.584   0.119   2.365  0.2822 -0.6246 -0.1597
  623THF    H1012196   0.613   0.261   2.212  0.3815  0.3540 -0.5711
  623THF    H1112197   0.689   0.304   2.376  0.7611  0.0802 -0.0133
  623THF    H1212198   0.520   0.164   2.440 -0.0654 -1.1446 -0.1398
  623THF    H1312199   0.511   0.075   2.297 -0.2139  0.1902 -0.1729
  624THF     O112200   0.050   1.645   0.813  0.0417 -0.0625  0.0765
  624THF     C212201   0.069   1.568   0.930  0.4843 -0.0009 -0.3594
  624THF     C312202   0.162   1.733   0.819  0.5425  0.3421 -0.4871
  624THF     H412203  -0.004   1.487   0.923  0.1317 -0.0607  2.5753
  624THF     H512204   0.043   1.622   1.021 -2.3288 -3.0669  0.8549
  624THF     H612205   0.167   1.774   0.718  0.4521  0.4562 -0.4442
  624THF     H712206   0.145   1.818   0.884  2.5838  0.9017 -0.6063
  624THF     C812207   0.278   1.650   0.865 -1.0063  0.2718 -0.6719
  624THF     C912208   0.210   1.526   0.918  0.4877  0.1274 -0.6041
  624THF    H1012209   0.335   1.707   0.938 -0.6435  0.7845 -1.3436
  624THF    H1112210   0.346   1.623   0.784  0.7670  1.9592  0.2070
  624THF    H1212211   0.214   1.439   0.853 -0.4410 -1.0870  0.8830
  624THF    H1312212   0.258   1.488   1.009 -0.2418 -0.8859 -0.6265
  625THF     O112213   4.650   5.085   1.076  0.3904 -0.1463 -0.3269
  625THF     C212214   4.545   5.168   1.016  0.6204 -0.1493  0.2058
  625THF     C312215   4.769   5.164   1.075  0.9159  0.7031 -0.5813
  625THF     H412216   4.446   5.138   1.049  1.1539 -3.9886 -1.1408
  625THF     H512217   4.555   5.173   0.908  0.4533 -1.9012  0.0909
  625THF     H612218   4.841   5.122   1.145  0.2537 -0.8822 -0.8201
  625THF     H712219   4.810   5.176   0.975  0.6031 -0.5812 -0.8820
  625THF     C812220   4.717   5.297   1.124 -0.3001 -0.0345 -0.6405
  625THF     C912221   4.578   5.305   1.062 -0.8159 -0.1987  0.1912
  625THF    H1012222   4.776   5.385   1.098  0.0123 -0.4343 -1.2959
  625THF    H1112223   4.705   5.284   1.232 -1.3779 -0.6911 -0.8245
  625THF    H1212224   4.504   5.333   1.137 -3.0820 -2.3826 -1.0773
  625THF    H1312225   4.563   5.376   0.980  2.0972 -0.5391 -0.7560
  626THF     O112226   0.512   2.755   5.164 -0.0725  0.1639 -0.6184
  626THF     C212227   0.407   2.800   5.084  0.2410 -0.0594 -0.2392
  626THF     C312228   0.516   2.613   5.174  1.1635  0.0999  0.4206
  626THF     H412229   0.444   2.807   4.982 -1.6967  2.0210 -0.8923
  626THF     H512230   0.360   2.891   5.122 -1.1718 -0.4683 -0.9237
  626THF     H612231   0.550   2.553   5.090 -2.0136 -0.0721 -0.8796
  626THF     H712232   0.590   2.583   5.249  2.0715  1.9499  0.3308
  626THF     C812233   0.371   2.595   5.203 -0.1605  0.5926 -0.7459
  626THF     C912234   0.307   2.680   5.091 -0.3991  0.1030  0.2683
  626THF    H1012235   0.353   2.649   5.296  2.5381 -1.5952  1.2238
  626THF    H1112236   0.339   2.491   5.206  1.9483 -0.2504 -3.5009
  626THF    H1212237   0.318   2.621   5.000  0.4001 -0.0991  0.4849
  626THF    H1312238   0.202   2.706   5.103 -0.3209  0.5384  0.0277
  627THF     O112239   5.488   1.039   3.776 -0.1076 -0.4476 -0.9430
  627THF     C212240   5.599   1.009   3.856  0.0951 -0.6523 -0.2533
  627THF     C312241   5.397   0.931   3.810 -1.1820 -0.6937 -0.6887
  627THF     H412242   5.666   1.093   3.873 -1.4478  0.3662  0.9996
  627THF     H512243   5.661   0.923   3.829  0.4794 -0.5913  0.4003
  627THF     H612244   5.292   0.941   3.782 -1.9047 -3.4223  0.6860
  627THF     H712245   5.438   0.840   3.766  0.5044 -0.8221  1.0251
  627THF     C812246   5.405   0.934   3.968 -0.2948  0.0750 -0.1854
  627THF     C912247   5.549   0.966   3.999 -0.2824  0.4597  0.2167
  627THF    H1012248   5.385   0.838   4.015  1.5265 -0.2913 -0.0486
  627THF    H1112249   5.339   0.998   4.025  0.9756  1.5923 -0.3579
  627THF    H1212250   5.564   1.058   4.056 -0.2283  1.7669 -1.8020
  627THF    H1312251   5.604   0.893   4.059 -0.9944  0.3213  0.7135
  628THF     O112252   1.353   1.718   2.075 -0.3214 -0.0101  0.1876
  628THF     C212253   1.428   1.834   2.065 -0.0435  0.0271  0.1123
  628THF     C312254   1.345   1.682   2.208 -0.1411 -0.2911  0.2185
  628THF     H412255   1.379   1.920   2.019  0.6906  0.5533  0.2944
  628THF     H512256   1.507   1.817   1.992 -0.3452  1.5709 -0.6311
  628THF     H612257   1.263   1.730   2.261  0.5461 -0.3460  1.3677
  628THF     H712258   1.340   1.573   2.207 -1.5045 -0.2760  1.3444
  628THF     C812259   1.486   1.721   2.256  0.1253  0.3169 -0.0730
  628THF     C912260   1.482   1.864   2.207  0.0290  0.0756 -0.5310
  628THF    H1012261   1.562   1.665   2.201 -1.1266 -0.2902 -1.2291
  628THF    H1112262   1.501   1.701   2.362  1.1298 -0.9976 -0.4265
  628THF    H1212263   1.421   1.930   2.270 -1.0911 -0.8202 -0.6534
  628THF    H1312264   1.577   1.917   2.202 -0.5130  1.0201 -1.0048
  629THF     O112265   4.766   2.439   2.427  0.3819  0.4138  0.5495
  629THF     C212266   4.893   2.380   2.393 -0.2526  0.1517  0.0470
  629THF     C312267   4.757   2.425   2.568  0.1636 -0.0527 -0.9674
  629THF     H412268   4.917   2.394   2.287  1.7867  1.5860  0.6494
  629THF     H512269   4.885   2.272   2.387  0.4587 -0.2043  3.6609
  629THF     H612270   4.684   2.497   2.604  1.2957  1.5413 -1.7435
  629THF     H712271   4.724   2.325   2.595 -0.7630  0.4465 -0.1466
  629THF     C812272   4.901   2.459   2.617  0.2045  0.7310 -1.3162
  629THF     C912273   4.993   2.415   2.501  0.0968 -0.8876 -0.3376
  629THF    H1012274   4.924   2.395   2.702  0.2825  2.4588 -0.0010
  629THF    H1112275   4.919   2.564   2.639  1.2533  0.1847  0.5880
  629THF    H1212276   5.053   2.499   2.467 -2.1326  0.7378 -0.4303
  629THF    H1312277   5.064   2.334   2.516  3.3983  1.2232 -3.0953
  630THF     O112278   0.174   1.781   2.864 -0.4420 -0.4038  0.5159
  630THF     C212279   0.124   1.799   2.736 -0.4757  0.6301 -0.5970
  630THF     C312280   0.114   1.667   2.931  0.0644  0.0994  0.8138
  630THF     H412281   0.195   1.739   2.679 -1.2768 -0.9245 -0.0247
  630THF     H512282   0.122   1.903   2.706 -3.4551  0.7693 -0.2153
  630THF     H612283   0.163   1.575   2.900  0.2301  0.8023 -1.1708
  630THF     H712284   0.108   1.669   3.040  0.4305  1.5268  0.8311
  630THF     C812285  -0.027   1.667   2.875 -0.1149 -0.3996 -0.2865
  630THF     C912286  -0.022   1.745   2.743  0.3341  0.1280  0.0312
  630THF    H1012287  -0.082   1.724   2.949 -1.3891 -0.7450 -0.9255
  630THF    H1112288  -0.076   1.570   2.868 -0.8430 -0.0160 -0.6861
  630THF    H1212289  -0.057   1.692   2.654 -1.1344  0.6269  0.2892
  630THF    H1312290  -0.094   1.827   2.742 -1.1026 -1.0787 -0.6352
  631THF     O112291   0.966   2.317   4.268  0.1604 -0.0102  0.0770
  631THF     C212292   0.892   2.247   4.169 -0.5278 -0.2700 -0.5529
  631THF     C312293   0.983   2.246   4.386  0.2390  0.5158 -0.4388
  631THF     H412294   0.959   2.213   4.090  0.4587 -2.7618  1.2214
  631THF     H512295   0.815   2.309   4.124 -0.6395  0.4985  0.6690
  631THF     H612296   1.087   2.259   4.416  0.3835 -1.3279 -0.0500
  631THF     H712297   0.922   2.292   4.464  0.4833 -0.9124  0.6235
  631THF     C812298   0.927   2.110   4.348 -0.5867  0.1903 -0.0084
  631THF     C912299   0.827   2.123   4.232 -0.4726 -0.2872  0.0483
  631THF    H1012300   0.878   2.055   4.429  2.8140 -4.0486 -0.4269
  631THF    H1112301   1.009   2.045   4.317 -2.1596 -1.4782 -0.9186
  631THF    H1212302   0.809   2.034   4.173 -2.4730  0.2293 -0.1818
  631THF    H1312303   0.728   2.155   4.266  0.1669  2.8217 -0.7236
  632THF     O112304   2.740   1.474   2.101  0.1439  0.5904 -0.2227
  632THF     C212305   2.603   1.461   2.068 -0.2010  0.5048  0.8419
  632THF     C312306   2.749   1.459   2.244 -0.2145 -0.3219 -0.0056
  632THF     H412307   2.591   1.444   1.961 -2.0788  1.8742  0.7984
  632THF     H512308   2.555   1.556   2.091 -2.6511 -0.2513 -0.7347
  632THF     H612309   2.836   1.395   2.256  0.3498  0.5255  0.5345
  632THF     H712310   2.756   1.560   2.284 -0.3287 -0.1115 -0.5056
  632THF     C812311   2.628   1.390   2.287  0.4991 -0.3786 -0.3851
  632THF     C912312   2.551   1.352   2.160 -0.6361  0.2680 -0.0050
  632THF    H1012313   2.566   1.454   2.350 -0.3705 -0.8587 -0.7281
  632THF    H1112314   2.657   1.297   2.336  0.9104 -1.0357 -1.8202
  632THF    H1212315   2.563   1.248   2.131 -3.2155  0.2753 -1.4404
  632THF    H1312316   2.443   1.364   2.168 -1.0233 -1.3396 -2.0044
  633THF     O112317   0.386   0.792   3.993  0.6851 -0.0969  0.2278
  633THF     C212318   0.491   0.798   4.085 -0.2307  0.4695  0.2831
  633THF     C312319   0.338   0.661   4.003  0.0276  0.0195 -0.4527
  633THF     H412320   0.443   0.807   4.182 -1.0652  1.7654 -0.2202
  633THF     H512321   0.565   0.875   4.060 -1.1565  1.2187 -0.1964
  633THF     H612322   0.277   0.633   4.089 -1.2445  3.1864 -0.1573
  633THF     H712323   0.274   0.645   3.916 -0.3533  2.2523 -0.6522
  633THF     C812324   0.451   0.568   4.000 -1.2438  0.7756  0.6995
  633THF     C912325   0.554   0.659   4.085  0.0788  0.4640  0.1134
  633THF    H1012326   0.491   0.546   3.901 -1.4747 -1.9614  1.1490
  633THF    H1112327   0.437   0.478   4.059 -0.7443  0.5762  0.5202
  633THF    H1212328   0.569   0.624   4.187  0.4292 -0.8916 -0.3839
  633THF    H1312329   0.652   0.668   4.038  0.2112  0.0215  0.3073
  634THF     O112330   1.529   0.028   5.384  0.3373  0.6197 -0.4054
  634THF     C212331   1.429  -0.057   5.332 -0.0963 -0.1344  0.0883
  634THF     C312332   1.649   0.016   5.303 -0.3054 -0.3412  0.2698
  634THF     H412333   1.332  -0.008   5.343 -0.0216 -0.0593  0.4114
  634THF     H512334   1.425  -0.158   5.373  2.4543 -1.0973 -1.7554
  634THF     H612335   1.681   0.118   5.280 -1.6424  0.4064  1.5398
  634THF     H712336   1.733  -0.041   5.344 -0.5638 -1.6950 -0.9980
  634THF     C812337   1.605  -0.060   5.174 -0.1735 -0.0565  0.4334
  634THF     C912338   1.456  -0.053   5.180 -0.0802  0.7450  0.3119
  634THF    H1012339   1.623  -0.165   5.198 -2.0519 -0.3201  0.7817
  634THF    H1112340   1.659  -0.031   5.083  1.0337 -0.8172  0.8863
  634THF    H1212341   1.416   0.040   5.140 -1.5211  0.4773  1.0471
  634THF    H1312342   1.412  -0.138   5.128  0.1929  0.3168  0.7699
  635THF     O112343   4.155   2.730   3.563 -0.0275  0.2027  0.0093
  635THF     C212344   4.271   2.665   3.524 -0.1830 -0.0947 -0.0411
  635THF     C312345   4.163   2.850   3.496 -0.0456 -1.5772 -0.4890
  635THF     H412346   4.263   2.622   3.424  0.4222  3.1090 -1.6182
  635THF     H512347   4.294   2.586   3.596 -0.9380  0.0859  0.4050
  635THF     H612348   4.151   2.827   3.390  1.6316 -0.8075 -0.8802
  635THF     H712349   4.082   2.917   3.526  0.0360 -1.2076 -1.0869
  635THF     C812350   4.304   2.892   3.529 -0.4089 -0.6336  0.4052
  635THF     C912351   4.381   2.763   3.520 -0.5614  0.0426  0.3212
  635THF    H1012352   4.330   2.933   3.626  0.5748  0.0317 -0.1210
  635THF    H1112353   4.344   2.955   3.449 -0.2678  0.2533  1.1552
  635THF    H1212354   4.427   2.754   3.421 -0.3669 -0.6122  0.4668
  635THF    H1312355   4.454   2.737   3.596 -0.8168 -1.3916  0.1052
  636THF     O112356   2.075   3.834   3.231 -0.2114 -0.4871  0.2397
  636THF     C212357   2.133   3.950   3.292 -0.2876  0.3595  0.0419
  636THF     C312358   1.941   3.832   3.289  0.1744  1.4557 -0.6702
  636THF     H412359   2.082   4.032   3.240 -1.0024  0.5730  1.0544
  636THF     H512360   2.241   3.957   3.278  0.1640 -0.7277  2.5326
  636THF     H612361   1.877   3.910   3.248  0.9732  1.3173 -2.2628
  636THF     H712362   1.906   3.731   3.272  0.5306  1.1876  0.1353
  636THF     C812363   1.970   3.839   3.439  0.2756  1.0006  0.0581
  636THF     C912364   2.093   3.928   3.435  0.6145  0.1658 -0.4528
  636THF    H1012365   1.997   3.735   3.462 -2.5035  0.0164 -0.7980
  636THF    H1112366   1.885   3.883   3.491 -0.6908 -0.2009 -0.4681
  636THF    H1212367   2.057   4.018   3.485 -0.2355 -1.5044  2.1885
  636THF    H1312368   2.184   3.892   3.484  0.3248 -0.1987 -0.1700
  637THF     O112369   4.732   3.119   1.156  0.0614  0.0610  0.0959
  637THF     C212370   4.713   3.253   1.106 -0.0618 -0.5688  0.7489
  637THF     C312371   4.605   3.052   1.165  0.0001  0.6981 -0.1059
  637THF     H412372   4.742   3.239   1.002  0.0381  1.3530  0.4906
  637THF     H512373   4.775   3.319   1.167  0.2320 -1.8922  1.9596
  637THF     H612374   4.625   2.954   1.122 -1.4348  0.3693 -0.0767
  637THF     H712375   4.576   3.039   1.269 -0.7315  3.6948  0.1418
  637THF     C812376   4.510   3.143   1.086  0.9433  0.1330 -0.2731
  637THF     C912377   4.567   3.280   1.118  0.2639 -0.1489 -0.1727
  637THF    H1012378   4.405   3.143   1.117  0.2697  0.2751 -2.4022
  637THF    H1112379   4.507   3.120   0.980 -2.0974  0.4536 -0.3402
  637THF    H1212380   4.533   3.366   1.060  0.9087  0.5347  0.4360
  637THF    H1312381   4.542   3.297   1.222  1.1132  0.1227 -0.0055
  638THF     O112382   2.471   3.755   4.048  0.1796  0.0463 -0.2070
  638THF     C212383   2.572   3.684   4.125 -0.7011 -0.0718  0.0308
  638THF     C312384   2.471   3.703   3.916 -0.0276 -0.0943  0.2182
  638THF     H412385   2.552   3.646   4.225  0.4807 -1.5263 -0.2519
  638THF     H512386   2.647   3.763   4.130 -1.7453  1.0555 -1.2041
  638THF     H612387   2.389   3.631   3.906  2.1213 -2.3987 -2.4707
  638THF     H712388   2.454   3.785   3.846 -1.6116  0.9873  1.7707
  638THF     C812389   2.613   3.644   3.894  0.1292 -0.2126 -0.8452
  638THF     C912390   2.634   3.573   4.026 -0.4413 -0.1531  0.0450
  638THF    H1012391   2.696   3.713   3.879  0.0744 -0.2028 -1.0986
  638THF    H1112392   2.620   3.579   3.807  3.6689 -0.6854 -0.3323
  638THF    H1212393   2.575   3.481   4.030  0.7840 -0.9209  1.0366
  638THF    H1312394   2.737   3.542   4.043 -1.0393 -1.8671  0.8045
  639THF     O112395   5.089   1.674   0.446  0.4896  0.1884 -0.0454
  639THF     C212396   5.228   1.676   0.479  0.2139 -0.6995  0.5109
  639THF     C312397   5.005   1.677   0.558  0.0659 -0.6906  1.1808
  639THF     H412398   5.294   1.751   0.435  2.4672 -3.7594 -1.7713
  639THF     H512399   5.264   1.576   0.459  0.4759 -0.5563  0.2546
  639THF     H612400   4.955   1.774   0.553  0.4430 -0.5416 -2.4510
  639THF     H712401   4.925   1.604   0.567  1.2409 -1.8802  2.8139
  639THF     C812402   5.098   1.659   0.679 -0.8156 -0.7884 -0.0060
  639THF     C912403   5.227   1.709   0.630 -0.0734 -0.4696  0.1253
  639THF    H1012404   5.110   1.559   0.721 -2.1693 -0.8137  0.3693
  639THF    H1112405   5.065   1.715   0.766  1.4377  1.5424 -0.5386
  639THF    H1212406   5.216   1.817   0.637 -0.4214 -0.2971 -2.0832
  639THF    H1312407   5.318   1.679   0.683  0.0138  1.1848  0.9683
  640THF     O112408   4.551   1.204   4.084  0.5050 -0.1198  0.4353
  640THF     C212409   4.571   1.280   4.200  0.7277 -0.5028  0.3268
  640THF     C312410   4.472   1.097   4.129  0.5779 -0.4159  0.1768
  640THF     H412411   4.616   1.379   4.192 -0.3808 -0.0980 -1.9741
  640THF     H512412   4.638   1.221   4.261 -0.4892 -1.0874  1.1282
  640THF     H612413   4.423   1.043   4.047  1.5987  1.6784 -1.9179
  640THF     H712414   4.535   1.028   4.186 -0.6072 -2.6372 -1.0239
  640THF     C812415   4.375   1.158   4.234 -0.7818 -0.3231  0.1560
  640THF     C912416   4.446   1.287   4.275  0.2197  0.3734 -0.3699
  640THF    H1012417   4.366   1.082   4.312  0.8613 -0.4822  0.2346
  640THF    H1112418   4.277   1.180   4.192 -0.4873 -1.5291 -1.2352
  640THF    H1212419   4.385   1.372   4.244  0.2963  0.2325 -0.9243
  640THF    H1312420   4.473   1.279   4.380 -2.3397  0.3182  0.3531
  641THF     O112421   3.510   2.769   1.191  0.1392  0.1712 -0.2966
  641THF     C212422   3.605   2.672   1.241  0.6015 -0.5367  0.4862
  641THF     C312423   3.488   2.876   1.279 -0.6382  0.2026  0.0309
  641THF     H412424   3.691   2.711   1.186  1.2759  0.6062  2.2640
  641THF     H512425   3.584   2.567   1.219  1.9055 -0.5097 -1.1617
  641THF     H612426   3.562   2.954   1.260 -1.6660  0.9326 -1.0743
  641THF     H712427   3.393   2.921   1.252 -0.3729 -0.1256 -1.4929
  641THF     C812428   3.509   2.814   1.418  1.4405  0.3457 -0.5017
  641THF     C912429   3.610   2.709   1.397 -0.5652  0.3213  0.6293
  641THF    H1012430   3.416   2.767   1.448  0.4130  2.4413 -0.2657
  641THF    H1112431   3.531   2.885   1.498 -0.1441 -0.1697  0.4247
  641THF    H1212432   3.710   2.751   1.410 -0.7772  0.4985  1.8595
  641THF    H1312433   3.598   2.616   1.454  2.0705 -0.7655 -0.3984
  642THF     O112434   4.805   3.732   4.786 -0.1089 -0.2081 -0.2609
  642THF     C212435   4.735   3.842   4.840  0.2479  0.5090 -0.3794
  642THF     C312436   4.770   3.616   4.858  0.2512  0.2667 -0.4851
  642THF     H412437   4.638   3.856   4.791 -1.2124 -2.0421  1.5223
  642THF     H512438   4.792   3.934   4.831 -0.7489  1.3060  1.0061
  642THF     H612439   4.749   3.546   4.778  1.3344  0.4576 -0.9596
  642THF     H712440   4.865   3.589   4.904  0.1729  0.2368 -0.3422
  642THF     C812441   4.665   3.654   4.961 -0.8614 -1.0598  0.4719
  642THF     C912442   4.702   3.802   4.978 -0.1855  0.1575 -0.8822
  642THF    H1012443   4.665   3.590   5.049 -0.2458 -0.4503  0.9257
  642THF    H1112444   4.567   3.644   4.914 -0.8143  0.3286  0.0206
  642THF    H1212445   4.631   3.870   5.025  1.2579  1.5797 -0.6850
  642THF    H1312446   4.793   3.797   5.038 -0.5521 -2.3216 -0.4148
  643THF     O112447   3.655   4.361   4.802 -0.3882 -0.5056  0.4331
  643THF     C212448   3.569   4.344   4.686 -0.3434 -0.5443 -0.6144
  643THF     C312449   3.679   4.234   4.854  0.2444  0.9044 -0.1175
  643THF     H412450   3.569   4.430   4.619  0.9478 -2.0591 -2.6577
  643THF     H512451   3.468   4.330   4.726 -0.2575 -1.7685 -0.8075
  643THF     H612452   3.759   4.239   4.928  0.2461 -1.0757  0.0680
  643THF     H712453   3.591   4.210   4.914  0.5288 -1.9504 -0.6969
  643THF     C812454   3.709   4.144   4.735 -0.1150 -0.2807 -0.0629
  643THF     C912455   3.620   4.208   4.634 -0.2031  0.2937 -0.4001
  643THF    H1012456   3.684   4.044   4.769  0.1736 -0.8139 -1.3649
  643THF    H1112457   3.816   4.134   4.720 -0.2398 -2.1136  0.0706
  643THF    H1212458   3.672   4.216   4.538  1.6424 -1.9944  0.2900
  643THF    H1312459   3.532   4.146   4.617  0.6670 -1.1675  0.1923
  644THF     O112460   4.868   2.641   0.953 -0.5354 -0.2657 -0.3536
  644THF     C212461   4.788   2.727   0.866 -0.0888 -0.0326 -0.6311
  644THF     C312462   4.786   2.607   1.062  0.7046 -0.0755 -0.1447
  644THF     H412463   4.822   2.731   0.763  0.8406  3.6551 -0.3153
  644THF     H512464   4.790   2.830   0.899 -0.6842 -0.7924  2.0252
  644THF     H612465   4.832   2.519   1.106  1.0143  1.0012  1.7941
  644THF     H712466   4.793   2.673   1.149  2.0957 -0.1424 -0.1707
  644THF     C812467   4.644   2.594   1.004 -0.3561 -0.8443 -0.0179
  644THF     C912468   4.641   2.677   0.869  0.5074  0.2361  0.1416
  644THF    H1012469   4.570   2.631   1.075  0.6507 -1.3903  1.3488
  644THF    H1112470   4.619   2.490   0.984  0.2485 -1.0344  0.1968
  644THF    H1212471   4.610   2.614   0.786  2.5188 -0.2928 -0.2744
  644THF    H1312472   4.577   2.763   0.889  0.3218 -0.3045  2.0336
  645THF     O112473   3.604   1.810   3.521  0.6482  0.0528 -0.2218
  645THF     C212474   3.541   1.700   3.457 -0.4988 -0.0968 -0.1697
  645THF     C312475   3.542   1.848   3.644  0.6559  0.5667 -0.2547
  645THF     H412476   3.605   1.637   3.395 -1.1695  0.3663 -1.3450
  645THF     H512477   3.470   1.749   3.392  0.6338  0.9890 -0.6249
  645THF     H612478   3.615   1.906   3.699  0.7084 -0.0944  0.3955
  645THF     H712479   3.449   1.902   3.628  1.1803  1.3341 -0.7812
  645THF     C812480   3.509   1.707   3.699 -0.7291  0.1068  0.2681
  645THF     C912481   3.482   1.616   3.575 -0.3800 -0.1594  0.1009
  645THF    H1012482   3.424   1.710   3.766  0.4657  2.7574  1.7910
  645THF    H1112483   3.600   1.672   3.748 -1.2549 -2.0266 -0.1821
  645THF    H1212484   3.523   1.516   3.590 -0.6770  0.0635  3.0744
  645THF    H1312485   3.375   1.604   3.555 -0.5681  1.5528 -0.0365
  646THF     O112486   4.641   3.657   5.500 -0.4707  0.3625 -0.4060
  646THF     C212487   4.714   3.577   5.402  0.1391  0.1947 -0.1036
  646THF     C312488   4.523   3.681   5.442 -0.3519 -0.8027 -0.2536
  646THF     H412489   4.806   3.529   5.434  1.2988  2.2475 -0.1496
  646THF     H512490   4.735   3.628   5.308 -1.4028  3.7110  1.2849
  646THF     H612491   4.443   3.730   5.499 -0.4583 -0.5647 -0.6042
  646THF     H712492   4.538   3.750   5.359 -0.3948 -0.4042  0.0627
  646THF     C812493   4.477   3.544   5.408 -0.0660 -0.4092 -0.1990
  646THF     C912494   4.609   3.470   5.380 -0.0216 -0.2166  0.3124
  646THF    H1012495   4.407   3.530   5.325  1.7444 -1.7783 -1.5862
  646THF    H1112496   4.431   3.498   5.495 -0.4670 -1.8627 -1.1500
  646THF    H1212497   4.620   3.380   5.440 -0.6227 -1.3010 -1.1407
  646THF    H1312498   4.606   3.444   5.274 -2.2107 -0.8474  0.4787
  647THF     O112499   5.084   2.995   4.649  0.4703 -0.4851 -0.4032
  647THF     C212500   4.978   3.086   4.635 -0.1752 -0.0201 -0.3922
  647THF     C312501   5.165   3.044   4.760  0.1779  0.6907  0.0090
  647THF     H412502   4.888   3.054   4.582 -0.3640 -1.0058  0.4960
  647THF     H512503   5.014   3.185   4.608  0.6993 -0.2108  0.0299
  647THF     H612504   5.216   2.963   4.812 -0.8146 -0.3816 -0.6346
  647THF     H712505   5.235   3.118   4.720  0.6989 -0.9794 -2.4240
  647THF     C812506   5.066   3.104   4.860  0.8594 -0.0711  0.3660
  647THF     C912507   4.937   3.103   4.781  0.4894 -0.0074 -0.5376
  647THF    H1012508   5.089   3.210   4.875  1.1425  0.0712 -0.9247
  647THF    H1112509   5.060   3.050   4.954 -0.2453  0.6178  0.7109
  647THF    H1212510   4.883   3.014   4.815  0.6580 -0.1011 -0.5097
  647THF    H1312511   4.873   3.190   4.793  1.3835  0.3906  1.8940
  648THF     O112512   1.026   1.916   1.765  0.3461 -0.6200 -0.2140
  648THF     C212513   1.113   1.859   1.670  0.3588  0.2739 -0.3759
  648THF     C312514   0.896   1.900   1.707 -0.4822 -0.0896  0.1144
  648THF     H412515   1.210   1.827   1.710  0.6424  0.9732 -0.4920
  648THF     H512516   1.137   1.941   1.602  0.7121  3.3838  3.2086
  648THF     H612517   0.809   1.918   1.770 -0.6990 -0.3515 -0.1078
  648THF     H712518   0.892   1.974   1.627  0.0660  0.4513  0.5762
  648THF     C812519   0.901   1.756   1.649  0.4053 -0.3557 -0.0038
  648THF     C912520   1.047   1.745   1.600  0.2566  0.0636  0.6823
  648THF    H1012521   0.826   1.734   1.574 -0.3994  0.9403  0.3920
  648THF    H1112522   0.885   1.695   1.738 -0.3581  0.6121  0.5325
  648THF    H1212523   1.088   1.648   1.629  0.0492  0.6940  3.3459
  648THF    H1312524   1.051   1.743   1.491  0.0270 -2.3085  0.6633
  649THF     O112525   2.941   3.040   1.676 -0.1983  0.7582  0.1879
  649THF     C212526   2.989   2.974   1.558  0.0101 -0.4883 -0.7324
  649THF     C312527   2.943   2.929   1.771 -0.2988  0.1987  0.3763
  649THF     H412528   3.095   2.998   1.554  0.1126 -0.8359 -0.3095
  649THF     H512529   2.949   3.023   1.470  1.4812 -0.2382 -1.2989
  649THF     H612530   3.042   2.906   1.809 -0.0570  0.0374 -0.3362
  649THF     H712531   2.892   2.959   1.862 -0.1714  0.6962  0.2887
  649THF     C812532   2.886   2.808   1.704  0.7079  0.5420 -0.8481
  649THF     C912533   2.951   2.825   1.570 -0.3005 -0.2955  0.0597
  649THF    H1012534   2.778   2.819   1.697  0.0426 -1.8999  2.7489
  649THF    H1112535   2.912   2.717   1.758 -2.3616  0.3458  0.4924
  649THF    H1212536   3.042   2.765   1.578  0.5052  0.7924 -0.6793
  649THF    H1312537   2.891   2.784   1.489 -0.3905  0.9742 -0.5349
  650THF     O112538   0.663   3.501   4.729  0.4044  0.7412  0.4713
  650THF     C212539   0.741   3.595   4.789  0.4195  0.7046  1.2540
  650THF     C312540   0.734   3.436   4.629  0.4821 -0.1802  0.3451
  650THF     H412541   0.806   3.547   4.863 -0.4313 -0.8447  1.0333
  650THF     H512542   0.689   3.677   4.838  1.1625  1.8884  0.1304
  650THF     H612543   0.785   3.352   4.676 -0.0243  0.5089  2.2145
  650THF     H712544   0.667   3.400   4.551 -0.2217  0.0611  0.8284
  650THF     C812545   0.823   3.536   4.568  0.6691 -0.3917 -0.2650
  650THF     C912546   0.830   3.650   4.675  0.4332  0.1917 -0.0304
  650THF    H1012547   0.777   3.571   4.475 -0.3705 -1.8116 -0.3230
  650THF    H1112548   0.923   3.497   4.552  1.9594  1.5769  2.3563
  650THF    H1212549   0.933   3.674   4.701  0.7629  1.3224 -2.1263
  650THF    H1312550   0.788   3.738   4.626 -0.6948 -0.4274 -0.2068
  651THF     O112551   4.932   0.604   3.555 -0.8695  0.0547  0.0113
  651THF     C212552   5.041   0.694   3.543  0.0757 -0.3946 -0.4280
  651THF     C312553   4.938   0.558   3.691 -0.5344 -0.0501 -0.2028
  651THF     H412554   5.017   0.773   3.614  0.5140 -1.5655  1.0820
  651THF     H512555   5.068   0.740   3.448 -1.2780  0.8271 -0.2676
  651THF     H612556   4.898   0.632   3.760  0.7020 -0.1136  0.6120
  651THF     H712557   4.868   0.475   3.692 -1.0736  0.3955 -0.4072
  651THF     C812558   5.083   0.521   3.700 -0.2967  0.4341 -0.2855
  651THF     C912559   5.162   0.621   3.608  0.1985  1.0128  0.1340
  651THF    H1012560   5.092   0.421   3.659 -0.9697  0.1183  0.3088
  651THF    H1112561   5.126   0.504   3.799  0.7468  0.1113 -0.7766
  651THF    H1212562   5.209   0.690   3.678 -0.5618  0.6084  1.0847
  651THF    H1312563   5.230   0.563   3.546  0.5994  2.5002 -0.8442
  652THF     O112564   0.202   0.029   1.451  0.2485 -0.6938 -0.0361
  652THF     C212565   0.205  -0.107   1.418 -0.2372  0.6362  0.4418
  652THF     C312566   0.326   0.062   1.511 -0.7584 -0.2105  0.3638
  652THF     H412567   0.236  -0.121   1.315 -1.6619  0.4996  0.0106
  652THF     H512568   0.104  -0.148   1.424 -0.3020  0.8011  0.4899
  652THF     H612569   0.394   0.083   1.429 -0.1925  0.6386  1.0271
  652THF     H712570   0.330   0.143   1.584 -0.0498 -0.5171  0.6719
  652THF     C812571   0.373  -0.070   1.581  0.3863 -0.3021 -0.6634
  652THF     C912572   0.285  -0.176   1.529 -0.1739  0.0303 -0.0200
  652THF    H1012573   0.359  -0.066   1.689  3.5379 -1.3283 -0.1053
  652THF    H1112574   0.482  -0.076   1.570  0.3507 -0.4326 -0.9328
  652THF    H1212575   0.333  -0.268   1.496 -0.3636  0.2839 -1.0686
  652THF    H1312576   0.217  -0.208   1.607 -0.8930  1.2423 -0.1265
  653THF     O112577   3.537   4.994   4.293  0.2017 -0.1147 -0.2450
  653THF     C212578   3.417   5.009   4.368  0.2696  0.2243 -0.0119
  653THF     C312579   3.637   5.085   4.337  0.2728  0.5462 -0.3873
  653THF     H412580   3.423   4.961   4.466  0.2026 -0.0685 -0.1498
  653THF     H512581   3.323   4.983   4.320  1.9589 -1.0729 -2.8652
  653THF     H612582   3.708   5.040   4.407 -0.8064  0.5829  0.7673
  653THF     H712583   3.693   5.127   4.254  1.1419  1.9703  0.8723
  653THF     C812584   3.557   5.197   4.398 -0.2632 -0.7736  0.0275
  653THF     C912585   3.413   5.158   4.391  0.1690  0.2227  0.2283
  653THF    H1012586   3.581   5.294   4.355  0.1594 -1.4281 -1.2760
  653THF    H1112587   3.600   5.196   4.498  2.8874  3.4835 -1.0273
  653THF    H1212588   3.357   5.181   4.481 -1.6957  1.0064 -1.0659
  653THF    H1312589   3.356   5.209   4.313 -1.2043 -1.8338 -0.2129
  654THF     O112590   4.766   2.707   5.364  0.4373 -0.4647  0.0501
  654THF     C212591   4.626   2.735   5.386 -0.2621 -0.8521 -0.0360
  654THF     C312592   4.773   2.685   5.228  0.1793 -0.4436 -0.2257
  654THF     H412593   4.610   2.789   5.479  0.8588  1.2686 -1.0035
  654THF     H512594   4.568   2.643   5.383 -2.3069  0.2917  1.8054
  654THF     H612595   4.873   2.677   5.186  0.3903  0.3140  0.1217
  654THF     H712596   4.736   2.583   5.216 -1.8114  0.0518  1.1970
  654THF     C812597   4.690   2.795   5.163  0.1799  0.3466 -0.5193
  654THF     C912598   4.589   2.825   5.270  0.8887 -0.1608  0.5401
  654THF    H1012599   4.656   2.763   5.064  0.5904  0.4833 -0.7068
  654THF    H1112600   4.758   2.879   5.158  1.2547 -0.2119  2.4105
  654THF    H1212601   4.583   2.928   5.304  2.5698 -0.1884  0.9756
  654THF    H1312602   4.488   2.798   5.239  0.6703  0.6267  0.5366
  655THF     O112603   1.843   5.092   4.244  0.0681 -0.4088 -0.0734
  655THF     C212604   1.859   4.959   4.281  0.6284  0.6112 -0.5601
  655THF     C312605   1.768   5.158   4.344 -0.3111  0.1146  0.0059
  655THF     H412606   1.931   4.950   4.363  1.8844 -0.9586 -1.7659
  655THF     H512607   1.901   4.898   4.201 -0.2172 -0.8717  0.0845
  655THF     H612608   1.823   5.168   4.437  1.0548  2.3422 -0.9622
  655THF     H712609   1.731   5.258   4.323  2.1711  0.9205 -0.8346
  655THF     C812610   1.657   5.061   4.375 -0.1225  1.1081  0.7134
  655THF     C912611   1.715   4.926   4.326  0.8116 -0.1085  0.8558
  655THF    H1012612   1.573   5.087   4.310 -1.9292 -1.9990  1.6021
  655THF    H1112613   1.630   5.059   4.481 -1.7825  0.6946  0.3207
  655THF    H1212614   1.722   4.848   4.402 -1.0250  0.0213  1.2032
  655THF    H1312615   1.648   4.894   4.245  2.4198 -0.2146 -0.4936
  656THF     O112616   2.604   1.055   5.459 -0.7148 -0.3422  0.1717
  656THF     C212617   2.604   0.948   5.363 -0.0419 -0.3672 -0.4119
  656THF     C312618   2.700   1.148   5.398 -0.0903 -0.3489 -0.0674
  656THF     H412619   2.509   0.896   5.362  0.3695 -1.1309 -1.4206
  656THF     H512620   2.685   0.876   5.375 -0.9757 -1.2110  1.0119
  656THF     H612621   2.708   1.240   5.455  2.0982 -0.0642 -0.7417
  656THF     H712622   2.796   1.097   5.383 -0.6214 -0.7420 -2.7320
  656THF     C812623   2.648   1.165   5.258 -0.4206  0.1249 -0.5550
  656THF     C912624   2.602   1.019   5.225  0.4233 -0.0777 -0.3519
  656THF    H1012625   2.722   1.215   5.196 -0.5485 -1.0128 -1.6602
  656THF    H1112626   2.570   1.241   5.267  0.8536  1.2172  1.9695
  656THF    H1212627   2.498   1.023   5.191 -0.0906 -0.1113  1.1142
  656THF    H1312628   2.664   0.974   5.148 -0.3064 -2.1745  0.2080
  657THF     O112629   2.599   1.134   3.343  0.0169 -0.0012  0.3599
  657THF     C212630   2.501   1.114   3.447 -1.1223  0.1132  0.0279
  657THF     C312631   2.588   1.261   3.283 -0.1747  0.0551  0.0385
  657THF     H412632   2.540   1.116   3.549  0.8097 -0.9250 -0.6470
  657THF     H512633   2.445   1.022   3.436  1.2140 -1.5459  1.2343
  657THF     H612634   2.640   1.337   3.341  3.7170 -2.0283 -0.3729
  657THF     H712635   2.620   1.267   3.179  2.0105  0.7543  0.7005
  657THF     C812636   2.443   1.284   3.287  0.5341  0.4190 -0.3297
  657THF     C912637   2.401   1.229   3.419 -0.3267 -0.1210 -0.1475
  657THF    H1012638   2.391   1.229   3.208  0.2025  1.1373 -0.6249
  657THF    H1112639   2.420   1.390   3.272  2.9133  1.1723  0.8198
  657THF    H1212640   2.409   1.310   3.492  0.8583  0.2593 -0.6787
  657THF    H1312641   2.299   1.191   3.411 -0.5778  0.4902  0.0175
  658THF     O112642   3.117   2.775   0.481  0.3510  0.5705 -0.4964
  658THF     C212643   3.072   2.712   0.360  0.2333 -0.6661  0.0716
  658THF     C312644   3.083   2.696   0.595  0.4941  0.4773  0.5390
  658THF     H412645   3.122   2.748   0.270  2.0029 -0.9876  0.8815
  658THF     H512646   2.963   2.712   0.359  0.1813  1.5127 -1.2849
  658THF     H612647   3.161   2.694   0.671  2.8701  1.7463 -1.7115
  658THF     H712648   2.987   2.726   0.636 -1.6522 -0.6608 -3.1916
  658THF     C812649   3.080   2.556   0.529  0.5268  0.3342  0.2208
  658THF     C912650   3.112   2.574   0.379 -0.5543 -0.1188  0.8405
  658THF    H1012651   2.976   2.525   0.525  1.1856 -1.9331 -1.5072
  658THF    H1112652   3.143   2.478   0.571  1.2215  0.9372  0.3287
  658THF    H1212653   3.220   2.577   0.365 -0.6104  0.0206  0.4082
  658THF    H1312654   3.079   2.507   0.299 -0.2799  0.6583  0.0601
  659THF     O112655   2.268   3.452   3.129 -0.5799  0.6120  0.4106
  659THF     C212656   2.269   3.313   3.167 -0.4806 -0.2077 -0.1180
  659THF     C312657   2.207   3.528   3.230 -0.2148 -0.4937  0.2834
  659THF     H412658   2.372   3.279   3.174 -0.7862 -1.2882 -0.6802
  659THF     H512659   2.218   3.248   3.096 -1.1900 -2.1698  2.0996
  659THF     H612660   2.224   3.636   3.235 -0.3998 -0.4125 -0.6234
  659THF     H712661   2.100   3.519   3.209 -0.6643  2.6033  0.7551
  659THF     C812662   2.236   3.455   3.356 -0.0669  0.0674 -0.0573
  659THF     C912663   2.217   3.314   3.309 -0.3037  0.6992  0.0802
  659THF    H1012664   2.174   3.481   3.442  0.3009  2.7970 -0.5406
  659THF    H1112665   2.340   3.477   3.383 -0.0241 -0.9643  0.6773
  659THF    H1212666   2.268   3.239   3.369  0.9813  0.9147 -0.6984
  659THF    H1312667   2.114   3.290   3.283 -0.8146  0.7171  1.9720
  660THF     O112668   4.822   2.811   4.335  0.0445 -0.3212  0.3416
  660THF     C212669   4.961   2.806   4.318 -0.1751 -0.4609  0.9464
  660THF     C312670   4.772   2.925   4.271  0.5030 -0.0123  0.1748
  660THF     H412671   5.008   2.710   4.340 -0.7461 -1.2460 -0.9747
  660THF     H512672   5.007   2.876   4.387  3.2298  0.3411 -1.8302
  660THF     H612673   4.664   2.917   4.269  0.5023 -0.7148  1.5807
  660THF     H712674   4.800   3.008   4.335 -0.6256 -1.2804  2.4290
  660THF     C812675   4.846   2.934   4.139 -0.2133 -0.6377  0.2959
  660THF     C912676   4.975   2.851   4.170 -0.4117 -0.6178  0.6165
  660THF    H1012677   4.866   3.038   4.113  0.3802 -1.4424 -3.0332
  660THF    H1112678   4.797   2.896   4.049 -1.8576  0.8279  0.5365
  660THF    H1212679   4.989   2.772   4.096 -1.6009  2.1220 -2.7607
  660THF    H1312680   5.071   2.902   4.167 -0.4781 -0.4411  1.2615
  661THF     O112681   5.265   0.381   3.022  0.3594  0.4372  0.0888
  661THF     C212682   5.224   0.512   3.024 -0.0220 -0.2699  0.2453
  661THF     C312683   5.202   0.321   3.129 -0.2667 -0.5224  0.2244
  661THF     H412684   5.143   0.526   2.953 -2.4381  0.5943  2.9913
  661THF     H512685   5.307   0.569   2.981 -0.7424 -1.5454 -3.1829
  661THF     H612686   5.099   0.295   3.105 -0.3599 -0.0191  0.0629
  661THF     H712687   5.235   0.226   3.170 -0.2789 -1.9560 -2.8385
  661THF     C812688   5.202   0.424   3.239  0.4058 -0.0342  0.6430
  661THF     C912689   5.174   0.551   3.164 -0.2658  0.0611  0.0518
  661THF    H1012690   5.291   0.425   3.302 -1.1641 -1.6796  3.0547
  661THF    H1112691   5.122   0.413   3.313  1.7717 -2.0864  1.9103
  661THF    H1212692   5.069   0.580   3.163  0.2483  2.1056 -0.0308
  661THF    H1312693   5.233   0.632   3.207  0.3184 -0.7013  0.7071
  662THF     O112694   0.279   1.207   1.336 -1.3925  0.2874  0.0592
  662THF     C212695   0.358   1.248   1.219 -0.5648  0.0022 -0.2394
  662THF     C312696   0.144   1.194   1.290 -0.2776  0.6013 -0.1756
  662THF     H412697   0.464   1.233   1.238 -0.2699  2.4149  0.3048
  662THF     H512698   0.345   1.356   1.212 -1.5007  0.0556  1.5131
  662THF     H612699   0.087   1.125   1.353 -0.2854  0.1399 -0.6836
  662THF     H712700   0.101   1.293   1.299  0.5438  0.7724  2.9599
  662THF     C812701   0.157   1.167   1.142 -0.5422  0.1813 -0.5927
  662THF     C912702   0.301   1.164   1.109 -1.0803  0.3304  0.0296
  662THF    H1012703   0.096   1.237   1.086  0.5408  0.8458 -0.9700
  662THF    H1112704   0.119   1.068   1.118 -1.1533  0.9837 -3.2136
  662THF    H1212705   0.332   1.062   1.129 -0.1387  0.8429  1.3711
  662THF    H1312706   0.324   1.196   1.008  0.2994 -0.0956  0.1971
  663THF     O112707   5.054   0.664   4.743  0.2174 -0.1659  0.5025
  663THF     C212708   5.094   0.722   4.617 -0.2483  0.5174 -0.1493
  663THF     C312709   4.928   0.595   4.728 -0.2741 -0.1612 -0.3259
  663THF     H412710   5.200   0.699   4.601  0.4945  1.3517  2.9497
  663THF     H512711   5.077   0.829   4.632 -2.8274 -0.0596  1.6511
  663THF     H612712   4.940   0.487   4.738  3.1469  0.0070 -1.3344
  663THF     H712713   4.855   0.630   4.801 -0.1011  1.2000 -0.7802
  663THF     C812714   4.869   0.640   4.595  0.4746 -0.2698 -0.1515
  663THF     C912715   4.995   0.673   4.512  0.3387 -0.6078 -0.2609
  663THF    H1012716   4.806   0.727   4.612 -0.6145 -0.6315 -2.0209
  663THF    H1112717   4.803   0.563   4.555  1.5840 -0.7222 -1.1951
  663THF    H1212718   5.030   0.580   4.467 -1.0701 -0.6407 -1.3277
  663THF    H1312719   4.971   0.745   4.434  1.1054  1.3434  1.2234
  664THF     O112720   4.108   0.335   4.893 -0.6778 -0.0714  1.0945
  664THF     C212721   4.187   0.408   4.985 -0.4073 -0.3086  0.1129
  664THF     C312722   4.010   0.269   4.972 -0.1561 -0.3361  0.1340
  664THF     H412723   4.260   0.473   4.936 -0.3279  0.5543  1.3093
  664THF     H512724   4.249   0.346   5.050 -0.4867 -1.6074 -0.9984
  664THF     H612725   3.924   0.220   4.928  0.1679  0.9618 -2.1421
  664THF     H712726   4.060   0.187   5.024 -0.6042 -0.1230  0.9134
  664THF     C812727   3.962   0.377   5.066 -0.0434  0.1087 -0.1299
  664THF     C912728   4.073   0.480   5.059 -0.2680  0.1914 -0.3896
  664THF    H1012729   3.953   0.340   5.168  0.9952  0.7199  0.1982
  664THF    H1112730   3.863   0.415   5.043 -0.5214 -0.1029  1.4497
  664THF    H1212731   4.035   0.567   5.007 -2.6790 -1.3582 -1.3837
  664THF    H1312732   4.105   0.513   5.158  1.3041  0.8554 -1.0899
  665THF     O112733   0.678   4.455   0.463  0.1901 -0.5004  0.1556
  665THF     C212734   0.798   4.514   0.508 -0.5143  0.0839 -0.9058
  665THF     C312735   0.693   4.402   0.333  0.2817  0.0310 -0.2593
  665THF     H412736   0.796   4.514   0.617 -1.9842  0.2017 -0.9159
  665THF     H512737   0.804   4.618   0.474  2.2647  1.0970  2.1913
  665THF     H612738   0.614   4.329   0.315  0.5656 -0.7134  1.3214
  665THF     H712739   0.696   4.485   0.263 -2.0701  1.7501  1.5247
  665THF     C812740   0.821   4.325   0.351 -0.8423  0.1358 -0.3982
  665THF     C912741   0.901   4.424   0.433 -0.5573  0.0899 -0.7260
  665THF    H1012742   0.863   4.289   0.257 -0.5882  1.1566 -0.6927
  665THF    H1112743   0.807   4.235   0.411 -0.9962  0.5552  0.2006
  665THF    H1212744   0.963   4.373   0.506  0.8217 -1.4038 -2.8007
  665THF    H1312745   0.970   4.480   0.370  0.7830 -0.1870  0.4431
  666THF     O112746   4.392   2.857   2.844 -0.2994 -0.2883 -0.2836
  666THF     C212747   4.289   2.879   2.939 -1.1832 -0.8240 -0.3814
  666THF     C312748   4.500   2.787   2.915  0.7750 -0.2893 -0.5016
  666THF     H412749   4.219   2.800   2.912 -2.7838  1.0868 -2.1468
  666THF     H512750   4.225   2.965   2.920 -2.5092 -1.5481  0.5755
  666THF     H612751   4.542   2.707   2.854  2.5408  1.4695 -1.7269
  666THF     H712752   4.582   2.858   2.929  1.0772 -0.8505  0.6951
  666THF     C812753   4.441   2.741   3.055 -0.2916  0.0695 -0.2796
  666THF     C912754   4.343   2.851   3.080 -0.5401 -0.6551  0.0786
  666THF    H1012755   4.513   2.740   3.137 -1.0668 -0.5399  0.4092
  666THF    H1112756   4.380   2.652   3.046  0.1929 -0.2587 -0.3635
  666THF    H1212757   4.260   2.827   3.147 -1.1387  1.1658  0.0546
  666THF    H1312758   4.395   2.938   3.121  1.0955 -1.0121 -1.1644
  667THF     O112759   4.034   2.577   4.826 -0.5104  0.8319  0.0963
  667THF     C212760   4.170   2.561   4.862  0.5763 -0.0314 -0.1710
  667THF     C312761   4.005   2.494   4.713 -0.0559  0.2965 -0.3596
  667THF     H412762   4.179   2.546   4.970  0.7120 -1.0776 -0.3192
  667THF     H512763   4.228   2.648   4.832 -0.2937 -0.1441 -2.3647
  667THF     H612764   3.942   2.408   4.733  1.7247 -0.6582  1.5200
  667THF     H712765   3.976   2.559   4.630 -0.1581 -1.0788 -1.4443
  667THF     C812766   4.134   2.431   4.668  0.0893  0.0202 -0.2594
  667THF     C912767   4.208   2.438   4.793  0.1672 -0.0516  0.3141
  667THF    H1012768   4.183   2.485   4.587  1.0724 -1.4098 -0.6546
  667THF    H1112769   4.116   2.332   4.626 -1.4058  0.6103 -1.0963
  667THF    H1212770   4.205   2.352   4.860  2.4042 -0.7340 -0.3877
  667THF    H1312771   4.314   2.430   4.770 -0.0154 -1.3347 -0.1441
  668THF     O112772   2.753   4.982   3.813 -0.1286 -0.3747  0.3190
  668THF     C212773   2.629   5.029   3.857 -0.4615  0.9180  0.4181
  668THF     C312774   2.818   4.909   3.912 -0.7326 -0.0152 -0.3662
  668THF     H412775   2.546   4.959   3.849 -0.5013  0.9539  0.5241
  668THF     H512776   2.605   5.121   3.803  1.3076  0.5195 -1.1685
  668THF     H612777   2.814   4.801   3.898  0.2863 -0.1281  0.1325
  668THF     H712778   2.925   4.931   3.916 -0.5527 -1.0303  2.2241
  668THF     C812779   2.743   4.947   4.046 -0.2198  0.0241  0.6307
  668THF     C912780   2.647   5.055   4.003 -0.7941  0.3521  0.6487
  668THF    H1012781   2.802   4.983   4.130  0.4545 -0.1211  0.2291
  668THF    H1112782   2.683   4.863   4.079 -1.8042  0.3604 -1.2208
  668THF    H1212783   2.549   5.065   4.049 -1.2953 -0.4642 -0.2140
  668THF    H1312784   2.696   5.152   4.005  0.2179 -0.1465  1.2150
  669THF     O112785   4.337   3.241   3.603 -0.2856 -0.0545  0.5323
  669THF     C212786   4.200   3.270   3.616  0.5168 -0.4986 -0.5740
  669THF     C312787   4.406   3.358   3.635  0.1718  0.0092 -0.4058
  669THF     H412788   4.146   3.187   3.662 -0.5132 -0.3778 -1.5316
  669THF     H512789   4.157   3.270   3.516 -1.3016 -0.6127  0.1587
  669THF     H612790   4.505   3.328   3.671 -1.0282 -2.3649  1.2041
  669THF     H712791   4.423   3.422   3.549 -2.1239 -0.6449 -1.4149
  669THF     C812792   4.322   3.435   3.736  0.1674 -0.3605 -0.1098
  669THF     C912793   4.183   3.404   3.690 -0.5648 -0.6930  0.4006
  669THF    H1012794   4.346   3.541   3.740  0.6130 -0.4835  0.5224
  669THF    H1112795   4.348   3.398   3.835  0.6990 -1.3552 -0.6051
  669THF    H1212796   4.108   3.391   3.768  1.7034  0.6046  2.9788
  669THF    H1312797   4.148   3.484   3.626 -0.6983 -2.0057 -1.2263
  670THF     O112798   0.986   1.420   2.414 -0.5920 -0.1078 -0.3254
  670THF     C212799   1.011   1.537   2.337 -0.1850 -0.1545  0.4196
  670THF     C312800   0.854   1.432   2.462 -0.2269  0.0373 -0.1110
  670THF     H412801   0.942   1.549   2.253 -1.8192 -0.1257  1.7153
  670THF     H512802   1.114   1.537   2.300 -0.3210 -1.2755 -0.0164
  670THF     H612803   0.777   1.396   2.392  1.1988 -1.4846 -0.9672
  670THF     H712804   0.837   1.381   2.556  1.5075  0.6345  0.5606
  670THF     C812805   0.839   1.581   2.489  0.2317  0.2509 -0.1789
  670THF     C912806   0.961   1.645   2.433 -0.4640  0.1790 -0.4953
  670THF    H1012807   0.836   1.597   2.597  1.6592 -0.5900  0.0157
  670THF    H1112808   0.753   1.621   2.437 -0.4479 -0.4419  0.3982
  670THF    H1212809   0.943   1.743   2.390 -0.5192  1.3329  2.0042
  670THF    H1312810   1.039   1.655   2.509 -0.3613 -2.1551 -0.2013
  671THF     O112811   4.259   4.837   4.263  0.8058 -0.5054  0.2980
  671THF     C212812   4.308   4.874   4.391  0.5513  0.7422 -0.6507
  671THF     C312813   4.210   4.952   4.192  0.2795  0.5138 -0.6401
  671THF     H412814   4.412   4.905   4.389  0.9830 -0.1611  2.3174
  671THF     H512815   4.304   4.784   4.452 -1.6657  0.5660 -0.9554
  671THF     H612816   4.299   5.003   4.157 -0.1814  0.7971 -1.4321
  671THF     H712817   4.143   4.914   4.115  0.6520 -1.5526 -0.0195
  671THF     C812818   4.139   5.024   4.308 -0.3833 -0.0791 -0.2804
  671THF     C912819   4.210   4.985   4.439 -0.1057  0.1095  0.2911
  671THF    H1012820   4.039   4.985   4.326 -0.0562 -0.1171  1.5854
  671THF    H1112821   4.122   5.131   4.292 -1.4414  0.2838  2.7046
  671THF    H1212822   4.252   5.071   4.491  1.5016  0.3368 -1.3052
  671THF    H1312823   4.132   4.951   4.507 -0.9765  1.1579 -0.1431
  672THF     O112824   3.365   0.336   3.515  0.5376  0.5842  0.3344
  672THF     C212825   3.289   0.389   3.624 -0.0605 -0.0067  0.1555
  672THF     C312826   3.265   0.312   3.413 -0.8505 -0.4253 -0.3847
  672THF     H412827   3.260   0.492   3.602  1.3929  1.1785  3.1786
  672THF     H512828   3.330   0.387   3.725 -1.4903  1.2249  0.7943
  672THF     H612829   3.232   0.407   3.370  0.4181  0.2801  0.1458
  672THF     H712830   3.301   0.252   3.330 -1.7199  0.3923 -1.3876
  672THF     C812831   3.145   0.248   3.494  0.3635  0.8029  0.0155
  672THF     C912832   3.165   0.304   3.634 -0.0990 -0.1217 -0.0866
  672THF    H1012833   3.160   0.140   3.506 -0.1494  0.9548  2.4140
  672THF    H1112834   3.046   0.262   3.451  0.1807 -0.3902  0.0229
  672THF    H1212835   3.079   0.364   3.667  1.1162  1.1644  0.8490
  672THF    H1312836   3.170   0.230   3.713  0.0816  0.7375  0.7317
  673THF     O112837   1.006   5.017   1.802  0.5871 -0.4227 -0.0042
  673THF     C212838   0.894   5.103   1.774 -0.8580  0.4374 -0.2146
  673THF     C312839   1.118   5.101   1.817 -0.3730  0.2905  0.8714
  673THF     H412840   0.801   5.047   1.782 -1.4589  1.2316 -1.3308
  673THF     H512841   0.894   5.141   1.672  1.2294  0.5568 -0.2307
  673THF     H612842   1.198   5.043   1.863  1.7177 -0.5406 -3.3344
  673THF     H712843   1.149   5.132   1.718 -1.0482 -0.0990  0.5270
  673THF     C812844   1.069   5.218   1.899 -0.8779  0.1128  0.0874
  673THF     C912845   0.917   5.220   1.875 -0.1001  0.3674 -0.5662
  673THF    H1012846   1.120   5.305   1.859  2.0400 -1.4150  0.2105
  673THF    H1112847   1.092   5.205   2.004 -0.4972  0.7214  0.0807
  673THF    H1212848   0.860   5.189   1.962 -0.2598  2.1885 -0.0003
  673THF    H1312849   0.880   5.317   1.841 -0.3757  0.1892 -0.7827
  674THF     O112850   1.142   3.034   0.165  0.5538 -0.4544  0.0047
  674THF     C212851   1.201   3.153   0.117  0.4575 -0.0854 -0.3353
  674THF     C312852   1.128   2.947   0.050 -0.7123  0.5597 -0.0787
  674THF     H412853   1.304   3.136   0.085  0.7230  1.0820 -0.1572
  674THF     H512854   1.208   3.228   0.196  0.7472 -1.2512  0.7707
  674THF     H612855   1.229   2.915   0.023 -1.3390 -0.8848 -0.8411
  674THF     H712856   1.069   2.858   0.074  1.4412 -0.9234 -0.0107
  674THF     C812857   1.076   3.046  -0.057 -0.0713 -0.6254 -0.7055
  674THF     C912858   1.109   3.182   0.001  0.1502  0.6492 -0.1933
  674THF    H1012859   0.968   3.035  -0.072 -0.3358  1.9034 -1.1796
  674THF    H1112860   1.125   3.016  -0.150  2.7649 -0.8656  0.7705
  674THF    H1212861   1.158   3.248  -0.070 -0.0475  1.5450  0.4787
  674THF    H1312862   1.011   3.220   0.030 -0.6270  0.1276 -2.0184
  675THF     O112863   4.768   5.331   0.536  0.2419 -1.0274  0.2823
  675THF     C212864   4.875   5.257   0.475  0.1907 -0.4788 -0.3834
  675THF     C312865   4.721   5.276   0.662  0.3290  0.8664 -0.1008
  675THF     H412866   4.922   5.322   0.401  0.5312 -0.7964 -0.4428
  675THF     H512867   4.824   5.172   0.430 -0.7339  0.0908 -0.4470
  675THF     H612868   4.673   5.349   0.727  0.1897  0.7433 -0.0661
  675THF     H712869   4.643   5.200   0.660  0.3469  0.5768  3.6534
  675THF     C812870   4.852   5.217   0.718 -0.1713 -0.3456 -0.2610
  675THF     C912871   4.953   5.219   0.600 -0.3675  0.4043 -0.1514
  675THF    H1012872   4.841   5.114   0.754  1.6426 -0.2957  0.5265
  675THF    H1112873   4.883   5.282   0.799 -0.9169 -0.2039 -0.0825
  675THF    H1212874   5.032   5.292   0.620  0.1413 -0.1747  0.0058
  675THF    H1312875   4.999   5.121   0.591  0.1116  0.6121 -0.0061
  676THF     O112876   4.901   5.416   3.763 -1.0406  0.0044 -0.3551
  676THF     C212877   5.015   5.330   3.773 -0.6006  1.0552 -0.2791
  676THF     C312878   4.939   5.531   3.833  0.1353  0.0669  0.2340
  676THF     H412879   5.018   5.256   3.693  1.9815 -0.8529  1.4434
  676THF     H512880   5.025   5.276   3.867 -0.3055 -1.5210 -1.6749
  676THF     H612881   4.864   5.606   3.807 -0.7119 -0.4814  1.0203
  676THF     H712882   4.922   5.515   3.940 -0.3648 -0.0678  0.1390
  676THF     C812883   5.086   5.551   3.807  0.0547 -0.0395  0.5217
  676THF     C912884   5.132   5.415   3.761 -0.4277 -0.3549  0.3504
  676THF    H1012885   5.143   5.577   3.897  1.6205 -0.6780 -0.2604
  676THF    H1112886   5.109   5.626   3.732  0.3116  0.7647  1.3809
  676THF    H1212887   5.172   5.442   3.664  0.7253  0.9656  1.1493
  676THF    H1312888   5.214   5.378   3.822  1.2561 -0.5463 -1.9231
  677THF     O112889   1.462   1.504   2.571  0.2476 -0.7318 -0.1520
  677THF     C212890   1.329   1.559   2.555  0.2227  0.0316  0.2718
  677THF     C312891   1.463   1.413   2.680  0.0463  0.1407 -0.1907
  677THF     H412892   1.268   1.489   2.497 -1.0210 -1.1484  2.8325
  677THF     H512893   1.338   1.660   2.515 -0.7894 -0.0786 -0.2727
  677THF     H612894   1.459   1.309   2.649  0.3543 -0.3861  1.4793
  677THF     H712895   1.554   1.433   2.737  1.0374 -1.9655 -0.9487
  677THF     C812896   1.358   1.462   2.772 -0.5404  0.0618 -0.6868
  677THF     C912897   1.273   1.557   2.694  0.2870 -0.6444  0.5519
  677THF    H1012898   1.415   1.504   2.854  1.9700 -1.8327 -1.3396
  677THF    H1112899   1.293   1.390   2.821 -0.2985  0.2054 -0.1521
  677THF    H1212900   1.171   1.522   2.680  0.5389 -0.7673 -1.2513
  677THF    H1312901   1.286   1.659   2.729  1.8905 -0.2547 -1.0300
  678THF     O112902   5.288   1.526   2.496  0.4560  0.7806 -0.3851
  678THF     C212903   5.228   1.453   2.609  0.3010  0.0708  0.7943
  678THF     C312904   5.246   1.471   2.373 -0.0505  0.0018 -0.2991
  678THF     H412905   5.216   1.526   2.689  0.4531 -0.9138  1.7164
  678THF     H512906   5.295   1.374   2.641  1.4234  0.3044 -0.8315
  678THF     H612907   5.266   1.530   2.284  0.0642  2.2587  1.1357
  678THF     H712908   5.298   1.375   2.369 -0.1138 -0.0783  0.5160
  678THF     C812909   5.102   1.443   2.397  0.3921  0.2701  0.3224
  678THF     C912910   5.099   1.401   2.547 -0.8493 -0.1457  0.0857
  678THF    H1012911   5.060   1.366   2.333  0.2016  0.5147  0.1496
  678THF    H1112912   5.039   1.530   2.379 -1.0804 -1.0813 -1.4466
  678THF    H1212913   5.007   1.435   2.594 -2.0689 -1.2245 -1.4345
  678THF    H1312914   5.092   1.293   2.561 -1.0400 -0.1069  0.3014
  679THF     O112915   4.835   4.612   2.359  0.4012 -0.3702  0.3305
  679THF     C212916   4.831   4.475   2.378  0.4161  0.2442 -0.0421
  679THF     C312917   4.970   4.657   2.345  0.1797  0.0033  0.1955
  679THF     H412918   4.838   4.421   2.283  0.1547  1.4012 -0.7372
  679THF     H512919   4.740   4.443   2.428  0.5315 -2.1847 -1.2301
  679THF     H612920   5.002   4.652   2.241  2.2830  1.4367  0.7146
  679THF     H712921   4.980   4.764   2.364 -1.6598  0.1413  0.5610
  679THF     C812922   5.053   4.563   2.433  0.2711 -0.1928 -0.2463
  679THF     C912923   4.955   4.452   2.466  0.2104  1.0226 -0.1006
  679THF    H1012924   5.082   4.608   2.527  1.4386  0.7157 -1.0187
  679THF    H1112925   5.129   4.514   2.373  1.3096  0.2110  0.7162
  679THF    H1212926   4.991   4.350   2.454 -1.4501  0.1494  1.8987
  679THF    H1312927   4.923   4.456   2.570  2.6344 -0.3001  0.7671
  680THF     O112928   2.552   3.215   5.004 -0.5139  0.2657  0.3243
  680THF     C212929   2.676   3.212   4.932  0.1518 -0.2232  0.7506
  680THF     C312930   2.473   3.317   4.939  0.6515  0.8636 -0.1664
  680THF     H412931   2.668   3.178   4.829  0.5215  2.5135 -0.2647
  680THF     H512932   2.755   3.156   4.982 -0.0448 -3.2322 -1.9867
  680THF     H612933   2.438   3.272   4.846  2.9761 -0.7361 -0.3457
  680THF     H712934   2.388   3.363   4.990 -0.1648  1.1958 -1.7548
  680THF     C812935   2.573   3.431   4.910 -0.5949 -0.2592  0.0893
  680THF     C912936   2.707   3.359   4.914  0.1987  0.2876 -0.2300
  680THF    H1012937   2.573   3.520   4.973  2.1084 -0.1736  0.1070
  680THF    H1112938   2.549   3.474   4.813  0.1864 -2.1145 -0.9851
  680THF    H1212939   2.769   3.372   4.825  0.0580  0.4954 -0.2980
  680THF    H1312940   2.761   3.401   4.998 -2.7935  0.1549  1.9131
  681THF     O112941   2.106   3.235   2.622  0.8567  0.1651 -0.6411
  681THF     C212942   2.051   3.141   2.535 -0.0193  0.4463 -0.3351
  681THF     C312943   2.030   3.219   2.747 -0.1931  0.2556  0.3058
  681THF     H412944   2.072   3.040   2.568  0.0424  0.2068 -1.0857
  681THF     H512945   2.084   3.155   2.432 -1.4871  0.4821 -0.8264
  681THF     H612946   2.045   3.130   2.808 -0.6762  0.6427  1.0027
  681THF     H712947   2.058   3.295   2.820  1.6523  0.6551 -0.7502
  681THF     C812948   1.889   3.225   2.693  0.0536  0.8372  0.5687
  681THF     C912949   1.900   3.169   2.550 -0.2949 -0.2728 -0.3834
  681THF    H1012950   1.875   3.332   2.683  1.9498  1.3201  2.4558
  681THF    H1112951   1.812   3.181   2.756 -0.7537  0.4162 -0.6685
  681THF    H1212952   1.860   3.068   2.536  1.1556 -1.1206  1.2615
  681THF    H1312953   1.869   3.242   2.475 -1.2688 -0.7012 -0.4230
  682THF     O112954   0.688   5.340   5.465 -0.2808 -0.7898 -0.4057
  682THF     C212955   0.780   5.230   5.453 -0.5829  0.1817  0.0669
  682THF     C312956   0.573   5.309   5.399 -0.4115  0.1155  0.3521
  682THF     H412957   0.748   5.163   5.534  1.4267  0.9635  1.5969
  682THF     H512958   0.884   5.255   5.475 -1.8240  4.9981  1.6528
  682THF     H612959   0.517   5.238   5.460  2.7232  0.4687  4.0061
  682THF     H712960   0.516   5.401   5.388  0.0079  0.2522 -0.9878
  682THF     C812961   0.615   5.234   5.275 -0.0558  0.8031  0.7891
  682THF     C912962   0.754   5.179   5.317 -0.1730 -0.4783  0.1780
  682THF    H1012963   0.637   5.297   5.190  1.0091  0.7817  1.0286
  682THF    H1112964   0.546   5.154   5.248  1.4735 -0.5226  0.6743
  682THF    H1212965   0.762   5.072   5.331 -1.5796 -1.0327 -2.5714
  682THF    H1312966   0.830   5.193   5.240 -0.1753 -0.5607  0.1609
  683THF     O112967   3.983   0.269   0.829  0.5102 -0.4526 -0.3410
  683THF     C212968   3.932   0.342   0.949 -0.1723  0.5885  0.1870
  683THF     C312969   3.934   0.134   0.827  0.3610  0.3401 -0.2100
  683THF     H412970   3.893   0.438   0.913 -0.3119  0.0432 -1.1762
  683THF     H512971   4.015   0.345   1.019  0.5951 -1.7654 -0.5546
  683THF     H612972   3.912   0.109   0.723 -3.3302  0.3049  0.4700
  683THF     H712973   4.006   0.066   0.871  1.3115  0.8294 -0.9559
  683THF     C812974   3.796   0.148   0.902 -1.1144 -0.0232 -0.3124
  683THF     C912975   3.821   0.263   0.999 -0.2047  0.0038  0.6554
  683THF    H1012976   3.747   0.072   0.964 -0.3951 -0.5150 -0.3412
  683THF    H1112977   3.721   0.194   0.838  0.3946 -1.4175 -3.2971
  683THF    H1212978   3.736   0.325   1.029  0.9883  0.9417  2.2948
  683THF    H1312979   3.864   0.234   1.095  0.4902  0.0809  0.3677
  684THF     O112980   1.094   4.498   1.125 -0.7722 -0.4053 -0.5804
  684THF     C212981   1.054   4.495   0.992 -0.1976 -0.0031  0.2822
  684THF     C312982   1.048   4.377   1.197  0.2394 -1.1087 -0.3970
  684THF     H412983   1.127   4.519   0.916  2.0498 -1.7556  1.7362
  684THF     H512984   0.972   4.566   0.997 -0.7005 -0.5859  0.5721
  684THF     H612985   1.138   4.319   1.215  2.8553  1.7033 -3.1159
  684THF     H712986   1.007   4.409   1.292  0.8665 -0.2153 -0.4141
  684THF     C812987   0.955   4.307   1.096  0.0239  0.7361  0.2240
  684THF     C912988   1.004   4.355   0.962  0.4005  0.4890 -0.2109
  684THF    H1012989   0.853   4.342   1.113 -0.9358 -2.5900  2.1544
  684THF    H1112990   0.947   4.199   1.105 -0.0572  0.7361  0.1533
  684THF    H1212991   1.089   4.294   0.930  0.6394 -0.0272  1.2998
  684THF    H1312992   0.922   4.346   0.891 -0.5688 -1.9654  1.0966
  685THF     O112993   0.966   2.106   2.907  0.1918  0.1971  0.0289
  685THF     C212994   1.076   2.140   2.826 -0.4292  0.6212 -0.2862
  685THF     C312995   0.947   1.957   2.892  0.3667 -0.2915 -0.3928
  685THF     H412996   1.118   2.238   2.849  1.7934 -0.6807  1.6496
  685THF     H512997   1.051   2.141   2.720  3.3002 -0.1664 -1.3184
  685THF     H612998   0.897   1.919   2.981 -0.3161 -1.0304 -1.0738
  685THF     H712999   0.893   1.931   2.801 -1.9032 -0.7650  1.0173
  685THF     C813000   1.088   1.900   2.885  0.8154 -0.1637 -0.6735
  685THF     C913001   1.173   2.018   2.852  0.1787  0.0603  0.1285
  685THF    H1013002   1.104   1.818   2.816 -1.0844 -2.2911  1.2512
  685THF    H1113003   1.120   1.860   2.980  3.2072  0.3877 -1.1893
  685THF    H1213004   1.224   2.048   2.943  1.2594  0.2247 -0.5091
  685THF    H1313005   1.240   1.992   2.770  0.6362 -0.9638  0.8050
  686THF     O113006   1.771   2.549   4.699  0.6709 -0.1355  0.5064
  686THF     C213007   1.878   2.640   4.739 -0.1558 -0.2572 -0.5745
  686THF     C313008   1.825   2.476   4.593  0.0408  0.2639  0.1512
  686THF     H413009   1.849   2.681   4.836  0.4258 -0.6759 -0.2156
  686THF     H513010   1.882   2.728   4.675  1.9068  1.3056  1.5394
  686THF     H613011   1.756   2.394   4.578  0.5939 -0.5724  1.9831
  686THF     H713012   1.825   2.534   4.500  1.5577 -0.2340 -0.1909
  686THF     C813013   1.978   2.447   4.641  0.1784 -0.1769 -0.1430
  686THF     C913014   2.010   2.563   4.737 -0.1653 -0.2337 -0.4425
  686THF    H1013015   2.047   2.464   4.558  0.0769  0.0232 -0.1886
  686THF    H1113016   1.999   2.346   4.676 -2.9464 -1.0233 -0.4557
  686THF    H1213017   2.030   2.519   4.835  2.0690 -1.3157 -1.3197
  686THF    H1313018   2.100   2.611   4.699  1.2702 -0.7424  2.1184
  687THF     O113019   0.050   2.583   1.080  0.1243 -0.7699  0.1353
  687THF     C213020   0.177   2.555   1.119  0.0091  0.2423  0.0184
  687THF     C313021  -0.007   2.456   1.047  0.1606 -0.0031  0.5250
  687THF     H413022   0.214   2.650   1.157  0.1350  0.3549 -0.3840
  687THF     H513023   0.237   2.532   1.031  0.4023 -3.4484  1.0559
  687THF     H613024  -0.116   2.454   1.046  0.1650 -1.1986 -0.9810
  687THF     H713025   0.036   2.427   0.952 -0.6649 -1.5477  0.5899
  687THF     C813026   0.042   2.360   1.159 -0.7242 -0.5274  0.3095
  687THF     C913027   0.157   2.442   1.217 -0.2138 -0.0577  0.2835
  687THF    H1013028   0.076   2.269   1.109 -0.9981 -0.0828 -0.7013
  687THF    H1113029  -0.029   2.349   1.242  1.3682  0.1605  2.2843
  687THF    H1213030   0.146   2.456   1.325 -2.5648 -2.7729  0.5134
  687THF    H1313031   0.243   2.376   1.219  0.0045  0.2353  1.0771
  688THF     O113032   4.580   3.343   2.684 -0.7657  0.1543 -0.2384
  688THF     C213033   4.518   3.277   2.794  0.1263 -0.1658 -0.4920
  688THF     C313034   4.722   3.349   2.714 -0.0345 -0.0535 -0.6432
  688THF     H413035   4.427   3.226   2.762 -0.0369 -0.3439  0.2469
  688THF     H513036   4.492   3.345   2.875  1.4446 -0.2023 -0.0226
  688THF     H613037   4.781   3.316   2.628  0.2134 -0.4644 -0.3258
  688THF     H713038   4.758   3.451   2.729  0.2932 -0.2062 -0.3654
  688THF     C813039   4.739   3.251   2.836 -0.3581  0.1471  0.2453
  688THF     C913040   4.614   3.166   2.835  0.3746  0.4995  0.8538
  688THF    H1013041   4.760   3.295   2.933 -1.5841  0.1458  0.5233
  688THF    H1113042   4.832   3.194   2.828  0.6921  1.9613 -1.3925
  688THF    H1213043   4.611   3.083   2.764 -0.2014 -0.0870  1.5409
  688THF    H1313044   4.587   3.129   2.934  1.2885  0.2997  1.0366
  689THF     O113045   4.594   4.237   2.590  0.3102 -0.1449  0.4438
  689THF     C213046   4.529   4.174   2.485  0.5926  0.0139 -0.8369
  689THF     C313047   4.621   4.138   2.683 -0.1977 -0.0063 -0.3808
  689THF     H413048   4.543   4.237   2.398 -0.4936  1.1468 -0.2265
  689THF     H513049   4.422   4.167   2.507  0.4789  2.2644 -0.4448
  689THF     H613050   4.693   4.176   2.755 -0.6071 -0.2072  0.1433
  689THF     H713051   4.529   4.114   2.736 -0.3775  0.0817 -0.6506
  689THF     C813052   4.667   4.019   2.604 -0.2482 -0.0515 -0.1696
  689THF     C913053   4.575   4.034   2.482  0.2235  0.5381 -0.5239
  689THF    H1013054   4.664   3.928   2.663  1.5250 -1.0774 -1.5687
  689THF    H1113055   4.772   4.036   2.583 -0.3940 -0.5773 -1.4569
  689THF    H1213056   4.636   4.031   2.391  0.3107  0.4821 -0.4628
  689THF    H1313057   4.485   3.974   2.468 -1.3607  2.6089  0.4094
  690THF     O113058   0.981   4.156   3.442  0.2213 -0.3457  0.2166
  690THF     C213059   0.947   4.056   3.343 -0.3443  0.4076  0.4644
  690THF     C313060   1.122   4.151   3.447 -0.2236 -0.1546 -0.4879
  690THF     H413061   0.918   4.107   3.251 -2.4393  0.2824  0.9991
  690THF     H513062   0.860   4.004   3.385 -0.0640 -0.0226  0.5073
  690THF     H613063   1.159   4.215   3.366  0.5526  0.4526  0.3233
  690THF     H713064   1.160   4.193   3.540  0.2240  2.3554 -1.7229
  690THF     C813065   1.164   4.008   3.421 -0.1557 -0.0811 -0.1456
  690THF     C913066   1.063   3.963   3.311 -0.3202 -0.1996  0.5888
  690THF    H1013067   1.162   3.951   3.514 -0.3001 -0.6221 -0.4698
  690THF    H1113068   1.267   4.005   3.384  0.4831  1.3098  1.4201
  690THF    H1213069   1.106   3.992   3.215  2.1986  1.6548  2.1335
  690THF    H1313070   1.039   3.857   3.306  0.6187 -0.3622 -1.1744
  691THF     O113071   2.594   1.900   1.505 -0.2383 -0.1717 -0.0625
  691THF     C213072   2.574   1.962   1.378  0.5029  0.0310  0.1528
  691THF     C313073   2.489   1.812   1.522 -0.2497  0.2259 -0.1700
  691THF     H413074   2.671   1.992   1.338 -0.4423  0.0904 -2.2982
  691THF     H513075   2.505   2.046   1.386  0.6162  0.3101 -1.3978
  691THF     H613076   2.502   1.748   1.609  2.5190 -0.0232 -0.6864
  691THF     H713077   2.402   1.872   1.550 -0.3107 -0.1282  0.4152
  691THF     C813078   2.482   1.742   1.385  0.3181  1.0596 -0.1984
  691THF     C913079   2.502   1.862   1.293 -0.5816  0.1805  0.1306
  691THF    H1013080   2.387   1.693   1.366  0.1142  1.7543 -1.0661
  691THF    H1113081   2.560   1.668   1.369 -1.8136 -1.3572 -0.0569
  691THF    H1213082   2.561   1.834   1.206 -0.2635  0.8387  0.1274
  691THF    H1313083   2.408   1.906   1.257 -0.3404  0.6387  0.0509
  692THF     O113084   1.349   0.438   5.380  0.1698  0.1014 -0.3125
  692THF     C213085   1.281   0.474   5.506  0.6209  0.6216  0.3625
  692THF     C313086   1.372   0.297   5.374  0.6320  0.2407 -0.2800
  692THF     H413087   1.239   0.574   5.497 -1.9962 -0.4199 -0.1532
  692THF     H513088   1.356   0.479   5.585  0.9434  0.3098  0.0773
  692THF     H613089   1.350   0.280   5.269 -1.4966  1.3753 -0.0764
  692THF     H713090   1.476   0.281   5.403 -0.1490 -1.0232  2.1241
  692THF     C813091   1.273   0.250   5.476 -0.6761 -0.0655 -0.3659
  692THF     C913092   1.185   0.363   5.526 -0.5583 -0.5278 -0.1533
  692THF    H1013093   1.328   0.214   5.563 -1.3560 -1.0734 -0.3359
  692THF    H1113094   1.211   0.167   5.443 -0.1733  0.3817 -2.6136
  692THF    H1213095   1.098   0.378   5.462  1.5349  1.8352 -2.7176
  692THF    H1313096   1.155   0.360   5.631  0.9643  0.4613  0.3388
  693THF     O113097   1.171   5.347   4.356  0.3885  0.1173 -0.0760
  693THF     C213098   1.060   5.314   4.448  0.4578 -0.1862  0.3173
  693THF     C313099   1.291   5.349   4.439 -0.3725  0.2547 -0.5466
  693THF     H413100   1.070   5.206   4.464  1.1722  0.0544  1.6551
  693THF     H513101   0.966   5.344   4.400  0.0618 -0.5465  0.8488
  693THF     H613102   1.325   5.247   4.458  0.1058  0.3937 -0.6306
  693THF     H713103   1.377   5.395   4.389  0.3525  1.4228  1.6133
  693THF     C813104   1.246   5.414   4.573  0.0817  0.3861  1.0655
  693THF     C913105   1.096   5.387   4.584 -1.2319  0.5983  0.1367
  693THF    H1013106   1.263   5.522   4.576 -3.2041  1.1804 -1.6931
  693THF    H1113107   1.289   5.369   4.662 -0.0199  1.8185  1.8759
  693THF    H1213108   1.079   5.327   4.673 -0.5395  0.1852 -0.0040
  693THF    H1313109   1.038   5.480   4.584 -0.6280  1.1065 -2.8515
  694THF     O113110   2.099   2.523   0.557 -0.1050  0.3443  0.4652
  694THF     C213111   2.105   2.536   0.413  0.4826 -0.3190 -0.3872
  694THF     C313112   2.173   2.395   0.582 -0.9539 -0.6628 -0.2715
  694THF     H413113   2.068   2.629   0.370 -0.9050 -0.4872  0.3941
  694THF     H513114   2.032   2.475   0.360 -0.5056  0.2836  0.2668
  694THF     H613115   2.202   2.383   0.687 -0.1762 -0.1458 -0.4186
  694THF     H713116   2.108   2.312   0.555 -1.6400 -0.3983  0.5074
  694THF     C813117   2.296   2.401   0.489  0.1289  0.4844  0.4693
  694THF     C913118   2.247   2.492   0.378  0.0807  0.4569  0.2010
  694THF    H1013119   2.337   2.309   0.447 -2.3784 -0.6152  0.2277
  694THF    H1113120   2.377   2.440   0.550 -0.2620  0.7835  0.8055
  694THF    H1213121   2.295   2.590   0.373 -2.0149  1.4898 -2.4466
  694THF    H1313122   2.271   2.466   0.274  0.4965  0.4098  0.3079
  695THF     O113123   3.423   2.643   4.021 -0.2822 -0.2587  0.5578
  695THF     C213124   3.467   2.747   3.935 -0.4827 -0.4859  0.3639
  695THF     C313125   3.292   2.613   3.980 -0.0369 -0.2586  0.3223
  695THF     H413126   3.533   2.698   3.863 -2.2778 -0.1443 -1.6100
  695THF     H513127   3.535   2.807   3.995  0.4317  1.3486 -2.3235
  695THF     H613128   3.282   2.517   3.929 -0.5397  1.0229 -2.1290
  695THF     H713129   3.230   2.614   4.070 -0.6187  0.3361 -0.0813
  695THF     C813130   3.243   2.721   3.878 -0.4118 -0.2380 -0.9743
  695THF     C913131   3.350   2.824   3.873 -0.8534 -0.7259  0.9968
  695THF    H1013132   3.147   2.769   3.895 -1.0538 -1.9199  0.4604
  695THF    H1113133   3.231   2.681   3.777 -2.5559  0.5633 -1.0817
  695THF    H1213134   3.363   2.856   3.770 -2.8693 -1.2510  0.5375
  695THF    H1313135   3.325   2.919   3.920  0.0424  0.7743 -1.4073
  696THF     O113136   0.653   3.991   3.192  0.0703  0.3131  0.0453
  696THF     C213137   0.567   4.033   3.089  0.9524 -0.1269  0.6697
  696THF     C313138   0.742   3.904   3.123  0.1445 -0.3143 -0.0783
  696THF     H413139   0.602   4.119   3.032 -0.3963  0.3543  0.5301
  696THF     H513140   0.471   4.067   3.130  0.2107 -1.5043  0.1443
  696THF     H613141   0.843   3.943   3.111 -0.1553  0.1785 -1.1181
  696THF     H713142   0.752   3.823   3.195  0.8904 -0.9711 -0.8920
  696THF     C813143   0.675   3.855   2.993 -0.2155 -0.2580  0.2699
  696THF     C913144   0.544   3.919   2.996  0.4893 -0.4355 -0.3658
  696THF    H1013145   0.675   3.746   2.987  0.9533 -0.2262 -0.7157
  696THF    H1113146   0.735   3.890   2.909 -0.8753  0.7051  0.1911
  696THF    H1213147   0.506   3.946   2.897  2.2987  0.7166 -0.8014
  696THF    H1313148   0.479   3.850   3.051  0.5568  0.9745  1.5836
  697THF     O113149   4.962   0.571   2.505 -0.0060 -0.2132 -0.3960
  697THF     C213150   5.027   0.539   2.625  0.6375 -0.5123 -0.1886
  697THF     C313151   5.068   0.591   2.411  0.2397  0.6322  0.3797
  697THF     H413152   4.953   0.497   2.694  0.8278  1.3533  1.2243
  697THF     H513153   5.067   0.628   2.673  0.3500  0.8511 -2.3669
  697THF     H613154   5.023   0.572   2.314 -0.0107  0.6679  0.4883
  697THF     H713155   5.134   0.677   2.410  1.2040 -0.0444 -2.7294
  697THF     C813156   5.150   0.465   2.439  0.1190  0.5696  0.2338
  697THF     C913157   5.141   0.448   2.589  0.2790 -0.0363 -0.4167
  697THF    H1013158   5.254   0.487   2.417  0.2410 -0.7287 -0.6105
  697THF    H1113159   5.116   0.378   2.383 -0.1186  0.9572 -0.2276
  697THF    H1213160   5.103   0.348   2.609  0.6684 -0.3232 -1.0827
  697THF    H1313161   5.238   0.460   2.637  0.5543 -0.2133 -0.9221
  698THF     O113162   1.392   3.376   0.632  0.6426  0.1872  0.3966
  698THF     C213163   1.334   3.392   0.760 -0.3671  0.5568 -1.3675
  698THF     C313164   1.508   3.456   0.619 -0.2085  0.5235 -0.1643
  698THF     H413165   1.385   3.335   0.838 -1.6128  2.0025  0.5907
  698THF     H513166   1.229   3.373   0.779  0.0442  1.8166  3.6972
  698THF     H613167   1.595   3.393   0.642  1.1883  2.4556  0.0571
  698THF     H713168   1.505   3.495   0.518 -0.2676  2.8618  0.6791
  698THF     C813169   1.494   3.567   0.718  0.3251  0.0183 -0.2534
  698THF     C913170   1.355   3.544   0.780 -0.1985 -0.3075  0.6697
  698THF    H1013171   1.494   3.660   0.660  0.4302 -0.3403 -0.8279
  698THF    H1113172   1.571   3.563   0.796 -0.0604 -2.7095  0.0546
  698THF    H1213173   1.330   3.592   0.875  0.5042 -0.5430  0.9744
  698THF    H1313174   1.291   3.596   0.709  0.0404  0.2238  0.8362
  699THF     O113175   5.491   5.405   3.247  0.0053  0.1103 -0.3495
  699THF     C213176   5.516   5.457   3.116 -0.2891  0.0526 -0.2673
  699THF     C313177   5.479   5.512   3.334 -0.1494  0.0499  0.6078
  699THF     H413178   5.419   5.495   3.084 -1.1840 -1.2988  0.7267
  699THF     H513179   5.540   5.380   3.043 -1.8540  0.2030 -0.9912
  699THF     H613180   5.383   5.563   3.334 -0.9337 -1.3459  1.5949
  699THF     H713181   5.483   5.486   3.439  2.9453 -0.2825  0.5104
  699THF     C813182   5.594   5.606   3.295 -0.0897  0.1633  0.7989
  699THF     C913183   5.614   5.570   3.148 -0.3429 -0.0240 -1.0901
  699THF    H1013184   5.679   5.589   3.361 -0.3525 -0.0280  1.0906
  699THF    H1113185   5.581   5.714   3.308 -2.7887  0.1235 -0.8657
  699THF    H1213186   5.599   5.649   3.074 -0.4363 -0.8797 -2.0115
  699THF    H1313187   5.713   5.527   3.134  1.0280  2.3053  0.6382
  700THF     O113188   1.486   1.569   0.350 -0.1908  0.3976 -0.3949
  700THF     C213189   1.482   1.711   0.332  0.8476  0.1305 -0.1119
  700THF     C313190   1.426   1.513   0.231  0.0706 -0.3937 -0.7300
  700THF     H413191   1.575   1.748   0.376 -0.2432  0.4493  2.0410
  700THF     H513192   1.401   1.758   0.387  1.0826  0.7903 -0.3135
  700THF     H613193   1.449   1.407   0.237  1.0201 -0.1357  0.4441
  700THF     H713194   1.318   1.526   0.224 -0.1168 -1.6167 -0.3251
  700THF     C813195   1.498   1.598   0.129  0.3604  0.3913 -0.0623
  700THF     C913196   1.477   1.742   0.185 -0.0170  0.3047  0.5368
  700THF    H1013197   1.474   1.582   0.024  2.2466  2.3573 -0.8675
  700THF    H1113198   1.606   1.586   0.139  0.4111  1.7847  1.4518
  700THF    H1213199   1.542   1.818   0.142 -0.6236  0.2124 -0.5742
  700THF    H1313200   1.380   1.776   0.150  0.9076  1.3848 -1.0963
  701THF     O113201   2.328   4.022   2.528 -0.4323 -0.1147  0.6225
  701THF     C213202   2.383   3.894   2.519  0.6331 -0.1335  0.4425
  701THF     C313203   2.336   4.075   2.393 -0.3483  0.6451 -0.4070
  701THF     H413204   2.304   3.831   2.479 -0.2307  0.1211  1.7002
  701THF     H513205   2.410   3.865   2.621 -2.7301  2.6409  2.3515
  701THF     H613206   2.256   4.030   2.334 -1.6435  1.6804  0.4826
  701THF     H713207   2.334   4.184   2.384  0.2365  0.6663 -0.3173
  701THF     C813208   2.465   4.028   2.347 -0.4929  0.2380  0.8516
  701THF     C913209   2.500   3.898   2.420 -0.5098 -0.7357 -0.0588
  701THF    H1013210   2.545   4.097   2.372 -0.1839 -0.4792  1.9599
  701THF    H1113211   2.467   4.015   2.239  0.5857  0.8458  0.7880
  701THF    H1213212   2.506   3.813   2.352 -0.0244 -0.0962 -0.8408
  701THF    H1313213   2.593   3.889   2.476  0.5218  1.1858 -1.3857
  702THF     O113214   0.077   2.826   3.676  1.0747 -0.2457 -0.7258
  702THF     C213215   0.166   2.816   3.569 -0.3743 -0.1905 -0.3834
  702THF     C313216   0.068   2.968   3.693 -0.0184  0.2533  0.2661
  702THF     H413217   0.130   2.837   3.469 -1.9254 -0.6548  0.0561
  702THF     H513218   0.196   2.712   3.581 -0.7535 -0.3276 -0.6060
  702THF     H613219   0.001   3.002   3.615 -0.9980 -2.7612 -0.3113
  702THF     H713220   0.018   2.991   3.787 -2.9148 -0.1379 -1.0841
  702THF     C813221   0.207   3.025   3.673 -0.3032  0.2310  0.4346
  702THF     C913222   0.280   2.913   3.612 -0.1709  0.3678  0.6449
  702THF    H1013223   0.253   3.040   3.771 -0.0710 -3.2815  0.9695
  702THF    H1113224   0.201   3.119   3.617 -1.7838 -0.2014 -0.1968
  702THF    H1213225   0.326   2.938   3.517  2.7112  1.6907  2.2477
  702THF    H1313226   0.355   2.868   3.677  1.2590  1.7560  0.0259
  703THF     O113227   4.620   3.650   0.965  0.1766 -0.0264  0.4074
  703THF     C213228   4.717   3.623   0.863  0.3477  0.0251  0.3367
  703THF     C313229   4.657   3.778   1.020 -0.9309 -0.3862  0.2078
  703THF     H413230   4.685   3.678   0.774 -0.7721 -0.4249  0.4498
  703THF     H513231   4.729   3.517   0.844  1.1301  0.2689 -0.6108
  703THF     H613232   4.612   3.860   0.963 -0.4052  1.0265  1.7463
  703THF     H713233   4.616   3.783   1.121  0.0702  0.9381  0.5775
  703THF     C813234   4.811   3.781   1.029  0.3201 -0.2613  0.0458
  703THF     C913235   4.851   3.682   0.921 -0.0430  0.0673  0.3946
  703THF    H1013236   4.849   3.734   1.121 -0.7826 -0.3862  0.4451
  703THF    H1113237   4.856   3.880   1.023 -1.3649  0.5076 -0.4557
  703THF    H1213238   4.911   3.726   0.841  2.7901 -3.0126  0.6081
  703THF    H1313239   4.912   3.608   0.974  0.2535  2.1896  3.2386
  704THF     O113240   0.492   3.735   2.598 -0.6249  0.5491  0.1756
  704THF     C213241   0.554   3.842   2.524  0.3311 -0.0503  0.2332
  704THF     C313242   0.362   3.739   2.548  0.0734  0.6010  0.2618
  704THF     H413243   0.568   3.801   2.423  1.9426 -0.6693  0.6710
  704THF     H513244   0.652   3.866   2.566  0.7897 -2.0095  0.3855
  704THF     H613245   0.366   3.681   2.456  3.4474  1.8173 -0.4938
  704THF     H713246   0.301   3.675   2.612 -2.3644  0.0371 -2.3892
  704THF     C813247   0.322   3.878   2.513 -0.4174 -1.0359  0.4671
  704THF     C913248   0.458   3.952   2.520  0.1090 -0.1382  0.5714
  704THF    H1013249   0.247   3.919   2.581  1.0722 -0.2553  1.6990
  704THF    H1113250   0.282   3.887   2.412  3.0134 -0.5023 -0.9885
  704THF    H1213251   0.470   4.023   2.438  1.5220 -0.0674  0.8243
  704THF    H1313252   0.464   4.004   2.615  0.9581 -1.4736  1.2872
  705THF     O113253   3.684   3.271   5.320  0.5667  0.6298  0.1637
  705THF     C213254   3.738   3.264   5.449 -0.1995 -0.3471 -0.2437
  705THF     C313255   3.740   3.164   5.245 -0.3553  0.1178 -0.0521
  705THF     H413256   3.681   3.193   5.509 -3.5877  3.7589  1.9732
  705THF     H513257   3.731   3.359   5.503  1.5917 -0.6700  0.6437
  705THF     H613258   3.686   3.072   5.263  1.0480 -0.9129 -0.9200
  705THF     H713259   3.716   3.188   5.142 -1.1752  2.6745  0.6473
  705THF     C813260   3.888   3.156   5.291  1.0017 -0.0307 -0.2678
  705THF     C913261   3.888   3.220   5.423  0.2556 -0.3672 -0.3549
  705THF    H1013262   3.939   3.211   5.213 -1.1392  0.6981 -1.2424
  705THF    H1113263   3.918   3.052   5.291  0.2051 -0.3330 -3.0004
  705THF    H1213264   3.908   3.142   5.496 -0.7191  0.0662  0.3929
  705THF    H1313265   3.950   3.309   5.438  0.4736 -0.5004 -0.4657
  706THF     O113266   4.369   3.792   4.742  0.0712  0.0446  0.2608
  706THF     C213267   4.245   3.853   4.710 -0.2903 -0.4405 -0.2087
  706THF     C313268   4.341   3.651   4.725 -0.0811 -0.0181 -0.3188
  706THF     H413269   4.217   3.862   4.605 -1.7797 -0.4975  0.1678
  706THF     H513270   4.245   3.959   4.734 -0.2674 -0.2647 -0.9390
  706THF     H613271   4.330   3.622   4.621 -2.3225  2.0967 -0.7515
  706THF     H713272   4.411   3.582   4.773  0.7108  2.3045  2.1270
  706THF     C813273   4.201   3.633   4.789  0.3271 -0.2824  0.3561
  706THF     C913274   4.147   3.781   4.799 -0.2231  0.6261 -0.1129
  706THF    H1013275   4.191   3.581   4.884 -0.6399  1.4236  1.2205
  706THF    H1113276   4.131   3.586   4.719 -0.2104  0.3049  0.4899
  706THF    H1213277   4.043   3.801   4.773 -0.4184  0.2633  0.3749
  706THF    H1313278   4.163   3.809   4.903 -0.5960 -2.5800  0.9303
  707THF     O113279   3.575   1.938   3.993  0.1817  0.2120  0.0867
  707THF     C213280   3.475   2.030   4.055 -0.2630  0.0309 -0.2220
  707THF     C313281   3.552   1.806   4.048  0.0041  0.1764 -0.3828
  707THF     H413282   3.436   2.102   3.983 -0.7014 -1.2181 -1.2816
  707THF     H513283   3.508   2.089   4.140 -0.3202 -0.6486  0.2780
  707THF     H613284   3.596   1.735   3.978  0.3940  1.6529 -1.7146
  707THF     H713285   3.615   1.783   4.133  1.1473 -3.5343 -2.0426
  707THF     C813286   3.400   1.803   4.073 -0.1808 -0.2752 -1.3033
  707THF     C913287   3.355   1.946   4.083 -0.0110 -0.6783 -0.3571
  707THF    H1013288   3.385   1.744   4.164  0.0759 -1.2554 -1.8749
  707THF    H1113289   3.356   1.744   3.992 -0.9936  0.3428 -1.3235
  707THF    H1213290   3.267   1.964   4.022  0.5888  3.4322 -0.2783
  707THF    H1313291   3.322   1.969   4.185 -2.6660 -3.2491 -0.5196
  708THF     O113292   1.443   0.710   1.800 -0.1051 -0.1637 -0.3004
  708THF     C213293   1.548   0.720   1.702  0.1192 -0.4960  0.4172
  708THF     C313294   1.358   0.605   1.755  0.0813 -0.7978  0.3064
  708THF     H413295   1.627   0.647   1.718 -0.3784 -0.5982  2.8915
  708THF     H513296   1.603   0.814   1.705  1.7349 -1.1278 -3.2760
  708THF     H613297   1.376   0.515   1.814 -0.7956 -0.2927  1.3843
  708THF     H713298   1.255   0.637   1.767  0.6609  1.1073  0.5621
  708THF     C813299   1.374   0.593   1.601  0.1576 -0.0735 -0.9050
  708THF     C913300   1.472   0.698   1.568 -0.4995  0.0352  0.2017
  708THF    H1013301   1.278   0.590   1.550 -1.2640  0.9575  1.5072
  708THF    H1113302   1.420   0.495   1.590 -0.4655 -0.3241 -1.2680
  708THF    H1213303   1.539   0.662   1.491 -0.0507  3.1593 -1.0042
  708THF    H1313304   1.422   0.790   1.536  2.4227  1.0793 -1.6926
  709THF     O113305   1.342   4.383   0.640  0.2768  0.1266 -0.2432
  709THF     C213306   1.439   4.440   0.725 -0.2015  0.6258 -0.8433
  709THF     C313307   1.405   4.297   0.549 -0.0920 -0.1922 -0.0089
  709THF     H413308   1.391   4.475   0.817 -1.2304  2.0435 -1.8847
  709THF     H513309   1.495   4.523   0.682 -1.0136  2.1199  0.8535
  709THF     H613310   1.339   4.234   0.491 -0.9884  0.1588  0.6022
  709THF     H713311   1.451   4.364   0.476  2.6762 -0.7481  1.0634
  709THF     C813312   1.509   4.232   0.641  0.2844  0.3692 -0.0730
  709THF     C913313   1.525   4.317   0.759 -0.1266  0.5992 -0.2625
  709THF    H1013314   1.602   4.230   0.583  1.2015  1.1987  1.3179
  709THF    H1113315   1.481   4.133   0.676 -0.6720  0.8983  0.6930
  709THF    H1213316   1.509   4.264   0.853 -0.6975 -1.6092 -1.5368
  709THF    H1313317   1.630   4.346   0.766 -0.4361  1.8708 -0.5927
  710THF     O113318   4.100   2.038   3.826  0.2293  0.0869  0.1628
  710THF     C213319   4.100   1.898   3.802 -1.0841 -0.0405  0.2068
  710THF     C313320   3.965   2.078   3.856  0.1104  0.1577  0.8132
  710THF     H413321   4.206   1.874   3.804 -1.0644 -0.1135 -0.9299
  710THF     H513322   4.056   1.883   3.704  2.7960 -1.4105 -1.5318
  710THF     H613323   3.961   2.177   3.901 -1.9589 -0.1555  1.4552
  710THF     H713324   3.901   2.076   3.768  0.2976 -0.9707  0.6808
  710THF     C813325   3.927   1.970   3.962  0.6617 -0.2808 -0.0339
  710THF     C913326   4.023   1.854   3.932  0.1384 -0.0668  0.4031
  710THF    H1013327   3.823   1.938   3.968 -0.7680  3.6655 -0.2018
  710THF    H1113328   3.936   2.010   4.063 -0.0038  0.4257 -0.2353
  710THF    H1213329   4.088   1.843   4.019  1.5632  2.2717 -0.2664
  710THF    H1313330   3.974   1.760   3.908 -0.0054 -0.8869  3.4922
  711THF     O113331   3.600   3.147   1.461  0.4899  0.2032  0.8404
  711THF     C213332   3.518   3.192   1.567  0.2782  0.3709 -0.0943
  711THF     C313333   3.740   3.156   1.485 -0.4050 -0.2498 -0.9917
  711THF     H413334   3.415   3.154   1.570  0.6163 -0.5610  0.1503
  711THF     H513335   3.506   3.300   1.572  0.7822  0.3786  1.2974
  711THF     H613336   3.803   3.089   1.427  0.1218 -0.2311 -0.4562
  711THF     H713337   3.775   3.257   1.461  0.1164 -0.5391 -1.4650
  711THF     C813338   3.743   3.132   1.637  0.3958  0.7632  0.5179
  711THF     C913339   3.595   3.126   1.682 -0.5526 -0.2071 -0.2877
  711THF    H1013340   3.789   3.212   1.696  1.5939  0.3186  0.2014
  711THF    H1113341   3.786   3.033   1.648  0.2147  0.7479  1.1332
  711THF    H1213342   3.559   3.023   1.692 -0.1135 -0.3394 -0.0444
  711THF    H1313343   3.569   3.176   1.775  1.0707  0.7781 -0.3397
  712THF     O113344   4.266   3.100   0.349 -0.0063  0.1408 -0.2145
  712THF     C213345   4.142   3.102   0.275  0.8567  0.1505 -0.1512
  712THF     C313346   4.220   3.086   0.486  0.1784  0.2161  0.3013
  712THF     H413347   4.165   3.113   0.169 -0.4877  1.0711 -0.3757
  712THF     H513348   4.091   3.193   0.307 -0.3883 -0.4323 -0.4056
  712THF     H613349   4.296   3.060   0.559 -0.1208  1.4940  1.0999
  712THF     H713350   4.171   3.175   0.525 -0.8584  0.0741 -0.5982
  712THF     C813351   4.123   2.963   0.462  0.6452 -1.2317  0.9682
  712THF     C913352   4.063   2.983   0.321 -0.6972  0.1871 -0.2770
  712THF    H1013353   4.041   2.975   0.533 -1.2960 -1.7877 -1.0483
  712THF    H1113354   4.173   2.867   0.470  0.7614 -1.2479  0.1261
  712THF    H1213355   4.086   2.892   0.265  0.1593 -1.2230  2.2228
  712THF    H1313356   3.955   2.996   0.316 -0.4749  1.7984 -1.7205
  713THF     O113357   0.048   0.010   4.595 -0.0077 -0.0587  0.3493
  713THF     C213358  -0.006  -0.017   4.467  0.1314 -0.4391  0.2912
  713THF     C313359   0.067   0.152   4.610  0.3938 -0.3715 -0.3992
  713THF     H413360  -0.070  -0.105   4.471 -0.3167 -0.0767  1.7960
  713THF     H513361   0.079  -0.027   4.399  1.7593 -2.1871  2.3904
  713THF     H613362   0.083   0.178   4.715 -1.7650  0.6163 -0.2826
  713THF     H713363   0.156   0.178   4.551  1.1807 -2.2128 -0.1010
  713THF     C813364  -0.066   0.208   4.554  0.1489  0.3097  0.3762
  713THF     C913365  -0.090   0.110   4.436  0.4325 -0.2987 -1.2579
  713THF    H1013366  -0.068   0.314   4.527 -0.9739  0.0863 -0.5064
  713THF    H1113367  -0.138   0.198   4.635 -0.8556  3.0338 -0.0581
  713THF    H1213368  -0.196   0.095   4.452  0.5362 -1.0732 -1.2513
  713THF    H1313369  -0.075   0.157   4.339 -0.0789 -0.3282 -1.3536
  714THF     O113370   5.284   1.396   4.016  0.2737 -0.0217 -0.3134
  714THF     C213371   5.355   1.294   3.949  0.2141  0.1203  0.2440
  714THF     C313372   5.262   1.502   3.920  0.4932  0.3118  0.3061
  714THF     H413373   5.285   1.230   3.895 -0.2854 -0.3827  1.4573
  714THF     H513374   5.407   1.238   4.026  1.1721  0.6641  0.0095
  714THF     H613375   5.166   1.483   3.872 -1.3070  0.8305  3.4129
  714THF     H713376   5.255   1.598   3.971  1.8067  1.4216 -1.5222
  714THF     C813377   5.373   1.491   3.819 -0.2393 -0.1711 -0.8262
  714THF     C913378   5.452   1.364   3.860 -1.0024 -0.8352 -0.2761
  714THF    H1013379   5.443   1.573   3.830 -0.2796 -0.4000  1.6789
  714THF    H1113380   5.326   1.476   3.721  1.2910 -0.5358 -1.5234
  714THF    H1213381   5.490   1.310   3.773  0.9640  0.5127 -0.3204
  714THF    H1313382   5.537   1.413   3.907  0.4448 -0.9326 -2.6252
  715THF     O113383   4.088   2.405   5.209 -0.1495 -0.4916  0.3472
  715THF     C213384   4.046   2.278   5.154  0.4949 -0.6317 -0.1154
  715THF     C313385   3.975   2.478   5.248  1.1018  0.1327  0.1008
  715THF     H413386   4.050   2.192   5.221  1.9238 -3.1403 -3.1788
  715THF     H513387   4.115   2.257   5.073 -0.3258  1.8948 -1.5734
  715THF     H613388   3.933   2.453   5.345 -1.6866  1.7462 -0.5580
  715THF     H713389   3.988   2.587   5.251  1.2356  0.2432 -2.2897
  715THF     C813390   3.874   2.442   5.128  0.2985 -0.2119  0.5294
  715THF     C913391   3.900   2.291   5.109  0.1964  0.2338  0.6658
  715THF    H1013392   3.894   2.497   5.035  1.9861  0.2460  1.1233
  715THF    H1113393   3.770   2.463   5.151 -0.1813 -0.4604 -1.2660
  715THF    H1213394   3.836   2.231   5.174 -1.5467  0.4673 -0.7593
  715THF    H1313395   3.879   2.257   5.008 -0.3223 -0.9757  1.1646
  716THF     O113396   0.048   3.229   3.893  0.3983  0.0025 -0.1013
  716THF     C213397  -0.033   3.283   3.993 -0.5390  0.4202  0.0453
  716THF     C313398   0.140   3.319   3.844 -0.1982 -0.0846 -0.3881
  716THF     H413399   0.009   3.277   4.093 -0.3796  0.6381 -0.0075
  716THF     H513400  -0.126   3.228   3.998  0.0759 -0.5592  1.1052
  716THF     H613401   0.239   3.285   3.875  0.5467  1.5906 -0.8496
  716THF     H713402   0.141   3.311   3.736 -3.1466 -1.3347 -0.4392
  716THF     C813403   0.099   3.452   3.903  0.1474 -0.1607 -0.0392
  716THF     C913404  -0.045   3.432   3.954 -0.1645 -0.3275 -0.0677
  716THF    H1013405   0.108   3.534   3.831 -0.7607  0.3923  0.4612
  716THF    H1113406   0.162   3.471   3.990  0.0650  0.1287 -0.0416
  716THF    H1213407  -0.083   3.495   4.034 -0.5230  0.9300 -1.1872
  716THF    H1313408  -0.111   3.431   3.868  0.3719 -2.5841 -0.5372
  717THF     O113409   2.789   0.031   3.264 -0.8264  0.2733 -0.5750
  717THF     C213410   2.728   0.162   3.264  0.0516 -0.0379  0.0030
  717THF     C313411   2.757  -0.025   3.388  0.6136 -0.1618 -0.4238
  717THF     H413412   2.629   0.140   3.224  0.7933 -1.5094 -1.1384
  717THF     H513413   2.793   0.221   3.200  0.5168  0.1111  0.6111
  717THF     H613414   2.658  -0.071   3.377 -0.4181  0.7375  3.4265
  717THF     H713415   2.825  -0.101   3.426  0.8011  1.8014  3.7079
  717THF     C813416   2.744   0.091   3.496  0.2915  0.0762  0.3938
  717THF     C913417   2.712   0.217   3.408  0.4926 -0.0665  0.5025
  717THF    H1013418   2.840   0.111   3.542 -0.1688  3.8374  0.0464
  717THF    H1113419   2.680   0.078   3.584 -0.0191  1.5493  0.4190
  717THF    H1213420   2.610   0.253   3.425  2.2168  3.7870  4.5062
  717THF    H1313421   2.776   0.301   3.435  0.0366  0.0845  1.1366
  718THF     O113422   4.377   4.815   0.667  0.6807  0.0803 -0.4720
  718THF     C213423   4.454   4.718   0.596  0.6164  0.1665 -0.5861
  718THF     C313424   4.456   4.899   0.749 -0.0582 -0.1287  0.0973
  718THF     H413425   4.400   4.675   0.512 -1.2644  1.4609 -0.1098
  718THF     H513426   4.458   4.631   0.661 -1.3216  1.2506  1.1090
  718THF     H613427   4.439   5.001   0.716  0.5234 -0.1845 -0.3962
  718THF     H713428   4.444   4.880   0.856 -1.2693  2.3447  0.4577
  718THF     C813429   4.601   4.871   0.707  0.3333 -0.1194  1.0688
  718THF     C913430   4.590   4.795   0.579  0.1022 -0.2504  0.6626
  718THF    H1013431   4.655   4.805   0.775  0.4024 -2.8763 -1.4683
  718THF    H1113432   4.665   4.958   0.703  0.3483 -0.1095  1.4836
  718THF    H1213433   4.571   4.867   0.499 -0.4027  0.9531  1.8212
  718THF    H1313434   4.667   4.720   0.566  1.9293  0.9597  3.5320
  719THF     O113435   5.164   1.799   4.792  1.2778  0.6474  0.2117
  719THF     C213436   5.028   1.798   4.759  0.7362  0.1904 -0.8345
  719THF     C313437   5.187   1.893   4.896 -0.3890  0.8512 -0.2336
  719THF     H413438   4.980   1.701   4.755  2.0370 -0.5564  0.5586
  719THF     H513439   5.021   1.839   4.658 -0.9595 -1.9246 -1.6434
  719THF     H613440   5.216   1.839   4.986  1.0478  1.5151 -0.2655
  719THF     H713441   5.280   1.945   4.874  0.7702 -0.8010  0.4700
  719THF     C813442   5.066   1.979   4.909  0.5267  0.4396 -0.1801
  719THF     C913443   4.958   1.885   4.868  0.4450 -0.5255  0.0966
  719THF    H1013444   5.073   2.062   4.839 -0.3439  0.8000  0.1394
  719THF    H1113445   5.058   2.025   5.007  2.1735  0.7454 -0.1602
  719THF    H1213446   4.916   1.828   4.951 -2.0321  0.2402 -0.5279
  719THF    H1313447   4.871   1.940   4.833  0.8594 -0.1070 -0.2835
  720THF     O113448   1.186   0.478   4.195 -0.1808  0.5386  0.2565
  720THF     C213449   1.328   0.474   4.201 -0.6699  0.0877 -0.0862
  720THF     C313450   1.153   0.602   4.138  0.6619  0.2485 -0.0390
  720THF     H413451   1.363   0.373   4.183 -0.8660  0.3902 -2.5271
  720THF     H513452   1.377   0.512   4.291  0.4087 -1.4663  0.0128
  720THF     H613453   1.051   0.611   4.101  1.4336  1.4008 -2.0324
  720THF     H713454   1.170   0.688   4.203  1.2808  0.5317 -0.5608
  720THF     C813455   1.243   0.605   4.018 -0.2458  0.4804  0.6105
  720THF     C913456   1.370   0.556   4.080  0.4554 -0.2190 -0.4752
  720THF    H1013457   1.262   0.703   3.974  0.3836 -0.3791 -1.1298
  720THF    H1113458   1.217   0.548   3.929  1.1044  1.4002 -0.4148
  720THF    H1213459   1.442   0.513   4.011  0.2103 -3.2164  1.0018
  720THF    H1313460   1.413   0.646   4.124  0.1380  1.8276 -3.9066
  721THF     O113461   1.759   3.606   1.065 -0.0700  0.2021  0.7323
  721THF     C213462   1.851   3.638   0.959  0.4243 -0.3334  0.4986
  721THF     C313463   1.826   3.635   1.187  0.3306 -0.0860  0.2493
  721THF     H413464   1.834   3.744   0.938  2.6576 -0.2729 -1.4476
  721THF     H513465   1.841   3.568   0.876 -0.5008 -1.2625  1.3617
  721THF     H613466   1.775   3.712   1.245  0.7663  0.0024  0.5215
  721THF     H713467   1.830   3.541   1.242 -2.6021 -1.0448 -1.0126
  721THF     C813468   1.973   3.677   1.155  0.0280 -0.1477 -1.1646
  721THF     C913469   1.986   3.625   1.022 -0.0947 -0.0990  0.6553
  721THF    H1013470   2.054   3.654   1.225 -1.0939  0.4033  0.3689
  721THF    H1113471   1.956   3.784   1.148 -3.6450 -0.3153  1.9431
  721THF    H1213472   2.060   3.666   0.954  0.6392 -2.5642 -0.1351
  721THF    H1313473   2.013   3.520   1.034 -0.3619 -0.0182  2.1697
  722THF     O113474   4.286   1.684   4.015  0.3340  0.1851 -0.6036
  722THF     C213475   4.360   1.644   3.900 -0.0906  0.0053 -0.2604
  722THF     C313476   4.222   1.564   4.058 -0.4534  0.2478 -0.6501
  722THF     H413477   4.454   1.696   3.882 -1.6818  3.1906 -0.0944
  722THF     H513478   4.286   1.647   3.820  0.5737 -1.6819 -0.9980
  722THF     H613479   4.245   1.547   4.163 -3.3141 -1.4368 -0.2051
  722THF     H713480   4.114   1.568   4.050 -0.3919  0.1293 -1.6775
  722THF     C813481   4.266   1.444   3.967 -0.0427 -0.0411  0.2884
  722THF     C913482   4.390   1.496   3.915 -0.1957 -0.1224  0.0337
  722THF    H1013483   4.187   1.417   3.897  0.2984 -0.9065  0.2222
  722THF    H1113484   4.287   1.359   4.032 -0.1301 -0.4458 -0.2116
  722THF    H1213485   4.481   1.489   3.976  0.9188  0.3955 -1.5048
  722THF    H1313486   4.409   1.444   3.822 -0.6548  0.1464 -0.2137
  723THF     O113487   3.561   1.496   0.561 -0.1050 -0.5165 -0.1642
  723THF     C213488   3.566   1.618   0.481  0.8232  0.2735 -0.4630
  723THF     C313489   3.482   1.522   0.678  0.4967  0.1694 -0.8471
  723THF     H413490   3.505   1.604   0.391 -0.1546  1.5447 -0.0247
  723THF     H513491   3.668   1.633   0.447  0.9217 -0.4809 -0.5293
  723THF     H613492   3.380   1.491   0.656  0.8120 -0.5450 -1.3309
  723THF     H713493   3.500   1.467   0.770 -3.4846 -0.2888 -0.1587
  723THF     C813494   3.505   1.669   0.703  1.1438 -0.0664 -0.9109
  723THF     C913495   3.509   1.727   0.567 -0.7757 -0.4390  0.3273
  723THF    H1013496   3.593   1.668   0.767  0.2428  1.2383  0.4335
  723THF    H1113497   3.428   1.724   0.758  1.1431  0.4694 -1.4372
  723THF    H1213498   3.415   1.762   0.525 -0.1863 -0.6604 -1.2506
  723THF    H1313499   3.573   1.815   0.568 -0.5528 -0.5644 -1.0999
  724THF     O113500   3.568   3.505   0.320  0.0037 -0.5098 -0.0742
  724THF     C213501   3.530   3.496   0.186  0.1318 -0.0001  0.3653
  724THF     C313502   3.485   3.418   0.390  0.4435  0.4250  0.3603
  724THF     H413503   3.607   3.524   0.115 -0.9666 -1.3223 -1.4293
  724THF     H513504   3.446   3.564   0.170 -0.6698 -1.0890 -0.1989
  724THF     H613505   3.519   3.395   0.491 -1.5236 -1.0394  0.7542
  724THF     H713506   3.384   3.459   0.392  0.1665 -0.0595 -1.7663
  724THF     C813507   3.481   3.294   0.303 -0.6459  0.4576 -0.1959
  724THF     C913508   3.472   3.357   0.163 -0.0077 -0.4158  0.1387
  724THF    H1013509   3.394   3.234   0.328  1.2218 -2.9993 -1.3390
  724THF    H1113510   3.576   3.241   0.308 -0.9720 -0.0052  1.5658
  724THF    H1213511   3.527   3.311   0.082 -0.4082  2.6893 -2.0774
  724THF    H1313512   3.368   3.367   0.132  0.3543 -0.1412 -1.0144
  725THF     O113513   0.012   1.927   5.041  0.5931 -0.4721 -0.0271
  725THF     C213514   0.031   1.897   5.179 -0.7268  0.0503 -0.1848
  725THF     C313515   0.141   1.953   4.990  0.3486  0.2604 -0.8455
  725THF     H413516   0.086   1.805   5.197  0.5048  1.2476  2.8732
  725THF     H513517  -0.067   1.875   5.222 -0.3089 -3.6818 -0.8043
  725THF     H613518   0.203   1.865   4.975  1.2043  0.4164  1.4335
  725THF     H713519   0.144   2.016   4.901 -0.7953  0.6300 -0.6407
  725THF     C813520   0.208   2.037   5.105  0.8067  0.4990 -0.2585
  725THF     C913521   0.118   2.012   5.221 -0.1017  0.0272 -0.4416
  725THF    H1013522   0.204   2.144   5.085  0.0806  0.6461  0.5976
  725THF    H1113523   0.314   2.018   5.123  0.7623 -0.6817 -1.1689
  725THF    H1213524   0.171   1.985   5.312  1.3504 -2.5782 -1.9479
  725THF    H1313525   0.047   2.093   5.234 -0.3437 -0.5193  2.1043
  726THF     O113526   4.649   2.434   4.458  0.5370 -0.4384 -0.0350
  726THF     C213527   4.675   2.491   4.333 -0.0891  0.6743 -0.6778
  726THF     C313528   4.545   2.331   4.448 -0.7184 -0.1824 -0.5266
  726THF     H413529   4.784   2.494   4.331 -0.1196  2.3314 -0.8721
  726THF     H513530   4.619   2.583   4.319  0.7660  1.0325 -1.7994
  726THF     H613531   4.582   2.231   4.471 -0.0605 -0.8245 -3.9290
  726THF     H713532   4.464   2.344   4.519 -0.4385  0.0376 -0.2417
  726THF     C813533   4.505   2.343   4.307  0.4861 -0.4034 -0.0285
  726THF     C913534   4.625   2.388   4.232 -0.4710 -0.4070 -0.2130
  726THF    H1013535   4.419   2.408   4.293  0.5789 -0.0862  0.8376
  726THF    H1113536   4.480   2.247   4.262  1.6556 -0.8511  0.2204
  726THF    H1213537   4.697   2.308   4.215  0.1523  0.4345 -1.7570
  726THF    H1313538   4.600   2.427   4.133  1.4548  1.6661  0.0218
  727THF     O113539   0.586   4.835   1.259 -0.0596 -0.4914  0.7337
  727THF     C213540   0.701   4.766   1.223  0.1765  0.6821 -0.7185
  727THF     C313541   0.602   4.973   1.204  0.0194 -0.0212  1.1861
  727THF     H413542   0.687   4.658   1.235 -1.3989  1.0088  0.7166
  727THF     H513543   0.788   4.803   1.277  1.6286  1.3002 -3.3145
  727THF     H613544   0.505   5.021   1.190 -0.2624 -1.2625 -1.9529
  727THF     H713545   0.671   5.028   1.269  0.2195 -0.7460  1.5958
  727THF     C813546   0.668   4.950   1.066 -0.4540  0.8357 -0.4393
  727THF     C913547   0.720   4.800   1.073  0.1864  0.6600 -0.1925
  727THF    H1013548   0.731   5.034   1.037 -2.1507  2.4839  0.4303
  727THF    H1113549   0.597   4.933   0.984 -1.2550  0.0861  0.3817
  727THF    H1213550   0.657   4.741   1.006  1.1282  0.7015 -1.1293
  727THF    H1313551   0.821   4.773   1.044 -0.1659 -3.4763  1.6345
  728THF     O113552   1.145   1.402   5.243 -0.7566  0.2423  0.1014
  728THF     C213553   1.257   1.305   5.251 -0.1041  0.2899 -0.2518
  728THF     C313554   1.080   1.412   5.365  0.1351 -1.2635 -0.2101
  728THF     H413555   1.354   1.353   5.264  0.6217 -0.9041 -1.0704
  728THF     H513556   1.284   1.249   5.161  1.0957 -2.2983  1.5996
  728THF     H613557   1.140   1.476   5.430 -0.9931  0.6597 -1.0007
  728THF     H713558   0.979   1.450   5.357  0.8461  1.1907  1.3646
  728THF     C813559   1.092   1.268   5.412 -0.3146 -0.3565 -0.1659
  728THF     C913560   1.232   1.223   5.377  0.0282  0.6869 -0.4169
  728THF    H1013561   1.031   1.193   5.361  0.5566 -2.8470  2.2390
  728THF    H1113562   1.081   1.252   5.519  3.4165  2.1961  0.7999
  728THF    H1213563   1.303   1.230   5.459 -0.7428  0.5707  0.2632
  728THF    H1313564   1.236   1.117   5.350 -2.0247  0.7390 -1.0418
  729THF     O113565   1.934   0.447   1.690 -0.1370 -0.5910  0.6910
  729THF     C213566   2.004   0.431   1.813  0.8145 -1.1863  1.0103
  729THF     C313567   1.823   0.353   1.691 -0.1047 -0.4375  0.5387
  729THF     H413568   2.061   0.522   1.832 -3.2399  1.8241  0.1964
  729THF     H513569   2.068   0.343   1.807  0.9154 -1.0122 -0.8959
  729THF     H613570   1.758   0.393   1.613 -0.1823  0.6820  1.1528
  729THF     H713571   1.864   0.259   1.654  1.1579  0.9790 -2.0534
  729THF     C813572   1.767   0.367   1.828 -0.0391  0.3257  0.1456
  729THF     C913573   1.891   0.401   1.909  1.0485 -0.3072  0.5819
  729THF    H1013574   1.732   0.276   1.877 -1.3530  1.2547  0.9652
  729THF    H1113575   1.687   0.440   1.835 -0.8325 -0.3185 -1.5945
  729THF    H1213576   1.862   0.484   1.975 -0.4682 -0.6574  0.3707
  729THF    H1313577   1.916   0.316   1.972  1.3319 -0.7251 -0.0947
  730THF     O113578   3.529   3.574   0.810  0.4657 -0.2218 -0.2135
  730THF     C213579   3.671   3.585   0.788  0.1832 -0.4148  0.4536
  730THF     C313580   3.471   3.704   0.804 -0.0031  0.0318 -0.3174
  730THF     H413581   3.699   3.518   0.707 -0.1726 -0.6709  0.5402
  730THF     H513582   3.735   3.565   0.874 -1.4669 -4.8062  0.9010
  730THF     H613583   3.363   3.695   0.788 -0.3747 -3.8359  2.8508
  730THF     H713584   3.487   3.745   0.903 -0.9030  0.1180 -0.1969
  730THF     C813585   3.550   3.786   0.707 -0.2275  0.4441  0.5449
  730THF     C913586   3.692   3.730   0.735 -0.5733 -0.3090  0.4225
  730THF    H1013587   3.549   3.894   0.720 -0.3267  0.8543 -2.1977
  730THF    H1113588   3.512   3.765   0.607  0.3482 -1.1999  0.6356
  730THF    H1213589   3.764   3.737   0.653  0.5269  0.4360  1.4191
  730THF    H1313590   3.741   3.779   0.819  3.9270 -2.1186 -0.8356
  731THF     O113591   2.716   0.703   3.055  0.1369 -0.3789  0.3302
  731THF     C213592   2.655   0.582   2.999 -0.7982  0.4301  0.2759
  731THF     C313593   2.716   0.691   3.199 -0.3234  0.2815  0.6426
  731THF     H413594   2.695   0.566   2.899 -0.7844  1.9665  0.0103
  731THF     H513595   2.546   0.592   2.993 -0.5547  4.0176 -1.2191
  731THF     H613596   2.786   0.769   3.229 -0.3237  1.6988 -2.6215
  731THF     H713597   2.615   0.706   3.237 -0.4608  1.0024  0.0201
  731THF     C813598   2.756   0.546   3.219 -0.4922 -0.0413 -0.0940
  731THF     C913599   2.707   0.472   3.095 -0.0772 -0.0351  0.2245
  731THF    H1013600   2.723   0.512   3.317 -1.8537  1.7014  0.1131
  731THF    H1113601   2.865   0.547   3.226 -0.4090  1.2996 -1.1899
  731THF    H1213602   2.790   0.425   3.043  0.2306  0.8790 -0.1306
  731THF    H1313603   2.626   0.399   3.101  0.6833 -0.9285 -0.1538
  732THF     O113604   1.839   1.762   0.641  0.2384 -0.2059 -0.5685
  732THF     C213605   1.749   1.659   0.670 -0.1190 -0.4122  0.0157
  732THF     C313606   1.868   1.765   0.501  0.3485 -0.1594  0.1019
  732THF     H413607   1.652   1.677   0.624 -0.8388 -2.5451  0.5745
  732THF     H513608   1.724   1.645   0.776  0.3273 -2.4656 -0.1113
  732THF     H613609   1.785   1.818   0.453 -0.4968 -0.5606  1.0714
  732THF     H713610   1.961   1.820   0.493  0.2259  0.0686  0.2084
  732THF     C813611   1.877   1.612   0.474 -0.6188 -0.4525 -0.0056
  732THF     C913612   1.812   1.546   0.592  0.4021 -0.0664  0.0200
  732THF    H1013613   1.980   1.583   0.459 -0.6049 -0.3417 -0.1304
  732THF    H1113614   1.819   1.580   0.387 -1.6089 -0.9493  0.8055
  732THF    H1213615   1.738   1.471   0.562 -0.4890  0.6120  0.4833
  732THF    H1313616   1.883   1.499   0.661  0.0890 -3.0990 -1.5262
  733THF     O113617   1.914   1.437   3.110 -0.2533  0.2377  0.5786
  733THF     C213618   1.893   1.491   2.983  1.2631  0.2964 -0.5634
  733THF     C313619   1.808   1.450   3.202 -0.3868 -0.2957  0.4828
  733THF     H413620   1.963   1.444   2.914  0.7022  0.4752 -1.2624
  733THF     H513621   1.897   1.600   2.983  0.0476  0.3642 -1.4836
  733THF     H613622   1.790   1.358   3.258 -0.3668 -0.6018 -0.0068
  733THF     H713623   1.821   1.522   3.282 -0.3279  0.3846 -0.1283
  733THF     C813624   1.685   1.464   3.110 -0.2806  0.5414 -0.3985
  733THF     C913625   1.744   1.449   2.967 -0.2484 -0.3623 -0.3207
  733THF    H1013626   1.640   1.563   3.118 -0.7326  0.3469 -0.5349
  733THF    H1113627   1.608   1.389   3.132 -1.0792  1.9872  2.1114
  733THF    H1213628   1.738   1.346   2.932 -2.4738 -0.9030  1.4008
  733THF    H1313629   1.689   1.509   2.895  0.7557 -0.4524 -1.1795
  734THF     O113630   0.227   4.456   5.117 -0.4597  0.0073 -0.4404
  734THF     C213631   0.105   4.416   5.169 -0.4134 -0.1209 -0.1335
  734THF     C313632   0.208   4.580   5.051 -0.0497 -0.3965 -0.6890
  734THF     H413633   0.087   4.473   5.261  0.7616  0.2677 -0.1297
  734THF     H513634   0.101   4.307   5.177 -0.9958  0.0115  2.1518
  734THF     H613635   0.204   4.657   5.128  2.2087  1.2430 -2.0895
  734THF     H713636   0.300   4.606   5.000  2.5194 -1.9392  2.7163
  734THF     C813637   0.072   4.564   4.978  0.6438  0.4921 -0.1698
  734THF     C913638   0.003   4.454   5.062  0.3541  0.1329 -0.3994
  734THF    H1013639   0.088   4.538   4.874  2.1034 -0.2872  0.2183
  734THF    H1113640   0.015   4.657   4.981  0.8735  0.6147  0.5256
  734THF    H1213641  -0.085   4.488   5.117  1.9601  2.0575  1.1262
  734THF    H1313642  -0.015   4.375   4.988  0.8575 -0.5739  0.2111
  735THF     O113643   2.126   4.236   2.981  0.8890 -0.1216 -0.0169
  735THF     C213644   2.069   4.315   3.087  0.8338 -0.0334  0.3709
  735THF     C313645   2.126   4.302   2.853  0.0063  0.0954 -0.4791
  735THF     H413646   2.107   4.296   3.188 -0.1359 -4.1439  0.1378
  735THF     H513647   1.964   4.287   3.086  0.7700  0.2122  0.2331
  735THF     H613648   2.231   4.313   2.823  0.0783  1.0067  0.0782
  735THF     H713649   2.070   4.255   2.772 -0.5928  2.4123 -1.5091
  735THF     C813650   2.066   4.433   2.884 -0.4314 -1.0670 -0.4027
  735THF     C913651   2.079   4.452   3.033 -0.1658 -0.5957  0.1059
  735THF    H1013652   1.958   4.428   2.870 -0.9022  1.3022  1.6225
  735THF    H1113653   2.101   4.512   2.818 -1.0015 -0.5428 -0.0855
  735THF    H1213654   2.177   4.488   3.065 -0.5725  0.6751 -0.0354
  735THF    H1313655   2.004   4.520   3.073 -2.6389 -3.0566 -0.0321
  736THF     O113656   0.989   4.734   1.491 -0.0045  0.2177 -0.0178
  736THF     C213657   1.064   4.723   1.364 -0.4921  0.3383 -0.6047
  736THF     C313658   1.057   4.834   1.566  0.1216  0.3993 -0.4616
  736THF     H413659   0.999   4.746   1.279 -0.3394  0.7216 -0.6182
  736THF     H513660   1.101   4.620   1.361  1.1784  0.8546  0.8669
  736THF     H613661   1.012   4.932   1.547  0.5490  1.1144  1.8604
  736THF     H713662   1.044   4.809   1.671 -0.2343 -2.0943 -1.0373
  736THF     C813663   1.204   4.838   1.523 -0.6695  0.0250 -0.2979
  736THF     C913664   1.182   4.811   1.374  0.0147  0.6807  0.1858
  736THF    H1013665   1.261   4.756   1.567 -0.6211 -0.4173 -1.1583
  736THF    H1113666   1.255   4.929   1.554  0.9626 -1.2608  0.9852
  736THF    H1213667   1.150   4.899   1.318 -0.3375 -1.1465 -2.6864
  736THF    H1313668   1.267   4.768   1.321 -0.6550 -0.4258 -0.0033
  737THF     O113669   4.449   1.750   1.332 -0.7572  0.2162 -0.4273
  737THF     C213670   4.552   1.657   1.326 -0.1056  0.3422  0.0324
  737THF     C313671   4.427   1.805   1.207 -0.1470 -0.5066 -0.1355
  737THF     H413672   4.517   1.556   1.350 -2.6252  1.3967  1.1400
  737THF     H513673   4.633   1.678   1.396 -1.5684  3.1455  1.0147
  737THF     H613674   4.356   1.759   1.139  0.1365  1.3384 -1.7702
  737THF     H713675   4.417   1.914   1.209  1.5751 -0.3199  0.9050
  737THF     C813676   4.555   1.780   1.123  0.4169  0.3589  0.5678
  737THF     C913677   4.602   1.648   1.183 -0.9311  0.3026  0.8247
  737THF    H1013678   4.635   1.853   1.139  0.7938  0.0874 -0.0281
  737THF    H1113679   4.535   1.771   1.017  0.1235 -1.0284  0.7227
  737THF    H1213680   4.566   1.560   1.128 -0.5852 -1.6831  3.5480
  737THF    H1313681   4.711   1.643   1.180 -0.9669 -0.2759 -1.6548
  738THF     O113682   5.131   3.443   0.592 -1.1467  0.4772 -0.1888
  738THF     C213683   5.259   3.499   0.558 -0.7610 -0.1353  0.0487
  738THF     C313684   5.123   3.454   0.731 -0.1365  0.0549 -0.3920
  738THF     H413685   5.262   3.534   0.455 -0.5783 -0.0992  0.0652
  738THF     H513686   5.332   3.419   0.570 -1.3137 -0.9210 -1.6595
  738THF     H613687   5.024   3.442   0.773 -0.2723  0.2791 -0.6457
  738THF     H713688   5.178   3.376   0.783  2.1567  0.8293 -1.5012
  738THF     C813689   5.194   3.589   0.758  0.1386  0.2627 -0.0260
  738THF     C913690   5.284   3.612   0.646 -0.9467  0.0091  0.0008
  738THF    H1013691   5.238   3.602   0.857  1.7396  1.6878 -0.8693
  738THF    H1113692   5.114   3.663   0.755  1.0065  1.2276  0.0106
  738THF    H1213693   5.265   3.708   0.598 -3.5663 -0.8852 -0.8980
  738THF    H1313694   5.384   3.602   0.688 -2.7327 -0.2950  4.7208
  739THF     O113695   2.774   2.412   1.123 -0.0552  0.0779  0.1730
  739THF     C213696   2.821   2.335   1.241  0.3739 -0.2009  0.2840
  739THF     C313697   2.772   2.547   1.162  0.0483  0.6902 -1.1197
  739THF     H413698   2.927   2.354   1.226  0.0932  1.5528  0.3256
  739THF     H513699   2.791   2.230   1.248 -0.9890  0.2509  1.6981
  739THF     H613700   2.870   2.592   1.146  0.1713  0.3038 -1.4852
  739THF     H713701   2.698   2.600   1.102 -2.3283 -3.0355 -1.8176
  739THF     C813702   2.724   2.545   1.307 -0.5104  0.1040  0.1812
  739THF     C913703   2.774   2.417   1.365 -0.6999  0.2347  1.4266
  739THF    H1013704   2.616   2.531   1.306 -0.6927  1.3655  0.3480
  739THF    H1113705   2.740   2.633   1.369 -3.4403  1.6113 -0.9961
  739THF    H1213706   2.862   2.433   1.428  0.7248  0.7236 -0.5888
  739THF    H1313707   2.689   2.357   1.398 -2.1796  0.5696 -1.4404
  740THF     O113708   3.732   3.470   4.835 -0.0712 -0.4225 -0.3173
  740THF     C213709   3.717   3.354   4.907  0.4455  0.1619  0.3927
  740THF     C313710   3.877   3.473   4.817  0.4202 -0.3867  0.2624
  740THF     H413711   3.615   3.316   4.900  0.0798  0.8483  1.6019
  740THF     H513712   3.737   3.366   5.014 -0.6027 -0.7624  0.7163
  740THF     H613713   3.916   3.541   4.741 -0.8043 -1.1757 -1.1246
  740THF     H713714   3.925   3.504   4.910  0.5521 -0.1007  0.0995
  740THF     C813715   3.929   3.333   4.786  0.3128 -0.2214 -0.3423
  740THF     C913716   3.813   3.248   4.845 -0.1052  0.1402 -0.0611
  740THF    H1013717   4.016   3.323   4.851 -0.9730  1.0021  1.7138
  740THF    H1113718   3.954   3.323   4.681  1.9440 -0.2639  0.0256
  740THF    H1213719   3.767   3.190   4.765 -2.7305  0.3825  1.1910
  740THF    H1313720   3.853   3.176   4.917 -0.1636  0.3368  0.1678
  741THF     O113721   4.968   3.907   0.658  0.1454 -0.2285  0.0056
  741THF     C213722   4.854   3.978   0.708 -0.2823  0.2266  0.1916
  741THF     C313723   4.972   3.934   0.515  0.0129  0.0466 -0.0712
  741THF     H413724   4.896   4.078   0.721  2.0755 -0.5829 -0.6190
  741THF     H513725   4.811   3.943   0.802  1.6774  1.7397  1.7440
  741THF     H613726   5.011   4.031   0.484 -1.4677  0.8767  0.5530
  741THF     H713727   5.034   3.855   0.473 -1.6120 -0.0203 -2.5736
  741THF     C813728   4.822   3.917   0.474 -0.6879 -0.2793 -0.2389
  741THF     C913729   4.751   3.975   0.597 -0.1946 -0.3064  0.2813
  741THF    H1013730   4.789   3.814   0.460 -1.2477 -0.3263  1.1942
  741THF    H1113731   4.798   3.986   0.393 -0.4624  0.2298  0.1161
  741THF    H1213732   4.709   4.075   0.581 -0.4166 -0.3386  0.6626
  741THF    H1313733   4.671   3.906   0.622 -0.4097 -0.7628 -1.5353
  742THF     O113734   3.385   3.317   2.064  0.4265 -0.4717 -0.0151
  742THF     C213735   3.394   3.385   2.187 -0.2931 -0.6771 -0.5285
  742THF     C313736   3.324   3.192   2.096  0.3715 -0.2913  0.4269
  742THF     H413737   3.368   3.489   2.166 -3.9695 -0.4510  3.7535
  742THF     H513738   3.502   3.384   2.201 -0.1024 -1.3460 -1.8774
  742THF     H613739   3.281   3.144   2.008  2.3263 -1.2829 -0.0531
  742THF     H713740   3.408   3.128   2.124  0.8434 -0.9505 -2.1732
  742THF     C813741   3.234   3.210   2.215  0.2715 -0.8456 -0.3573
  742THF     C913742   3.298   3.325   2.291 -0.6130 -0.1952  0.3704
  742THF    H1013743   3.212   3.133   2.290 -0.2711 -0.7960 -0.4626
  742THF    H1113744   3.137   3.246   2.180  0.6297  0.6251  0.1267
  742THF    H1213745   3.231   3.396   2.341  0.3716  0.2144  1.1606
  742THF    H1313746   3.349   3.280   2.377  0.6661 -0.1392 -0.3343
  743THF     O113747   2.120   4.060   3.930 -0.5452  0.1870  0.1263
  743THF     C213748   2.237   3.998   3.983 -0.2976 -0.2919 -0.4857
  743THF     C313749   2.151   4.159   3.832  0.0258  0.6106 -0.7801
  743THF     H413750   2.247   3.892   3.958 -0.2981 -0.3360 -0.2960
  743THF     H513751   2.232   4.009   4.091  0.6721  0.3246 -0.4891
  743THF     H613752   2.164   4.126   3.729  2.1032  3.8339 -1.7072
  743THF     H713753   2.082   4.243   3.840 -0.5055 -0.0088  2.4340
  743THF     C813754   2.284   4.209   3.881  0.8773 -0.1331 -0.4936
  743THF     C913755   2.355   4.083   3.934 -0.4153 -0.1190 -0.4510
  743THF    H1013756   2.272   4.284   3.959 -3.9543 -1.8074  0.7222
  743THF    H1113757   2.344   4.261   3.807 -1.3028  0.5120 -1.8950
  743THF    H1213758   2.401   4.046   3.842 -0.1313  3.1438 -1.7540
  743THF    H1313759   2.430   4.109   4.008 -2.5987 -0.4568  2.0563
  744THF     O113760   4.817   0.966   2.965 -0.1182  0.1821  0.0605
  744THF     C213761   4.744   0.887   2.873 -0.2463  0.2737  0.0385
  744THF     C313762   4.923   0.885   3.010  0.2253 -0.2248 -0.0975
  744THF     H413763   4.682   0.953   2.813 -0.0946 -1.2436 -1.8811
  744THF     H513764   4.675   0.829   2.934  0.1630 -0.2338  0.0271
  744THF     H613765   5.013   0.926   3.057  0.7743 -2.3827  0.8368
  744THF     H713766   4.875   0.814   3.078 -2.6611  0.6720 -1.0291
  744THF     C813767   4.973   0.816   2.885  0.4196 -0.3476  0.1389
  744THF     C913768   4.847   0.806   2.798 -0.0967  0.4078  0.6390
  744THF    H1013769   5.000   0.712   2.907  1.2365  0.0100  0.8639
  744THF    H1113770   5.051   0.870   2.832 -0.7425  1.9416  0.6493
  744THF    H1213771   4.860   0.843   2.697 -1.3558 -0.5748  0.0979
  744THF    H1313772   4.817   0.701   2.800  0.5268  0.2323  0.9946
  745THF     O113773   0.592   0.216   3.832  0.9649  0.7611 -0.0979
  745THF     C213774   0.576   0.214   3.969  0.0297 -0.6167  0.2197
  745THF     C313775   0.477   0.251   3.762  0.4901  0.9369 -0.3278
  745THF     H413776   0.608   0.311   4.007 -1.1787  0.0295 -0.3395
  745THF     H513777   0.649   0.141   4.004 -0.2436 -0.8877  0.2336
  745THF     H613778   0.480   0.357   3.736  0.0474  0.8124 -0.9062
  745THF     H713779   0.463   0.185   3.676 -2.1391 -1.7230  1.9425
  745THF     C813780   0.356   0.220   3.855 -0.2819 -0.3386  0.7780
  745THF     C913781   0.422   0.185   3.995 -0.1916 -0.1638  0.0248
  745THF    H1013782   0.294   0.141   3.812  0.0302 -1.2218  1.8822
  745THF    H1113783   0.291   0.307   3.855 -1.1454 -0.8298 -2.7512
  745THF    H1213784   0.395   0.252   4.076  1.2253  1.4577 -0.7581
  745THF    H1313785   0.399   0.086   4.033  0.6625 -0.1289  0.6649
  746THF     O113786   2.450   3.528   2.629  0.4462  0.1854  0.2576
  746THF     C213787   2.396   3.401   2.657  0.4578  0.1906 -0.5738
  746THF     C313788   2.540   3.571   2.728 -0.7682 -0.0922 -0.4515
  746THF     H413789   2.477   3.336   2.625  1.0010  1.3864 -1.7333
  746THF     H513790   2.308   3.375   2.598  0.5609  1.8935 -1.5578
  746THF     H613791   2.642   3.539   2.709 -1.2971 -2.3941  0.3330
  746THF     H713792   2.537   3.680   2.738 -4.1557 -0.1533  0.2948
  746THF     C813793   2.486   3.505   2.859  0.1916 -0.5531  0.0333
  746THF     C913794   2.389   3.400   2.808  0.0126  0.5784  0.2051
  746THF    H1013795   2.432   3.568   2.930  0.1759 -3.3038  2.7074
  746THF    H1113796   2.568   3.458   2.914  1.2954  1.2878  0.0456
  746THF    H1213797   2.396   3.298   2.844  1.1804  0.8910  0.9032
  746THF    H1313798   2.286   3.420   2.837 -0.3790 -2.5524  1.3337
  747THF     O113799   2.181   2.934   3.176  0.3675  0.2982  0.2517
  747THF     C213800   2.135   2.795   3.202 -0.0028  0.4354  0.0039
  747THF     C313801   2.317   2.913   3.130  0.1998  0.6807  0.0946
  747THF     H413802   2.104   2.747   3.109  1.9678  1.0071 -1.0061
  747THF     H513803   2.057   2.792   3.278  0.0126  2.5324  0.1660
  747THF     H613804   2.337   2.897   3.025  0.9941 -0.3999  0.3907
  747THF     H713805   2.371   3.003   3.159  0.5545  0.2659  0.7677
  747THF     C813806   2.365   2.797   3.210  0.6618 -0.3162 -0.1466
  747THF     C913807   2.248   2.725   3.263 -0.6908 -0.8660 -0.2395
  747THF    H1013808   2.416   2.834   3.299  0.2655 -0.4965  0.1555
  747THF    H1113809   2.430   2.725   3.161  1.7363 -0.4057  1.3445
  747THF    H1213810   2.239   2.617   3.255 -1.1107 -0.8742  0.3085
  747THF    H1313811   2.242   2.740   3.371  1.2242 -0.1959 -0.1758
  748THF     O113812   0.147   4.014   2.929 -0.3074  0.5115  0.0671
  748THF     C213813   0.052   4.086   3.008 -0.0901  0.4558 -0.3818
  748THF     C313814   0.121   3.872   2.955 -0.1250 -0.3278 -0.6782
  748THF     H413815   0.008   4.162   2.943  0.5377  0.6656 -0.5667
  748THF     H513816   0.101   4.145   3.086  0.6230 -1.7492  0.9345
  748THF     H613817   0.087   3.819   2.866  1.9530 -4.1469  0.5905
  748THF     H713818   0.210   3.823   2.992 -0.2874  0.6092  1.0439
  748THF     C813819   0.027   3.871   3.079 -0.3468  0.3857 -0.5781
  748THF     C913820  -0.061   3.994   3.050 -0.0025 -0.0222 -0.2781
  748THF    H1013821   0.077   3.876   3.176 -4.0657  0.3291  1.5236
  748THF    H1113822  -0.029   3.778   3.077  2.3345 -1.3238 -1.2069
  748THF    H1213823  -0.136   3.973   2.974  0.3116 -0.2285 -0.5368
  748THF    H1313824  -0.117   4.025   3.138  1.5672  0.5747  0.5674
  749THF     O113825   0.930   3.605   2.396  0.2787  0.3814 -0.1724
  749THF     C213826   0.982   3.691   2.497 -0.3381  0.1771  0.8385
  749THF     C313827   1.039   3.570   2.316 -0.7744 -0.1573  0.8393
  749THF     H413828   0.914   3.701   2.581  1.1737 -1.7569  2.3907
  749THF     H513829   1.009   3.789   2.457 -0.0400 -0.2241  0.0191
  749THF     H613830   1.021   3.495   2.239 -0.6082  1.7376 -1.1282
  749THF     H713831   1.073   3.657   2.261 -2.0681 -0.7069 -0.9190
  749THF     C813832   1.145   3.527   2.420 -0.7663  0.5557  0.3137
  749THF     C913833   1.114   3.623   2.532  0.4114  0.4764 -0.3556
  749THF    H1013834   1.252   3.534   2.399 -0.7321 -1.3600 -0.2786
  749THF    H1113835   1.123   3.423   2.442 -0.9155 -0.2798 -3.1803
  749THF    H1213836   1.109   3.573   2.628 -1.1512  0.1564 -0.5724
  749THF    H1313837   1.194   3.696   2.539  0.3186  0.7757 -1.9170
  750THF     O113838   0.448   2.655   0.095  0.2400  0.1745  0.2484
  750THF     C213839   0.564   2.592   0.041  0.3072 -0.1714  0.1442
  750THF     C313840   0.468   2.694   0.231  0.0664  0.6221  0.1299
  750THF     H413841   0.622   2.669  -0.010 -0.9657  0.1753 -0.8584
  750THF     H513842   0.551   2.517  -0.037 -0.0977  0.9937 -0.9701
  750THF     H613843   0.457   2.802   0.242  1.3189  0.7873 -0.0377
  750THF     H713844   0.386   2.641   0.280 -2.5997  3.7245 -0.6390
  750THF     C813845   0.615   2.638   0.261  0.4662 -0.5007 -0.2238
  750THF     C913846   0.634   2.535   0.162 -1.0433  0.0333 -0.0762
  750THF    H1013847   0.607   2.600   0.363 -0.1860  1.2558  0.4203
  750THF    H1113848   0.687   2.720   0.270  1.4440 -1.3556 -0.0977
  750THF    H1213849   0.740   2.512   0.152 -0.7354  0.4233  1.9444
  750THF    H1313850   0.590   2.441   0.197  1.4643 -0.3501  2.4216
  751THF     O113851   0.265   0.307   2.525 -0.2616 -0.2755  0.9551
  751THF     C213852   0.290   0.338   2.384  0.5823  0.3146 -0.4229
  751THF     C313853   0.122   0.313   2.542 -0.0666  0.8969 -0.1664
  751THF     H413854   0.366   0.284   2.328  0.9882  0.7160 -0.2679
  751THF     H513855   0.306   0.446   2.379 -0.6019  0.7274  2.5915
  751THF     H613856   0.077   0.215   2.560 -1.1908  1.3254 -0.5471
  751THF     H713857   0.084   0.381   2.617 -1.1954 -0.0762  0.1812
  751THF     C813858   0.056   0.350   2.412  0.6585  0.3031 -0.2656
  751THF     C913859   0.162   0.313   2.307  0.2675 -0.4720 -0.1037
  751THF    H1013860   0.036   0.457   2.422 -0.5758 -0.0277  1.3570
  751THF    H1113861  -0.040   0.299   2.402  0.3225  0.9177 -0.2112
  751THF    H1213862   0.148   0.219   2.253 -2.1415 -0.0754 -0.2670
  751THF    H1313863   0.149   0.391   2.232 -1.3804 -1.1655 -0.5938
  752THF     O113864   1.712   0.320   4.246 -0.0152  0.3520 -0.1318
  752THF     C213865   1.707   0.256   4.119  0.7730  0.3175  0.3525
  752THF     C313866   1.639   0.234   4.342  0.0388 -0.4784 -0.6115
  752THF     H413867   1.788   0.291   4.055 -2.1325  2.4152 -2.5558
  752THF     H513868   1.612   0.277   4.069 -0.9309 -0.4345  3.0255
  752THF     H613869   1.703   0.224   4.430  2.5441 -1.1818 -2.4134
  752THF     H713870   1.547   0.274   4.385  0.3402 -1.2690  0.8558
  752THF     C813871   1.626   0.096   4.285  0.1444 -0.0306 -0.4277
  752THF     C913872   1.709   0.099   4.154  0.0409 -0.7344  0.3476
  752THF    H1013873   1.521   0.074   4.263  0.3683  1.2816 -3.2435
  752THF    H1113874   1.659   0.016   4.351  0.6036  1.0626  0.6918
  752THF    H1213875   1.808   0.066   4.184  0.5581  0.9778  0.6228
  752THF    H1313876   1.671   0.040   4.070 -1.4452 -1.7228  1.6420
  753THF     O113877   3.736   2.931   4.109 -0.0894 -0.0237 -0.1637
  753THF     C213878   3.679   2.975   4.227  0.1727 -0.4778 -0.2309
  753THF     C313879   3.841   2.841   4.141  0.2345 -0.8590  0.6526
  753THF     H413880   3.571   2.984   4.228 -0.1311 -3.1512  1.6533
  753THF     H513881   3.711   3.074   4.258 -0.5112  0.1132 -1.3613
  753THF     H613882   3.858   2.771   4.059  0.1229  0.1942 -0.2976
  753THF     H713883   3.933   2.893   4.168 -0.4425  0.5015  0.3976
  753THF     C813884   3.778   2.770   4.254  0.1191 -0.7222  0.6786
  753THF     C913885   3.712   2.881   4.339 -0.8534 -0.3742 -0.1047
  753THF    H1013886   3.853   2.732   4.323  2.5170  0.1260 -1.3065
  753THF    H1113887   3.700   2.703   4.217 -2.3464  2.4942 -0.3965
  753THF    H1213888   3.630   2.832   4.392  1.0740 -2.1571  1.3797
  753THF    H1313889   3.777   2.927   4.413 -1.2796 -2.2482  1.5139
  754THF     O113890   4.095   4.151   2.446 -0.5341  0.1014 -0.2083
  754THF     C213891   4.050   4.014   2.440 -0.4600 -0.1745 -0.3290
  754THF     C313892   4.048   4.203   2.572 -0.6408  0.0615 -0.2374
  754THF     H413893   4.132   3.953   2.479  1.7094  1.7987 -1.5427
  754THF     H513894   4.048   4.005   2.331  1.9556  0.5552 -0.5020
  754THF     H613895   4.116   4.164   2.647 -0.5483  0.6788  0.0072
  754THF     H713896   4.055   4.312   2.580 -0.7825  0.1538 -1.1960
  754THF     C813897   3.909   4.142   2.589  0.1940  0.8517  0.2888
  754THF     C913898   3.922   4.009   2.523 -0.6049 -0.1197 -0.1983
  754THF    H1013899   3.831   4.211   2.556  1.4424  1.9705 -0.4023
  754THF    H1113900   3.888   4.146   2.695 -1.1736 -1.0561  0.1476
  754THF    H1213901   3.934   3.932   2.599 -1.0757 -1.3328 -1.3001
  754THF    H1313902   3.836   3.985   2.459 -1.4243  2.4227 -0.1750
  755THF     O113903   4.055   1.414   2.337  0.5833 -0.3409 -0.3029
  755THF     C213904   4.174   1.488   2.363  0.4909  0.3459  0.3853
  755THF     C313905   3.955   1.453   2.436  0.0245 -0.5142  0.0571
  755THF     H413906   4.173   1.569   2.290  1.9117 -0.9966 -1.2104
  755THF     H513907   4.260   1.431   2.327  1.1371  0.8275  1.1257
  755THF     H613908   3.917   1.545   2.392  1.6891 -0.0924 -0.6166
  755THF     H713909   3.874   1.383   2.455  0.0235 -0.0803  1.7920
  755THF     C813910   4.041   1.480   2.556 -0.3360 -0.5712 -0.0069
  755THF     C913911   4.169   1.536   2.503  0.8560  0.4803 -0.2432
  755THF    H1013912   4.059   1.392   2.618 -0.5225 -0.0426  0.8060
  755THF    H1113913   4.001   1.554   2.624  0.8476 -0.9868  1.1798
  755THF    H1213914   4.169   1.645   2.494 -1.2723  0.4277 -2.0549
  755THF    H1313915   4.260   1.508   2.554  0.6458 -0.3023 -0.2834
  756THF     O113916   4.530   1.757   4.339  0.4588  0.6335 -0.1472
  756THF     C213917   4.423   1.686   4.402 -0.2227  0.5047 -0.0857
  756THF     C313918   4.507   1.901   4.374 -0.1453  1.3802 -0.1368
  756THF     H413919   4.435   1.622   4.490 -2.3853 -0.0932 -0.1706
  756THF     H513920   4.381   1.620   4.326 -0.3776  2.4039 -1.7340
  756THF     H613921   4.546   1.931   4.471  1.4066  1.7542 -0.8293
  756THF     H713922   4.553   1.959   4.294  1.6430  0.4077  0.1303
  756THF     C813923   4.365   1.913   4.357  0.1421 -0.4907  0.1427
  756THF     C913924   4.312   1.793   4.431  0.5420 -0.0245 -0.1797
  756THF    H1013925   4.339   1.917   4.251 -0.2578 -1.7140  0.1815
  756THF    H1113926   4.338   2.012   4.395  1.3823 -0.3954  0.8094
  756THF    H1213927   4.308   1.822   4.536  0.6838  0.3810 -0.2833
  756THF    H1313928   4.215   1.756   4.400  0.7086 -0.1000 -0.6219
  757THF     O113929   4.535   1.467   2.728 -0.5013 -0.1502  0.8081
  757THF     C213930   4.632   1.544   2.666  0.1679  0.0125 -0.4500
  757THF     C313931   4.591   1.345   2.772  0.6778  0.1264  0.1813
  757THF     H413932   4.702   1.585   2.739 -1.1203  0.5680  0.5059
  757THF     H513933   4.588   1.632   2.619 -1.4992 -0.4632  0.1585
  757THF     H613934   4.645   1.353   2.866  0.7514  0.4729  0.1121
  757THF     H713935   4.525   1.260   2.786 -0.5778  1.1719  0.8819
  757THF     C813936   4.676   1.312   2.650 -0.7746  0.2353 -0.3394
  757THF     C913937   4.690   1.439   2.566 -0.4493  0.3398 -0.2373
  757THF    H1013938   4.631   1.234   2.589  0.9893 -0.9366 -0.1876
  757THF    H1113939   4.770   1.269   2.683 -1.5854 -0.5439  1.0718
  757THF    H1213940   4.793   1.459   2.535 -0.5514 -0.0478 -0.8443
  757THF    H1313941   4.632   1.429   2.474  1.6475 -0.3252 -1.5580
  758THF     O113942   4.051   0.410   2.477 -0.4872  0.1002  0.9343
  758THF     C213943   4.159   0.500   2.452 -0.2808  0.1193  0.2798
  758THF     C313944   4.081   0.279   2.428  0.1186  0.6808  0.1720
  758THF     H413945   4.205   0.547   2.539 -0.2459  1.4054 -0.4132
  758THF     H513946   4.120   0.572   2.381 -1.0783 -1.4873 -0.9738
  758THF     H613947   4.110   0.217   2.512  1.0690  0.1486 -0.5397
  758THF     H713948   4.000   0.220   2.384  1.6810 -1.5829  0.1775
  758THF     C813949   4.190   0.312   2.324  0.0478 -0.2765  0.5651
  758THF     C913950   4.270   0.423   2.378 -0.4694 -0.8299  0.5277
  758THF    H1013951   4.147   0.352   2.232 -1.0789 -0.5393  0.9540
  758THF    H1113952   4.254   0.228   2.299  0.3992 -0.1998  1.1954
  758THF    H1213953   4.355   0.407   2.445  0.4769  0.2245 -0.3962
  758THF    H1313954   4.304   0.479   2.291  1.1872 -1.1817  0.9124
  759THF     O113955   4.745   1.732   2.233  0.5524 -0.0890  0.5343
  759THF     C213956   4.654   1.638   2.173  0.4158 -0.4158 -0.1710
  759THF     C313957   4.670   1.830   2.306  0.0214 -0.0332  0.6875
  759THF     H413958   4.703   1.541   2.165  2.1891  0.4556 -0.3501
  759THF     H513959   4.632   1.677   2.074 -1.4568 -0.9423  0.0065
  759THF     H613960   4.704   1.821   2.410 -3.2278 -2.7010  1.6939
  759THF     H713961   4.685   1.932   2.271  0.7933 -0.2381  0.3879
  759THF     C813962   4.534   1.799   2.289  0.1228  0.4496 -0.0945
  759THF     C913963   4.534   1.645   2.272 -0.4401 -0.2196  0.2554
  759THF    H1013964   4.486   1.839   2.199 -0.2354  0.3536  0.0509
  759THF    H1113965   4.462   1.820   2.369 -0.1375 -0.7124 -0.0106
  759THF    H1213966   4.557   1.598   2.368  1.2740 -0.6409 -0.3102
  759THF    H1313967   4.452   1.592   2.223  1.0495 -2.0401 -0.4036
  760THF     O113968   0.458   2.288   4.161  0.1372  0.1943 -0.1408
  760THF     C213969   0.379   2.210   4.247 -0.7232 -0.3965  0.0921
  760THF     C313970   0.449   2.252   4.021 -0.2582  0.4756 -0.7668
  760THF     H413971   0.286   2.260   4.272  0.0107  0.6958  0.7220
  760THF     H513972   0.432   2.199   4.342  1.1400  0.5217 -0.7845
  760THF     H613973   0.351   2.276   3.980 -0.8065 -0.9856 -0.3917
  760THF     H713974   0.526   2.282   3.951  0.8819  0.3071  0.3773
  760THF     C813975   0.449   2.099   4.037 -0.0491  0.4141 -0.4106
  760THF     C913976   0.371   2.075   4.167  0.1410  0.0054 -0.1206
  760THF    H1013977   0.555   2.079   4.050 -0.3351 -0.5117  0.6545
  760THF    H1113978   0.411   2.050   3.948  1.2815 -0.0351 -0.7567
  760THF    H1213979   0.267   2.050   4.147  0.4539 -1.8627  0.3989
  760THF    H1313980   0.402   1.994   4.233  1.7316  1.1440  0.6170
  761THF     O113981   5.340   4.849   2.129 -0.1398  0.3066 -0.4798
  761THF     C213982   5.234   4.929   2.170  0.1636  0.1006 -0.6867
  761THF     C313983   5.297   4.811   1.993 -0.3245  0.1292 -0.1339
  761THF     H413984   5.260   4.983   2.261  0.0055 -1.8062  0.5612
  761THF     H513985   5.153   4.870   2.213  1.9062 -2.4742 -0.7206
  761THF     H613986   5.382   4.778   1.933 -0.4185 -0.2314 -0.0728
  761THF     H713987   5.214   4.741   2.005  0.1385 -0.3254  0.4352
  761THF     C813988   5.254   4.945   1.939 -0.2029 -0.4721 -0.2758
  761THF     C913989   5.213   5.026   2.061 -0.4767  0.7586  0.6105
  761THF    H1013990   5.173   4.948   1.867  0.5164 -0.6105 -1.1138
  761THF    H1113991   5.328   5.000   1.880 -0.3037  0.5439  0.5073
  761THF    H1213992   5.272   5.118   2.065 -1.9556  1.7251  1.1245
  761THF    H1313993   5.107   5.052   2.062 -0.7169 -0.1594  0.4099
  762THF     O113994   1.596   2.645   0.523 -0.4099 -0.5447  0.3219
  762THF     C213995   1.512   2.648   0.409  0.5114 -0.2132 -0.5582
  762THF     C313996   1.709   2.560   0.486  0.6804 -0.3695  0.5201
  762THF     H413997   1.448   2.735   0.395  2.5088  0.9670 -3.2158
  762THF     H513998   1.441   2.568   0.427 -0.7489  0.7168 -1.2274
  762THF     H613999   1.795   2.590   0.545  1.9335  0.2237 -1.5197
  762THF     H714000   1.683   2.455   0.501  1.0190 -0.4857  0.3015
  762THF     C814001   1.736   2.585   0.329 -0.3179 -1.0017  0.3144
  762THF     C914002   1.602   2.630   0.278 -0.0287  0.0791 -0.3437
  762THF    H1014003   1.781   2.493   0.292 -1.2255 -0.7185 -1.6549
  762THF    H1114004   1.805   2.664   0.300  0.3769 -2.4021 -2.1313
  762THF    H1214005   1.605   2.716   0.211  1.5349  1.6865  1.6582
  762THF    H1314006   1.549   2.565   0.208  0.9051 -0.0619 -0.9367
  763THF     O114007   4.258   2.697   2.550  0.5107 -0.4145  0.2676
  763THF     C214008   4.197   2.643   2.433  0.5143 -0.3492 -1.2748
  763THF     C314009   4.401   2.667   2.555  0.2998  0.1971  0.0676
  763THF     H414010   4.107   2.692   2.397  0.3247  2.1374  2.0956
  763THF     H514011   4.182   2.537   2.457  1.5187 -0.3182 -0.3895
  763THF     H614012   4.448   2.763   2.576 -0.2236  0.6547 -0.8179
  763THF     H714013   4.412   2.586   2.627  0.2651 -3.6427 -3.8390
  763THF     C814014   4.440   2.627   2.417  0.0766  0.1721  0.0669
  763THF     C914015   4.315   2.650   2.325  0.4384 -0.3696 -0.2625
  763THF    H1014016   4.465   2.521   2.423  0.1970  0.2891  2.3345
  763THF    H1114017   4.526   2.682   2.379  0.5230  0.1485  1.0136
  763THF    H1214018   4.318   2.754   2.292  1.4606  0.1915  1.4746
  763THF    H1314019   4.303   2.585   2.238 -1.6125 -0.2542 -0.1064
  764THF     O114020   5.452   0.995   2.337 -0.5102  0.5969 -0.0629
  764THF     C214021   5.392   0.869   2.294 -0.7541 -0.3932 -0.4383
  764THF     C314022   5.413   1.025   2.468  0.0459 -0.2219  1.0620
  764THF     H414023   5.445   0.843   2.202  0.2819 -1.3151  0.3871
  764THF     H514024   5.285   0.874   2.275 -0.8927 -3.6364 -1.1912
  764THF     H614025   5.480   1.103   2.505  1.5139 -0.7266 -0.3926
  764THF     H714026   5.315   1.072   2.466  0.8441  1.5891 -1.8307
  764THF     C814027   5.423   0.888   2.533  0.5120  0.5582 -0.3084
  764THF     C914028   5.431   0.787   2.419 -0.4697  0.3875  0.7205
  764THF    H1014029   5.342   0.861   2.601 -0.3350 -0.8390 -1.7911
  764THF    H1114030   5.522   0.884   2.578  1.0826  1.7443 -1.3932
  764THF    H1214031   5.532   0.749   2.414  0.0086  1.2122  2.7433
  764THF    H1314032   5.362   0.705   2.439 -1.6118  0.1665 -3.3704
  765THF     O114033   5.277   3.644   2.456 -0.6843  0.0706 -0.6572
  765THF     C214034   5.356   3.671   2.351 -1.3548 -0.2155 -0.1666
  765THF     C314035   5.332   3.702   2.574  0.3117  0.1549 -0.5299
  765THF     H414036   5.329   3.754   2.285  0.9955  0.8090  0.0541
  765THF     H514037   5.350   3.579   2.293 -0.0429 -1.2632  1.2591
  765THF     H614038   5.305   3.807   2.569  0.5755  0.1939 -1.2314
  765THF     H714039   5.276   3.660   2.658 -1.5912 -0.3208 -1.9659
  765THF     C814040   5.482   3.661   2.563  0.0094 -0.2737  0.0014
  765THF     C914041   5.498   3.699   2.413  0.0125 -0.3442  0.1664
  765THF    H1014042   5.486   3.553   2.577 -1.6061 -0.2029  1.3333
  765THF    H1114043   5.541   3.717   2.635 -2.0591  0.3810  1.2797
  765THF    H1214044   5.516   3.806   2.405  0.6326 -0.5658 -2.3174
  765THF    H1314045   5.567   3.631   2.362  0.1881 -2.0487  2.4824
  766THF     O114046   2.719   1.102   3.732 -0.1324 -0.2217 -0.2011
  766THF     C214047   2.798   1.063   3.620 -0.1912 -0.3066 -0.1396
  766THF     C314048   2.781   1.087   3.861 -0.0848  0.0882 -0.1478
  766THF     H414049   2.829   1.152   3.566  1.2755  0.3251  1.6489
  766THF     H514050   2.744   0.995   3.553  1.0054  0.1486 -1.6118
  766THF     H614051   2.777   1.177   3.922  1.4091  0.5902 -0.7446
  766THF     H714052   2.728   1.004   3.908 -0.3260  1.4284  2.1079
  766THF     C814053   2.925   1.057   3.822 -0.5895  0.2216  0.0099
  766THF     C914054   2.919   0.995   3.686 -0.1712  0.4293  0.3686
  766THF    H1014055   2.974   0.988   3.890 -1.2071 -0.4247 -0.1835
  766THF    H1114056   2.979   1.151   3.817 -1.2856  0.6869  1.0152
  766THF    H1214057   3.014   1.005   3.634 -0.6848 -1.2120 -0.9855
  766THF    H1314058   2.887   0.892   3.700  1.0923 -0.0020  0.1737
  767THF     O114059   1.449   4.482   1.429 -0.1789  0.3757 -0.5022
  767THF     C214060   1.416   4.471   1.292 -0.1636  0.6780  0.3956
  767THF     C314061   1.579   4.423   1.435  0.0908  0.6875 -0.2743
  767THF     H414062   1.325   4.522   1.260  0.5159  0.8696 -1.3239
  767THF     H514063   1.392   4.366   1.278 -0.4849  0.6598  1.0404
  767THF     H614064   1.627   4.434   1.532 -1.3495  0.1713  0.5383
  767THF     H714065   1.571   4.315   1.418 -1.2225 -0.0404  3.7809
  767THF     C814066   1.649   4.489   1.311 -0.3141 -0.5316  0.8240
  767THF     C914067   1.535   4.530   1.220 -0.6135 -0.5349 -0.0470
  767THF    H1014068   1.723   4.422   1.267  2.7808  2.6545  0.7259
  767THF    H1114069   1.692   4.584   1.344 -1.0529  0.5587 -1.2257
  767THF    H1214070   1.532   4.639   1.220  2.7928 -0.3251  1.0988
  767THF    H1314071   1.533   4.493   1.117  0.9438 -1.7013  0.3000
  768THF     O114072   5.040   3.466   2.123  0.2577 -0.3161  0.4179
  768THF     C214073   5.097   3.570   2.037  0.2563 -0.1434  0.0435
  768THF     C314074   5.033   3.517   2.260  0.6553 -0.7236  1.3512
  768THF     H414075   5.058   3.562   1.935 -0.7130  1.5635  0.2415
  768THF     H514076   5.202   3.545   2.027  0.3756  0.8194 -1.4751
  768THF     H614077   4.952   3.478   2.322  1.2061 -0.7297  2.0797
  768THF     H714078   5.124   3.500   2.317  1.4242 -2.2968 -0.2446
  768THF     C814079   5.001   3.668   2.237  0.3398  0.3101  0.1580
  768THF     C914080   5.071   3.702   2.105  0.4819 -0.2429 -0.0322
  768THF    H1014081   5.042   3.729   2.317  0.5581 -0.9561  1.0329
  768THF    H1114082   4.892   3.673   2.237 -0.1218 -4.9516 -0.1355
  768THF    H1214083   5.003   3.770   2.054 -1.4881 -0.3108  2.3131
  768THF    H1314084   5.161   3.763   2.115 -0.3236  1.0007 -0.1376
  769THF     O114085   3.851   4.578   4.008 -0.1864  0.0946 -0.0656
  769THF     C214086   3.824   4.712   4.038 -0.1119 -0.3685  0.8130
  769THF     C314087   3.988   4.542   4.050  0.4392 -0.0002  0.1100
  769THF     H414088   3.718   4.736   4.039  0.2709  1.3796  1.5208
  769THF     H514089   3.871   4.780   3.967  0.6272 -0.3645  1.2937
  769THF     H614090   4.000   4.433   4.048 -0.7969 -0.2015 -3.3591
  769THF     H714091   4.059   4.575   3.975  0.9530  1.4730  1.2135
  769THF     C814092   4.009   4.624   4.176  0.4372 -0.5330 -0.1818
  769THF     C914093   3.891   4.728   4.173 -0.3630 -0.0875  0.1971
  769THF    H1014094   4.103   4.678   4.180  0.3315 -0.4135  2.1807
  769THF    H1114095   3.992   4.564   4.265 -2.3587  1.8723  1.1034
  769THF    H1214096   3.819   4.710   4.253 -1.4509  1.6679 -0.3086
  769THF    H1314097   3.924   4.832   4.180 -0.3759  0.0748 -1.6199
  770THF     O114098   2.724   4.962   3.411  0.1701  0.6161  0.5922
  770THF     C214099   2.668   5.088   3.438  0.0791  0.2950  0.0713
  770THF     C314100   2.672   4.909   3.291 -0.3663  0.2401  0.3931
  770THF     H414101   2.739   5.152   3.386 -0.3452  3.0242  2.5785
  770THF     H514102   2.659   5.110   3.545  0.3328 -1.7958  0.5644
  770THF     H614103   2.732   4.942   3.206 -0.9036  0.1723 -0.0197
  770THF     H714104   2.674   4.800   3.296 -0.1515  0.1054 -1.5862
  770THF     C814105   2.527   4.953   3.291 -0.0285  0.1915  0.1762
  770THF     C914106   2.538   5.089   3.355 -0.5544 -0.1724 -0.6711
  770THF    H1014107   2.453   4.895   3.346 -1.0286  1.8320  0.6363
  770THF    H1114108   2.475   4.968   3.196 -1.0984  1.7365  0.9457
  770THF    H1214109   2.561   5.164   3.279  1.1661 -0.4328 -0.4603
  770THF    H1314110   2.455   5.121   3.418 -0.6576 -2.2262  0.2864
  771THF     O114111   0.752   1.416   2.868  0.5585  0.4246 -0.2998
  771THF     C214112   0.880   1.356   2.885  0.8966 -0.3026 -1.2002
  771THF     C314113   0.753   1.537   2.947 -0.8426  0.2998  0.1429
  771THF     H414114   0.913   1.325   2.786 -1.7007 -2.5251 -1.4700
  771THF     H514115   0.860   1.266   2.942  0.4609  0.6215  0.1531
  771THF     H614116   0.686   1.613   2.906 -0.3234 -0.3638 -2.0617
  771THF     H714117   0.735   1.509   3.051  0.5565 -1.8183 -0.1194
  771THF     C814118   0.896   1.579   2.931 -0.5736 -0.1146  0.3632
  771THF     C914119   0.966   1.456   2.959  0.5453 -0.4818  0.0218
  771THF    H1014120   0.919   1.667   2.992  0.7356  0.3527 -0.7583
  771THF    H1114121   0.918   1.613   2.830 -0.8208 -2.2147 -0.4383
  771THF    H1214122   1.067   1.435   2.922  0.2637 -2.5558  0.3067
  771THF    H1314123   0.981   1.434   3.065 -0.8047 -2.0240 -0.0645
  772THF     O114124   2.036   4.997   0.753 -0.1583  0.3561  0.3138
  772THF     C214125   2.112   5.072   0.666  0.5545  0.9089 -0.5624
  772THF     C314126   2.019   4.869   0.687 -0.1626 -0.0906  0.2500
  772THF     H414127   2.151   5.158   0.720  0.9018 -0.4171  1.3996
  772THF     H514128   2.054   5.100   0.579  0.3167 -0.7641 -0.9849
  772THF     H614129   2.000   4.786   0.755 -0.8814  0.4118  0.6637
  772THF     H714130   1.937   4.876   0.616 -0.0696 -0.9630  0.0381
  772THF     C814131   2.146   4.849   0.607 -0.5234  0.5695  0.0066
  772THF     C914132   2.229   4.974   0.636 -0.6311  0.7728  0.4318
  772THF    H1014133   2.131   4.840   0.499 -2.2029  1.3700  0.1488
  772THF    H1114134   2.204   4.764   0.644  0.9100  1.5737  0.1497
  772THF    H1214135   2.289   4.969   0.727 -1.0027  1.5338  0.7283
  772THF    H1314136   2.289   5.007   0.551 -0.1664 -0.3913  0.2860
  773THF     O114137   0.205   0.752   1.100  0.4949 -0.0731 -0.4318
  773THF     C214138   0.089   0.782   1.018  0.0261  0.3364  0.1891
  773THF     C314139   0.323   0.758   1.036  0.2850 -0.5499  0.3950
  773THF     H414140   0.084   0.890   1.007  1.4963  0.8161  3.2201
  773THF     H514141  -0.000   0.736   1.060  2.1455 -2.2788  2.1951
  773THF     H614142   0.359   0.861   1.027 -1.0205 -0.2398 -2.8152
  773THF     H714143   0.408   0.704   1.077  1.0352 -0.3404 -0.8199
  773THF     C814144   0.280   0.699   0.904 -0.0195  0.1263 -0.4819
  773THF     C914145   0.129   0.713   0.892  0.4623  0.0728 -0.1174
  773THF    H1014146   0.308   0.594   0.893  3.1346  0.6580  1.3387
  773THF    H1114147   0.337   0.741   0.821  1.0302 -1.1818 -0.4677
  773THF    H1214148   0.091   0.786   0.821  1.6880  1.5845  0.7013
  773THF    H1314149   0.060   0.629   0.887  2.9272 -2.0307 -0.5352
  774THF     O114150   1.105   3.471   3.053 -0.1314  0.2552 -0.0517
  774THF     C214151   1.073   3.580   2.977  0.1643 -0.5246  0.2975
  774THF     C314152   1.217   3.493   3.141  0.3673 -0.6177 -0.1202
  774THF     H414153   0.966   3.592   2.967  0.1614  2.0323  2.3217
  774THF     H514154   1.107   3.570   2.873 -0.7383 -0.8690  0.0330
  774THF     H614155   1.173   3.475   3.239 -1.6200  0.2881 -0.7985
  774THF     H714156   1.294   3.418   3.123  1.4148 -0.2304  2.2860
  774THF     C814157   1.258   3.641   3.125  0.3576 -0.1276 -0.2592
  774THF     C914158   1.133   3.698   3.054 -0.4502  0.6662  0.2031
  774THF    H1014159   1.350   3.632   3.069  1.0091 -4.3213  1.1243
  774THF    H1114160   1.274   3.698   3.217 -1.1257 -1.4410  0.8836
  774THF    H1214161   1.069   3.740   3.131  0.0042  1.5246  0.1204
  774THF    H1314162   1.163   3.781   2.990 -1.8060 -0.3168 -1.8254
  775THF     O114163   4.998   3.644   5.158 -0.4979 -0.4140  0.4006
  775THF     C214164   5.091   3.550   5.219  0.2672  0.3489  0.1379
  775THF     C314165   5.068   3.685   5.044 -0.1608 -0.4950  0.5870
  775THF     H414166   5.043   3.489   5.295  1.8137 -1.2456 -0.0935
  775THF     H514167   5.172   3.604   5.268 -0.0959  1.2624 -0.2489
  775THF     H614168   5.005   3.744   4.978 -0.4012  1.3329  2.3630
  775THF     H714169   5.149   3.750   5.078 -0.2692 -0.2619  0.3993
  775THF     C814170   5.130   3.561   4.987 -0.3604  0.8371  0.4214
  775THF     C914171   5.154   3.471   5.104  0.4536 -0.8752 -0.3882
  775THF    H1014172   5.221   3.587   4.933  0.2859 -0.2839  0.9373
  775THF    H1114173   5.072   3.503   4.915 -1.0355  0.8240  0.9638
  775THF    H1214174   5.114   3.371   5.092  0.9391 -1.0898 -0.2439
  775THF    H1314175   5.259   3.461   5.130  0.9115 -0.3357 -1.9616
  776THF     O114176   1.779   1.847   2.101 -0.1572  0.7776 -0.0628
  776THF     C214177   1.802   1.711   2.057  0.0648  0.6047  0.1131
  776THF     C314178   1.830   1.937   2.000  0.0255 -0.1057 -0.1898
  776THF     H414179   1.719   1.670   1.999  2.1189 -3.4782 -0.2121
  776THF     H514180   1.821   1.640   2.137  0.6079  1.1912  0.5200
  776THF     H614181   1.753   1.949   1.923  1.7440 -1.5721 -2.2428
  776THF     H714182   1.844   2.038   2.039  0.1638 -0.1564 -0.1075
  776THF     C814183   1.951   1.869   1.935  0.4627  0.2254 -0.6538
  776THF     C914184   1.907   1.719   1.939 -0.0602 -0.1592 -0.6978
  776THF    H1014185   2.039   1.883   1.998  1.8500 -0.5045 -2.3584
  776THF    H1114186   1.972   1.912   1.837  0.0347 -2.7381 -2.1665
  776THF    H1214187   1.856   1.686   1.848  0.8387 -0.0569 -1.2545
  776THF    H1314188   1.983   1.645   1.965 -1.0261 -0.4360  1.5941
  777THF     O114189   5.211   1.932   2.574  0.5614  0.2368  0.0499
  777THF     C214190   5.198   1.821   2.492  0.1245  0.5416 -0.4308
  777THF     C314191   5.138   2.045   2.521  0.0863  0.1939 -0.0504
  777THF     H414192   5.120   1.755   2.530  2.0496  0.3524  3.8042
  777THF     H514193   5.296   1.774   2.487  0.0051  0.2406 -0.0235
  777THF     H614194   5.047   2.057   2.580  0.2818 -0.8296  0.4763
  777THF     H714195   5.195   2.139   2.522  1.2500 -0.3961  3.1951
  777THF     C814196   5.094   2.010   2.376 -0.0850  0.1095  0.1078
  777THF     C914197   5.172   1.882   2.355 -0.1551  0.3043  0.5247
  777THF    H1014198   5.111   2.082   2.295 -1.4061  1.1739  0.7299
  777THF    H1114199   4.987   1.988   2.376 -0.1264  0.0371 -2.0089
  777THF    H1214200   5.110   1.819   2.291 -0.0993  2.6203 -2.0018
  777THF    H1314201   5.272   1.901   2.316  1.1591 -0.8249  3.1426
  778THF     O114202   0.197   3.981   1.297  0.0103  0.2945  0.1141
  778THF     C214203   0.278   4.003   1.408  0.7335  0.1112  0.2900
  778THF     C314204   0.062   3.963   1.327  0.3162 -0.3361 -0.5487
  778THF     H414205   0.310   4.106   1.423 -1.8445  1.1385 -0.6754
  778THF     H514206   0.364   3.937   1.410 -0.3615 -1.4992 -2.0278
  778THF     H614207   0.011   4.059   1.316  1.6090  0.5511  0.8529
  778THF     H714208   0.030   3.891   1.252 -1.3877 -0.4030  0.2063
  778THF     C814209   0.059   3.896   1.463 -0.3319  0.2123  0.8130
  778THF     C914210   0.179   3.967   1.525  0.3736 -0.2075 -0.7099
  778THF    H1014211   0.061   3.793   1.427 -0.0931  0.6737 -0.5540
  778THF    H1114212  -0.037   3.905   1.514  0.1791 -1.2247  2.0987
  778THF    H1214213   0.149   4.063   1.566  0.9256 -0.4578  0.3157
  778THF    H1314214   0.229   3.910   1.604 -0.2438  3.2928  2.4569
  779THF     O114215   1.698   0.478   3.241  0.3123  0.1908  0.1796
  779THF     C214216   1.719   0.368   3.324 -0.3300  0.7293  0.4419
  779THF     C314217   1.758   0.596   3.291  0.2187 -0.5091  0.1193
  779THF     H414218   1.704   0.268   3.284 -0.8078  1.7219 -2.0053
  779THF     H514219   1.650   0.371   3.408 -1.6229 -0.0400 -0.5627
  779THF     H614220   1.784   0.670   3.216 -3.7318  1.6245  0.5615
  779THF     H714221   1.695   0.637   3.370 -1.3568 -0.0090 -1.3310
  779THF     C814222   1.875   0.542   3.370 -0.3046  0.5186  0.3778
  779THF     C914223   1.857   0.390   3.374  0.2252 -0.2730  0.5088
  779THF    H1014224   1.872   0.585   3.470 -1.1064  0.0067  0.5753
  779THF    H1114225   1.964   0.563   3.310 -0.0903  1.6343  1.0484
  779THF    H1214226   1.922   0.340   3.302 -0.6344 -0.2345 -0.3152
  779THF    H1314227   1.884   0.336   3.465 -0.7299 -0.2887  0.7952
  780THF     O114228   1.442   4.846   3.614 -0.1733  0.3792  0.4589
  780THF     C214229   1.543   4.757   3.574 -0.6889 -0.0263  0.3480
  780THF     C314230   1.459   4.975   3.558 -0.5005  0.0226  0.2100
  780THF     H414231   1.514   4.652   3.568  0.4083 -0.5307  2.6278
  780THF     H514232   1.621   4.773   3.648 -1.1082  0.7120  0.6412
  780THF     H614233   1.359   5.002   3.524 -0.1505  0.5315 -0.4367
  780THF     H714234   1.489   5.043   3.638 -0.3501  0.6998 -0.4100
  780THF     C814235   1.565   4.955   3.445  0.8519 -0.0882  0.1896
  780THF     C914236   1.574   4.803   3.432  0.1417  0.5108 -0.1875
  780THF    H1014237   1.664   4.995   3.467  2.3027 -2.8220 -0.8932
  780THF    H1114238   1.534   5.003   3.352 -2.0123  0.8162  1.4954
  780THF    H1214239   1.496   4.749   3.379  1.3194 -0.5815 -0.8727
  780THF    H1314240   1.675   4.779   3.399  0.3382  1.2727 -0.1649
  781THF     O114241   3.264   5.420   2.568  0.4802  0.2558 -0.4046
  781THF     C214242   3.356   5.500   2.634 -0.4505 -0.1607 -0.6215
  781THF     C314243   3.239   5.292   2.643  0.5112  0.4727  0.1483
  781THF     H414244   3.306   5.570   2.700 -0.1139 -1.2463  0.8371
  781THF     H514245   3.414   5.559   2.563  1.1944 -1.2575 -0.2565
  781THF     H614246   3.167   5.313   2.723 -0.4084  1.5227 -0.9048
  781THF     H714247   3.201   5.212   2.580  0.6805  2.1292 -2.1686
  781THF     C814248   3.373   5.257   2.706 -0.2133  0.4437  0.1800
  781THF     C914249   3.440   5.399   2.713 -0.2468 -0.4187 -0.5003
  781THF    H1014250   3.420   5.189   2.635 -0.2618  1.3687 -0.7647
  781THF    H1114251   3.366   5.209   2.804 -0.6635  1.0134  0.4285
  781THF    H1214252   3.448   5.428   2.818  2.2507 -2.3016 -0.0702
  781THF    H1314253   3.544   5.396   2.682  0.5170 -1.8014  1.8568
  782THF     O114254   3.722   4.154   4.063  0.0953 -0.0344 -0.5199
  782THF     C214255   3.806   4.194   3.957 -0.0614 -0.1419 -0.3086
  782THF     C314256   3.647   4.039   4.034 -0.0514  0.6110 -0.9382
  782THF     H414257   3.907   4.154   3.970 -0.0932  0.0619  0.6865
  782THF     H514258   3.811   4.303   3.966 -1.0313 -0.1617  0.6157
  782THF     H614259   3.727   3.967   4.047 -1.0790 -0.6796 -1.5572
  782THF     H714260   3.573   4.010   4.108 -0.3106 -0.4370 -1.5961
  782THF     C814261   3.614   4.054   3.885 -0.1207 -0.3461 -0.4008
  782THF     C914262   3.719   4.155   3.838  0.0214 -0.0568  0.1344
  782THF    H1014263   3.520   4.103   3.862 -0.3542 -0.1006  0.9857
  782THF    H1114264   3.616   3.960   3.830  1.0591 -0.4530 -0.2202
  782THF    H1214265   3.780   4.105   3.762 -1.5511  1.4651 -2.2416
  782THF    H1314266   3.675   4.240   3.786  0.1845 -1.1732 -1.9099
  783THF     O114267   2.849   2.923   4.309 -0.1073  0.3593  0.2156
  783THF     C214268   2.712   2.935   4.269  0.5185  0.6799  0.3056
  783THF     C314269   2.875   2.777   4.308  0.1550  0.2530  0.0911
  783THF     H414270   2.694   2.914   4.164 -0.2119  0.1726  0.5220
  783THF     H514271   2.681   3.040   4.269 -3.1836 -0.2663 -0.7182
  783THF     H614272   2.883   2.752   4.202  1.9178  1.2393 -0.0449
  783THF     H714273   2.966   2.755   4.363  0.4580  0.7669 -0.2023
  783THF     C814274   2.747   2.708   4.353 -0.9450  0.4830  0.7602
  783THF     C914275   2.645   2.823   4.349 -0.1475 -0.3636 -0.2640
  783THF    H1014276   2.770   2.655   4.446  1.9240  0.1817 -0.0261
  783THF    H1114277   2.734   2.628   4.281  1.2312  1.0861 -0.3856
  783THF    H1214278   2.558   2.782   4.296  0.8455 -3.5792  0.3456
  783THF    H1314279   2.618   2.847   4.452 -2.2238  1.9450 -1.2535
  784THF     O114280   3.954   3.736   3.257 -0.4406 -0.1005  0.3132
  784THF     C214281   4.034   3.622   3.230 -0.6164  0.0505  0.0118
  784THF     C314282   4.039   3.846   3.286  0.0564  0.4714  1.1558
  784THF     H414283   4.037   3.604   3.122  0.5755 -3.1322  0.4636
  784THF     H514284   3.991   3.531   3.273  1.2442 -1.5852 -1.3936
  784THF     H614285   4.061   3.901   3.195 -3.3878 -0.3973 -0.3739
  784THF     H714286   3.981   3.902   3.359  0.5683 -0.6565  2.4663
  784THF     C814287   4.166   3.782   3.345  0.7388 -0.4621 -0.1711
  784THF     C914288   4.179   3.653   3.275 -0.6705  0.4394  0.6047
  784THF    H1014289   4.143   3.761   3.449 -0.0005  2.4201  0.3488
  784THF    H1114290   4.253   3.846   3.362  1.6495 -1.6629 -0.1798
  784THF    H1214291   4.246   3.640   3.190  2.1949 -0.3900  2.8714
  784THF    H1314292   4.209   3.574   3.344  0.0222 -0.1827 -0.3756
  785THF     O114293   2.866   2.612   2.672  0.2560 -0.7811 -0.5016
  785THF     C214294   2.855   2.638   2.810  0.3682  0.8136  0.1949
  785THF     C314295   3.002   2.646   2.629  0.1271 -0.4668 -0.7895
  785THF     H414296   2.898   2.558   2.870  1.1806 -0.2273 -1.7261
  785THF     H514297   2.750   2.657   2.834  0.0266  0.5340 -1.0329
  785THF     H614298   3.068   2.564   2.658 -0.2634  0.0836  1.8781
  785THF     H714299   3.014   2.661   2.522 -1.3255  1.2018 -0.7566
  785THF     C814300   3.035   2.770   2.711 -0.6328  0.0434 -0.1012
  785THF     C914301   2.934   2.767   2.831  0.3402 -0.6081  0.2918
  785THF    H1014302   3.032   2.853   2.641  1.7919 -0.0057 -0.3390
  785THF    H1114303   3.133   2.757   2.755 -1.7118 -3.3126  1.6907
  785THF    H1214304   2.985   2.763   2.928 -0.9486 -0.9380  0.9797
  785THF    H1314305   2.872   2.856   2.830  1.1715 -0.0035 -1.7143
  786THF     O114306   2.788   0.147   1.586  0.6503 -0.2776  0.5816
  786THF     C214307   2.870   0.190   1.479  0.4006  0.0284 -0.0668
  786THF     C314308   2.881   0.149   1.698  0.5614  0.3014 -0.5783
  786THF     H414309   2.814   0.216   1.390  0.1261 -1.2700 -0.2904
  786THF     H514310   2.937   0.112   1.442  1.4402  0.8881 -0.0623
  786THF     H614311   2.830   0.127   1.792 -3.4674  2.3575 -2.0413
  786THF     H714312   2.946   0.065   1.673  0.0240  0.1012 -1.3616
  786THF     C814313   2.968   0.272   1.684 -0.1157  1.0723 -0.1605
  786THF     C914314   2.954   0.306   1.533  1.1006 -0.5423 -0.1664
  786THF    H1014315   3.071   0.248   1.709 -0.4151 -0.4301 -0.2668
  786THF    H1114316   2.926   0.351   1.747 -0.5952  0.3189  0.4939
  786THF    H1214317   2.890   0.394   1.523 -0.7881 -1.9187 -0.8416
  786THF    H1314318   3.052   0.323   1.489  1.1179  0.9751  0.3940
  787THF     O114319   4.865   0.617   4.026 -0.2887  0.0381  0.0258
  787THF     C214320   4.901   0.711   4.131 -0.1832  0.1111 -0.1420
  787THF     C314321   4.740   0.656   3.977 -0.2527  0.7118 -0.6323
  787THF     H414322   4.966   0.783   4.082 -1.2132 -0.4158 -2.4090
  787THF     H514323   4.961   0.655   4.203 -0.3801 -0.0090 -0.0712
  787THF     H614324   4.739   0.699   3.877 -1.2654  2.1477 -0.0426
  787THF     H714325   4.670   0.573   3.966 -1.3427  1.5453 -0.2108
  787THF     C814326   4.673   0.762   4.066 -1.1187 -0.0610 -0.2251
  787THF     C914327   4.771   0.765   4.181  0.4904  0.4065  0.2900
  787THF    H1014328   4.571   0.739   4.094 -0.1347 -3.3883  1.1311
  787THF    H1114329   4.668   0.857   4.013 -0.5318 -0.5031 -1.1017
  787THF    H1214330   4.785   0.858   4.236 -1.4215  0.8594  0.0862
  787THF    H1314331   4.727   0.693   4.249 -1.0979  1.2565  0.2198
  788THF     O114332   1.586   2.994   4.880  0.0465  0.3964  0.1627
  788THF     C214333   1.669   2.907   4.810 -1.0029 -0.0863  0.1667
  788THF     C314334   1.541   3.096   4.787  0.4473  0.4274 -0.4447
  788THF     H414335   1.688   2.815   4.865 -0.0422  0.4513  0.7758
  788THF     H514336   1.767   2.955   4.804 -0.5653 -1.0580 -0.9389
  788THF     H614337   1.455   3.158   4.815 -1.2464 -1.4056 -1.3696
  788THF     H714338   1.630   3.156   4.768  0.7656 -0.0600 -0.4911
  788THF     C814339   1.518   3.020   4.658  0.6778  0.1102 -0.7513
  788THF     C914340   1.609   2.901   4.677  0.4403 -0.3027  0.7744
  788THF    H1014341   1.538   3.073   4.565  1.0260 -0.3471 -0.9362
  788THF    H1114342   1.416   2.980   4.657  1.2957 -1.6150  0.7771
  788THF    H1214343   1.560   2.807   4.652  1.2409 -0.1553 -1.6238
  788THF    H1314344   1.681   2.901   4.596 -0.0033  2.4118  0.2535
  789THF     O114345   1.799   4.757   0.921  0.0357 -1.0359  0.7776
  789THF     C214346   1.804   4.623   0.873 -0.1024 -0.4517  0.4402
  789THF     C314347   1.816   4.744   1.065 -0.2324 -0.3315  0.0203
  789THF     H414348   1.813   4.630   0.765  0.3650  2.3590  0.5763
  789THF     H514349   1.713   4.566   0.889 -1.1148  0.7220 -0.8633
  789THF     H614350   1.868   4.831   1.104 -0.3210 -0.2653 -0.0071
  789THF     H714351   1.736   4.717   1.133  1.5237  0.9858  2.7815
  789THF     C814352   1.928   4.632   1.075 -0.0019  0.1564  0.0132
  789THF     C914353   1.929   4.562   0.941 -0.0725  0.7870  0.7801
  789THF    H1014354   1.928   4.565   1.161 -0.1887  0.4848  0.2754
  789THF    H1114355   2.019   4.691   1.078  0.9958 -1.3481 -0.0838
  789THF    H1214356   2.013   4.588   0.877 -0.4760 -0.5785 -0.3371
  789THF    H1314357   1.912   4.456   0.958 -2.0875  1.0768  0.7182
  790THF     O114358   0.278   1.707   4.045 -0.5193 -0.1525 -0.4609
  790THF     C214359   0.151   1.745   3.983  0.1691  0.3666 -0.2445
  790THF     C314360   0.260   1.575   4.102  0.3149 -0.7060 -0.7043
  790THF     H414361   0.126   1.683   3.897 -3.2077  0.4156  0.5807
  790THF     H514362   0.136   1.846   3.946 -0.6793 -0.0043 -0.9585
  790THF     H614363   0.290   1.502   4.027  2.0844  0.5247 -1.2680
  790THF     H714364   0.336   1.569   4.180 -1.6190 -0.3300  1.3085
  790THF     C814365   0.110   1.578   4.154 -0.1233 -0.1782  0.0899
  790THF     C914366   0.043   1.702   4.088 -0.2075  0.3084  0.6424
  790THF    H1014367   0.111   1.587   4.263  2.3032  0.0016  0.1090
  790THF    H1114368   0.070   1.477   4.149 -2.4070  0.5571  1.8402
  790THF    H1214369  -0.058   1.680   4.054  0.3092 -1.4584  0.1780
  790THF    H1314370   0.035   1.782   4.162 -0.0261  0.4532  0.5088
  791THF     O114371   4.467   1.491   1.972  0.2602 -0.5321  0.3000
  791THF     C214372   4.352   1.531   1.895 -0.6210 -0.7700 -0.0440
  791THF     C314373   4.425   1.369   2.038  0.3939  0.4235 -0.2299
  791THF     H414374   4.349   1.490   1.794 -4.5718 -1.2344  0.0924
  791THF     H514375   4.362   1.640   1.886  0.1959 -0.8434 -0.1148
  791THF     H614376   4.490   1.290   2.001  0.7233  0.2119  0.7602
  791THF     H714377   4.437   1.375   2.146  2.0424  1.9505 -0.4600
  791THF     C814378   4.280   1.348   2.012 -0.0862  0.2035  0.3306
  791THF     C914379   4.227   1.490   1.974 -0.5591  0.1756 -0.2478
  791THF    H1014380   4.225   1.303   2.095 -2.0596  1.2838 -0.3188
  791THF    H1114381   4.272   1.285   1.923 -0.4553 -0.4624  0.8256
  791THF    H1214382   4.135   1.471   1.919  0.8104  0.7823 -2.8929
  791THF    H1314383   4.206   1.544   2.067  0.5273 -0.8668  0.6402
  792THF     O114384   1.546   3.044   1.151 -0.0377  0.2980  0.7025
  792THF     C214385   1.508   2.918   1.200 -1.0724  0.3962 -0.1185
  792THF     C314386   1.426   3.118   1.122  0.0374  0.2364  0.5391
  792THF     H414387   1.472   2.927   1.303 -0.1175 -0.7264  0.3410
  792THF     H514388   1.601   2.861   1.199 -0.9814  0.4809 -3.1410
  792THF     H614389   1.396   3.189   1.199 -1.8199 -0.8341  0.8487
  792THF     H714390   1.445   3.179   1.034  0.4240 -0.4072  0.1666
  792THF     C814391   1.326   3.012   1.087 -0.2891 -0.0331  0.0054
  792THF     C914392   1.402   2.877   1.091 -0.9485  0.6653 -0.2922
  792THF    H1014393   1.273   3.034   0.995 -1.4601 -0.5272  0.5445
  792THF    H1114394   1.238   3.004   1.151 -0.0637  0.8905  0.4480
  792THF    H1214395   1.341   2.789   1.113  1.3054 -0.3525  2.4641
  792THF    H1314396   1.447   2.857   0.994  1.4244 -0.6507  0.9896
  793THF     O114397   2.432   2.755   2.726 -0.3883  0.1536  0.2111
  793THF     C214398   2.460   2.722   2.596 -0.2837  0.1168  0.3389
  793THF     C314399   2.459   2.895   2.733  0.0432  0.3385  0.5643
  793THF     H414400   2.426   2.622   2.573 -2.3786  0.1320  2.8652
  793THF     H514401   2.568   2.732   2.592 -0.3594  1.5611  0.9814
  793THF     H614402   2.438   2.928   2.835  0.2010 -0.1666  0.7609
  793THF     H714403   2.564   2.916   2.710 -0.1481 -0.0094 -0.6929
  793THF     C814404   2.369   2.947   2.626 -0.9487 -0.3076  0.3045
  793THF     C914405   2.396   2.842   2.519  0.1232  0.2121  0.2243
  793THF    H1014406   2.389   3.048   2.590 -0.3767 -0.1997  0.9011
  793THF    H1114407   2.262   2.947   2.647 -0.8440  2.6315  1.2490
  793THF    H1214408   2.297   2.810   2.488  1.4183 -1.4591 -2.6231
  793THF    H1314409   2.452   2.869   2.429 -0.7129  3.0695  0.4769
  794THF     O114410   5.196   3.106   2.569  0.6742  0.1553  0.1742
  794THF     C214411   5.137   3.234   2.521  0.3255 -0.2525 -0.2083
  794THF     C314412   5.190   3.102   2.712  0.4902  0.4903 -0.1790
  794THF     H414413   5.039   3.218   2.475  0.8638  0.3856 -1.6188
  794THF     H514414   5.196   3.279   2.441  0.9302 -0.2928  0.2120
  794THF     H614415   5.096   3.057   2.745  1.6886 -1.6030  0.5428
  794THF     H714416   5.273   3.048   2.757 -1.0680 -1.4785  0.5139
  794THF     C814417   5.191   3.250   2.753  0.0118 -0.3687  0.4843
  794THF     C914418   5.116   3.331   2.644  0.1024  0.2573 -0.1613
  794THF    H1014419   5.296   3.280   2.759 -0.0972  0.2853 -0.6112
  794THF    H1114420   5.157   3.262   2.856 -2.1299 -0.9212 -0.1146
  794THF    H1214421   5.010   3.337   2.672  0.6290  1.6552  1.7464
  794THF    H1314422   5.163   3.429   2.635 -3.4850  2.0137 -1.9800
  795THF     O114423   2.747   1.081   1.398  0.3359 -0.0879  0.0269
  795THF     C214424   2.757   0.941   1.363 -0.3304 -0.1639 -0.6149
  795THF     C314425   2.605   1.119   1.414  0.1322 -0.1141 -0.2552
  795THF     H414426   2.853   0.896   1.388 -0.6772 -0.4413  0.2673
  795THF     H514427   2.745   0.930   1.256  2.4478 -2.5607 -0.8075
  795THF     H614428   2.583   1.183   1.499 -2.0193 -0.3106 -0.6123
  795THF     H714429   2.569   1.162   1.320  1.1562 -1.0208 -1.0972
  795THF     C814430   2.535   0.985   1.436 -0.0916  0.0932  0.1213
  795THF     C914431   2.646   0.877   1.439 -0.0857 -0.2021 -0.3857
  795THF    H1014432   2.477   0.966   1.345  0.9778 -0.7050 -0.4255
  795THF    H1114433   2.474   0.996   1.525 -2.2908  1.1479 -1.4235
  795THF    H1214434   2.677   0.864   1.543 -0.4725  2.7678  0.1908
  795THF    H1314435   2.600   0.784   1.406 -0.0679 -1.1222  1.9764
  796THF     O114436   2.521   1.711   0.244 -0.0970  0.7148  0.2742
  796THF     C214437   2.532   1.850   0.255 -0.3863 -0.3479  0.9378
  796THF     C314438   2.451   1.670   0.362 -0.1051  0.4490  0.6115
  796THF     H414439   2.584   1.895   0.171  0.6596  0.0556  1.7871
  796THF     H514440   2.597   1.864   0.341  0.1790  4.3190  0.0209
  796THF     H614441   2.431   1.563   0.354  0.6125  0.4246 -1.4170
  796THF     H714442   2.496   1.696   0.458 -1.4721  2.1229  0.8341
  796THF     C814443   2.325   1.761   0.358  0.2335  0.0788 -1.1908
  796THF     C914444   2.382   1.884   0.287 -0.2624 -0.3466  0.0673
  796THF    H1014445   2.285   1.787   0.456  2.8014  2.7237 -0.7101
  796THF    H1114446   2.250   1.712   0.297  0.1284 -1.0235 -0.2124
  796THF    H1214447   2.319   1.920   0.206 -0.5092 -1.9570 -0.4782
  796THF    H1314448   2.386   1.968   0.357  2.3102 -0.2099 -0.1689
  797THF     O114449   1.268   2.973   0.591  0.2461  0.3372 -0.0419
  797THF     C214450   1.240   3.077   0.497 -0.0612  0.5215 -0.4615
  797THF     C314451   1.410   2.986   0.626  0.5735  0.5386  0.1920
  797THF     H414452   1.220   3.174   0.542 -0.5131  1.6175 -2.8469
  797THF     H514453   1.148   3.057   0.441  0.1881 -0.4956 -0.5142
  797THF     H614454   1.416   3.036   0.723 -2.3541  1.4276  0.0322
  797THF     H714455   1.429   2.879   0.632 -1.5369 -0.0898 -2.4828
  797THF     C814456   1.478   3.044   0.502  0.2477 -0.2204  0.0183
  797THF     C914457   1.366   3.100   0.417 -0.4565 -0.3114  0.4949
  797THF    H1014458   1.545   2.979   0.447 -0.6906 -0.5797 -0.7165
  797THF    H1114459   1.545   3.120   0.544 -0.0465  0.7659 -1.2537
  797THF    H1214460   1.379   3.206   0.396 -0.7531 -0.4788 -0.6056
  797THF    H1314461   1.368   3.050   0.320  0.8060  0.4789  0.0969
  798THF     O114462   4.281   4.161   1.732  0.4651 -0.2144  0.2375
  798THF     C214463   4.230   4.055   1.647 -0.0094 -0.4821 -0.0481
  798THF     C314464   4.168   4.240   1.776 -0.7548  0.7855 -0.4605
  798THF     H414465   4.185   3.989   1.722 -2.8401  2.9954  1.6379
  798THF     H514466   4.308   4.017   1.581  0.1099  1.4230 -1.0591
  798THF     H614467   4.118   4.223   1.872 -2.6687  2.4107 -1.0810
  798THF     H714468   4.184   4.348   1.781 -1.6572  0.8818  1.3685
  798THF     C814469   4.067   4.221   1.664 -0.2659  0.3682  0.5080
  798THF     C914470   4.131   4.128   1.556 -0.0046  0.3243 -0.3232
  798THF    H1014471   4.034   4.319   1.629 -0.9440  0.2402  0.7634
  798THF    H1114472   3.986   4.166   1.712  1.6067 -0.5282  2.8408
  798THF    H1214473   4.053   4.074   1.503 -2.1306  0.3319  2.5170
  798THF    H1314474   4.181   4.200   1.492 -0.1423  1.5176  0.8552
  799THF     O114475   1.329   1.985   5.304 -0.1000  0.8690  0.2463
  799THF     C214476   1.425   2.055   5.374 -0.2187 -0.2364  0.2351
  799THF     C314477   1.382   1.857   5.281  0.6522  0.5071  0.6877
  799THF     H414478   1.423   2.024   5.479 -0.6854 -2.0281 -0.2786
  799THF     H514479   1.406   2.162   5.373 -1.0179 -0.2695 -3.7574
  799THF     H614480   1.377   1.800   5.374 -1.8623  0.7267  0.7620
  799THF     H714481   1.317   1.802   5.213  1.7368  1.1150 -0.8918
  799THF     C814482   1.525   1.881   5.235 -0.4569  0.0015 -0.6228
  799THF     C914483   1.557   2.012   5.308  0.2277  0.3917  0.1860
  799THF    H1014484   1.541   1.888   5.128  0.4875 -0.0730 -0.4973
  799THF    H1114485   1.597   1.804   5.264  0.5075  0.8179 -0.8076
  799THF    H1214486   1.642   1.986   5.372 -0.4230 -3.0139 -0.1349
  799THF    H1314487   1.595   2.085   5.237  2.2550 -1.4066 -0.6921
  800THF     O114488   1.077   5.400   5.176 -0.2247  0.0143  0.0141
  800THF     C214489   0.971   5.464   5.244  0.0356  0.3963 -0.1661
  800THF     C314490   1.106   5.481   5.060 -0.3986  0.2016  0.1948
  800THF     H414491   0.965   5.425   5.346  0.5134  1.6185  0.3409
  800THF     H514492   0.879   5.429   5.196  2.1223 -4.5626 -1.1205
  800THF     H614493   1.206   5.463   5.022  0.5539  0.9041  2.2269
  800THF     H714494   1.034   5.461   4.981 -0.7417  1.0350  0.2889
  800THF     C814495   1.092   5.626   5.113 -0.3146  0.2840 -0.0047
  800THF     C914496   0.994   5.607   5.230  0.5878  0.2489 -0.7337
  800THF    H1014497   1.055   5.694   5.035  2.8852  1.7210 -0.4254
  800THF    H1114498   1.184   5.678   5.138 -1.2864  1.5046  1.1981
  800THF    H1214499   1.023   5.652   5.326 -1.1570 -0.6884  0.2846
  800THF    H1314500   0.900   5.658   5.208 -1.4261 -2.7643  0.1972
  801THF     O114501   0.559   0.189   2.927 -0.0632  0.2667 -0.3600
  801THF     C214502   0.507   0.065   2.872 -0.0936 -0.5091 -0.1628
  801THF     C314503   0.463   0.292   2.886  0.0852  0.6569 -0.4753
  801THF     H414504   0.444   0.025   2.952 -0.4512  0.1833 -0.0915
  801THF     H514505   0.589   0.000   2.841  1.5286  0.5597  1.6817
  801THF     H614506   0.435   0.358   2.968 -0.2979 -0.7760  0.5827
  801THF     H714507   0.498   0.351   2.801 -0.5444 -0.1060 -1.2802
  801THF     C814508   0.342   0.229   2.823  0.0459  0.3411  0.2843
  801THF     C914509   0.410   0.108   2.757 -0.0227 -1.0806 -0.5990
  801THF    H1014510   0.295   0.294   2.749  1.7886  0.5971 -0.6625
  801THF    H1114511   0.272   0.196   2.900 -2.4740  1.8230 -1.2192
  801THF    H1214512   0.333   0.033   2.739 -2.5534  0.6690  1.9664
  801THF    H1314513   0.469   0.137   2.670  0.0765 -0.6532 -0.3977
  802THF     O114514   3.931   1.884   0.390 -0.3923  0.8871  0.0545
  802THF     C214515   3.935   1.867   0.245  0.1532 -0.2977 -0.4555
  802THF     C314516   4.013   1.785   0.443 -0.1776  0.5392 -0.3465
  802THF     H414517   4.014   1.923   0.195  1.2719 -2.1429 -0.8546
  802THF     H514518   3.839   1.895   0.201 -0.1345 -0.8380 -0.1930
  802THF     H614519   4.119   1.806   0.432  0.7524 -0.8166  3.8107
  802THF     H714520   4.001   1.771   0.551  3.4481 -1.1246  0.0127
  802THF     C814521   3.973   1.663   0.372 -1.0464  0.0450 -0.4406
  802THF     C914522   3.938   1.708   0.230  0.0273 -0.3273  0.2885
  802THF    H1014523   3.888   1.612   0.417 -0.6924 -0.3507 -0.2190
  802THF    H1114524   4.061   1.599   0.365  1.4012  2.6365  3.1701
  802THF    H1214525   4.028   1.678   0.175  1.2263  0.1087  1.9152
  802THF    H1314526   3.848   1.669   0.184 -0.9995  1.1895  0.9168
  803THF     O114527   1.852   0.840   1.469  0.2908 -0.7178  0.0723
  803THF     C214528   1.867   0.701   1.462 -0.1988  0.3394 -0.1593
  803THF     C314529   1.957   0.893   1.385  0.2121 -0.4760 -0.2597
  803THF     H414530   1.770   0.652   1.455 -1.4691  2.4990  1.2216
  803THF     H514531   1.914   0.674   1.557  1.3998  0.5406 -0.8624
  803THF     H614532   1.905   0.949   1.308 -2.6407  0.4241  2.1183
  803THF     H714533   2.021   0.959   1.444  1.3728 -1.2310 -0.6185
  803THF     C814534   2.039   0.774   1.337  0.4930 -0.8438  1.2904
  803THF     C914535   1.950   0.655   1.348 -0.2609  0.5052  0.4489
  803THF    H1014536   2.133   0.763   1.392  1.8912  2.9841  0.0040
  803THF    H1114537   2.063   0.789   1.232 -1.2842  2.7851  1.2541
  803THF    H1214538   1.894   0.644   1.255  1.7763  2.2097 -1.0873
  803THF    H1314539   1.996   0.556   1.353 -0.5745  0.1858 -1.9391
  804THF     O114540   4.544   3.048   4.061 -0.1876 -0.2162  0.8096
  804THF     C214541   4.583   3.064   3.930  0.0566  0.1611  0.2631
  804THF     C314542   4.499   3.181   4.096  0.0213  0.8429 -0.0186
  804THF     H414543   4.484   3.068   3.884 -0.2682  0.7764  0.9960
  804THF     H514544   4.643   2.981   3.893 -0.4690 -0.1304  0.0541
  804THF     H614545   4.397   3.187   4.057 -0.2848  2.4620  0.9405
  804THF     H714546   4.488   3.205   4.202  0.2492  0.6659  0.0445
  804THF     C814547   4.593   3.278   4.022  0.3843 -0.4572 -0.1598
  804THF     C914548   4.658   3.185   3.923 -0.4389 -0.0924 -0.2827
  804THF    H1014549   4.668   3.316   4.092  0.5696  1.6710 -1.4437
  804THF    H1114550   4.539   3.362   3.979  0.8204  0.0479  0.2642
  804THF    H1214551   4.664   3.234   3.826 -0.4385 -0.5052 -0.4951
  804THF    H1314552   4.762   3.165   3.947 -0.4483  1.8597  1.6645
  805THF     O114553   3.820   3.336   1.187 -0.3031 -0.2038 -0.4229
  805THF     C214554   3.886   3.255   1.101 -0.5528  0.2156  0.3947
  805THF     C314555   3.676   3.331   1.167  0.4904  0.8749  0.2163
  805THF     H414556   3.885   3.157   1.147  1.5121  0.4788  1.0832
  805THF     H514557   3.990   3.283   1.087 -0.4991 -0.1937 -0.0640
  805THF     H614558   3.615   3.288   1.247 -0.0566  1.5522  0.1800
  805THF     H714559   3.655   3.438   1.156  0.5829  1.0355  1.4259
  805THF     C814560   3.659   3.267   1.028 -0.0141  0.0757 -0.0617
  805THF     C914561   3.805   3.268   0.973  0.1551  0.0374 -0.6182
  805THF    H1014562   3.578   3.315   0.972 -0.0019  1.4905  1.0811
  805THF    H1114563   3.630   3.163   1.035 -0.1484  0.1307  0.2086
  805THF    H1214564   3.823   3.194   0.894 -0.9565 -0.1517 -0.7181
  805THF    H1314565   3.817   3.367   0.929 -1.8783 -0.5342 -2.6964
  806THF     O114566   0.203   2.738   0.680  0.0256  0.2239  0.3284
  806THF     C214567   0.112   2.755   0.789  0.1339  0.7000  0.0667
  806THF     C314568   0.234   2.867   0.631  0.7781  0.1190  0.1849
  806THF     H414569   0.165   2.786   0.879 -0.7422  1.3164  0.3845
  806THF     H514570   0.058   2.665   0.817 -0.3036  0.1969 -2.1666
  806THF     H614571   0.298   2.905   0.710  0.5624  0.8235  0.0246
  806THF     H714572   0.278   2.867   0.531 -3.0160 -0.6049 -1.6811
  806THF     C814573   0.098   2.945   0.642 -0.3284 -0.2238 -0.2357
  806THF     C914574   0.019   2.868   0.747  0.3417 -0.4328  0.6082
  806THF    H1014575   0.041   2.928   0.551 -0.2371 -1.1989 -0.1212
  806THF    H1114576   0.104   3.052   0.660  2.2961  0.1243 -2.4051
  806THF    H1214577   0.008   2.933   0.834 -0.3732 -1.8086  1.5821
  806THF    H1314578  -0.077   2.824   0.721  0.2525 -0.8721  1.6307
  807THF     O114579   2.223   2.362   1.660  0.2725  0.2884 -0.3150
  807THF     C214580   2.299   2.322   1.552  0.4146  0.3698  0.5672
  807THF     C314581   2.214   2.257   1.755  0.1276  0.1410 -0.6253
  807THF     H414582   2.360   2.400   1.506  0.3811 -0.1741 -0.4229
  807THF     H514583   2.240   2.281   1.469  1.1930  0.1188  0.1290
  807THF     H614584   2.222   2.297   1.856  0.6771 -1.9422  0.2014
  807THF     H714585   2.139   2.182   1.732  0.3482  0.5094 -2.7128
  807THF     C814586   2.356   2.195   1.743 -0.2711  0.4877  0.1647
  807THF     C914587   2.395   2.213   1.603 -0.3911 -0.5414 -0.0568
  807THF    H1014588   2.360   2.093   1.779  0.1485  1.0287  1.7500
  807THF    H1114589   2.429   2.239   1.810 -0.8061  0.9952  0.4331
  807THF    H1214590   2.495   2.255   1.609 -0.8015  0.4516  0.1084
  807THF    H1314591   2.388   2.121   1.546 -0.0394 -0.7663  0.2564
  808THF     O114592   2.220   2.061   1.351  0.2155  0.0925  0.3976
  808THF     C214593   2.112   2.023   1.434 -0.0817 -0.6175  0.2159
  808THF     C314594   2.171   2.133   1.231 -0.8028  0.0909 -0.8674
  808THF     H414595   2.124   2.029   1.542  2.7853 -1.9664  0.0653
  808THF     H514596   2.095   1.918   1.413 -1.3234 -0.5132  0.5937
  808THF     H614597   2.233   2.222   1.219  1.5007 -1.3758 -0.4852
  808THF     H714598   2.195   2.067   1.148  1.8063  0.6959 -0.6781
  808THF     C814599   2.024   2.149   1.246 -0.5807  0.2988  0.1824
  808THF     C914600   2.000   2.119   1.398  1.0119 -0.4613  0.6231
  808THF    H1014601   1.967   2.076   1.189 -1.7667  1.8242 -0.6674
  808THF    H1114602   1.980   2.243   1.213  1.6159  0.2755 -3.3111
  808THF    H1214603   2.008   2.208   1.461  1.5187  0.3834 -0.5972
  808THF    H1314604   1.908   2.067   1.423  1.0473  0.2397  2.3823
  809THF     O114605   1.226   2.515   0.107  0.2368  0.1922 -0.4787
  809THF     C214606   1.118   2.533   0.021  0.5559  0.2433  0.2680
  809THF     C314607   1.248   2.383   0.153  0.0975  0.2722  0.6046
  809THF     H414608   1.141   2.590  -0.069  0.5705 -1.0635 -0.5983
  809THF     H514609   1.036   2.587   0.068 -0.2755 -0.6053 -0.1537
  809THF     H614610   1.333   2.335   0.105 -0.3994 -1.3025  1.2246
  809THF     H714611   1.245   2.374   0.261 -3.1121 -1.3572  0.5201
  809THF     C814612   1.119   2.319   0.108  0.0848  0.0924 -0.0264
  809THF     C914613   1.097   2.391  -0.023 -0.3062 -0.5300  0.3235
  809THF    H1014614   1.041   2.338   0.182  0.8627 -0.3399  0.9413
  809THF    H1114615   1.129   2.211   0.102  0.6122  0.1491 -0.1577
  809THF    H1214616   1.164   2.360  -0.103 -0.2331  0.5491 -0.0504
  809THF    H1314617   0.994   2.376  -0.056  0.3326 -1.7887 -1.1994
  810THF     O114618   3.623   4.537   3.500  0.2051  0.3693 -0.4967
  810THF     C214619   3.607   4.418   3.565 -0.0144 -1.0726 -0.0840
  810THF     C314620   3.637   4.521   3.361 -0.2350 -0.5223  0.5369
  810THF     H414621   3.520   4.434   3.629 -1.1551  1.8995 -2.1567
  810THF     H514622   3.694   4.392   3.624  0.4863  0.7404  0.0280
  810THF     H614623   3.627   4.618   3.311 -0.5562 -1.9857 -2.4972
  810THF     H714624   3.737   4.492   3.329  0.5427  3.0352 -0.8217
  810THF     C814625   3.545   4.400   3.332 -0.3701  0.1991 -0.7181
  810THF     C914626   3.586   4.316   3.456  0.1158  0.1148  0.0316
  810THF    H1014627   3.577   4.343   3.244  0.2279 -0.3094 -0.1756
  810THF    H1114628   3.440   4.424   3.318 -0.7111 -1.6415 -1.5727
  810THF    H1214629   3.509   4.242   3.478  1.5505 -0.9423  1.8359
  810THF    H1314630   3.684   4.270   3.444 -0.4113 -1.1632  0.4660
  811THF     O114631   0.567   1.863   0.509 -0.2086  0.3179 -0.0001
  811THF     C214632   0.612   1.951   0.415  0.3188 -0.8489  0.1071
  811THF     C314633   0.434   1.896   0.536 -0.0877 -0.3057  0.3516
  811THF     H414634   0.567   1.935   0.318  1.3377 -1.0938 -0.3350
  811THF     H514635   0.719   1.941   0.402  0.2095 -1.6389 -0.1944
  811THF     H614636   0.369   1.864   0.455 -0.4067 -0.8930  0.8371
  811THF     H714637   0.414   1.853   0.634 -2.7232  2.0991  1.0007
  811THF     C814638   0.439   2.055   0.541 -0.0728  0.3704  0.4213
  811THF     C914639   0.571   2.091   0.466 -0.5936 -0.5163  0.1938
  811THF    H1014640   0.434   2.092   0.643  0.7041  1.8066 -0.0262
  811THF    H1114641   0.350   2.080   0.483 -0.7229 -1.4062  0.6061
  811THF    H1214642   0.563   2.166   0.387  0.8805 -1.2151 -0.6560
  811THF    H1314643   0.643   2.138   0.533 -0.9279 -0.1981  0.3305
  812THF     O114644   2.363   2.314   3.851  0.1898  0.8566 -0.1939
  812THF     C214645   2.279   2.265   3.754 -0.2790  0.4317 -0.0811
  812THF     C314646   2.489   2.242   3.851  0.1996  0.1532  0.1139
  812THF     H414647   2.309   2.305   3.658  0.0703 -0.9653 -0.5744
  812THF     H514648   2.177   2.289   3.786 -0.8025  0.2626 -1.5710
  812THF     H614649   2.554   2.263   3.767  3.8691 -1.2329  2.3754
  812THF     H714650   2.547   2.259   3.942  0.4388  0.3667 -0.0787
  812THF     C814651   2.431   2.098   3.843  0.1278 -0.1610  0.7366
  812THF     C914652   2.295   2.114   3.766 -0.0276  0.2342  0.1391
  812THF    H1014653   2.408   2.057   3.942  2.0298  2.3824  2.3776
  812THF    H1114654   2.506   2.034   3.797 -1.1404 -0.4550 -1.0393
  812THF    H1214655   2.294   2.068   3.667  0.3565  2.3267 -0.8818
  812THF    H1314656   2.217   2.066   3.824  0.1980 -0.8312 -0.3989
  813THF     O114657   1.123   0.152   4.009  0.2881 -0.6662  0.0949
  813THF     C214658   1.211   0.070   4.086  0.0910 -0.2553  0.0473
  813THF     C314659   1.181   0.182   3.892  0.0017  0.2085  0.5781
  813THF     H414660   1.158  -0.018   4.124  0.7081 -1.7549 -2.3608
  813THF     H514661   1.240   0.123   4.177 -0.3130 -1.0051  0.6285
  813THF     H614662   1.126   0.129   3.815 -0.6759 -1.4221  2.1058
  813THF     H714663   1.182   0.288   3.868  1.3770 -0.0636 -0.7059
  813THF     C814664   1.330   0.136   3.902  0.2458  0.1538  0.8157
  813THF     C914665   1.328   0.033   4.007  0.3871  0.1658 -0.4896
  813THF    H1014666   1.407   0.211   3.924  1.6629 -0.7850 -0.6602
  813THF    H1114667   1.363   0.085   3.812  0.6987 -0.8420  1.5281
  813THF    H1214668   1.337  -0.069   3.971 -0.0457 -0.1467  0.2698
  813THF    H1314669   1.416   0.039   4.072  0.0436  0.8149 -0.0693
  814THF     O114670   3.227   5.191   5.429 -0.1859  0.5103 -0.2192
  814THF     C214671   3.143   5.192   5.547  0.0086 -0.2865 -0.0371
  814THF     C314672   3.162   5.281   5.342  0.5811 -0.4745 -0.8406
  814THF     H414673   3.171   5.281   5.604  0.5972  0.4465 -1.4156
  814THF     H514674   3.174   5.106   5.607  1.2820 -1.2921 -2.0331
  814THF     H614675   3.180   5.384   5.375  0.1658 -0.8871  0.7377
  814THF     H714676   3.216   5.272   5.247  2.6238  1.2522  0.0665
  814THF     C814677   3.017   5.241   5.347  0.2747  0.3870  0.3448
  814THF     C914678   3.001   5.188   5.483  0.3235  0.4610  0.1219
  814THF    H1014679   3.003   5.167   5.268  1.8590 -0.1610  0.5400
  814THF    H1114680   2.957   5.331   5.330 -0.4241 -0.0983  0.1885
  814THF    H1214681   2.925   5.237   5.544  0.1629 -0.5897  0.7787
  814THF    H1314682   2.961   5.087   5.479  0.1579  0.4678  1.2051
  815THF     O114683   0.735   0.080   1.684  0.0842 -0.0077 -0.3666
  815THF     C214684   0.860   0.122   1.735  0.0932  0.0949 -0.0812
  815THF     C314685   0.650   0.195   1.688  0.6714  0.8078 -0.6850
  815THF     H414686   0.907   0.161   1.645  0.5258 -2.6808 -1.1555
  815THF     H514687   0.926   0.043   1.771  0.6700  1.0428  0.9899
  815THF     H614688   0.622   0.228   1.588 -0.6151 -0.1195 -0.6563
  815THF     H714689   0.548   0.179   1.724 -0.2516  0.3722 -3.2833
  815THF     C814690   0.713   0.301   1.770  0.1578  0.2631 -0.5217
  815THF     C914691   0.831   0.230   1.834  0.9118  0.0264 -0.0417
  815THF    H1014692   0.651   0.357   1.840  2.1176 -0.4364  1.9186
  815THF    H1114693   0.755   0.373   1.700  2.3170  0.5456  0.9734
  815THF    H1214694   0.911   0.304   1.841  2.0686 -1.2498  0.7433
  815THF    H1314695   0.798   0.176   1.923 -0.1702 -0.4736 -0.7302
  816THF     O114696   3.001   1.965   4.691 -0.2162  0.0052  0.3422
  816THF     C214697   2.891   2.032   4.626 -0.0331 -0.0721 -0.7578
  816THF     C314698   3.043   2.049   4.803 -0.3164 -0.0007  0.9132
  816THF     H414699   2.821   1.971   4.569 -0.7214  0.4456 -0.4819
  816THF     H514700   2.921   2.115   4.563 -1.3372  0.5955 -0.5338
  816THF     H614701   3.104   1.998   4.877  1.1752  2.5248  1.5322
  816THF     H714702   3.096   2.135   4.762  0.2252 -0.4718  0.6170
  816THF     C814703   2.908   2.108   4.855  0.4676 -0.2064  0.3061
  816THF     C914704   2.810   2.098   4.736 -0.0752 -0.5294  0.8037
  816THF    H1014705   2.928   2.210   4.886  1.7506 -0.3710  0.0789
  816THF    H1114706   2.862   2.056   4.939 -2.3073  2.1033  0.3559
  816THF    H1214707   2.734   2.030   4.774  0.1072 -1.8159 -1.0130
  816THF    H1314708   2.759   2.191   4.711  1.1579 -0.3128 -1.1798
  817THF     O114709   3.453   4.902   1.199 -0.2565 -0.2023  0.3866
  817THF     C214710   3.342   4.983   1.159  0.2749 -0.2189 -0.0113
  817THF     C314711   3.438   4.843   1.333 -0.1962  1.3340 -0.2133
  817THF     H414712   3.307   4.962   1.058 -2.4336  0.2586  0.7438
  817THF     H514713   3.356   5.090   1.174  0.7986 -0.2680 -0.1304
  817THF     H614714   3.416   4.736   1.325  3.2072  0.3988  1.0676
  817THF     H714715   3.526   4.845   1.397  0.6812 -2.6481 -1.0121
  817THF     C814716   3.316   4.915   1.392  0.8454 -0.0679 -0.0299
  817THF     C914717   3.238   4.963   1.275 -0.3548 -0.0321 -0.0780
  817THF    H1014718   3.347   4.999   1.454 -0.9805  0.2607  0.5019
  817THF    H1114719   3.267   4.842   1.456  0.6068 -1.3361 -1.5832
  817THF    H1214720   3.166   4.887   1.245 -0.5359 -0.2116  0.7893
  817THF    H1314721   3.192   5.060   1.291  1.6118  0.8914  0.3498
  818THF     O114722   2.673   1.898   4.215 -0.3786  0.0521  0.3356
  818THF     C214723   2.542   1.943   4.224  0.0001  0.0154  0.6226
  818THF     C314724   2.749   2.011   4.169  0.8154  0.3350 -0.5490
  818THF     H414725   2.493   1.856   4.268 -0.5753 -0.7551 -1.4360
  818THF     H514726   2.497   1.952   4.125 -2.3208 -1.7285  1.4316
  818THF     H614727   2.857   2.005   4.164  0.7042 -1.4193 -1.2828
  818THF     H714728   2.726   2.034   4.064  0.1366  2.5811  0.0272
  818THF     C814729   2.688   2.123   4.258 -0.0562 -0.1395 -0.1757
  818THF     C914730   2.552   2.074   4.296 -0.6996  0.0203 -0.6218
  818THF    H1014731   2.681   2.220   4.209 -1.4749 -1.1930 -2.2345
  818THF    H1114732   2.755   2.134   4.344  0.8274 -0.2856 -0.8399
  818THF    H1214733   2.542   2.044   4.401 -0.1380 -1.6624 -1.0179
  818THF    H1314734   2.475   2.148   4.276 -1.3219 -0.9706 -2.0382
  819THF     O114735   3.973   1.030   0.164 -0.4951  0.3374  0.6459
  819THF     C214736   4.087   1.032   0.079  0.3010  0.0979  0.0577
  819THF     C314737   3.918   1.160   0.161  0.1136  0.3620  0.0585
  819THF     H414738   4.040   1.018  -0.019  1.5565 -0.7529 -0.4486
  819THF     H514739   4.156   0.950   0.097 -1.2440 -1.0589  0.9367
  819THF     H614740   3.857   1.167   0.072  0.0460 -2.4549 -0.2017
  819THF     H714741   3.862   1.174   0.254  0.0259  1.2960 -0.1211
  819THF     C814742   4.046   1.248   0.163 -0.8301 -0.1203 -0.3767
  819THF     C914743   4.150   1.169   0.085  0.1996  0.6270  0.1190
  819THF    H1014744   4.090   1.271   0.260  1.6064 -3.5671 -0.4550
  819THF    H1114745   4.029   1.338   0.104 -0.3063 -0.6300 -1.3479
  819THF    H1214746   4.164   1.210  -0.015  1.6139  0.2644  0.1421
  819THF    H1314747   4.251   1.172   0.125  1.3696 -2.9146 -2.1028
  820THF     O114748   4.178   0.278   3.339 -0.1353  0.6244  0.2032
  820THF     C214749   4.163   0.141   3.309  0.3074 -0.7963  0.4375
  820THF     C314750   4.299   0.322   3.284 -0.6545 -0.1061  0.0991
  820THF     H414751   4.064   0.103   3.286  1.2064 -1.1125 -3.6554
  820THF     H514752   4.195   0.077   3.392  1.3296 -1.8448 -0.7249
  820THF     H614753   4.299   0.430   3.265 -2.3925  0.4072  2.5433
  820THF     H714754   4.382   0.303   3.353 -0.6211  1.4215  0.5159
  820THF     C814755   4.310   0.242   3.154  0.0237 -0.3591  0.5255
  820THF     C914756   4.239   0.114   3.178 -0.4552 -0.2142  0.0945
  820THF    H1014757   4.413   0.219   3.125  0.3672  0.8889  0.7008
  820THF    H1114758   4.255   0.285   3.070 -0.8832 -0.2957  1.1379
  820THF    H1214759   4.174   0.089   3.094  0.2312  2.2178 -1.2570
  820THF    H1314760   4.318   0.040   3.177  1.3945  1.6589 -1.2854
  821PF6-    P114761   2.070   4.486   3.553  0.4243  0.3122 -0.4419
  821PF6-    F214762   2.139   4.475   3.414 -0.0591 -0.2056  0.7030
  821PF6-    F314763   2.000   4.490   3.701 -0.0913 -0.1956  0.1080
  821PF6-    F414764   2.102   4.642   3.563  0.4253  0.3124 -0.3285
  821PF6-    F514765   2.038   4.330   3.549  0.2769 -0.3061 -0.1802
  821PF6-    F614766   2.207   4.454   3.634  0.3483  0.2154  0.3479
  821PF6-    F714767   1.929   4.520   3.485  0.6017  0.1642  0.1589
  822PF6-    P114768   2.500   4.424   1.496  0.1403  0.3072  0.0721
  822PF6-    F214769   2.526   4.269   1.537 -0.5257  0.0384  0.0793
  822PF6-    F314770   2.471   4.583   1.450 -0.2927  0.0718 -0.1745
  822PF6-    F414771   2.340   4.396   1.482 -0.3325  0.3306 -0.7097
  822PF6-    F514772   2.656   4.457   1.513 -0.0522 -0.3474 -0.4141
  822PF6-    F614773   2.522   4.390   1.345  0.5312 -0.5313 -0.3530
  822PF6-    F714774   2.466   4.466   1.654 -0.1337  0.0081  0.3303
  823PF6-    P114775   0.383   3.845   4.029 -0.0061  0.1223  0.0568
  823PF6-    F214776   0.232   3.812   4.084 -0.4486  0.1531  0.4614
  823PF6-    F314777   0.525   3.880   3.968 -0.4478  0.1503 -0.5980
  823PF6-    F414778   0.349   3.752   3.902 -0.1434  0.3396  0.1290
  823PF6-    F514779   0.408   3.940   4.152  0.0935  0.9457  0.0907
  823PF6-    F614780   0.447   3.724   4.106  0.3216 -0.7270 -0.0043
  823PF6-    F714781   0.317   3.972   3.949 -0.5021  0.1499  0.0761
  824PF6-    P114782   2.903   0.143   0.003  0.0694  0.3000 -0.4545
  824PF6-    F214783   3.048   0.210   0.039  0.5148 -0.1531  0.1235
  824PF6-    F314784   2.770   0.061  -0.034  0.0275 -0.2741 -0.0014
  824PF6-    F414785   2.825   0.287  -0.003  0.4151  0.0013  0.0726
  824PF6-    F514786   2.985   0.004   0.008  0.4055 -0.0797 -0.0056
  824PF6-    F614787   2.869   0.137   0.161  0.1270  1.2102  0.4511
  824PF6-    F714788   2.937   0.158  -0.154  0.1119 -0.1982 -0.5316
  825PF6-    P114789   1.153   3.773   4.978 -0.2824 -0.1815  0.3306
  825PF6-    F214790   1.041   3.747   5.091  0.6099 -0.1821  0.3949
  825PF6-    F314791   1.264   3.797   4.854  0.1222  0.2175 -0.9703
  825PF6-    F414792   1.159   3.931   5.008  0.1228  0.4862  0.1075
  825PF6-    F514793   1.160   3.611   4.949  1.1876 -0.6659 -0.3437
  825PF6-    F614794   1.033   3.795   4.879  0.3778 -0.0167 -0.2634
  825PF6-    F714795   1.267   3.754   5.091 -0.2206 -0.3450 -0.0784
  826PF6-    P114796   0.845   1.419   1.249  0.1238  0.1630  0.0625
  826PF6-    F214797   0.878   1.571   1.209 -0.6981  0.3578  0.0059
  826PF6-    F314798   0.808   1.269   1.290  0.2810 -0.4151 -0.2087
  826PF6-    F414799   0.719   1.426   1.148  0.1451  0.3797 -0.7633
  826PF6-    F514800   0.966   1.416   1.351 -0.1370 -0.0420  0.0464
  826PF6-    F614801   0.748   1.475   1.362 -0.5034  0.0195 -0.5532
  826PF6-    F714802   0.943   1.367   1.135  0.8085  0.2201  0.6115
  827PF6-    P114803   0.851   4.734   5.482  0.1021 -0.2298 -0.3067
  827PF6-    F214804   0.938   4.697   5.607  0.8240  0.8735 -0.3553
  827PF6-    F314805   0.764   4.773   5.354 -0.0814 -0.3107 -0.1483
  827PF6-    F414806   0.742   4.628   5.537  0.2236 -0.3463  0.8641
  827PF6-    F514807   0.964   4.844   5.437  0.1598  0.4986  0.6593
  827PF6-    F614808   0.925   4.624   5.394 -0.0189  0.0251 -0.0322
  827PF6-    F714809   0.778   4.845   5.565  0.4379 -0.8801  0.6537
  828PF6-    P114810   4.145   3.235   3.108 -0.2870  0.1725 -0.3358
  828PF6-    F214811   4.221   3.211   2.972  0.2676 -0.4480 -0.3822
  828PF6-    F314812   4.070   3.257   3.246  0.4697  0.3407  0.3709
  828PF6-    F414813   4.266   3.152   3.182 -0.0582  0.1296  0.6937
  828PF6-    F514814   4.026   3.311   3.034 -0.1348  0.4618  0.3258
  828PF6-    F614815   4.068   3.099   3.078  0.1423  0.1646 -0.2188
  828PF6-    F714816   4.232   3.372   3.136  0.2869  0.4670  0.4262
  829PF6-    P114817   3.997   5.285   2.375  0.3333 -0.0978 -0.2184
  829PF6-    F214818   3.949   5.429   2.314  0.3352  0.3851 -0.2040
  829PF6-    F314819   4.040   5.141   2.431  0.8792  0.3567 -0.0545
  829PF6-    F414820   3.958   5.329   2.525  0.6539 -0.2440  0.3908
  829PF6-    F514821   4.040   5.236   2.227  0.0305 -0.2172 -0.4482
  829PF6-    F614822   4.145   5.341   2.402 -0.4104  0.3997 -0.1978
  829PF6-    F714823   3.849   5.231   2.356 -0.4469  0.1422 -0.4467
  830PF6-    P114824   0.601   2.745   3.277  0.1797 -0.0722 -0.0873
  830PF6-    F214825   0.486   2.777   3.170 -0.1160  0.0645 -0.2624
  830PF6-    F314826   0.727   2.718   3.383 -0.2162 -0.4685  0.3217
  830PF6-    F414827   0.701   2.713   3.157 -1.0034 -0.3117  0.4644
  830PF6-    F514828   0.504   2.779   3.397  0.2368 -0.3549  0.1491
  830PF6-    F614829   0.566   2.591   3.280 -0.4169 -0.5121 -0.2758
  830PF6-    F714830   0.642   2.897   3.266 -0.4291 -0.7417 -0.6315
  831PF6-    P114831   1.504   2.136   0.370 -0.0045  0.2901  0.4685
  831PF6-    F214832   1.490   1.996   0.452  0.1570  0.4267 -0.3635
  831PF6-    F314833   1.508   2.273   0.291  0.1392  0.6513 -0.8835
  831PF6-    F414834   1.345   2.151   0.371  0.2540 -0.4610 -0.2313
  831PF6-    F514835   1.666   2.126   0.361  0.4404 -0.3718 -0.6992
  831PF6-    F614836   1.490   2.054   0.234  0.1955 -0.1212 -0.4598
  831PF6-    F714837   1.511   2.221   0.504 -0.4040  0.5033  0.2850
  832PF6-    P114838   5.148   4.994   2.645  0.4783 -0.1628 -0.0576
  832PF6-    F214839   5.087   5.137   2.623 -0.8100 -0.3987 -0.5207
  832PF6-    F314840   5.203   4.847   2.673  0.2224 -0.2555  0.2012
  832PF6-    F414841   5.102   4.998   2.801  0.2574 -0.0814  0.4078
  832PF6-    F514842   5.196   4.983   2.493 -0.1868 -0.3312  0.5004
  832PF6-    F614843   5.286   5.060   2.687  0.3430 -0.4718 -0.5954
  832PF6-    F714844   5.004   4.924   2.603 -0.6678 -0.1057  0.4573
  833PF6-    P114845   0.233   3.553   0.382  0.0847 -0.4902  0.1170
  833PF6-    F214846   0.246   3.708   0.404 -0.5959  0.0852 -0.1051
  833PF6-    F314847   0.224   3.395   0.363 -0.4820  0.2701 -0.0136
  833PF6-    F414848   0.286   3.530   0.530 -0.0744 -0.5448 -0.1313
  833PF6-    F514849   0.175   3.574   0.236 -0.1239  0.5131 -0.1366
  833PF6-    F614850   0.382   3.554   0.319  0.1764  0.3296 -0.3854
  833PF6-    F714851   0.083   3.552   0.442 -0.3296  0.0651 -0.0975
  834PF6-    P114852   1.636   4.058   0.266 -0.4198 -0.1931  0.2363
  834PF6-    F214853   1.769   4.099   0.338  0.2728  0.4866  0.2595
  834PF6-    F314854   1.496   4.014   0.199 -0.1560 -0.4459  0.3570
  834PF6-    F414855   1.563   4.188   0.324 -0.2098  0.0442  0.0550
  834PF6-    F514856   1.701   3.920   0.206 -0.2629  0.2171  0.2616
  834PF6-    F614857   1.597   3.976   0.399 -0.2779 -0.0749 -0.6140
  834PF6-    F714858   1.672   4.135   0.131 -0.0595  0.9310  0.1626
  835PF6-    P114859   2.231   2.123   2.159  0.0222  0.5020  0.5787
  835PF6-    F214860   2.217   2.175   2.313  0.0620  0.0291  0.5157
  835PF6-    F314861   2.253   2.077   2.007 -0.1784 -0.2669 -0.0443
  835PF6-    F414862   2.185   1.977   2.204 -0.1686  0.0442 -0.0747
  835PF6-    F514863   2.279   2.265   2.110  0.3281 -0.0767  0.3826
  835PF6-    F614864   2.384   2.083   2.182 -0.1478  0.0143 -0.1641
  835PF6-    F714865   2.074   2.159   2.129 -0.0330  0.0294  0.4985
  836PF6-    P114866   4.303   0.784   2.855  0.1165 -0.2923  0.1884
  836PF6-    F214867   4.379   0.840   2.984  0.6668 -0.9446  0.5982
  836PF6-    F314868   4.228   0.725   2.726 -0.4037 -0.0545  0.2511
  836PF6-    F414869   4.186   0.892   2.871 -0.2194  0.1324  0.1580
  836PF6-    F514870   4.419   0.677   2.835 -0.0473  0.1877  0.2583
  836PF6-    F614871   4.222   0.682   2.944  0.2002  0.0177  0.0431
  836PF6-    F714872   4.385   0.881   2.761 -0.0272 -0.2280  0.0869
  837PF6-    P114873   1.710   5.383   4.717  0.2165 -0.2382 -0.2908
  837PF6-    F214874   1.571   5.438   4.775 -0.2511  0.2630  0.1587
  837PF6-    F314875   1.847   5.320   4.660  0.5847  0.2720 -0.1742
  837PF6-    F414876   1.631   5.317   4.597  0.6017  0.6056  0.4333
  837PF6-    F514877   1.791   5.457   4.830  0.1858  0.2749 -0.0883
  837PF6-    F614878   1.698   5.252   4.802  0.0280 -0.2983  0.0231
  837PF6-    F714879   1.741   5.515   4.626 -0.7739  0.7225 -0.2707
  838PF6-    P114880   2.991   1.952   1.123 -0.4395 -0.1151 -0.2829
  838PF6-    F214881   3.069   2.080   1.185 -0.1272  0.3419 -0.4791
  838PF6-    F314882   2.915   1.827   1.058  0.1495  0.6159  0.1514
  838PF6-    F414883   3.090   1.853   1.208 -0.4434 -0.0214  0.2841
  838PF6-    F514884   2.900   2.051   1.038 -0.0360 -0.2771 -0.2525
  838PF6-    F614885   3.091   1.947   0.997 -0.4671  0.4104 -0.0444
  838PF6-    F714886   2.894   1.952   1.250 -0.1871  0.6214  0.5390
  839PF6-    P114887   0.031   4.662   4.239  0.2055 -0.4250 -0.2046
  839PF6-    F214888  -0.120   4.713   4.260 -0.4691  0.4808  0.3589
  839PF6-    F314889   0.175   4.608   4.223 -0.2800 -0.0340  0.4640
  839PF6-    F414890  -0.027   4.514   4.226 -0.4902  0.4140  0.0096
  839PF6-    F514891   0.089   4.811   4.254  0.0796  0.1496 -0.5803
  839PF6-    F614892   0.034   4.641   4.394 -0.3553  0.0144  0.0155
  839PF6-    F714893   0.013   4.675   4.081  0.4217 -1.0535 -0.3274
  840PF6-    P114894   1.208   0.221   0.562  0.2312 -0.1035 -0.2452
  840PF6-    F214895   1.203   0.209   0.402  1.2182  0.4467 -0.4847
  840PF6-    F314896   1.207   0.238   0.721 -0.1892  0.2650  0.1575
  840PF6-    F414897   1.255   0.373   0.550  0.0389  0.4290 -0.4368
  840PF6-    F514898   1.155   0.071   0.572  0.1898 -0.4319  0.0058
  840PF6-    F614899   1.360   0.162   0.567 -0.4651 -0.0934 -0.5012
  840PF6-    F714900   1.054   0.280   0.561 -0.3564  0.4771  0.1193
  841PF6-    P114901   3.672   0.278   4.117  0.0809 -0.2618  0.3615
  841PF6-    F214902   3.580   0.286   3.982 -0.1658  0.0816 -0.0583
  841PF6-    F314903   3.769   0.279   4.248  0.2813  0.1515  0.1765
  841PF6-    F414904   3.770   0.180   4.051 -0.7662 -0.1021  0.6826
  841PF6-    F514905   3.569   0.382   4.185 -0.4561  0.3624  0.1852
  841PF6-    F614906   3.582   0.160   4.173  0.5585  0.2757 -0.0943
  841PF6-    F714907   3.748   0.404   4.058 -0.1791 -0.1312 -0.0315
  842PF6-    P114908   2.514   1.432   2.777  0.0181  0.2785 -0.2912
  842PF6-    F214909   2.567   1.317   2.875  0.4071  0.4847  0.6590
  842PF6-    F314910   2.465   1.555   2.683 -0.1880  0.0642  0.1402
  842PF6-    F414911   2.463   1.321   2.673 -0.0497  0.2514  0.2682
  842PF6-    F514912   2.558   1.537   2.889  0.5399 -0.4304  0.4183
  842PF6-    F614913   2.663   1.437   2.707  0.1460 -0.5801 -0.4123
  842PF6-    F714914   2.369   1.422   2.846  0.1867  0.2026  0.1355
  843PF6-    P114915   2.601   2.450   4.896 -0.5403  0.1663 -0.1446
  843PF6-    F214916   2.605   2.388   4.751  0.0789 -0.1447 -0.3194
  843PF6-    F314917   2.599   2.511   5.039  0.0052 -0.1975  0.1108
  843PF6-    F414918   2.755   2.414   4.923 -0.1538 -0.1496 -0.2116
  843PF6-    F514919   2.452   2.497   4.876 -0.7724  0.1899 -0.3423
  843PF6-    F614920   2.550   2.316   4.969 -0.6994  0.5924 -0.1391
  843PF6-    F714921   2.644   2.596   4.842  0.2441 -0.2672  0.1109
  844PF6-    P114922   0.981   0.634   2.132 -0.1725  0.1689 -0.2173
  844PF6-    F214923   0.861   0.701   2.066 -0.0974 -0.2643  0.2441
  844PF6-    F314924   1.106   0.563   2.200 -0.0999 -0.0266  0.0831
  844PF6-    F414925   0.895   0.616   2.269 -0.0022 -0.2320 -0.3711
  844PF6-    F514926   1.070   0.659   2.001 -0.5045  0.3357 -0.4045
  844PF6-    F614927   1.030   0.776   2.181  0.2533 -0.0517  0.0555
  844PF6-    F714928   0.940   0.490   2.075  0.3388  0.4147 -0.4223
  845PF6-    P114929   1.469   3.522   2.081  0.0654  0.0013 -0.3979
  845PF6-    F214930   1.580   3.477   2.185 -0.5373  0.3094 -0.0780
  845PF6-    F314931   1.356   3.563   1.977  0.3421  0.4221 -0.3190
  845PF6-    F414932   1.554   3.643   2.026  0.0232 -0.4700 -0.8660
  845PF6-    F514933   1.381   3.396   2.136  0.5537  0.3569  0.0522
  845PF6-    F614934   1.410   3.619   2.189  0.1548  0.3196 -0.8460
  845PF6-    F714935   1.532   3.427   1.969 -0.3056 -0.0936 -0.0168
  846PF6-    P114936   2.517   4.769   4.928 -0.1793 -0.2951  0.3038
  846PF6-    F214937   2.523   4.665   5.053 -0.2143  0.1864  0.2887
  846PF6-    F314938   2.509   4.875   4.808  0.1561  0.7900  0.6047
  846PF6-    F414939   2.514   4.649   4.825  0.2864 -0.2809 -0.1203
  846PF6-    F514940   2.520   4.895   5.029 -0.1445 -0.6756  0.1017
  846PF6-    F614941   2.682   4.769   4.923 -0.4840 -0.2299 -0.0585
  846PF6-    F714942   2.353   4.769   4.938  0.4396 -0.2051  0.0332
  847PF6-    P114943   4.279   0.917   5.094  0.5934  0.1838 -0.4126
  847PF6-    F214944   4.318   0.766   5.148 -0.0305 -0.3163 -0.2766
  847PF6-    F314945   4.240   1.065   5.048 -0.1239 -0.8298 -0.5091
  847PF6-    F414946   4.161   0.923   5.205 -0.1847 -0.3461 -0.0708
  847PF6-    F514947   4.392   0.905   4.981 -0.2092 -0.1871  0.2217
  847PF6-    F614948   4.168   0.856   4.992 -0.1905  0.3226  0.3656
  847PF6-    F714949   4.386   0.971   5.198  0.8064 -0.2334 -0.0993
  848PF6-    P114950   5.343   0.616   0.036 -0.2208 -0.0012 -0.0535
  848PF6-    F214951   5.424   0.650   0.167 -0.4049 -0.0547 -0.0253
  848PF6-    F314952   5.271   0.583  -0.099  0.2287 -0.6827  0.7021
  848PF6-    F414953   5.216   0.695   0.089  0.2179  0.2545  0.7620
  848PF6-    F514954   5.470   0.538  -0.022  0.2743 -0.1888  0.2296
  848PF6-    F614955   5.281   0.482   0.100  0.2431  0.4636  0.4382
  848PF6-    F714956   5.398   0.753  -0.029  0.1490  0.0137  0.0962
  849PF6-    P114957   3.243   3.265   3.599 -0.0846 -0.1020  0.1309
  849PF6-    F214958   3.398   3.289   3.632  0.3467  0.0111  0.1611
  849PF6-    F314959   3.092   3.241   3.562 -0.2796  0.1064 -0.1013
  849PF6-    F414960   3.276   3.152   3.498  0.1580 -0.4556  0.3369
  849PF6-    F514961   3.207   3.381   3.704 -0.6692  0.4029  0.5386
  849PF6-    F614962   3.249   3.382   3.484 -0.8051 -0.2743 -0.3282
  849PF6-    F714963   3.246   3.156   3.720  0.6940 -0.0009  0.1526
  850PF6-    P114964   3.710   0.609   1.409 -0.2709 -0.1266  0.5620
  850PF6-    F214965   3.665   0.755   1.451  0.3765 -0.5164 -0.0351
  850PF6-    F314966   3.759   0.456   1.358  0.1816  0.6758  0.1146
  850PF6-    F414967   3.556   0.562   1.419  0.1532 -0.2512 -0.2824
  850PF6-    F514968   3.864   0.658   1.406 -0.4118  0.4317  0.3602
  850PF6-    F614969   3.736   0.560   1.560  0.4423 -0.1619 -0.2852
  850PF6-    F714970   3.688   0.647   1.255  0.4489  0.3149 -0.4667
  851PF6-    P114971   2.967   2.364   3.998 -0.0964 -0.1199  0.6427
  851PF6-    F214972   2.984   2.510   3.931 -0.1164  0.1794 -0.2323
  851PF6-    F314973   2.953   2.214   4.066  0.6071 -0.4199  0.3329
  851PF6-    F414974   2.860   2.424   4.098  0.1310 -0.2638 -0.0909
  851PF6-    F514975   3.083   2.308   3.898 -0.1632 -0.0877 -0.3635
  851PF6-    F614976   3.072   2.401   4.108 -0.3545  1.0920 -0.0297
  851PF6-    F714977   2.851   2.332   3.884  0.2763 -0.0754 -0.4987
  852PF6-    P114978   5.004   3.573   3.273  0.0954  0.2701 -0.2964
  852PF6-    F214979   5.160   3.583   3.264 -0.5773 -0.8810  0.6106
  852PF6-    F314980   4.842   3.571   3.274  0.0267  0.0503 -0.2814
  852PF6-    F414981   4.993   3.712   3.191  0.6099 -0.4695  0.0963
  852PF6-    F514982   5.008   3.434   3.352 -0.0889 -0.5156 -0.4820
  852PF6-    F614983   5.009   3.664   3.405  0.1896 -0.2037 -0.4281
  852PF6-    F714984   5.003   3.484   3.134 -0.4697 -0.4460 -0.1910
  853PF6-    P114985   1.986   5.212   2.339 -0.1661  0.3915  0.0129
  853PF6-    F214986   1.901   5.131   2.229  0.0406 -0.2240  0.3909
  853PF6-    F314987   2.068   5.294   2.445 -0.0161 -0.1643 -0.0523
  853PF6-    F414988   1.977   5.088   2.440  0.1437 -0.4702  0.1975
  853PF6-    F514989   1.994   5.335   2.235 -0.6084  0.0587 -0.1329
  853PF6-    F614990   1.851   5.269   2.406  0.1158  0.0518 -0.2723
  853PF6-    F714991   2.125   5.157   2.283  0.2902  0.3543 -0.3256
  854PF6-    P114992   5.048   3.339   4.147 -0.0093  0.1942  0.2402
  854PF6-    F214993   5.092   3.209   4.056 -0.0077 -0.2645  0.4181
  854PF6-    F314994   5.012   3.459   4.238 -0.7022 -0.5044  0.2245
  854PF6-    F414995   5.197   3.342   4.199 -0.1325  0.5958 -0.0663
  854PF6-    F514996   4.899   3.334   4.079 -0.4478  0.0847  0.3299
  854PF6-    F614997   5.004   3.236   4.270  0.1918 -0.1892  0.3750
  854PF6-    F714998   5.085   3.446   4.034  0.5088  0.0930 -0.2415
  855PF6-    P114999   1.383   2.679   1.632 -0.0618 -0.2051  0.2654
  855PF6-    F215000   1.382   2.646   1.788 -0.1373  0.0374  0.2416
  855PF6-    F315001   1.385   2.711   1.477  0.1255  0.4410  0.7288
  855PF6-    F415002   1.241   2.756   1.656 -0.2781  0.2807  0.8240
  855PF6-    F515003   1.513   2.595   1.623 -0.8213  0.0446 -0.0121
  855PF6-    F615004   1.307   2.544   1.600 -0.2896 -0.4345 -0.1650
  855PF6-    F715005   1.468   2.808   1.654 -0.3899 -0.2878 -0.4592
  856PF6-    P115006   4.290   0.683   2.010  0.0132  0.4369 -0.2778
  856PF6-    F215007   4.450   0.707   2.005  0.1701  0.1890  0.2100
  856PF6-    F315008   4.135   0.658   2.017 -0.1572  0.0514 -0.1866
  856PF6-    F415009   4.296   0.705   2.166  0.0941 -0.0735 -0.2291
  856PF6-    F515010   4.291   0.662   1.849 -0.2130  0.1875  0.0570
  856PF6-    F615011   4.316   0.529   2.037 -0.6752  0.2012 -0.4025
  856PF6-    F715012   4.258   0.837   1.984  0.0197 -0.0906 -0.0494
  857PF6-    P115013   3.333   4.125   0.995  0.0513 -0.0106  0.5972
  857PF6-    F215014   3.248   4.016   0.913  0.0850 -0.1335 -0.2091
  857PF6-    F315015   3.415   4.242   1.076 -0.2289  0.4470  0.3256
  857PF6-    F415016   3.211   4.224   0.998  0.3487 -0.4029 -0.1151
  857PF6-    F515017   3.466   4.030   1.001  0.7672 -0.6052  0.0594
  857PF6-    F615018   3.380   4.182   0.851 -0.2972 -0.4151  0.0039
  857PF6-    F715019   3.287   4.062   1.137 -0.4987 -0.5324  0.0443
  858PF6-    P115020   3.811   3.694   2.229  0.0288  0.0113 -0.0658
  858PF6-    F215021   3.822   3.700   2.073 -0.1579  0.0411  0.3230
  858PF6-    F315022   3.800   3.695   2.393 -0.5061  0.2327  0.5226
  858PF6-    F415023   3.742   3.835   2.221  0.7687  0.1930 -0.5511
  858PF6-    F515024   3.883   3.553   2.231 -0.4782  0.0748  0.1118
  858PF6-    F615025   3.953   3.762   2.238  0.0007 -0.0697 -0.5938
  858PF6-    F715026   3.670   3.611   2.209 -0.3216 -0.1890 -0.6269
  859PF6-    P115027   3.278   0.733   4.691  0.0484  0.2208 -0.4782
  859PF6-    F215028   3.385   0.849   4.708  0.3503  0.0457 -0.1228
  859PF6-    F315029   3.174   0.612   4.671 -0.6767  0.0714 -0.1047
  859PF6-    F415030   3.336   0.704   4.546  0.1547 -0.0586 -0.6597
  859PF6-    F515031   3.217   0.765   4.843  0.2028 -0.5840  0.4369
  859PF6-    F615032   3.171   0.835   4.621  0.0524  0.3964  0.1566
  859PF6-    F715033   3.383   0.627   4.750 -0.5549  0.2490 -0.5765
  860PF6-    P115034   1.331   1.190   3.112  0.3565 -0.4420  0.0106
  860PF6-    F215035   1.304   1.029   3.093  0.6211  0.1555  0.3577
  860PF6-    F315036   1.359   1.339   3.139 -0.0979  0.0071 -0.4969
  860PF6-    F415037   1.365   1.205   2.960 -0.1205  0.3629  0.0065
  860PF6-    F515038   1.298   1.176   3.270  0.3463 -0.0258 -0.0995
  860PF6-    F615039   1.488   1.170   3.142  0.9280 -0.2589 -0.3003
  860PF6-    F715040   1.174   1.225   3.087  0.7130  0.2703 -0.5404
  861PF6-    P115041   2.531   3.715   1.870 -0.3617  0.5794  0.1756
  861PF6-    F215042   2.490   3.580   1.942  0.2665 -0.0783  0.2085
  861PF6-    F315043   2.569   3.858   1.796  0.3379 -0.4912  0.5712
  861PF6-    F415044   2.499   3.795   2.003  0.1857  0.1498 -0.1637
  861PF6-    F515045   2.557   3.635   1.735  0.2174 -0.3463 -0.2185
  861PF6-    F615046   2.382   3.736   1.828  0.0723  0.5020  0.0369
  861PF6-    F715047   2.694   3.692   1.909  0.3254 -0.0563 -0.4666
  862PF6-    P115048   2.771   4.868   2.494  0.3151 -0.1103 -0.1316
  862PF6-    F215049   2.857   4.892   2.628  0.1311 -0.3428  0.2044
  862PF6-    F315050   2.686   4.850   2.364  0.4680 -0.3344 -0.1413
  862PF6-    F415051   2.642   4.838   2.578 -0.3699 -0.0586 -0.3621
  862PF6-    F515052   2.902   4.908   2.408 -0.3096  0.7030  0.3468
  862PF6-    F615053   2.809   4.709   2.482  0.7177 -0.4592  0.1681
  862PF6-    F715054   2.728   5.023   2.500  0.5470  0.0028  0.2705
  863PF6-    P115055   1.620   5.485   3.514 -0.1683 -0.1301  0.0445
  863PF6-    F215056   1.693   5.624   3.500  0.7912 -0.4531 -0.3516
  863PF6-    F315057   1.544   5.345   3.538 -0.2137 -0.2369 -0.3989
  863PF6-    F415058   1.746   5.430   3.606 -0.0174 -0.1733 -0.3462
  863PF6-    F515059   1.499   5.542   3.431  0.0247  0.4478 -0.0508
  863PF6-    F615060   1.691   5.428   3.378 -0.1726 -0.4246 -0.1597
  863PF6-    F715061   1.555   5.549   3.646  0.0753 -0.3173 -0.3414
  864PF6-    P115062   1.546   5.075   1.369  0.1132  0.3026 -0.0870
  864PF6-    F215063   1.563   5.064   1.526 -0.8488  0.1473 -0.0506
  864PF6-    F315064   1.529   5.084   1.209  0.3252  0.0406 -0.4156
  864PF6-    F415065   1.568   4.919   1.360 -0.4681  0.2178  0.1198
  864PF6-    F515066   1.516   5.231   1.379  0.0129  0.8173  0.1675
  864PF6-    F615067   1.705   5.102   1.349  0.1387  0.1537  0.1784
  864PF6-    F715068   1.388   5.043   1.384  0.0010 -0.3381 -0.2236
  865PF6-    P115069   3.070   0.548   0.644  0.1671 -0.1174 -0.1767
  865PF6-    F215070   3.126   0.650   0.755 -0.3958 -0.2495 -0.4399
  865PF6-    F315071   3.012   0.437   0.542 -0.3448 -0.2653 -0.4231
  865PF6-    F415072   3.148   0.435   0.717  0.6023  0.3251 -0.1436
  865PF6-    F515073   2.989   0.663   0.569  0.1099  0.2614  0.0177
  865PF6-    F615074   3.194   0.571   0.550 -0.2260  0.0154 -0.1445
  865PF6-    F715075   2.947   0.516   0.735 -0.0766  0.1171 -0.7877
  866PF6-    P115076   4.806   0.167   4.996 -0.2240  0.2232  0.1672
  866PF6-    F215077   4.827   0.109   5.146 -0.1485  0.1807  0.3105
  866PF6-    F315078   4.782   0.222   4.848 -0.5931  0.0036  0.7453
  866PF6-    F415079   4.651   0.165   5.022 -0.2627 -0.0584  0.3753
  866PF6-    F515080   4.968   0.172   4.980 -0.2022  0.4018  0.1492
  866PF6-    F615081   4.799   0.018   4.939 -0.0086  0.5211  0.9396
  866PF6-    F715082   4.810   0.320   5.049 -0.1763 -0.3211  0.0439
  867PF6-    P115083   0.373   2.301   4.799  0.4717  0.2955  0.4501
  867PF6-    F215084   0.408   2.256   4.640 -0.2594  0.5775 -0.1070
  867PF6-    F315085   0.336   2.348   4.943  0.2158 -0.9584  0.2329
  867PF6-    F415086   0.527   2.343   4.825  0.1249 -0.3935  0.0133
  867PF6-    F515087   0.220   2.261   4.766 -0.1736  0.1447  0.2339
  867PF6-    F615088   0.404   2.154   4.858  0.1904  0.3289  0.2204
  867PF6-    F715089   0.340   2.453   4.757  0.2899 -0.7200  0.2870
  868PF6-    P115090   4.099   1.845   4.997  0.7277 -0.0759  0.3317
  868PF6-    F215091   4.202   1.905   5.105  0.4600  0.0596  0.5441
  868PF6-    F315092   3.994   1.788   4.886  0.1292 -0.1768 -0.1893
  868PF6-    F415093   4.045   1.741   5.112 -0.3012 -0.4373 -0.3217
  868PF6-    F515094   4.156   1.945   4.887 -0.4012  0.3584  0.2181
  868PF6-    F615095   4.208   1.736   4.955  0.2515  0.1092 -0.0497
  868PF6-    F715096   3.988   1.952   5.036 -0.1127  0.2430  0.0702
  869PF6-    P115097   2.598   2.641   0.244 -0.2287  0.0359  0.1818
  869PF6-    F215098   2.521   2.500   0.252  0.6916  0.2839 -0.3634
  869PF6-    F315099   2.687   2.775   0.236  0.0583 -0.0167  0.4749
  869PF6-    F415100   2.602   2.660   0.410  0.7267 -0.2396  0.1011
  869PF6-    F515101   2.598   2.633   0.088  0.0914  0.7241  0.5658
  869PF6-    F615102   2.460   2.719   0.242 -0.1029 -0.2887 -0.2472
  869PF6-    F715103   2.734   2.555   0.252  0.0601 -0.2921  0.5018
  870PF6-    P115104   2.055   0.820   5.353 -0.0497 -0.6394 -0.0981
  870PF6-    F215105   2.181   0.915   5.392  0.3040 -0.1503 -0.6880
  870PF6-    F315106   1.938   0.731   5.305 -0.0873  0.0699  0.3640
  870PF6-    F415107   2.144   0.733   5.253  0.1870  0.2673 -0.4923
  870PF6-    F515108   1.962   0.902   5.454  0.5228  0.5391  0.1639
  870PF6-    F615109   2.016   0.923   5.240  0.0584 -0.7087  0.4511
  870PF6-    F715110   2.090   0.722   5.468 -0.3122  0.1922  0.3153
  871PF6-    P115111   0.993   4.519   4.679  0.1097  0.2409 -0.0119
  871PF6-    F215112   0.943   4.374   4.639 -0.1567 -0.2383  0.2495
  871PF6-    F315113   1.032   4.669   4.719 -0.0693 -0.2817  0.2423
  871PF6-    F415114   0.996   4.555   4.524 -0.2628  0.6757  0.4823
  871PF6-    F515115   0.996   4.481   4.835  0.0358 -0.2749  0.2663
  871PF6-    F615116   1.142   4.476   4.673  0.2260  0.0208  0.1110
  871PF6-    F715117   0.835   4.565   4.684  0.0303 -0.1122  0.0940
  872PF6-    P115118   5.379   3.959   1.910  0.7216 -0.0112 -0.3483
  872PF6-    F215119   5.363   3.851   1.796 -0.0507 -0.5638 -0.5675
  872PF6-    F315120   5.401   4.062   2.028  0.0497 -0.5198  0.6356
  872PF6-    F415121   5.427   3.846   2.014  0.3732 -0.0552  0.1075
  872PF6-    F515122   5.326   4.075   1.807  0.5375 -0.0870 -0.2629
  872PF6-    F615123   5.228   3.941   1.959  0.2287 -0.4364 -0.0526
  872PF6-    F715124   5.528   3.987   1.865 -0.3912  1.0526  0.3637
  873PF6-    P115125   1.041   0.978   3.965 -0.1033 -0.1772  0.0561
  873PF6-    F215126   1.117   0.873   3.871 -0.1297 -0.0597  0.5719
  873PF6-    F315127   0.971   1.091   4.056  0.3233  0.3251 -0.8709
  873PF6-    F415128   0.904   0.898   3.954  0.7033  0.0255  0.0278
  873PF6-    F515129   1.179   1.060   3.982  0.7604  0.1159  0.0597
  873PF6-    F615130   1.003   1.075   3.842 -0.0380 -0.2424 -0.1395
  873PF6-    F715131   1.078   0.892   4.096  0.4739 -0.5025  0.5153
  874PF6-    P115132   2.219   3.614   5.296  0.0537 -0.0416 -0.1527
  874PF6-    F215133   2.111   3.643   5.412  0.1516 -0.2237 -0.8841
  874PF6-    F315134   2.325   3.594   5.175  0.2433  0.0403  0.1648
  874PF6-    F415135   2.280   3.492   5.380  0.2550  0.0369 -0.8725
  874PF6-    F515136   2.153   3.731   5.217  0.2839  0.0120 -0.0209
  874PF6-    F615137   2.322   3.713   5.368 -0.1046  0.2011  0.1990
  874PF6-    F715138   2.118   3.512   5.225  0.1594 -0.1450  0.5931
  875PF6-    P115139   4.240   1.720   0.770  0.2584  0.1710  0.0749
  875PF6-    F215140   4.081   1.739   0.774 -0.1015 -0.6781 -0.1082
  875PF6-    F315141   4.397   1.688   0.770 -0.1415  0.1740 -0.5096
  875PF6-    F415142   4.257   1.845   0.679  0.7707  0.8803  0.1507
  875PF6-    F515143   4.219   1.588   0.867 -0.1559 -0.3885 -0.5687
  875PF6-    F615144   4.220   1.628   0.642 -0.6296 -0.6525  0.1091
  875PF6-    F715145   4.266   1.816   0.894  0.3870  0.1090 -0.4422
  876PF6-    P115146   2.864   0.309   4.009  0.2959  0.1887  0.6831
  876PF6-    F215147   2.814   0.344   4.152 -0.1757 -0.3269  0.4497
  876PF6-    F315148   2.920   0.273   3.864  0.0922 -0.1312 -0.2942
  876PF6-    F415149   2.989   0.403   4.039 -0.4234 -0.5101 -0.0643
  876PF6-    F515150   2.727   0.223   3.975  0.0186  0.2227 -0.0797
  876PF6-    F615151   2.781   0.431   3.945  0.7589 -0.2660  0.1133
  876PF6-    F715152   2.952   0.189   4.069  0.0348  0.3581 -0.6552
  877PF6-    P115153   0.298   5.324   4.942  0.0048 -0.4192 -0.2854
  877PF6-    F215154   0.375   5.211   5.025  0.2406  0.5885 -0.3927
  877PF6-    F315155   0.217   5.433   4.863  0.3226 -0.9171  0.0558
  877PF6-    F415156   0.436   5.402   4.924 -0.4941 -0.5565  0.4539
  877PF6-    F515157   0.159   5.238   4.969 -0.0104 -0.4549 -0.3666
  877PF6-    F615158   0.277   5.411   5.082  0.1113  0.1537 -0.2653
  877PF6-    F715159   0.321   5.240   4.808  0.2060  0.2582  0.3953
  878PF6-    P115160   1.006   3.338   3.673 -0.0356 -0.0456 -0.2565
  878PF6-    F215161   1.063   3.370   3.526 -0.3106  0.5261  0.0621
  878PF6-    F315162   0.944   3.311   3.818  0.1827  0.0283  0.4697
  878PF6-    F415163   1.151   3.282   3.723 -0.2414  0.9309  0.2378
  878PF6-    F515164   0.872   3.409   3.623 -0.2050 -0.4898  0.3144
  878PF6-    F615165   0.958   3.193   3.625  0.0729  0.0389  0.2261
  878PF6-    F715166   1.049   3.483   3.718 -0.1500  0.1666  0.3798
  879PF6-    P115167   2.972   3.796   2.608  0.4682  0.1301 -0.3774
  879PF6-    F215168   3.105   3.769   2.687  0.5248  0.1969 -0.5653
  879PF6-    F315169   2.833   3.820   2.525  0.0052 -0.3137  0.1197
  879PF6-    F415170   3.020   3.937   2.555  0.1168 -0.5599 -0.4605
  879PF6-    F515171   2.918   3.654   2.665  0.0631 -0.2969 -0.2891
  879PF6-    F615172   2.901   3.868   2.738 -0.6687  0.1715  0.3206
  879PF6-    F715173   3.038   3.720   2.479  0.5214  0.3903 -0.2730
  880PF6-    P115174   3.346   1.911   3.094 -0.1122 -0.6869  0.1581
  880PF6-    F215175   3.231   1.992   3.172 -0.0783 -0.0419  0.3759
  880PF6-    F315176   3.466   1.834   3.014  0.0414  0.6026  0.4369
  880PF6-    F415177   3.318   1.776   3.179  0.1210  0.1626 -0.3947
  880PF6-    F515178   3.375   2.048   3.018 -0.0268 -0.4231  0.0294
  880PF6-    F615179   3.454   1.962   3.200  0.4864 -0.2896 -0.6033
  880PF6-    F715180   3.236   1.868   2.985  0.7109  0.1948  0.5895
  881PF6-    P115181   2.258   2.165   3.315  0.1025 -0.1287  0.4888
  881PF6-    F215182   2.293   2.033   3.224 -0.4448  0.0654 -0.5994
  881PF6-    F315183   2.223   2.298   3.397 -0.1957  0.1383 -0.1676
  881PF6-    F415184   2.163   2.212   3.199 -0.1020  0.1320  0.0742
  881PF6-    F515185   2.364   2.115   3.425  0.3437 -0.1117 -0.0447
  881PF6-    F615186   2.376   2.248   3.241  0.4959  0.1228  0.8333
  881PF6-    F715187   2.135   2.089   3.380  0.1160 -0.1119  0.1997
  882PF6-    P115188   3.897   5.376   5.094  0.4925  0.3857  0.6312
  882PF6-    F215189   4.045   5.420   5.131  0.1011  0.3070  0.7845
  882PF6-    F315190   3.747   5.333   5.058 -0.2002  0.0514  0.0847
  882PF6-    F415191   3.837   5.520   5.122 -0.2410  0.7194  0.6847
  882PF6-    F515192   3.942   5.227   5.057 -0.4973  0.7490  0.2024
  882PF6-    F615193   3.870   5.323   5.241 -0.7955  0.0911 -0.0849
  882PF6-    F715194   3.927   5.426   4.942  0.3649 -0.0879  0.5402
  883PF6-    P115195   2.027   3.314   3.843 -0.2985 -0.4477  0.0393
  883PF6-    F215196   1.931   3.179   3.828 -0.2820 -0.0593 -0.5189
  883PF6-    F315197   2.119   3.449   3.858  0.2786 -0.2476  0.4851
  883PF6-    F415198   1.905   3.398   3.780 -0.7439  0.2550 -0.0998
  883PF6-    F515199   2.150   3.229   3.905 -0.5539  0.1224 -0.3249
  883PF6-    F615200   2.081   3.273   3.693 -0.3338 -0.8377 -0.4707
  883PF6-    F715201   1.968   3.342   3.987  0.0015  0.0841 -0.0370
  884PF6-    P115202   4.675   0.192   1.257 -0.3365  0.0371 -0.1282
  884PF6-    F215203   4.583   0.318   1.222 -0.2586 -0.4139  0.7059
  884PF6-    F315204   4.759   0.065   1.307 -0.2527 -0.1345  0.1141
  884PF6-    F415205   4.593   0.178   1.389 -0.3504 -0.3577 -0.3655
  884PF6-    F515206   4.763   0.209   1.122  0.2931 -0.1501 -0.0017
  884PF6-    F615207   4.782   0.283   1.339 -0.0282 -0.4269  0.2040
  884PF6-    F715208   4.572   0.099   1.179  0.0909  0.1360 -0.1455
  885PF6-    P115209   2.624   4.623   0.549  0.0589 -0.4596 -0.4612
  885PF6-    F215210   2.502   4.580   0.642  0.3225 -0.0084  0.1361
  885PF6-    F315211   2.747   4.668   0.460 -0.0977 -0.3219  0.2413
  885PF6-    F415212   2.680   4.469   0.544  0.1552 -0.3220  0.1506
  885PF6-    F515213   2.574   4.774   0.552  0.4591 -0.1267 -0.2491
  885PF6-    F615214   2.710   4.651   0.684 -0.4816 -0.1724  0.3219
  885PF6-    F715215   2.535   4.588   0.422  0.0193 -0.2831  0.6051
  886PF6-    P115216   3.277   3.664   5.128 -0.2614  0.3299  0.1483
  886PF6-    F215217   3.251   3.697   4.968  0.6302  0.6009 -0.0599
  886PF6-    F315218   3.299   3.637   5.288 -0.2838  0.2278 -0.3437
  886PF6-    F415219   3.353   3.806   5.144  0.1526  0.0212  0.2439
  886PF6-    F515220   3.204   3.520   5.118  0.3007 -0.0879 -0.2890
  886PF6-    F615221   3.420   3.596   5.089  0.0393 -0.3780  0.1484
  886PF6-    F715222   3.141   3.734   5.169 -0.1942 -0.4110  0.3715
  887PF6-    P115223   3.737   2.078   1.636  0.0773 -0.2016  0.0111
  887PF6-    F215224   3.758   1.916   1.658 -0.4249 -0.9860  0.5640
  887PF6-    F315225   3.717   2.228   1.607  0.7492 -0.3981 -0.4059
  887PF6-    F415226   3.643   2.091   1.762 -0.1817 -0.0854 -0.0564
  887PF6-    F515227   3.835   2.075   1.504 -0.1529 -0.1562 -0.4019
  887PF6-    F615228   3.609   2.038   1.543  0.3429 -0.3602  0.7050
  887PF6-    F715229   3.863   2.105   1.725  0.0566  0.3077 -0.1373
  888PF6-    P115230   1.636   1.731   1.571  0.5693 -0.0368  0.2046
  888PF6-    F215231   1.538   1.645   1.473  0.0567  0.2828 -0.9845
  888PF6-    F315232   1.726   1.814   1.671 -0.2927  0.7097  0.0267
  888PF6-    F415233   1.504   1.801   1.635 -0.4485  0.6704  0.0357
  888PF6-    F515234   1.764   1.663   1.505 -0.6421 -0.2547 -0.2272
  888PF6-    F615235   1.652   1.850   1.466  0.0181  0.8638  0.1442
  888PF6-    F715236   1.633   1.613   1.685  0.0488  0.3084 -0.1469
  889PF6-    P115237   3.696   4.492   0.072 -0.1807  0.0467 -0.3721
  889PF6-    F215238   3.731   4.581   0.200 -0.6130  0.3922  0.8722
  889PF6-    F315239   3.673   4.396  -0.057  0.0640 -0.1156 -0.0032
  889PF6-    F415240   3.691   4.617  -0.024 -0.3136 -0.4382 -0.0142
  889PF6-    F515241   3.708   4.365   0.168  0.4808  0.2435  0.8429
  889PF6-    F615242   3.538   4.502   0.099 -0.6309 -0.2422 -0.1917
  889PF6-    F715243   3.856   4.488   0.066  0.0578  0.2339  0.3163
  890PF6-    P115244   2.009   5.090   0.134 -0.5055 -0.2480 -0.2489
  890PF6-    F215245   2.042   5.184   0.009  0.2228  0.0846 -0.4693
  890PF6-    F315246   1.973   4.996   0.259 -0.0312 -0.1975  0.0179
  890PF6-    F415247   2.019   4.953   0.045 -0.3247 -0.6353 -0.0732
  890PF6-    F515248   2.010   5.219   0.225 -0.0067  0.1223 -0.2119
  890PF6-    F615249   1.846   5.096   0.104 -0.4850 -0.1504  0.5995
  890PF6-    F715250   2.173   5.077   0.165  0.4798 -0.4580  0.1768
  891PF6-    P115251   2.530   1.387   0.843 -0.5937 -0.1365  0.1425
  891PF6-    F215252   2.382   1.331   0.875 -0.0493  0.3382  0.0158
  891PF6-    F315253   2.684   1.444   0.812  0.3802 -0.1505 -0.5970
  891PF6-    F415254   2.588   1.249   0.896  0.3011 -0.1147 -0.0250
  891PF6-    F515255   2.467   1.526   0.784 -0.4572 -0.2720 -0.0625
  891PF6-    F615256   2.536   1.446   0.990 -0.3520  0.4621  0.2165
  891PF6-    F715257   2.523   1.330   0.696 -0.4596  0.2184  0.3329
  892PF6-    P115258   3.727   5.285   0.743  0.2105  0.4759  0.1160
  892PF6-    F215259   3.757   5.430   0.676  0.3471  0.0294 -0.1393
  892PF6-    F315260   3.692   5.140   0.808 -0.4007 -0.1530 -0.0982
  892PF6-    F415261   3.641   5.356   0.860  0.3376  0.0738  0.3993
  892PF6-    F515262   3.813   5.215   0.625 -0.0607  0.1806 -0.9445
  892PF6-    F615263   3.854   5.291   0.830 -0.3729 -0.0652  0.5541
  892PF6-    F715264   3.598   5.276   0.650 -0.1109  0.9331  0.1916
  893PF6-    P115265   0.391   5.230   0.900 -0.1372 -0.0005  0.1252
  893PF6-    F215266   0.415   5.380   0.846  0.1367  0.1723  0.3715
  893PF6-    F315267   0.355   5.084   0.951  0.0288  0.8370 -0.5166
  893PF6-    F415268   0.242   5.233   0.838  0.3074  0.0242 -0.0108
  893PF6-    F515269   0.538   5.228   0.960  0.0979 -0.0765 -0.4123
  893PF6-    F615270   0.337   5.291   1.035  0.4986  0.0474 -0.1292
  893PF6-    F715271   0.442   5.169   0.759 -0.3171 -0.1153  0.3463
  894PF6-    P115272   0.333   1.327   0.247  0.2157 -0.0657  0.0124
  894PF6-    F215273   0.453   1.427   0.205 -0.0083 -0.0506 -0.1209
  894PF6-    F315274   0.212   1.224   0.288 -0.0466 -0.1014 -0.5518
  894PF6-    F415275   0.243   1.380   0.123  0.3683 -0.1254  0.0783
  894PF6-    F515276   0.425   1.273   0.367 -0.6282  0.4407 -0.8230
  894PF6-    F615277   0.270   1.436   0.350  0.0430  0.4298 -0.0812
  894PF6-    F715278   0.396   1.214   0.153  0.3942 -0.1623 -0.2081
  895PF6-    P115279   2.745   0.863   2.111 -0.0196 -0.2864  0.1688
  895PF6-    F215280   2.677   0.997   2.048 -0.4671 -0.0234  0.1892
  895PF6-    F315281   2.815   0.733   2.165 -0.3676 -0.1094 -0.7840
  895PF6-    F415282   2.672   0.774   1.997  0.1191  0.0086 -0.5828
  895PF6-    F515283   2.820   0.949   2.221  0.0216 -0.0581 -0.0408
  895PF6-    F615284   2.618   0.842   2.210  0.5483  0.3656  0.1219
  895PF6-    F715285   2.865   0.886   2.009  0.4012  0.0119  0.6663
  896PF6-    P115286   0.454   2.779   1.621 -0.2107 -0.1400  0.3039
  896PF6-    F215287   0.342   2.885   1.583  0.5841 -0.4367 -0.6863
  896PF6-    F315288   0.562   2.672   1.670 -0.4951 -0.9762  0.6562
  896PF6-    F415289   0.505   2.876   1.732 -0.4544 -0.1028  0.5632
  896PF6-    F515290   0.402   2.676   1.506 -0.3105  0.1158  0.0022
  896PF6-    F615291   0.557   2.840   1.516 -0.1354 -0.4628  0.1071
  896PF6-    F715292   0.346   2.710   1.724  0.0304  0.1348 -0.1995
  897PF6-    P115293   4.967   4.795   1.500 -0.2295  0.3741 -0.1325
  897PF6-    F215294   5.002   4.911   1.604 -0.3631 -0.5879 -0.6052
  897PF6-    F315295   4.944   4.674   1.392 -0.2498 -0.5566  0.6629
  897PF6-    F415296   5.088   4.701   1.556 -0.4969  0.0862  0.1774
  897PF6-    F515297   4.849   4.887   1.444 -0.2735  0.0990  0.3158
  897PF6-    F615298   5.068   4.863   1.396 -0.1813  0.3041 -0.1958
  897PF6-    F715299   4.862   4.730   1.601  0.2623  0.3730 -0.6978
  898PF6-    P115300   0.657   5.028   2.624  0.4032  0.1239 -0.3546
  898PF6-    F215301   0.506   5.042   2.689 -0.1039 -0.2147 -0.2778
  898PF6-    F315302   0.808   5.017   2.571 -0.2000  0.0197  0.0875
  898PF6-    F415303   0.686   5.175   2.671 -0.3959  0.0405  0.2891
  898PF6-    F515304   0.624   4.879   2.579 -0.3298  0.1287  0.0891
  898PF6-    F615305   0.596   5.083   2.484 -0.2110 -0.1777 -0.2020
  898PF6-    F715306   0.714   4.972   2.766  0.0135 -0.0072  0.3077
  899PF6-    P115307   3.065   4.697   4.178  0.1713 -0.1112 -0.2451
  899PF6-    F215308   3.161   4.763   4.285 -0.0445  0.0161 -0.6524
  899PF6-    F315309   2.973   4.629   4.069  0.4573  0.5693 -0.3816
  899PF6-    F415310   3.062   4.831   4.089 -0.4930 -0.0894  0.0727
  899PF6-    F515311   3.065   4.565   4.274  0.2757  0.5101  0.5216
  899PF6-    F615312   2.941   4.756   4.263  0.1475  0.0382  0.4609
  899PF6-    F715313   3.198   4.642   4.099  0.0277  0.4125 -0.1004
  900PF6-    P115314   4.445   4.311   0.391 -0.1696  0.5068  0.0773
  900PF6-    F215315   4.588   4.261   0.448  0.2201 -0.0043 -0.2598
  900PF6-    F315316   4.303   4.366   0.325  0.4342 -0.4154  0.0863
  900PF6-    F415317   4.381   4.165   0.404  0.0297 -0.0522 -0.2862
  900PF6-    F515318   4.501   4.461   0.369  0.1645  0.3125  0.1557
  900PF6-    F615319   4.497   4.268   0.244  0.4989 -0.1835 -0.3787
  900PF6-    F715320   4.396   4.348   0.542  0.2459  0.2314  0.1705
  901PF6-    P115321   3.177   5.366   1.467  0.5843  0.5380 -0.4667
  901PF6-    F215322   3.017   5.374   1.441 -0.8718  0.3628 -0.2606
  901PF6-    F315323   3.338   5.359   1.495 -0.0442 -0.4587 -0.0433
  901PF6-    F415324   3.202   5.307   1.315  0.0531 -0.2019  0.3111
  901PF6-    F515325   3.156   5.426   1.612  0.2487 -0.3049 -0.1080
  901PF6-    F615326   3.159   5.220   1.530  0.2962  0.2692  0.1439
  901PF6-    F715327   3.196   5.517   1.418  0.9070 -0.1344  0.0913
  902PF6-    P115328   2.452   0.036   1.193 -0.3222 -0.0454  0.0929
  902PF6-    F215329   2.362  -0.068   1.100  0.2822 -0.5539 -0.2050
  902PF6-    F315330   2.542   0.127   1.285  0.4323 -0.5275  0.1963
  902PF6-    F415331   2.413  -0.058   1.322 -0.1107 -0.3404  0.2056
  902PF6-    F515332   2.484   0.122   1.060  0.1158 -0.2081  0.5460
  902PF6-    F615333   2.330   0.132   1.228  0.3664 -0.2502  0.0853
  902PF6-    F715334   2.579  -0.050   1.160  0.1412 -0.0297 -0.2496
  903PF6-    P115335   4.036   1.053   3.870 -0.0397 -0.1008 -0.2236
  903PF6-    F215336   4.121   1.087   4.007  1.1636 -0.8092  0.0777
  903PF6-    F315337   3.952   1.008   3.735 -0.4312  0.5492 -0.8177
  903PF6-    F415338   4.129   0.919   3.857  0.1268 -0.1447 -0.0281
  903PF6-    F515339   3.948   1.181   3.888 -0.0978  0.3674 -0.4466
  903PF6-    F615340   4.139   1.148   3.785 -0.2753 -0.2895  0.1984
  903PF6-    F715341   3.931   0.967   3.954 -0.3197 -0.0704 -0.3210
  904PF6-    P115342   3.430   0.346   2.921  0.1939 -0.2556  0.6651
  904PF6-    F215343   3.277   0.388   2.944 -0.0020 -0.1114 -0.2735
  904PF6-    F315344   3.582   0.301   2.908 -0.2735  0.7240 -0.1522
  904PF6-    F415345   3.425   0.370   2.759 -0.0602  0.0184  0.1400
  904PF6-    F515346   3.443   0.320   3.074  0.3710 -0.4359 -0.4076
  904PF6-    F615347   3.383   0.193   2.906 -0.3269  0.1943 -0.1788
  904PF6-    F715348   3.475   0.498   2.941 -0.1715  0.0647 -0.6809
  905PF6-    P115349   3.350   2.774   2.389  0.1376  0.0286 -0.1789
  905PF6-    F215350   3.234   2.887   2.362 -0.0851  0.5782 -0.1007
  905PF6-    F315351   3.476   2.678   2.422 -0.1381  0.0556 -0.2512
  905PF6-    F415352   3.247   2.645   2.372 -0.1916 -0.2396  0.1868
  905PF6-    F515353   3.454   2.897   2.400 -0.6016  0.0224  0.6707
  905PF6-    F615354   3.326   2.788   2.549 -0.5055 -0.1166 -0.2980
  905PF6-    F715355   3.379   2.769   2.234 -0.1577  0.1049  0.7111
  906PF6-    P115356   1.103   4.016   2.720 -0.1861  0.3699 -0.0702
  906PF6-    F215357   1.151   3.858   2.728  0.2501 -0.3572  0.2460
  906PF6-    F315358   1.061   4.174   2.711 -0.0081  0.0107 -0.3468
  906PF6-    F415359   0.954   3.969   2.731  0.2712  0.0822  0.0611
  906PF6-    F515360   1.259   4.054   2.701  0.6167  0.2110  0.2779
  906PF6-    F615361   1.098   4.004   2.558 -0.1766 -0.0894  0.1314
  906PF6-    F715362   1.116   4.025   2.881 -0.7828 -0.8863 -0.0345
  907PF6-    P115363   4.599   4.550   4.755 -0.2089 -0.1546 -0.2862
  907PF6-    F215364   4.578   4.626   4.901  0.3228 -0.3611 -0.0576
  907PF6-    F315365   4.629   4.474   4.615 -0.2904 -0.2031 -0.0341
  907PF6-    F415366   4.447   4.575   4.721  0.4138 -0.1514  0.4899
  907PF6-    F515367   4.753   4.526   4.793 -0.6813  0.2098 -0.5173
  907PF6-    F615368   4.550   4.410   4.822 -0.0032 -0.0407 -0.2231
  907PF6-    F715369   4.635   4.691   4.689  0.3752 -0.1611  0.1484
  908PF6-    P115370   3.347   1.128   3.281 -0.0166 -0.1814  0.3185
  908PF6-    F215371   3.285   1.140   3.134 -0.0241 -0.0928  0.0853
  908PF6-    F315372   3.418   1.134   3.430  0.1746 -0.5756  0.2505
  908PF6-    F415373   3.248   1.004   3.319 -0.1325 -0.2677 -0.2739
  908PF6-    F515374   3.444   1.251   3.241  0.1935 -0.2494  0.0991
  908PF6-    F615375   3.241   1.232   3.339 -0.4979 -0.1881  0.2810
  908PF6-    F715376   3.455   1.026   3.225  0.0942 -0.0717 -0.2892
  909PF6-    P115377   4.449   2.812   1.628  0.1512  0.1573 -0.1148
  909PF6-    F215378   4.431   2.843   1.473 -0.6759 -0.4383 -0.0306
  909PF6-    F315379   4.468   2.776   1.787 -0.0672 -0.5219  0.1956
  909PF6-    F415380   4.602   2.857   1.623 -0.0955  0.1579  0.3220
  909PF6-    F515381   4.297   2.770   1.649  0.4801 -0.6616 -0.1764
  909PF6-    F615382   4.488   2.660   1.590  0.1221  0.6510  0.0953
  909PF6-    F715383   4.409   2.961   1.672  0.4933 -0.1350 -0.1064
  910PF6-    P115384   0.062   1.103   4.540  0.5370 -0.2901  0.2335
  910PF6-    F215385  -0.096   1.120   4.574  0.0928 -0.1272 -0.5263
  910PF6-    F315386   0.222   1.090   4.522  0.4471 -0.0048  0.6823
  910PF6-    F415387   0.094   1.210   4.656 -0.3906  0.1897 -0.5655
  910PF6-    F515388   0.030   0.985   4.428  0.2565 -0.1943  0.3138
  910PF6-    F615389   0.057   1.212   4.425 -0.3782 -0.4119 -0.0357
  910PF6-    F715390   0.069   0.987   4.648  0.3466 -0.0086  0.3243
  911PF6-    P115391   2.288   1.188   4.523  0.5776  0.4002  0.0663
  911PF6-    F215392   2.417   1.181   4.432 -0.8127 -0.3579 -0.2028
  911PF6-    F315393   2.149   1.199   4.611  0.5716  0.1970 -0.0033
  911PF6-    F415394   2.209   1.081   4.425  0.3081  0.2528 -0.1262
  911PF6-    F515395   2.363   1.289   4.621  0.8224  0.1984  0.3734
  911PF6-    F615396   2.233   1.307   4.431  0.9491 -0.6016 -0.5725
  911PF6-    F715397   2.338   1.070   4.622 -0.0523  0.0516  0.0732
  912PF6-    P115398   5.322   2.508   2.211  0.2489 -0.0063  0.3188
  912PF6-    F215399   5.311   2.564   2.361 -0.2297  0.2664  0.4634
  912PF6-    F315400   5.311   2.459   2.060 -0.6293 -0.4707 -0.3295
  912PF6-    F415401   5.467   2.448   2.235  0.6271 -0.2340  0.0110
  912PF6-    F515402   5.176   2.575   2.183  0.3361  0.1279 -0.1525
  912PF6-    F615403   5.394   2.641   2.159 -0.1079 -0.5649 -0.4080
  912PF6-    F715404   5.257   2.371   2.259 -0.1331  0.3574 -0.1256
  913PF6-    P115405   5.307   0.525   2.012 -0.3030 -0.5278  0.2175
  913PF6-    F215406   5.253   0.489   1.870  0.4335  0.0245 -0.0510
  913PF6-    F315407   5.362   0.563   2.155 -0.3816 -0.2082 -0.0860
  913PF6-    F415408   5.440   0.443   1.977  0.4647 -0.3136 -0.3404
  913PF6-    F515409   5.172   0.604   2.044  0.0709 -0.3614  0.6173
  913PF6-    F615410   5.238   0.397   2.070  0.1801  0.2171 -0.5852
  913PF6-    F715411   5.379   0.657   1.946 -0.1383  0.3161 -0.4767
  914PF6-    P115412   5.297   4.277   0.459 -0.6054 -0.1110  0.1600
  914PF6-    F215413   5.322   4.420   0.394  0.6836 -0.0461  0.2182
  914PF6-    F315414   5.275   4.133   0.518 -0.0689 -0.1014 -0.3630
  914PF6-    F415415   5.145   4.313   0.488  1.0083  0.4473 -0.1959
  914PF6-    F515416   5.452   4.244   0.433  0.3245 -0.6426  0.1822
  914PF6-    F615417   5.335   4.335   0.603 -0.3718 -0.2334 -0.2771
  914PF6-    F715418   5.261   4.220   0.314 -0.1365 -0.0336  0.3981
  915PF6-    P115419   0.077   1.691   3.483  0.3778 -0.4111 -0.0430
  915PF6-    F215420   0.064   1.676   3.326  0.2465 -0.0604  0.2253
  915PF6-    F315421   0.089   1.707   3.637 -0.5952 -0.1910 -0.2004
  915PF6-    F415422   0.068   1.528   3.502  0.3851 -0.2274 -0.4657
  915PF6-    F515423   0.084   1.850   3.468 -0.3121 -0.2891 -0.1822
  915PF6-    F615424  -0.082   1.703   3.507  0.0842  0.1531 -0.2868
  915PF6-    F715425   0.232   1.688   3.475 -0.2023 -0.2241  0.0902
  916PF6-    P115426   1.393   1.584   4.837  0.2760 -0.1262  0.3280
  916PF6-    F215427   1.312   1.540   4.707 -0.2415  0.0236 -0.0787
  916PF6-    F315428   1.481   1.625   4.965 -0.1272  0.2430  0.1650
  916PF6-    F415429   1.260   1.655   4.898  0.1577 -0.1023  0.1477
  916PF6-    F515430   1.520   1.518   4.784 -0.5458 -0.0793  0.6758
  916PF6-    F615431   1.431   1.720   4.761  0.4270 -0.0153  0.3546
  916PF6-    F715432   1.360   1.446   4.909 -0.2939 -0.4122 -0.3193
  917PF6-    P115433   0.967   3.692   0.951  0.1632  0.4187 -0.1687
  917PF6-    F215434   1.078   3.797   0.996 -0.3462 -0.1413 -0.0550
  917PF6-    F315435   0.859   3.586   0.893  0.4007 -0.1052 -0.0104
  917PF6-    F415436   0.857   3.813   0.925 -0.0947 -0.2890  0.0644
  917PF6-    F515437   1.073   3.575   0.974  0.1876  0.4159  0.0600
  917PF6-    F615438   0.911   3.664   1.100  0.0673 -0.2072  0.0499
  917PF6-    F715439   1.031   3.711   0.804  0.2909  0.3735  0.1446
  918PF6-    P115440   0.108   0.476   3.555  0.3716 -0.4560  0.4358
  918PF6-    F215441   0.042   0.442   3.696  0.4325  0.1646  0.0185
  918PF6-    F315442   0.178   0.514   3.412 -0.3637 -0.3454 -0.1892
  918PF6-    F415443   0.067   0.629   3.570 -0.1239  0.0737 -0.2291
  918PF6-    F515444   0.158   0.326   3.533  0.0862 -0.9044  0.0532
  918PF6-    F615445  -0.027   0.444   3.474  0.3715  0.1265 -0.4276
  918PF6-    F715446   0.248   0.513   3.630 -0.4634  0.3911  0.3840
  919PF6-    P115447   3.486   4.561   1.700 -0.0836 -0.1883  0.0724
  919PF6-    F215448   3.468   4.719   1.675  0.0139 -0.3890  0.5018
  919PF6-    F315449   3.503   4.413   1.728  0.0443  0.5180  0.6787
  919PF6-    F415450   3.424   4.533   1.555  0.2202 -0.1753  0.5625
  919PF6-    F515451   3.541   4.592   1.844 -0.2967  0.3433 -0.0356
  919PF6-    F615452   3.333   4.564   1.760 -0.0930 -0.2901  0.2879
  919PF6-    F715453   3.631   4.573   1.640 -0.1061  0.3199 -0.1680
  920PF6-    P115454   1.285   2.410   2.554  0.0717 -0.1601  0.3294
  920PF6-    F215455   1.394   2.306   2.503 -0.0625  0.0850  0.0389
  920PF6-    F315456   1.168   2.516   2.602 -0.3262 -0.4735  0.6172
  920PF6-    F415457   1.384   2.530   2.517  0.4256 -0.0500  0.0674
  920PF6-    F515458   1.193   2.288   2.595  0.2303  0.3060  0.2286
  920PF6-    F615459   1.352   2.413   2.702  0.1096  0.0138  0.5820
  920PF6-    F715460   1.220   2.410   2.411  0.3205  0.0336  0.5546
  921Na+     N115461   5.387   0.304   5.446 -0.0440  0.0491  0.2571
  922Na+     N115462   1.254   2.790   3.175 -0.1536  0.1977  0.0429
  923Na+     N115463   3.210   5.460   2.317  1.1805  0.3094 -0.2858
  924Na+     N115464   2.493   5.063   1.838 -0.3351 -0.1313 -0.1345
  925Na+     N115465   1.887   5.272   3.687 -0.1832 -0.1774 -0.1120
  926Na+     N115466   2.074   4.500   5.459  0.2581  0.2389 -0.2216
  927Na+     N115467   2.616   3.115   5.222 -0.4492  0.1872  0.0103
  928Na+     N115468   2.115   0.536   4.726 -0.6131 -0.2656  0.4228
  929Na+     N115469   3.464   3.253   2.914 -0.0609  0.2375 -0.1317
  930Na+     N115470   3.788   0.644   3.471 -0.0877  0.6009 -0.2330
  931Na+     N115471   4.556   5.364   4.759  0.0230  0.3013  0.0956
  932Na+     N115472   0.602   1.612   4.697  0.1319 -0.4088 -0.0512
  933Na+     N115473   1.076   1.249   1.733 -0.3174 -0.4008 -0.6626
  934Na+     N115474   4.755   4.247   5.430 -0.2541 -0.0271  0.0414
  935Na+     N115475   2.539   2.947   3.794  0.0869  0.2766 -0.1471
  936Na+     N115476   4.679   0.066   2.810  0.7948  0.4108 -0.0467
  937Na+     N115477   3.685   3.910   1.522  0.2480 -0.0967 -0.0983
  938Na+     N115478   1.029   0.493   3.373  0.6065 -0.0549 -0.1088
  939Na+     N115479   3.289   3.620   3.634 -0.2447 -0.3064  0.5969
  940Na+     N115480   5.022   5.488   1.503  0.6707 -0.8571  0.5498
  941Na+     N115481   2.997   4.275   1.109  0.0966 -0.0637 -0.1419
  942Na+     N115482   4.662   0.942   2.152  0.4949 -0.2989 -0.1353
  943Na+     N115483   3.321   2.444   4.617  0.1464  0.3785  0.1022
  944Na+     N115484   0.071   4.819   2.176  0.0299  0.0123  0.4108
  945Na+     N115485   0.129   2.780   4.360 -0.4421 -0.1685 -0.0072
  946Na+     N115486   0.552   1.160   3.474 -0.2230  0.5793  0.1927
  947Na+     N115487   1.871   0.186   0.357  0.6647 -0.1459 -0.2912
  948Na+     N115488   3.815   2.416   3.266  0.0857 -0.0059  0.8081
  949Na+     N115489   3.892   3.039   1.934  0.0532 -0.0120  0.3099
  950Na+     N115490   1.644   5.324   1.159 -0.4574 -0.5967  0.3494
  951Na+     N115491   0.986   3.728   0.392 -0.2761 -0.1018 -0.0540
  952Na+     N115492   1.882   1.950   2.675 -0.3743  0.2376  0.8177
  953Na+     N115493   1.899   1.843   0.880 -0.2527 -0.2313  0.0681
  954Na+     N115494   0.682   3.113   2.620  0.3339  0.6616  0.3414
  955Na+     N115495   0.478   4.507   0.620 -0.1578 -0.2955 -0.3050
  956Na+     N115496   3.319   5.258   3.788  0.2630 -0.5116 -0.2809
  957Na+     N115497   3.773   4.582   4.828 -0.4953  0.3240 -0.1487
  958Na+     N115498   4.976   1.883   3.825  0.0531  0.1335  0.2916
  959Na+     N115499   0.370   0.953   5.230 -0.0550  0.2226 -0.5053
  960Na+     N115500   1.024   5.375   0.445  0.3496 -0.4380 -0.2073
  961Na+     N115501   3.716   4.586   2.072  0.4027 -0.7105  0.2843
  962Na+     N115502   3.051   0.432   0.977 -0.2059 -0.1386 -0.1415
  963Na+     N115503   1.022   1.893   0.930 -0.2810 -0.3297  0.4683
  964Na+     N115504   0.062   5.252   4.696 -0.3574  0.0440 -0.2429
  965Na+     N115505   2.887   1.253   1.485 -0.3219 -0.2286 -0.2276
  966Na+     N115506   2.601   3.361   2.029 -0.1756 -0.4477  0.7393
  967Na+     N115507   5.153   4.576   0.832  0.1342 -0.0973  0.0048
  968Na+     N115508   0.386   1.015   1.954 -0.2591 -0.0604  0.0275
  969Na+     N115509   1.011   4.615   3.192  0.0689 -0.3522  0.0610
  970Na+     N115510   0.617   4.206   5.160  0.1604  0.0374 -0.1425
  971Na+     N115511   2.726   1.996   2.776 -0.0777 -0.4010 -0.0523
  972Na+     N115512   1.291   2.319   4.746 -0.2814 -0.3715 -0.0390
  973Na+     N115513   4.282   4.966   0.010 -0.1113  0.4703 -0.1490
  974Na+     N115514   2.919   5.283   0.701 -0.2152  0.7740  0.2283
  975Na+     N115515   2.822   1.718   3.557  0.1102 -0.0007 -0.1966
  976Na+     N115516   5.232   2.900   1.557 -0.0180  0.1277  0.4535
  977Na+     N115517   3.741   0.825   2.646 -0.1468 -0.2061  0.1410
  978Na+     N115518   1.176   4.920   4.857  0.1137  0.0738 -0.3465
  979Na+     N115519   0.645   3.483   3.503 -0.2108 -0.1149 -0.4198
  980Na+     N115520   4.010   2.213   1.355 -0.2900  0.2306  0.6557
  981Na+     N115521   5.031   1.073   5.105  0.0679 -0.3128 -0.3101
  982Na+     N115522   4.892   3.196   3.429 -0.1546  0.2479 -0.0903
  983Na+     N115523   3.366   1.401   4.623  0.4420 -0.3115 -0.2641
  984Na+     N115524   4.578   1.935   0.158 -0.5849  0.0986 -0.2375
  985Na+     N115525   0.314   3.329   1.103 -0.0816 -0.0091 -0.0290
  986Na+     N115526   2.945   0.245   4.326 -0.0307 -0.1937  0.3565
  987Na+     N115527   4.177   1.075   1.383 -0.0728  0.0403 -0.2719
  988Na+     N115528   1.589   3.805   3.948 -0.5213 -0.4565 -0.3587
  989Na+     N115529   1.017   0.056   2.471 -0.2425  0.3018 -0.4791
  990Na+     N115530   1.544   2.445   1.848 -0.1368  0.4688 -0.0262
  991Na+     N115531   4.016   1.366   3.267  0.3604  0.2977 -0.4997
  992Na+     N115532   1.796   3.840   2.654 -0.0805 -0.4852 -0.8701
  993Na+     N115533   0.694   2.175   2.727 -0.0924 -0.3431  0.3039
  994Na+     N115534   1.513   3.598   5.132 -0.4034  0.6215 -0.0556
  995Na+     N115535   0.319   4.808   3.100 -0.1475  0.3477  0.0089
  996Na+     N115536   3.937   0.691   4.528 -0.2234 -0.0521  0.2387
  997Na+     N115537   3.156   4.151   0.228 -0.3298 -0.6146 -0.2746
  998Na+     N115538   2.969   2.061   1.896  0.1285 -0.4259  0.4598
  999Na+     N115539   2.124   3.540   0.411 -0.0592 -0.0101 -0.2653
 1000Na+     N115540   4.586   5.034   2.061  0.2510  0.0961  0.5650
 1001Na+     N115541   0.462   4.149   4.339 -0.4250  0.1123 -0.5503
 1002Na+     N115542   0.612   1.219   0.515 -0.4721  0.2563 -0.1350
 1003Na+     N115543   2.834   2.084   0.802 -0.4459  0.3672  0.2872
 1004Na+     N115544   4.289   0.203   0.682  0.1598  0.6046 -0.4170
 1005Na+     N115545   4.735   4.021   4.167 -0.1139  0.2006 -0.0750
 1006Na+     N115546   2.739   4.396   2.947 -0.0854  0.1920 -0.5350
 1007Na+     N115547   3.836   4.511   0.748  0.5663  0.2112  0.1422
 1008Na+     N115548   3.633   5.438   1.562 -0.6755  0.2516  0.4554
 1009Na+     N115549   3.055   0.766   0.338 -0.1170  0.0322  0.1432
 1010Na+     N115550   1.117   4.177   1.855 -0.2728  0.0015  0.4077
 1011Na+     N115551   2.113   1.481   5.163 -0.0608 -0.0931  0.3566
 1012Na+     N115552   2.905   4.322   2.055 -0.2580  0.5483 -0.0028
 1013Na+     N115553   2.052   1.076   2.081  0.0244 -0.0943 -0.1386
 1014Na+     N115554   3.558   0.133   0.115  0.3738 -0.2219  0.0992
 1015Na+     N115555   2.917   4.762   4.916  0.1474 -0.1666 -0.0704
 1016Na+     N115556   4.372   3.403   2.553 -0.4274  0.1425 -0.3108
 1017Na+     N115557   2.327   5.212   0.025 -0.5060 -0.5264 -0.1030
 1018Na+     N115558   1.693   1.374   4.217  0.1450  0.2734 -0.0904
 1019Na+     N115559   2.869   0.838   2.764 -0.1176  0.0764  0.0869
 1020Na+     N115560   1.139   2.977   1.779  0.0095 -0.0494 -0.1048
   5.50134   5.50134   5.50134
