DG-THF-PF6-Na    Amber RESP
15560
    1DG      C1    1   2.000   5.245   4.583  0.4188  0.0085 -0.3026
    1DG      C2    2   1.959   5.010   5.222 -0.0255 -0.2975  0.1429
    1DG      H3    3   2.098   5.250   4.542 -0.8883  0.5777  0.7391
    1DG      H4    4   1.991   5.317   4.662  0.0035 -2.0031  0.5676
    1DG      H5    5   1.924   5.288   4.508 -0.5247  0.4166 -2.9692
    1DG      H6    6   1.887   5.097   5.236  1.5963  2.1950 -2.8601
    1DG      H7    7   1.948   4.939   5.298 -1.7552  1.4383 -0.9267
    1DG      H8    8   2.055   5.047   5.228 -2.7960  0.7207  3.6531
    1DG      O9    9   1.950   5.131   4.652 -0.5797  0.0166 -0.2455
    1DG     O10   10   1.918   4.938   5.098 -0.3296 -0.4654 -0.0961
    1DG     C11   11   2.015   5.008   4.601 -0.2693  0.5625 -0.2622
    1DG     C12   12   2.014   4.848   5.056 -0.0382 -0.0022 -0.0629
    1DG     H13   13   2.126   5.019   4.582  0.0021 -1.7247  0.6414
    1DG     H14   14   1.965   4.993   4.507  0.6849 -0.7743 -0.6729
    1DG     H15   15   2.005   4.757   5.108  3.1634 -1.1463  0.9404
    1DG     H16   16   2.111   4.896   5.057 -2.5528  0.2630  1.7230
    1DG     C17   17   1.981   4.883   4.690 -0.2788 -0.1116  0.2619
    1DG     C18   18   1.994   4.806   4.910 -0.7787  0.1208 -0.5916
    1DG     O19   19   2.016   4.914   4.820  0.1098 -0.4805 -0.0189
    1DG     H20   20   2.051   4.808   4.665  0.8342  3.0745  0.3799
    1DG     H21   21   1.880   4.843   4.675 -0.7239  1.5394  0.7055
    1DG     H22   22   2.063   4.730   4.877 -0.8171  3.3885  1.3152
    1DG     H23   23   1.897   4.758   4.903  0.7844 -1.3108  0.4792
    2DG      C1   24   4.497   4.108   2.224 -0.6832  0.2540  0.3116
    2DG      C2   25   4.986   3.695   2.814  0.4019 -0.2022  0.6733
    2DG      H3   26   4.427   4.104   2.303  1.5725  0.2888 -2.0757
    2DG      H4   27   4.491   4.040   2.136  3.2995 -2.3876 -2.7308
    2DG      H5   28   4.485   4.208   2.183  0.5818  0.3394 -1.2459
    2DG      H6   29   4.915   3.707   2.892  1.8259  0.9221 -1.2726
    2DG      H7   30   4.985   3.592   2.784  0.6482 -0.4983  1.3821
    2DG      H8   31   5.079   3.726   2.850 -1.3074 -3.9161  1.2359
    2DG      O9   32   4.632   4.116   2.272  0.2668  0.9877 -0.1586
    2DG     O10   33   4.944   3.780   2.706  0.1280  0.0593  0.2637
    2DG     C11   34   4.667   3.998   2.340 -0.2604  0.6384 -1.0539
    2DG     C12   35   5.026   3.776   2.590  0.2510 -0.5631  0.2568
    2DG     H13   36   4.668   3.916   2.267  2.0550 -0.1396 -1.6301
    2DG     H14   37   4.596   3.966   2.417  0.5728  1.7375 -0.6143
    2DG     H15   38   4.986   3.691   2.535  3.1206  2.6228 -0.9402
    2DG     H16   39   5.127   3.770   2.626  1.4715  2.0902 -1.3030
    2DG     C17   40   4.809   4.011   2.403 -0.2449  0.4368 -0.0989
    2DG     C18   41   4.997   3.903   2.507 -0.0563  0.3550  0.6686
    2DG     O19   42   4.873   3.889   2.439  0.0749  0.0189 -0.2306
    2DG     H20   43   4.797   4.079   2.491 -0.8202 -0.0491 -0.1059
    2DG     H21   44   4.869   4.064   2.328  0.0876  0.8977 -0.6660
    2DG     H22   45   4.989   3.992   2.567 -0.2791 -0.4954 -1.1095
    2DG     H23   46   5.077   3.907   2.433 -1.3654  2.7359 -0.2968
    3DG      C1   47   2.612   4.628   0.803 -0.6696  0.2294 -0.8199
    3DG      C2   48   2.877   3.964   1.316 -0.1441  0.2425  0.1237
    3DG      H3   49   2.528   4.563   0.816 -0.5898  2.0565 -1.8870
    3DG      H4   50   2.605   4.660   0.700  2.3424 -1.7829  0.7510
    3DG      H5   51   2.616   4.718   0.866  1.7244 -0.3831  0.4248
    3DG      H6   52   2.902   3.857   1.307 -0.4156 -1.6488  2.4564
    3DG      H7   53   2.959   4.003   1.378 -0.7426 -0.2555 -1.2739
    3DG      H8   54   2.778   3.966   1.369 -1.1034  1.6710 -1.2253
    3DG      O9   55   2.741   4.557   0.817  0.1541 -0.5727  0.4142
    3DG     O10   56   2.882   4.012   1.181 -0.4925 -0.2517 -0.0247
    3DG     C11   57   2.758   4.497   0.942 -0.2562  0.4395  0.3434
    3DG     C12   58   2.888   4.150   1.175  0.4058  0.6772 -0.8200
    3DG     H13   59   2.678   4.430   0.967  0.2461 -0.6699 -1.0428
    3DG     H14   60   2.773   4.575   1.016  1.2814  1.6845 -1.3768
    3DG     H15   61   2.974   4.188   1.228 -0.4402 -0.6436  1.0539
    3DG     H16   62   2.796   4.187   1.219 -1.2467 -1.2736  3.3353
    3DG     C17   63   2.887   4.415   0.924 -0.3756  0.0324  0.2166
    3DG     C18   64   2.906   4.198   1.033  0.1442  0.4185 -0.3538
    3DG     O19   65   2.918   4.344   1.044  0.2989  0.4060 -0.6435
    3DG     H20   66   2.968   4.492   0.908  3.2681  2.9363 -0.9062
    3DG     H21   67   2.879   4.353   0.840 -0.4260  0.1902 -0.7582
    3DG     H22   68   2.995   4.146   0.981  3.3371 -0.6283  0.2732
    3DG     H23   69   2.814   4.173   0.976 -2.0060 -1.0023  1.0518
    4DG      C1   70   1.604   1.962   4.031 -0.0478 -0.6469 -0.2401
    4DG      C2   71   1.497   2.348   3.539  0.2617 -0.7171 -0.6524
    4DG      H3   72   1.648   1.856   4.032  2.7261 -2.0172 -0.7010
    4DG      H4   73   1.559   1.961   4.127  2.4217  1.0156 -1.8729
    4DG      H5   74   1.694   2.028   4.018  0.2553 -2.2856  0.7537
    4DG      H6   75   1.431   2.401   3.611  0.4575  0.3966  1.0775
    4DG      H7   76   1.596   2.371   3.572 -1.5236 -1.3432  3.2774
    4DG      H8   77   1.486   2.373   3.437  2.7122  5.2839  2.6177
    4DG      O9   78   1.510   2.002   3.926 -0.1283  0.8646 -0.4821
    4DG     O10   79   1.476   2.213   3.559 -0.3775  0.0403 -0.1459
    4DG     C11   80   1.385   1.949   3.928  0.2273  0.1799  0.0730
    4DG     C12   81   1.344   2.180   3.523 -0.6041  0.7033  0.4124
    4DG     H13   82   1.330   2.012   3.996 -2.4014 -1.9458  2.0944
    4DG     H14   83   1.399   1.848   3.976 -2.7057  1.0058 -1.2772
    4DG     H15   84   1.331   2.192   3.417 -1.3007 -5.5387  4.4938
    4DG     H16   85   1.266   2.241   3.572 -0.6568 -0.6712 -0.8954
    4DG     C17   86   1.307   1.946   3.788  0.2632  0.7592  0.1347
    4DG     C18   87   1.319   2.038   3.572 -0.1913  0.2851 -0.0312
    4DG     O19   88   1.345   2.060   3.710  0.5902 -0.4131 -0.0570
    4DG     H20   89   1.201   1.941   3.806 -0.0580  0.7080  2.2837
    4DG     H21   90   1.334   1.858   3.731  2.7510  1.2700  0.3167
    4DG     H22   91   1.220   1.993   3.559  0.6502  0.2728  1.6338
    4DG     H23   92   1.390   1.966   3.535  0.1007  1.3906  0.5587
    5DG      C1   93   1.544   2.526   0.749 -0.3482  0.7739  0.4519
    5DG      C2   94   1.341   2.274   0.126  0.3062  0.5449  0.4237
    5DG      H3   95   1.522   2.571   0.661  1.6503  1.2039  2.9659
    5DG      H4   96   1.649   2.549   0.773  0.0265  2.0921 -1.5547
    5DG      H5   97   1.476   2.560   0.823  2.7174 -0.0494 -0.8715
    5DG      H6   98   1.238   2.298   0.136  2.8428 -0.1806 -0.0942
    5DG      H7   99   1.379   2.364   0.090  0.2687 -2.8689 -2.2816
    5DG      H8  100   1.361   2.192   0.051 -0.9074  0.3530 -1.8471
    5DG      O9  101   1.530   2.391   0.731  0.1658  0.2738  0.0043
    5DG     O10  102   1.413   2.246   0.246  0.2594  0.1116  0.2786
    5DG     C11  103   1.634   2.326   0.665  0.1441 -0.0141 -0.5728
    5DG     C12  104   1.361   2.133   0.320 -0.0253  0.7467 -0.5024
    5DG     H13  105   1.711   2.303   0.730 -2.5430 -1.6909  1.7904
    5DG     H14  106   1.673   2.377   0.573 -1.2667  1.1845 -1.1772
    5DG     H15  107   1.339   2.046   0.261 -0.0997  0.0972 -1.1965
    5DG     H16  108   1.269   2.157   0.369  1.5319 -1.7632 -1.7142
    5DG     C17  109   1.580   2.188   0.621  0.8586 -0.3811 -0.5844
    5DG     C18  110   1.447   2.100   0.439 -0.3530 -1.2689 -0.2930
    5DG     O19  111   1.493   2.216   0.507  0.7004  0.2964 -0.4456
    5DG     H20  112   1.524   2.122   0.691 -1.2130  0.6975 -2.1368
    5DG     H21  113   1.663   2.132   0.577  0.0425  0.2078 -2.2716
    5DG     H22  114   1.400   2.039   0.513 -1.3666  2.0864  2.0415
    5DG     H23  115   1.536   2.039   0.405 -0.2407  0.4080 -2.2835
    6DG      C1  116   0.631   3.035   4.532 -0.0601  0.3611  0.2358
    6DG      C2  117   0.728   2.866   5.127  0.1792  0.0553 -0.3725
    6DG      H3  118   0.533   3.057   4.546  4.1001  2.4938  2.2300
    6DG      H4  119   0.627   2.925   4.527 -1.7013  1.1760  3.4210
    6DG      H5  120   0.665   3.086   4.440 -2.6090  1.8697  1.4792
    6DG      H6  121   0.626   2.911   5.127 -0.4612  2.8521 -1.7774
    6DG      H7  122   0.727   2.762   5.097  0.8883 -2.0736 -2.7359
    6DG      H8  123   0.748   2.868   5.238 -1.7698 -0.7834 -2.0302
    6DG      O9  124   0.703   3.077   4.646 -0.5307  0.4813  0.4682
    6DG     O10  125   0.822   2.939   5.047 -0.8144  0.3532  0.0613
    6DG     C11  126   0.710   3.216   4.681 -0.2067 -0.2632  0.0707
    6DG     C12  127   0.862   3.061   5.107 -0.5563  0.3713 -0.2326
    6DG     H13  128   0.608   3.252   4.705  2.8004  1.3433 -1.1897
    6DG     H14  129   0.737   3.257   4.588  0.2666  3.4304 -1.2071
    6DG     H15  130   0.942   3.047   5.177  1.6810 -0.7834 -0.1280
    6DG     H16  131   0.777   3.103   5.166 -2.3569 -1.5421  0.2021
    6DG     C17  132   0.816   3.242   4.789 -0.0516  1.1223 -0.1416
    6DG     C18  133   0.901   3.161   4.998 -0.0859 -0.0161  0.6194
    6DG     O19  134   0.805   3.147   4.895  0.6176  0.0734  0.3434
    6DG     H20  135   0.815   3.347   4.831  2.3887  1.0252 -1.2750
    6DG     H21  136   0.912   3.234   4.743 -1.5544 -0.5715 -0.4045
    6DG     H22  137   0.927   3.261   5.031 -2.1536  1.8959 -0.0213
    6DG     H23  138   0.996   3.120   4.954 -1.7071 -1.9102  2.4086
    7DG      C1  139   5.140   3.812   4.527  0.9734  0.1911  0.1348
    7DG      C2  140   4.504   4.124   4.190 -0.2308  0.0116  0.5795
    7DG      H3  141   5.191   3.716   4.518 -1.9287  0.1313 -1.0017
    7DG      H4  142   5.043   3.801   4.582  1.0331  4.3352 -1.3788
    7DG      H5  143   5.200   3.876   4.597  2.4720  0.7048  0.8414
    7DG      H6  144   4.484   4.206   4.122 -1.8300  5.8197  2.4647
    7DG      H7  145   4.420   4.051   4.176 -3.1587 -1.6288  0.6828
    7DG      H8  146   4.503   4.163   4.299  2.3829 -1.5279  0.9354
    7DG      O9  147   5.138   3.874   4.398  0.3009  0.4193  0.0016
    7DG     O10  148   4.637   4.070   4.179  0.6515 -0.5412  0.3787
    7DG     C11  149   5.076   3.798   4.301  0.1407  0.0920 -0.7244
    7DG     C12  150   4.745   4.141   4.236  0.3671  0.1603  0.2593
    7DG     H13  151   4.982   3.746   4.343 -0.5398  0.5313  0.3995
    7DG     H14  152   5.146   3.713   4.270 -0.8037 -0.7556 -2.4764
    7DG     H15  153   4.742   4.120   4.342 -1.3978  1.3526 -2.3043
    7DG     H16  154   4.751   4.252   4.227  2.7779 -0.5744 -0.1230
    7DG     C17  155   5.019   3.889   4.190 -0.4583  0.5192 -0.1225
    7DG     C18  156   4.874   4.084   4.176 -0.0206  0.6521  0.2402
    7DG     O19  157   4.899   3.956   4.241 -0.5525 -0.5618  0.0785
    7DG     H20  158   4.997   3.836   4.096 -1.0095 -0.5441 -0.4829
    7DG     H21  159   5.094   3.965   4.166 -0.7855  2.2725 -1.4007
    7DG     H22  160   4.871   4.095   4.070 -0.5767 -0.2245  0.3010
    7DG     H23  161   4.956   4.152   4.208  1.7725 -0.3249  2.1953
    8DG      C1  162   2.039   3.981   0.824 -0.3322 -0.0453  0.5219
    8DG      C2  163   2.233   3.618   1.329  0.0997 -0.9145 -0.2015
    8DG      H3  164   1.948   3.953   0.875 -2.5576 -1.1566 -2.6176
    8DG      H4  165   2.016   3.994   0.718 -0.9546 -0.0857  0.7710
    8DG      H5  166   2.056   4.078   0.862 -2.2996  0.1508  2.6986
    8DG      H6  167   2.263   3.678   1.412 -1.8879 -0.7419 -0.1191
    8DG      H7  168   2.131   3.600   1.329  0.0514  0.2181  0.9491
    8DG      H8  169   2.291   3.522   1.344  1.8107 -2.9002  1.4984
    8DG      O9  170   2.144   3.887   0.849  0.7408  0.0826  0.1890
    8DG     O10  171   2.270   3.661   1.200 -0.8011 -0.4414  0.2391
    8DG     C11  172   2.270   3.931   0.804  1.2968  0.1257  0.4076
    8DG     C12  173   2.400   3.722   1.192 -0.5030 -0.1849 -0.1775
    8DG     H13  174   2.287   4.022   0.857 -0.1207  1.7099 -1.7350
    8DG     H14  175   2.270   3.954   0.699 -2.3164 -0.1067 -0.5709
    8DG     H15  176   2.476   3.672   1.255  2.3767 -0.1867 -1.2812
    8DG     H16  177   2.389   3.818   1.234 -0.7236 -0.8710 -1.5471
    8DG     C17  178   2.374   3.824   0.841 -0.3058  0.4723 -0.5872
    8DG     C18  179   2.444   3.734   1.047  0.6061  0.0656 -0.1270
    8DG     O19  180   2.348   3.808   0.979  0.5697 -0.0770  0.6339
    8DG     H20  181   2.479   3.846   0.822 -0.2350 -0.0770 -5.0744
    8DG     H21  182   2.352   3.734   0.781  2.6835  0.3380 -1.8330
    8DG     H22  183   2.550   3.780   1.042  1.2079 -1.0610 -0.2691
    8DG     H23  184   2.454   3.636   0.999  0.5921 -0.0249  1.6753
    9DG      C1  185   3.667   1.412   2.172  0.1272  0.2404  0.6904
    9DG      C2  186   3.754   1.744   1.402 -0.1119  0.5320  0.4532
    9DG      H3  187   3.589   1.488   2.182  2.4439  0.3506 -1.9536
    9DG      H4  188   3.692   1.376   2.266 -0.6375  1.1046 -1.0676
    9DG      H5  189   3.622   1.325   2.117  1.0485 -1.5999  1.9453
    9DG      H6  190   3.796   1.842   1.381  0.8710  0.6263 -0.2410
    9DG      H7  191   3.791   1.674   1.325 -1.2301 -1.6453 -1.3167
    9DG      H8  192   3.641   1.752   1.392 -2.0168  0.4665 -0.9387
    9DG      O9  193   3.787   1.450   2.108 -0.0368 -0.3048 -0.2495
    9DG     O10  194   3.779   1.682   1.523  0.3851  0.2865  0.1272
    9DG     C11  195   3.783   1.442   1.964 -0.4778  0.6287 -0.2477
    9DG     C12  196   3.917   1.650   1.552  0.0853  0.9718 -0.1820
    9DG     H13  197   3.692   1.477   1.924  0.1712 -0.2814  1.8515
    9DG     H14  198   3.798   1.346   1.921 -1.0156 -0.6008 -1.6731
    9DG     H15  199   3.985   1.721   1.511 -1.4463 -2.9151  2.6305
    9DG     H16  200   3.941   1.549   1.503 -1.2026 -2.6406  3.3832
    9DG     C17  201   3.894   1.529   1.909 -0.0590  1.0037 -0.2472
    9DG     C18  202   3.946   1.641   1.708  0.1291  0.9473 -0.1601
    9DG     O19  203   3.871   1.539   1.768 -0.2991 -0.6153  0.1783
    9DG     H20  204   3.994   1.487   1.925  1.6108  1.3230  0.1548
    9DG     H21  205   3.910   1.631   1.959  0.3892  5.8965 -0.7501
    9DG     H22  206   4.051   1.613   1.716 -1.5454  2.5025 -0.4164
    9DG     H23  207   3.921   1.741   1.751 -0.5309  0.2828  2.2713
   10DG      C1  208   2.220   3.712   3.080 -0.0355 -0.2312  0.2205
   10DG      C2  209   2.537   3.080   2.939 -0.2947  0.1153  0.2951
   10DG      H3  210   2.176   3.774   2.998  4.2323 -1.7271 -4.1751
   10DG      H4  211   2.320   3.757   3.087  1.3546  0.5016 -0.6790
   10DG      H5  212   2.157   3.731   3.163  0.1402  0.2537 -1.1974
   10DG      H6  213   2.581   2.993   2.890 -0.6563 -0.3835  0.3436
   10DG      H7  214   2.624   3.145   2.962 -0.4222 -0.7399 -0.4465
   10DG      H8  215   2.483   3.059   3.033 -0.1248 -2.6269  0.6469
   10DG      O9  216   2.224   3.580   3.031 -0.0243 -0.1053  0.0130
   10DG     O10  217   2.450   3.136   2.861  0.1506 -0.2041 -0.3900
   10DG     C11  218   2.309   3.576   2.920  0.0571  0.2162 -0.7015
   10DG     C12  219   2.517   3.198   2.749 -0.4047  0.0794  0.3067
   10DG     H13  220   2.406   3.623   2.934 -1.5746  0.5021  1.1340
   10DG     H14  221   2.254   3.633   2.833 -0.0621  0.2551  0.0365
   10DG     H15  222   2.517   3.123   2.666 -1.9215  1.4989 -1.1969
   10DG     H16  223   2.620   3.235   2.764  2.1317 -2.8118  0.3634
   10DG     C17  224   2.337   3.436   2.876  0.8694  0.1514  0.5409
   10DG     C18  225   2.420   3.309   2.694 -0.1198 -0.2211 -0.3663
   10DG     O19  226   2.419   3.435   2.761 -0.5609 -0.0796  0.4170
   10DG     H20  227   2.248   3.387   2.848  1.5436  2.5963 -0.6121
   10DG     H21  228   2.389   3.394   2.969  0.5418 -1.8330  1.9822
   10DG     H22  229   2.465   3.324   2.597  1.0145 -0.5590  2.8075
   10DG     H23  230   2.325   3.259   2.677  1.0034  0.7999 -1.2112
   11DG      C1  231   3.343   2.363   2.733 -0.3838 -0.6141  0.1681
   11DG      C2  232   3.540   2.935   3.327 -0.0517 -0.0276  0.9085
   11DG      H3  233   3.270   2.295   2.709  4.3382 -2.2402  1.0807
   11DG      H4  234   3.434   2.313   2.780  1.0289 -0.4820  2.6883
   11DG      H5  235   3.388   2.414   2.647  0.8862  1.7867  1.0263
   11DG      H6  236   3.489   2.954   3.418 -0.7405 -0.6562 -2.2491
   11DG      H7  237   3.638   2.986   3.327  0.0996  0.8392 -0.2253
   11DG      H8  238   3.483   2.984   3.247 -0.0201 -0.3546 -1.2741
   11DG      O9  239   3.292   2.458   2.819  0.6268  0.0886  0.8584
   11DG     O10  240   3.577   2.803   3.316  0.3267  0.6813  0.4799
   11DG     C11  241   3.397   2.518   2.887 -0.0809 -0.5715 -0.1068
   11DG     C12  242   3.461   2.720   3.325  0.3945 -0.3520 -0.1632
   11DG     H13  243   3.433   2.576   2.803  0.1375 -0.0485 -0.1974
   11DG     H14  244   3.471   2.454   2.928  3.6125  3.6613 -1.8911
   11DG     H15  245   3.405   2.744   3.417  1.0174 -1.5928 -0.9416
   11DG     H16  246   3.493   2.612   3.344 -1.0071  0.7486 -1.5699
   11DG     C17  247   3.337   2.612   2.999  0.0083  0.4279 -0.1711
   11DG     C18  248   3.365   2.712   3.204  0.4365 -0.3047  0.1458
   11DG     O19  249   3.425   2.634   3.103 -0.4185  0.2769  0.1452
   11DG     H20  250   3.241   2.564   3.032 -1.6195 -2.0614  0.3183
   11DG     H21  251   3.310   2.702   2.953  1.6669  1.6537 -0.5942
   11DG     H22  252   3.268   2.669   3.234 -0.0289 -0.1886 -0.3669
   11DG     H23  253   3.337   2.815   3.170 -0.8101 -0.3194 -1.3076
   12DG      C1  254   5.376   1.992   3.926 -0.4811  0.5175 -0.9827
   12DG      C2  255   4.870   1.708   3.481 -0.2730  0.4528  0.1707
   12DG      H3  256   5.343   1.936   3.837 -1.3141  2.5951  0.5633
   12DG      H4  257   5.397   1.916   3.995  1.6556  1.2045  1.3354
   12DG      H5  258   5.473   2.051   3.919 -1.1480  0.9135 -2.1750
   12DG      H6  259   4.765   1.687   3.456 -1.5255 -0.8945 -0.0742
   12DG      H7  260   4.915   1.718   3.381 -1.0950 -0.2897 -0.2967
   12DG      H8  261   4.898   1.623   3.535 -1.9661  0.6707  0.4832
   12DG      O9  262   5.268   2.077   3.983  0.0324 -0.0707 -0.0418
   12DG     O10  263   4.864   1.813   3.573  0.4359 -0.2784 -0.6492
   12DG     C11  264   5.206   2.171   3.894  0.4914 -0.4227 -0.0128
   12DG     C12  265   4.986   1.842   3.638  0.1245 -0.4698 -0.0264
   12DG     H13  266   5.277   2.188   3.816 -0.1141  1.0246  1.3449
   12DG     H14  267   5.201   2.262   3.953 -0.8363  0.1438  2.2372
   12DG     H15  268   5.066   1.842   3.556  0.2054 -1.0210 -0.8365
   12DG     H16  269   5.005   1.768   3.713  0.6158  0.0143 -1.6576
   12DG     C17  270   5.065   2.127   3.850 -0.3186 -0.6886  0.1234
   12DG     C18  271   4.968   1.980   3.696 -0.5554 -0.1805 -0.7322
   12DG     O19  272   5.090   2.013   3.768  0.6746  0.1338  0.2990
   12DG     H20  273   5.016   2.201   3.783 -3.4287 -2.0295  0.9816
   12DG     H21  274   4.990   2.107   3.928  0.8572 -1.0582 -0.8704
   12DG     H22  275   4.968   2.063   3.626  1.6561 -3.5481 -1.0878
   12DG     H23  276   4.874   1.992   3.760 -2.9163 -0.9646  0.2210
   13DG      C1  277   2.189   4.751   3.450  0.0525 -0.6077 -0.3065
   13DG      C2  278   2.222   4.210   4.099 -0.3418  0.0931  0.3548
   13DG      H3  279   2.084   4.720   3.448  1.6973 -0.2264  2.3872
   13DG      H4  280   2.214   4.787   3.346  2.7515  2.1813 -2.0978
   13DG      H5  281   2.203   4.840   3.509  0.0665 -2.7178 -0.9920
   13DG      H6  282   2.253   4.276   4.179  0.0308  0.3364  1.5026
   13DG      H7  283   2.117   4.202   4.107  1.1170  1.4647 -0.2195
   13DG      H8  284   2.277   4.125   4.130 -0.9115  2.2258 -1.6025
   13DG      O9  285   2.278   4.645   3.488 -0.5009 -0.5987  0.1675
   13DG     O10  286   2.257   4.273   3.977  0.2052  0.0222 -0.3766
   13DG     C11  287   2.267   4.598   3.622  0.5844  0.0467 -0.3364
   13DG     C12  288   2.399   4.289   3.959 -0.2174 -0.0871 -0.5277
   13DG     H13  289   2.160   4.607   3.647  0.8301 -0.2312  3.9435
   13DG     H14  290   2.304   4.669   3.691 -1.7558  0.7249 -1.4697
   13DG     H15  291   2.465   4.202   3.976  1.4242 -2.7687 -0.0231
   13DG     H16  292   2.426   4.371   4.022  0.1772 -2.0423 -2.7026
   13DG     C17  293   2.348   4.472   3.645 -0.2865  0.5042  0.1146
   13DG     C18  294   2.406   4.334   3.817  0.2650 -0.8845 -0.1954
   13DG     O19  295   2.304   4.420   3.768 -0.0361  0.0487  0.1078
   13DG     H20  296   2.449   4.499   3.634 -0.1787 -0.6792  1.5258
   13DG     H21  297   2.335   4.400   3.564  1.7366  0.9651 -0.6083
   13DG     H22  298   2.497   4.386   3.817 -0.0741  2.3613  0.2143
   13DG     H23  299   2.406   4.246   3.751  2.2245  1.2451  1.0010
   14DG      C1  300   1.957   3.542   3.321 -0.5811  0.1970  0.6010
   14DG      C2  301   2.242   2.687   3.261  0.2381 -0.1026  0.3452
   14DG      H3  302   1.897   3.533   3.411 -1.0662  1.8816  0.5942
   14DG      H4  303   1.904   3.609   3.258 -0.3919 -0.0659  1.7364
   14DG      H5  304   2.056   3.587   3.339 -0.5544  0.1243  2.2188
   14DG      H6  305   2.142   2.641   3.253 -0.8922  4.1354 -1.8494
   14DG      H7  306   2.300   2.651   3.180 -0.1387 -0.0182  0.2747
   14DG      H8  307   2.276   2.671   3.368  0.8307 -1.0885 -0.5122
   14DG      O9  308   1.972   3.411   3.257 -0.0148 -0.3615  0.2082
   14DG     O10  309   2.229   2.827   3.242 -0.0352  0.0031  0.2921
   14DG     C11  310   2.019   3.303   3.334 -0.6956 -0.0806  0.3433
   14DG     C12  311   2.222   2.908   3.359 -0.4738 -1.1370  0.7390
   14DG     H13  312   1.945   3.281   3.419 -2.3726 -0.7293 -0.0856
   14DG     H14  313   2.115   3.334   3.382 -1.9402  0.1178  0.7874
   14DG     H15  314   2.319   2.894   3.404  0.1574 -0.5651  2.0860
   14DG     H16  315   2.147   2.883   3.438  0.1872  1.2181  2.7234
   14DG     C17  316   2.014   3.189   3.238  0.0221 -0.3195 -0.1541
   14DG     C18  317   2.203   3.058   3.325  0.0400 -0.1932 -0.1480
   14DG     O19  318   2.059   3.070   3.298 -0.2094  0.0219  0.4825
   14DG     H20  319   2.072   3.202   3.151 -0.9489 -1.4128 -0.5424
   14DG     H21  320   1.909   3.177   3.212 -2.3102 -0.6729  1.2207
   14DG     H22  321   2.219   3.131   3.420  4.6262  0.5796  4.1667
   14DG     H23  322   2.262   3.091   3.239 -1.8418 -1.5285  3.0348
   15DG      C1  323   4.177   3.899   4.893  0.6843  0.7829 -0.4200
   15DG      C2  324   4.664   3.685   4.366 -0.6357  0.1561  0.0296
   15DG      H3  325   4.128   3.806   4.908  1.6501  0.5955 -0.3741
   15DG      H4  326   4.133   3.955   4.811 -1.7023 -2.6237  0.8983
   15DG      H5  327   4.185   3.961   4.990 -0.0596  1.1939 -0.2718
   15DG      H6  328   4.767   3.658   4.325  1.7044 -0.5483 -1.1801
   15DG      H7  329   4.606   3.621   4.310 -0.7290  0.3010  2.4715
   15DG      H8  330   4.631   3.789   4.342  1.2888  1.7367  2.0733
   15DG      O9  331   4.306   3.858   4.856 -0.1966  0.1289  0.0114
   15DG     O10  332   4.639   3.654   4.503 -0.6070 -0.3263 -0.2140
   15DG     C11  333   4.374   3.771   4.944 -0.4038  0.0672  0.3907
   15DG     C12  334   4.693   3.760   4.579 -0.0729  0.0797  1.0220
   15DG     H13  335   4.335   3.667   4.930  1.4618 -2.2682  2.0155
   15DG     H14  336   4.361   3.799   5.051 -0.8859 -2.1865  0.5009
   15DG     H15  337   4.636   3.847   4.555  2.7345 -1.0628 -0.8997
   15DG     H16  338   4.796   3.776   4.559  1.2126  1.5647 -3.2948
   15DG     C17  339   4.527   3.770   4.916  0.3679  0.3891  0.0741
   15DG     C18  340   4.670   3.714   4.725  1.0644  0.1957  0.7671
   15DG     O19  341   4.541   3.743   4.779 -0.1709 -0.3828 -0.3329
   15DG     H20  342   4.573   3.689   4.972  1.4661 -0.7644  0.2672
   15DG     H21  343   4.567   3.868   4.953 -0.1750 -0.6947 -0.3674
   15DG     H22  344   4.694   3.608   4.730  0.5271 -2.0833 -3.6119
   15DG     H23  345   4.741   3.785   4.764  1.3855 -1.8467 -2.1058
   16DG      C1  346   2.593   4.599   3.374  0.1532  0.3118  0.0866
   16DG      C2  347   3.089   4.906   3.791  0.0866  0.3243  0.1369
   16DG      H3  348   2.556   4.583   3.480  0.0812  0.1917  1.3011
   16DG      H4  349   2.640   4.509   3.336  1.9538  2.0442  2.4728
   16DG      H5  350   2.515   4.617   3.306 -0.6291  0.4370  0.3229
   16DG      H6  351   3.163   4.989   3.810 -1.3619 -0.7361  1.6430
   16DG      H7  352   3.072   4.849   3.882  0.0474  2.4534  3.5897
   16DG      H8  353   3.132   4.831   3.724 -1.1669 -0.1680  0.1850
   16DG      O9  354   2.679   4.711   3.362  0.4063 -0.6250  0.0995
   16DG     O10  355   2.976   4.960   3.725 -0.0151  0.3993  0.3442
   16DG     C11  356   2.613   4.830   3.387  0.3721 -0.0926  0.7529
   16DG     C12  357   3.005   5.017   3.596 -0.2135  0.2318 -0.7784
   16DG     H13  358   2.532   4.823   3.469 -3.2983  0.8249  0.6413
   16DG     H14  359   2.558   4.859   3.295 -1.2493 -0.0071 -2.4912
   16DG     H15  360   3.044   4.942   3.536  0.1595  0.9934  1.2158
   16DG     H16  361   3.068   5.107   3.599 -2.9641  2.0722  1.5262
   16DG     C17  362   2.708   4.946   3.392 -0.0113  0.6860  0.0515
   16DG     C18  363   2.868   5.059   3.535  0.2318  0.5924  1.2769
   16DG     O19  364   2.795   4.936   3.509 -0.1864  0.1739 -0.6237
   16DG     H20  365   2.652   5.043   3.386 -2.1572  3.4614 -1.2983
   16DG     H21  366   2.780   4.955   3.313 -2.4462 -0.8662 -0.6466
   16DG     H22  367   2.810   5.122   3.603  0.8240  2.5949  0.3723
   16DG     H23  368   2.897   5.122   3.444  2.9255  2.0833 -0.2977
   17DG      C1  369   5.349   5.395   3.910  0.9362  0.3516  0.0868
   17DG      C2  370   5.510   6.170   3.676  0.1924 -0.4832  0.2364
   17DG      H3  371   5.443   5.395   3.967  1.1209  1.5578  3.0536
   17DG      H4  372   5.365   5.365   3.799  0.8437 -1.3553 -1.1929
   17DG      H5  373   5.302   5.316   3.965 -0.2034  0.5231  0.1379
   17DG      H6  374   5.447   6.246   3.717 -0.1994  1.4479  1.1225
   17DG      H7  375   5.616   6.210   3.698  0.1486  0.0428 -0.3832
   17DG      H8  376   5.496   6.179   3.560  1.3712  2.9819 -2.5925
   17DG      O9  377   5.287   5.516   3.935  0.2199 -0.7402  0.4123
   17DG     O10  378   5.496   6.035   3.718  0.6172  0.1078 -0.2673
   17DG     C11  379   5.325   5.621   3.854  0.3579  0.1787 -0.4324
   17DG     C12  380   5.497   6.029   3.859 -0.1041  0.2744  0.1257
   17DG     H13  381   5.296   5.604   3.752 -0.0252  1.1037  2.7423
   17DG     H14  382   5.430   5.628   3.871 -0.7865 -1.2115 -2.1186
   17DG     H15  383   5.428   6.097   3.910  0.8489 -3.2075 -1.9162
   17DG     H16  384   5.601   6.054   3.883  0.2481  0.6031 -3.0991
   17DG     C17  385   5.264   5.752   3.910 -0.5964  0.9236  0.1703
   17DG     C18  386   5.458   5.889   3.901 -0.0330 -0.4142  0.1793
   17DG     O19  387   5.320   5.871   3.867  0.0833 -0.2170 -0.3992
   17DG     H20  388   5.258   5.754   4.020 -0.8496  1.4196 -1.3592
   17DG     H21  389   5.156   5.755   3.876  0.1014  4.0665  2.6050
   17DG     H22  390   5.529   5.830   3.857  0.8289  2.5150  1.6849
   17DG     H23  391   5.463   5.876   4.008 -0.9982 -0.6069  3.2808
   18DG      C1  392   5.011   5.044   2.518 -0.1742 -0.1682 -0.0990
   18DG      C2  393   5.755   4.985   2.247 -0.5190  0.1819  0.9727
   18DG      H3  394   5.000   4.959   2.453 -1.4376  1.3128  3.2915
   18DG      H4  395   4.945   5.135   2.501 -1.0464  0.5681  0.0648
   18DG      H5  396   4.985   5.013   2.617 -0.1595  0.6027 -1.9116
   18DG      H6  397   5.839   5.009   2.306  0.8100  1.7459  1.6157
   18DG      H7  398   5.788   4.939   2.147  1.5476  1.1525 -0.6977
   18DG      H8  399   5.699   5.077   2.219  2.0183  1.1927  2.1845
   18DG      O9  400   5.146   5.094   2.528 -0.4019 -0.0882 -0.1271
   18DG     O10  401   5.678   4.895   2.328  0.1996  0.2731  0.4019
   18DG     C11  402   5.246   5.005   2.570 -0.0412 -0.1930 -0.1289
   18DG     C12  403   5.557   4.846   2.272 -0.5553  0.1789  0.1141
   18DG     H13  404   5.221   4.934   2.659  1.1819  0.0814 -0.1927
   18DG     H14  405   5.322   5.065   2.621  0.3964 -1.8392  0.6633
   18DG     H15  406   5.566   4.773   2.188 -1.1916 -3.3177 -1.2338
   18DG     H16  407   5.513   4.934   2.225 -0.1186  0.5302 -2.0244
   18DG     C17  408   5.309   4.927   2.452  0.3231  0.2993  0.3069
   18DG     C18  409   5.477   4.773   2.376  1.4779 -0.2790 -0.1658
   18DG     O19  410   5.433   4.862   2.484  0.0416  0.1116  0.8179
   18DG     H20  411   5.316   5.003   2.370  0.8947 -0.6307  1.4314
   18DG     H21  412   5.238   4.843   2.430 -1.4558 -1.5322 -0.9723
   18DG     H22  413   5.390   4.715   2.348  0.5839  1.8222  0.7007
   18DG     H23  414   5.536   4.695   2.424 -2.3658  2.0299  0.2315
   19DG      C1  415   3.148   3.279   4.400  0.4995 -0.1889 -0.2191
   19DG      C2  416   3.255   2.989   5.013 -0.7789  0.8297 -0.2182
   19DG      H3  417   3.142   3.387   4.425  0.3487  1.3257  0.4739
   19DG      H4  418   3.089   3.263   4.304  1.7640  1.0210 -1.5315
   19DG      H5  419   3.248   3.250   4.382 -1.4545  3.0963 -1.6701
   19DG      H6  420   3.254   3.040   5.106 -1.8885 -2.0521 -2.9486
   19DG      H7  421   3.235   2.891   5.051 -0.7533 -1.6520 -2.6681
   19DG      H8  422   3.360   2.982   4.977 -0.7992 -3.9246 -0.6211
   19DG      O9  423   3.094   3.200   4.508  0.4123 -0.0946  0.1113
   19DG     O10  424   3.164   3.047   4.922  0.7055 -0.4282  0.4411
   19DG     C11  425   2.960   3.243   4.540 -0.3738  0.5353 -0.3373
   19DG     C12  426   3.029   3.046   4.976 -0.1281  0.0817 -0.0422
   19DG     H13  427   2.914   3.240   4.442 -0.0508  2.7008  1.7428
   19DG     H14  428   2.954   3.349   4.577  0.8797 -0.9590 -0.2112
   19DG     H15  429   3.021   3.139   5.027  1.1721 -2.1136 -0.8764
   19DG     H16  430   2.994   2.971   5.042  3.5758  1.7527 -0.8803
   19DG     C17  431   2.895   3.154   4.651  0.0621 -0.5711 -0.4337
   19DG     C18  432   2.938   3.038   4.852  0.0874 -0.3252 -0.2609
   19DG     O19  433   2.981   3.134   4.757 -1.3821  0.3439  0.0643
   19DG     H20  434   2.864   3.060   4.605  3.2270 -2.1277 -0.4307
   19DG     H21  435   2.803   3.205   4.686  1.5425 -0.5832 -2.4204
   19DG     H22  436   2.953   2.936   4.817 -1.6417  0.2033 -0.0524
   19DG     H23  437   2.834   3.069   4.873 -0.0451  0.4952 -2.5506
   20DG      C1  438   0.853   3.062   0.584 -0.0893  0.3366 -0.1637
   20DG      C2  439   1.214   2.483   0.526  0.5003  0.1924 -0.1217
   20DG      H3  440   0.752   3.069   0.544 -0.4462  1.8624 -3.0228
   20DG      H4  441   0.898   3.161   0.569 -0.3720  0.3892  0.1841
   20DG      H5  442   0.850   3.049   0.689 -1.2800 -1.2325 -2.1659
   20DG      H6  443   1.319   2.521   0.501  1.1111 -0.9802 -1.0176
   20DG      H7  444   1.210   2.488   0.638  0.4787  0.2968 -0.8558
   20DG      H8  445   1.202   2.377   0.496  0.7143  0.0476 -3.3792
   20DG      O9  446   0.920   2.954   0.522 -0.1119 -0.2256 -0.6463
   20DG     O10  447   1.112   2.563   0.474 -0.0533 -0.9347  0.7082
   20DG     C11  448   0.927   2.976   0.379  0.6119  0.0071  0.1405
   20DG     C12  449   1.116   2.563   0.329 -0.2847 -0.2418 -0.2562
   20DG     H13  450   0.989   3.069   0.348  0.5209 -1.2410 -0.8531
   20DG     H14  451   0.827   2.995   0.333  2.3875  1.2354 -1.1445
   20DG     H15  452   1.161   2.474   0.279  0.6047  1.9752 -4.8874
   20DG     H16  453   1.183   2.641   0.294 -3.1474  1.3543 -1.0462
   20DG     C17  454   0.984   2.848   0.311 -0.1352 -0.1686 -0.3870
   20DG     C18  455   0.977   2.615   0.275  0.1634 -0.2033 -0.2198
   20DG     O19  456   0.923   2.728   0.351  0.0448 -0.2664  0.4658
   20DG     H20  457   1.095   2.839   0.329  0.5568  2.4763  0.5438
   20DG     H21  458   0.988   2.854   0.204  1.2961 -0.2512 -1.5260
   20DG     H22  459   0.987   2.628   0.164 -0.8005  0.1900 -3.4593
   20DG     H23  460   0.903   2.532   0.293 -1.5847  1.0202  0.9387
   21DG      C1  461   0.983   1.979   1.830 -0.5325 -0.5222  0.3544
   21DG      C2  462   1.313   1.855   2.400 -0.3212  0.3572 -0.1887
   21DG      H3  463   0.900   1.967   1.758  1.5387 -2.4607 -0.8333
   21DG      H4  464   1.033   1.883   1.811 -1.6742 -1.0853 -0.6930
   21DG      H5  465   1.061   2.054   1.809  0.5796  0.5484  3.0355
   21DG      H6  466   1.365   1.786   2.338 -1.2594 -4.4692  2.5723
   21DG      H7  467   1.360   1.950   2.381 -1.2295  1.7639  0.7559
   21DG      H8  468   1.341   1.825   2.499  3.4034  2.0373  0.1466
   21DG      O9  469   0.957   1.966   1.966  0.1179  0.0530 -0.6301
   21DG     O10  470   1.172   1.862   2.366 -0.3172  0.2123  0.3640
   21DG     C11  471   0.880   2.075   2.014  0.4187  0.1384 -0.7841
   21DG     C12  472   1.100   1.966   2.426  0.6565 -0.2748 -0.4598
   21DG     H13  473   0.784   2.077   1.960  2.9602  0.2645 -1.6746
   21DG     H14  474   0.928   2.160   1.977  1.5464  1.3145  1.1176
   21DG     H15  475   1.150   2.062   2.413 -0.7517  0.1931 -0.7901
   21DG     H16  476   1.092   1.949   2.536  1.7896  0.0804 -1.3035
   21DG     C17  477   0.862   2.082   2.167  0.8338 -0.1984  0.1481
   21DG     C18  478   0.964   1.972   2.356  0.1374  0.2363  0.6321
   21DG     O19  479   0.984   2.039   2.225 -0.7223  0.1363  0.1849
   21DG     H20  480   0.774   2.027   2.198  1.2818 -0.2292 -1.8914
   21DG     H21  481   0.841   2.188   2.199 -0.2783  0.1541  0.9929
   21DG     H22  482   0.928   1.865   2.344 -1.2400 -0.6770  0.0338
   21DG     H23  483   0.888   2.030   2.413 -1.1202  0.8321 -1.5768
   22DG      C1  484   2.405   2.577   3.996  0.2068 -0.0130  0.0732
   22DG      C2  485   2.882   2.891   4.392 -0.6096  0.7890 -0.3218
   22DG      H3  486   2.455   2.498   3.945  1.5556 -0.6924  0.0049
   22DG      H4  487   2.420   2.672   3.945  2.9741  2.9553 -1.0730
   22DG      H5  488   2.301   2.550   3.991  2.4189  0.7273  0.1778
   22DG      H6  489   2.944   2.806   4.422 -0.9793 -0.6058  2.2167
   22DG      H7  490   2.958   2.964   4.395  0.3667 -0.3320 -0.7041
   22DG      H8  491   2.806   2.895   4.471  4.0880  0.5444  0.9943
   22DG      O9  492   2.454   2.591   4.127 -0.6501 -0.2670 -0.7597
   22DG     O10  493   2.825   2.870   4.265  0.3880  0.3104 -0.1994
   22DG     C11  494   2.394   2.688   4.208  0.1228  0.0110  0.4714
   22DG     C12  495   2.762   2.982   4.212 -0.5465 -0.1731 -0.1366
   22DG     H13  496   2.416   2.669   4.308 -1.9041 -0.8306 -2.0155
   22DG     H14  497   2.291   2.684   4.199  0.2231  1.3712  0.4862
   22DG     H15  498   2.769   2.973   4.105  2.5093  1.5491  1.3877
   22DG     H16  499   2.809   3.070   4.242 -0.8223 -0.6425  1.6897
   22DG     C17  500   2.429   2.833   4.176  0.2426  0.2430  0.3107
   22DG     C18  501   2.620   2.961   4.242  0.2579 -0.1936  0.4968
   22DG     O19  502   2.569   2.836   4.200 -0.0708 -0.4574 -0.0569
   22DG     H20  503   2.384   2.892   4.243 -0.5429 -0.4910  1.5845
   22DG     H21  504   2.404   2.860   4.069 -1.2269 -0.1515 -0.0036
   22DG     H22  505   2.597   2.984   4.347  2.9756 -0.2412  1.1410
   22DG     H23  506   2.557   3.042   4.198 -1.9534  1.8965  0.7362
   23DG      C1  507   0.734   2.272   3.131 -0.5184  0.9313 -0.0993
   23DG      C2  508   1.395   1.801   3.025  0.7841 -0.7789 -0.0504
   23DG      H3  509   0.725   2.347   3.204  1.7849  0.1153  1.7417
   23DG      H4  510   0.647   2.208   3.118  1.1142  0.5381  2.5655
   23DG      H5  511   0.749   2.329   3.042 -0.9354  1.3701 -0.3836
   23DG      H6  512   1.328   1.779   2.937 -4.2177 -1.2608  1.7823
   23DG      H7  513   1.460   1.883   3.008 -0.7967 -1.4434 -0.0514
   23DG      H8  514   1.457   1.709   3.038 -0.7281  1.2566 -1.0045
   23DG      O9  515   0.852   2.198   3.161 -0.0585 -0.0113  0.1908
   23DG     O10  516   1.313   1.820   3.136 -0.5095 -0.3304  0.0769
   23DG     C11  517   0.847   2.144   3.297  0.5160 -0.5763 -0.6443
   23DG     C12  518   1.195   1.894   3.122  0.1447  0.4394  0.8746
   23DG     H13  519   0.769   2.068   3.287  1.4029  0.3622 -1.0565
   23DG     H14  520   0.814   2.225   3.367  0.1740 -1.9530  2.3041
   23DG     H15  521   1.121   1.834   3.065 -2.9143  0.7664 -1.8045
   23DG     H16  522   1.213   1.980   3.062 -1.0854  1.8124  0.6235
   23DG     C17  523   0.983   2.092   3.339 -0.3003  0.9110 -0.5656
   23DG     C18  524   1.136   1.917   3.266  0.5228  0.1625 -0.4978
   23DG     O19  525   1.014   1.980   3.257 -0.0534  0.4073  0.1283
   23DG     H20  526   0.992   2.075   3.447 -2.3205  1.9275  0.1902
   23DG     H21  527   1.058   2.168   3.318  1.1454 -0.8085  1.6459
   23DG     H22  528   1.136   1.820   3.318  1.6451  0.7969 -2.9807
   23DG     H23  529   1.206   1.981   3.317  1.4447  0.0398 -1.5140
   24DG      C1  530   5.253   2.240   4.744  0.3484 -0.2543  1.2045
   24DG      C2  531   5.679   2.582   4.456 -0.3396 -0.0933  0.0086
   24DG      H3  532   5.345   2.240   4.677 -2.1733  1.8210 -0.8123
   24DG      H4  533   5.216   2.146   4.770 -1.1117 -0.0964 -1.8234
   24DG      H5  534   5.283   2.283   4.839  0.6303  0.8719 -0.4580
   24DG      H6  535   5.747   2.597   4.374 -0.7589  1.5455  0.8446
   24DG      H7  536   5.667   2.676   4.506  0.0244  0.4545  1.5159
   24DG      H8  537   5.708   2.515   4.536 -0.0947  0.7492  3.0349
   24DG      O9  538   5.155   2.324   4.685  0.1188  0.3503  0.0740
   24DG     O10  539   5.545   2.557   4.417 -0.4303 -0.3380 -0.4616
   24DG     C11  540   5.100   2.280   4.552 -0.5096 -0.2221 -0.6864
   24DG     C12  541   5.527   2.433   4.350  0.1276  0.1814 -0.3113
   24DG     H13  542   4.994   2.292   4.543  1.7916  2.7101 -1.0146
   24DG     H14  543   5.134   2.175   4.545  2.4769  2.6307 -0.0743
   24DG     H15  544   5.567   2.348   4.405 -2.4472  0.1187  0.1217
   24DG     H16  545   5.580   2.433   4.257 -0.1930  0.4621 -1.3121
   24DG     C17  546   5.173   2.355   4.438 -0.0894  0.2826 -0.1590
   24DG     C18  547   5.383   2.399   4.321  0.0261  0.7607  0.1963
   24DG     O19  548   5.314   2.356   4.443  0.7695 -0.2328 -0.6652
   24DG     H20  549   5.131   2.462   4.431 -1.7188  3.4261 -1.9756
   24DG     H21  550   5.151   2.297   4.340 -1.8067  1.4199 -2.3067
   24DG     H22  551   5.315   2.463   4.269 -0.7142 -2.3616 -1.4669
   24DG     H23  552   5.380   2.313   4.249 -1.0980 -1.2969  0.2862
   25DG      C1  553   5.458   1.392   2.691 -0.3722  0.1598 -0.7382
   25DG      C2  554   6.133   1.477   2.664 -0.3012 -0.7380 -0.9839
   25DG      H3  555   5.489   1.382   2.588 -0.4488  0.9390  1.7832
   25DG      H4  556   5.450   1.497   2.722  2.5903 -1.1258  0.3821
   25DG      H5  557   5.364   1.350   2.725  1.8163  0.7721 -2.5859
   25DG      H6  558   6.214   1.451   2.594  2.4644  1.7926 -0.1403
   25DG      H7  559   6.073   1.553   2.614  0.5907 -1.2935 -2.7330
   25DG      H8  560   6.172   1.528   2.754  3.0836  1.7336 -1.1355
   25DG      O9  561   5.574   1.345   2.765 -0.0474 -0.0675 -0.7138
   25DG     O10  562   6.073   1.347   2.693  0.1463  0.9244 -0.1094
   25DG     C11  563   5.593   1.206   2.751 -0.4801 -0.2079  0.0120
   25DG     C12  564   6.008   1.271   2.588 -0.1270 -0.1356 -0.3713
   25DG     H13  565   5.565   1.167   2.650  1.8108  0.1652  0.7402
   25DG     H14  566   5.529   1.159   2.823  0.3964 -2.1998  2.1441
   25DG     H15  567   6.077   1.225   2.518 -0.3590  0.9509  0.4622
   25DG     H16  568   5.950   1.327   2.520 -0.8668  2.3608 -1.0542
   25DG     C17  569   5.733   1.162   2.802  0.5080 -0.3824 -0.3219
   25DG     C18  570   5.917   1.169   2.664 -0.0284 -0.5200 -0.5097
   25DG     O19  571   5.834   1.241   2.743 -0.4761 -0.3086  0.7134
   25DG     H20  572   5.743   1.057   2.793  4.5589  1.3114  0.6049
   25DG     H21  573   5.741   1.198   2.909  0.8331 -0.6598 -2.3912
   25DG     H22  574   5.866   1.091   2.605 -0.8719 -0.1428 -1.9594
   25DG     H23  575   5.992   1.121   2.723  0.1471  0.7242  0.0593
   26DG      C1  576   1.333   3.152   2.620 -0.4754  0.3018  0.6031
   26DG      C2  577   1.793   3.270   2.924  0.0985  0.1925 -0.1435
   26DG      H3  578   1.275   3.119   2.701  2.1043 -0.0344 -1.6706
   26DG      H4  579   1.277   3.109   2.538  0.5263  1.1243  1.1473
   26DG      H5  580   1.326   3.263   2.615 -3.2629  1.0458 -0.9312
   26DG      H6  581   1.822   3.193   2.998  0.6278 -0.2296  0.6383
   26DG      H7  582   1.801   3.369   2.964  0.3796  0.4044  0.0588
   26DG      H8  583   1.694   3.245   2.904  1.6574  0.2452  2.3757
   26DG      O9  584   1.469   3.098   2.624  0.2306 -0.3313 -0.2150
   26DG     O10  585   1.889   3.257   2.818 -0.1069 -0.2066  0.0877
   26DG     C11  586   1.543   3.118   2.503  1.0775 -0.0337 -0.1322
   26DG     C12  587   1.892   3.365   2.721 -0.3798  0.3835  0.3567
   26DG     H13  588   1.490   3.124   2.409  1.6876 -1.7884 -3.0385
   26DG     H14  589   1.612   3.038   2.482 -2.2905  0.6898  0.0467
   26DG     H15  590   1.964   3.341   2.645 -0.5065  3.6671  4.4700
   26DG     H16  591   1.937   3.456   2.762 -2.6960 -1.0557 -0.9611
   26DG     C17  592   1.607   3.258   2.517  0.4268 -0.4268 -0.2119
   26DG     C18  593   1.752   3.384   2.656  0.0977  0.2273  0.1669
   26DG     O19  594   1.702   3.254   2.618  0.1871  0.2218 -0.1156
   26DG     H20  595   1.540   3.335   2.532  4.5489  3.8706  0.1655
   26DG     H21  596   1.656   3.297   2.425  0.8190  0.5119  0.2759
   26DG     H22  597   1.679   3.430   2.727  0.8535  2.3817 -1.4734
   26DG     H23  598   1.762   3.448   2.567  0.0336 -1.3317  2.0981
   27DG      C1  599   1.665   3.813   0.872 -0.3358  0.4235  0.0649
   27DG      C2  600   1.859   4.458   1.066  0.6979  0.5268 -0.6825
   27DG      H3  601   1.667   3.793   0.980  0.9398  3.5978 -0.2906
   27DG      H4  602   1.775   3.807   0.840 -1.2984  2.4251  0.6839
   27DG      H5  603   1.604   3.736   0.823 -5.0679 -0.6891  2.8293
   27DG      H6  604   1.894   4.498   1.163 -1.8558 -0.6255  3.2852
   27DG      H7  605   1.947   4.403   1.027  1.0297 -2.2408 -1.6849
   27DG      H8  606   1.823   4.530   0.999  0.7639  1.6936  1.8549
   27DG      O9  607   1.630   3.942   0.835  1.0931 -0.1334  0.5633
   27DG     O10  608   1.759   4.361   1.088 -0.4035  0.2455 -0.1016
   27DG     C11  609   1.522   3.990   0.911 -0.0312 -0.0211 -0.1815
   27DG     C12  610   1.800   4.263   1.178  0.1833 -0.0336  1.3930
   27DG     H13  611   1.439   3.920   0.900 -0.9312  2.2872 -1.6183
   27DG     H14  612   1.497   4.092   0.866  3.0682  0.1791 -3.9548
   27DG     H15  613   1.816   4.300   1.278 -1.6114 -2.0325 -1.9605
   27DG     H16  614   1.886   4.209   1.138 -2.2155  1.4877  1.7687
   27DG     C17  615   1.543   4.025   1.055  0.2450 -0.0697  0.0148
   27DG     C18  616   1.686   4.165   1.186 -0.0936 -0.3455 -0.0856
   27DG     O19  617   1.662   4.104   1.061 -0.2678 -0.3385 -0.4046
   27DG     H20  618   1.553   3.940   1.128  1.6278 -3.2240  1.1901
   27DG     H21  619   1.459   4.073   1.100  0.7088 -2.5063 -0.9734
   27DG     H22  620   1.706   4.088   1.258 -2.0681 -2.2804  0.3670
   27DG     H23  621   1.596   4.219   1.225  1.6297  0.4464  0.4901
   28DG      C1  622   3.802   4.816   1.933 -0.4835  0.0726  0.3524
   28DG      C2  623   4.013   5.001   1.205  0.9085  0.6408 -0.1982
   28DG      H3  624   3.895   4.830   1.998 -2.0632  4.0937  0.9699
   28DG      H4  625   3.804   4.717   1.899  1.2840  1.6463  0.9481
   28DG      H5  626   3.713   4.838   1.988  0.6228 -0.0864 -0.5356
   28DG      H6  627   4.010   5.109   1.175 -1.4530 -0.0144  0.5054
   28DG      H7  628   4.108   4.978   1.250  0.1275  2.0740 -1.0981
   28DG      H8  629   4.006   4.938   1.119  0.4109  1.5654  0.3583
   28DG      O9  630   3.822   4.904   1.823  0.4354  0.4138 -0.1885
   28DG     O10  631   3.909   5.016   1.290 -0.1767  0.3104  0.0871
   28DG     C11  632   3.698   4.964   1.774  0.1731  0.1931  0.3135
   28DG     C12  633   3.883   4.905   1.371  0.1262  0.0255 -0.2156
   28DG     H13  634   3.649   5.017   1.843 -0.1514 -0.0804  0.9865
   28DG     H14  635   3.646   4.867   1.747  1.3473  1.1145  0.2151
   28DG     H15  636   3.972   4.874   1.427 -0.1347 -2.2853 -2.1199
   28DG     H16  637   3.859   4.819   1.313 -1.8005  1.7854 -0.5033
   28DG     C17  638   3.720   5.062   1.665  0.4872  0.7531 -0.4167
   28DG     C18  639   3.770   4.927   1.474  0.3287 -0.0302  0.0176
   28DG     O19  640   3.823   5.021   1.570  0.1822  0.3240  0.2267
   28DG     H20  641   3.756   5.146   1.717 -2.0536  1.5504 -2.8865
   28DG     H21  642   3.633   5.092   1.614  2.0487  0.6001  3.5334
   28DG     H22  643   3.684   4.959   1.425 -2.2075 -1.1820 -0.5023
   28DG     H23  644   3.743   4.837   1.526  0.7049 -1.0354  0.8235
   29DG      C1  645   5.339   1.446   3.155  0.0751  0.0542  0.2290
   29DG      C2  646   5.322   0.612   3.312  0.2241 -0.5275 -0.7684
   29DG      H3  647   5.376   1.472   3.252 -1.0805  0.6847  0.1345
   29DG      H4  648   5.236   1.430   3.148 -0.4973  1.4921  0.8999
   29DG      H5  649   5.367   1.532   3.083  1.1410 -0.0313 -1.5279
   29DG      H6  650   5.341   0.510   3.275 -0.4520  1.5812 -1.6173
   29DG      H7  651   5.340   0.625   3.414 -1.0941 -1.5560  0.2693
   29DG      H8  652   5.216   0.626   3.314  1.8456  0.0398 -0.0846
   29DG      O9  653   5.414   1.335   3.111 -0.4007 -0.3249 -0.0781
   29DG     O10  654   5.384   0.722   3.252  0.2287 -0.6415  0.0226
   29DG     C11  655   5.408   1.222   3.193 -1.2140 -0.0732 -0.0691
   29DG     C12  656   5.345   0.745   3.120 -0.1865  0.2782  0.0121
   29DG     H13  657   5.302   1.203   3.227 -2.7513  0.5029 -4.0658
   29DG     H14  658   5.471   1.224   3.283 -0.7923  0.8753 -0.4337
   29DG     H15  659   5.237   0.747   3.108  1.3256  0.4085 -0.4921
   29DG     H16  660   5.377   0.665   3.061  0.6263 -0.2263 -1.2534
   29DG     C17  661   5.428   1.112   3.094  0.8363  0.1143 -0.1633
   29DG     C18  662   5.399   0.871   3.057  0.4600 -0.3620  0.3343
   29DG     O19  663   5.395   0.982   3.152 -0.4629 -0.1304 -0.3062
   29DG     H20  664   5.526   1.102   3.059  0.3978  0.5274  1.7570
   29DG     H21  665   5.364   1.138   3.009 -1.0692 -0.8487  0.6405
   29DG     H22  666   5.500   0.857   3.024  2.5599  1.1925  1.0897
   29DG     H23  667   5.340   0.900   2.976  1.7168 -0.1935  1.2843
   30DG      C1  668   2.038   3.615   2.524 -1.2013  0.4594 -0.2309
   30DG      C2  669   1.634   4.175   2.444 -1.1468  0.4449 -0.2851
   30DG      H3  670   2.107   3.700   2.516  0.5252 -0.8728  1.4657
   30DG      H4  671   2.010   3.588   2.421 -0.0331 -1.8606 -1.9952
   30DG      H5  672   2.079   3.524   2.577  0.8666  0.7106  2.7160
   30DG      H6  673   1.556   4.239   2.480 -2.6694  2.9900  2.8853
   30DG      H7  674   1.697   4.235   2.381  1.3433 -1.8934 -0.1447
   30DG      H8  675   1.583   4.102   2.373 -0.2031  0.6140  0.2868
   30DG      O9  676   1.926   3.668   2.589  0.0499 -0.1718 -0.0677
   30DG     O10  677   1.696   4.088   2.542 -0.2356 -0.5165  0.3389
   30DG     C11  678   1.963   3.734   2.708  0.6058  0.0912  0.8897
   30DG     C12  679   1.602   4.021   2.627  0.4601  0.4658 -0.7809
   30DG     H13  680   2.035   3.808   2.685  3.0698 -2.6807 -1.6151
   30DG     H14  681   2.013   3.665   2.781 -1.4763  0.1746 -2.2348
   30DG     H15  682   1.544   3.955   2.564  1.3773  1.6720 -0.1277
   30DG     H16  683   1.532   4.091   2.671 -1.3987 -0.6589  1.8561
   30DG     C17  684   1.842   3.785   2.780 -0.5458 -0.0579  0.0388
   30DG     C18  685   1.659   3.941   2.738  0.2182 -0.3341 -0.2536
   30DG     O19  686   1.779   3.878   2.689  0.5350 -0.2622 -0.4839
   30DG     H20  687   1.873   3.827   2.873 -0.8153 -1.3455  0.0837
   30DG     H21  688   1.785   3.694   2.807  2.6029  0.8668  2.4361
   30DG     H22  689   1.682   4.001   2.829 -2.0818 -0.0122 -0.9405
   30DG     H23  690   1.595   3.863   2.764 -1.5727  0.4870 -3.2338
   31DG      C1  691   2.263   4.601   4.176 -0.1385 -0.3681 -0.3420
   31DG      C2  692   2.674   4.389   4.762 -0.7299 -0.1035  0.1077
   31DG      H3  693   2.292   4.707   4.169 -2.0734  3.0959  0.0336
   31DG      H4  694   2.168   4.568   4.130  3.9228  0.1811 -0.9296
   31DG      H5  695   2.352   4.559   4.127  1.1259 -1.5925 -2.5410
   31DG      H6  696   2.740   4.314   4.713  2.1214 -2.1681 -0.6634
   31DG      H7  697   2.728   4.487   4.757 -1.2660  0.0774 -1.2875
   31DG      H8  698   2.679   4.366   4.873  3.3561  0.7256  2.6973
   31DG      O9  699   2.271   4.547   4.308 -0.2211 -0.0444 -0.5782
   31DG     O10  700   2.544   4.392   4.706 -0.0606  0.1431 -0.3120
   31DG     C11  701   2.192   4.620   4.400  0.3185 -0.0991 -0.2564
   31DG     C12  702   2.458   4.474   4.788  0.2599  0.0233  0.5075
   31DG     H13  703   2.102   4.621   4.345 -1.5524  2.0326 -0.2993
   31DG     H14  704   2.213   4.722   4.416  0.0656  0.7514  0.4844
   31DG     H15  705   2.502   4.576   4.802 -0.2018  2.6681  1.0745
   31DG     H16  706   2.461   4.434   4.889 -1.4464  1.2058 -3.0832
   31DG     C17  707   2.183   4.547   4.538  0.0906  0.5529  0.0009
   31DG     C18  708   2.320   4.476   4.727  1.0877  0.4010 -0.4695
   31DG     O19  709   2.309   4.556   4.608  0.0473 -0.4755  0.5938
   31DG     H20  710   2.168   4.443   4.508  1.2050 -3.1179 -1.2005
   31DG     H21  711   2.103   4.583   4.601  1.9547 -1.0561  2.2712
   31DG     H22  712   2.278   4.376   4.706 -1.2978 -1.2244 -1.5913
   31DG     H23  713   2.252   4.529   4.791 -1.8080  2.1287  0.7960
   32DG      C1  714   1.602   0.958   2.296 -0.5064 -0.5005  0.0176
   32DG      C2  715   1.937   0.349   2.338  0.1321  0.2564  0.9209
   32DG      H3  716   1.561   0.891   2.216  1.7881 -1.2476  0.0293
   32DG      H4  717   1.589   1.062   2.275 -3.0405 -3.4261 -0.5177
   32DG      H5  718   1.554   0.938   2.394 -1.2658  1.5002 -1.1433
   32DG      H6  719   2.038   0.310   2.356  0.7785  0.2015 -1.7634
   32DG      H7  720   1.886   0.298   2.421  1.2308 -1.8176 -2.5541
   32DG      H8  721   1.911   0.306   2.243 -0.1311  2.1735 -0.3243
   32DG      O9  722   1.746   0.937   2.320  0.3421  0.4626 -0.1405
   32DG     O10  723   1.933   0.490   2.344  0.0166 -0.0390 -0.3927
   32DG     C11  724   1.807   0.993   2.437  0.3633  0.1710 -0.2287
   32DG     C12  725   1.967   0.543   2.468 -0.2800 -0.8954 -0.3471
   32DG     H13  726   1.747   0.963   2.523 -1.1841  1.1314  0.4592
   32DG     H14  727   1.814   1.100   2.427 -1.3407  2.3033 -1.3585
   32DG     H15  728   2.057   0.500   2.505 -1.7203 -1.8139  0.4622
   32DG     H16  729   1.888   0.526   2.537  2.1817  0.3668 -0.5388
   32DG     C17  730   1.942   0.920   2.444  1.0637 -0.3256 -0.2779
   32DG     C18  731   2.011   0.691   2.469  0.0818  0.0733  0.9315
   32DG     O19  732   1.898   0.777   2.446 -0.3212 -0.4163 -0.2215
   32DG     H20  733   1.973   0.945   2.540 -0.4598 -1.5349  1.1796
   32DG     H21  734   2.008   0.955   2.369  0.6638  1.8856 -0.5796
   32DG     H22  735   2.060   0.710   2.569 -2.1061 -0.9947 -0.1703
   32DG     H23  736   2.087   0.717   2.402 -2.4858 -0.1293  0.9164
   33DG      C1  737   3.357   0.946   5.352  0.2757  0.3356  0.8008
   33DG      C2  738   3.150   1.453   4.801 -0.5911  0.4423 -0.3802
   33DG      H3  739   3.456   0.896   5.346  0.6612 -0.6381  0.1743
   33DG      H4  740   3.290   0.890   5.423  0.5472  0.8687  2.3797
   33DG      H5  741   3.365   1.042   5.402  0.7493 -0.0496 -0.4944
   33DG      H6  742   3.153   1.454   4.689  1.3707 -0.5569 -3.4624
   33DG      H7  743   3.046   1.449   4.831 -0.0016 -1.8822 -0.2672
   33DG      H8  744   3.214   1.538   4.843 -0.0021  0.9989  0.4714
   33DG      O9  745   3.300   0.955   5.225  0.5909  0.4760  0.2005
   33DG     O10  746   3.201   1.332   4.850  0.4222  0.1089  0.3894
   33DG     C11  747   3.400   0.989   5.125  0.0390 -0.5246  0.6356
   33DG     C12  748   3.112   1.225   4.830 -0.2047 -0.5667  0.2697
   33DG     H13  749   3.492   0.939   5.117  0.8397  2.2286 -1.2279
   33DG     H14  750   3.417   1.091   5.138  2.3167  0.0928 -1.1692
   33DG     H15  751   3.065   1.234   4.737 -0.4954  0.3528  3.4181
   33DG     H16  752   3.035   1.230   4.902 -0.9554 -0.0271  1.3147
   33DG     C17  753   3.324   0.976   4.989 -0.7123 -0.7170 -0.2929
   33DG     C18  754   3.184   1.089   4.837  0.3469  0.1741  0.3488
   33DG     O19  755   3.237   1.086   4.973 -0.0011 -0.2990 -0.8387
   33DG     H20  756   3.274   0.878   4.972 -0.0185  1.2304 -1.7026
   33DG     H21  757   3.397   1.000   4.908 -0.2013 -0.1166 -3.8116
   33DG     H22  758   3.121   0.995   4.827 -1.6866  1.3881 -3.2655
   33DG     H23  759   3.269   1.086   4.765  1.8751 -1.1256  0.0301
   34DG      C1  760   0.699   0.617   3.094  0.8905 -0.4542 -0.2672
   34DG      C2  761   0.719   0.448   3.778 -0.8490 -0.8556  0.6621
   34DG      H3  762   0.621   0.685   3.130 -1.4525 -0.0219  0.9717
   34DG      H4  763   0.661   0.605   2.988 -1.3865 -0.2434 -0.0646
   34DG      H5  764   0.794   0.658   3.102 -1.0298  1.6758 -1.3535
   34DG      H6  765   0.632   0.505   3.809  4.3480 -3.1664  0.7540
   34DG      H7  766   0.723   0.355   3.844 -0.5561 -1.7098 -1.0972
   34DG      H8  767   0.817   0.501   3.790  1.3736 -0.2029 -0.8981
   34DG      O9  768   0.680   0.497   3.173 -0.5297 -0.3841  0.1454
   34DG     O10  769   0.699   0.409   3.637 -0.0247 -0.5364  0.0885
   34DG     C11  770   0.545   0.445   3.164 -0.4982  0.2596  0.6676
   34DG     C12  771   0.591   0.309   3.636 -0.4496  0.5357 -0.0672
   34DG     H13  772   0.527   0.405   3.065 -0.3521 -1.9015  1.0242
   34DG     H14  773   0.465   0.516   3.178 -0.5849 -0.5033  1.0713
   34DG     H15  774   0.504   0.347   3.682  0.4490 -3.6176 -0.0250
   34DG     H16  775   0.629   0.220   3.697  2.5964 -2.1287 -3.0330
   34DG     C17  776   0.539   0.324   3.257 -0.1891  0.1487 -0.6271
   34DG     C18  777   0.568   0.260   3.491  0.3645 -0.3922 -0.3920
   34DG     O19  778   0.564   0.365   3.391  0.1146  0.7868  0.2547
   34DG     H20  779   0.615   0.246   3.226  0.8730 -0.2318 -0.5352
   34DG     H21  780   0.444   0.270   3.243 -2.4335  2.8790 -0.8361
   34DG     H22  781   0.644   0.195   3.453  0.8476 -1.8634  0.0335
   34DG     H23  782   0.471   0.207   3.492 -0.3174  0.4451  1.4176
   35DG      C1  783   1.841   1.539   4.199  0.0359  0.2699  0.1546
   35DG      C2  784   1.863   1.741   3.478 -0.7584  0.1853  0.0932
   35DG      H3  785   1.754   1.526   4.264  1.6364  0.3787  2.8854
   35DG      H4  786   1.921   1.562   4.264  1.1978  0.7209 -0.5677
   35DG      H5  787   1.878   1.447   4.152  0.7751 -2.4902  1.1851
   35DG      H6  788   1.880   1.639   3.444  0.9196 -0.1361  2.7741
   35DG      H7  789   1.821   1.801   3.395 -0.2355  1.8615  1.3705
   35DG      H8  790   1.963   1.776   3.492  0.1659  1.5633 -0.8161
   35DG      O9  791   1.826   1.645   4.105 -0.6618 -0.1670  1.1565
   35DG     O10  792   1.781   1.737   3.596  0.2159 -0.0517 -0.3655
   35DG     C11  793   1.950   1.667   4.039  0.1142  0.2785  0.3338
   35DG     C12  794   1.767   1.867   3.650  0.5444  0.3881 -0.0969
   35DG     H13  795   1.968   1.584   3.975 -3.8323  1.9000 -1.7708
   35DG     H14  796   2.028   1.689   4.113 -0.6004 -0.9386 -0.8741
   35DG     H15  797   1.671   1.869   3.692  1.3181 -0.3234  1.6635
   35DG     H16  798   1.777   1.948   3.583  0.6403 -2.5401 -0.0087
   35DG     C17  799   1.953   1.800   3.959 -0.2155  0.2720  0.2737
   35DG     C18  800   1.855   1.897   3.768  0.0039 -0.1420  0.0899
   35DG     O19  801   1.864   1.779   3.851  0.1098 -0.1249 -0.4265
   35DG     H20  802   2.054   1.826   3.932  0.5176  0.2311 -4.0196
   35DG     H21  803   1.924   1.886   4.008  0.2972  0.1845  0.2013
   35DG     H22  804   1.949   1.919   3.720  1.2082  1.1771 -0.6913
   35DG     H23  805   1.835   1.996   3.811 -1.8392  1.9418 -1.8397
   36DG      C1  806   0.132   1.124   1.186  0.1738 -0.7146  0.0041
   36DG      C2  807  -0.366   1.371   1.516 -0.1286 -0.6390 -0.6098
   36DG      H3  808   0.169   1.218   1.145 -0.4572 -1.9196  3.0363
   36DG      H4  809   0.165   1.037   1.132  0.8614 -0.9122 -0.4556
   36DG      H5  810   0.179   1.127   1.288 -1.0927 -2.8507 -1.4229
   36DG      H6  811  -0.338   1.464   1.457  2.1017 -0.2385 -2.3216
   36DG      H7  812  -0.461   1.379   1.562  1.8926  1.0283  0.1194
   36DG      H8  813  -0.287   1.375   1.594  3.9090  0.8257 -1.0016
   36DG      O9  814  -0.008   1.113   1.206  0.7292 -0.5594  0.6435
   36DG     O10  815  -0.358   1.248   1.455  0.3261  0.4834 -0.0694
   36DG     C11  816  -0.081   1.087   1.088 -0.5287 -0.6980  0.0995
   36DG     C12  817  -0.449   1.241   1.352  0.5179  0.1358  0.0132
   36DG     H13  818  -0.035   1.008   1.029 -0.0832  1.5724 -0.5935
   36DG     H14  819  -0.089   1.176   1.031  1.3330 -1.1348  2.3651
   36DG     H15  820  -0.444   1.326   1.283 -1.1301 -1.5749 -0.6067
   36DG     H16  821  -0.549   1.236   1.393 -0.5820 -0.3475  1.5756
   36DG     C17  822  -0.223   1.060   1.128  0.4822  0.1484  0.2096
   36DG     C18  823  -0.402   1.124   1.264 -0.1921  0.7773 -0.8984
   36DG     O19  824  -0.266   1.147   1.231  0.1066  0.1824  0.2194
   36DG     H20  825  -0.238   0.952   1.154 -0.3740  1.2953  1.8229
   36DG     H21  826  -0.285   1.085   1.038 -2.4637  0.1939  0.5165
   36DG     H22  827  -0.410   1.028   1.315  1.4004 -2.0174 -1.9449
   36DG     H23  828  -0.472   1.133   1.174 -3.6577 -1.6322 -0.6884
   37DG      C1  829   2.061   1.410   3.750 -0.3435  0.2376 -0.8283
   37DG      C2  830   1.506   1.612   3.540 -0.4727 -0.2006 -0.3322
   37DG      H3  831   2.089   1.505   3.702  0.0141 -1.8700 -0.6335
   37DG      H4  832   2.090   1.334   3.672  2.8070  0.2639  0.6009
   37DG      H5  833   2.122   1.379   3.829 -1.9246 -0.1762  1.2612
   37DG      H6  834   1.429   1.562   3.478 -0.6496 -0.8356  0.8944
   37DG      H7  835   1.452   1.698   3.578  1.9645  0.5326  0.1507
   37DG      H8  836   1.584   1.638   3.476 -2.7119 -0.5635 -0.2836
   37DG      O9  837   1.925   1.423   3.781  0.0720 -0.2864 -0.2304
   37DG     O10  838   1.553   1.527   3.638  0.3933  0.0142 -0.0906
   37DG     C11  839   1.867   1.307   3.846 -0.4882 -0.1407  0.1694
   37DG     C12  840   1.449   1.431   3.681  0.8608 -0.6431 -0.2809
   37DG     H13  841   1.938   1.278   3.933  2.1476  1.6100 -0.3607
   37DG     H14  842   1.871   1.227   3.766  0.0383 -1.0765 -2.4852
   37DG     H15  843   1.445   1.347   3.611  0.7669  0.0596 -2.6775
   37DG     H16  844   1.353   1.480   3.707 -0.1536  1.2134  0.7718
   37DG     C17  845   1.726   1.324   3.895  0.5845  0.0711  0.3815
   37DG     C18  846   1.511   1.369   3.813  0.2534  0.1501  0.5230
   37DG     O19  847   1.646   1.374   3.795  0.1950 -0.7412  0.3236
   37DG     H20  848   1.720   1.389   3.982  0.3075  0.3888  0.3472
   37DG     H21  849   1.695   1.225   3.920  0.3258  1.3679  0.9293
   37DG     H22  850   1.482   1.430   3.892 -0.0924 -0.4100 -0.8650
   37DG     H23  851   1.462   1.276   3.823  0.5629  0.0885  1.1402
   38DG      C1  852   0.429   4.848   2.623 -0.3613 -0.8401  0.0649
   38DG      C2  853   0.038   4.377   2.222  0.1264  0.2740 -0.2141
   38DG      H3  854   0.438   4.919   2.710 -2.3220 -0.8472  0.7549
   38DG      H4  855   0.382   4.892   2.529  1.1815  1.8549 -2.6645
   38DG      H5  856   0.530   4.820   2.592  1.4629 -0.2517  0.2320
   38DG      H6  857  -0.051   4.395   2.166 -0.4538 -2.9438  1.2783
   38DG      H7  858   0.121   4.440   2.190  1.9974 -1.7450  1.2778
   38DG      H8  859   0.061   4.268   2.224 -0.7626 -1.5005  1.0127
   38DG      O9  860   0.364   4.723   2.653 -0.2505 -0.2746 -0.8977
   38DG     O10  861   0.005   4.430   2.347 -0.0897  0.2152 -0.3693
   38DG     C11  862   0.231   4.750   2.696  0.0110  0.9249 -0.1771
   38DG     C12  863   0.081   4.368   2.453  0.4751 -0.3524  0.3213
   38DG     H13  864   0.181   4.819   2.630  0.0429  3.6185  0.9025
   38DG     H14  865   0.232   4.796   2.790  2.3977  2.7746 -2.2723
   38DG     H15  866   0.186   4.371   2.430 -1.0856  0.9086  2.3144
   38DG     H16  867   0.067   4.256   2.471  0.7329  2.2712 -0.1731
   38DG     C17  868   0.152   4.617   2.706 -0.1494 -0.0553  0.2518
   38DG     C18  869   0.058   4.442   2.579 -0.4031  0.1714  0.4380
   38DG     O19  870   0.141   4.558   2.574  0.3185 -0.1296 -0.5429
   38DG     H20  871   0.059   4.624   2.752 -1.6178 -2.2598  0.7593
   38DG     H21  872   0.203   4.556   2.773 -0.8240 -2.4212  1.9814
   38DG     H22  873  -0.046   4.465   2.603  1.2049 -0.3012  0.5646
   38DG     H23  874   0.091   4.382   2.663  0.3331  0.2627  1.8374
   39DG      C1  875   4.729   5.358   0.200 -0.8044 -0.0584 -1.0010
   39DG      C2  876   4.118   5.562   0.013 -0.6269  0.0360 -0.1596
   39DG      H3  877   4.724   5.256   0.233 -1.9029 -1.8855 -1.2378
   39DG      H4  878   4.699   5.409   0.284 -2.7198 -0.2854 -0.3556
   39DG      H5  879   4.831   5.394   0.168 -2.3066 -1.9307 -0.1110
   39DG      H6  880   4.135   5.633   0.096 -2.7102 -0.8476  0.4021
   39DG      H7  881   4.051   5.599  -0.053 -1.1410  0.2316  2.2222
   39DG      H8  882   4.074   5.467   0.043  0.2770  0.0726  0.7654
   39DG      O9  883   4.633   5.376   0.107 -0.2044 -0.3254 -0.3025
   39DG     O10  884   4.244   5.536  -0.037  0.0698  0.5975  0.5438
   39DG     C11  885   4.652   5.271   0.015  1.2006 -0.0742  0.3703
   39DG     C12  886   4.254   5.479  -0.171 -0.0230 -0.5926  0.1259
   39DG     H13  887   4.603   5.183   0.044 -3.4241 -0.6575 -1.3348
   39DG     H14  888   4.756   5.246  -0.016  4.0855 -1.6818  1.5903
   39DG     H15  889   4.226   5.554  -0.247  0.9932  3.0672 -0.8828
   39DG     H16  890   4.188   5.388  -0.177  3.4535  0.3909  0.3918
   39DG     C17  891   4.583   5.308  -0.121  0.0410  0.0456 -0.4005
   39DG     C18  892   4.394   5.436  -0.212 -0.8959 -0.5227 -0.1116
   39DG     O19  893   4.449   5.365  -0.103 -0.1000  0.0453  0.2137
   39DG     H20  894   4.581   5.229  -0.194  1.6371 -0.1534  1.5479
   39DG     H21  895   4.644   5.388  -0.164  0.1422 -1.0137  2.6321
   39DG     H22  896   4.379   5.379  -0.307  0.0794 -1.2180 -0.4417
   39DG     H23  897   4.445   5.530  -0.241  0.0408  1.2556 -0.5773
   40DG      C1  898   4.670   5.197   0.553  0.4421  0.0965 -0.0280
   40DG      C2  899   5.061   5.823   0.305 -0.2207 -0.1762  0.2356
   40DG      H3  900   4.621   5.150   0.635  0.7424  3.3732  0.6117
   40DG      H4  901   4.761   5.151   0.531 -0.2566  0.7300  0.9659
   40DG      H5  902   4.605   5.188   0.467  2.8883 -0.4313  2.1251
   40DG      H6  903   5.036   5.925   0.325 -0.6632 -0.3610  0.5449
   40DG      H7  904   5.164   5.804   0.284  0.6014  0.6663  0.4316
   40DG      H8  905   5.000   5.808   0.215 -0.7411  1.0961  0.5899
   40DG      O9  906   4.685   5.335   0.562 -0.3149 -0.4084  0.3138
   40DG     O10  907   5.041   5.733   0.410  0.4097  0.3215  0.6903
   40DG     C11  908   4.764   5.385   0.666 -0.4038 -0.0609 -0.1415
   40DG     C12  909   5.053   5.599   0.373  0.0695 -1.2283  0.1509
   40DG     H13  910   4.846   5.320   0.692 -0.2863 -1.8089 -0.2362
   40DG     H14  911   4.701   5.392   0.755 -1.2571 -2.8207  2.2461
   40DG     H15  912   5.160   5.569   0.362  0.9109  2.0825 -2.1188
   40DG     H16  913   4.989   5.587   0.283 -3.4608  4.3026 -2.1219
   40DG     C17  914   4.810   5.531   0.648 -0.7202  0.0318 -0.0835
   40DG     C18  915   4.992   5.515   0.482  0.0410  0.0761 -0.3283
   40DG     O19  916   4.861   5.563   0.514  0.7040  0.2439 -0.0968
   40DG     H20  917   4.882   5.554   0.720 -0.5622  1.3660 -0.5620
   40DG     H21  918   4.733   5.595   0.679  1.3834 -2.5193  0.4185
   40DG     H22  919   5.001   5.421   0.441 -0.5642  1.2883  0.8389
   40DG     H23  920   5.057   5.513   0.572  0.9549  0.3926 -1.6317
   41DG      C1  921   3.378   1.278   1.170  1.4705  0.8138 -0.4951
   41DG      C2  922   4.121   1.180   1.425  0.4556  0.3931 -0.1270
   41DG      H3  923   3.379   1.365   1.110  1.6380 -1.0403  1.3617
   41DG      H4  924   3.281   1.270   1.223  0.5320 -0.8261  1.1504
   41DG      H5  925   3.394   1.183   1.117 -3.0211 -3.0786  0.9242
   41DG      H6  926   4.096   1.160   1.321  0.6343 -1.4184  4.3725
   41DG      H7  927   4.200   1.251   1.406  2.2730 -0.9223 -1.5156
   41DG      H8  928   4.166   1.092   1.471 -0.9725 -0.3223 -2.3540
   41DG      O9  929   3.478   1.273   1.272 -0.7181  0.3059  0.7578
   41DG     O10  930   4.014   1.231   1.497  0.0265 -0.7560 -0.1494
   41DG     C11  931   3.437   1.323   1.396  0.3150 -0.2658  0.0662
   41DG     C12  932   3.891   1.177   1.465 -0.4182 -0.5099 -0.9598
   41DG     H13  933   3.367   1.245   1.436 -2.5287 -0.6555  0.9756
   41DG     H14  934   3.374   1.414   1.396 -0.7261 -1.6262  1.2706
   41DG     H15  935   3.880   1.081   1.517  1.3460 -1.9431 -2.1701
   41DG     H16  936   3.888   1.147   1.356 -1.6959 -0.2096  0.5222
   41DG     C17  937   3.556   1.345   1.487 -0.3779  1.0240  0.8996
   41DG     C18  938   3.785   1.277   1.505 -0.2320  0.1896  0.4298
   41DG     O19  939   3.658   1.246   1.453  0.6106  0.0983  0.1433
   41DG     H20  940   3.527   1.346   1.591 -1.2663  0.8758  2.3576
   41DG     H21  941   3.601   1.441   1.465 -0.9339  0.4145 -1.2072
   41DG     H22  942   3.773   1.283   1.613 -1.8223 -0.5688 -0.0786
   41DG     H23  943   3.810   1.374   1.466 -3.3567  2.8948 -0.2027
   42DG      C1  944   2.114   4.795   3.941  0.0484  0.4077 -0.3292
   42DG      C2  945   2.080   4.115   3.717 -0.8390  0.7386  0.5003
   42DG      H3  946   2.138   4.864   3.862 -0.9778 -0.8883  0.5981
   42DG      H4  947   2.214   4.751   3.966  3.7352 -2.6155 -0.8305
   42DG      H5  948   2.065   4.851   4.018 -2.0520  1.4555  1.3172
   42DG      H6  949   2.171   4.094   3.659  0.3359 -2.7266 -2.2992
   42DG      H7  950   2.099   4.078   3.821  1.0229  2.0199  2.0939
   42DG      H8  951   1.995   4.055   3.680  0.8266  1.9999 -0.7018
   42DG      O9  952   2.054   4.678   3.879  0.1584  0.1979  0.3707
   42DG     O10  953   2.045   4.250   3.716 -0.2316 -0.6247 -0.0851
   42DG     C11  954   1.933   4.712   3.816  0.4497 -0.7617  0.0475
   42DG     C12  955   2.023   4.307   3.590 -0.2807  1.1609 -0.7042
   42DG     H13  956   1.964   4.770   3.730 -1.4850  0.4813 -0.0248
   42DG     H14  957   1.871   4.777   3.876 -0.7705 -0.8666 -1.3586
   42DG     H15  958   2.010   4.235   3.513  2.3274  1.5327 -1.8205
   42DG     H16  959   2.123   4.354   3.574  0.7891  0.1875  3.9741
   42DG     C17  960   1.858   4.587   3.767 -0.2193  0.2700  0.3355
   42DG     C18  961   1.910   4.410   3.599  0.5770 -0.1511  0.2990
   42DG     O19  962   1.951   4.504   3.697 -0.1483  0.3920  0.3296
   42DG     H20  963   1.774   4.616   3.697 -3.2317 -3.5933 -1.9197
   42DG     H21  964   1.835   4.532   3.861  0.5408  0.8008 -0.3711
   42DG     H22  965   1.900   4.470   3.506 -1.5261 -1.0028 -0.1260
   42DG     H23  966   1.817   4.371   3.633  1.3876 -1.2346  1.6613
   43DG      C1  967   5.069   1.959   3.214 -0.1518  0.4595 -0.5568
   43DG      C2  968   4.642   2.360   3.124 -0.1785 -0.5300  0.5206
   43DG      H3  969   5.169   1.941   3.258 -0.3457 -2.0166  1.3566
   43DG      H4  970   5.057   1.874   3.140  0.2331  0.2915  2.2009
   43DG      H5  971   5.003   1.942   3.296  0.8802 -0.5430  0.2292
   43DG      H6  972   4.620   2.302   3.214 -0.7328 -0.8160  3.6165
   43DG      H7  973   4.594   2.454   3.141 -0.9027 -0.0306 -1.3518
   43DG      H8  974   4.585   2.317   3.043  1.7455 -0.1054 -2.1664
   43DG      O9  975   5.058   2.089   3.159 -0.3461 -0.7068 -0.2788
   43DG     O10  976   4.783   2.380   3.097  0.1157  0.1794 -0.3274
   43DG     C11  977   5.129   2.103   3.037  0.8125  0.2490 -0.0918
   43DG     C12  978   4.813   2.431   2.970 -0.5570 -1.0993  0.2623
   43DG     H13  979   5.089   2.041   2.955 -0.1636 -1.2309 -2.6283
   43DG     H14  980   5.236   2.085   3.059  1.1919  0.2941 -2.0332
   43DG     H15  981   4.778   2.538   2.968 -2.5377  1.7071  0.0923
   43DG     H16  982   4.754   2.377   2.901  0.2315  0.6485  0.4692
   43DG     C17  983   5.126   2.241   2.993  0.2505 -0.1949  0.4847
   43DG     C18  984   4.966   2.413   2.953 -0.1950 -0.3808 -0.8341
   43DG     O19  985   4.996   2.273   2.943 -0.4257  0.1151  0.1146
   43DG     H20  986   5.197   2.260   2.921  0.7998 -2.3367  0.5292
   43DG     H21  987   5.164   2.304   3.078  2.9830 -1.9503  1.0440
   43DG     H22  988   5.010   2.467   2.867 -1.5911  1.6517 -2.0468
   43DG     H23  989   5.014   2.457   3.036 -1.9224 -2.5191  0.2936
   44DG      C1  990   5.418   3.620   3.466  0.3626  0.2485 -0.3232
   44DG      C2  991   4.726   3.630   3.469  0.3472 -0.3297  0.0466
   44DG      H3  992   5.493   3.663   3.532 -2.6735 -0.8300 -0.9659
   44DG      H4  993   5.412   3.685   3.380  1.7069 -0.5776 -1.6987
   44DG      H5  994   5.432   3.522   3.427 -2.3144 -0.8425 -1.6468
   44DG      H6  995   4.640   3.685   3.508 -0.1816  0.9257  2.0808
   44DG      H7  996   4.752   3.662   3.370  2.2062 -2.1543  1.0950
   44DG      H8  997   4.703   3.520   3.477  0.3647 -1.4981  0.1937
   44DG      O9  998   5.295   3.631   3.531  0.1644  0.5847  0.2469
   44DG     O10  999   4.852   3.654   3.542  1.0727 -0.0515  0.2427
   44DG     C11 1000   5.289   3.560   3.653  0.6470 -0.3511 -0.2059
   44DG     C12 1001   4.848   3.609   3.683 -0.0742  0.0354 -0.2734
   44DG     H13 1002   5.350   3.614   3.726 -0.1416 -1.6995  0.7855
   44DG     H14 1003   5.338   3.460   3.645  3.8639 -0.7202 -1.3230
   44DG     H15 1004   4.871   3.504   3.687  1.3632  1.8986 -0.5743
   44DG     H16 1005   4.751   3.614   3.734 -1.0710 -0.9864  0.2081
   44DG     C17 1006   5.145   3.556   3.709  0.2639  0.2283 -0.6443
   44DG     C18 1007   4.954   3.699   3.753  0.0003  0.3115 -0.0127
   44DG     O19 1008   5.087   3.684   3.702 -0.4837 -0.4222  0.5974
   44DG     H20 1009   5.157   3.520   3.810  0.5043 -0.4565 -1.5191
   44DG     H21 1010   5.088   3.483   3.650 -0.9939 -0.2557 -3.0845
   44DG     H22 1011   4.934   3.803   3.735  2.2918  1.0507  0.2830
   44DG     H23 1012   4.964   3.679   3.858 -0.4100  0.2598 -0.8966
   45DG      C1 1013   0.886   3.111   1.053  0.0283  0.2485 -0.1223
   45DG      C2 1014   0.143   3.190   0.856 -0.5459  0.3577 -0.1665
   45DG      H3 1015   0.969   3.176   1.042  2.2070 -0.0381 -2.0644
   45DG      H4 1016   0.919   3.009   1.039 -0.2781  1.7267 -1.8419
   45DG      H5 1017   0.852   3.122   1.157 -0.2155  0.0171 -2.0807
   45DG      H6 1018   0.120   3.270   0.781 -1.4548 -1.2078  0.3713
   45DG      H7 1019   0.109   3.099   0.808  0.2847  0.9701 -0.6254
   45DG      H8 1020   0.085   3.209   0.946 -1.1489  2.0143 -0.7057
   45DG      O9 1021   0.797   3.143   0.955  0.0645  0.3191  0.1524
   45DG     O10 1022   0.286   3.187   0.891  0.8333  0.1315 -0.2538
   45DG     C11 1023   0.751   3.276   0.979 -0.5567 -0.9036 -0.4131
   45DG     C12 1024   0.359   3.116   0.787 -0.7915 -0.6701 -1.1633
   45DG     H13 1025   0.827   3.345   1.008 -1.1661 -1.6531  2.8765
   45DG     H14 1026   0.674   3.275   1.057  1.5770 -0.4961  4.0071
   45DG     H15 1027   0.341   3.159   0.689  0.8363 -1.6628 -3.6185
   45DG     H16 1028   0.346   3.006   0.780  0.7467 -2.9118 -3.2835
   45DG     C17 1029   0.667   3.314   0.856 -0.5355 -0.1375 -0.0998
   45DG     C18 1030   0.513   3.146   0.811  0.7777 -0.6885  0.2267
   45DG     O19 1031   0.528   3.272   0.864  0.3237 -0.3589 -0.2140
   45DG     H20 1032   0.716   3.293   0.762  0.3241  1.7805  0.1349
   45DG     H21 1033   0.665   3.421   0.859 -0.4574 -0.0378 -1.2059
   45DG     H22 1034   0.548   3.071   0.887  0.8016 -0.7675  1.4347
   45DG     H23 1035   0.572   3.124   0.718 -0.7205 -0.1174  0.7379
   46DG      C1 1036   5.254   4.697   2.851 -0.3412  0.5152 -0.6369
   46DG      C2 1037   5.984   4.693   3.080  0.1854 -0.1240  0.7567
   46DG      H3 1038   5.213   4.604   2.891 -0.3250 -0.6548 -1.5758
   46DG      H4 1039   5.301   4.681   2.755 -1.3697 -1.1358 -1.7734
   46DG      H5 1040   5.177   4.766   2.845  2.3264 -0.9653  2.5478
   46DG      H6 1041   6.071   4.747   3.060  2.4260 -3.4759  1.5396
   46DG      H7 1042   5.991   4.678   3.191 -0.1516  0.8455  1.1926
   46DG      H8 1043   5.980   4.610   3.009 -2.1275 -0.2258 -1.3043
   46DG      O9 1044   5.356   4.758   2.929 -0.2238  0.5331  0.1647
   46DG     O10 1045   5.871   4.771   3.060 -0.7123 -0.1855  0.4390
   46DG     C11 1046   5.300   4.785   3.056 -0.0582  0.3859  0.1808
   46DG     C12 1047   5.759   4.698   3.105 -0.2017 -0.4672 -0.6589
   46DG     H13 1048   5.252   4.706   3.101  0.2688  3.8436 -0.8987
   46DG     H14 1049   5.218   4.863   3.042 -3.1319  0.1209 -3.0506
   46DG     H15 1050   5.775   4.664   3.203  1.9644 -0.3309 -0.8104
   46DG     H16 1051   5.752   4.600   3.051  1.0413  0.4932 -1.3235
   46DG     C17 1052   5.415   4.828   3.152  0.3175  0.1006 -0.8538
   46DG     C18 1053   5.637   4.789   3.090 -0.3243 -0.3205 -0.1520
   46DG     O19 1054   5.520   4.732   3.141 -0.0858 -0.0658  0.4009
   46DG     H20 1055   5.394   4.838   3.259  0.2405  0.6601 -0.0663
   46DG     H21 1056   5.435   4.931   3.130  0.0293 -0.7909  1.2731
   46DG     H22 1057   5.661   4.874   3.157 -0.4075 -0.1385 -0.6548
   46DG     H23 1058   5.626   4.812   2.981 -1.6044  0.7523 -0.9626
   47DG      C1 1059   3.982   4.507   0.308  0.5335  0.1413 -0.7962
   47DG      C2 1060   4.643   4.491   0.554 -0.1688 -0.5988  0.4419
   47DG      H3 1061   3.883   4.450   0.311  0.2398  1.2476 -0.8146
   47DG      H4 1062   4.024   4.484   0.212  0.3330 -1.3110 -0.2486
   47DG      H5 1063   3.939   4.615   0.313 -0.1996  0.4799 -1.4571
   47DG      H6 1064   4.687   4.431   0.466 -0.2876  0.6201 -0.5059
   47DG      H7 1065   4.671   4.594   0.551 -4.1678  1.5432  0.9510
   47DG      H8 1066   4.708   4.449   0.636 -2.8007  0.6259 -0.7460
   47DG      O9 1067   4.069   4.473   0.416 -0.1454  0.1646  0.1054
   47DG     O10 1068   4.503   4.474   0.581 -0.1702  0.3887 -1.1972
   47DG     C11 1069   4.018   4.530   0.539  0.2799  0.0176  0.8125
   47DG     C12 1070   4.466   4.536   0.702 -0.4637 -0.5790  0.6854
   47DG     H13 1071   3.920   4.498   0.546  0.7617  1.7384 -1.5807
   47DG     H14 1072   4.016   4.641   0.534 -0.0220  1.6952 -2.0456
   47DG     H15 1073   4.465   4.642   0.680 -0.8342 -0.8065 -0.6661
   47DG     H16 1074   4.533   4.510   0.773 -1.3145 -0.3447 -4.5436
   47DG     C17 1075   4.101   4.497   0.660  0.0870 -0.3547  0.0325
   47DG     C18 1076   4.321   4.502   0.746 -0.0052 -0.7154 -0.7454
   47DG     O19 1077   4.236   4.531   0.631  0.1565 -0.4369  0.4917
   47DG     H20 1078   4.077   4.394   0.675 -1.6552  0.5330  0.2785
   47DG     H21 1079   4.069   4.545   0.753 -0.6357  0.0566  0.9727
   47DG     H22 1080   4.318   4.398   0.772  2.2541 -0.7894 -0.2243
   47DG     H23 1081   4.289   4.559   0.840 -0.2090  2.8067  0.3475
   48DG      C1 1082   4.328   2.551   2.052  0.2651 -0.6689 -0.2363
   48DG      C2 1083   4.150   1.987   1.761  0.6136 -0.3629  0.2807
   48DG      H3 1084   4.352   2.495   2.143  3.7768 -0.9293 -0.4887
   48DG      H4 1085   4.217   2.581   2.057 -0.5435  4.9243  1.5587
   48DG      H5 1086   4.383   2.647   2.070 -1.1770  3.4980 -1.7334
   48DG      H6 1087   4.157   1.972   1.869 -0.5961 -0.3164 -0.3833
   48DG      H7 1088   4.044   1.968   1.734 -2.0028 -0.7363 -1.8652
   48DG      H8 1089   4.200   1.904   1.706 -1.1583 -1.2494 -1.8918
   48DG      O9 1090   4.368   2.487   1.939 -0.2982  0.5819 -0.0175
   48DG     O10 1091   4.213   2.108   1.731 -0.5939 -0.1293  0.3248
   48DG     C11 1092   4.372   2.571   1.820 -0.1768  0.9374 -0.6649
   48DG     C12 1093   4.163   2.176   1.618 -0.0732  0.3649  0.3397
   48DG     H13 1094   4.462   2.638   1.827 -0.0157  2.2984 -2.3334
   48DG     H14 1095   4.296   2.646   1.821 -1.3863  0.2867 -0.3212
   48DG     H15 1096   4.061   2.202   1.654 -2.2726 -1.4878  0.1139
   48DG     H16 1097   4.150   2.111   1.532  1.8333  1.8760 -1.0151
   48DG     C17 1098   4.372   2.487   1.687 -0.0483  0.1903  0.8361
   48DG     C18 1099   4.263   2.293   1.583  0.1255 -0.5573  0.0698
   48DG     O19 1100   4.275   2.381   1.698 -0.1161 -0.6577 -0.3259
   48DG     H20 1101   4.477   2.456   1.670  1.3247  0.6409  1.5824
   48DG     H21 1102   4.344   2.536   1.598  1.4026 -2.6305  0.2980
   48DG     H22 1103   4.366   2.259   1.566 -1.5653 -0.0303  2.7823
   48DG     H23 1104   4.252   2.343   1.485  0.5317  0.5062 -0.3392
   49DG      C1 1105   4.918   4.163   4.573  0.5549  0.1377 -0.7205
   49DG      C2 1106   5.152   4.783   4.628 -0.3563  0.5535 -0.0217
   49DG      H3 1107   4.925   4.058   4.533  0.4294  0.0346 -0.4750
   49DG      H4 1108   4.884   4.234   4.496 -0.6285 -0.1072  1.0284
   49DG      H5 1109   4.842   4.161   4.650 -1.7189  1.4798  2.4761
   49DG      H6 1110   5.255   4.812   4.655  0.8034  2.2597 -2.3761
   49DG      H7 1111   5.116   4.860   4.554 -0.1152 -3.2739 -1.7068
   49DG      H8 1112   5.095   4.781   4.717  3.1529  1.3512 -1.6361
   49DG      O9 1113   5.041   4.211   4.627 -0.5836  0.2328  0.0593
   49DG     O10 1114   5.138   4.665   4.556 -0.4533 -0.3378 -0.0132
   49DG     C11 1115   5.152   4.175   4.555 -0.5181 -0.0237 -0.5351
   49DG     C12 1116   5.229   4.645   4.451 -0.3714  0.1181 -0.0823
   49DG     H13 1117   5.149   4.071   4.518 -2.3383 -0.5080  0.7188
   49DG     H14 1118   5.240   4.187   4.614 -0.3641 -1.0661 -0.2267
   49DG     H15 1119   5.332   4.646   4.484 -0.8727  0.8948  2.0067
   49DG     H16 1120   5.206   4.726   4.378 -3.6125 -0.2259  1.1023
   49DG     C17 1121   5.174   4.263   4.433  0.1083  0.5615 -0.2834
   49DG     C18 1122   5.210   4.501   4.385 -0.6384  0.0837 -0.4080
   49DG     O19 1123   5.187   4.396   4.480 -0.1305  0.2384  0.2536
   49DG     H20 1124   5.085   4.264   4.367  0.6291  0.0086  2.7141
   49DG     H21 1125   5.269   4.244   4.387 -0.1886  5.3818 -1.1227
   49DG     H22 1126   5.126   4.508   4.320  1.7167 -0.7956 -0.5949
   49DG     H23 1127   5.290   4.472   4.314 -2.8008  1.9867 -0.8628
   50DG      C1 1128   5.486   2.997   1.355 -0.1412 -0.1007 -0.1077
   50DG      C2 1129   5.664   2.671   0.758 -0.2661 -0.3653  0.4457
   50DG      H3 1130   5.424   3.081   1.395 -0.4393  3.4231 -0.4110
   50DG      H4 1131   5.591   2.998   1.381  1.1795  0.2261 -2.3019
   50DG      H5 1132   5.456   2.905   1.402 -1.2605 -0.0139  1.9448
   50DG      H6 1133   5.727   2.734   0.807  0.4324  2.0204  1.1829
   50DG      H7 1134   5.667   2.573   0.812 -0.6740 -1.2569  0.5464
   50DG      H8 1135   5.687   2.650   0.652  2.7358 -1.4420 -0.8928
   50DG      O9 1136   5.479   2.985   1.209  0.7351 -1.1391  0.0854
   50DG     O10 1137   5.531   2.707   0.794  0.3856  0.1747 -0.2399
   50DG     C11 1138   5.345   2.960   1.176 -0.3166  0.3699 -0.0152
   50DG     C12 1139   5.486   2.820   0.726  0.5364  0.7278  0.1563
   50DG     H13 1140   5.282   3.035   1.223  0.9766  0.0064 -1.3216
   50DG     H14 1141   5.309   2.863   1.216  1.9304  1.2841 -0.6811
   50DG     H15 1142   5.433   2.775   0.643  1.6374  0.7503 -2.0207
   50DG     H16 1143   5.564   2.881   0.683 -0.9154 -1.5293  1.6827
   50DG     C17 1144   5.315   2.966   1.027 -0.6521  0.6145 -0.1300
   50DG     C18 1145   5.387   2.902   0.807 -0.2558 -0.5872  0.5485
   50DG     O19 1146   5.422   2.924   0.942 -0.4268 -0.5553  0.0977
   50DG     H20 1147   5.299   3.076   1.008  4.0786  3.5734  0.8815
   50DG     H21 1148   5.222   2.915   1.012  1.9193  2.7281 -1.3038
   50DG     H22 1149   5.354   2.993   0.758 -2.2648  0.9682  0.4660
   50DG     H23 1150   5.290   2.849   0.809 -0.3943  1.2068 -3.4193
   51DG      C1 1151   2.372   0.178   3.193 -0.3178  0.2940  0.3388
   51DG      C2 1152   2.719   0.456   3.681  0.3134  0.4648  0.5020
   51DG      H3 1153   2.399   0.263   3.129 -0.9350  3.2357 -0.4956
   51DG      H4 1154   2.278   0.126   3.158 -1.0334  1.6264 -0.3562
   51DG      H5 1155   2.461   0.110   3.207 -0.6120 -0.7991  1.0810
   51DG      H6 1156   2.772   0.511   3.604  1.0420  2.2664  0.5901
   51DG      H7 1157   2.773   0.459   3.772 -1.9999  0.7603  0.3391
   51DG      H8 1158   2.716   0.355   3.651  1.2769 -1.3272 -0.4161
   51DG      O9 1159   2.353   0.220   3.327  0.4982 -0.0550  0.0497
   51DG     O10 1160   2.585   0.506   3.709  0.0489  0.5064 -0.6832
   51DG     C11 1161   2.310   0.355   3.335  0.6960  0.3654  0.5314
   51DG     C12 1162   2.494   0.419   3.771 -0.2857 -0.9573  0.1554
   51DG     H13 1163   2.220   0.368   3.278  0.7129 -0.5166  0.0500
   51DG     H14 1164   2.385   0.425   3.293  1.5093  0.7555  1.4019
   51DG     H15 1165   2.483   0.452   3.874 -0.6736  0.5409  0.7368
   51DG     H16 1166   2.528   0.313   3.765  0.8836 -0.4337 -0.5941
   51DG     C17 1167   2.276   0.400   3.473  0.3492 -0.0562 -0.3848
   51DG     C18 1168   2.362   0.414   3.702 -0.1523  0.0200  0.1536
   51DG     O19 1169   2.384   0.375   3.569 -0.2403 -0.0079 -0.1124
   51DG     H20 1170   2.193   0.345   3.516  0.2984 -2.6611  0.5143
   51DG     H21 1171   2.245   0.501   3.471 -0.7166 -0.7318  0.9093
   51DG     H22 1172   2.287   0.348   3.753  0.4833  0.3875  2.3910
   51DG     H23 1173   2.323   0.511   3.699 -0.2221 -3.4184  0.8437
   52DG      C1 1174   3.073   0.828   2.432 -0.2259 -0.3184 -0.3513
   52DG      C2 1175   3.782   1.136   2.398 -0.9207 -0.6437 -0.7588
   52DG      H3 1176   2.969   0.863   2.441 -0.8518 -2.0465 -0.7388
   52DG      H4 1177   3.138   0.891   2.498 -0.0425  0.1267  0.3170
   52DG      H5 1178   3.072   0.731   2.489  1.0581 -0.7685 -1.5585
   52DG      H6 1179   3.864   1.128   2.473  0.7707 -3.8319  0.0503
   52DG      H7 1180   3.822   1.144   2.300  1.5886  0.7708  1.1155
   52DG      H8 1181   3.721   1.220   2.429  0.4213  0.6180 -0.8146
   52DG      O9 1182   3.126   0.821   2.305 -0.1260  0.9840  0.3931
   52DG     O10 1183   3.725   1.010   2.419  0.4162  0.0249  0.2282
   52DG     C11 1184   3.220   0.713   2.298  0.0817 -0.1635  0.2997
   52DG     C12 1185   3.617   0.985   2.336  0.2073 -1.2206  0.0337
   52DG     H13 1186   3.240   0.709   2.192  0.6652 -0.4374  2.1739
   52DG     H14 1187   3.174   0.613   2.318 -0.2230 -1.3720  2.5172
   52DG     H15 1188   3.644   0.956   2.234  0.4699 -1.4851 -1.9867
   52DG     H16 1189   3.552   1.067   2.318 -0.4756 -0.6623  2.7990
   52DG     C17 1190   3.345   0.746   2.387 -0.1582 -0.5040 -0.2465
   52DG     C18 1191   3.526   0.885   2.405 -0.1379  0.3275 -0.5782
   52DG     O19 1192   3.414   0.859   2.331 -0.4676  0.1034  0.4999
   52DG     H20 1193   3.404   0.654   2.385 -3.5571 -1.0412  0.1935
   52DG     H21 1194   3.318   0.747   2.494  2.6717 -0.5173 -2.1147
   52DG     H22 1195   3.589   0.791   2.407  2.5595  1.4913 -1.4802
   52DG     H23 1196   3.503   0.914   2.510  0.7482  0.5214 -2.2374
   53DG      C1 1197   2.763   1.315   4.101 -0.2235  0.3471  0.4349
   53DG      C2 1198   2.711   0.569   4.119 -0.7689  0.5778 -0.4378
   53DG      H3 1199   2.789   1.399   4.033 -0.3295 -0.7547 -1.5962
   53DG      H4 1200   2.773   1.352   4.199 -0.5965 -2.5666  0.1447
   53DG      H5 1201   2.657   1.293   4.081  0.3430  1.1889 -1.4768
   53DG      H6 1202   2.687   0.568   4.222 -1.3332  0.2496 -2.6562
   53DG      H7 1203   2.614   0.562   4.070  2.2283  0.7934  3.5664
   53DG      H8 1204   2.764   0.479   4.081  2.6221 -0.1739 -0.8178
   53DG      O9 1205   2.860   1.212   4.086  0.0344 -0.0273 -0.3161
   53DG     O10 1206   2.767   0.698   4.086 -0.0931  0.1147 -0.6240
   53DG     C11 1207   2.854   1.154   3.959 -0.0243  0.3919  0.0046
   53DG     C12 1208   2.881   0.735   4.169  0.5853  0.0214 -0.1165
   53DG     H13 1209   2.876   1.230   3.879  0.1591 -0.3936 -1.1467
   53DG     H14 1210   2.748   1.119   3.941 -0.8024  1.0523  0.4723
   53DG     H15 1211   2.938   0.651   4.205 -1.2376 -1.0624 -0.8468
   53DG     H16 1212   2.840   0.785   4.262  0.8728 -0.4066  0.9541
   53DG     C17 1213   2.953   1.032   3.957  0.3563  0.8670  0.1381
   53DG     C18 1214   2.968   0.836   4.098  0.4461  0.3465 -0.3335
   53DG     O19 1215   2.885   0.938   4.039  0.4742  0.0641 -0.5080
   53DG     H20 1216   3.053   1.055   3.996  1.3000 -0.2074 -0.5550
   53DG     H21 1217   2.950   0.993   3.857  3.0666 -1.2859  0.4512
   53DG     H22 1218   3.041   0.882   4.161 -2.8216 -2.2383 -1.5934
   53DG     H23 1219   3.025   0.795   4.014  1.4360 -0.1283  1.7099
   54DG      C1 1220   3.529   0.208   1.137 -0.3773  0.6717  0.4342
   54DG      C2 1221   2.929   0.302   1.430 -0.3225 -0.4356 -0.2752
   54DG      H3 1222   3.550   0.278   1.221 -1.7730  3.0251  0.2013
   54DG      H4 1223   3.517   0.257   1.039  0.2914 -2.9849  1.8305
   54DG      H5 1224   3.620   0.144   1.124 -0.5306 -0.4177  1.9515
   54DG      H6 1225   2.955   0.378   1.494  0.7693  1.1400  1.4376
   54DG      H7 1226   2.890   0.344   1.334  0.1296  1.8896 -0.9644
   54DG      H8 1227   2.838   0.257   1.475  1.1840 -0.0630  1.7673
   54DG      O9 1228   3.423   0.134   1.192 -0.1581 -0.3991  0.2778
   54DG     O10 1229   3.016   0.194   1.408 -0.2889  0.1175  0.2179
   54DG     C11 1230   3.369   0.027   1.117 -0.0133  0.0986 -0.4688
   54DG     C12 1231   2.957   0.093   1.333 -0.2644 -0.3232  0.5918
   54DG     H13 1232   3.460  -0.029   1.101  3.4550  1.8075 -1.2692
   54DG     H14 1233   3.327   0.062   1.022  0.8988  0.4318 -0.0383
   54DG     H15 1234   2.915   0.142   1.246  0.1184 -0.0995  2.5249
   54DG     H16 1235   2.872   0.043   1.380  1.0808 -0.9699  0.0718
   54DG     C17 1236   3.260  -0.058   1.183 -0.3597  0.0924 -0.4505
   54DG     C18 1237   3.061  -0.008   1.287 -0.0785 -0.1790  0.1909
   54DG     O19 1238   3.166   0.043   1.210 -0.2036  0.0138 -0.1082
   54DG     H20 1239   3.296  -0.115   1.272  0.4674  1.3267 -3.4623
   54DG     H21 1240   3.221  -0.123   1.099 -0.8155  0.7319 -2.0808
   54DG     H22 1241   3.091  -0.062   1.377 -1.1462 -1.3263 -0.6797
   54DG     H23 1242   3.009  -0.081   1.223 -1.9659  1.9572 -0.0171
   55DG      C1 1243   1.466   1.049   1.243  0.5360 -0.2056  0.5137
   55DG      C2 1244   1.368   0.691   0.673  0.8423  0.3116 -0.2145
   55DG      H3 1245   1.393   1.022   1.318 -0.1646 -1.1356 -2.3301
   55DG      H4 1246   1.423   1.127   1.189  1.0058  1.9652 -0.1405
   55DG      H5 1247   1.544   1.105   1.296 -1.3656  0.2017  0.6903
   55DG      H6 1248   1.261   0.707   0.691 -1.2353  1.0198  2.6243
   55DG      H7 1249   1.408   0.758   0.601  0.7238 -0.4653 -0.2052
   55DG      H8 1250   1.367   0.592   0.619  0.1258 -2.7686 -0.7043
   55DG      O9 1251   1.511   0.935   1.171  0.0122 -0.0328  0.2504
   55DG     O10 1252   1.449   0.679   0.787 -0.5277  0.4756  0.1465
   55DG     C11 1253   1.536   0.821   1.254  0.4055  1.0327  0.4260
   55DG     C12 1254   1.429   0.562   0.866 -0.3521  0.5418 -0.9095
   55DG     H13 1255   1.446   0.781   1.296 -1.5434  2.5449  0.3803
   55DG     H14 1256   1.594   0.840   1.339  2.7667  1.7943 -1.6881
   55DG     H15 1257   1.443   0.473   0.801  1.6756  0.3280 -0.4903
   55DG     H16 1258   1.331   0.559   0.907 -0.1440 -0.3178  2.2988
   55DG     C17 1259   1.607   0.717   1.157  0.0417  0.0695 -0.7362
   55DG     C18 1260   1.535   0.573   0.982 -0.0879  0.2989  0.6879
   55DG     O19 1261   1.514   0.690   1.047 -0.7093 -0.0986 -0.0022
   55DG     H20 1262   1.632   0.627   1.213  0.1913  0.4419 -2.5227
   55DG     H21 1263   1.701   0.766   1.126 -0.5411  0.6146 -2.0919
   55DG     H22 1264   1.531   0.484   1.050 -2.0034 -1.3979  0.6223
   55DG     H23 1265   1.636   0.571   0.942 -2.8549  0.6961  2.2396
   56DG      C1 1266   2.732   1.987   4.433  0.0375 -0.0975 -0.4313
   56DG      C2 1267   2.061   1.810   4.622  0.0496 -0.0947  0.3660
   56DG      H3 1268   2.708   2.077   4.487 -1.0098 -0.2322  1.6359
   56DG      H4 1269   2.809   2.008   4.359  0.3902 -0.8758 -0.1364
   56DG      H5 1270   2.765   1.915   4.515  0.3136 -1.3201 -0.4743
   56DG      H6 1271   2.042   1.903   4.678 -0.4520  0.1808  3.2052
   56DG      H7 1272   1.963   1.786   4.592 -1.1662 -0.6741 -1.2782
   56DG      H8 1273   2.107   1.739   4.693  1.2952 -1.8766 -2.9003
   56DG      O9 1274   2.614   1.943   4.365  0.2005 -0.2700  0.7234
   56DG     O10 1275   2.157   1.838   4.516 -0.4206 -0.3467 -0.1475
   56DG     C11 1276   2.607   1.820   4.316 -0.1438  0.3690  0.2908
   56DG     C12 1277   2.134   1.757   4.401  0.0086  0.0685  0.3005
   56DG     H13 1278   2.648   1.747   4.391 -2.1133 -2.0872  0.1113
   56DG     H14 1279   2.684   1.805   4.238  3.9905 -0.0672 -1.2432
   56DG     H15 1280   2.038   1.778   4.353 -0.4314  0.7735 -0.8415
   56DG     H16 1281   2.149   1.652   4.426  1.9715 -0.6745 -1.3593
   56DG     C17 1282   2.467   1.797   4.256  0.6115 -0.5156 -0.4321
   56DG     C18 1283   2.242   1.790   4.296 -0.4812 -0.1035 -0.2351
   56DG     O19 1284   2.365   1.804   4.359  0.6174  0.2721 -0.0765
   56DG     H20 1285   2.479   1.697   4.222  2.2668  1.7883 -0.0661
   56DG     H21 1286   2.452   1.868   4.172 -2.7597  0.9584  1.1864
   56DG     H22 1287   2.243   1.709   4.220 -0.0218  0.8852  0.9265
   56DG     H23 1288   2.220   1.885   4.255  0.8500 -0.7035 -0.8115
   57DG      C1 1289   4.842   4.322   1.722  0.7720 -0.7863 -0.2930
   57DG      C2 1290   4.940   4.628   2.295 -0.2593 -0.1329  0.2172
   57DG      H3 1291   4.867   4.415   1.672  1.3593  0.8330 -0.8586
   57DG      H4 1292   4.774   4.259   1.664 -0.0404 -2.0604 -1.6476
   57DG      H5 1293   4.934   4.271   1.737 -1.2445  0.0399  1.0200
   57DG      H6 1294   4.999   4.557   2.359  3.5946  1.0780 -1.8001
   57DG      H7 1295   5.027   4.665   2.237  2.6120 -1.7356 -0.9389
   57DG      H8 1296   4.895   4.711   2.348 -0.6975  0.3610 -0.2889
   57DG      O9 1297   4.778   4.359   1.849 -0.4299 -0.4416 -0.1423
   57DG     O10 1298   4.832   4.582   2.226  0.4289  0.2916  0.3693
   57DG     C11 1299   4.639   4.319   1.874  0.1485  0.4849  0.1797
   57DG     C12 1300   4.736   4.508   2.294  0.1319  0.7896 -0.9027
   57DG     H13 1301   4.635   4.216   1.899  1.9404  1.5741 -3.4950
   57DG     H14 1302   4.582   4.325   1.780 -0.9561 -0.3098  1.1829
   57DG     H15 1303   4.703   4.558   2.380  0.9259 -0.3090 -0.6344
   57DG     H16 1304   4.775   4.415   2.331  3.7327  2.6888 -0.6929
   57DG     C17 1305   4.587   4.422   1.967  0.6122 -0.1696  0.3214
   57DG     C18 1306   4.627   4.505   2.192 -0.4955  0.0547  0.3003
   57DG     O19 1307   4.670   4.440   2.074 -0.0297  0.1163 -0.5445
   57DG     H20 1308   4.492   4.397   2.010 -1.6030 -1.9392 -2.9853
   57DG     H21 1309   4.577   4.514   1.910 -1.0937 -0.5733  2.7706
   57DG     H22 1310   4.542   4.456   2.235  1.3869  4.0345 -0.6156
   57DG     H23 1311   4.592   4.605   2.165 -1.9020  2.5127 -2.7048
   58DG      C1 1312   1.955   2.431   1.471 -0.2215  0.3507  0.4193
   58DG      C2 1313   1.395   2.091   1.661  0.0273 -0.2196 -0.3349
   58DG      H3 1314   2.015   2.516   1.423  1.3438  1.6874 -0.4599
   58DG      H4 1315   1.930   2.343   1.405  1.3435 -2.4580  0.4977
   58DG      H5 1316   2.021   2.380   1.540 -1.1961 -1.3533 -1.7535
   58DG      H6 1317   1.457   2.072   1.742 -2.3735  0.3676 -2.2136
   58DG      H7 1318   1.291   2.052   1.674  0.7322  2.3672 -0.5571
   58DG      H8 1319   1.434   2.023   1.580  1.7503 -3.6515 -1.1999
   58DG      O9 1320   1.842   2.474   1.550  0.1506 -0.4114 -0.1393
   58DG     O10 1321   1.404   2.221   1.605  0.0717  0.2486 -0.1126
   58DG     C11 1322   1.751   2.537   1.455 -0.3156  0.0233 -0.5715
   58DG     C12 1323   1.386   2.318   1.709  0.4233  0.1655  0.0504
   58DG     H13 1324   1.731   2.474   1.371  2.7696  2.4580 -1.8656
   58DG     H14 1325   1.783   2.630   1.411  1.9975  3.1256  0.7832
   58DG     H15 1326   1.452   2.296   1.796 -0.5373 -1.7395 -0.0098
   58DG     H16 1327   1.278   2.309   1.737 -0.0723  0.0945  0.4681
   58DG     C17 1328   1.621   2.560   1.536 -0.1136  0.4156 -0.8357
   58DG     C18 1329   1.438   2.457   1.646  0.5624  0.6869 -0.3925
   58DG     O19 1330   1.569   2.438   1.597 -0.0097 -0.0115 -0.8705
   58DG     H20 1331   1.556   2.596   1.466 -0.1535 -2.6733  1.0543
   58DG     H21 1332   1.636   2.642   1.607 -2.9719 -1.1790  0.4124
   58DG     H22 1333   1.378   2.473   1.560 -0.6335 -0.5420  2.0167
   58DG     H23 1334   1.441   2.537   1.719  1.6065 -0.8473 -0.1807
   59DG      C1 1335   1.431   1.992   2.065 -0.6881 -0.3144 -0.2238
   59DG      C2 1336   0.833   1.652   2.067 -0.1009  0.9524  0.2677
   59DG      H3 1337   1.468   2.031   2.158 -0.6126 -2.5883 -1.1123
   59DG      H4 1338   1.340   2.046   2.046  1.9051 -1.7710  2.1889
   59DG      H5 1339   1.503   2.025   1.991 -2.4418  0.9728  1.1076
   59DG      H6 1340   0.779   1.745   2.071  1.5229  4.6805 -0.9083
   59DG      H7 1341   0.832   1.628   1.957  0.6360 -0.4690 -1.0042
   59DG      H8 1342   0.784   1.578   2.120  0.5762 -0.2115 -0.5000
   59DG      O9 1343   1.410   1.858   2.063 -0.0488 -0.2589 -0.6586
   59DG     O10 1344   0.965   1.680   2.123 -0.7458  0.7319 -0.6680
   59DG     C11 1345   1.388   1.797   1.935  0.3944 -0.3545 -0.8235
   59DG     C12 1346   1.043   1.565   2.157 -0.4386  0.1519 -0.7429
   59DG     H13 1347   1.482   1.794   1.875 -1.1159 -3.2131 -0.5971
   59DG     H14 1348   1.316   1.854   1.874 -0.2746  0.2947  0.6385
   59DG     H15 1349   0.998   1.477   2.195  0.6720  0.8856 -1.4054
   59DG     H16 1350   1.099   1.589   2.246 -1.6810 -1.0538 -1.2127
   59DG     C17 1351   1.339   1.651   1.950 -0.6208  0.1859 -0.3261
   59DG     C18 1352   1.147   1.534   2.046 -0.2249 -0.2314 -0.0024
   59DG     O19 1353   1.219   1.660   2.024 -1.1215  0.1473  0.5589
   59DG     H20 1354   1.412   1.593   2.004 -0.1544 -0.9703  0.0217
   59DG     H21 1355   1.322   1.602   1.856 -2.5445  3.2902 -0.4276
   59DG     H22 1356   1.207   1.442   2.066  0.0313  1.3124 -0.4582
   59DG     H23 1357   1.097   1.514   1.952 -1.5822  1.8496  1.5487
   60DG      C1 1358   0.730   3.594   4.575  0.7624 -0.0331 -0.2142
   60DG      C2 1359   0.253   3.289   3.899  0.4686 -0.1790 -0.1315
   60DG      H3 1360   0.759   3.615   4.677 -1.9758 -1.4249 -0.4711
   60DG      H4 1361   0.745   3.686   4.519  1.4699 -1.4652  0.2952
   60DG      H5 1362   0.813   3.531   4.537  2.1613 -1.6766  0.1330
   60DG      H6 1363   0.327   3.217   3.854  0.4835  0.0905  0.8925
   60DG      H7 1364   0.155   3.270   3.866  1.8138 -0.7860  1.5919
   60DG      H8 1365   0.289   3.382   3.862  0.8869  1.5787  0.9309
   60DG      O9 1366   0.598   3.538   4.553 -0.9297 -0.1955 -0.3324
   60DG     O10 1367   0.269   3.313   4.034 -0.1783  0.0843 -0.4450
   60DG     C11 1368   0.568   3.503   4.419 -0.4343 -0.1789 -0.9393
   60DG     C12 1369   0.400   3.314   4.075  0.7638  0.1160  0.2859
   60DG     H13 1370   0.625   3.416   4.397 -1.3203  0.5931  4.0128
   60DG     H14 1371   0.580   3.589   4.349  0.6973  0.4661 -1.0856
   60DG     H15 1372   0.436   3.403   4.023  0.3041  1.0045 -2.1573
   60DG     H16 1373   0.448   3.224   4.049  0.7416  1.8894  1.9791
   60DG     C17 1374   0.420   3.465   4.419 -1.1079  0.6673  0.8620
   60DG     C18 1375   0.418   3.317   4.226  0.0887  0.4685 -0.1346
   60DG     O19 1376   0.384   3.444   4.280 -0.3543  0.2911 -0.1081
   60DG     H20 1377   0.370   3.553   4.448  3.9513 -2.7445  2.1733
   60DG     H21 1378   0.391   3.374   4.468  0.2464 -2.3522  1.1752
   60DG     H22 1379   0.363   3.236   4.273  1.0201 -1.2910  4.5063
   60DG     H23 1380   0.520   3.279   4.258  0.3861  1.4771  2.1818
   61DG      C1 1381   4.403   0.133   1.761  0.7026 -0.6858  0.0271
   61DG      C2 1382   4.255  -0.468   2.046  0.1046 -0.0334 -0.2716
   61DG      H3 1383   4.511   0.124   1.784 -1.7204  0.4422  1.8262
   61DG      H4 1384   4.369   0.195   1.838  1.7551 -1.1578 -0.3622
   61DG      H5 1385   4.380   0.196   1.671  1.3529  1.6817 -2.9176
   61DG      H6 1386   4.218  -0.448   2.145 -0.4072 -2.3570  2.7592
   61DG      H7 1387   4.233  -0.573   2.021 -0.7036  0.4037  1.7403
   61DG      H8 1388   4.367  -0.459   2.050  0.3843  1.7333 -2.3174
   61DG      O9 1389   4.332   0.015   1.762 -0.0818 -0.6213  0.5388
   61DG     O10 1390   4.219  -0.387   1.939  0.1241  0.1949 -1.2920
   61DG     C11 1391   4.186   0.054   1.747  0.0657  0.1451 -0.0910
   61DG     C12 1392   4.087  -0.358   1.949 -0.5060 -0.1542  0.4648
   61DG     H13 1393   4.165   0.119   1.664  1.2749 -0.7001  1.1824
   61DG     H14 1394   4.154   0.105   1.844 -0.7669  2.1691  0.5916
   61DG     H15 1395   4.071  -0.309   2.049 -1.7103  1.5910  1.6376
   61DG     H16 1396   4.034  -0.460   1.941  0.7259 -1.8831 -0.2009
   61DG     C17 1397   4.098  -0.068   1.726  0.4914  0.4524  0.3823
   61DG     C18 1398   4.033  -0.272   1.825  0.5530 -0.2027 -0.2667
   61DG     O19 1399   4.116  -0.159   1.832  0.2546  0.1250  0.4812
   61DG     H20 1400   4.135  -0.114   1.634  0.6375 -0.9187 -1.8365
   61DG     H21 1401   4.000  -0.032   1.717  0.2560  0.1589  1.5316
   61DG     H22 1402   4.048  -0.331   1.730 -0.9515 -0.7659  1.8410
   61DG     H23 1403   3.941  -0.233   1.831  3.8095  0.1740  0.9383
   62DG      C1 1404   1.650   4.826   2.334 -0.0253  0.5300 -1.3269
   62DG      C2 1405   1.032   4.630   2.692  0.1044  0.3485  0.0801
   62DG      H3 1406   1.684   4.736   2.292  0.9985 -0.3662  2.2694
   62DG      H4 1407   1.675   4.853   2.437 -1.7354  0.3834 -1.7397
   62DG      H5 1408   1.703   4.902   2.281 -1.3152  0.6791 -0.5596
   62DG      H6 1409   1.063   4.615   2.795 -1.9045 -0.0371  3.0690
   62DG      H7 1410   0.929   4.658   2.678 -0.8014  0.6000 -0.4848
   62DG      H8 1411   1.038   4.531   2.647 -0.8904 -1.2774  0.8119
   62DG      O9 1412   1.509   4.857   2.326  0.3456  0.2213 -0.0481
   62DG     O10 1413   1.122   4.711   2.629  0.3261 -0.7565  0.7922
   62DG     C11 1414   1.477   4.977   2.399 -0.4608 -0.7129  0.6615
   62DG     C12 1415   1.104   4.728   2.488  0.5036 -0.5001  0.5478
   62DG     H13 1416   1.539   5.058   2.362  1.9282  2.3234  1.1735
   62DG     H14 1417   1.492   4.975   2.504  2.4340  2.9593  0.5185
   62DG     H15 1418   1.013   4.785   2.463 -2.3548  1.0872  0.7622
   62DG     H16 1419   1.107   4.630   2.450  3.5682 -1.7305  4.0620
   62DG     C17 1420   1.331   5.006   2.365  0.2497 -0.2075  0.1494
   62DG     C18 1421   1.232   4.792   2.425 -0.0633 -0.5330  0.2385
   62DG     O19 1422   1.254   4.927   2.455  0.4492  0.4049 -0.1923
   62DG     H20 1423   1.296   4.985   2.262  0.1366  1.8644 -1.0500
   62DG     H21 1424   1.309   5.108   2.383  3.2636  3.6633  2.8939
   62DG     H22 1425   1.314   4.728   2.452  2.9229 -1.9015 -2.1127
   62DG     H23 1426   1.224   4.789   2.315  1.5456 -1.0801 -0.0277
   63DG      C1 1427   3.629   3.620   0.593 -0.3467 -0.0873  0.5963
   63DG      C2 1428   4.134   3.898   0.337 -0.3116  0.3492 -0.2198
   63DG      H3 1429   3.575   3.595   0.497  0.9851 -1.6104 -0.4993
   63DG      H4 1430   3.551   3.618   0.674 -0.0676  0.6390  0.7800
   63DG      H5 1431   3.712   3.545   0.602  0.3129 -2.2858 -0.0467
   63DG      H6 1432   4.187   3.836   0.405  2.0332 -1.2786 -1.6536
   63DG      H7 1433   4.083   3.833   0.265  1.5828  1.2760  0.9636
   63DG      H8 1434   4.220   3.938   0.283 -0.8746 -2.5413 -2.3550
   63DG      O9 1435   3.678   3.753   0.572 -0.2181 -0.2010 -0.0726
   63DG     O10 1436   4.037   3.987   0.408  0.3463  0.2047  0.0094
   63DG     C11 1437   3.574   3.850   0.546 -0.0304 -0.5760 -0.2175
   63DG     C12 1438   3.956   4.067   0.318  0.1412  0.6596 -0.0091
   63DG     H13 1439   3.501   3.856   0.626 -2.6326  1.4552 -0.0470
   63DG     H14 1440   3.524   3.817   0.451  0.3297 -0.6936  1.2914
   63DG     H15 1441   3.957   4.012   0.222  1.1380  3.0235 -0.1576
   63DG     H16 1442   3.999   4.160   0.299 -1.0356 -2.6747  1.3706
   63DG     C17 1443   3.636   3.988   0.497 -0.0917  0.1853  0.6921
   63DG     C18 1444   3.816   4.096   0.383 -0.1630  0.0674 -0.2366
   63DG     O19 1445   3.765   3.974   0.437  1.0265  0.7195 -0.2024
   63DG     H20 1446   3.647   4.051   0.580 -1.3513 -0.3093 -0.2505
   63DG     H21 1447   3.574   4.047   0.430 -1.9436 -0.7261  0.4660
   63DG     H22 1448   3.834   4.165   0.461  1.0467 -1.6349  0.5997
   63DG     H23 1449   3.746   4.138   0.311  1.6941 -1.1377 -1.1302
   64DG      C1 1450   2.835   3.645   5.280  0.3358 -0.2413 -0.2917
   64DG      C2 1451   3.154   3.816   5.869 -0.4823  0.3707 -0.6901
   64DG      H3 1452   2.783   3.547   5.295 -1.8752  0.8568 -2.1422
   64DG      H4 1453   2.947   3.628   5.280 -0.0382 -1.8320  1.9760
   64DG      H5 1454   2.810   3.686   5.180  0.6814 -0.2375 -0.2823
   64DG      H6 1455   3.214   3.865   5.809  0.8109 -2.4366  1.7250
   64DG      H7 1456   3.162   3.861   5.970  0.2401  2.6452 -0.7297
   64DG      H8 1457   3.192   3.713   5.874  1.9436 -0.2063  0.4735
   64DG      O9 1458   2.790   3.716   5.393  0.4722  0.4016 -0.2897
   64DG     O10 1459   3.018   3.825   5.826  0.1026  0.0674  0.0428
   64DG     C11 1460   2.847   3.848   5.375  0.4559 -0.7388  0.3784
   64DG     C12 1461   2.968   3.960   5.838 -0.6345 -0.9822 -0.0654
   64DG     H13 1462   2.809   3.909   5.287 -1.2669  0.5123 -1.1801
   64DG     H14 1463   2.955   3.834   5.372 -0.4210 -3.1597  1.2303
   64DG     H15 1464   3.049   4.039   5.815  1.2814 -1.6150  3.1677
   64DG     H16 1465   2.929   3.985   5.932  2.1623  0.9034 -3.6312
   64DG     C17 1466   2.808   3.936   5.499  0.3401 -0.4302  0.5539
   64DG     C18 1467   2.853   3.976   5.728 -0.1321  0.5671  0.0750
   64DG     O19 1468   2.885   3.898   5.609 -0.1291 -0.1909  0.4000
   64DG     H20 1469   2.705   3.934   5.520 -0.3694 -1.2294 -1.0063
   64DG     H21 1470   2.838   4.030   5.468  0.0723 -2.5292  1.0630
   64DG     H22 1471   2.767   3.915   5.760 -1.3808 -2.8401 -0.2159
   64DG     H23 1472   2.836   4.077   5.709 -0.0388  2.0497 -0.3025
   65DG      C1 1473   4.800   3.426   1.960  1.5630  0.0247  0.3011
   65DG      C2 1474   4.370   3.540   1.552 -0.1186  0.2218  0.4755
   65DG      H3 1475   4.794   3.530   1.942  1.2207 -1.1339  1.8691
   65DG      H4 1476   4.892   3.386   1.943 -2.3757 -0.6696 -0.0851
   65DG      H5 1477   4.774   3.434   2.065  1.6033  0.2894 -2.1618
   65DG      H6 1478   4.285   3.537   1.482  2.6369 -0.5802  0.0270
   65DG      H7 1479   4.368   3.634   1.608 -0.5072  0.2884 -0.4649
   65DG      H8 1480   4.462   3.521   1.493 -1.0151 -1.2555 -0.0285
   65DG      O9 1481   4.697   3.359   1.887 -0.7077 -0.1522  0.4064
   65DG     O10 1482   4.341   3.443   1.647 -0.3844  0.2571 -0.0237
   65DG     C11 1483   4.660   3.234   1.936  0.2323  0.7440  0.9928
   65DG     C12 1484   4.357   3.306   1.613 -0.4577  0.5823  0.6072
   65DG     H13 1485   4.625   3.236   2.043 -0.2086  2.9730  0.7608
   65DG     H14 1486   4.742   3.164   1.924 -0.3238 -1.8322 -0.0187
   65DG     H15 1487   4.456   3.287   1.575  2.4062 -0.3646 -1.4492
   65DG     H16 1488   4.278   3.285   1.542  1.9945  1.0345  1.7054
   65DG     C17 1489   4.557   3.188   1.835  0.2594 -1.2386 -0.3712
   65DG     C18 1490   4.350   3.218   1.740  0.0543  0.3850  0.1789
   65DG     O19 1491   4.429   3.260   1.844 -0.1663  0.3476 -0.1477
   65DG     H20 1492   4.535   3.083   1.839 -1.5627  0.0126  0.5362
   65DG     H21 1493   4.589   3.215   1.732 -0.7178  1.6352  1.3599
   65DG     H22 1494   4.259   3.244   1.792 -2.9393  1.6501 -0.5911
   65DG     H23 1495   4.344   3.112   1.729 -3.3583 -1.7783  1.9768
   66DG      C1 1496   3.410   4.812   3.289 -0.5468 -0.4898  0.4132
   66DG      C2 1497   3.549   4.992   4.095  0.0907  0.2407 -0.1492
   66DG      H3 1498   3.352   4.729   3.243 -1.2636 -2.1089  1.9447
   66DG      H4 1499   3.508   4.827   3.233  3.1246  2.4633  1.1424
   66DG      H5 1500   3.345   4.897   3.289 -1.2117  0.8176  1.0181
   66DG      H6 1501   3.505   4.896   4.129  1.2819  0.4430 -1.0629
   66DG      H7 1502   3.653   4.996   4.133  0.2887  0.3608 -1.6774
   66DG      H8 1503   3.487   5.063   4.149  0.7741 -2.1808 -0.5617
   66DG      O9 1504   3.467   4.807   3.415 -0.8836  0.4163 -0.1387
   66DG     O10 1505   3.538   5.022   3.957  0.0792 -0.4041 -0.0311
   66DG     C11 1506   3.381   4.794   3.529  0.2924  0.9433  0.0814
   66DG     C12 1507   3.626   4.937   3.886  0.4556 -0.1109  1.0433
   66DG     H13 1508   3.343   4.690   3.532  0.5350 -0.8016  0.4833
   66DG     H14 1509   3.299   4.869   3.519 -0.6892 -1.3106  0.4672
   66DG     H15 1510   3.608   4.832   3.907  0.5790 -1.7427 -1.8579
   66DG     H16 1511   3.725   4.946   3.922 -0.1380  1.4934  0.6265
   66DG     C17 1512   3.471   4.813   3.655  0.2170  0.4858 -0.1996
   66DG     C18 1513   3.631   4.969   3.736 -0.4747  0.4555  0.2089
   66DG     O19 1514   3.504   4.952   3.672  0.5230  0.0093  0.4727
   66DG     H20 1515   3.557   4.752   3.631 -1.3162  0.7446  0.1382
   66DG     H21 1516   3.417   4.783   3.745  1.3895  1.1987  0.2999
   66DG     H22 1517   3.657   5.077   3.718 -0.2286  0.5587  0.2146
   66DG     H23 1518   3.707   4.908   3.686  0.8783 -0.1642  3.4072
   67DG      C1 1519   2.017   2.598   4.073 -0.5294 -0.2573 -0.0626
   67DG      C2 1520   1.245   2.435   4.066 -0.0461 -0.0916  0.2064
   67DG      H3 1521   2.026   2.708   4.095  1.7461 -0.7271  0.2396
   67DG      H4 1522   2.083   2.576   3.987 -1.3834 -2.0951 -1.2331
   67DG      H5 1523   2.048   2.524   4.152 -0.5441 -1.6936  2.8028
   67DG      H6 1524   1.231   2.352   4.140  1.2668 -0.1214 -1.5911
   67DG      H7 1525   1.217   2.526   4.119  0.6729 -0.6326 -1.1949
   67DG      H8 1526   1.152   2.430   4.008 -0.7550 -0.4128  1.1840
   67DG      O9 1527   1.886   2.563   4.029 -0.0859  0.0312 -0.2802
   67DG     O10 1528   1.368   2.440   3.995 -0.2511 -0.1112  0.4187
   67DG     C11 1529   1.785   2.551   4.125 -0.3105 -0.0305 -0.0887
   67DG     C12 1530   1.420   2.308   3.955 -0.2039  0.1049  0.9864
   67DG     H13 1531   1.776   2.642   4.189 -1.1760  1.8630 -0.5203
   67DG     H14 1532   1.811   2.465   4.191 -2.2315 -0.3746 -1.4404
   67DG     H15 1533   1.366   2.276   3.868 -0.2035  1.1804 -2.2920
   67DG     H16 1534   1.407   2.242   4.041  0.0380  1.7564 -0.7876
   67DG     C17 1535   1.660   2.496   4.044 -0.2464  0.3926  0.4502
   67DG     C18 1536   1.565   2.323   3.912 -0.2854 -0.1793 -0.6054
   67DG     O19 1537   1.662   2.357   4.012  0.3680 -0.1926  0.3275
   67DG     H20 1538   1.647   2.550   3.951 -1.4800 -0.4102  0.3061
   67DG     H21 1539   1.571   2.516   4.114 -1.0485 -1.4787  0.6525
   67DG     H22 1540   1.591   2.227   3.872 -0.3603 -2.7292  1.4487
   67DG     H23 1541   1.570   2.388   3.827  2.7273 -0.9326 -0.6619
   68DG      C1 1542   3.206   2.336   5.452 -0.1500 -0.2049 -0.3726
   68DG      C2 1543   3.223   1.844   4.916 -0.2909 -0.0301 -0.6281
   68DG      H3 1544   3.303   2.347   5.496  0.9672  0.4220  0.0818
   68DG      H4 1545   3.167   2.236   5.485 -0.9154 -0.7705  0.4776
   68DG      H5 1546   3.138   2.408   5.495 -0.0165 -1.3287  1.1223
   68DG      H6 1547   3.290   1.831   4.998  0.9609 -0.8081 -0.6220
   68DG      H7 1548   3.150   1.767   4.923 -0.7506 -0.4527 -1.7895
   68DG      H8 1549   3.266   1.827   4.820  0.6040 -0.6360 -0.5830
   68DG      O9 1550   3.224   2.334   5.313  0.5252 -0.3195  0.3576
   68DG     O10 1551   3.177   1.976   4.926  0.4383  0.1828 -0.3370
   68DG     C11 1552   3.100   2.347   5.245  0.0790  0.3443 -0.5288
   68DG     C12 1553   3.267   2.072   4.894  0.2502 -0.5202 -0.5665
   68DG     H13 1554   3.056   2.446   5.269 -0.1903 -0.2409 -0.9431
   68DG     H14 1555   3.012   2.282   5.279 -0.6159  0.5369  2.2505
   68DG     H15 1556   3.304   2.071   4.794  0.8087  0.5507  0.1723
   68DG     H16 1557   3.351   2.061   4.959 -1.1727  2.3669 -2.5346
   68DG     C17 1558   3.112   2.334   5.095 -0.2019 -0.4572  0.3924
   68DG     C18 1559   3.204   2.205   4.922  0.0989  0.0160 -0.1222
   68DG     O19 1560   3.167   2.206   5.061 -0.1303  0.5797  0.1444
   68DG     H20 1561   3.184   2.407   5.075  1.1458 -2.3417 -0.4776
   68DG     H21 1562   3.012   2.356   5.060 -1.2304 -2.0493  1.9471
   68DG     H22 1563   3.278   2.276   4.903  1.7671 -2.0651  1.5907
   68DG     H23 1564   3.105   2.219   4.865 -5.4703  0.3697 -2.6028
   69DG      C1 1565   3.066   4.694   2.646 -0.1132 -0.4495 -0.3355
   69DG      C2 1566   2.434   4.454   2.545  0.4495  0.1630 -0.0901
   69DG      H3 1567   3.163   4.663   2.676  0.7261 -2.7664  0.9358
   69DG      H4 1568   2.985   4.692   2.725 -1.3815 -1.2269  0.4602
   69DG      H5 1569   3.083   4.797   2.619  1.1641  1.5005  0.4574
   69DG      H6 1570   2.370   4.375   2.574  2.1390  0.2370  1.5165
   69DG      H7 1571   2.472   4.511   2.638  0.1739  1.5280  1.4623
   69DG      H8 1572   2.374   4.534   2.488 -0.0419  3.1268 -2.3537
   69DG      O9 1573   3.035   4.609   2.536 -0.1262 -0.4789  0.1880
   69DG     O10 1574   2.546   4.408   2.462  0.7599  0.4903 -0.1658
   69DG     C11 1575   3.066   4.469   2.543  0.1207  0.0696 -0.2276
   69DG     C12 1576   2.599   4.290   2.508 -0.0728  0.5940  0.0348
   69DG     H13 1577   3.038   4.434   2.643 -1.2110 -1.4532 -0.2729
   69DG     H14 1578   3.169   4.449   2.513  1.1627  0.3757 -0.5698
   69DG     H15 1579   2.546   4.210   2.461 -0.2712  3.0243 -0.6653
   69DG     H16 1580   2.587   4.277   2.613 -0.1867  0.6895  0.2609
   69DG     C17 1581   2.963   4.393   2.459  0.2073 -0.1531  0.2946
   69DG     C18 1582   2.748   4.283   2.461  0.0133 -0.4380  0.1993
   69DG     O19 1583   2.836   4.379   2.528 -0.6144 -0.1843 -0.6957
   69DG     H20 1584   2.998   4.294   2.444  0.3500  0.0371  0.2203
   69DG     H21 1585   2.941   4.443   2.363 -0.5948  0.5668  0.7692
   69DG     H22 1586   2.791   4.185   2.475  2.1637  1.5062 -2.5299
   69DG     H23 1587   2.745   4.288   2.353  0.6206 -0.4572 -4.4919
   70DG      C1 1588   2.574   3.162   3.954 -0.0993  0.1424  0.2935
   70DG      C2 1589   2.367   2.945   4.561  0.4176  0.7191 -0.3898
   70DG      H3 1590   2.594   3.061   3.986 -1.8931 -0.0713  1.6486
   70DG      H4 1591   2.675   3.193   3.941  0.5325  1.0802 -0.0835
   70DG      H5 1592   2.509   3.173   3.864  0.5801 -1.7315  0.0341
   70DG      H6 1593   2.451   2.904   4.612  3.8638  0.2350  2.5092
   70DG      H7 1594   2.293   2.943   4.644 -0.6253 -1.2990  0.6807
   70DG      H8 1595   2.338   2.871   4.485 -1.1244  0.4184 -1.2857
   70DG      O9 1596   2.527   3.246   4.057  0.0419 -0.1887  0.2810
   70DG     O10 1597   2.380   3.076   4.507 -0.1049 -0.0005  0.0364
   70DG     C11 1598   2.381   3.254   4.043  0.0268 -0.3441  0.0762
   70DG     C12 1599   2.257   3.159   4.473 -0.0481  0.5638  0.7567
   70DG     H13 1600   2.345   3.151   4.046  0.1221 -2.0002 -1.5798
   70DG     H14 1601   2.341   3.308   3.956  0.7581  4.0564 -0.6632
   70DG     H15 1602   2.195   3.166   4.558 -0.0498  0.5360 -1.7027
   70DG     H16 1603   2.201   3.092   4.403 -3.0689  0.9331  2.1937
   70DG     C17 1604   2.330   3.336   4.160  0.0263  0.4818 -0.1707
   70DG     C18 1605   2.286   3.295   4.402  0.2220  0.0826  0.1276
   70DG     O19 1606   2.353   3.259   4.275 -0.0383  0.3164 -0.0162
   70DG     H20 1607   2.220   3.355   4.148 -1.2406 -2.0412 -0.5001
   70DG     H21 1608   2.381   3.430   4.170  4.3550 -1.0121 -1.2722
   70DG     H22 1609   2.204   3.363   4.391 -0.9470  0.7308 -0.7814
   70DG     H23 1610   2.359   3.347   4.468 -0.9443  0.0965  1.5743
   71DG      C1 1611   1.692   4.845   0.212  0.0917 -0.3666  0.1107
   71DG      C2 1612   2.129   4.206   0.084  0.1319  0.4799  0.2972
   71DG      H3 1613   1.632   4.760   0.169 -1.8297 -1.1566  0.1106
   71DG      H4 1614   1.753   4.899   0.143  3.5961 -1.2268 -1.7256
   71DG      H5 1615   1.606   4.908   0.252  2.2352  1.6282  3.4979
   71DG      H6 1616   2.192   4.151   0.156 -0.3099 -1.8915  0.2436
   71DG      H7 1617   2.044   4.142   0.082  0.8570 -0.5206  2.2242
   71DG      H8 1618   2.165   4.191  -0.007 -3.2940 -0.9257  4.8088
   71DG      O9 1619   1.767   4.806   0.327  0.1190  0.5033 -0.2601
   71DG     O10 1620   2.085   4.332   0.118 -0.1619  0.0411 -0.1663
   71DG     C11 1621   1.821   4.672   0.316 -0.1442  0.6218  0.6311
   71DG     C12 1622   2.189   4.422   0.144 -0.3762  0.2401  0.4681
   71DG     H13 1623   1.755   4.602   0.263  1.3714 -0.8106  0.0859
   71DG     H14 1624   1.846   4.626   0.413 -1.1807  1.7059 -0.8640
   71DG     H15 1625   2.250   4.414   0.058  0.0567 -0.3799 -1.4005
   71DG     H16 1626   2.255   4.410   0.231  1.3706  2.4327 -0.1382
   71DG     C17 1627   1.952   4.689   0.237  0.2567 -0.3042 -0.2377
   71DG     C18 1628   2.127   4.558   0.133  1.0681  0.2707  0.4539
   71DG     O19 1629   2.033   4.572   0.237 -0.3934 -0.0504  0.0157
   71DG     H20 1630   2.011   4.764   0.272 -0.3842 -2.8097 -0.1787
   71DG     H21 1631   1.942   4.706   0.131 -1.4728 -0.7269 -0.0324
   71DG     H22 1632   2.191   4.644   0.135  0.2001  1.3576 -0.9167
   71DG     H23 1633   2.081   4.566   0.033 -0.9854  1.7151 -1.0704
   72DG      C1 1634   3.731   1.290   3.049 -0.2200 -0.4572 -0.0921
   72DG      C2 1635   4.385   1.379   2.869  0.0424 -0.5119  0.4834
   72DG      H3 1636   3.659   1.352   3.102  3.8154  1.6075  0.9441
   72DG      H4 1637   3.694   1.194   3.050  2.6197  0.4177  1.6364
   72DG      H5 1638   3.741   1.308   2.945 -1.7419  0.8284  3.0160
   72DG      H6 1639   4.344   1.431   2.782  0.4187 -0.5492 -0.1171
   72DG      H7 1640   4.485   1.414   2.889 -2.3438 -0.0531 -0.7393
   72DG      H8 1641   4.395   1.276   2.836  3.0639 -1.5247  2.4923
   72DG      O9 1642   3.859   1.313   3.103  0.4792 -0.5757  0.1205
   72DG     O10 1643   4.299   1.381   2.979 -0.4106 -0.2453 -0.1886
   72DG     C11 1644   3.881   1.247   3.222  0.3708 -1.1402 -0.1430
   72DG     C12 1645   4.339   1.301   3.095 -0.0835  0.0444 -0.1866
   72DG     H13 1646   3.889   1.136   3.216 -0.1207 -2.2274 -0.7397
   72DG     H14 1647   3.796   1.283   3.286 -0.4360  3.1115 -0.2358
   72DG     H15 1648   4.433   1.336   3.136  0.6047 -1.4315  2.7156
   72DG     H16 1649   4.340   1.195   3.066  0.8868 -1.5509  1.4781
   72DG     C17 1650   4.017   1.289   3.269 -0.3130  0.4623 -0.0490
   72DG     C18 1651   4.238   1.327   3.206 -0.3386  0.1294 -0.6788
   72DG     O19 1652   4.112   1.287   3.165 -0.1794  0.1113 -0.2747
   72DG     H20 1653   4.055   1.218   3.350  1.5253 -0.5800 -0.0681
   72DG     H21 1654   4.015   1.388   3.308  0.2168  0.9791 -1.7463
   72DG     H22 1655   4.269   1.268   3.290 -0.7647 -0.4889 -2.0241
   72DG     H23 1656   4.241   1.428   3.242  1.0815 -0.1655  0.0317
   73DG      C1 1657   5.341   2.498   3.806  0.0834  0.0851  0.3303
   73DG      C2 1658   4.629   2.399   3.902  0.3845 -0.2601 -0.7385
   73DG      H3 1659   5.429   2.462   3.858 -0.1602  2.1136 -2.3391
   73DG      H4 1660   5.365   2.598   3.770 -1.4534  1.4326  0.5017
   73DG      H5 1661   5.310   2.426   3.731 -1.4833  0.0215  0.3805
   73DG      H6 1662   4.568   2.424   3.818  0.1960 -3.5503  0.6666
   73DG      H7 1663   4.667   2.300   3.876  0.4945 -0.4765 -2.5306
   73DG      H8 1664   4.550   2.379   3.975  0.6813  1.6510 -1.1789
   73DG      O9 1665   5.236   2.510   3.895  0.9466  0.3499 -0.0107
   73DG     O10 1666   4.740   2.491   3.925  0.3429  0.3992 -0.8376
   73DG     C11 1667   5.136   2.588   3.844 -0.5345  0.8869  0.0012
   73DG     C12 1668   4.707   2.630   3.928 -0.4245 -0.2490  0.9656
   73DG     H13 1669   5.093   2.541   3.765  1.1325  2.1541  0.4658
   73DG     H14 1670   5.181   2.689   3.815  3.4014  1.1097  0.1541
   73DG     H15 1671   4.619   2.647   3.985  0.7728 -0.5622  0.7975
   73DG     H16 1672   4.697   2.664   3.826  0.9324 -0.4708 -0.7341
   73DG     C17 1673   5.023   2.608   3.941  0.1900 -0.0059  0.0911
   73DG     C18 1674   4.816   2.719   3.982  0.6343  0.2983  0.1391
   73DG     O19 1675   4.935   2.718   3.905 -0.2665 -0.3368 -0.3859
   73DG     H20 1676   5.056   2.636   4.043  1.6842  3.3199 -1.9581
   73DG     H21 1677   4.970   2.518   3.942  0.8118  0.9881  2.0853
   73DG     H22 1678   4.779   2.818   3.975 -1.2061  2.0829  4.0009
   73DG     H23 1679   4.827   2.698   4.090 -0.3181  2.4304  0.0718
   74DG      C1 1680   1.970   4.914   2.415  0.2442 -0.1442 -0.1949
   74DG      C2 1681   2.283   4.653   2.913 -0.2686 -0.1895  0.3849
   74DG      H3 1682   1.964   4.813   2.445 -1.0550  0.6813 -0.9116
   74DG      H4 1683   1.875   4.953   2.379  0.3964  0.6387 -1.9910
   74DG      H5 1684   2.030   4.975   2.486  0.3859 -1.8842 -0.3905
   74DG      H6 1685   2.328   4.706   2.989  1.2152  1.5063 -2.2991
   74DG      H7 1686   2.177   4.659   2.930  1.8321  0.0445 -1.3704
   74DG      H8 1687   2.315   4.545   2.912  2.1795 -0.6418 -1.8836
   74DG      O9 1688   2.049   4.928   2.297  0.3791 -0.1933 -0.1950
   74DG     O10 1689   2.302   4.717   2.785 -0.5461 -0.1916  0.4415
   74DG     C11 1690   2.162   4.839   2.294  0.2281 -0.1770 -0.8409
   74DG     C12 1691   2.264   4.853   2.785 -0.3344  1.0084 -0.6748
   74DG     H13 1692   2.206   4.855   2.201 -2.1918  1.3580  1.2547
   74DG     H14 1693   2.134   4.733   2.304  0.0641  0.6108 -0.3012
   74DG     H15 1694   2.316   4.909   2.862  4.0688 -1.9776 -0.3786
   74DG     H16 1695   2.150   4.864   2.808 -0.7561  1.3366 -1.0160
   74DG     C17 1696   2.267   4.885   2.401  0.3673 -0.2738 -0.3880
   74DG     C18 1697   2.308   4.901   2.646  0.6020 -0.2284  0.8275
   74DG     O19 1698   2.233   4.843   2.534 -0.4252 -0.1330  0.1337
   74DG     H20 1699   2.284   4.993   2.387 -1.0316 -0.3759 -1.5845
   74DG     H21 1700   2.361   4.832   2.374  0.6775 -2.8456  1.8754
   74DG     H22 1701   2.313   5.007   2.636 -0.4853  1.4033 -0.6417
   74DG     H23 1702   2.417   4.872   2.641  2.7057  1.7019  0.2861
   75DG      C1 1703   4.061   3.160   0.121 -0.0090 -0.2523  0.5702
   75DG      C2 1704   4.536   3.408  -0.306  0.5874  0.4690 -0.4071
   75DG      H3 1705   4.001   3.232   0.071 -2.3858  1.3630  1.0191
   75DG      H4 1706   4.034   3.152   0.225 -0.4757 -0.5559  1.6853
   75DG      H5 1707   4.023   3.074   0.071 -4.0212  4.4123  0.2631
   75DG      H6 1708   4.635   3.440  -0.316  1.1596 -0.6244 -0.6744
   75DG      H7 1709   4.515   3.362  -0.405 -2.3203  1.0044  0.1838
   75DG      H8 1710   4.466   3.492  -0.290 -0.9702 -1.5076  1.0447
   75DG      O9 1711   4.203   3.170   0.088  0.3443 -1.2545  0.0561
   75DG     O10 1712   4.513   3.324  -0.200 -0.2884  0.2075  0.6176
   75DG     C11 1713   4.273   3.062   0.145 -0.0715 -0.4103 -0.0952
   75DG     C12 1714   4.585   3.200  -0.199 -0.0283  0.0265 -0.3255
   75DG     H13 1715   4.246   2.967   0.114  2.6657  0.7375 -0.9780
   75DG     H14 1716   4.262   3.056   0.252 -1.8780 -1.2278 -1.1990
   75DG     H15 1717   4.692   3.207  -0.221  2.5365 -0.7296  0.7357
   75DG     H16 1718   4.538   3.134  -0.273 -2.7649  0.6880  0.5086
   75DG     C17 1719   4.427   3.075   0.117  0.5078 -0.1972 -0.0349
   75DG     C18 1720   4.576   3.122  -0.061  0.0687 -0.1464 -0.7676
   75DG     O19 1721   4.438   3.120  -0.022 -0.0529 -0.9396 -1.0763
   75DG     H20 1722   4.476   2.979   0.130 -1.0292  0.9433  0.0236
   75DG     H21 1723   4.462   3.163   0.175  0.9165  0.8640 -2.7271
   75DG     H22 1724   4.616   3.028  -0.061 -1.8530 -1.5005  1.5826
   75DG     H23 1725   4.629   3.177   0.011 -1.3906 -2.0508  1.2852
   76DG      C1 1726   0.012   4.327   1.275 -0.0014 -0.5854 -0.3309
   76DG      C2 1727   0.219   4.721   1.480  0.3564  0.2693  0.1284
   76DG      H3 1728   0.111   4.319   1.319  1.4031  0.7724  2.3421
   76DG      H4 1729  -0.051   4.256   1.327 -1.1183  0.3383 -1.2504
   76DG      H5 1730  -0.033   4.429   1.293 -0.8199  0.7249  0.6839
   76DG      H6 1731   0.132   4.791   1.495  1.0912  2.4350 -0.2119
   76DG      H7 1732   0.215   4.648   1.567 -3.4453 -1.8130 -0.5515
   76DG      H8 1733   0.315   4.777   1.472  0.4473  0.7328 -2.2354
   76DG      O9 1734   0.002   4.278   1.144 -0.4507  0.0336  0.1887
   76DG     O10 1735   0.191   4.655   1.355 -0.1647 -0.0790  0.5255
   76DG     C11 1736   0.035   4.370   1.039  0.1233  0.1236  0.1410
   76DG     C12 1737   0.248   4.707   1.240 -0.3987 -0.0187 -0.1736
   76DG     H13 1738  -0.034   4.454   1.044 -0.2025  1.4644  1.1251
   76DG     H14 1739   0.016   4.322   0.942 -3.8044 -1.8402 -1.7147
   76DG     H15 1740   0.358   4.702   1.239  0.5949  1.6626 -2.7094
   76DG     H16 1741   0.226   4.816   1.237 -0.3654 -3.2826  1.3560
   76DG     C17 1742   0.181   4.412   1.028 -0.5323 -0.3237 -0.2757
   76DG     C18 1743   0.199   4.632   1.116  0.0841  0.4322  0.1686
   76DG     O19 1744   0.234   4.497   1.128 -0.5838 -0.0301  0.2072
   76DG     H20 1745   0.193   4.464   0.933  0.6036 -4.2906  1.8173
   76DG     H21 1746   0.241   4.322   1.029 -1.3324 -2.4684 -0.0002
   76DG     H22 1747   0.089   4.634   1.121 -0.6118  4.1797  0.7105
   76DG     H23 1748   0.238   4.682   1.024 -1.0049  1.0695 -1.4683
   77DG      C1 1749   4.875   4.778   0.690 -0.3202 -0.0615 -0.0822
   77DG      C2 1750   5.315   4.923   0.927  0.7874 -0.1830  0.2061
   77DG      H3 1751   4.830   4.679   0.721  0.2526  0.5868  0.2791
   77DG      H4 1752   4.955   4.805   0.763  2.4620  0.2971 -1.4644
   77DG      H5 1753   4.915   4.761   0.591 -0.1171 -0.0756 -0.0235
   77DG      H6 1754   5.377   5.000   0.966 -2.1507  0.4316 -3.3144
   77DG      H7 1755   5.329   4.842   0.999  0.0648 -0.3194 -0.0679
   77DG      H8 1756   5.356   4.885   0.834  0.5345  2.5445 -4.3285
   77DG      O9 1757   4.767   4.875   0.699  0.4446 -0.0887 -0.0943
   77DG     O10 1758   5.173   4.959   0.919  0.1074 -0.2471 -0.4525
   77DG     C11 1759   4.723   4.912   0.833  0.3437 -0.1006 -0.3365
   77DG     C12 1760   5.129   5.013   1.043  0.6573 -0.0156  0.1465
   77DG     H13 1761   4.713   4.828   0.899 -0.4888 -0.2588 -0.6399
   77DG     H14 1762   4.619   4.953   0.819 -2.6762  3.5065  0.8133
   77DG     H15 1763   5.194   5.088   1.085  1.1713  0.6877 -0.7217
   77DG     H16 1764   5.120   4.935   1.121  2.0662 -1.9348  2.6350
   77DG     C17 1765   4.804   5.031   0.890  0.3390  0.1463  0.5711
   77DG     C18 1766   4.989   5.072   1.021  0.0481 -0.1475  0.3791
   77DG     O19 1767   4.914   4.971   0.958  0.5940 -0.9289 -0.5994
   77DG     H20 1768   4.747   5.082   0.964  2.7189  0.6427 -0.0770
   77DG     H21 1769   4.837   5.102   0.819  0.5703  0.8168 -0.0034
   77DG     H22 1770   4.943   5.101   1.120 -0.1244 -2.3030  0.8725
   77DG     H23 1771   5.002   5.161   0.964 -0.1368 -3.6213  0.0623
   78DG      C1 1772   0.806   3.772   4.958  0.6251 -0.7213  0.1969
   78DG      C2 1773   0.409   3.290   5.276  0.1198  0.1096  0.3827
   78DG      H3 1774   0.827   3.797   4.858 -1.2200  1.1523  0.8703
   78DG      H4 1775   0.890   3.705   4.985  1.0216  1.1388  1.1119
   78DG      H5 1776   0.812   3.860   5.024  2.6679 -0.9382  2.3954
   78DG      H6 1777   0.494   3.221   5.276 -0.2375 -0.4209  0.9905
   78DG      H7 1778   0.429   3.345   5.371 -0.1364  1.1437 -2.0650
   78DG      H8 1779   0.321   3.226   5.289 -1.0815 -2.9317  1.9531
   78DG      O9 1780   0.686   3.692   4.971 -0.0390 -0.6830  0.6080
   78DG     O10 1781   0.404   3.364   5.157  0.1810 -0.3712 -0.0503
   78DG     C11 1782   0.575   3.761   4.928  0.4414  0.0915 -0.1698
   78DG     C12 1783   0.294   3.452   5.160 -0.6093 -0.5680 -0.2251
   78DG     H13 1784   0.611   3.815   4.840  0.8969  2.3130  0.1949
   78DG     H14 1785   0.551   3.845   5.001  0.4585 -0.2576  0.6671
   78DG     H15 1786   0.310   3.516   5.244 -3.8592  1.4770 -0.3190
   78DG     H16 1787   0.207   3.393   5.153  1.1086 -1.6219 -0.9088
   78DG     C17 1788   0.447   3.682   4.905 -0.4256 -0.3416 -0.1003
   78DG     C18 1789   0.296   3.537   5.037  0.3738 -0.3724  0.4085
   78DG     O19 1790   0.418   3.621   5.032  0.5019  0.2699  0.1187
   78DG     H20 1791   0.458   3.598   4.832  2.7584 -0.8189 -1.4520
   78DG     H21 1792   0.375   3.747   4.858  0.7695 -2.4527 -0.3945
   78DG     H22 1793   0.282   3.473   4.954  0.3688 -1.6749  1.1127
   78DG     H23 1794   0.205   3.603   5.041 -0.2095 -1.2249  2.0315
   79DG      C1 1795   1.085   4.830   0.186  0.3323 -0.5284  0.8684
   79DG      C2 1796   1.819   4.624  -0.113  1.1128  0.2524 -0.0554
   79DG      H3 1797   1.091   4.732   0.222  1.8665  1.6512 -0.5210
   79DG      H4 1798   0.984   4.858   0.199  0.8792 -0.5006 -0.0173
   79DG      H5 1799   1.141   4.904   0.244  1.1607 -1.1401 -1.9944
   79DG      H6 1800   1.837   4.551  -0.033 -0.5342 -0.7118  1.4873
   79DG      H7 1801   1.842   4.567  -0.197 -0.6328  0.3545 -0.2050
   79DG      H8 1802   1.900   4.708  -0.101  2.6496  0.5274  0.8749
   79DG      O9 1803   1.122   4.818   0.053  0.3393 -0.1291 -0.3956
   79DG     O10 1804   1.682   4.665  -0.114  0.0046  0.0952  0.1102
   79DG     C11 1805   1.258   4.849   0.030 -0.6709 -0.5107  0.0975
   79DG     C12 1806   1.641   4.735  -0.225 -0.4013 -0.3975  0.5807
   79DG     H13 1807   1.325   4.813   0.106 -0.4532  0.7167  0.1946
   79DG     H14 1808   1.286   4.955   0.032 -1.0171  0.1693 -1.1876
   79DG     H15 1809   1.685   4.674  -0.306  1.5760 -0.2802 -0.0876
   79DG     H16 1810   1.684   4.835  -0.244 -0.0159  2.6823 -2.3051
   79DG     C17 1811   1.302   4.779  -0.101  0.3126 -0.0994 -0.7401
   79DG     C18 1812   1.492   4.748  -0.234 -0.6109  0.1144  0.0405
   79DG     O19 1813   1.441   4.773  -0.108 -0.5887  0.3314 -0.4028
   79DG     H20 1814   1.273   4.835  -0.187  3.7109  0.0726 -0.7532
   79DG     H21 1815   1.273   4.675  -0.110  0.5476  2.1127 -0.0214
   79DG     H22 1816   1.452   4.819  -0.302 -1.8010 -1.2426  1.6845
   79DG     H23 1817   1.457   4.653  -0.278 -0.6388  2.0508 -0.6774
   80DG      C1 1818   3.260   0.347   0.905  0.0073 -0.1599  0.1301
   80DG      C2 1819   3.314   0.188   1.579 -0.4000 -0.0065 -0.6710
   80DG      H3 1820   3.189   0.412   0.854  0.9230  1.4209 -1.1070
   80DG      H4 1821   3.225   0.253   0.903  1.9196  2.2455 -0.8496
   80DG      H5 1822   3.360   0.345   0.863 -2.0167  2.0207  0.6872
   80DG      H6 1823   3.211   0.153   1.604 -1.6598 -1.0395 -1.9112
   80DG      H7 1824   3.364   0.113   1.521  0.3497  2.6895  0.5793
   80DG      H8 1825   3.367   0.206   1.670  0.8805  0.0473 -2.3381
   80DG      O9 1826   3.293   0.386   1.036 -0.2812 -0.0366  0.1367
   80DG     O10 1827   3.303   0.301   1.497 -0.3322  0.3706  0.1097
   80DG     C11 1828   3.367   0.506   1.042 -0.1611  0.5418  0.3519
   80DG     C12 1829   3.431   0.366   1.480  1.1554  0.9872  0.1880
   80DG     H13 1830   3.326   0.576   0.969 -1.0321  0.1021 -1.8432
   80DG     H14 1831   3.467   0.475   1.023 -2.9159  1.4534 -0.4252
   80DG     H15 1832   3.503   0.294   1.448 -1.7782  2.8158  2.9973
   80DG     H16 1833   3.471   0.395   1.576  0.4684 -1.5399  0.1379
   80DG     C17 1834   3.364   0.557   1.191 -0.6553  0.4039 -0.3721
   80DG     C18 1835   3.421   0.501   1.408  0.3033  0.5848 -0.1489
   80DG     O19 1836   3.388   0.450   1.281 -0.0626  0.5237 -0.2344
   80DG     H20 1837   3.281   0.612   1.220 -0.0620 -2.2548 -1.5517
   80DG     H21 1838   3.444   0.635   1.201 -0.8431 -0.3198 -0.1558
   80DG     H22 1839   3.332   0.558   1.437 -0.2301  1.9625  0.4416
   80DG     H23 1840   3.517   0.552   1.423  0.6869 -1.5335  0.9855
   81DG      C1 1841   3.375   5.341   2.617 -0.5326 -0.8821  1.2343
   81DG      C2 1842   3.206   5.778   2.214  0.0646  0.2717 -0.3410
   81DG      H3 1843   3.282   5.358   2.665 -1.6704  1.3997  1.0720
   81DG      H4 1844   3.443   5.280   2.673  2.2270  2.1379  0.7573
   81DG      H5 1845   3.359   5.274   2.533  1.4327 -2.3069 -1.4580
   81DG      H6 1846   3.232   5.700   2.140  0.2577 -1.4187 -2.3276
   81DG      H7 1847   3.118   5.740   2.258  1.4976  0.1026  1.6154
   81DG      H8 1848   3.186   5.877   2.161 -0.3737  1.4227 -0.7417
   81DG      O9 1849   3.447   5.460   2.591 -0.2158 -0.3545 -0.2095
   81DG     O10 1850   3.305   5.794   2.313  0.8329 -0.2661  0.2094
   81DG     C11 1851   3.550   5.436   2.491  0.5526  0.4938 -0.6121
   81DG     C12 1852   3.430   5.828   2.256 -0.5386 -0.2469 -0.1710
   81DG     H13 1853   3.511   5.396   2.401 -0.5345 -1.3828  2.3315
   81DG     H14 1854   3.621   5.361   2.535 -0.9829  2.3756 -1.7468
   81DG     H15 1855   3.440   5.935   2.249 -0.0291  1.5809 -0.6523
   81DG     H16 1856   3.438   5.790   2.158 -1.4273 -0.4883  0.8834
   81DG     C17 1857   3.624   5.563   2.452  0.1700  0.0551 -0.0842
   81DG     C18 1858   3.550   5.768   2.345  0.3030 -0.3857 -0.2175
   81DG     O19 1859   3.516   5.639   2.388 -0.2371  0.2868  0.4528
   81DG     H20 1860   3.712   5.533   2.394 -0.5522  0.4424  1.0438
   81DG     H21 1861   3.662   5.612   2.538  1.1227  0.6541 -1.7782
   81DG     H22 1862   3.641   5.765   2.290 -2.7146 -1.3120  1.4816
   81DG     H23 1863   3.570   5.825   2.428  2.2132  1.3171 -3.3114
   82DG      C1 1864   4.491   1.264   1.561  0.5274 -0.0382  0.1774
   82DG      C2 1865   4.592   1.757   1.098 -0.4904  0.4827 -0.0444
   82DG      H3 1866   4.392   1.291   1.602 -2.6303 -1.0432  1.3367
   82DG      H4 1867   4.541   1.192   1.626 -0.6675  0.4161  0.0656
   82DG      H5 1868   4.474   1.202   1.475  0.9080  1.4232 -0.7869
   82DG      H6 1869   4.655   1.839   1.066  0.4262 -0.9278  0.1248
   82DG      H7 1870   4.566   1.695   1.009 -1.3355 -0.4585  0.7063
   82DG      H8 1871   4.497   1.801   1.133  0.2074 -0.9103  0.1068
   82DG      O9 1872   4.571   1.371   1.528 -0.1671  0.1074 -0.4501
   82DG     O10 1873   4.659   1.666   1.188 -0.5972  0.3350 -0.2631
   82DG     C11 1874   4.595   1.455   1.635  0.1868 -0.6687 -0.3529
   82DG     C12 1875   4.722   1.747   1.290 -0.0120  0.0121  0.6605
   82DG     H13 1876   4.622   1.404   1.722  1.6064  0.5839 -0.0658
   82DG     H14 1877   4.504   1.509   1.664  1.6341  0.4404 -1.9032
   82DG     H15 1878   4.656   1.820   1.340 -0.6288 -3.0510  1.4120
   82DG     H16 1879   4.805   1.801   1.241  0.9468 -0.9474 -1.9064
   82DG     C17 1880   4.708   1.550   1.591  0.6386  0.2511  0.2617
   82DG     C18 1881   4.787   1.662   1.395  0.5818  0.5790 -0.2642
   82DG     O19 1882   4.683   1.592   1.455 -0.4616  0.1524  0.0213
   82DG     H20 1883   4.803   1.492   1.587  2.0204 -1.3865 -0.9423
   82DG     H21 1884   4.728   1.624   1.663 -1.4472 -1.3104 -0.2818
   82DG     H22 1885   4.863   1.595   1.354  1.2021 -2.5672  0.7931
   82DG     H23 1886   4.838   1.726   1.466  2.2625  0.3281 -0.3072
   83DG      C1 1887   2.191   2.782   1.951  0.1146  0.1554  0.1575
   83DG      C2 1888   2.684   3.380   1.851 -0.8798 -0.0976  0.4436
   83DG      H3 1889   2.125   2.771   2.036  0.0448 -0.7490  0.8147
   83DG      H4 1890   2.239   2.683   1.948  2.4714 -0.7824 -0.1595
   83DG      H5 1891   2.141   2.782   1.850  0.6170  0.5734  0.8031
   83DG      H6 1892   2.741   3.418   1.936 -1.7750  1.9041  1.7790
   83DG      H7 1893   2.709   3.440   1.759 -2.3370 -0.0814  0.4598
   83DG      H8 1894   2.581   3.396   1.872  0.1672  0.1410 -1.6975
   83DG      O9 1895   2.279   2.893   1.964 -0.1899  0.6333 -0.1726
   83DG     O10 1896   2.708   3.246   1.821  0.4722  0.1630  0.6405
   83DG     C11 1897   2.399   2.881   1.887  0.3666  0.3271  0.6495
   83DG     C12 1898   2.741   3.183   1.948  0.0877  0.0231  0.2186
   83DG     H13 1899   2.371   2.888   1.783  0.4114 -2.0321  1.4034
   83DG     H14 1900   2.443   2.780   1.896  1.1823 -0.7684 -2.7131
   83DG     H15 1901   2.660   3.192   2.025  0.0344  1.7242  2.3186
   83DG     H16 1902   2.837   3.218   1.992 -0.4598 -0.0326  0.6358
   83DG     C17 1903   2.499   2.990   1.931 -0.0871  0.2189 -0.2382
   83DG     C18 1904   2.743   3.029   1.919  0.5496  0.3980 -0.4858
   83DG     O19 1905   2.618   2.985   1.854 -0.0813  0.4667 -0.2197
   83DG     H20 1906   2.526   2.966   2.035  2.3702 -0.2901 -0.2137
   83DG     H21 1907   2.456   3.091   1.908  1.5563  1.5830 -3.0965
   83DG     H22 1908   2.814   2.994   1.839  0.8411 -0.6551 -1.4324
   83DG     H23 1909   2.761   2.974   2.017  1.1057 -1.1427  1.4454
   84DG      C1 1910   2.058   0.790   1.248 -1.0186  0.3384 -0.3141
   84DG      C2 1911   1.967   1.550   1.605 -0.7394 -0.3310  0.2584
   84DG      H3 1912   2.167   0.806   1.225  1.0463  1.5886  0.2662
   84DG      H4 1913   1.998   0.777   1.158  1.5427 -0.0925  0.7731
   84DG      H5 1914   2.052   0.689   1.290 -0.1440 -0.5114  1.5271
   84DG      H6 1915   2.076   1.570   1.581  0.4309  1.6246  1.7776
   84DG      H7 1916   1.906   1.610   1.542  0.3695  0.5766  0.0773
   84DG      H8 1917   1.942   1.585   1.702  3.5682  1.2106 -1.1837
   84DG      O9 1918   2.015   0.888   1.331  0.0476 -0.4564 -0.5451
   84DG     O10 1919   1.940   1.411   1.619  0.1635 -0.5368 -0.2424
   84DG     C11 1920   1.879   0.898   1.341 -0.2741  0.3921 -0.0091
   84DG     C12 1921   1.949   1.331   1.502 -1.1226  0.4953 -0.2118
   84DG     H13 1922   1.835   0.806   1.369 -0.1094  1.7466  0.5262
   84DG     H14 1923   1.835   0.930   1.243  0.9364  0.0311 -3.6039
   84DG     H15 1924   2.054   1.319   1.492 -0.1915  0.3732  1.7801
   84DG     H16 1925   1.901   1.378   1.416 -0.0760 -0.1859 -1.2290
   84DG     C17 1926   1.836   0.993   1.445  0.2167 -0.6326 -0.2441
   84DG     C18 1927   1.877   1.202   1.531  0.0088  0.5907  0.0122
   84DG     O19 1928   1.895   1.120   1.420  0.3264  0.0529 -0.2584
   84DG     H20 1929   1.876   0.956   1.543 -0.1969  0.6214 -3.6092
   84DG     H21 1930   1.728   1.007   1.431 -0.9789  2.2306  1.2221
   84DG     H22 1931   1.928   1.172   1.611  0.1208  1.9210  0.6777
   84DG     H23 1932   1.772   1.228   1.539  2.2634 -0.0030  1.6769
   85DG      C1 1933   1.301   0.485   4.455 -0.2542 -0.3804 -0.1425
   85DG      C2 1934   0.899   1.220   4.308 -0.4254  0.3327 -0.2612
   85DG      H3 1935   1.385   0.517   4.394 -2.7516  1.0644 -2.0952
   85DG      H4 1936   1.269   0.384   4.425  1.0240 -0.6797  0.3294
   85DG      H5 1937   1.322   0.481   4.563  2.5159  2.5792  2.0666
   85DG      H6 1938   0.813   1.278   4.274 -0.3627  0.3513  1.9984
   85DG      H7 1939   0.915   1.265   4.406  0.2137 -0.4411  0.1166
   85DG      H8 1940   0.977   1.243   4.238 -1.6911  3.2258 -2.6890
   85DG      O9 1941   1.197   0.574   4.413 -0.1835  0.1152  0.1295
   85DG     O10 1942   0.865   1.087   4.319  0.5935 -0.0520 -0.1263
   85DG     C11 1943   1.069   0.534   4.465 -0.3755  1.3066  0.8186
   85DG     C12 1944   0.950   1.013   4.392 -0.6952 -0.7938 -0.0557
   85DG     H13 1945   1.079   0.526   4.576 -0.8695 -2.0027  0.2481
   85DG     H14 1946   1.038   0.428   4.433  3.2078  0.1860  1.2900
   85DG     H15 1947   0.938   1.036   4.494 -0.7890  1.5524 -3.2766
   85DG     H16 1948   1.060   1.031   4.375  0.6460 -1.3459 -1.3333
   85DG     C17 1949   0.963   0.639   4.418 -0.3178  0.3821  0.6581
   85DG     C18 1950   0.909   0.869   4.371 -0.0204 -0.2723  0.3971
   85DG     O19 1951   1.000   0.775   4.434 -0.0571  0.4283 -0.0001
   85DG     H20 1952   0.868   0.617   4.469  1.7666  1.5458  0.4830
   85DG     H21 1953   0.942   0.618   4.311  0.7081 -1.3266  0.8127
   85DG     H22 1954   0.812   0.843   4.405 -0.6388 -1.4054 -0.0394
   85DG     H23 1955   0.902   0.853   4.262 -0.6759  1.4533  0.4328
   86DG      C1 1956   4.482   3.132   2.339 -0.0243  0.0763 -0.0974
   86DG      C2 1957   3.830   3.083   2.591  0.0996 -0.1787  0.2784
   86DG      H3 1958   4.538   3.113   2.435  1.8225  0.6126  1.5165
   86DG      H4 1959   4.542   3.154   2.256  1.2542 -0.8687  0.9205
   86DG      H5 1960   4.445   3.035   2.293 -0.4057  0.2418 -0.7195
   86DG      H6 1961   3.871   2.989   2.621  2.1644  1.4753 -1.6439
   86DG      H7 1962   3.808   3.136   2.684 -0.1945 -0.8801 -0.4132
   86DG      H8 1963   3.733   3.075   2.539  0.7444  3.8513  1.3253
   86DG      O9 1964   4.361   3.211   2.347  0.1657  0.4769  0.0302
   86DG     O10 1965   3.936   3.147   2.513 -0.2305 -0.2877  0.6387
   86DG     C11 1966   4.380   3.328   2.416 -0.2034  0.0409  0.4487
   86DG     C12 1967   3.927   3.289   2.533  0.5759  0.6102  0.2656
   86DG     H13 1968   4.448   3.393   2.353  4.8932  1.9584  1.0695
   86DG     H14 1969   4.428   3.327   2.517  0.8055 -0.5078 -0.6985
   86DG     H15 1970   3.946   3.313   2.633  0.2668  0.5852 -1.4095
   86DG     H16 1971   3.826   3.329   2.525  0.4882  2.3198 -0.5068
   86DG     C17 1972   4.248   3.405   2.423  0.4699  0.1425  0.5819
   86DG     C18 1973   4.015   3.371   2.439  0.4535 -0.6389 -0.2282
   86DG     O19 1974   4.141   3.322   2.465 -0.7901  0.3862  0.0444
   86DG     H20 1975   4.227   3.440   2.321  1.1828  0.5390  1.0455
   86DG     H21 1976   4.260   3.491   2.481  0.3516 -2.5977 -1.8382
   86DG     H22 1977   3.984   3.355   2.332  0.2257 -1.1173 -0.0089
   86DG     H23 1978   4.001   3.480   2.459  0.5383  0.0763 -0.0607
   87DG      C1 1979   0.575   0.760   2.543  0.6248  0.1288 -0.3908
   87DG      C2 1980   0.600   0.764   1.683 -0.3251  0.5579 -0.1775
   87DG      H3 1981   0.655   0.688   2.571  0.9881 -1.2250  1.5638
   87DG      H4 1982   0.500   0.764   2.624 -1.2671 -0.7770 -0.7136
   87DG      H5 1983   0.631   0.855   2.548  0.5711  3.0092 -1.6241
   87DG      H6 1984   0.632   0.865   1.670 -2.2381  0.2721  3.1152
   87DG      H7 1985   0.683   0.691   1.702  0.3373 -0.0638  1.0440
   87DG      H8 1986   0.557   0.747   1.582  1.0403  0.8253  1.2169
   87DG      O9 1987   0.536   0.727   2.411  0.1146  0.6331 -0.3316
   87DG     O10 1988   0.494   0.743   1.777 -0.2442  0.2551 -0.1290
   87DG     C11 1989   0.436   0.821   2.371  0.5610  0.0128 -0.3674
   87DG     C12 1990   0.543   0.782   1.904 -0.3829  0.2902 -0.4632
   87DG     H13 1991   0.476   0.926   2.356 -2.2078  0.2335  2.7253
   87DG     H14 1992   0.364   0.826   2.448 -2.4861  1.8002  1.2213
   87DG     H15 1993   0.575   0.888   1.906 -0.2132 -1.9266  0.8998
   87DG     H16 1994   0.632   0.737   1.935 -0.8884 -0.1877  0.4339
   87DG     C17 1995   0.380   0.780   2.235  0.8443  0.0104 -1.1287
   87DG     C18 1996   0.429   0.770   2.004  0.6785 -0.5244 -0.4093
   87DG     O19 1997   0.477   0.797   2.136  0.9715  0.1632 -0.3999
   87DG     H20 1998   0.308   0.859   2.208  0.1518  1.8164 -0.1737
   87DG     H21 1999   0.339   0.678   2.234 -3.2361  0.2941 -0.1116
   87DG     H22 2000   0.353   0.847   1.979 -0.7364  1.7853 -3.3013
   87DG     H23 2001   0.392   0.669   1.987 -1.4565  0.7268 -1.5826
   88DG      C1 2002   0.033   4.577   1.802 -0.4972 -0.7077 -0.0829
   88DG      C2 2003   0.535   4.451   1.359  0.9476  0.3604 -0.1479
   88DG      H3 2004   0.080   4.567   1.709 -1.6878  2.4416  1.4184
   88DG      H4 2005   0.045   4.675   1.842  1.3021  1.2321  1.1923
   88DG      H5 2006  -0.073   4.555   1.796 -1.4203  0.8349 -0.1702
   88DG      H6 2007   0.455   4.422   1.287 -1.0441  0.3101  0.0546
   88DG      H7 2008   0.523   4.549   1.397 -0.2348  0.2898 -1.0961
   88DG      H8 2009   0.627   4.443   1.303 -1.3545  0.8232  1.3989
   88DG      O9 2010   0.083   4.476   1.889 -0.0686 -0.2940 -0.0503
   88DG     O10 2011   0.528   4.369   1.468 -0.1682  0.4181  0.3479
   88DG     C11 2012   0.083   4.345   1.835 -0.8234 -0.2517 -0.1122
   88DG     C12 2013   0.417   4.412   1.555  0.2688  0.4588 -0.3432
   88DG     H13 2014  -0.012   4.318   1.797  2.0467 -1.4233 -0.8313
   88DG     H14 2015   0.096   4.276   1.913  2.8134  0.3735  1.6092
   88DG     H15 2016   0.323   4.396   1.505  1.9122  0.1790 -1.2153
   88DG     H16 2017   0.406   4.518   1.569  0.4947 -0.7224  0.6528
   88DG     C17 2018   0.196   4.312   1.733 -0.0929 -0.0405 -0.1463
   88DG     C18 2019   0.433   4.348   1.690 -0.6395  0.1629 -0.8155
   88DG     O19 2020   0.319   4.369   1.775  0.2292 -0.5635  0.3361
   88DG     H20 2021   0.168   4.362   1.635  0.2776 -3.3767 -2.6701
   88DG     H21 2022   0.209   4.207   1.712 -1.3568 -1.4073 -2.3618
   88DG     H22 2023   0.453   4.239   1.675 -0.1949 -2.4390  0.7932
   88DG     H23 2024   0.516   4.393   1.748  0.1913 -1.3574 -1.2673
   89DG      C1 2025   1.574   5.208   3.036 -0.3827 -0.0819 -0.0043
   89DG      C2 2026   1.565   5.785   2.767 -0.3612  0.4984 -0.0807
   89DG      H3 2027   1.474   5.249   3.028  2.1140 -1.0982  0.4164
   89DG      H4 2028   1.618   5.241   3.129 -2.4564  1.2612 -1.3678
   89DG      H5 2029   1.557   5.103   3.050 -0.0524 -1.2803 -1.6537
   89DG      H6 2030   1.458   5.765   2.780  1.2697  0.8551  0.9668
   89DG      H7 2031   1.594   5.831   2.859  1.8961  1.2600  0.9297
   89DG      H8 2032   1.576   5.859   2.686 -1.3678 -0.0299  2.1641
   89DG      O9 2033   1.633   5.267   2.918  0.4681  0.0804  0.1869
   89DG     O10 2034   1.658   5.678   2.743  0.0092 -0.1376  0.4373
   89DG     C11 2035   1.775   5.258   2.896  0.8318  0.5442 -0.0465
   89DG     C12 2036   1.652   5.628   2.611  0.0635  0.1992 -0.4258
   89DG     H13 2037   1.803   5.155   2.886 -3.1009  1.7061 -2.2581
   89DG     H14 2038   1.828   5.308   2.977  2.7120  0.5567 -0.2451
   89DG     H15 2039   1.687   5.688   2.522  0.5378 -0.2198 -2.2691
   89DG     H16 2040   1.548   5.602   2.585  0.9723 -0.8791 -0.7022
   89DG     C17 2041   1.795   5.315   2.757 -0.0762  0.6329 -0.2435
   89DG     C18 2042   1.740   5.505   2.615  0.5803 -0.1241 -0.4976
   89DG     O19 2043   1.719   5.435   2.742 -0.0058  0.4390  0.2224
   89DG     H20 2044   1.758   5.234   2.690  0.8578  0.0488 -0.0473
   89DG     H21 2045   1.900   5.334   2.745  0.4929 -4.2829  0.5240
   89DG     H22 2046   1.702   5.447   2.534  2.7514 -1.2054 -0.1657
   89DG     H23 2047   1.842   5.537   2.599 -0.8308  1.7639  1.5602
   90DG      C1 2048   1.670   2.405   4.810 -0.5619  0.2572  0.2686
   90DG      C2 2049   2.282   2.796   5.231 -0.1209  1.1814 -0.2910
   90DG      H3 2050   1.638   2.331   4.889 -0.6194 -0.1455  1.6251
   90DG      H4 2051   1.766   2.370   4.776 -1.8209  0.2216  0.9088
   90DG      H5 2052   1.591   2.404   4.740 -0.2011  1.5854 -0.3506
   90DG      H6 2053   2.256   2.879   5.287  0.9331 -2.6822  2.0429
   90DG      H7 2054   2.270   2.709   5.300 -2.7408 -1.7104 -1.2357
   90DG      H8 2055   2.383   2.818   5.201  0.4545  0.2513 -0.2798
   90DG      O9 2056   1.683   2.535   4.859 -0.4115 -0.0495 -0.3051
   90DG     O10 2057   2.199   2.767   5.121 -0.0390  0.6946 -0.1552
   90DG     C11 2058   1.790   2.554   4.949 -0.4415  0.0912 -0.7597
   90DG     C12 2059   2.249   2.662   5.043  0.6117  0.1884  0.5708
   90DG     H13 2060   1.798   2.453   5.003  2.2052  1.7556 -0.7473
   90DG     H14 2061   1.773   2.627   5.028  3.0647  2.6408  0.6080
   90DG     H15 2062   2.263   2.572   5.104  0.3990  1.3251 -1.1053
   90DG     H16 2063   2.343   2.684   5.000 -0.0899  1.1010 -1.4121
   90DG     C17 2064   1.926   2.598   4.887  0.1602 -0.2719 -0.2126
   90DG     C18 2065   2.149   2.637   4.928  0.2103  0.1511  0.1173
   90DG     O19 2066   2.024   2.605   4.985 -0.1774  0.4438  0.4865
   90DG     H20 2067   1.920   2.699   4.846 -0.2159 -2.7428 -0.8566
   90DG     H21 2068   1.943   2.529   4.812  0.1256 -0.9625  1.6588
   90DG     H22 2069   2.146   2.724   4.866 -0.5666 -1.2431  0.5782
   90DG     H23 2070   2.178   2.554   4.856  0.4089 -2.7160 -4.0994
   91DG      C1 2071   2.166   3.400   0.357 -0.3222  0.3653  0.0584
   91DG      C2 2072   2.149   2.748   0.147  0.1540 -0.4272  0.0642
   91DG      H3 2073   2.143   3.491   0.411  0.0481  1.9213 -1.1005
   91DG      H4 2074   2.160   3.421   0.252  2.0766 -1.6126 -0.6480
   91DG      H5 2075   2.262   3.372   0.387  1.6179  1.3144  1.3490
   91DG      H6 2076   2.125   2.852   0.137 -2.5776 -1.9365 -0.4418
   91DG      H7 2077   2.247   2.713   0.103  0.2353  2.3799 -0.0980
   91DG      H8 2078   2.072   2.693   0.103 -2.8212  1.7076 -0.8632
   91DG      O9 2079   2.079   3.293   0.397 -0.0786 -0.2226 -0.2497
   91DG     O10 2080   2.147   2.703   0.282 -0.1437 -0.5022 -0.3158
   91DG     C11 2081   2.116   3.159   0.376  0.1136 -0.5506 -0.2291
   91DG     C12 2082   2.012   2.697   0.339  0.6249 -0.1204 -0.8986
   91DG     H13 2083   2.188   3.134   0.460  1.5069 -1.2208 -0.2964
   91DG     H14 2084   2.175   3.151   0.288  0.0483  0.5665  0.2956
   91DG     H15 2085   2.013   2.651   0.436 -1.3274  0.9850 -1.4345
   91DG     H16 2086   1.945   2.632   0.292 -0.1879 -0.7155  1.2862
   91DG     C17 2087   1.992   3.065   0.385 -0.5799 -0.6200  0.4987
   91DG     C18 2088   1.945   2.836   0.343  0.4208  0.8176 -0.1112
   91DG     O19 2089   2.044   2.934   0.357 -0.0687  0.8977  0.0215
   91DG     H20 2090   1.923   3.094   0.306  1.0709 -0.4967  1.8932
   91DG     H21 2091   1.943   3.068   0.485 -2.3535 -0.4064  4.2242
   91DG     H22 2092   1.879   2.860   0.261 -1.4480  0.3240  2.1510
   91DG     H23 2093   1.890   2.841   0.435  0.5598 -0.8476  1.8408
   92DG      C1 2094   2.706   4.746   2.561 -1.0191 -0.0103 -0.6915
   92DG      C2 2095   3.012   5.295   3.062 -0.1356  0.2419  0.7576
   92DG      H3 2096   2.638   4.756   2.646  3.2579  1.9319 -1.9448
   92DG      H4 2097   2.746   4.647   2.550 -5.7984 -1.0868  0.1716
   92DG      H5 2098   2.660   4.771   2.462 -1.0970 -0.7749 -0.5795
   92DG      H6 2099   2.940   5.371   3.099 -1.8406  0.7624 -0.0601
   92DG      H7 2100   3.017   5.202   3.110  0.2770  1.7591  2.3994
   92DG      H8 2101   3.115   5.341   3.077 -0.2504  1.7370  1.6073
   92DG      O9 2102   2.812   4.847   2.574 -0.4513 -0.3285 -0.1267
   92DG     O10 2103   2.992   5.276   2.920  0.2063 -0.2629  0.1283
   92DG     C11 2104   2.751   4.977   2.581 -1.3589  0.8801  0.3583
   92DG     C12 2105   3.092   5.187   2.868 -0.0658  0.1201 -0.0623
   92DG     H13 2106   2.688   4.976   2.668 -1.7775  0.3464 -1.7103
   92DG     H14 2107   2.677   4.988   2.501 -1.9268 -0.6093 -0.7841
   92DG     H15 2108   3.083   5.102   2.929 -2.5132  2.0274  1.4879
   92DG     H16 2109   3.186   5.231   2.870  0.0466 -0.1275 -2.5230
   92DG     C17 2110   2.868   5.081   2.595  0.2241 -0.2312 -0.1174
   92DG     C18 2111   3.064   5.157   2.723 -0.2281 -0.0972  0.2314
   92DG     O19 2112   2.943   5.064   2.716 -0.5631 -0.1319 -0.0312
   92DG     H20 2113   2.819   5.179   2.588 -0.9964  0.1818 -2.2599
   92DG     H21 2114   2.932   5.080   2.508  2.0021  1.2360  0.0701
   92DG     H22 2115   3.048   5.255   2.673 -1.4926 -0.4262 -0.2584
   92DG     H23 2116   3.155   5.116   2.679 -3.3341  0.2611  0.0625
   93DG      C1 2117   0.137   1.039   1.904 -0.3012 -0.0066 -0.5302
   93DG      C2 2118  -0.141   1.698   1.890  0.4730  0.5101 -0.0127
   93DG      H3 2119   0.128   1.001   2.002  0.8868 -1.1373 -1.6353
   93DG      H4 2120   0.195   0.980   1.838  2.2036  1.6303 -0.6631
   93DG      H5 2121   0.030   1.036   1.875  0.8245  2.2453 -0.0286
   93DG      H6 2122  -0.167   1.689   1.999 -0.2126  1.8398  0.4709
   93DG      H7 2123  -0.123   1.800   1.879 -1.0406 -0.6835  0.3954
   93DG      H8 2124  -0.231   1.671   1.831 -2.2166 -1.7118  2.5761
   93DG      O9 2125   0.190   1.180   1.907 -0.1020  0.6770 -0.0610
   93DG     O10 2126  -0.034   1.628   1.842  0.2263 -0.0662  0.4757
   93DG     C11 2127   0.216   1.218   1.774 -0.3246 -0.0650  0.0827
   93DG     C12 2128   0.087   1.654   1.906 -0.2914 -0.0916 -0.4924
   93DG     H13 2129   0.134   1.200   1.703 -0.1567  3.1709 -0.8422
   93DG     H14 2130   0.298   1.153   1.751 -0.9275  2.8179 -0.6072
   93DG     H15 2131   0.084   1.598   2.003  2.0896 -0.7067  1.8507
   93DG     H16 2132   0.122   1.754   1.935  0.2160 -0.5760  0.1775
   93DG     C17 2133   0.270   1.364   1.759 -0.6174  0.5335  0.3057
   93DG     C18 2134   0.189   1.586   1.822 -0.4699 -0.0842 -0.4994
   93DG     O19 2135   0.172   1.443   1.819 -0.0410 -0.4280 -0.3595
   93DG     H20 2136   0.270   1.381   1.652  0.6577  0.1509  0.2147
   93DG     H21 2137   0.374   1.381   1.799  0.6915  1.4818  2.4360
   93DG     H22 2138   0.199   1.623   1.718 -2.1156 -1.6757 -1.9602
   93DG     H23 2139   0.277   1.619   1.863 -3.0036 -0.9764  0.5617
   94DG      C1 2140   5.251   1.747   0.661  0.3034 -0.5121  0.7370
   94DG      C2 2141   5.348   1.380   0.775  0.4830  1.2753 -0.4999
   94DG      H3 2142   5.281   1.647   0.688 -0.7170 -0.1539 -0.8400
   94DG      H4 2143   5.144   1.733   0.638 -0.5094 -3.2025  1.0061
   94DG      H5 2144   5.257   1.825   0.735  0.4148 -2.0851  1.1024
   94DG      H6 2145   5.438   1.356   0.714 -0.0809 -0.7223 -2.0149
   94DG      H7 2146   5.333   1.291   0.835  1.5580  2.2294 -1.0477
   94DG      H8 2147   5.265   1.399   0.707 -1.7861  2.0480  0.0844
   94DG      O9 2148   5.325   1.796   0.547  0.2925  0.6058  0.6138
   94DG     O10 2149   5.365   1.486   0.866 -0.2017 -0.7662 -0.0308
   94DG     C11 2150   5.454   1.835   0.581 -0.3801 -0.0104 -0.3000
   94DG     C12 2151   5.500   1.499   0.905 -0.0283  0.1856  0.3222
   94DG     H13 2152   5.461   1.919   0.654 -0.8032 -1.9480  2.3465
   94DG     H14 2153   5.506   1.867   0.488 -0.2627 -1.5218  2.2929
   94DG     H15 2154   5.532   1.395   0.919  1.5463  0.4113  2.1571
   94DG     H16 2155   5.504   1.548   1.000 -0.1776  0.3972 -0.3389
   94DG     C17 2156   5.530   1.720   0.624  0.4684 -0.3590  0.4373
   94DG     C18 2157   5.583   1.571   0.799  0.4281  0.7376 -0.5100
   94DG     O19 2158   5.509   1.680   0.759 -0.0574 -0.1228  0.5228
   94DG     H20 2159   5.631   1.741   0.612 -3.5207 -0.8245  1.2585
   94DG     H21 2160   5.509   1.634   0.561 -0.7633 -1.8813 -1.1061
   94DG     H22 2161   5.676   1.603   0.830  1.7191 -0.2604  1.6864
   94DG     H23 2162   5.586   1.501   0.713  1.9251 -0.3725  1.8700
   95DG      C1 2163   0.548   3.017   3.274 -0.0025  0.3978 -0.1116
   95DG      C2 2164   0.109   2.663   4.040  0.0863  0.4983  0.6738
   95DG      H3 2165   0.525   3.021   3.169  0.5309 -1.1265  0.5133
   95DG      H4 2166   0.593   2.923   3.292 -0.7684  0.0568 -1.7747
   95DG      H5 2167   0.620   3.102   3.303 -1.0392  2.9052 -0.1504
   95DG      H6 2168   0.089   2.583   3.972  0.6494  2.9649 -1.6825
   95DG      H7 2169   0.203   2.646   4.093 -0.3561  0.9565 -0.9248
   95DG      H8 2170   0.019   2.665   4.095 -0.6618  1.8203  2.6566
   95DG      O9 2171   0.434   3.028   3.358 -0.0491  0.3076  0.0474
   95DG     O10 2172   0.113   2.785   3.962  0.5172  0.0565  0.8974
   95DG     C11 2173   0.437   2.964   3.488 -0.5098 -0.4818  0.6080
   95DG     C12 2174   0.230   2.791   3.876 -0.6784  0.5636  0.4834
   95DG     H13 2175   0.502   3.009   3.563  1.2512 -3.2008 -0.1470
   95DG     H14 2176   0.473   2.862   3.471 -1.9748 -0.3657 -1.4876
   95DG     H15 2177   0.270   2.690   3.860  2.8697  1.2565  4.5903
   95DG     H16 2178   0.310   2.853   3.910  1.2370  1.2131  1.5395
   95DG     C17 2179   0.294   2.947   3.544  0.4374 -0.0469  0.2628
   95DG     C18 2180   0.191   2.839   3.734 -0.0529  0.0913 -0.2574
   95DG     O19 2181   0.311   2.872   3.665 -0.2247 -0.3269  0.3468
   95DG     H20 2182   0.227   2.893   3.475 -0.8805 -0.4646  0.0268
   95DG     H21 2183   0.263   3.054   3.556 -0.5801 -3.3100  1.4586
   95DG     H22 2184   0.142   2.767   3.669  3.4013 -0.6954  0.1825
   95DG     H23 2185   0.132   2.930   3.746  2.5025  0.1059  0.3069
   96DG      C1 2186   2.484   2.720   2.787 -0.8252  0.0181  0.7926
   96DG      C2 2187   1.860   2.519   2.395  0.1085 -0.0925  0.6181
   96DG      H3 2188   2.476   2.628   2.843 -0.2953 -0.8087 -0.8738
   96DG      H4 2189   2.451   2.794   2.861 -0.7827  3.6469 -0.2863
   96DG      H5 2190   2.590   2.736   2.766  0.4304 -2.3516 -0.6133
   96DG      H6 2191   1.885   2.414   2.366  1.7286  1.1331  0.5843
   96DG      H7 2192   1.789   2.503   2.480  1.5783 -2.2269  0.6990
   96DG      H8 2193   1.796   2.553   2.309  1.7952  1.3043 -1.7550
   96DG      O9 2194   2.417   2.722   2.660  0.0939 -0.3915 -0.0789
   96DG     O10 2195   1.966   2.610   2.418  0.1125  0.1041  0.5164
   96DG     C11 2196   2.371   2.841   2.600  0.2831  0.4313  0.0104
   96DG     C12 2197   2.064   2.602   2.319  0.0258 -1.1923  0.2236
   96DG     H13 2198   2.457   2.913   2.593  0.1186  0.0122  1.1532
   96DG     H14 2199   2.304   2.889   2.668  1.2797 -1.0541  0.1967
   96DG     H15 2200   2.020   2.596   2.221  0.0711  1.7059 -0.7439
   96DG     H16 2201   2.132   2.520   2.336 -0.8321  1.0127 -0.7372
   96DG     C17 2202   2.319   2.809   2.459  0.0668  0.6845 -0.0752
   96DG     C18 2203   2.139   2.737   2.320  0.1584  0.4203 -0.2372
   96DG     O19 2204   2.190   2.754   2.452  0.6118  0.0112  0.3771
   96DG     H20 2205   2.401   2.754   2.424 -3.1507  1.2811  0.8624
   96DG     H21 2206   2.313   2.899   2.396 -0.2147 -0.9417  0.0811
   96DG     H22 2207   2.223   2.726   2.253 -0.1580 -1.3171 -0.0731
   96DG     H23 2208   2.078   2.830   2.294 -2.3399 -1.5230  0.6928
   97DG      C1 2209   0.951   1.355   0.668  0.5761 -0.2354 -0.1288
   97DG      C2 2210   0.813   0.838   0.834 -0.6592  0.4848 -0.2432
   97DG      H3 2211   0.934   1.253   0.634  1.1815  0.3502  0.4263
   97DG      H4 2212   0.980   1.338   0.773  0.7744 -0.0996  0.2688
   97DG      H5 2213   1.046   1.383   0.616  1.0793  0.5116  0.5147
   97DG      H6 2214   0.922   0.846   0.859  0.2915  2.2323 -1.1899
   97DG      H7 2215   0.762   0.765   0.900  0.6370  0.2331 -1.5782
   97DG      H8 2216   0.824   0.788   0.734  0.6797  0.3679 -1.2550
   97DG      O9 2217   0.852   1.455   0.658  0.0677  0.1902 -1.2512
   97DG     O10 2218   0.751   0.959   0.815 -0.3135 -0.3934  0.2860
   97DG     C11 2219   0.723   1.411   0.653 -0.0256 -0.7650  0.9298
   97DG     C12 2220   0.720   1.020   0.938 -0.3097 -0.4226  0.0481
   97DG     H13 2221   0.701   1.344   0.570 -0.3504 -0.5254  0.5706
   97DG     H14 2222   0.660   1.504   0.639 -0.9544 -0.1178 -0.4384
   97DG     H15 2223   0.811   1.040   0.997  0.2551 -0.5661  2.7250
   97DG     H16 2224   0.648   0.957   0.994  0.3876  0.5569  0.0574
   97DG     C17 2225   0.665   1.349   0.783 -0.2902 -0.2831 -0.5053
   97DG     C18 2226   0.649   1.148   0.906  0.6322 -0.4277  0.1126
   97DG     O19 2227   0.729   1.232   0.821  0.5071  0.5593  0.1416
   97DG     H20 2228   0.563   1.336   0.760  3.1811 -0.0023 -2.2165
   97DG     H21 2229   0.658   1.425   0.859 -0.1246 -1.1290  1.5308
   97DG     H22 2230   0.562   1.118   0.844 -1.1976  1.8676 -3.6222
   97DG     H23 2231   0.619   1.208   0.999  0.0559  0.7334 -0.0804
   98DG      C1 2232   3.772   1.296   3.682  0.3403 -0.5433 -0.6221
   98DG      C2 2233   4.563   1.402   3.400  0.1619 -0.0013  0.4438
   98DG      H3 2234   3.766   1.186   3.687 -1.1614 -0.4950  0.6046
   98DG      H4 2235   3.758   1.326   3.580  0.0870  0.2353 -0.7011
   98DG      H5 2236   3.682   1.328   3.744  1.8690  0.8026 -0.6652
   98DG      H6 2237   4.597   1.300   3.401  3.0238  2.8287  2.0230
   98DG      H7 2238   4.563   1.414   3.289 -1.8290 -0.0658 -2.5758
   98DG      H8 2239   4.643   1.463   3.442  1.9258  0.3914  0.4590
   98DG      O9 2240   3.888   1.354   3.740 -0.5610  0.4352 -0.0477
   98DG     O10 2241   4.441   1.418   3.476  0.2087  0.2497  0.8651
   98DG     C11 2242   4.002   1.344   3.650  0.1444 -0.1947  0.1710
   98DG     C12 2243   4.394   1.550   3.481  0.8991  0.1075  0.1754
   98DG     H13 2244   3.978   1.367   3.547  1.9453 -1.7197 -0.5870
   98DG     H14 2245   4.027   1.234   3.646 -1.2539 -0.1898 -0.7778
   98DG     H15 2246   4.342   1.561   3.382 -0.3339  2.0853 -2.5488
   98DG     H16 2247   4.477   1.616   3.494 -0.2509 -1.7987 -0.3511
   98DG     C17 2248   4.100   1.456   3.678 -0.2524 -0.2245  0.1171
   98DG     C18 2249   4.295   1.561   3.599  0.3271  0.0899 -0.7116
   98DG     O19 2250   4.195   1.457   3.580 -0.0063 -0.3065  0.4146
   98DG     H20 2251   4.142   1.435   3.768 -2.4371  0.5328 -0.4578
   98DG     H21 2252   4.055   1.557   3.675  1.2640 -0.5057  1.2680
   98DG     H22 2253   4.359   1.535   3.679 -3.0300 -2.4437  0.5980
   98DG     H23 2254   4.256   1.664   3.619 -1.2123  0.3930 -0.1531
   99DG      C1 2255   1.878   2.250   3.696  0.0832 -0.5266 -0.7229
   99DG      C2 2256   2.206   3.083   3.771 -0.4792 -0.3779 -0.3946
   99DG      H3 2257   1.840   2.194   3.610  1.7271  1.8696  1.5424
   99DG      H4 2258   1.796   2.241   3.772 -1.8567  0.0584 -1.4276
   99DG      H5 2259   1.964   2.198   3.733 -1.0693 -1.4574  0.5607
   99DG      H6 2260   2.158   3.168   3.725  1.6629 -0.4250  0.1658
   99DG      H7 2261   2.189   3.073   3.875 -4.2965 -1.7295 -0.9896
   99DG      H8 2262   2.311   3.099   3.756  1.5112  0.3183 -0.8285
   99DG      O9 2263   1.915   2.372   3.634 -0.4381 -0.7292  0.2785
   99DG     O10 2264   2.156   2.963   3.717 -0.3007  0.7740  0.0092
   99DG     C11 2265   1.944   2.485   3.712 -0.1220 -0.1808  0.5449
   99DG     C12 2266   2.217   2.842   3.772 -0.5888 -0.7692 -0.3417
   99DG     H13 2267   2.045   2.467   3.756  0.1753 -2.9094  1.6952
   99DG     H14 2268   1.867   2.485   3.785 -1.8362 -1.0932 -1.8153
   99DG     H15 2269   2.205   2.843   3.878  2.5535 -1.3784  0.1943
   99DG     H16 2270   2.320   2.850   3.752  1.5955 -1.1205  1.8356
   99DG     C17 2271   1.954   2.616   3.623 -0.4449  0.2004 -0.3789
   99DG     C18 2272   2.161   2.713   3.699 -0.2746 -0.7394 -0.0528
   99DG     O19 2273   2.023   2.718   3.692 -0.1012  0.2522 -0.2858
   99DG     H20 2274   1.853   2.639   3.598 -0.4660  1.2427  0.2210
   99DG     H21 2275   2.013   2.599   3.529  0.5566  1.3950  1.8395
   99DG     H22 2276   2.198   2.710   3.596  2.1874  0.4832 -2.6755
   99DG     H23 2277   2.184   2.630   3.759  0.7341  2.5829 -1.0362
  100DG      C1 2278   3.582   0.640   5.008  0.4187 -0.1569 -0.3911
  100DG      C2 2279   3.637   0.992   5.667  0.3841 -0.0823 -0.3406
  100DG      H3 2280   3.517   0.559   4.972  1.3657 -3.4400  2.3045
  100DG      H4 2281   3.677   0.647   4.947 -0.6270  0.4525 -1.9778
  100DG      H5 2282   3.524   0.728   4.985  3.8336  1.0584  0.6343
  100DG      H6 2283   3.747   1.004   5.668 -3.4148  0.9157  0.0504
  100DG      H7 2284   3.594   1.084   5.624  0.9344 -1.2799  0.1004
  100DG      H8 2285   3.603   0.999   5.769  2.0239  0.2588  1.4809
  100DG      O9 2286   3.606   0.626   5.146 -0.2980 -0.0691 -0.0458
  100DG     O10 2287   3.596   0.877   5.600  0.3133  0.0335 -0.2730
  100DG     C11 2288   3.500   0.604   5.232  0.5802  0.9132  0.1108
  100DG     C12 2289   3.655   0.764   5.656  0.4373 -0.2813 -0.0285
  100DG     H13 2290   3.432   0.528   5.185 -0.7351 -1.7246 -1.6966
  100DG     H14 2291   3.440   0.691   5.230  0.9707 -1.0429  0.1613
  100DG     H15 2292   3.635   0.748   5.761 -0.4386 -0.9412 -0.7233
  100DG     H16 2293   3.762   0.758   5.647 -1.0640 -0.8774 -2.2484
  100DG     C17 2294   3.540   0.564   5.371  0.4516  0.9373 -0.3124
  100DG     C18 2295   3.595   0.647   5.582  0.6963 -0.1568  0.3142
  100DG     O19 2296   3.566   0.677   5.446  0.0192  0.2425  0.0214
  100DG     H20 2297   3.631   0.508   5.364 -0.2356  1.6450 -0.7863
  100DG     H21 2298   3.466   0.490   5.410  1.1873 -1.9003 -1.1608
  100DG     H22 2299   3.655   0.560   5.592  0.5985 -0.9334 -0.6825
  100DG     H23 2300   3.496   0.623   5.628  0.1238  0.4934  2.9731
  101DG      C1 2301   0.705   5.126   0.889  0.2804 -0.1999  0.3772
  101DG      C2 2302   0.760   4.415   0.505 -0.8092  0.3028  0.0080
  101DG      H3 2303   0.617   5.077   0.943 -0.7788 -1.4983  1.1917
  101DG      H4 2304   0.666   5.235   0.888  0.5869  1.9084  0.7952
  101DG      H5 2305   0.785   5.130   0.962  0.3314 -1.9817 -1.3083
  101DG      H6 2306   0.767   4.398   0.392 -1.6264  2.0634 -1.5243
  101DG      H7 2307   0.793   4.321   0.554  1.1143  2.4204  0.2401
  101DG      H8 2308   0.654   4.442   0.530 -0.9665 -0.5364 -0.7504
  101DG      O9 2309   0.731   5.073   0.761 -0.0094 -0.2814 -0.5178
  101DG     O10 2310   0.852   4.518   0.546  0.7064 -0.2271  0.1607
  101DG     C11 2311   0.810   4.953   0.761  0.3438  0.3781  0.0342
  101DG     C12 2312   0.863   4.614   0.441  0.3345 -0.1993 -0.2348
  101DG     H13 2313   0.748   4.876   0.798 -2.3302  1.2649 -1.2645
  101DG     H14 2314   0.898   4.961   0.821 -1.7773  0.4443  0.5276
  101DG     H15 2315   0.772   4.643   0.389  1.5874 -0.1153  0.8865
  101DG     H16 2316   0.930   4.572   0.360  2.1308  2.4383  0.7437
  101DG     C17 2317   0.839   4.921   0.615  0.0848  0.4863 -0.0066
  101DG     C18 2318   0.931   4.738   0.479 -0.0478 -0.6976 -0.2129
  101DG     O19 2319   0.899   4.792   0.605  0.1357  0.7746  0.2018
  101DG     H20 2320   0.910   4.988   0.571 -1.3267 -0.9847 -1.0793
  101DG     H21 2321   0.751   4.915   0.550  0.0084 -1.8495 -0.7151
  101DG     H22 2322   1.038   4.721   0.498  0.8967  0.9338  1.2454
  101DG     H23 2323   0.916   4.818   0.400 -0.6852  1.9139 -1.3119
  102DG      C1 2324   4.950   2.919   5.481  0.0757 -0.2942 -0.6158
  102DG      C2 2325   4.237   2.687   5.756 -0.2629  0.5912  0.5634
  102DG      H3 2326   5.027   3.000   5.515 -0.5226  1.2320 -1.7170
  102DG      H4 2327   4.872   2.960   5.426 -0.7073 -2.0470 -1.8733
  102DG      H5 2328   5.010   2.851   5.419  0.5680  2.4257  0.7089
  102DG      H6 2329   4.249   2.621   5.671  1.8163  0.0441  1.3692
  102DG      H7 2330   4.201   2.620   5.835 -2.5254  0.6854  2.1004
  102DG      H8 2331   4.154   2.753   5.747  0.4690 -0.7389  1.7057
  102DG      O9 2332   4.894   2.860   5.601 -0.0225 -0.6495 -0.2501
  102DG     O10 2333   4.363   2.747   5.785 -0.2479 -0.0277 -0.0986
  102DG     C11 2334   4.788   2.776   5.569 -0.5998 -0.6070  0.0455
  102DG     C12 2335   4.454   2.651   5.839 -0.0978 -0.5418  0.9013
  102DG     H13 2336   4.819   2.700   5.503 -1.1587  0.6354  0.8566
  102DG     H14 2337   4.709   2.826   5.512 -3.0153 -1.7290 -1.6269
  102DG     H15 2338   4.468   2.567   5.768 -0.2109 -1.1392  0.0775
  102DG     H16 2339   4.418   2.600   5.929 -0.7212  1.4021 -0.4390
  102DG     C17 2340   4.734   2.698   5.689 -0.3390  0.2947  0.3663
  102DG     C18 2341   4.576   2.737   5.868 -0.3564  0.1200  0.6886
  102DG     O19 2342   4.634   2.785   5.749 -0.7805 -0.0034  0.1240
  102DG     H20 2343   4.812   2.676   5.764 -1.1927 -3.1683  1.4339
  102DG     H21 2344   4.691   2.603   5.664 -2.2375  0.6021  0.3895
  102DG     H22 2345   4.555   2.817   5.931  1.2920  0.1756 -1.9841
  102DG     H23 2346   4.648   2.683   5.930  0.7955  0.1701 -0.4806
  103DG      C1 2347   3.562   0.252   3.070 -0.2676 -0.0497 -0.5804
  103DG      C2 2348   3.274  -0.246   3.386  0.1259 -0.4607  0.8453
  103DG      H3 2349   3.643   0.294   3.005  1.7918  0.0142 -0.1981
  103DG      H4 2350   3.532   0.342   3.135 -1.6257 -2.0951  0.3580
  103DG      H5 2351   3.478   0.240   3.005  1.5558 -3.2636 -2.2444
  103DG      H6 2352   3.226  -0.341   3.360  1.3287  0.7900  0.8920
  103DG      H7 2353   3.292  -0.244   3.493 -0.2490  3.4250  2.5161
  103DG      H8 2354   3.202  -0.159   3.366 -0.0135  4.0778  0.2035
  103DG      O9 2355   3.605   0.128   3.120 -0.6545  0.4982 -0.6485
  103DG     O10 2356   3.392  -0.207   3.322 -0.0866 -0.4455  0.1816
  103DG     C11 2357   3.729   0.132   3.193  0.5931  0.3876  0.1609
  103DG     C12 2358   3.509  -0.255   3.373  0.1834 -0.3726 -0.5756
  103DG     H13 2359   3.726   0.180   3.288 -0.6979  0.0397 -0.0092
  103DG     H14 2360   3.813   0.162   3.128  0.1294 -0.3662  0.7372
  103DG     H15 2361   3.498  -0.358   3.363 -1.4089  3.3349  1.3790
  103DG     H16 2362   3.519  -0.230   3.481 -0.1844 -1.5907  0.3850
  103DG     C17 2363   3.746  -0.019   3.216  0.3530  0.0506  0.3475
  103DG     C18 2364   3.622  -0.215   3.286  0.3041  0.2398  0.3370
  103DG     O19 2365   3.628  -0.072   3.274 -0.3412 -0.0859 -0.1460
  103DG     H20 2366   3.838  -0.044   3.273 -0.9620 -1.0802  0.2128
  103DG     H21 2367   3.765  -0.081   3.123 -0.5784 -2.7532 -2.0834
  103DG     H22 2368   3.709  -0.252   3.332  1.0053  0.9774  1.4953
  103DG     H23 2369   3.608  -0.265   3.188 -0.1078 -1.1387  0.1173
  104DG      C1 2370   4.013   2.538   1.532 -0.3687 -0.5493  0.5900
  104DG      C2 2371   3.506   2.845   1.949  0.9608 -0.4415  0.1969
  104DG      H3 2372   3.985   2.590   1.439  0.4373  2.9554 -2.2318
  104DG      H4 2373   4.007   2.437   1.502 -3.4522 -0.4567  0.4403
  104DG      H5 2374   4.121   2.568   1.556  0.7270 -0.1180 -1.8019
  104DG      H6 2375   3.438   2.808   2.029  0.8403  0.7898 -1.3499
  104DG      H7 2376   3.585   2.915   1.983  2.4450 -1.5280  2.8859
  104DG      H8 2377   3.441   2.890   1.874 -2.3143 -0.0014 -0.4702
  104DG      O9 2378   3.923   2.570   1.637 -0.2447  0.2365 -0.0557
  104DG     O10 2379   3.570   2.729   1.900  0.1173  0.0310  0.2108
  104DG     C11 2380   3.951   2.701   1.691  0.0634  0.3613 -0.1423
  104DG     C12 2381   3.631   2.653   2.005 -0.3748  0.7631 -0.6458
  104DG     H13 2382   3.936   2.770   1.612  0.7228 -0.0303  1.0091
  104DG     H14 2383   4.054   2.707   1.723 -0.4550 -0.4212 -0.0191
  104DG     H15 2384   3.645   2.558   1.958 -1.9175  0.0273  0.1111
  104DG     H16 2385   3.562   2.629   2.090 -1.3517 -1.6545  1.0615
  104DG     C17 2386   3.850   2.733   1.801 -0.3423 -0.2912 -0.2015
  104DG     C18 2387   3.772   2.703   2.033 -0.7718 -0.9775 -0.5217
  104DG     O19 2388   3.870   2.670   1.927  0.4922 -0.2558 -1.0007
  104DG     H20 2389   3.754   2.712   1.755 -4.4733 -2.5715 -0.7872
  104DG     H21 2390   3.845   2.841   1.812 -1.0448 -0.6139 -0.4299
  104DG     H22 2391   3.783   2.809   2.037 -1.4036  0.6295  1.6812
  104DG     H23 2392   3.806   2.653   2.121  0.8520  1.0785 -0.1532
  105DG      C1 2393   3.323   4.421   3.427  0.4029 -0.1306  0.6667
  105DG      C2 2394   3.020   4.165   2.872  0.4686  0.5201 -0.3187
  105DG      H3 2395   3.360   4.415   3.530  2.2464 -0.3754 -0.0916
  105DG      H4 2396   3.306   4.520   3.401  2.3635 -0.6530 -1.3557
  105DG      H5 2397   3.387   4.374   3.360  1.4713  0.0405  0.9387
  105DG      H6 2398   3.072   4.073   2.834  3.8152  2.1714 -0.4292
  105DG      H7 2399   2.918   4.141   2.844 -0.0474 -1.5161  0.2527
  105DG      H8 2400   3.048   4.259   2.817 -0.1709 -1.7364 -0.5920
  105DG      O9 2401   3.201   4.354   3.421 -0.8178  0.0768  0.5637
  105DG     O10 2402   3.031   4.189   3.015 -0.1783  0.4427 -0.0585
  105DG     C11 2403   3.221   4.218   3.450  0.1019  0.4897 -0.0502
  105DG     C12 2404   2.974   4.084   3.088 -0.0309 -0.4227 -0.1906
  105DG     H13 2405   3.239   4.204   3.559 -3.4172  0.6112 -0.2880
  105DG     H14 2406   3.303   4.166   3.396 -0.8027  1.0082  1.9649
  105DG     H15 2407   3.038   3.997   3.096 -0.8141 -2.1879  2.4709
  105DG     H16 2408   2.879   4.052   3.047  1.4447 -1.4245 -0.3008
  105DG     C17 2409   3.089   4.149   3.417 -1.2135 -0.2043 -0.1259
  105DG     C18 2410   2.948   4.131   3.234  0.0475 -0.5173 -0.4301
  105DG     O19 2411   3.063   4.188   3.282 -0.0287  0.2035 -0.5224
  105DG     H20 2412   3.004   4.178   3.475 -0.2587 -2.0408  2.8125
  105DG     H21 2413   3.108   4.044   3.424  0.7595  1.1833  1.4234
  105DG     H22 2414   2.859   4.198   3.241  0.8360 -0.0965 -0.4290
  105DG     H23 2415   2.904   4.041   3.279  1.8489  1.0806 -0.3575
  106DG      C1 2416   3.804   4.620   2.250 -0.7464  0.2069 -0.0078
  106DG      C2 2417   3.311   4.950   2.454  0.6671 -0.3772  0.6745
  106DG      H3 2418   3.884   4.562   2.198 -0.2503  0.6989 -2.0786
  106DG      H4 2419   3.798   4.591   2.348  1.2082  1.0804 -1.7362
  106DG      H5 2420   3.852   4.718   2.247  0.7157  0.0448 -1.0868
  106DG      H6 2421   3.375   5.037   2.448  2.5837 -1.8349  0.0460
  106DG      H7 2422   3.211   4.989   2.473  1.9433 -0.5631  0.0585
  106DG      H8 2423   3.340   4.894   2.547  2.2265 -0.4187  1.8354
  106DG      O9 2424   3.680   4.625   2.177  0.0802  0.9348  0.1772
  106DG     O10 2425   3.319   4.868   2.344  0.1744 -0.5679  0.1772
  106DG     C11 2426   3.603   4.507   2.179 -0.1371  0.6093 -0.0254
  106DG     C12 2427   3.242   4.752   2.349  0.5207 -0.4367 -0.3448
  106DG     H13 2428   3.605   4.453   2.277  0.2000 -0.4927  3.6522
  106DG     H14 2429   3.637   4.442   2.105  0.8464  2.0335  2.1552
  106DG     H15 2430   3.133   4.772   2.345 -1.3883 -0.1252  1.7143
  106DG     H16 2431   3.266   4.683   2.428  2.8498 -0.7129 -1.2174
  106DG     C17 2432   3.459   4.536   2.150  0.0616  0.1219  0.8362
  106DG     C18 2433   3.271   4.669   2.231 -0.3613  0.6947 -0.3562
  106DG     O19 2434   3.414   4.639   2.229 -0.8208 -0.4997 -0.0911
  106DG     H20 2435   3.389   4.453   2.161 -0.7170 -2.0483  1.6880
  106DG     H21 2436   3.454   4.564   2.044 -0.6953 -0.1285 -0.2244
  106DG     H22 2437   3.219   4.575   2.241 -1.3297 -1.4025 -2.3856
  106DG     H23 2438   3.229   4.711   2.139  1.9970 -3.6716 -2.0258
  107DG      C1 2439   1.676   0.382   4.987  0.4341  0.2975 -0.2499
  107DG      C2 2440   1.679   0.585   5.766  0.7714  0.4062 -0.2284
  107DG      H3 2441   1.712   0.291   4.927  1.4301  2.4267  0.0540
  107DG      H4 2442   1.739   0.464   4.957 -0.6534 -1.2431  1.3746
  107DG      H5 2443   1.576   0.397   4.947 -1.0755 -2.2823  1.5148
  107DG      H6 2444   1.738   0.673   5.745 -0.3056 -3.2897  0.7876
  107DG      H7 2445   1.581   0.632   5.798  0.0914  0.1128  2.8515
  107DG      H8 2446   1.719   0.538   5.852  2.2018 -0.4120 -0.4508
  107DG      O9 2447   1.676   0.373   5.129 -0.1973 -0.3856  0.1801
  107DG     O10 2448   1.644   0.493   5.663 -0.2494 -0.1000 -0.0000
  107DG     C11 2449   1.588   0.281   5.184  0.3366  0.5260  0.3800
  107DG     C12 2450   1.578   0.546   5.548 -0.5360  0.3831  0.9792
  107DG     H13 2451   1.580   0.188   5.125 -0.2971 -0.3707  1.0468
  107DG     H14 2452   1.489   0.327   5.192 -0.6026 -0.0632 -0.0011
  107DG     H15 2453   1.649   0.621   5.503  1.8611 -0.6455  0.5326
  107DG     H16 2454   1.487   0.611   5.560 -0.7192  2.1608  3.1082
  107DG     C17 2455   1.638   0.251   5.330  0.1829  0.0445 -0.1044
  107DG     C18 2456   1.536   0.443   5.449  0.3729  0.8421  0.0069
  107DG     O19 2457   1.655   0.368   5.414  0.0782  0.1236 -0.1329
  107DG     H20 2458   1.722   0.189   5.317 -1.3154  2.5350  2.0027
  107DG     H21 2459   1.573   0.176   5.376  2.1607 -1.5471  0.7366
  107DG     H22 2460   1.456   0.387   5.499 -2.2537  0.7398 -2.0598
  107DG     H23 2461   1.503   0.499   5.361  1.8744  0.1014 -2.1050
  108DG      C1 2462   0.273   1.812   4.735 -0.7373 -0.2615 -0.1275
  108DG      C2 2463  -0.444   1.755   4.692 -0.0104  0.3191  0.0736
  108DG      H3 2464   0.261   1.703   4.735  0.8179  0.2449  0.8070
  108DG      H4 2465   0.282   1.834   4.844 -1.2543  0.0309 -0.5193
  108DG      H5 2466   0.367   1.829   4.678  2.7135 -1.7380  0.3820
  108DG      H6 2467  -0.445   1.679   4.616  3.1337 -1.2711 -0.7141
  108DG      H7 2468  -0.478   1.700   4.782 -1.0820 -0.7481 -1.0409
  108DG      H8 2469  -0.515   1.837   4.667 -1.1651 -2.2138 -0.8305
  108DG      O9 2470   0.166   1.870   4.661 -0.2519  0.1399  0.1861
  108DG     O10 2471  -0.303   1.784   4.705 -0.1158 -0.2587  0.2085
  108DG     C11 2472   0.136   2.001   4.704 -0.0735  0.1262 -0.5089
  108DG     C12 2473  -0.261   1.787   4.841  0.2647  0.1604  0.0522
  108DG     H13 2474   0.088   2.051   4.621  0.0209 -1.8934  0.3511
  108DG     H14 2475   0.233   2.054   4.723  0.7509  1.5357 -0.6767
  108DG     H15 2476  -0.288   1.699   4.900 -2.6193  2.0109  1.5065
  108DG     H16 2477  -0.306   1.864   4.906  3.1271 -0.4635 -0.1205
  108DG     C17 2478   0.048   2.004   4.830  0.1924  0.0749  0.2165
  108DG     C18 2479  -0.105   1.827   4.852 -0.2798  0.2630  0.7053
  108DG     O19 2480  -0.080   1.959   4.795  0.7465 -0.2638 -0.3562
  108DG     H20 2481   0.034   2.109   4.859 -0.5538 -0.8234 -1.6453
  108DG     H21 2482   0.087   1.951   4.923  1.0095 -1.7857  0.1439
  108DG     H22 2483  -0.080   1.825   4.956 -0.8418 -1.2965 -1.7416
  108DG     H23 2484  -0.048   1.751   4.797 -0.7901 -3.8846 -0.6487
  109DG      C1 2485   1.998   3.026   2.609 -0.1221  0.6541 -0.1073
  109DG      C2 2486   1.944   2.310   2.793 -0.0524  0.5512 -0.1369
  109DG      H3 2487   2.037   2.998   2.508  3.5714  0.4467 -1.7514
  109DG      H4 2488   2.057   3.114   2.630 -0.3008 -0.5941  0.2791
  109DG      H5 2489   1.890   3.044   2.592 -3.1363 -1.6865 -0.4726
  109DG      H6 2490   1.848   2.284   2.835 -0.7582 -0.6952 -1.4287
  109DG      H7 2491   1.915   2.300   2.690 -3.1290 -1.3583  0.3332
  109DG      H8 2492   2.022   2.233   2.813 -0.2467 -1.7577  0.0693
  109DG      O9 2493   2.027   2.912   2.693  0.1394 -0.0687 -0.1115
  109DG     O10 2494   1.979   2.442   2.803  0.1780 -0.2605  0.4028
  109DG     C11 2495   2.038   2.955   2.830  0.1141  0.1009 -0.0300
  109DG     C12 2496   2.002   2.485   2.947  1.0738  0.1581 -0.3264
  109DG     H13 2497   1.935   2.987   2.860 -1.3957 -0.4128  0.6781
  109DG     H14 2498   2.112   3.038   2.836  2.1540 -0.7234  0.5672
  109DG     H15 2499   2.074   2.415   2.985  5.4099 -1.2123  0.4320
  109DG     H16 2500   1.907   2.480   3.000 -1.5348  0.0031 -1.0629
  109DG     C17 2501   2.085   2.839   2.916  0.5622  0.9921 -0.1298
  109DG     C18 2502   2.071   2.617   2.963  0.4000  0.4235 -0.1851
  109DG     O19 2503   2.021   2.719   2.882 -0.2087 -0.1684 -0.1248
  109DG     H20 2504   2.072   2.869   3.025  2.4058  2.4801  1.2062
  109DG     H21 2505   2.197   2.824   2.899 -1.4157 -0.0878 -1.4632
  109DG     H22 2506   2.072   2.653   3.065  0.1180 -1.5734 -1.5946
  109DG     H23 2507   2.182   2.600   2.944  1.5956  1.2401  0.0842
  110DG      C1 2508   0.217   3.069   4.501 -0.2617 -0.3550 -0.0859
  110DG      C2 2509   0.355   2.357   4.045 -0.4688 -0.4324  0.1257
  110DG      H3 2510   0.154   3.114   4.433 -1.5542 -3.0656 -0.5803
  110DG      H4 2511   0.250   3.150   4.565  1.3282  0.4989 -0.6362
  110DG      H5 2512   0.159   2.997   4.559 -0.4015 -0.0048 -0.2906
  110DG      H6 2513   0.275   2.384   3.976 -1.9541 -1.3064  0.5739
  110DG      H7 2514   0.440   2.323   3.989 -1.6215  1.1474 -1.0265
  110DG      H8 2515   0.327   2.277   4.111  0.0786 -1.8766  1.0717
  110DG      O9 2516   0.329   3.005   4.432 -0.2330 -0.3457  0.6926
  110DG     O10 2517   0.386   2.475   4.119  0.1135 -0.3031  0.4698
  110DG     C11 2518   0.298   2.932   4.318 -0.7452  0.1497  0.8348
  110DG     C12 2519   0.481   2.556   4.055 -0.2056  0.1190 -0.2006
  110DG     H13 2520   0.261   3.007   4.241  1.7316 -2.3158 -1.8488
  110DG     H14 2521   0.224   2.862   4.337  1.7636 -1.1741 -0.1321
  110DG     H15 2522   0.452   2.597   3.962 -1.1818 -1.0114  1.2614
  110DG     H16 2523   0.567   2.498   4.030 -0.9522  1.0547 -0.6006
  110DG     C17 2524   0.422   2.856   4.279 -0.1509  0.1471  0.5227
  110DG     C18 2525   0.515   2.669   4.153  0.7656 -0.3726 -0.2857
  110DG     O19 2526   0.407   2.764   4.172  0.3961  0.7124 -0.1211
  110DG     H20 2527   0.458   2.802   4.365 -0.1099  0.1695  0.5103
  110DG     H21 2528   0.497   2.935   4.271 -0.8268  0.4606  0.7890
  110DG     H22 2529   0.554   2.629   4.245  1.1739 -0.9617 -0.0785
  110DG     H23 2530   0.594   2.721   4.103  0.2413 -3.8789  0.4009
  111DG      C1 2531   1.488   3.978   3.966  0.3581 -0.2920  0.1554
  111DG      C2 2532   1.290   3.416   3.588 -0.3260 -0.7984 -0.3779
  111DG      H3 2533   1.564   4.045   3.992  0.1656 -0.1147 -0.6771
  111DG      H4 2534   1.433   3.961   4.065  2.3629 -2.9423  2.1831
  111DG      H5 2535   1.415   4.041   3.911 -0.6266 -1.3805 -0.0946
  111DG      H6 2536   1.228   3.407   3.674 -0.8132 -1.1441  0.4281
  111DG      H7 2537   1.248   3.464   3.502  1.6891  0.1379  0.2219
  111DG      H8 2538   1.300   3.309   3.562 -0.4584  1.6059  1.7705
  111DG      O9 2539   1.531   3.857   3.900  0.1096 -0.1439 -0.8329
  111DG     O10 2540   1.419   3.482   3.620 -0.5826 -0.7751 -0.2177
  111DG     C11 2541   1.644   3.807   3.947  0.0972  1.0798 -0.3111
  111DG     C12 2542   1.489   3.403   3.718 -0.0119 -0.3308 -0.0236
  111DG     H13 2543   1.634   3.786   4.056 -0.5027 -1.9485 -0.3775
  111DG     H14 2544   1.724   3.887   3.940  2.9905  0.5111  0.4562
  111DG     H15 2545   1.519   3.304   3.679  1.4642 -0.8685  1.6272
  111DG     H16 2546   1.409   3.379   3.793 -0.2252  2.9572  1.0633
  111DG     C17 2547   1.682   3.678   3.879  0.0840  0.4025  0.2742
  111DG     C18 2548   1.604   3.487   3.770 -1.0252  0.5940 -0.4369
  111DG     O19 2549   1.567   3.611   3.831  0.0122 -0.0994  0.2848
  111DG     H20 2550   1.741   3.624   3.953 -2.8176  1.9377 -0.7722
  111DG     H21 2551   1.745   3.696   3.789 -0.4450 -3.1928 -2.0429
  111DG     H22 2552   1.651   3.416   3.832 -1.9040  0.0477 -1.2535
  111DG     H23 2553   1.674   3.501   3.687  2.4583  1.5040 -1.3358
  112DG      C1 2554   2.881   3.329   2.863  0.1934 -0.9034 -0.1056
  112DG      C2 2555   2.979   3.804   2.293  0.6100 -0.2684  0.7472
  112DG      H3 2556   2.854   3.405   2.939 -0.0084  0.7173 -1.0732
  112DG      H4 2557   2.976   3.288   2.887  0.7463 -2.6846  0.1833
  112DG      H5 2558   2.824   3.246   2.879  0.7329  0.6277 -1.4465
  112DG      H6 2559   3.084   3.805   2.312  1.2192 -3.1096  1.5896
  112DG      H7 2560   2.977   3.810   2.188  0.4632 -2.1395 -1.4725
  112DG      H8 2561   2.931   3.898   2.330  1.2779  1.2100  0.3674
  112DG      O9 2562   2.870   3.371   2.724  0.4788  0.2092 -0.2367
  112DG     O10 2563   2.906   3.689   2.342  0.1011 -0.1479  0.0797
  112DG     C11 2564   2.905   3.270   2.635 -0.3807  0.1817  1.1224
  112DG     C12 2565   2.927   3.576   2.261 -1.1447  0.3329  0.9835
  112DG     H13 2566   2.874   3.167   2.660 -0.7626  3.1544 -0.1474
  112DG     H14 2567   3.019   3.273   2.622  0.3668  0.7151  1.1148
  112DG     H15 2568   3.032   3.568   2.235  2.2863  0.5484  1.3190
  112DG     H16 2569   2.878   3.588   2.155 -1.4350  3.7922 -1.0606
  112DG     C17 2570   2.836   3.293   2.497  0.0236 -0.6574 -0.3386
  112DG     C18 2571   2.876   3.448   2.314 -0.1925  0.7613 -0.6075
  112DG     O19 2572   2.897   3.419   2.450  0.5691  0.1524  0.0393
  112DG     H20 2573   2.723   3.292   2.518 -1.8092 -0.7115  2.3692
  112DG     H21 2574   2.857   3.213   2.431 -1.2689 -1.5115 -0.9824
  112DG     H22 2575   2.767   3.458   2.307 -0.0454  0.8257  0.7040
  112DG     H23 2576   2.911   3.364   2.252  2.5564 -0.0123  0.6260
  113DG      C1 2577   1.778   1.161   4.241  0.2755 -0.1438  0.8929
  113DG      C2 2578   2.450   1.405   4.351  0.1846  0.2169 -0.2703
  113DG      H3 2579   1.795   1.180   4.344 -2.7800  0.9565 -1.8109
  113DG      H4 2580   1.707   1.079   4.238  0.5252  3.6477  2.1366
  113DG      H5 2581   1.725   1.246   4.202  0.8835  1.3519 -0.8925
  113DG      H6 2582   2.483   1.374   4.453  2.1374 -0.5426  0.8959
  113DG      H7 2583   2.525   1.445   4.290 -1.2538  0.6254  2.8954
  113DG      H8 2584   2.382   1.486   4.366  1.9956  0.2384  0.6590
  113DG      O9 2585   1.897   1.169   4.173 -0.4969  0.1647 -0.6999
  113DG     O10 2586   2.377   1.307   4.278 -0.0497  0.5386  0.1730
  113DG     C11 2587   1.964   1.047   4.173  0.2420  0.0283 -0.0308
  113DG     C12 2588   2.335   1.351   4.143 -0.3378 -0.5680  0.2766
  113DG     H13 2589   1.909   0.964   4.121  0.6208  0.8244 -2.4138
  113DG     H14 2590   1.973   1.020   4.278  0.7520  0.4044 -2.0765
  113DG     H15 2591   2.412   1.385   4.074 -2.4038 -1.8688 -2.0083
  113DG     H16 2592   2.258   1.432   4.145 -0.4955  0.9207  1.1335
  113DG     C17 2593   2.099   1.059   4.103  0.4800 -0.0918 -0.7829
  113DG     C18 2594   2.261   1.227   4.080  0.0957 -0.3071  0.3566
  113DG     O19 2595   2.165   1.168   4.170  0.1778 -0.1869 -0.2499
  113DG     H20 2596   2.069   1.098   4.004  1.1771 -0.2848 -1.6709
  113DG     H21 2597   2.160   0.970   4.097 -1.2699  2.1062 -3.0689
  113DG     H22 2598   2.219   1.252   3.981  0.8517  0.9200  2.4687
  113DG     H23 2599   2.333   1.147   4.071 -1.6371  1.9750 -0.1413
  114DG      C1 2600   3.729   4.127   1.773 -0.2520  0.3919  0.4799
  114DG      C2 2601   3.205   3.759   1.484 -0.2016  0.1669 -0.2187
  114DG      H3 2602   3.830   4.128   1.821 -0.2799  0.0560 -0.5230
  114DG      H4 2603   3.676   4.217   1.794  0.3655 -3.9202 -0.5874
  114DG      H5 2604   3.758   4.112   1.674 -0.6440  0.7757  0.7371
  114DG      H6 2605   3.153   3.674   1.513  0.6383 -1.4760 -1.5441
  114DG      H7 2606   3.144   3.847   1.496  1.8878  2.2012  0.3680
  114DG      H8 2607   3.232   3.752   1.386 -0.8292 -2.3355  1.5309
  114DG      O9 2608   3.663   4.006   1.814 -0.6701  0.2448 -0.6257
  114DG     O10 2609   3.323   3.774   1.564 -0.2945  0.0977 -0.3606
  114DG     C11 2610   3.736   3.893   1.781 -0.0984 -0.4780 -0.0759
  114DG     C12 2611   3.419   3.677   1.534  0.1837  0.4916  0.2210
  114DG     H13 2612   3.830   3.898   1.828 -0.7874  0.4392 -2.0643
  114DG     H14 2613   3.759   3.889   1.678 -1.6289  0.1441 -0.3495
  114DG     H15 2614   3.428   3.661   1.425 -0.6766 -2.3201 -0.3395
  114DG     H16 2615   3.383   3.574   1.577  2.1076 -3.1589 -1.0885
  114DG     C17 2616   3.656   3.775   1.815  1.0164  0.1844  0.4105
  114DG     C18 2617   3.554   3.716   1.596 -0.2111  0.6746  0.8155
  114DG     O19 2618   3.541   3.767   1.733  0.0239  0.0782 -0.1157
  114DG     H20 2619   3.623   3.771   1.922  2.9365  0.0111 -0.3709
  114DG     H21 2620   3.713   3.680   1.809 -1.0423 -1.4276  0.9888
  114DG     H22 2621   3.612   3.633   1.598 -1.1283  4.7680 -0.9283
  114DG     H23 2622   3.600   3.797   1.529 -1.8749  1.0875 -3.7916
  115DG      C1 2623   5.004   4.229   2.152  0.0107 -0.0505  0.1006
  115DG      C2 2624   4.808   4.709   1.684 -0.0239 -0.3298  0.7499
  115DG      H3 2625   4.922   4.177   2.114  1.8239 -2.4364 -1.5513
  115DG      H4 2626   4.966   4.266   2.247 -2.4592 -1.8476  1.8789
  115DG      H5 2627   5.073   4.149   2.164  0.0670  0.5191 -1.0828
  115DG      H6 2628   4.720   4.647   1.683 -0.0171 -0.3507 -0.8989
  115DG      H7 2629   4.770   4.811   1.704  2.1050  2.2785  2.0590
  115DG      H8 2630   4.853   4.695   1.589  1.3446 -0.3987  0.3100
  115DG      O9 2631   5.052   4.325   2.052  0.2957 -0.0757  0.0686
  115DG     O10 2632   4.894   4.661   1.782 -0.2544  0.0767 -0.0622
  115DG     C11 2633   5.164   4.403   2.098  0.1160 -0.3847 -0.0265
  115DG     C12 2634   5.008   4.741   1.789  0.0941 -0.1917 -0.0134
  115DG     H13 2635   5.250   4.334   2.109 -0.1504  2.5469 -0.3677
  115DG     H14 2636   5.147   4.454   2.185 -1.1621 -0.0032 -3.0162
  115DG     H15 2637   4.993   4.826   1.863  2.0308  1.8991  1.3518
  115DG     H16 2638   5.027   4.797   1.692 -0.4358 -0.1468 -4.2133
  115DG     C17 2639   5.211   4.497   1.978  0.0507  0.3856 -0.4827
  115DG     C18 2640   5.137   4.671   1.820 -0.3496 -0.7966 -0.4687
  115DG     O19 2641   5.110   4.597   1.941 -0.1574  0.5995  0.2446
  115DG     H20 2642   5.234   4.446   1.882  0.8245 -2.5859 -1.0145
  115DG     H21 2643   5.302   4.548   2.011  0.4217  2.4151 -4.1730
  115DG     H22 2644   5.170   4.606   1.737 -0.9199  0.1785 -1.8444
  115DG     H23 2645   5.216   4.744   1.833 -0.0255  2.0579 -0.3640
  116DG      C1 2646   4.613   4.787   3.516  0.4435  0.0355  0.0430
  116DG      C2 2647   4.330   5.566   3.810  0.3997 -0.3491  0.3546
  116DG      H3 2648   4.640   4.774   3.412 -0.3802 -2.3922  2.0822
  116DG      H4 2649   4.520   4.722   3.527 -0.7612 -1.8508  1.6149
  116DG      H5 2650   4.698   4.747   3.574  4.0204 -0.8452 -1.5908
  116DG      H6 2651   4.337   5.569   3.696  1.0301 -0.8428 -1.7247
  116DG      H7 2652   4.225   5.523   3.830 -0.1039 -1.4346 -0.5081
  116DG      H8 2653   4.326   5.666   3.854 -1.8795  1.3421 -0.5837
  116DG      O9 2654   4.582   4.919   3.563  0.2197  0.3323 -0.4688
  116DG     O10 2655   4.436   5.481   3.844  0.0148 -0.3838 -0.4889
  116DG     C11 2656   4.567   4.915   3.709  0.2633 -0.2781 -0.5098
  116DG     C12 2657   4.432   5.355   3.787  0.5952 -0.3176  0.0070
  116DG     H13 2658   4.664   4.901   3.752 -0.1873 -3.5494  0.2256
  116DG     H14 2659   4.501   4.833   3.740  4.3643  0.9827  0.2806
  116DG     H15 2660   4.370   5.355   3.694 -3.5787 -0.8911  0.4440
  116DG     H16 2661   4.366   5.293   3.853  0.1555 -1.9222  0.8299
  116DG     C17 2662   4.492   5.046   3.759  0.0429  0.3473 -0.4042
  116DG     C18 2663   4.572   5.282   3.776 -0.2246 -0.0289  0.0152
  116DG     O19 2664   4.559   5.164   3.699  0.4767  0.5141  0.1531
  116DG     H20 2665   4.487   5.050   3.866 -0.5363  0.6747  0.4814
  116DG     H21 2666   4.393   5.039   3.718  2.0926  1.8873  2.6017
  116DG     H22 2667   4.641   5.354   3.725  0.3858 -0.0860 -1.1198
  116DG     H23 2668   4.610   5.251   3.874  0.1408  2.2372 -0.5387
  117DG      C1 2669   1.253   2.744   1.887  0.0466  0.5356 -0.7319
  117DG      C2 2670   1.313   3.339   2.234  0.4592 -0.1834  0.5811
  117DG      H3 2671   1.146   2.772   1.888 -2.3807 -0.0541 -0.3360
  117DG      H4 2672   1.278   2.703   1.982  1.5411  1.7065  0.6031
  117DG      H5 2673   1.279   2.667   1.816 -1.9905  0.1349  0.1423
  117DG      H6 2674   1.229   3.281   2.272 -0.1805  2.1947  2.3783
  117DG      H7 2675   1.398   3.329   2.306 -0.5848  0.0187  1.0524
  117DG      H8 2676   1.276   3.445   2.224 -1.7951  2.3189 -0.8063
  117DG      O9 2677   1.318   2.866   1.867  0.1404 -0.1010 -0.0707
  117DG     O10 2678   1.334   3.275   2.109  0.9083  0.3205 -0.3752
  117DG     C11 2679   1.455   2.870   1.892  0.4924 -0.5965  0.1429
  117DG     C12 2680   1.449   3.323   2.046  0.0455 -0.3337 -0.2215
  117DG     H13 2681   1.497   2.803   1.817 -0.2472 -1.6433  1.0186
  117DG     H14 2682   1.494   2.843   1.998  4.2130 -2.2088 -1.2637
  117DG     H15 2683   1.536   3.321   2.112 -1.2987 -1.6151  0.0826
  117DG     H16 2684   1.449   3.431   2.016 -1.7700 -0.6459 -1.1231
  117DG     C17 2685   1.501   3.015   1.861 -0.5190  0.5087 -0.5815
  117DG     C18 2686   1.480   3.241   1.920  0.1257 -0.6332  1.1540
  117DG     O19 2687   1.441   3.105   1.945  0.0173  0.1596 -0.8381
  117DG     H20 2688   1.479   3.026   1.756  1.5233 -0.6793 -0.6574
  117DG     H21 2689   1.611   3.033   1.872 -0.9824  0.3100 -0.3224
  117DG     H22 2690   1.425   3.278   1.835  0.6169  1.2667  1.1478
  117DG     H23 2691   1.583   3.245   1.896  2.9314 -0.8255 -0.1228
  118DG      C1 2692   4.753   3.986   1.371 -0.1190  0.4693  0.4625
  118DG      C2 2693   4.993   4.574   1.013  0.3334  0.2050 -0.5596
  118DG      H3 2694   4.772   3.880   1.393  0.6123  1.2823  1.1810
  118DG      H4 2695   4.659   4.021   1.330 -0.0070 -1.7401 -0.7832
  118DG      H5 2696   4.768   4.044   1.467 -1.5223 -0.1434  1.2121
  118DG      H6 2697   5.031   4.650   1.083  3.6782 -1.6160 -0.9844
  118DG      H7 2698   5.040   4.579   0.914  1.1763  2.2319 -2.2748
  118DG      H8 2699   4.886   4.594   1.003  0.2390 -0.8200 -1.7639
  118DG      O9 2700   4.849   4.025   1.278  0.4120  0.8454  0.5766
  118DG     O10 2701   5.006   4.444   1.068  0.1892  0.3700 -0.4020
  118DG     C11 2702   4.987   4.027   1.323 -0.1436 -0.5195 -0.0921
  118DG     C12 2703   5.143   4.419   1.094 -1.0584  0.2464  0.2263
  118DG     H13 2704   5.019   3.932   1.341 -0.7337  1.4874  0.7747
  118DG     H14 2705   5.014   4.076   1.418 -1.1402  0.2472 -0.3128
  118DG     H15 2706   5.172   4.478   1.176  0.8666 -1.4140 -1.5631
  118DG     H16 2707   5.214   4.441   1.015  0.6302 -3.4752  0.7004
  118DG     C17 2708   5.072   4.074   1.210  0.3652  0.4097 -0.0946
  118DG     C18 2709   5.166   4.270   1.116 -0.4140  0.0008 -0.3549
  118DG     O19 2710   5.052   4.213   1.182  0.4894  0.1424  0.0609
  118DG     H20 2711   5.043   4.023   1.116 -0.7569 -0.6840 -0.8360
  118DG     H21 2712   5.177   4.065   1.244 -5.4354  0.2224 -0.5932
  118DG     H22 2713   5.176   4.213   1.024 -0.1269  0.0636  0.1211
  118DG     H23 2714   5.254   4.262   1.175 -0.1496 -1.3968 -2.3922
  119DG      C1 2715   2.507   0.610   4.636  0.9006  0.0147 -0.4428
  119DG      C2 2716   3.126   1.098   4.429 -0.8480 -0.1325  0.3835
  119DG      H3 2717   2.469   0.526   4.569  0.0873  1.0791 -0.8507
  119DG      H4 2718   2.430   0.675   4.658  2.3505 -1.4212 -0.0679
  119DG      H5 2719   2.539   0.578   4.731 -1.4608 -2.4368 -0.9696
  119DG      H6 2720   3.148   1.157   4.516  0.1988 -1.6388 -0.3211
  119DG      H7 2721   3.202   1.092   4.345  0.5677  1.2697  1.0732
  119DG      H8 2722   3.042   1.130   4.371  1.3894 -1.2063 -1.2127
  119DG      O9 2723   2.616   0.691   4.595  0.8872  0.0926 -0.0965
  119DG     O10 2724   3.104   0.965   4.463 -0.0915  0.4806 -0.3179
  119DG     C11 2725   2.742   0.626   4.613  0.7884 -0.0323  0.1695
  119DG     C12 2726   2.985   0.954   4.540 -0.9050 -0.9325 -0.2927
  119DG     H13 2727   2.802   0.631   4.520  0.0094  1.1622 -1.6532
  119DG     H14 2728   2.730   0.518   4.641  0.5832  1.8004 -2.3510
  119DG     H15 2729   2.898   0.966   4.475 -0.2264  2.5554  0.5031
  119DG     H16 2730   2.985   1.031   4.609  0.6551  0.5621 -2.2876
  119DG     C17 2731   2.820   0.692   4.731 -0.3057 -0.0769  0.5399
  119DG     C18 2732   2.984   0.826   4.620 -0.4616  0.6164  0.2871
  119DG     O19 2733   2.857   0.823   4.689 -0.1179 -0.1490 -0.4495
  119DG     H20 2734   2.913   0.640   4.757 -1.4464 -1.4739 -0.0795
  119DG     H21 2735   2.749   0.684   4.814  0.6949  0.1184 -0.6573
  119DG     H22 2736   2.991   0.745   4.549 -2.3823 -0.9608  2.4141
  119DG     H23 2737   3.075   0.830   4.682  2.8783 -1.3902  3.2154
  120DG      C1 2738   4.976   2.880   0.746 -0.3311 -0.3576  0.0075
  120DG      C2 2739   5.206   3.380   0.261  0.1034  0.1639  0.1019
  120DG      H3 2740   5.010   2.908   0.846  2.2533  1.2935 -0.2533
  120DG      H4 2741   5.011   2.781   0.721  0.9145  0.8997  1.7209
  120DG      H5 2742   4.870   2.884   0.735  2.4880 -0.5818 -0.6760
  120DG      H6 2743   5.232   3.338   0.168 -0.8863  0.3943  1.2897
  120DG      H7 2744   5.121   3.442   0.229 -0.4336  0.5496 -3.6531
  120DG      H8 2745   5.285   3.451   0.290  1.3542 -0.3118  2.2182
  120DG      O9 2746   5.027   2.959   0.640  0.6413  0.1313  0.3125
  120DG     O10 2747   5.177   3.283   0.363 -0.0497 -0.1201  0.0912
  120DG     C11 2748   4.994   2.900   0.510 -0.3376  0.7365  0.0182
  120DG     C12 2749   5.294   3.197   0.388 -0.1569  0.2975 -0.1209
  120DG     H13 2750   4.888   2.905   0.485 -0.6516 -0.5796 -1.3978
  120DG     H14 2751   5.029   2.795   0.507  0.9258 -1.3614 -1.9363
  120DG     H15 2752   5.380   3.253   0.428 -0.1544 -0.1343 -1.5254
  120DG     H16 2753   5.321   3.146   0.298 -0.2029 -1.6931  0.1832
  120DG     C17 2754   5.061   2.987   0.399 -0.0718 -1.1491  0.3130
  120DG     C18 2755   5.261   3.081   0.478  0.5488 -0.3947  0.1409
  120DG     O19 2756   5.197   2.974   0.421 -0.2838 -0.1119  0.5436
  120DG     H20 2757   5.013   3.086   0.393 -0.3453 -1.2086  0.7555
  120DG     H21 2758   5.043   2.945   0.295  1.5675 -2.9991 -2.9817
  120DG     H22 2759   5.350   3.027   0.512  0.1686 -1.7417  0.3407
  120DG     H23 2760   5.219   3.118   0.569 -0.2614  0.0856  2.5241
  121DG      C1 2761   0.587   5.421   3.524  0.0086 -0.8054  0.7759
  121DG      C2 2762   0.667   4.714   3.956 -0.4434  0.6322 -0.2401
  121DG      H3 2763   0.504   5.491   3.514 -0.5676  1.7799 -0.1871
  121DG      H4 2764   0.596   5.385   3.418 -0.7409 -0.4064  0.6035
  121DG      H5 2765   0.685   5.478   3.540  2.0200  0.5148 -0.3486
  121DG      H6 2766   0.582   4.718   4.021 -0.2697  0.5996 -1.0455
  121DG      H7 2767   0.649   4.619   3.903 -3.1605 -0.6009 -0.1425
  121DG      H8 2768   0.745   4.694   4.029 -0.0201  2.6769 -2.4883
  121DG      O9 2769   0.552   5.313   3.604  0.1160  0.3493 -0.2178
  121DG     O10 2770   0.688   4.826   3.874  0.0121 -0.2110  0.1424
  121DG     C11 2771   0.531   5.339   3.740 -0.5615 -0.4486  0.3028
  121DG     C12 2772   0.577   4.858   3.790 -0.1696  0.1157  0.5664
  121DG     H13 2773   0.488   5.435   3.772  0.0423 -1.3138 -0.4015
  121DG     H14 2774   0.632   5.340   3.777  0.4050 -1.5030  0.9018
  121DG     H15 2775   0.519   4.766   3.761 -1.3003 -0.7317 -0.5516
  121DG     H16 2776   0.615   4.885   3.696 -0.5550 -1.1637  1.0827
  121DG     C17 2777   0.466   5.220   3.808  0.3967  0.2808 -0.1518
  121DG     C18 2778   0.487   4.976   3.836 -0.2654  0.6054  0.0746
  121DG     O19 2779   0.548   5.105   3.793  0.8624 -0.5383  0.2662
  121DG     H20 2780   0.376   5.212   3.754  0.2615  1.4281  0.0756
  121DG     H21 2781   0.438   5.246   3.907 -2.9448  0.2528 -0.2929
  121DG     H22 2782   0.393   4.972   3.789  1.3721  5.1941 -2.6021
  121DG     H23 2783   0.454   4.977   3.944 -0.6400  3.4654 -2.4927
  122DG      C1 2784   1.392   2.433   1.247 -0.6990 -0.3316 -0.1451
  122DG      C2 2785   1.171   1.971   0.632  0.6078  0.2352 -0.5350
  122DG      H3 2786   1.463   2.503   1.208  0.7507  1.7751  0.3963
  122DG      H4 2787   1.439   2.389   1.334  2.3343 -0.4241  0.3273
  122DG      H5 2788   1.299   2.484   1.256 -0.5143 -1.2339 -0.2861
  122DG      H6 2789   1.136   2.058   0.577  1.5043  0.4525 -0.8185
  122DG      H7 2790   1.184   1.895   0.557 -0.6250 -1.6003  2.1009
  122DG      H8 2791   1.080   1.938   0.682  0.9591 -0.3614  0.1353
  122DG      O9 2792   1.372   2.322   1.163 -0.6145 -0.1834 -0.2689
  122DG     O10 2793   1.264   1.995   0.737  0.5795  0.1128  0.4241
  122DG     C11 2794   1.301   2.219   1.228 -0.6071  0.5004 -0.5073
  122DG     C12 2795   1.253   2.130   0.788  0.3879  0.0514 -0.4710
  122DG     H13 2796   1.196   2.242   1.239 -0.2969  2.4232 -1.2628
  122DG     H14 2797   1.339   2.200   1.326 -2.9124  1.5959 -2.7260
  122DG     H15 2798   1.158   2.173   0.790  1.0332 -0.0035  2.3205
  122DG     H16 2799   1.307   2.190   0.709  0.0262  1.6208  0.7197
  122DG     C17 2800   1.309   2.086   1.149  0.1884  0.7530 -0.1671
  122DG     C18 2801   1.316   2.152   0.925  0.7890  0.3157 -0.9786
  122DG     O19 2802   1.243   2.082   1.024 -0.0489 -0.0267  0.8885
  122DG     H20 2803   1.256   2.008   1.207  1.1696 -0.3159 -0.1638
  122DG     H21 2804   1.414   2.066   1.151 -1.6504  2.0753 -1.3831
  122DG     H22 2805   1.418   2.109   0.928 -0.5355 -1.4356  0.2201
  122DG     H23 2806   1.325   2.257   0.945  2.0314 -1.3918 -1.5590
  123DG      C1 2807   1.038   5.311   4.728 -0.2086  0.8393  0.2732
  123DG      C2 2808   1.695   5.368   4.696  0.1572 -0.3964 -0.0739
  123DG      H3 2809   0.990   5.217   4.756 -2.7621 -0.1548 -1.4804
  123DG      H4 2810   0.959   5.379   4.709 -0.5847 -1.6015 -0.3216
  123DG      H5 2811   1.088   5.349   4.813  1.1598 -1.9014  1.2991
  123DG      H6 2812   1.763   5.291   4.728 -2.2690 -0.5842  1.8871
  123DG      H7 2813   1.735   5.438   4.623  0.5610 -2.3875 -0.3652
  123DG      H8 2814   1.669   5.414   4.788 -1.6949 -2.1174  2.2574
  123DG      O9 2815   1.129   5.273   4.625 -0.6214 -0.3755 -0.0339
  123DG     O10 2816   1.581   5.309   4.636  0.1491  0.0264 -0.2012
  123DG     C11 2817   1.170   5.137   4.627 -0.4334 -0.6855 -0.2175
  123DG     C12 2818   1.594   5.262   4.502 -0.5416  0.2640  0.1407
  123DG     H13 2819   1.096   5.070   4.589  0.4226 -0.7743 -1.1418
  123DG     H14 2820   1.194   5.113   4.730  0.7949  0.4120 -0.3021
  123DG     H15 2821   1.673   5.180   4.496 -2.9083 -0.1062  2.1004
  123DG     H16 2822   1.616   5.336   4.424 -1.6189 -0.0691 -0.5905
  123DG     C17 2823   1.287   5.119   4.540  0.1620 -0.2676 -0.2214
  123DG     C18 2824   1.468   5.212   4.444 -0.1226 -0.1863  0.4151
  123DG     O19 2825   1.381   5.221   4.550  0.3457 -0.0355  0.1399
  123DG     H20 2826   1.246   5.115   4.442  1.2898 -0.3885  0.5535
  123DG     H21 2827   1.327   5.020   4.564 -3.6870 -2.4389  1.5001
  123DG     H22 2828   1.433   5.267   4.352 -1.0349  0.8954 -2.6461
  123DG     H23 2829   1.486   5.109   4.409  4.4588 -0.5308 -1.0773
  124DG      C1 2830   4.689   3.720   4.020 -0.1426 -0.4910 -0.8255
  124DG      C2 2831   4.863   2.942   3.695  0.6995 -0.5511 -0.2224
  124DG      H3 2832   4.781   3.749   4.078 -0.1737 -0.7552 -2.6440
  124DG      H4 2833   4.607   3.775   4.053 -1.2797  0.7032 -1.7432
  124DG      H5 2834   4.703   3.728   3.911  0.7852 -2.3666  0.4943
  124DG      H6 2835   4.949   2.925   3.770  2.6265  0.5686 -0.9812
  124DG      H7 2836   4.850   2.847   3.650 -0.1088 -0.3482 -1.5295
  124DG      H8 2837   4.904   3.016   3.619  1.4633  1.3454 -0.1593
  124DG      O9 2838   4.672   3.579   4.033 -0.1748  0.5053 -0.1819
  124DG     O10 2839   4.753   2.994   3.759 -0.2052 -0.2151 -0.2051
  124DG     C11 2840   4.555   3.524   3.973  0.0326  0.6746 -0.6690
  124DG     C12 2841   4.777   3.130   3.788 -0.6055  0.3466 -0.5646
  124DG     H13 2842   4.541   3.550   3.868 -1.0608 -1.6162  0.0987
  124DG     H14 2843   4.469   3.562   4.022  2.1790  2.1656 -1.1390
  124DG     H15 2844   4.779   3.196   3.701  2.6830  0.9323  0.5537
  124DG     H16 2845   4.866   3.141   3.844  0.4052  2.1756 -1.0022
  124DG     C17 2846   4.565   3.372   3.984  0.3437 -0.9242  0.4827
  124DG     C18 2847   4.659   3.181   3.871  0.2211  0.2354 -0.0792
  124DG     O19 2848   4.647   3.320   3.883  0.2431 -0.1563 -0.0968
  124DG     H20 2849   4.466   3.329   3.963 -0.9945  1.8433 -0.9335
  124DG     H21 2850   4.598   3.349   4.087 -0.5757  0.2643  2.9309
  124DG     H22 2851   4.559   3.157   3.826 -0.9773 -0.0600  1.3665
  124DG     H23 2852   4.660   3.129   3.970 -0.7980 -0.0129  4.2179
  125DG      C1 2853   0.893   2.600   4.913 -0.4503 -0.4261 -0.8218
  125DG      C2 2854   0.470   3.164   4.930  0.0620 -0.6592  0.0072
  125DG      H3 2855   0.875   2.533   4.990  0.6777 -0.8866 -0.4162
  125DG      H4 2856   0.949   2.677   4.966  1.0953  0.6679 -0.5022
  125DG      H5 2857   0.953   2.545   4.835  0.0787 -1.6922 -1.9370
  125DG      H6 2858   0.423   3.222   4.852  2.5257  1.8067 -0.8078
  125DG      H7 2859   0.389   3.152   4.999  1.4069 -0.1307 -0.4076
  125DG      H8 2860   0.556   3.211   4.973  0.2459 -1.8519  2.4694
  125DG      O9 2861   0.771   2.657   4.869  0.2404  0.0158 -0.1565
  125DG     O10 2862   0.508   3.036   4.873  0.0242 -0.3855  0.0279
  125DG     C11 2863   0.681   2.571   4.798 -0.0344  0.4941 -0.5824
  125DG     C12 2864   0.388   2.954   4.842 -0.0084  0.7432 -0.5741
  125DG     H13 2865   0.636   2.500   4.869  0.4548 -0.2731 -1.8234
  125DG     H14 2866   0.734   2.502   4.736 -1.9767 -1.0574  0.6643
  125DG     H15 2867   0.314   3.015   4.791  2.7910 -1.1831  1.5205
  125DG     H16 2868   0.343   2.925   4.941  2.7317 -0.9904  0.1353
  125DG     C17 2869   0.576   2.650   4.724  0.0194  0.7449  0.3632
  125DG     C18 2870   0.412   2.834   4.754 -0.0625 -0.6088  0.6953
  125DG     O19 2871   0.531   2.763   4.796  0.3037 -0.1013 -0.7658
  125DG     H20 2872   0.493   2.589   4.690  1.7240  1.7095 -1.5403
  125DG     H21 2873   0.613   2.686   4.634 -0.1600 -0.3466  0.4487
  125DG     H22 2874   0.336   2.756   4.762  1.6878  2.1282  1.0946
  125DG     H23 2875   0.416   2.869   4.655  0.2715  1.0460  2.3004
  126DG      C1 2876   0.521   2.514   2.889 -0.5764  0.3320  0.4496
  126DG      C2 2877   0.020   2.190   3.151  0.6588  0.2555  0.0821
  126DG      H3 2878   0.553   2.532   2.993  0.7663 -3.0664  3.1878
  126DG      H4 2879   0.558   2.599   2.832  0.1842 -0.5917  0.7199
  126DG      H5 2880   0.575   2.419   2.872  0.4840 -4.5048  1.5182
  126DG      H6 2881  -0.090   2.220   3.163  2.1003  0.0329  2.8142
  126DG      H7 2882   0.007   2.079   3.146 -0.8935  1.3700 -1.8400
  126DG      H8 2883   0.078   2.221   3.245 -2.6811 -0.2512  1.2261
  126DG      O9 2884   0.378   2.494   2.880 -0.2690 -0.0221  0.2368
  126DG     O10 2885   0.072   2.236   3.030 -0.0876  0.2288  0.3788
  126DG     C11 2886   0.336   2.496   2.744  0.3400 -0.1391 -0.2985
  126DG     C12 2887   0.016   2.176   2.920 -0.0232 -1.4009  0.1663
  126DG     H13 2888   0.392   2.409   2.696  4.0287  0.9490 -0.0598
  126DG     H14 2889   0.346   2.590   2.689 -1.6278 -0.4226 -0.0389
  126DG     H15 2890  -0.093   2.179   2.928 -2.1769  0.5949 -1.0345
  126DG     H16 2891   0.051   2.075   2.911 -0.3568  0.4496 -0.3300
  126DG     C17 2892   0.188   2.452   2.736 -0.1228  0.4540 -0.0722
  126DG     C18 2893   0.058   2.258   2.790  0.7793  0.2688 -0.6708
  126DG     O19 2894   0.184   2.326   2.806  0.1921 -0.3016  0.3465
  126DG     H20 2895   0.161   2.444   2.628 -0.2457  0.4674 -0.7057
  126DG     H21 2896   0.116   2.519   2.774 -1.9684 -0.2552  0.3976
  126DG     H22 2897   0.049   2.208   2.692  2.2578  2.6126 -0.3351
  126DG     H23 2898  -0.013   2.342   2.789  0.3509 -2.1962 -0.2929
  127DG      C1 2899   3.050   2.427   1.255 -0.5264 -0.3446  0.5044
  127DG      C2 2900   3.678   2.067   1.160 -0.3071  0.2903 -0.4583
  127DG      H3 2901   3.000   2.338   1.234 -1.5611 -0.2418 -2.0886
  127DG      H4 2902   2.998   2.507   1.211 -0.0533 -0.6052  1.3738
  127DG      H5 2903   3.061   2.434   1.356  1.7337 -0.7199 -1.1624
  127DG      H6 2904   3.762   2.063   1.085 -2.9968  1.1499 -1.0963
  127DG      H7 2905   3.720   2.070   1.259 -0.1380  1.6198 -0.3862
  127DG      H8 2906   3.621   1.972   1.148 -1.3263 -0.2338 -0.4177
  127DG      O9 2907   3.178   2.424   1.199  0.3434 -0.3477 -0.0243
  127DG     O10 2908   3.592   2.182   1.143  0.0616  0.2438  0.2544
  127DG     C11 2909   3.255   2.537   1.232 -0.1876  0.3026  0.7144
  127DG     C12 2910   3.672   2.291   1.178  0.4565  0.1825  0.0753
  127DG     H13 2911   3.274   2.532   1.341  0.2156  0.5771 -1.3500
  127DG     H14 2912   3.199   2.634   1.218 -0.2799  1.0021  2.5712
  127DG     H15 2913   3.772   2.289   1.126 -0.5591  0.2783 -2.0063
  127DG     H16 2914   3.691   2.298   1.289 -0.3685 -0.5868  0.6332
  127DG     C17 2915   3.394   2.530   1.154  0.2902  0.1487  0.1674
  127DG     C18 2916   3.592   2.408   1.126 -0.7315  0.0281 -0.2455
  127DG     O19 2917   3.471   2.421   1.205  0.0139  0.1503 -0.7604
  127DG     H20 2918   3.447   2.622   1.170  1.7880  0.1325 -1.5024
  127DG     H21 2919   3.379   2.522   1.042  0.2100  1.4127 -1.8516
  127DG     H22 2920   3.655   2.502   1.125 -0.3198  2.3079  0.2151
  127DG     H23 2921   3.575   2.387   1.024 -0.2028 -2.5793  0.2773
  128DG      C1 2922   1.273   3.607   1.871  0.1404  0.3666 -0.3933
  128DG      C2 2923   1.660   3.300   1.234  0.3510  0.2154 -0.3137
  128DG      H3 2924   1.233   3.525   1.932 -0.8672  1.1772  0.8123
  128DG      H4 2925   1.189   3.627   1.815 -0.6419  0.3697  0.8741
  128DG      H5 2926   1.290   3.693   1.939  2.7171  0.1398 -0.1727
  128DG      H6 2927   1.596   3.325   1.142 -2.5722  0.1875 -0.9220
  128DG      H7 2928   1.770   3.279   1.213  2.5489 -1.4057  0.0451
  128DG      H8 2929   1.621   3.196   1.242 -2.0110 -0.5699  0.4935
  128DG      O9 2930   1.381   3.571   1.791  0.2965  0.0551 -0.7475
  128DG     O10 2931   1.643   3.372   1.353 -0.5325 -0.4190 -0.1801
  128DG     C11 2932   1.437   3.672   1.708 -0.4592 -0.2415 -0.4164
  128DG     C12 2933   1.504   3.393   1.391  0.1993  0.1853  0.0360
  128DG     H13 2934   1.453   3.758   1.779 -0.0851 -0.9050  1.3787
  128DG     H14 2935   1.373   3.706   1.631  0.1977  0.8340  1.6415
  128DG     H15 2936   1.484   3.313   1.464  0.3857 -0.4371 -0.4868
  128DG     H16 2937   1.423   3.390   1.317  1.2442  0.8013  0.7471
  128DG     C17 2938   1.571   3.613   1.650  0.2458  0.2681  0.3985
  128DG     C18 2939   1.483   3.525   1.456  0.4232 -0.1662  0.1468
  128DG     O19 2940   1.554   3.506   1.570 -0.3622 -0.0666 -0.0805
  128DG     H20 2941   1.627   3.563   1.734 -0.4939 -0.4130  1.2078
  128DG     H21 2942   1.629   3.692   1.604  0.4263 -2.2799  3.1547
  128DG     H22 2943   1.521   3.609   1.395  1.0428  0.4791  1.2816
  128DG     H23 2944   1.379   3.537   1.471 -1.3643 -1.4077  0.4432
  129DG      C1 2945   5.201   0.934   3.399  0.1519  0.1283 -0.1708
  129DG      C2 2946   4.998   1.257   4.021 -0.2810 -0.1862  0.1233
  129DG      H3 2947   5.240   0.851   3.463 -1.2576 -1.7753 -1.7015
  129DG      H4 2948   5.281   1.007   3.387  2.6377 -1.3100  1.7428
  129DG      H5 2949   5.183   0.909   3.292 -1.2377 -2.4907  1.0499
  129DG      H6 2950   5.030   1.170   4.083 -1.4541 -0.0699  0.1940
  129DG      H7 2951   5.088   1.309   4.013 -1.3266 -3.7864  0.0745
  129DG      H8 2952   4.940   1.318   4.087  0.6186 -0.8474  1.9669
  129DG      O9 2953   5.086   0.990   3.457 -0.2783 -0.5273 -0.3561
  129DG     O10 2954   4.948   1.209   3.893  0.4827  0.8421 -0.2053
  129DG     C11 2955   5.010   1.083   3.381  0.7279  0.5567 -0.7709
  129DG     C12 2956   4.907   1.315   3.809 -0.0356  0.6457 -0.0446
  129DG     H13 2957   4.958   1.016   3.315 -0.4836  0.7135  0.3453
  129DG     H14 2958   5.068   1.153   3.324 -0.6244  0.8205 -1.1013
  129DG     H15 2959   4.990   1.382   3.780 -0.5207 -0.4103 -0.7652
  129DG     H16 2960   4.833   1.382   3.860 -2.1779  1.4435 -1.8942
  129DG     C17 2961   4.896   1.141   3.464 -1.1370 -0.6239 -0.0847
  129DG     C18 2962   4.850   1.263   3.664  0.0364 -0.3820 -0.1421
  129DG     O19 2963   4.939   1.181   3.590 -0.4673 -0.4999 -0.0715
  129DG     H20 2964   4.818   1.070   3.485  1.8154  0.9319 -0.0145
  129DG     H21 2965   4.865   1.224   3.394  0.9360 -1.7721  0.2009
  129DG     H22 2966   4.767   1.198   3.691  2.6371 -4.0721  1.3551
  129DG     H23 2967   4.820   1.342   3.601  1.8291  0.7054  0.4949
  130DG      C1 2968   2.246   5.428   0.960  0.4388  0.3805 -0.6686
  130DG      C2 2969   1.815   4.832   0.738 -0.2098 -0.6111  0.2412
  130DG      H3 2970   2.293   5.376   1.039 -2.1367  0.6910  0.9141
  130DG      H4 2971   2.249   5.531   1.002 -1.5791 -2.1969  1.8680
  130DG      H5 2972   2.318   5.421   0.878  0.6454  3.5972 -1.5398
  130DG      H6 2973   1.845   4.835   0.634 -0.2464  0.5772  0.4444
  130DG      H7 2974   1.855   4.747   0.796 -1.7482  0.2196  1.6851
  130DG      H8 2975   1.704   4.813   0.749 -1.1820  1.1287 -0.9399
  130DG      O9 2976   2.123   5.374   0.928  0.1775 -0.5584 -0.1954
  130DG     O10 2977   1.860   4.947   0.799  0.1352  0.5560  0.0124
  130DG     C11 2978   2.043   5.340   1.038 -0.1132  0.2632  0.5547
  130DG     C12 2979   1.996   4.974   0.778 -0.2054  0.3231 -0.0366
  130DG     H13 2980   1.943   5.348   1.011  2.3093  1.2333 -2.5591
  130DG     H14 2981   2.048   5.422   1.105 -1.5582 -1.6369  1.5211
  130DG     H15 2982   2.039   4.964   0.677 -0.6647  1.2385 -1.3069
  130DG     H16 2983   2.059   4.899   0.835 -0.6191 -0.3070  5.1413
  130DG     C17 2984   2.075   5.195   1.074  0.7661  0.1498 -0.2665
  130DG     C18 2985   2.035   5.106   0.847 -0.1677  0.1195  0.1144
  130DG     O19 2986   2.006   5.103   0.990 -0.6340  0.9626  0.1532
  130DG     H20 2987   2.042   5.161   1.170  3.3571 -0.6200 -2.7512
  130DG     H21 2988   2.180   5.176   1.068 -3.5441 -0.1775  1.1335
  130DG     H22 2989   2.139   5.131   0.842  2.4455 -0.1563 -0.3424
  130DG     H23 2990   1.986   5.192   0.801 -0.4567 -2.3279 -2.8033
  131DG      C1 2991   1.984   2.070   4.318 -0.1253 -0.2110 -0.2686
  131DG      C2 2992   2.247   1.821   3.729  0.2257  0.8891 -0.2341
  131DG      H3 2993   1.886   2.034   4.292 -2.9598 -2.3065  1.1312
  131DG      H4 2994   1.960   2.161   4.383 -1.7731  0.3449  1.0109
  131DG      H5 2995   2.036   2.016   4.388 -0.3968 -0.8915 -1.6473
  131DG      H6 2996   2.314   1.836   3.650 -3.2700 -0.8097  2.6901
  131DG      H7 2997   2.311   1.761   3.803  3.3436  4.5684  4.0081
  131DG      H8 2998   2.163   1.760   3.687  0.8344 -1.2134 -2.4239
  131DG      O9 2999   2.064   2.104   4.206 -0.4630 -0.4397  0.7242
  131DG     O10 3000   2.204   1.943   3.780  0.0530  0.4414 -0.3034
  131DG     C11 3001   1.994   2.192   4.122 -0.3230  0.1180  0.3982
  131DG     C12 3002   2.302   2.031   3.820 -0.5409  0.3690  0.4639
  131DG     H13 3003   1.957   2.274   4.177  0.0044  0.9974 -1.6849
  131DG     H14 3004   1.915   2.145   4.066  0.4803 -0.5649 -0.2744
  131DG     H15 3005   2.373   2.035   3.733  0.6300  1.5260 -0.2027
  131DG     H16 3006   2.357   1.995   3.907 -1.6919  0.3183 -0.1138
  131DG     C17 3007   2.087   2.248   4.007 -0.4171  0.5370 -0.0283
  131DG     C18 3008   2.239   2.166   3.838 -0.1106  0.2514 -1.5050
  131DG     O19 3009   2.127   2.142   3.925 -0.3874  0.3547 -0.1079
  131DG     H20 3010   2.178   2.296   4.046 -0.8357 -1.0211 -3.1613
  131DG     H21 3011   2.032   2.317   3.951  1.1496 -1.1936 -0.5323
  131DG     H22 3012   2.309   2.249   3.857 -1.9955  0.9158 -0.6844
  131DG     H23 3013   2.201   2.196   3.742  0.2058 -1.1785 -3.4984
  132DG      C1 3014   1.721   2.859   3.894 -0.8230 -0.1769  0.0844
  132DG      C2 3015   1.466   3.375   4.133 -0.3066 -0.1382 -0.5921
  132DG      H3 3016   1.793   2.790   3.856 -2.0482  1.9876 -2.3217
  132DG      H4 3017   1.718   2.945   3.831 -1.0778 -2.3129 -0.3519
  132DG      H5 3018   1.620   2.816   3.877 -0.7543 -1.2661 -1.0872
  132DG      H6 3019   1.370   3.332   4.125  0.1539  0.6483  3.1733
  132DG      H7 3020   1.474   3.465   4.188 -1.2469 -0.2139  0.5536
  132DG      H8 3021   1.478   3.396   4.027  1.2280 -0.2712  0.1151
  132DG      O9 3022   1.749   2.900   4.024 -0.2013 -0.0330 -0.3074
  132DG     O10 3023   1.562   3.290   4.191  0.0331  0.0357 -0.0227
  132DG     C11 3024   1.880   2.944   4.049 -0.1600  0.5075 -0.7127
  132DG     C12 3025   1.694   3.348   4.209 -0.8967  0.1146 -0.0901
  132DG     H13 3026   1.942   2.896   3.981 -1.6830 -0.3806  1.5020
  132DG     H14 3027   1.903   2.899   4.143  0.7737 -0.0335 -0.7255
  132DG     H15 3028   1.718   3.311   4.308  1.6892 -1.0102  0.0127
  132DG     H16 3029   1.689   3.452   4.212  1.0903 -0.7446 -2.7788
  132DG     C17 3030   1.898   3.097   4.048 -0.3324  0.6902 -0.3409
  132DG     C18 3031   1.793   3.299   4.108 -0.1943  0.3997  0.7278
  132DG     O19 3032   1.803   3.154   4.125  0.2415 -0.0683 -0.5896
  132DG     H20 3033   1.889   3.129   3.941  3.8052  1.0018 -2.7527
  132DG     H21 3034   1.997   3.120   4.084 -0.6801  0.1307  2.4426
  132DG     H22 3035   1.767   3.329   4.006  0.9639  4.2172 -1.6235
  132DG     H23 3036   1.893   3.334   4.120 -2.7191 -1.2033 -2.0773
  133DG      C1 3037   3.861   2.444   4.147  0.0838 -0.8395 -0.2191
  133DG      C2 3038   4.317   2.139   4.476  0.3844  0.1949 -0.5031
  133DG      H3 3039   3.888   2.517   4.229  1.5077 -1.7009  0.2940
  133DG      H4 3040   3.779   2.377   4.178 -0.1756  0.6170  1.2367
  133DG      H5 3041   3.838   2.502   4.057 -1.9664  0.6123  0.4094
  133DG      H6 3042   4.256   2.055   4.518 -2.2890  1.4013  3.1885
  133DG      H7 3043   4.422   2.106   4.492  1.5294 -3.9321 -2.4731
  133DG      H8 3044   4.297   2.229   4.534  0.0808 -0.5750 -1.8800
  133DG      O9 3045   3.979   2.369   4.116 -0.7103 -0.8403  0.3144
  133DG     O10 3046   4.296   2.148   4.335  0.9952  0.4940  0.0655
  133DG     C11 3047   3.958   2.269   4.006 -0.2923 -0.0727 -0.7073
  133DG     C12 3048   4.279   2.018   4.259 -0.1528  0.1211  0.3504
  133DG     H13 3049   3.933   2.312   3.912 -0.7452 -1.6289 -0.1087
  133DG     H14 3050   3.870   2.213   4.029  0.6967  2.3946 -0.8190
  133DG     H15 3051   4.210   1.948   4.305  1.1259  3.2054  1.0436
  133DG     H16 3052   4.369   1.962   4.275  0.7201 -1.5010  1.7508
  133DG     C17 3053   4.080   2.177   3.983 -0.3046  0.2540  0.4497
  133DG     C18 3054   4.241   2.043   4.112 -0.8241  0.4995  0.3352
  133DG     O19 3055   4.131   2.127   4.105 -0.0854  0.3243  0.0847
  133DG     H20 3056   4.161   2.215   3.921 -0.1632  0.3923 -0.3226
  133DG     H21 3057   4.049   2.086   3.927  0.5971  1.5225 -0.2390
  133DG     H22 3058   4.323   2.087   4.060 -1.7431  0.5497  0.4824
  133DG     H23 3059   4.232   1.944   4.065 -0.2794  1.1159  0.2594
  134DG      C1 3060   4.201   3.141   2.777 -0.7525 -0.1317 -0.7671
  134DG      C2 3061   3.984   2.448   2.471  0.2174  0.3009 -0.0334
  134DG      H3 3062   4.114   3.108   2.831  0.8288 -1.2658  1.6015
  134DG      H4 3063   4.173   3.234   2.737 -3.4426  0.3443  1.5328
  134DG      H5 3064   4.288   3.152   2.839 -2.8788 -0.1796  2.3627
  134DG      H6 3065   4.041   2.375   2.529  1.5077  0.1724  0.3280
  134DG      H7 3066   3.898   2.484   2.529 -1.9495  2.3169 -0.3683
  134DG      H8 3067   3.932   2.394   2.387 -1.3654 -0.2774 -1.3961
  134DG      O9 3068   4.229   3.054   2.667  0.0103 -0.0138  0.0550
  134DG     O10 3069   4.062   2.547   2.411 -0.2659  0.2750 -0.0936
  134DG     C11 3070   4.308   2.940   2.701 -0.0746  0.2391  0.0451
  134DG     C12 3071   4.136   2.619   2.498 -0.4485  0.1121 -0.0310
  134DG     H13 3072   4.250   2.886   2.782 -2.7800 -2.0362 -1.8932
  134DG     H14 3073   4.408   2.979   2.734  0.7461 -1.9453 -1.1009
  134DG     H15 3074   4.208   2.555   2.548 -0.2146  0.0855 -2.5867
  134DG     H16 3075   4.066   2.664   2.571 -3.3832  0.3845 -2.1356
  134DG     C17 3076   4.332   2.853   2.576  0.2058 -0.3964  0.3376
  134DG     C18 3077   4.198   2.736   2.419 -0.2393 -0.4718 -0.2929
  134DG     O19 3078   4.207   2.844   2.510 -0.3204  0.0904  0.0497
  134DG     H20 3079   4.364   2.758   2.618  3.0484 -0.3904  0.0297
  134DG     H21 3080   4.427   2.886   2.521  0.3069  1.6895 -0.4791
  134DG     H22 3081   4.280   2.724   2.344  1.3052  1.6819 -5.8362
  134DG     H23 3082   4.122   2.773   2.348  1.7005  0.5936 -1.2830
  135DG      C1 3083   0.992   3.599   0.639  0.5522  0.4274 -0.4944
  135DG      C2 3084   1.422   4.017   0.326 -0.8157  0.5041  0.1725
  135DG      H3 3085   0.884   3.625   0.622  0.8940  0.5427 -1.5926
  135DG      H4 3086   0.991   3.540   0.729  0.0382  1.2060 -0.8864
  135DG      H5 3087   1.011   3.529   0.561  4.6656  2.0461 -0.6244
  135DG      H6 3088   1.530   3.986   0.336 -0.3865 -0.9713  2.3571
  135DG      H7 3089   1.375   3.947   0.256  1.1226 -0.4112 -2.3752
  135DG      H8 3090   1.423   4.119   0.281  0.9236  0.5496 -0.8921
  135DG      O9 3091   1.080   3.711   0.640  0.0498 -0.1485 -0.1958
  135DG     O10 3092   1.349   4.007   0.443 -0.0307 -0.0021 -0.2971
  135DG     C11 3093   1.095   3.772   0.768  0.7412  0.5663  0.0121
  135DG     C12 3094   1.370   4.103   0.541 -0.0987  0.6539  0.1692
  135DG     H13 3095   1.177   3.722   0.823  2.0410 -1.3291  0.9095
  135DG     H14 3096   1.004   3.768   0.824 -1.7439  1.0880 -1.2530
  135DG     H15 3097   1.365   4.193   0.491 -2.4811 -2.4075 -1.7952
  135DG     H16 3098   1.467   4.077   0.594 -0.9866  0.8396 -0.0832
  135DG     C17 3099   1.124   3.920   0.745  0.0999 -0.2863 -0.4823
  135DG     C18 3100   1.254   4.081   0.646 -0.4040  0.4068 -0.1433
  135DG     O19 3101   1.233   3.938   0.661  0.1001 -0.0960  0.7655
  135DG     H20 3102   1.151   3.965   0.841  0.7638  1.1050  2.8573
  135DG     H21 3103   1.034   3.980   0.720  1.9700 -0.6421 -2.2899
  135DG     H22 3104   1.279   4.120   0.753 -0.0234  1.4058  1.3027
  135DG     H23 3105   1.169   4.136   0.607  1.2293 -0.7844  0.1941
  136DG      C1 3106   1.212   3.547   4.209 -0.9064  0.0450 -0.2379
  136DG      C2 3107   0.538   3.659   3.934 -0.9573 -0.2585  0.4915
  136DG      H3 3108   1.294   3.617   4.226  1.5447  1.9095 -1.2438
  136DG      H4 3109   1.223   3.505   4.106 -2.3403  0.0188  0.4024
  136DG      H5 3110   1.200   3.472   4.282  0.7399  2.3636  0.6653
  136DG      H6 3111   0.492   3.625   4.024  0.3473  0.3464 -0.7461
  136DG      H7 3112   0.457   3.653   3.867  1.4641 -0.2193  2.7279
  136DG      H8 3113   0.606   3.583   3.898 -1.7315 -0.7272  0.5896
  136DG      O9 3114   1.092   3.618   4.203  0.1717 -0.2864  0.3876
  136DG     O10 3115   0.590   3.793   3.934 -0.2926  0.1928 -0.1834
  136DG     C11 3116   1.066   3.735   4.290  0.1911 -0.3758  0.3673
  136DG     C12 3117   0.728   3.810   3.972  0.9348  0.2487 -0.3769
  136DG     H13 3118   1.124   3.818   4.255 -1.1934  0.3058 -0.1180
  136DG     H14 3119   1.097   3.725   4.388 -2.0363  1.0407 -4.2610
  136DG     H15 3120   0.772   3.907   3.942 -1.1288  0.5112  0.5824
  136DG     H16 3121   0.793   3.745   3.909  0.2196 -0.7455  0.0065
  136DG     C17 3122   0.920   3.775   4.294 -0.1931  0.3697 -0.6560
  136DG     C18 3123   0.744   3.789   4.121  0.4594 -0.1000 -0.7526
  136DG     O19 3124   0.882   3.786   4.155 -0.1727  0.2605 -0.8541
  136DG     H20 3125   0.894   3.853   4.367  0.2391 -2.9652  1.3123
  136DG     H21 3126   0.861   3.691   4.339  1.7611  1.8224 -0.9507
  136DG     H22 3127   0.693   3.869   4.177  1.7198 -1.2381  2.5027
  136DG     H23 3128   0.717   3.690   4.143 -0.7795  0.5709 -1.2856
  137DG      C1 3129   0.112   5.477   2.081 -0.3107 -0.4813 -0.2799
  137DG      C2 3130   0.159   5.577   2.669  0.4293 -0.3994  0.2959
  137DG      H3 3131   0.140   5.460   1.971 -0.0897  0.6445 -0.9422
  137DG      H4 3132   0.026   5.402   2.110 -0.4647 -0.2047  0.2909
  137DG      H5 3133   0.200   5.440   2.136  2.3369  0.0795 -0.5464
  137DG      H6 3134   0.110   5.661   2.718  1.0402  2.5321  0.8859
  137DG      H7 3135   0.089   5.487   2.668  1.3588  0.2601 -0.4998
  137DG      H8 3136   0.253   5.549   2.719  0.1113  1.3725  0.7368
  137DG      O9 3137   0.069   5.608   2.111  0.1612  0.2219  0.2052
  137DG     O10 3138   0.184   5.623   2.532  0.1526 -0.0348  0.2155
  137DG     C11 3139   0.165   5.704   2.074 -0.6797 -0.3675  0.6011
  137DG     C12 3140   0.258   5.743   2.537 -0.0738 -0.3996 -0.0877
  137DG     H13 3141   0.124   5.805   2.059 -4.1643  2.2596 -2.5766
  137DG     H14 3142   0.204   5.686   1.973  2.5947  0.2228  0.4001
  137DG     H15 3143   0.350   5.731   2.599 -1.8953 -2.9923  1.5543
  137DG     H16 3144   0.195   5.818   2.579  0.4994 -1.0099  1.5870
  137DG     C17 3145   0.280   5.712   2.174 -0.7448  0.3357  0.0396
  137DG     C18 3146   0.298   5.774   2.397 -0.1544 -0.1187 -0.4009
  137DG     O19 3147   0.218   5.714   2.302 -0.8756 -0.2520  0.3227
  137DG     H20 3148   0.338   5.798   2.162 -0.5394 -0.7142 -1.0015
  137DG     H21 3149   0.337   5.620   2.160  0.0551 -0.0795  1.3954
  137DG     H22 3150   0.314   5.877   2.383  1.1708  0.7592 -1.2817
  137DG     H23 3151   0.401   5.736   2.389 -1.9169  1.7440 -2.1711
  138DG      C1 3152   3.762   4.619   4.224 -0.4142 -0.1111  0.0990
  138DG      C2 3153   3.932   4.045   4.560 -0.3248  0.3581  0.0985
  138DG      H3 3154   3.832   4.574   4.151  1.6103  3.2453 -1.2194
  138DG      H4 3155   3.760   4.727   4.226 -2.7948 -1.9137 -0.5674
  138DG      H5 3156   3.656   4.575   4.203 -0.5052 -3.8907  1.0524
  138DG      H6 3157   3.832   4.004   4.568  0.9613 -2.3341  0.3283
  138DG      H7 3158   3.978   4.001   4.472 -0.8326 -0.4840  0.6047
  138DG      H8 3159   4.005   4.020   4.637 -2.1571  2.5407  1.0002
  138DG      O9 3160   3.799   4.571   4.355 -0.1436 -0.2932 -0.7472
  138DG     O10 3161   3.945   4.191   4.568 -0.0388  0.2733 -0.4086
  138DG     C11 3162   3.742   4.642   4.465 -1.1156 -0.4680  0.0058
  138DG     C12 3163   3.910   4.247   4.698  0.2142 -0.1761  0.3303
  138DG     H13 3164   3.636   4.614   4.460 -1.5306  1.1335 -1.6477
  138DG     H14 3165   3.751   4.749   4.452 -1.0460  0.5941 -0.4049
  138DG     H15 3166   3.977   4.219   4.773 -0.2698 -0.3459  1.6877
  138DG     H16 3167   3.812   4.207   4.729  0.5916 -0.9884 -1.0051
  138DG     C17 3168   3.815   4.593   4.591  0.1247 -0.0850  0.5482
  138DG     C18 3169   3.907   4.400   4.703  0.2830 -0.6922 -0.2026
  138DG     O19 3170   3.826   4.451   4.594 -0.7412  0.4101 -0.2927
  138DG     H20 3171   3.780   4.622   4.690  0.5107 -1.7816 -1.0160
  138DG     H21 3172   3.917   4.634   4.580 -0.0723 -0.2830 -2.0611
  138DG     H22 3173   3.868   4.442   4.797 -1.2790 -2.7924  3.7528
  138DG     H23 3174   4.003   4.439   4.684 -1.3182 -0.6967 -0.2188
  139DG      C1 3175   4.801   1.917   0.361  0.3200 -0.2374 -0.3467
  139DG      C2 3176   4.543   1.282   0.673 -0.6466  0.2286  0.4822
  139DG      H3 3177   4.754   2.013   0.355 -0.6709 -1.3990 -0.6061
  139DG      H4 3178   4.896   1.934   0.317 -1.1007  2.3519  0.8106
  139DG      H5 3179   4.812   1.875   0.462  1.2354  0.5929  0.3046
  139DG      H6 3180   4.588   1.318   0.764  0.5925 -2.8240 -2.0603
  139DG      H7 3181   4.448   1.235   0.705  0.1630  2.5276  2.4204
  139DG      H8 3182   4.611   1.208   0.625 -1.8071 -1.4176 -0.3464
  139DG      O9 3183   4.750   1.816   0.272  0.5226 -0.0126  0.2736
  139DG     O10 3184   4.511   1.390   0.584  0.1566 -0.8254 -0.1078
  139DG     C11 3185   4.607   1.805   0.266  0.1551 -0.3220 -0.7349
  139DG     C12 3186   4.611   1.417   0.482  0.1677 -0.3212  0.3193
  139DG     H13 3187   4.568   1.888   0.205  0.6707 -2.5341  0.2893
  139DG     H14 3188   4.546   1.810   0.358 -1.2114 -0.0796  0.1663
  139DG     H15 3189   4.620   1.339   0.407  0.1730 -0.0473 -1.3958
  139DG     H16 3190   4.711   1.434   0.526 -0.1324  0.8897  1.2139
  139DG     C17 3191   4.577   1.671   0.207 -0.0034 -0.4688 -0.2033
  139DG     C18 3192   4.548   1.543   0.406 -0.0367  0.5218  0.5487
  139DG     O19 3193   4.621   1.568   0.294  0.2337  0.3080  0.4963
  139DG     H20 3194   4.641   1.665   0.116  0.0299  0.2770 -1.8094
  139DG     H21 3195   4.473   1.658   0.168  0.1070 -0.6359 -0.1037
  139DG     H22 3196   4.441   1.529   0.387 -1.3635  0.0121  1.5506
  139DG     H23 3197   4.547   1.620   0.480 -2.5839  0.4519  0.2307
  140DG      C1 3198   0.202   3.991   0.169  0.5028  0.0364  0.1606
  140DG      C2 3199  -0.110   3.580   0.539 -0.0056  0.4036 -0.1386
  140DG      H3 3200   0.101   4.009   0.127  1.6480  0.5399 -1.4309
  140DG      H4 3201   0.270   4.028   0.092  0.8036  1.3790 -0.9979
  140DG      H5 3202   0.209   4.058   0.258 -2.1919  0.4723 -0.6993
  140DG      H6 3203  -0.122   3.479   0.580  1.9103 -1.0549 -1.3997
  140DG      H7 3204  -0.084   3.649   0.622  0.1909  0.2544 -1.5938
  140DG      H8 3205  -0.202   3.601   0.485  0.6406 -2.9578  1.8511
  140DG      O9 3206   0.225   3.855   0.212 -0.2154  0.1641  0.0679
  140DG     O10 3207   0.002   3.578   0.456 -0.4716 -0.0679 -0.2212
  140DG     C11 3208   0.345   3.841   0.294 -0.5785 -0.3515  0.5695
  140DG     C12 3209   0.112   3.503   0.512  0.3944 -0.3841 -0.5776
  140DG     H13 3210   0.344   3.910   0.384 -2.5706  2.3009  0.3815
  140DG     H14 3211   0.432   3.883   0.245 -0.1737  1.4347 -3.0648
  140DG     H15 3212   0.092   3.394   0.515 -2.4255 -1.2651  1.6720
  140DG     H16 3213   0.129   3.546   0.609  0.3808  3.5678 -1.0691
  140DG     C17 3214   0.367   3.694   0.330 -0.0329  0.8579 -0.0459
  140DG     C18 3215   0.238   3.518   0.427 -0.1757  0.2989 -0.3471
  140DG     O19 3216   0.241   3.637   0.360 -0.0957  0.6808 -0.1979
  140DG     H20 3217   0.440   3.699   0.416  1.1303  1.3633  1.6134
  140DG     H21 3218   0.400   3.641   0.240 -2.1762  0.2754 -1.1663
  140DG     H22 3219   0.332   3.501   0.482  0.7290  2.9693 -2.2368
  140DG     H23 3220   0.239   3.433   0.351 -0.9654 -0.0454 -2.3093
  141DG      C1 3221   4.124   2.991   3.946 -0.4958 -0.2982  0.2676
  141DG      C2 3222   4.486   3.357   3.391  0.3437  0.1443  0.0770
  141DG      H3 3223   4.040   3.008   4.020 -0.3177  0.1641  0.6584
  141DG      H4 3224   4.192   2.922   3.982 -2.2653 -0.6432 -3.5409
  141DG      H5 3225   4.083   2.949   3.856 -1.4466 -1.1172  1.4326
  141DG      H6 3226   4.464   3.284   3.305 -0.6157  1.4507 -1.0661
  141DG      H7 3227   4.500   3.453   3.340 -0.2289 -2.0912 -0.8009
  141DG      H8 3228   4.578   3.330   3.449  0.6293  1.4904  1.8453
  141DG      O9 3229   4.176   3.118   3.921 -0.2814 -0.6958 -0.3935
  141DG     O10 3230   4.372   3.378   3.478 -0.0652  0.0449 -0.2192
  141DG     C11 3231   4.075   3.205   3.875  0.1990 -0.3915  0.1404
  141DG     C12 3232   4.404   3.448   3.599 -0.2558 -0.4518  0.1287
  141DG     H13 3233   4.000   3.211   3.950 -1.0376 -1.9874  0.5457
  141DG     H14 3234   4.028   3.154   3.790  0.8163 -1.4933 -0.4961
  141DG     H15 3235   4.448   3.544   3.572  2.7965 -0.8527  2.6105
  141DG     H16 3236   4.476   3.390   3.656 -0.8369  1.2581 -0.3268
  141DG     C17 3237   4.153   3.331   3.843  0.2972 -0.1332 -0.4237
  141DG     C18 3238   4.278   3.455   3.682  0.0752 -0.0654 -0.5700
  141DG     O19 3239   4.231   3.326   3.722 -0.1789 -0.0221  0.2154
  141DG     H20 3240   4.224   3.352   3.925 -0.5247 -0.0296 -0.9337
  141DG     H21 3241   4.081   3.414   3.841 -0.9272 -1.6107  4.8720
  141DG     H22 3242   4.282   3.525   3.763 -0.3365 -0.4043 -2.9620
  141DG     H23 3243   4.205   3.508   3.620  0.5998  1.0782 -1.3531
  142DG      C1 3244   1.731   1.802   0.717 -0.1141  0.7139 -1.2027
  142DG      C2 3245   1.999   1.711   1.291 -0.2510  0.4009 -0.3773
  142DG      H3 3246   1.731   1.833   0.825 -0.7581  0.1034  1.1473
  142DG      H4 3247   1.646   1.745   0.688  2.3504  1.8266 -2.0700
  142DG      H5 3248   1.711   1.895   0.657 -2.2358  2.1605 -0.5497
  142DG      H6 3249   2.075   1.731   1.371 -0.2943 -0.8241  2.0057
  142DG      H7 3250   1.960   1.807   1.269 -1.3107  0.4556  4.8652
  142DG      H8 3251   1.924   1.650   1.346  1.7977 -2.1263  1.1699
  142DG      O9 3252   1.855   1.748   0.687  0.7729  0.2401 -0.0667
  142DG     O10 3253   2.055   1.644   1.176 -0.3114 -0.0804  0.4161
  142DG     C11 3254   1.879   1.615   0.732 -0.0045  1.0513 -0.0564
  142DG     C12 3255   2.135   1.736   1.102  0.4136  0.2336 -0.0963
  142DG     H13 3256   1.939   1.555   0.661  0.4207 -1.7581  3.3544
  142DG     H14 3257   1.787   1.563   0.751  1.6913  0.6255  0.9039
  142DG     H15 3258   2.228   1.743   1.155  0.1837 -0.4122 -0.1085
  142DG     H16 3259   2.097   1.836   1.090 -0.3480 -0.2950  0.3805
  142DG     C17 3260   1.952   1.615   0.863  0.6185 -0.0629 -0.4477
  142DG     C18 3261   2.164   1.668   0.970  0.1189  0.0990  0.1922
  142DG     O19 3262   2.065   1.695   0.866 -0.1413  0.6740 -0.0084
  142DG     H20 3263   1.993   1.522   0.897  0.2169  2.0083  0.5386
  142DG     H21 3264   1.895   1.652   0.950  1.6191 -3.8113 -0.5936
  142DG     H22 3265   2.256   1.718   0.933 -1.5185 -1.3961 -2.3495
  142DG     H23 3266   2.193   1.564   0.966  2.2351 -1.7437 -1.4944
  143DG      C1 3267   5.398   0.097   4.249  0.1122 -0.2094  0.0474
  143DG      C2 3268   5.202   0.656   4.638 -1.1141  0.5812  0.0536
  143DG      H3 3269   5.479   0.032   4.245 -1.5010  2.8044 -0.7391
  143DG      H4 3270   5.427   0.174   4.175 -0.4704 -0.9935 -1.6011
  143DG      H5 3271   5.300   0.041   4.225 -0.5739 -1.2206 -2.0329
  143DG      H6 3272   5.103   0.643   4.592  0.2595 -0.6617 -2.3054
  143DG      H7 3273   5.200   0.719   4.728  0.1510 -1.7234  0.7928
  143DG      H8 3274   5.257   0.716   4.557  0.4592  1.9004 -0.8910
  143DG      O9 3275   5.382   0.159   4.374  0.4659  0.5814 -0.5263
  143DG     O10 3276   5.272   0.531   4.644 -0.0359  0.5973  0.6085
  143DG     C11 3277   5.367   0.063   4.481 -0.1116 -0.5675 -0.1461
  143DG     C12 3278   5.215   0.442   4.744  0.4253  0.2018 -0.4843
  143DG     H13 3279   5.443  -0.015   4.476 -0.3941  4.8263 -1.2942
  143DG     H14 3280   5.266   0.028   4.484  1.2004 -1.8483  2.8059
  143DG     H15 3281   5.106   0.419   4.727 -0.2843 -0.3069  0.5588
  143DG     H16 3282   5.219   0.494   4.842 -1.7855 -0.6444 -0.1687
  143DG     C17 3283   5.387   0.134   4.614  0.6553  0.1507 -0.1457
  143DG     C18 3284   5.294   0.309   4.752 -0.0648  0.1968  0.4458
  143DG     O19 3285   5.311   0.253   4.621 -0.4431  0.0040  0.4205
  143DG     H20 3286   5.493   0.164   4.611 -1.7833  1.2756 -0.7723
  143DG     H21 3287   5.370   0.061   4.696  2.2714  0.0796 -0.1127
  143DG     H22 3288   5.393   0.332   4.796  1.3782  1.1306 -0.9442
  143DG     H23 3289   5.245   0.237   4.815 -0.0077  0.3362 -2.9358
  144DG      C1 3290   2.831   4.834   4.596 -0.4630 -0.1962 -0.0860
  144DG      C2 3291   2.914   4.421   5.088  0.0569 -0.1243 -0.0648
  144DG      H3 3292   2.910   4.912   4.614  1.0483 -1.4044  0.2813
  144DG      H4 3293   2.755   4.865   4.672 -0.8505  2.1390 -1.3611
  144DG      H5 3294   2.793   4.833   4.499 -1.4676 -1.4734  1.6552
  144DG      H6 3295   2.950   4.518   5.056  0.3463 -0.8777 -3.5189
  144DG      H7 3296   2.811   4.432   5.114  1.2010  1.7483  1.5178
  144DG      H8 3297   2.977   4.401   5.174  4.1180 -1.3109  2.2104
  144DG      O9 3298   2.879   4.718   4.653 -0.0718  0.2725  0.3065
  144DG     O10 3299   2.938   4.334   4.982 -0.1106  0.2963  0.1534
  144DG     C11 3300   2.990   4.665   4.577  0.5145  0.5987  0.0043
  144DG     C12 3301   3.070   4.337   4.937 -0.4400 -0.3245 -0.6842
  144DG     H13 3302   3.071   4.736   4.595  1.3069  0.8877 -0.6756
  144DG     H14 3303   2.964   4.683   4.473  1.5340 -0.2767 -1.8277
  144DG     H15 3304   3.114   4.235   4.949  0.8993 -1.6664  1.7036
  144DG     H16 3305   3.138   4.399   4.998  0.8162  3.1885  0.8325
  144DG     C17 3306   3.028   4.521   4.613 -0.2843 -0.5523  0.1617
  144DG     C18 3307   3.073   4.360   4.785 -0.2879  0.0084  0.3044
  144DG     O19 3308   3.050   4.502   4.749  0.2132  0.9085  0.3173
  144DG     H20 3309   3.124   4.488   4.566  2.1170  2.3068 -0.7056
  144DG     H21 3310   2.939   4.462   4.594  1.2676  1.7563 -0.6595
  144DG     H22 3311   3.171   4.345   4.744 -1.5193  0.3309 -3.1348
  144DG     H23 3312   3.010   4.284   4.731 -0.0349  3.0339  3.1743
  145DG      C1 3313   3.636   0.121   3.914 -0.7167 -0.2874 -0.2143
  145DG      C2 3314   3.982   0.688   3.517  0.4784 -0.0075 -0.2064
  145DG      H3 3315   3.681   0.051   3.983 -0.4302 -2.7965 -0.1301
  145DG      H4 3316   3.551   0.071   3.864 -1.2540 -1.3395  1.3797
  145DG      H5 3317   3.604   0.205   3.972  0.6958 -3.2199  0.4863
  145DG      H6 3318   3.900   0.711   3.444 -0.9392 -0.6728 -0.8396
  145DG      H7 3319   3.983   0.763   3.592 -0.1539  2.0888  0.5317
  145DG      H8 3320   4.071   0.682   3.454 -0.0768 -4.4801 -0.1660
  145DG      O9 3321   3.728   0.169   3.809  0.1658 -0.4511  0.0317
  145DG     O10 3322   3.976   0.556   3.574  0.3180 -0.2656 -0.2313
  145DG     C11 3323   3.858   0.197   3.867  0.0467 -0.6198  0.0092
  145DG     C12 3324   3.998   0.446   3.489  0.2278  0.0033 -0.4264
  145DG     H13 3325   3.886   0.133   3.945 -2.7514  0.4525 -0.5776
  145DG     H14 3326   3.850   0.290   3.921  0.1187 -0.4123  1.9840
  145DG     H15 3327   4.074   0.463   3.417  0.1925 -2.5218  0.7327
  145DG     H16 3328   3.904   0.426   3.441  2.7286 -1.7644 -1.3164
  145DG     C17 3329   3.974   0.208   3.763  0.7643 -0.3333 -0.1407
  145DG     C18 3330   4.036   0.328   3.578  0.4083  0.0738  0.7716
  145DG     O19 3331   3.942   0.326   3.684  0.2679  0.1047 -0.0494
  145DG     H20 3332   3.985   0.118   3.700  0.7006 -0.5232 -0.6208
  145DG     H21 3333   4.062   0.226   3.817 -2.5172  0.9595 -1.7017
  145DG     H22 3334   4.031   0.231   3.522  0.9702 -0.4991  0.6468
  145DG     H23 3335   4.139   0.339   3.604 -0.1901  2.7756 -0.5483
  146DG      C1 3336   1.173   0.883   1.033 -0.3558  0.1128 -0.7475
  146DG      C2 3337   1.733   1.119   0.891 -0.5402 -0.2353  0.3180
  146DG      H3 3338   1.227   0.855   1.125  0.8771 -0.9043 -0.2589
  146DG      H4 3339   1.167   0.803   0.965 -1.8290  0.4082 -0.8657
  146DG      H5 3340   1.077   0.924   1.054  0.0625  1.2853 -2.4047
  146DG      H6 3341   1.679   1.197   0.939  1.6151 -1.2205  1.7353
  146DG      H7 3342   1.778   1.055   0.972 -2.3052  0.3811  1.8806
  146DG      H8 3343   1.805   1.164   0.829 -0.8168  1.5119 -0.5096
  146DG      O9 3344   1.241   0.992   0.983 -0.4140 -0.0409  0.1553
  146DG     O10 3345   1.644   1.047   0.813  0.7112  0.1949 -0.3114
  146DG     C11 3346   1.183   1.063   0.870  0.4475  0.3958 -0.4167
  146DG     C12 3347   1.592   1.126   0.708 -0.7642 -0.4530  0.6554
  146DG     H13 3348   1.108   1.141   0.908 -1.6692  0.1145  0.7750
  146DG     H14 3349   1.128   0.994   0.811 -2.8043  0.4592 -0.7758
  146DG     H15 3350   1.665   1.139   0.637 -1.2107  0.0091  3.7108
  146DG     H16 3351   1.567   1.219   0.753  0.6032  0.5792 -2.9838
  146DG     C17 3352   1.297   1.138   0.794  0.5141 -0.2930 -0.5037
  146DG     C18 3353   1.469   1.063   0.650 -0.0339  0.0386 -0.6559
  146DG     O19 3354   1.386   1.032   0.759 -0.7394 -0.0874 -0.6076
  146DG     H20 3355   1.338   1.213   0.862 -1.0872  0.6443 -0.4992
  146DG     H21 3356   1.250   1.168   0.700 -1.3755 -2.5227 -0.9126
  146DG     H22 3357   1.434   1.124   0.566  1.8523  2.2835 -0.4399
  146DG     H23 3358   1.494   0.970   0.604  0.5606 -1.3456  2.5409
  147DG      C1 3359   0.558   2.294   1.620 -0.4421 -0.0294  0.3132
  147DG      C2 3360   0.008   1.940   1.465 -0.5180 -0.7162 -0.3034
  147DG      H3 3361   0.573   2.182   1.612  0.6228 -1.7773 -0.1684
  147DG      H4 3362   0.646   2.341   1.662 -3.0432  0.9176 -3.4468
  147DG      H5 3363   0.548   2.334   1.516 -1.7199 -2.7578  2.8392
  147DG      H6 3364  -0.061   1.870   1.510  0.2210 -2.0432  1.4725
  147DG      H7 3365  -0.041   2.017   1.415 -0.2164 -4.5066 -1.0380
  147DG      H8 3366   0.068   1.892   1.391 -0.0121  1.3918 -0.4235
  147DG      O9 3367   0.431   2.327   1.681  0.0578 -0.0159  0.6134
  147DG     O10 3368   0.105   1.992   1.553 -0.5998 -0.0746 -0.0086
  147DG     C11 3369   0.406   2.296   1.819 -0.0915  0.3464 -0.0088
  147DG     C12 3370   0.066   1.978   1.691  0.1969  0.1927  0.3665
  147DG     H13 3371   0.322   2.361   1.850 -2.1537 -0.0783 -0.8645
  147DG     H14 3372   0.482   2.306   1.895 -1.6478  1.1529 -1.0342
  147DG     H15 3373   0.025   1.881   1.721 -1.4547 -1.4032  1.3487
  147DG     H16 3374  -0.013   2.053   1.707  0.2955 -0.3948  2.3931
  147DG     C17 3375   0.362   2.152   1.836  0.6764  0.1076  0.6342
  147DG     C18 3376   0.185   1.996   1.778  0.2616 -0.0376  0.3542
  147DG     O19 3377   0.257   2.112   1.743 -0.4520 -0.2027 -0.2295
  147DG     H20 3378   0.331   2.136   1.945  0.0385 -0.3897  1.4518
  147DG     H21 3379   0.443   2.074   1.822  1.5232 -0.7352 -1.6790
  147DG     H22 3380   0.147   2.010   1.880 -3.4788  1.3436  0.1658
  147DG     H23 3381   0.251   1.905   1.776 -0.7633  1.5098 -0.2723
  148DG      C1 3382   2.658   3.648   2.873  0.4595 -0.2882  0.0903
  148DG      C2 3383   3.247   3.521   2.518  0.5089 -0.4784  0.5780
  148DG      H3 3384   2.617   3.736   2.931 -1.5081  2.4855  0.0212
  148DG      H4 3385   2.648   3.563   2.940  0.7098 -1.2257 -1.2562
  148DG      H5 3386   2.578   3.631   2.794 -2.2339  1.0498  0.1376
  148DG      H6 3387   3.231   3.415   2.549  1.1001 -3.5679 -1.8644
  148DG      H7 3388   3.234   3.528   2.405  1.6119  2.0093 -0.9173
  148DG      H8 3389   3.351   3.546   2.546  0.3356 -0.7444 -1.7509
  148DG      O9 3390   2.785   3.672   2.819 -0.5725  0.1472 -0.4421
  148DG     O10 3391   3.164   3.612   2.584 -0.0341  0.7420 -0.3733
  148DG     C11 3392   2.877   3.702   2.917 -0.5620  0.2366 -0.5995
  148DG     C12 3393   3.234   3.719   2.648  0.1620  0.9145 -0.4453
  148DG     H13 3394   2.870   3.638   3.006  2.0438  1.1348  0.3603
  148DG     H14 3395   2.856   3.799   2.951 -1.5199  1.6141 -0.3727
  148DG     H15 3396   3.312   3.761   2.589 -1.7805 -1.0258  0.2981
  148DG     H16 3397   3.287   3.682   2.743 -1.0363  0.1538 -0.0909
  148DG     C17 3398   3.020   3.695   2.858 -0.2660  0.1643 -0.1698
  148DG     C18 3399   3.131   3.825   2.689 -0.1749 -0.2389  0.1879
  148DG     O19 3400   3.010   3.761   2.729 -0.2152  0.1616  0.1299
  148DG     H20 3401   3.062   3.595   2.843  0.7589 -0.7600 -0.6319
  148DG     H21 3402   3.094   3.745   2.928  1.1709  2.4389  1.5355
  148DG     H22 3403   3.170   3.897   2.758  1.9026  0.7388 -2.2679
  148DG     H23 3404   3.113   3.896   2.607 -2.7304 -1.0584  0.9664
  149DG      C1 3405   3.145   4.830   5.401  0.0544 -0.7149  0.6955
  149DG      C2 3406   2.736   5.348   5.235  0.0830 -0.0452 -0.5661
  149DG      H3 3407   3.153   4.722   5.427  0.0892  1.6868  1.3695
  149DG      H4 3408   3.188   4.875   5.491 -1.5846  1.8131 -1.9447
  149DG      H5 3409   3.218   4.841   5.320  1.3144 -0.9850  2.1120
  149DG      H6 3410   2.823   5.414   5.228  0.4967 -1.0679 -0.1856
  149DG      H7 3411   2.682   5.375   5.143  0.3730  0.4359  1.9778
  149DG      H8 3412   2.679   5.389   5.317  1.2423  1.2014  1.2514
  149DG      O9 3413   3.005   4.866   5.370  0.2456 -0.3838  0.0385
  149DG     O10 3414   2.773   5.216   5.258 -0.4237 -0.1963 -0.3019
  149DG     C11 3415   2.931   4.748   5.323  0.1831 -0.6249  0.6498
  149DG     C12 3416   2.665   5.128   5.221  0.0845  0.0653 -0.9234
  149DG     H13 3417   2.927   4.665   5.401  1.0729 -0.0183  1.9452
  149DG     H14 3418   2.961   4.718   5.218 -1.7578  0.0067 -2.1081
  149DG     H15 3419   2.664   5.109   5.110  2.8486 -0.3664 -0.0403
  149DG     H16 3420   2.567   5.170   5.246 -0.5759 -1.2266 -2.0771
  149DG     C17 3421   2.786   4.797   5.321  0.0323 -0.8436 -0.0865
  149DG     C18 3422   2.677   4.999   5.289 -0.4128  0.1097  0.1222
  149DG     O19 3423   2.782   4.921   5.249  0.0099  0.2766 -0.6089
  149DG     H20 3424   2.756   4.816   5.427  0.2743  0.1782 -0.9411
  149DG     H21 3425   2.723   4.728   5.271  1.7499  0.2874 -2.2508
  149DG     H22 3426   2.691   5.023   5.398 -2.7673 -2.3158  0.2444
  149DG     H23 3427   2.590   4.942   5.285  2.8354  2.8701 -0.1557
  150DG      C1 3428   3.750   2.652   0.917  0.0274 -0.0024  0.0473
  150DG      C2 3429   3.147   3.088   1.151  0.5242  0.3490 -0.8085
  150DG      H3 3430   3.822   2.700   0.985  0.8029  1.3350  0.4824
  150DG      H4 3431   3.793   2.666   0.817 -0.5058  0.0574  1.1616
  150DG      H5 3432   3.765   2.544   0.933 -0.5651 -2.7347 -0.4773
  150DG      H6 3433   3.067   3.049   1.200 -2.9615 -1.3581 -1.4213
  150DG      H7 3434   3.233   3.078   1.221 -0.5081  0.7097  0.7550
  150DG      H8 3435   3.144   3.190   1.126  0.5146 -2.2202  0.6213
  150DG      O9 3436   3.614   2.686   0.916  0.3258 -0.2480 -0.2122
  150DG     O10 3437   3.165   3.016   1.035 -0.1248 -0.2508  0.2584
  150DG     C11 3438   3.536   2.607   0.821  0.6589  0.6201 -0.2360
  150DG     C12 3439   3.227   2.886   1.041 -0.3441 -0.2990 -0.4082
  150DG     H13 3440   3.525   2.499   0.856 -1.3764  0.1254 -1.0051
  150DG     H14 3441   3.585   2.613   0.721  0.0845  1.3453  1.1591
  150DG     H15 3442   3.154   2.819   1.092 -2.6756  0.5472 -2.2877
  150DG     H16 3443   3.322   2.898   1.093  2.3897 -0.3259 -1.6272
  150DG     C17 3444   3.395   2.670   0.805 -0.6241 -0.2503 -0.9278
  150DG     C18 3445   3.255   2.842   0.903  0.6512 -0.1371 -0.2705
  150DG     O19 3446   3.345   2.733   0.922  0.0716 -0.2473 -0.3246
  150DG     H20 3447   3.317   2.606   0.764  0.4273  1.2268  2.9034
  150DG     H21 3448   3.418   2.748   0.727  0.7494  1.7492 -0.2776
  150DG     H22 3449   3.161   2.813   0.855 -3.6113 -0.5421 -1.2131
  150DG     H23 3450   3.311   2.917   0.849  2.0484 -0.7672 -1.5550
  151DG      C1 3451   1.904   0.045   0.222 -0.5819  0.2249  0.0224
  151DG      C2 3452   2.295   0.528   0.578  0.3616 -0.2001 -0.4391
  151DG      H3 3453   1.901  -0.016   0.132 -1.2265 -1.8865  0.8249
  151DG      H4 3454   1.801   0.076   0.242  0.6510  2.3319  0.0540
  151DG      H5 3455   1.935  -0.016   0.308  1.5227 -0.5755  2.2520
  151DG      H6 3456   2.353   0.444   0.615 -1.6800  0.5641 -0.2301
  151DG      H7 3457   2.366   0.601   0.550 -2.6348  2.2567 -0.5335
  151DG      H8 3458   2.234   0.558   0.667  0.6126 -0.1982  2.6516
  151DG      O9 3459   1.977   0.165   0.214 -0.2318  0.0685 -0.1614
  151DG     O10 3460   2.222   0.482   0.463 -0.1739 -0.7170  0.8289
  151DG     C11 3461   1.912   0.266   0.144  0.5887 -0.0264 -0.4921
  151DG     C12 3462   2.117   0.578   0.440 -0.4797  0.4824  0.2094
  151DG     H13 3463   1.810   0.276   0.188  0.5217 -1.0423 -1.5837
  151DG     H14 3464   1.898   0.237   0.038  1.4041  0.6033 -0.7580
  151DG     H15 3465   2.150   0.683   0.438  0.6313  1.1876 -2.0075
  151DG     H16 3466   2.037   0.561   0.510 -0.9776  0.2200 -1.3173
  151DG     C17 3467   1.982   0.405   0.142  0.2019  0.2166 -0.2286
  151DG     C18 3468   2.063   0.569   0.297 -0.6505  0.0839 -0.3463
  151DG     O19 3469   2.007   0.436   0.281  0.1159  0.4403  0.1203
  151DG     H20 3470   1.914   0.475   0.094  1.7245  0.9286 -0.8553
  151DG     H21 3471   2.075   0.403   0.087  1.8932 -0.2814  0.4833
  151DG     H22 3472   2.001   0.659   0.267 -0.9005 -0.5703 -0.3873
  151DG     H23 3473   2.148   0.570   0.229  2.5692 -0.8979  1.8499
  152DG      C1 3474   4.103   4.791   0.106  0.0527  0.1658 -0.4669
  152DG      C2 3475   3.982   4.866   0.835 -0.3108 -0.5505 -0.1010
  152DG      H3 3476   4.194   4.801   0.048  1.3967 -1.1374 -2.2693
  152DG      H4 3477   4.019   4.793   0.034  0.5212 -0.9249 -1.1873
  152DG      H5 3478   4.099   4.689   0.136  1.0616 -1.6532  0.3604
  152DG      H6 3479   3.886   4.860   0.874  1.3792 -1.2136  0.4291
  152DG      H7 3480   4.002   4.761   0.831  1.3766  0.9754 -0.5159
  152DG      H8 3481   4.050   4.912   0.896 -3.6676  0.5910  0.2103
  152DG      O9 3482   4.077   4.881   0.214  0.2996  0.0059  0.3439
  152DG     O10 3483   3.962   4.912   0.702 -0.3652  0.0459  1.2031
  152DG     C11 3484   3.941   4.916   0.227 -0.4268  0.5163 -0.0248
  152DG     C12 3485   3.996   5.053   0.693  0.1462  0.4322 -0.5418
  152DG     H13 3486   3.881   4.830   0.246  0.6945 -0.3087 -1.3691
  152DG     H14 3487   3.894   4.958   0.140  2.3724 -4.3180 -1.5024
  152DG     H15 3488   4.105   5.066   0.696 -0.9690  1.1589 -1.0293
  152DG     H16 3489   3.955   5.111   0.773  0.9718  1.3545 -0.1370
  152DG     C17 3490   3.925   5.032   0.330 -0.0867 -0.4575  0.5020
  152DG     C18 3491   3.948   5.095   0.555 -1.0610 -0.1347 -0.1985
  152DG     O19 3492   3.964   4.992   0.464 -0.1381  0.2491  0.8618
  152DG     H20 3493   3.820   5.058   0.327  2.5429 -1.0811 -0.0076
  152DG     H21 3494   3.977   5.113   0.298 -1.8191 -2.3636 -0.2196
  152DG     H22 3495   3.843   5.124   0.575 -1.0333  0.5716  1.8793
  152DG     H23 3496   4.002   5.189   0.530 -0.5719  1.4251 -0.3257
  153DG      C1 3497   4.189   4.351   4.276 -0.4606 -0.1204 -0.0116
  153DG      C2 3498   3.489   4.264   4.407 -0.3978  0.4695 -0.3163
  153DG      H3 3499   4.197   4.430   4.209 -1.5452 -0.1141  2.0651
  153DG      H4 3500   4.278   4.290   4.266 -1.7540  0.7483  1.2053
  153DG      H5 3501   4.192   4.400   4.376 -1.7695  1.0503  0.0028
  153DG      H6 3502   3.445   4.343   4.345  1.2977 -0.4682 -0.1995
  153DG      H7 3503   3.408   4.192   4.412  2.2147  0.8704  3.5506
  153DG      H8 3504   3.509   4.296   4.509  1.7580  0.4967 -0.8391
  153DG      O9 3505   4.072   4.278   4.256  0.8199  0.3024  0.1416
  153DG     O10 3506   3.605   4.203   4.349  0.0662 -0.3857 -0.5239
  153DG     C11 3507   4.048   4.272   4.118 -0.6829  0.2410  0.0690
  153DG     C12 3508   3.586   4.158   4.213  0.8304 -0.5489  0.2243
  153DG     H13 3509   4.149   4.249   4.069 -1.4250 -2.7041  1.3977
  153DG     H14 3510   3.997   4.358   4.073 -0.4286  0.1307  3.1989
  153DG     H15 3511   3.544   4.244   4.160  0.3808 -0.4579 -1.0019
  153DG     H16 3512   3.499   4.080   4.210  2.0093  0.9097  1.6041
  153DG     C17 3513   3.951   4.151   4.104  0.1514 -0.3483  0.1597
  153DG     C18 3514   3.720   4.103   4.155 -0.7827  0.0169  0.3249
  153DG     O19 3515   3.822   4.204   4.150 -0.6579  0.1125 -0.0267
  153DG     H20 3516   3.996   4.063   4.158 -1.4340  0.4694 -0.6329
  153DG     H21 3517   3.951   4.119   3.996 -1.5287  0.7576 -0.8325
  153DG     H22 3518   3.762   4.024   4.225 -0.6528 -0.0991  1.0771
  153DG     H23 3519   3.705   4.051   4.054  0.8791 -1.9153  3.5207
  154DG      C1 3520   4.272   4.865   3.307 -0.1955  0.2632  0.2328
  154DG      C2 3521   4.177   4.877   2.677 -0.7945 -0.4113  0.1637
  154DG      H3 3522   4.214   4.957   3.309  1.6782 -1.2755  0.3819
  154DG      H4 3523   4.369   4.892   3.344 -0.9680  0.2393  0.6664
  154DG      H5 3524   4.235   4.791   3.377 -2.4509 -0.7276 -1.2600
  154DG      H6 3525   4.283   4.901   2.649  1.3714  1.4999  0.7230
  154DG      H7 3526   4.120   4.847   2.590  2.0180 -0.6597  0.9814
  154DG      H8 3527   4.128   4.964   2.714  0.9258 -0.6926  0.8724
  154DG      O9 3528   4.284   4.816   3.167  0.0696  0.2814  0.2199
  154DG     O10 3529   4.170   4.783   2.784  0.0235  0.5338  0.2906
  154DG     C11 3530   4.366   4.700   3.152 -0.0091  0.4075 -0.1828
  154DG     C12 3531   4.205   4.653   2.738  0.6780 -0.3439  0.0822
  154DG     H13 3532   4.347   4.621   3.227 -2.7806 -0.8526 -3.4091
  154DG     H14 3533   4.470   4.732   3.174 -0.8538 -1.4042 -1.8898
  154DG     H15 3534   4.308   4.644   2.696 -0.1722 -0.2476 -1.8556
  154DG     H16 3535   4.135   4.620   2.665 -3.1584  0.9016  1.4192
  154DG     C17 3536   4.350   4.627   3.013  0.1859 -0.1858  0.2677
  154DG     C18 3537   4.188   4.551   2.849  0.5767 -0.1442 -0.4803
  154DG     O19 3538   4.211   4.610   2.978 -0.0378 -0.4159 -0.1814
  154DG     H20 3539   4.396   4.526   3.013  0.0798  1.9081 -2.9033
  154DG     H21 3540   4.394   4.688   2.931  2.2406 -2.8596 -4.0999
  154DG     H22 3541   4.090   4.494   2.842 -2.3626 -2.8728  0.7118
  154DG     H23 3542   4.257   4.474   2.813  1.6949 -2.4749 -1.5795
  155DG      C1 3543   3.208   3.744   5.491  0.0396 -0.8645 -0.4500
  155DG      C2 3544   2.881   3.501   5.950 -0.6485 -0.0663  0.3500
  155DG      H3 3545   3.284   3.726   5.557  1.4604 -0.6833  2.6472
  155DG      H4 3546   3.160   3.834   5.519  2.5856 -0.2792 -1.0706
  155DG      H5 3547   3.245   3.770   5.390 -0.5041 -0.6431  2.4102
  155DG      H6 3548   2.810   3.442   6.007 -1.3902  0.7443  0.2965
  155DG      H7 3549   2.979   3.472   5.990 -1.3156  1.1445  0.2931
  155DG      H8 3550   2.859   3.606   5.963  0.1418  2.4062 -2.3069
  155DG      O9 3551   3.112   3.644   5.495 -0.0048 -0.1389  0.2806
  155DG     O10 3552   2.867   3.483   5.818 -0.3013  0.4687  0.4094
  155DG     C11 3553   3.161   3.519   5.455  0.7459 -0.2336  0.0666
  155DG     C12 3554   2.875   3.344   5.782  0.6845 -0.1818  0.2269
  155DG     H13 3555   3.246   3.483   5.514  0.4009  0.6928  0.1764
  155DG     H14 3556   3.192   3.529   5.352  0.1711  1.0194 -0.6108
  155DG     H15 3557   2.774   3.298   5.791  1.8617 -0.8410  0.7448
  155DG     H16 3558   2.955   3.283   5.825 -2.0386 -0.1105  0.7111
  155DG     C17 3559   3.056   3.415   5.467 -0.7995  0.1093 -0.8818
  155DG     C18 3560   2.905   3.327   5.630  0.4700 -0.1905 -0.5102
  155DG     O19 3561   3.016   3.425   5.599  0.0056  0.3906  0.1532
  155DG     H20 3562   3.096   3.318   5.454  0.9491  3.0740  1.3658
  155DG     H21 3563   2.967   3.427   5.404 -0.2037 -0.3217 -3.5615
  155DG     H22 3564   2.952   3.229   5.609 -1.8487 -0.4355  1.9914
  155DG     H23 3565   2.823   3.360   5.564 -2.4403  1.8616 -0.6084
  156DG      C1 3566   4.231   3.982   3.393  0.2320  0.5795  0.0795
  156DG      C2 3567   4.607   3.852   2.813  0.4739 -0.5670  0.1281
  156DG      H3 3568   4.289   3.976   3.486  1.7592  0.4771 -1.3425
  156DG      H4 3569   4.170   3.889   3.374 -0.7779 -0.0392  0.6236
  156DG      H5 3570   4.153   4.062   3.403 -0.3321  1.3642 -0.6119
  156DG      H6 3571   4.630   3.747   2.824 -1.1897  0.3320  0.3168
  156DG      H7 3572   4.500   3.864   2.799  2.8237 -0.8042  3.4874
  156DG      H8 3573   4.662   3.884   2.724 -0.0186  0.2783  1.8617
  156DG      O9 3574   4.321   4.011   3.291  0.3382 -0.3118  0.0192
  156DG     O10 3575   4.662   3.916   2.926 -0.2240  0.1613 -0.5797
  156DG     C11 3576   4.415   4.109   3.323 -0.3962 -0.4567 -0.5004
  156DG     C12 3577   4.581   3.907   3.044  0.4950  0.6457 -0.0944
  156DG     H13 3578   4.381   4.183   3.396  0.2523  2.4838  3.1585
  156DG     H14 3579   4.433   4.149   3.226 -3.5597  2.0420  0.6465
  156DG     H15 3580   4.550   3.806   3.074  0.2052  0.0905 -0.4260
  156DG     H16 3581   4.494   3.975   3.019  1.0119  2.2138 -1.1652
  156DG     C17 3582   4.542   4.044   3.367 -0.6002  0.0199 -0.5904
  156DG     C18 3583   4.653   3.984   3.157  0.1835  0.5111 -0.0643
  156DG     O19 3584   4.573   3.945   3.267 -0.2816  0.0785 -0.1189
  156DG     H20 3585   4.524   3.996   3.462  0.2453  0.5155  0.8059
  156DG     H21 3586   4.614   4.123   3.394  1.2845 -3.3701 -1.4836
  156DG     H22 3587   4.753   3.952   3.186  2.6268 -1.4752  0.8370
  156DG     H23 3588   4.666   4.091   3.129 -1.1325  0.5619 -1.0979
  157DG      C1 3589   2.868   2.179   3.516 -0.8831  0.0536  0.0081
  157DG      C2 3590   3.245   1.707   3.333 -0.3148  0.0325  0.8333
  157DG      H3 3591   2.789   2.263   3.514 -1.4035  0.7902  0.0915
  157DG      H4 3592   2.976   2.218   3.514  0.9036 -1.0272  1.1322
  157DG      H5 3593   2.855   2.128   3.612  0.5277 -0.5481  2.5058
  157DG      H6 3594   3.316   1.793   3.340 -1.1740 -1.4240  1.3694
  157DG      H7 3595   3.245   1.650   3.428  0.1727  0.4828 -1.2493
  157DG      H8 3596   3.270   1.643   3.252 -0.3726  0.2462  3.1618
  157DG      O9 3597   2.857   2.097   3.401 -0.4181  0.2960  0.1763
  157DG     O10 3598   3.116   1.767   3.329  0.5473  0.1945 -0.0392
  157DG     C11 3599   2.729   2.030   3.405 -0.1510  0.1303  0.3858
  157DG     C12 3600   3.005   1.684   3.304 -0.3848 -0.3946  0.4526
  157DG     H13 3601   2.643   2.091   3.402  2.5295 -0.6867 -0.8390
  157DG     H14 3602   2.721   1.976   3.497  2.3515 -0.0145  0.2637
  157DG     H15 3603   3.019   1.587   3.360  2.1659  0.3190  2.1326
  157DG     H16 3604   2.991   1.657   3.202 -1.3563 -1.9276  2.3335
  157DG     C17 3605   2.737   1.929   3.289 -0.7650  0.7984 -0.0241
  157DG     C18 3606   2.880   1.755   3.344 -0.5252  0.1877  0.0923
  157DG     O19 3607   2.868   1.877   3.275  0.8923  0.2499 -0.0799
  157DG     H20 3608   2.726   1.989   3.198 -1.5073 -0.1904  3.1414
  157DG     H21 3609   2.658   1.857   3.281  1.2437  0.2716  2.2356
  157DG     H22 3610   2.789   1.689   3.330 -0.2841  1.3890 -2.0661
  157DG     H23 3611   2.887   1.767   3.449 -2.8332 -2.8118 -1.2535
  158DG      C1 3612   2.575   2.957   4.961 -0.2646  0.0768  0.2984
  158DG      C2 3613   3.362   2.614   4.748  0.0832  0.5818  0.1864
  158DG      H3 3614   2.525   2.992   4.875  0.3663 -0.6365  2.5280
  158DG      H4 3615   2.622   3.047   5.002 -2.3086 -2.9368  1.6832
  158DG      H5 3616   2.493   2.928   5.024 -0.1810 -1.5354 -2.3076
  158DG      H6 3617   3.422   2.521   4.726  1.9484 -2.9871 -1.5687
  158DG      H7 3618   3.379   2.685   4.668  0.0114  0.2759  1.4539
  158DG      H8 3619   3.393   2.661   4.841  2.7216  2.2469 -0.9757
  158DG      O9 3620   2.663   2.855   4.915 -0.1718  0.6449 -0.6503
  158DG     O10 3621   3.219   2.582   4.746 -0.3183 -0.4901  0.5023
  158DG     C11 3622   2.716   2.780   5.017 -0.4480 -0.2881  0.0781
  158DG     C12 3623   3.139   2.680   4.804 -1.0413 -0.1040 -0.1881
  158DG     H13 3624   2.647   2.739   5.092  1.1601 -1.1532 -2.2309
  158DG     H14 3625   2.793   2.835   5.069  1.3854 -3.3846 -1.6353
  158DG     H15 3626   3.120   2.770   4.741  2.0726  0.7981  1.4360
  158DG     H16 3627   3.184   2.712   4.900  0.0718 -0.0443  0.1075
  158DG     C17 3628   2.795   2.662   4.947 -0.2956 -0.3870  0.4372
  158DG     C18 3629   3.001   2.608   4.825 -0.2036  0.0327  0.3225
  158DG     O19 3630   2.910   2.710   4.874 -0.3071  0.2156  0.2304
  158DG     H20 3631   2.720   2.612   4.883  0.4665  0.9361  1.0637
  158DG     H21 3632   2.830   2.603   5.031  1.2186 -0.9565  0.7913
  158DG     H22 3633   2.964   2.573   4.731 -1.8884  1.8237 -0.0925
  158DG     H23 3634   3.025   2.526   4.894  3.4439  0.5214  1.6498
  159DG      C1 3635   3.251   4.020   1.226 -0.3000 -0.0531 -0.4255
  159DG      C2 3636   3.991   3.650   1.364 -0.2266  0.3336  0.4894
  159DG      H3 3637   3.168   4.077   1.267  1.7541 -4.3717  1.0020
  159DG      H4 3638   3.232   3.911   1.231 -3.2183 -0.4920 -0.1571
  159DG      H5 3639   3.266   4.050   1.119 -0.8530  1.2681 -1.7401
  159DG      H6 3640   3.962   3.547   1.368  0.4220  0.0957 -0.0187
  159DG      H7 3641   4.089   3.654   1.320  0.2765  2.7496 -1.8048
  159DG      H8 3642   3.993   3.678   1.470  0.4520  1.5153  1.3135
  159DG      O9 3643   3.371   4.039   1.295 -0.2919 -0.5158  0.4732
  159DG     O10 3644   3.894   3.736   1.294 -0.3635 -0.3717 -0.4584
  159DG     C11 3645   3.478   3.959   1.241  0.1340  0.2198  0.8271
  159DG     C12 3646   3.941   3.869   1.305 -0.3389  0.2890  0.1804
  159DG     H13 3647   3.490   3.962   1.137  1.6158  0.9016 -1.7618
  159DG     H14 3648   3.472   3.851   1.257  2.3172 -1.1718 -0.6163
  159DG     H15 3649   3.987   3.887   1.207  0.5906  1.7359 -0.5364
  159DG     H16 3650   4.019   3.889   1.378  0.6653 -2.1890  0.1121
  159DG     C17 3651   3.602   4.022   1.311 -0.0286 -0.2808 -0.3084
  159DG     C18 3652   3.830   3.966   1.341 -0.5969  0.0588  0.4791
  159DG     O19 3653   3.709   3.933   1.272  0.2535 -0.0282  0.4609
  159DG     H20 3654   3.590   4.027   1.414 -0.7778  0.8577 -1.5683
  159DG     H21 3655   3.617   4.127   1.273 -2.0134  0.1141  3.6466
  159DG     H22 3656   3.813   3.964   1.448  0.6798 -0.5573  0.7223
  159DG     H23 3657   3.861   4.060   1.309  1.1108  0.5953 -3.2301
  160DG      C1 3658   1.029   0.691   2.449 -0.0553  0.2571  0.0560
  160DG      C2 3659   1.239   1.165   2.000 -0.1602 -0.1867  0.9136
  160DG      H3 3660   1.088   0.626   2.395 -2.6584  1.5775  0.8816
  160DG      H4 3661   0.927   0.705   2.402  0.5831 -2.2956  1.0745
  160DG      H5 3662   1.014   0.648   2.548  1.7565  0.0280  1.0935
  160DG      H6 3663   1.148   1.146   1.945  0.0943 -1.9896 -0.5320
  160DG      H7 3664   1.271   1.263   1.978 -1.3783  1.2062 -0.1969
  160DG      H8 3665   1.314   1.091   1.962  0.2356 -0.1867 -0.8523
  160DG      O9 3666   1.083   0.820   2.459 -0.4176  0.1893 -0.6986
  160DG     O10 3667   1.214   1.136   2.140 -0.3622 -0.2139 -0.4978
  160DG     C11 3668   1.210   0.829   2.525  0.6340  0.5449 -0.6747
  160DG     C12 3669   1.316   1.194   2.221 -0.2412  0.6191  0.1496
  160DG     H13 3670   1.276   0.766   2.462  1.3688  2.2597  1.8379
  160DG     H14 3671   1.225   0.777   2.626  0.6137 -2.2044 -0.4296
  160DG     H15 3672   1.306   1.303   2.213  1.5932 -1.7506 -0.9251
  160DG     H16 3673   1.416   1.167   2.183  0.3725  0.3371 -1.0157
  160DG     C17 3674   1.262   0.971   2.521  0.6628  0.3381  0.5825
  160DG     C18 3675   1.309   1.143   2.368 -0.5799 -0.0700  0.6564
  160DG     O19 3676   1.284   1.010   2.380 -0.0407 -0.1084 -0.4303
  160DG     H20 3677   1.358   0.970   2.577  0.8268  0.6184 -0.8048
  160DG     H21 3678   1.198   1.043   2.572  0.3377  0.7346  2.1701
  160DG     H22 3679   1.407   1.157   2.417  2.7684 -0.3917  1.1289
  160DG     H23 3680   1.236   1.209   2.407  1.6708  0.6922 -1.3617
  161DG      C1 3681   3.513   1.256   0.603 -0.5924 -0.1225  0.5731
  161DG      C2 3682   2.989   1.644   0.350  0.0282  0.4493  0.4976
  161DG      H3 3683   3.466   1.279   0.702 -0.6591  2.3573  0.9319
  161DG      H4 3684   3.611   1.208   0.626 -1.1848 -1.7840  0.0318
  161DG      H5 3685   3.441   1.189   0.557 -0.7761 -1.7719 -0.3224
  161DG      H6 3686   2.906   1.657   0.278 -3.0073 -0.9500  2.5419
  161DG      H7 3687   2.942   1.639   0.446 -3.4396 -1.8202 -1.0385
  161DG      H8 3688   3.046   1.734   0.352  2.1862  0.7889 -0.1530
  161DG      O9 3689   3.515   1.375   0.525  0.3680  0.2921 -0.4104
  161DG     O10 3690   3.084   1.540   0.345  0.2442  0.1608  0.2587
  161DG     C11 3691   3.561   1.361   0.393 -0.0654  0.0192  0.1331
  161DG     C12 3692   3.118   1.507   0.211  0.4685  0.4939 -0.3802
  161DG     H13 3693   3.638   1.282   0.394  1.7298  2.3435  0.9929
  161DG     H14 3694   3.593   1.455   0.369  1.8257 -3.3000  2.3109
  161DG     H15 3695   3.163   1.591   0.175  3.3153 -1.4193  3.0728
  161DG     H16 3696   3.030   1.480   0.155  2.1469  2.6222  3.0943
  161DG     C17 3697   3.447   1.327   0.290  0.4942 -0.8079 -0.2653
  161DG     C18 3698   3.235   1.393   0.203  0.0287  0.2103 -0.0092
  161DG     O19 3699   3.340   1.416   0.299  0.1777 -0.5408 -0.1649
  161DG     H20 3700   3.397   1.228   0.304  1.2484 -0.1000  2.0066
  161DG     H21 3701   3.495   1.332   0.192 -3.5231  1.2621  0.2108
  161DG     H22 3702   3.199   1.293   0.222  1.2297  1.0218  0.2077
  161DG     H23 3703   3.271   1.386   0.105  1.3057  1.5282  1.4912
  162DG      C1 3704   2.694   2.519   4.433  0.1633 -0.6611 -0.0378
  162DG      C2 3705   2.770   2.746   3.793  0.2468 -0.3137  0.3930
  162DG      H3 3706   2.702   2.452   4.513  1.2689  4.4754  0.5430
  162DG      H4 3707   2.641   2.464   4.347  0.8219 -1.1545 -1.8891
  162DG      H5 3708   2.642   2.602   4.482  1.0813  0.8719  0.6230
  162DG      H6 3709   2.817   2.838   3.749  0.5392 -1.7654 -0.7960
  162DG      H7 3710   2.787   2.665   3.727 -2.4946  0.8923  0.8835
  162DG      H8 3711   2.665   2.765   3.805  0.2689 -1.7692 -0.7037
  162DG      O9 3712   2.816   2.574   4.384 -0.3968  0.0927 -0.3730
  162DG     O10 3713   2.825   2.723   3.926 -1.0387 -0.1587  0.0162
  162DG     C11 3714   2.910   2.482   4.338 -0.4746  0.0761  0.2881
  162DG     C12 3715   2.961   2.687   3.919 -0.0646  0.4193  0.3514
  162DG     H13 3716   2.862   2.399   4.283  0.3594 -0.5936  1.5766
  162DG     H14 3717   2.952   2.442   4.429 -1.9431  1.2258  0.6150
  162DG     H15 3718   3.005   2.751   3.847  1.3093 -0.1231  3.6277
  162DG     H16 3719   2.957   2.599   3.864 -0.6692  0.0390 -2.2015
  162DG     C17 3720   3.017   2.551   4.264  0.6116  0.1181  1.2905
  162DG     C18 3721   3.027   2.671   4.052  0.3227 -0.0063 -1.2539
  162DG     O19 3722   2.955   2.586   4.136  0.1372  0.1610  0.0656
  162DG     H20 3723   3.110   2.487   4.252  2.1724 -1.2797 -2.6602
  162DG     H21 3724   3.051   2.635   4.316  1.3509 -1.4682 -1.7125
  162DG     H22 3725   3.127   2.628   4.034  0.3138  1.3349  1.5846
  162DG     H23 3726   3.052   2.767   4.097 -1.2275 -1.7273 -0.3190
  163DG      C1 3727   3.468   1.328   4.295  0.1507  0.2070  0.4814
  163DG      C2 3728   3.476   1.954   4.124 -0.3611 -0.1081  0.3045
  163DG      H3 3729   3.408   1.233   4.294  0.7352  0.3049  1.4303
  163DG      H4 3730   3.434   1.391   4.379  0.8928 -2.6372  1.6253
  163DG      H5 3731   3.573   1.297   4.307  0.2476 -1.6166  0.3416
  163DG      H6 3732   3.581   1.950   4.087  2.0448 -0.9080 -0.5685
  163DG      H7 3733   3.477   2.047   4.179 -1.3921  0.4337  0.2480
  163DG      H8 3734   3.472   1.872   4.201  0.4861  0.6179 -1.1334
  163DG      O9 3735   3.448   1.392   4.169  0.5709  0.0032  0.4234
  163DG     O10 3736   3.388   1.944   4.010 -0.0171 -0.0529  0.3567
  163DG     C11 3737   3.558   1.484   4.134  0.5995  0.3117  0.0933
  163DG     C12 3738   3.423   1.843   3.911  0.0529 -0.6315  0.2699
  163DG     H13 3739   3.657   1.435   4.132  1.1482 -0.7042  3.2729
  163DG     H14 3740   3.565   1.546   4.221 -0.4048  1.8693  1.8905
  163DG     H15 3741   3.528   1.833   3.908  1.8656 -0.8405  3.0738
  163DG     H16 3742   3.394   1.889   3.818 -2.0842  3.2523  2.0515
  163DG     C17 3743   3.514   1.557   4.009  0.3971  0.7767 -0.2688
  163DG     C18 3744   3.344   1.708   3.923 -0.0715  0.0734  0.0265
  163DG     O19 3745   3.392   1.629   4.033  0.2660 -0.2880 -0.4787
  163DG     H20 3746   3.505   1.484   3.932  2.4367  2.2799  0.2934
  163DG     H21 3747   3.594   1.624   3.973 -0.7955 -0.6006 -1.5022
  163DG     H22 3748   3.241   1.734   3.929  0.9708 -0.8183 -1.1629
  163DG     H23 3749   3.345   1.639   3.835  1.2263  1.9810  1.1779
  164DG      C1 3750   1.820   3.925   3.144  0.3378 -0.0522  0.2688
  164DG      C2 3751   1.217   4.015   3.468  1.0380  0.4306  0.1815
  164DG      H3 3752   1.920   3.891   3.125 -1.0140  2.6845 -0.4732
  164DG      H4 3753   1.831   4.032   3.153  1.3336 -1.4199 -0.5887
  164DG      H5 3754   1.761   3.902   3.054 -2.0559  3.8021 -3.1789
  164DG      H6 3755   1.195   4.055   3.371  2.2895 -0.9976 -0.1744
  164DG      H7 3756   1.123   3.969   3.500  0.4043 -0.3584  1.1840
  164DG      H8 3757   1.240   4.108   3.527 -2.0782  1.7757  0.7137
  164DG      O9 3758   1.763   3.867   3.262  0.5757 -0.1522 -0.0146
  164DG     O10 3759   1.330   3.933   3.460  0.4105  0.0910  0.2021
  164DG     C11 3760   1.821   3.906   3.386 -0.6219  0.8940 -0.5021
  164DG     C12 3761   1.366   3.871   3.579  0.7501  0.1091 -0.4694
  164DG     H13 3762   1.808   4.012   3.412  0.7321 -2.2252 -2.1305
  164DG     H14 3763   1.925   3.888   3.388  0.2692  0.0371 -0.5884
  164DG     H15 3764   1.287   3.800   3.609 -0.6933 -2.3134  1.3098
  164DG     H16 3765   1.374   3.940   3.657  0.4019  0.3908  0.3071
  164DG     C17 3766   1.740   3.820   3.485  0.7468  1.0774 -0.6966
  164DG     C18 3767   1.503   3.791   3.555 -0.1830 -0.4187  0.0634
  164DG     O19 3768   1.601   3.858   3.478  0.2978 -0.2787 -0.5620
  164DG     H20 3769   1.773   3.826   3.584 -0.8027  0.0979 -0.7880
  164DG     H21 3770   1.762   3.719   3.462 -1.3242 -1.3705  0.3890
  164DG     H22 3771   1.545   3.764   3.649 -2.0590  2.2198  1.8641
  164DG     H23 3772   1.481   3.701   3.494 -1.3006 -0.3892 -0.7626
  165DG      C1 3773   4.840   5.474   1.501  0.7265  0.3201 -0.4149
  165DG      C2 3774   4.987   6.106   1.324 -0.4809 -0.3546 -0.6370
  165DG      H3 3775   4.839   5.440   1.598 -2.0382  1.0978 -2.8001
  165DG      H4 3776   4.946   5.468   1.473 -1.6449 -0.9382  0.4534
  165DG      H5 3777   4.785   5.401   1.444 -0.6864 -0.5495 -0.0829
  165DG      H6 3778   5.086   6.070   1.298  0.2650  1.8771 -2.1760
  165DG      H7 3779   4.931   6.090   1.230  1.4213  0.4167 -1.3661
  165DG      H8 3780   4.972   6.221   1.338  0.1844  0.6548 -0.5960
  165DG      O9 3781   4.806   5.610   1.492  0.1381 -0.4429 -0.1623
  165DG     O10 3782   4.920   6.035   1.420 -0.1522  1.0326 -0.0901
  165DG     C11 3783   4.693   5.638   1.564 -0.4546  0.0958  0.0242
  165DG     C12 3784   4.790   6.090   1.453 -0.6195  0.3595 -0.2607
  165DG     H13 3785   4.689   5.579   1.654  0.8333  1.2368 -2.3841
  165DG     H14 3786   4.604   5.622   1.511 -1.3296 -0.9483 -1.0278
  165DG     H15 3787   4.733   6.089   1.360 -3.2243 -0.3556  3.8372
  165DG     H16 3788   4.796   6.191   1.481  1.4818 -1.0021  1.1075
  165DG     C17 3789   4.698   5.781   1.613  0.4761 -0.0472 -0.2326
  165DG     C18 3790   4.710   6.005   1.553  0.0792 -0.4663  0.0389
  165DG     O19 3791   4.722   5.873   1.506  0.0502 -0.3414 -0.6613
  165DG     H20 3792   4.789   5.791   1.672  1.7216  1.0261 -2.0127
  165DG     H21 3793   4.611   5.800   1.675 -1.6660  2.1410 -1.0275
  165DG     H22 3794   4.748   6.006   1.653  0.0062 -1.0219  1.1243
  165DG     H23 3795   4.605   6.029   1.567 -0.0177 -0.6305  0.1342
  166DG      C1 3796   5.037   3.671   5.118  0.2624  0.0206 -0.8300
  166DG      C2 3797   4.936   3.785   5.929  0.3053 -0.2239 -0.1824
  166DG      H3 3798   4.957   3.745   5.106 -0.7253 -0.6145 -3.5819
  166DG      H4 3799   5.031   3.583   5.052 -0.5526  1.6091  0.1997
  166DG      H5 3800   5.132   3.712   5.087  0.9648  0.3878 -1.4338
  166DG      H6 3801   5.004   3.855   5.986 -0.3824  2.1874  1.8149
  166DG      H7 3802   4.849   3.838   5.937  2.7697 -2.1391 -0.4339
  166DG      H8 3803   4.928   3.688   5.977  3.7070  1.7709  0.9011
  166DG      O9 3804   5.039   3.643   5.258  0.2443  0.2138 -0.6848
  166DG     O10 3805   4.986   3.768   5.801  0.2371 -0.3179 -0.4610
  166DG     C11 3806   4.966   3.519   5.283  0.4353 -0.3102 -0.3076
  166DG     C12 3807   4.906   3.685   5.714 -0.0522 -0.6385 -0.8126
  166DG     H13 3808   5.010   3.441   5.222 -0.9903 -1.3278 -1.0210
  166DG     H14 3809   4.861   3.529   5.244 -0.0696  0.5354 -1.1155
  166DG     H15 3810   4.810   3.719   5.684  2.6927  1.6660 -2.4742
  166DG     H16 3811   4.900   3.586   5.768  2.4068 -0.4690 -2.9156
  166DG     C17 3812   4.968   3.465   5.433 -0.0901  0.2082  0.1227
  166DG     C18 3813   4.980   3.648   5.588  0.1170 -0.8521 -0.4349
  166DG     O19 3814   4.906   3.553   5.522  0.4547 -0.0838 -0.0441
  166DG     H20 3815   5.061   3.442   5.482 -2.3981 -0.5668 -0.3485
  166DG     H21 3816   4.915   3.371   5.428 -2.0164 -0.9745  0.2620
  166DG     H22 3817   5.010   3.730   5.523 -0.4929 -2.6796  0.9269
  166DG     H23 3818   5.073   3.604   5.622  0.0503  1.3265  4.4807
  167DG      C1 3819   0.710   4.417   4.848 -0.5699 -0.1834 -0.6424
  167DG      C2 3820   1.161   4.187   4.317 -0.0565  0.1707  0.2831
  167DG      H3 3821   0.635   4.341   4.843  0.5682  1.3610 -3.2511
  167DG      H4 3822   0.663   4.504   4.892 -1.6600 -1.6272  0.8694
  167DG      H5 3823   0.791   4.363   4.894 -1.0639 -0.8822  0.4759
  167DG      H6 3824   1.215   4.237   4.242  0.2054 -1.9097  1.3004
  167DG      H7 3825   1.222   4.151   4.396  0.8697 -0.7543  2.3793
  167DG      H8 3826   1.107   4.107   4.277 -3.6789  0.2670  2.4099
  167DG      O9 3827   0.774   4.456   4.724 -0.0311  0.0324  0.0657
  167DG     O10 3828   1.070   4.290   4.363 -0.5127 -0.0776 -0.1102
  167DG     C11 3829   0.675   4.494   4.629 -0.3307  0.3659  1.0831
  167DG     C12 3830   0.977   4.333   4.266 -0.0560  0.1671  0.0634
  167DG     H13 3831   0.627   4.584   4.662 -0.3411  1.9101 -0.2228
  167DG     H14 3832   0.608   4.408   4.608 -0.3329 -0.4008  0.5437
  167DG     H15 3833   0.918   4.248   4.243 -2.3604  0.1655 -1.4932
  167DG     H16 3834   1.031   4.365   4.174  1.7926 -1.6382 -1.3297
  167DG     C17 3835   0.746   4.531   4.492 -0.1072  0.0676 -1.0940
  167DG     C18 3836   0.889   4.447   4.317 -0.5452 -0.6845 -0.2738
  167DG     O19 3837   0.825   4.421   4.440  0.1094 -0.1285 -0.3179
  167DG     H20 3838   0.818   4.604   4.523  2.2213  2.2778  2.1016
  167DG     H21 3839   0.688   4.590   4.423  1.4243 -3.3793  0.5406
  167DG     H22 3840   0.947   4.532   4.328 -1.3576 -2.8295  3.6987
  167DG     H23 3841   0.818   4.454   4.244  1.1172  1.2127  1.5431
  168DG      C1 3842   0.342   4.079   2.682 -0.2167 -0.8331  0.2024
  168DG      C2 3843   0.152   3.498   2.654 -0.6236 -0.3984  0.0090
  168DG      H3 3844   0.242   4.020   2.672  0.0967 -0.7889  1.3093
  168DG      H4 3845   0.365   4.105   2.580  1.9504  2.6972 -0.6275
  168DG      H5 3846   0.322   4.178   2.733  1.4815  2.0135  0.7199
  168DG      H6 3847   0.216   3.424   2.698 -1.6285 -0.1687  2.2154
  168DG      H7 3848   0.046   3.464   2.676  3.4171  3.3114  0.3559
  168DG      H8 3849   0.154   3.504   2.553  0.1436 -0.1897  0.5163
  168DG      O9 3850   0.441   3.996   2.741 -0.1677  0.0334 -0.1998
  168DG     O10 3851   0.174   3.625   2.709  0.1418  0.0802 -0.0853
  168DG     C11 3852   0.445   3.997   2.881 -0.3029 -0.5558 -0.5526
  168DG     C12 3853   0.154   3.616   2.856 -0.5143 -1.1601 -0.3122
  168DG     H13 3854   0.446   4.100   2.919  1.5202  1.5103 -2.7959
  168DG     H14 3855   0.525   3.941   2.927  0.7684 -1.2284  0.1554
  168DG     H15 3856   0.228   3.549   2.906 -0.4250 -1.7070 -0.0141
  168DG     H16 3857   0.055   3.571   2.886 -0.8429 -2.5289  0.7311
  168DG     C17 3858   0.320   3.937   2.941  0.1645 -0.1286 -0.1704
  168DG     C18 3859   0.170   3.761   2.914  0.6268  1.1437  0.4431
  168DG     O19 3860   0.298   3.804   2.886  0.0757 -0.7638 -0.6093
  168DG     H20 3861   0.232   4.001   2.925 -3.1908 -1.9923  0.5757
  168DG     H21 3862   0.334   3.924   3.047  1.6672  1.2226 -0.6950
  168DG     H22 3863   0.104   3.830   2.865  1.3148  0.7080  2.0047
  168DG     H23 3864   0.148   3.765   3.021  0.7879 -1.6649  0.0370
  169DG      C1 3865   3.791   3.545   3.774  0.2237  0.4179 -0.1640
  169DG      C2 3866   3.550   3.320   4.420 -0.1842 -0.1986 -0.0196
  169DG      H3 3867   3.851   3.611   3.710 -0.5875  0.8306 -2.5589
  169DG      H4 3868   3.713   3.495   3.717 -1.0639  3.1993  1.0950
  169DG      H5 3869   3.852   3.459   3.790 -0.7672 -0.4066 -2.4597
  169DG      H6 3870   3.656   3.295   4.445  1.3545 -0.5368  1.8524
  169DG      H7 3871   3.480   3.339   4.506  1.5338  0.5594 -2.0422
  169DG      H8 3872   3.520   3.238   4.357 -0.9770 -0.3623 -2.1779
  169DG      O9 3873   3.743   3.603   3.895  0.2130 -0.3772 -0.1717
  169DG     O10 3874   3.568   3.434   4.341  0.0807 -0.4991 -0.5788
  169DG     C11 3875   3.630   3.676   3.890  0.2744 -0.3833 -0.0838
  169DG     C12 3876   3.445   3.493   4.299 -0.1786  0.7938  0.5389
  169DG     H13 3877   3.556   3.617   3.845  1.9227  0.6721  2.8673
  169DG     H14 3878   3.653   3.755   3.821  1.6654 -1.5676 -2.3563
  169DG     H15 3879   3.381   3.513   4.383  0.0132  1.7422 -0.0578
  169DG     H16 3880   3.387   3.426   4.233  1.3681 -2.9665  1.1071
  169DG     C17 3881   3.577   3.712   4.023 -0.1766 -0.4206  0.0953
  169DG     C18 3882   3.476   3.630   4.225 -0.1908 -0.3743 -0.1936
  169DG     O19 3883   3.524   3.601   4.095 -0.1128 -0.4740 -0.3045
  169DG     H20 3884   3.487   3.768   4.012  0.3334 -0.4947 -0.8562
  169DG     H21 3885   3.651   3.777   4.074 -1.1932 -0.0955  1.7978
  169DG     H22 3886   3.384   3.694   4.231  2.5374 -0.0266  1.0546
  169DG     H23 3887   3.530   3.688   4.295  1.3731  1.2457  0.2207
  170DG      C1 3888   4.575   2.079   1.750  0.0400  0.2998 -0.4563
  170DG      C2 3889   4.232   2.270   2.266  0.0710  0.1510 -0.3464
  170DG      H3 3890   4.529   2.036   1.664  0.3621  0.5887  1.4112
  170DG      H4 3891   4.574   2.012   1.835 -0.8658 -1.9796  2.3201
  170DG      H5 3892   4.675   2.086   1.717 -1.4327 -1.4723 -0.8450
  170DG      H6 3893   4.136   2.322   2.252  1.3621 -1.2631  1.4437
  170DG      H7 3894   4.218   2.219   2.362 -1.4905  1.2030 -1.7152
  170DG      H8 3895   4.321   2.336   2.258  1.2348 -0.6942 -0.4560
  170DG      O9 3896   4.530   2.208   1.779  0.5466  0.0619 -0.4060
  170DG     O10 3897   4.240   2.179   2.156  0.1908 -0.6373 -0.3038
  170DG     C11 3898   4.622   2.281   1.866 -0.3972 -0.4818 -0.5353
  170DG     C12 3899   4.342   2.084   2.181  0.3911  0.8726  0.2917
  170DG     H13 3900   4.587   2.378   1.884  0.2294 -0.2740 -2.9133
  170DG     H14 3901   4.719   2.287   1.812  1.3689  2.0468  1.8101
  170DG     H15 3902   4.330   2.017   2.096  3.4696 -1.1554  0.6021
  170DG     H16 3903   4.333   2.028   2.275 -2.1658 -1.8858  1.8528
  170DG     C17 3904   4.640   2.218   2.004 -0.1351 -0.1484 -0.0236
  170DG     C18 3905   4.490   2.126   2.164 -0.5108  0.2422 -0.1612
  170DG     O19 3906   4.506   2.197   2.041 -0.5284  0.0548 -0.2032
  170DG     H20 3907   4.699   2.267   2.079  3.8666  0.1732 -0.4506
  170DG     H21 3908   4.697   2.121   1.990  1.8014  2.3181 -2.1867
  170DG     H22 3909   4.521   2.188   2.246 -0.7344 -0.2660 -3.5505
  170DG     H23 3910   4.551   2.032   2.168 -3.0178  2.7985  0.0508
  171DG      C1 3911   4.814   4.544   4.363  0.0902  0.0923 -0.9416
  171DG      C2 3912   4.926   4.129   4.956 -0.4926 -0.0173  0.0251
  171DG      H3 3913   4.871   4.635   4.337 -1.0429 -2.3430 -0.5028
  171DG      H4 3914   4.711   4.563   4.328  1.6768  2.8497  0.8090
  171DG      H5 3915   4.849   4.449   4.312 -0.5905  0.4949 -0.2855
  171DG      H6 3916   4.841   4.074   4.920  3.4611  0.7662  0.3112
  171DG      H7 3917   5.011   4.076   4.920  0.0807  1.7813  1.1078
  171DG      H8 3918   4.934   4.129   5.065 -1.3622  0.3537  0.0640
  171DG      O9 3919   4.836   4.514   4.500  0.3802  0.6693 -0.0729
  171DG     O10 3920   4.930   4.260   4.906  0.1597 -0.6881  0.1054
  171DG     C11 3921   4.760   4.601   4.581 -0.0330  0.3680  0.1421
  171DG     C12 3922   4.806   4.319   4.925 -0.3739  0.6316  0.1927
  171DG     H13 3923   4.659   4.560   4.585  3.2025  0.0742 -0.7147
  171DG     H14 3924   4.755   4.698   4.531 -0.5265 -2.2630  2.0823
  171DG     H15 3925   4.769   4.295   5.024  0.5474 -1.1252 -1.9070
  171DG     H16 3926   4.723   4.278   4.868 -0.5361 -1.0079 -0.7581
  171DG     C17 3927   4.811   4.625   4.720  0.5704 -0.0174  0.1532
  171DG     C18 3928   4.817   4.466   4.915  0.3343 -0.3064  0.2524
  171DG     O19 3929   4.821   4.495   4.777 -0.2998  0.4640  0.1364
  171DG     H20 3930   4.739   4.690   4.779  2.3258 -2.1797  0.4069
  171DG     H21 3931   4.906   4.679   4.717  2.6447 -0.6679  0.9007
  171DG     H22 3932   4.731   4.524   4.951 -0.1726  0.0400 -2.1529
  171DG     H23 3933   4.912   4.500   4.962  0.1086  0.1976 -1.2666
  172DG      C1 3934   0.910   3.323   2.887 -0.1322  0.3025 -0.1382
  172DG      C2 3935   1.243   2.773   3.009 -0.3694 -0.0028 -0.2206
  172DG      H3 3936   0.908   3.306   2.998 -2.2171 -3.7559  0.5438
  172DG      H4 3937   0.812   3.363   2.855  0.1648  1.0335  0.0328
  172DG      H5 3938   0.993   3.375   2.851 -1.9965  1.8470 -1.0874
  172DG      H6 3939   1.225   2.665   3.004  1.4955  0.4484 -0.4646
  172DG      H7 3940   1.348   2.800   2.987  1.5961  0.7626  2.8257
  172DG      H8 3941   1.221   2.812   3.109  1.7961  1.8062 -0.2721
  172DG      O9 3942   0.911   3.186   2.852  0.5568 -0.3073 -0.4435
  172DG     O10 3943   1.162   2.841   2.920  0.2983 -0.1875 -0.7233
  172DG     C11 3944   0.895   3.169   2.713  0.3818 -0.0284  0.0438
  172DG     C12 3945   1.204   2.805   2.791  0.3852  0.5101  0.6493
  172DG     H13 3946   0.966   3.234   2.665 -2.6730  1.9602 -0.2859
  172DG     H14 3947   0.803   3.203   2.666  1.0777 -1.8322 -1.6066
  172DG     H15 3948   1.207   2.700   2.781 -0.1024 -0.9412 -0.5951
  172DG     H16 3949   1.294   2.854   2.753  2.1195 -0.9648 -0.8748
  172DG     C17 3950   0.931   3.025   2.670  0.4568 -0.4509  0.4305
  172DG     C18 3951   1.080   2.853   2.719 -0.3296  0.2172 -0.1221
  172DG     O19 3952   1.045   2.983   2.751 -0.0048 -0.1331 -0.0366
  172DG     H20 3953   0.958   3.028   2.559  1.8563  1.0876 -2.3592
  172DG     H21 3954   0.847   2.962   2.685 -0.2628  2.6095  1.8313
  172DG     H22 3955   1.104   2.844   2.619  0.7251  0.3697 -2.8233
  172DG     H23 3956   0.999   2.789   2.752  1.7514 -2.0911 -0.5996
  173DG      C1 3957   2.195   0.986   2.937 -0.1925  0.0033  0.2764
  173DG      C2 3958   1.875   0.991   3.512  0.4478 -0.3563  0.3365
  173DG      H3 3959   2.162   0.999   2.838  0.1845 -2.3595  1.2503
  173DG      H4 3960   2.198   0.877   2.966  0.4621 -0.1762  0.6238
  173DG      H5 3961   2.302   1.009   2.951  0.9649 -0.6264  1.6939
  173DG      H6 3962   1.907   0.884   3.490  0.8204 -0.1764  0.6045
  173DG      H7 3963   1.933   1.020   3.603  1.9008  1.5082  3.3842
  173DG      H8 3964   1.765   0.982   3.537 -2.9012  0.6099 -1.2619
  173DG      O9 3965   2.111   1.065   3.019 -0.1848  0.3261 -0.1888
  173DG     O10 3966   1.892   1.060   3.396  0.0626  0.0850  0.3837
  173DG     C11 3967   2.122   1.204   3.010 -0.1751 -0.0943  0.3630
  173DG     C12 3968   1.842   1.199   3.406  0.6938  0.4749 -0.4325
  173DG     H13 3969   2.116   1.245   2.911  0.9537  0.2997  0.1210
  173DG     H14 3970   2.209   1.243   3.054  0.0201 -0.1199  1.4468
  173DG     H15 3971   1.880   1.251   3.487  1.6043 -2.1076  0.4445
  173DG     H16 3972   1.737   1.186   3.421 -0.0447 -2.6233  0.6600
  173DG     C17 3973   2.010   1.284   3.070 -0.5273  0.3941  0.3143
  173DG     C18 3974   1.868   1.275   3.264 -0.4887  0.0328  0.1820
  173DG     O19 3975   1.990   1.226   3.204  0.2616 -0.7908  0.0463
  173DG     H20 3976   1.927   1.266   3.005 -0.5550 -0.1743  0.2408
  173DG     H21 3977   2.023   1.394   3.076  2.0856  1.0388 -0.5250
  173DG     H22 3978   1.783   1.268   3.194  1.9127 -2.3752 -0.0944
  173DG     H23 3979   1.872   1.382   3.278 -1.2915 -1.6980  0.3026
  174DG      C1 3980   0.585   2.926   1.283 -0.7178  0.8270 -0.0517
  174DG      C2 3981   0.290   3.637   1.287 -0.4277  0.2692  0.2076
  174DG      H3 3982   0.627   2.875   1.197 -3.5630 -2.7949  0.0039
  174DG      H4 3983   0.497   2.876   1.309  0.8618  0.0392  1.5223
  174DG      H5 3984   0.654   2.926   1.371  1.3232  1.1014 -0.9500
  174DG      H6 3985   0.314   3.656   1.396 -0.6413  0.8381 -0.0593
  174DG      H7 3986   0.367   3.687   1.227  2.1931  2.9645 -2.0205
  174DG      H8 3987   0.200   3.686   1.247 -0.0459 -1.3260  0.2080
  174DG      O9 3988   0.550   3.057   1.258  0.8948  0.4858 -0.4763
  174DG     O10 3989   0.271   3.497   1.259  0.1170 -0.4463  0.3268
  174DG     C11 3990   0.457   3.081   1.152 -0.6889 -0.4211 -0.4747
  174DG     C12 3991   0.203   3.425   1.354 -0.1591 -0.7402  0.1524
  174DG     H13 3992   0.452   2.998   1.085 -1.5440  3.1665 -1.5436
  174DG     H14 3993   0.468   3.175   1.099  0.1460  0.0539  0.7761
  174DG     H15 3994   0.102   3.469   1.376  0.8899 -0.7556  0.6677
  174DG     H16 3995   0.247   3.439   1.451 -0.1582 -2.0030  2.9703
  174DG     C17 3996   0.327   3.097   1.231 -0.4107 -0.1773  0.9097
  174DG     C18 3997   0.187   3.278   1.310  0.0762  0.0112 -0.1664
  174DG     O19 3998   0.315   3.233   1.251  0.1350 -0.3746  0.0841
  174DG     H20 3999   0.315   3.050   1.326  0.9832  0.6854 -0.7681
  174DG     H21 4000   0.246   3.077   1.167  2.5461  0.5373 -1.1240
  174DG     H22 4001   0.169   3.216   1.397 -2.3531 -0.2118 -1.1464
  174DG     H23 4002   0.097   3.264   1.248 -1.0052 -3.1944 -1.5846
  175DG      C1 4003   2.262   1.784   1.907  1.0546  0.1599 -0.2627
  175DG      C2 4004   2.793   2.200   2.270 -0.4945  0.3214 -0.5779
  175DG      H3 4005   2.235   1.682   1.918 -1.9695  0.2072 -1.7659
  175DG      H4 4006   2.225   1.806   1.805  0.2996  2.0310  0.3532
  175DG      H5 4007   2.190   1.832   1.970 -2.6993 -1.8607 -1.1049
  175DG      H6 4008   2.823   2.096   2.305  0.9915 -0.9466 -0.2443
  175DG      H7 4009   2.874   2.267   2.268 -0.3763 -0.9400  1.7882
  175DG      H8 4010   2.737   2.246   2.346  0.4274 -1.4987  3.5728
  175DG      O9 4011   2.397   1.821   1.922  0.4276  0.5516 -0.2644
  175DG     O10 4012   2.716   2.207   2.153  0.2988  0.3224  0.3869
  175DG     C11 4013   2.446   1.771   2.044 -0.4268 -0.2551 -0.2259
  175DG     C12 4014   2.772   2.139   2.039 -0.0182 -0.2456  0.3946
  175DG     H13 4015   2.436   1.663   2.062  0.2373 -0.8166  2.1796
  175DG     H14 4016   2.403   1.834   2.129  0.2102  0.6021  1.3495
  175DG     H15 4017   2.877   2.174   2.017 -1.8059  2.6936  0.9312
  175DG     H16 4018   2.724   2.178   1.950  0.6638  1.1473 -1.1158
  175DG     C17 4019   2.599   1.808   2.033  0.6926  0.5470 -0.1439
  175DG     C18 4020   2.761   1.987   2.045 -0.5811  0.0649  0.3486
  175DG     O19 4021   2.620   1.950   2.046 -0.1936  0.0250 -0.0809
  175DG     H20 4022   2.645   1.781   1.939 -1.7164  1.1264 -1.7174
  175DG     H21 4023   2.645   1.766   2.125  0.1756  0.1756  0.5913
  175DG     H22 4024   2.805   1.955   1.951  0.0814 -2.7300 -0.8780
  175DG     H23 4025   2.820   1.949   2.127 -1.4915 -1.8901 -0.6459
  176DG      C1 4026   4.786   2.146   3.413 -0.0075  0.6112 -0.6492
  176DG      C2 4027   4.838   2.124   2.721  0.2390 -0.3432 -1.1810
  176DG      H3 4028   4.775   2.092   3.502  1.0291 -0.4134 -0.2568
  176DG      H4 4029   4.750   2.248   3.423  0.8116  0.6932  1.1786
  176DG      H5 4030   4.886   2.161   3.416 -1.1836  1.0588  0.8642
  176DG      H6 4031   4.823   2.060   2.643  0.5481  1.9023 -0.1799
  176DG      H7 4032   4.786   2.221   2.704 -0.2364  1.2300  0.8340
  176DG      H8 4033   4.944   2.144   2.748 -1.5574  0.9054 -0.4753
  176DG      O9 4034   4.747   2.069   3.293 -0.0095  0.0876 -0.5658
  176DG     O10 4035   4.780   2.048   2.829  0.5454 -0.5585  0.4428
  176DG     C11 4036   4.621   2.009   3.297 -0.6146  0.0944  0.6935
  176DG     C12 4037   4.639   2.030   2.812  0.4864 -0.3104  0.3438
  176DG     H13 4038   4.542   2.074   3.301  0.0243 -2.7603  3.5800
  176DG     H14 4039   4.621   1.950   3.384 -0.5783 -0.1845 -0.3784
  176DG     H15 4040   4.624   1.968   2.728  1.6068 -0.5643 -0.9600
  176DG     H16 4041   4.569   2.112   2.805 -1.4775 -0.6043 -0.6479
  176DG     C17 4042   4.604   1.917   3.174 -0.5966 -0.4007  0.0583
  176DG     C18 4043   4.596   1.935   2.925 -0.2455  1.2816  0.3972
  176DG     O19 4044   4.602   2.002   3.053 -0.7249 -0.4672 -0.2572
  176DG     H20 4045   4.508   1.869   3.178 -0.4008  0.8153  0.2418
  176DG     H21 4046   4.673   1.836   3.176  0.0969  0.1895 -0.1551
  176DG     H22 4047   4.491   1.911   2.921 -1.6841  2.3549 -1.8083
  176DG     H23 4048   4.652   1.844   2.927  2.6624  0.7612 -1.1267
  177DG      C1 4049   4.141   0.274   0.529 -0.1066  0.3026  1.1063
  177DG      C2 4050   4.031   0.198   1.232  0.0517 -0.2280  0.2538
  177DG      H3 4051   4.153   0.329   0.442  2.4034  0.8822  1.2022
  177DG      H4 4052   4.031   0.291   0.551 -0.3112  2.4499  1.2300
  177DG      H5 4053   4.149   0.171   0.497  1.1899 -2.0384  1.8115
  177DG      H6 4054   3.936   0.230   1.261  0.6409 -0.7115 -1.2266
  177DG      H7 4055   4.006   0.111   1.164  0.2393 -1.2641 -0.1668
  177DG      H8 4056   4.082   0.169   1.326  0.2388  0.0471 -0.1994
  177DG      O9 4057   4.220   0.315   0.636  0.0621 -0.3716  0.0924
  177DG     O10 4058   4.102   0.295   1.157  0.2047 -0.4121  0.3134
  177DG     C11 4059   4.194   0.445   0.674 -0.2224 -0.2252 -0.5262
  177DG     C12 4060   4.230   0.248   1.104 -0.3568 -0.6875 -0.3165
  177DG     H13 4061   4.088   0.459   0.699  0.5909  1.3570 -1.3771
  177DG     H14 4062   4.238   0.499   0.589  3.4945 -0.3817 -0.1693
  177DG     H15 4063   4.213   0.161   1.041 -0.7020  0.6765  0.2671
  177DG     H16 4064   4.311   0.224   1.180 -0.6008 -2.1228 -0.2953
  177DG     C17 4065   4.262   0.467   0.811 -0.3260 -0.1621 -0.2747
  177DG     C18 4066   4.288   0.357   1.019 -0.3288  0.0762  0.1653
  177DG     O19 4067   4.213   0.366   0.900 -0.0057 -0.6580 -0.4710
  177DG     H20 4068   4.249   0.561   0.852  2.5315 -2.0314  0.7850
  177DG     H21 4069   4.367   0.462   0.798 -0.5828 -3.2757  1.3571
  177DG     H22 4070   4.303   0.451   1.076  0.3151 -1.2072  2.9813
  177DG     H23 4071   4.387   0.328   0.988  1.3956  1.2677 -1.0937
  178DG      C1 4072   0.523   3.884   4.539  0.4091 -0.2215  0.1731
  178DG      C2 4073   1.106   3.762   4.664 -0.3670 -0.6302  0.3718
  178DG      H3 4074   0.488   3.831   4.629  1.0504  0.9108 -0.1952
  178DG      H4 4075   0.632   3.870   4.514  0.2813  1.1094 -0.6098
  178DG      H5 4076   0.467   3.841   4.449 -1.4251  0.4048 -0.9321
  178DG      H6 4077   1.080   3.657   4.632 -1.0153 -1.2386 -1.8257
  178DG      H7 4078   1.206   3.789   4.646 -0.1586  1.6359  1.6826
  178DG      H8 4079   1.083   3.758   4.769 -1.6209 -0.5804  0.5024
  178DG      O9 4080   0.498   4.025   4.549 -0.0038  0.0306  0.3797
  178DG     O10 4081   1.029   3.852   4.581  0.2958 -0.2390 -0.5785
  178DG     C11 4082   0.567   4.090   4.654  0.3015  0.5535  0.2063
  178DG     C12 4083   1.036   3.980   4.625  1.1628 -0.5747  0.0904
  178DG     H13 4084   0.574   4.021   4.744 -0.5934 -2.9389  0.1054
  178DG     H14 4085   0.509   4.176   4.689  1.8988 -0.4109 -0.3887
  178DG     H15 4086   1.127   4.026   4.611 -1.0036 -0.4929 -4.1767
  178DG     H16 4087   1.013   3.988   4.732  0.2651  0.4201  1.3561
  178DG     C17 4088   0.702   4.139   4.617  0.3822 -0.2566  0.9537
  178DG     C18 4089   0.920   4.069   4.564 -0.1016 -0.1239  0.2458
  178DG     O19 4090   0.792   4.028   4.606 -0.5683  0.4770  0.0676
  178DG     H20 4091   0.749   4.203   4.694 -0.9742  1.9157 -0.2968
  178DG     H21 4092   0.693   4.193   4.520  1.4307 -2.7376  0.6226
  178DG     H22 4093   0.932   4.176   4.590 -0.3468  2.8733  0.0191
  178DG     H23 4094   0.917   4.058   4.451 -2.2917 -1.6103  1.4193
  179DG      C1 4095   2.088   1.311   4.465  0.6406 -1.0512 -0.5711
  179DG      C2 4096   2.554   1.010   5.024 -0.7287 -0.2677  0.1574
  179DG      H3 4097   2.122   1.405   4.504 -1.1125  2.5644  0.0915
  179DG      H4 4098   1.979   1.307   4.487  0.7724  1.2096 -2.1361
  179DG      H5 4099   2.094   1.307   4.356 -1.1184  0.0082  1.6074
  179DG      H6 4100   2.591   1.108   5.042 -1.3462 -2.1266  2.1368
  179DG      H7 4101   2.503   0.983   5.115  0.1007  1.2859  1.4444
  179DG      H8 4102   2.634   0.934   5.012  0.6671  2.2023  0.4987
  179DG      O9 4103   2.153   1.200   4.528 -0.3025 -0.1287 -0.5092
  179DG     O10 4104   2.461   1.001   4.916 -0.5179  0.2376 -0.3140
  179DG     C11 4105   2.177   1.231   4.665  0.3391  0.1558  0.5988
  179DG     C12 4106   2.524   0.973   4.792 -0.0223 -0.1842 -0.3818
  179DG     H13 4107   2.091   1.230   4.729 -0.6409 -0.8486  0.8745
  179DG     H14 4108   2.224   1.327   4.677 -0.3495 -2.7334  0.2059
  179DG     H15 4109   2.583   0.880   4.802 -2.6125 -1.9639  0.5291
  179DG     H16 4110   2.611   1.043   4.778  1.9847  0.0262  0.2348
  179DG     C17 4111   2.274   1.131   4.720  0.5085 -0.4275  0.6845
  179DG     C18 4112   2.422   0.959   4.678  0.2053  0.4140  0.6975
  179DG     O19 4113   2.366   1.083   4.622  0.7466  0.2441 -0.1380
  179DG     H20 4114   2.213   1.045   4.746  2.6433 -2.1727 -1.8082
  179DG     H21 4115   2.320   1.167   4.816  1.6199  1.1678 -0.8355
  179DG     H22 4116   2.482   0.919   4.601 -0.5267 -0.3139 -1.1635
  179DG     H23 4117   2.348   0.881   4.701 -0.0733  0.9415  0.8439
  180DG      C1 4118   5.333   0.718   1.028  0.0289 -0.3263  0.1961
  180DG      C2 4119   5.203  -0.017   0.857 -0.6326  0.5039  0.8752
  180DG      H3 4120   5.258   0.731   1.116 -3.1954 -0.0394  1.2811
  180DG      H4 4121   5.347   0.822   0.977  0.5462  3.6558 -3.0729
  180DG      H5 4122   5.430   0.701   1.072  0.6881 -2.5933 -4.2796
  180DG      H6 4123   5.308  -0.038   0.853  0.5326 -1.6770  0.7106
  180DG      H7 4124   5.169  -0.040   0.958  0.1287 -1.6497  1.9966
  180DG      H8 4125   5.154  -0.069   0.777 -0.6384  0.8132 -0.2188
  180DG      O9 4126   5.308   0.612   0.933  0.0351  0.1122  0.6174
  180DG     O10 4127   5.176   0.118   0.849  1.0441 -0.6163  0.0236
  180DG     C11 4128   5.185   0.632   0.877 -0.3087  0.1465  0.6260
  180DG     C12 4129   5.223   0.176   0.730  0.7946  0.6951 -0.1553
  180DG     H13 4130   5.177   0.738   0.842 -2.1185 -2.9152 -1.6652
  180DG     H14 4131   5.098   0.609   0.941  1.7207 -3.1661 -0.0187
  180DG     H15 4132   5.226   0.098   0.653 -3.6326 -1.5634  2.8976
  180DG     H16 4133   5.325   0.187   0.758 -2.4677  2.4247 -0.3871
  180DG     C17 4134   5.167   0.534   0.753  0.2243  0.2861 -0.4442
  180DG     C18 4135   5.165   0.312   0.697 -0.2548 -0.8782  0.8712
  180DG     O19 4136   5.187   0.405   0.803  0.1935  0.3192 -0.1406
  180DG     H20 4137   5.250   0.550   0.685  0.1666  1.6761  2.7664
  180DG     H21 4138   5.071   0.543   0.700  0.7719  2.1238 -1.4434
  180DG     H22 4139   5.222   0.350   0.614  3.5353  1.4748 -0.3206
  180DG     H23 4140   5.057   0.307   0.665 -0.1253 -1.5189  0.0134
  181DG      C1 4141   0.612   3.418   1.315  0.5980  0.2703  0.4203
  181DG      C2 4142   0.152   3.562   0.899  0.0753 -0.2112  0.5336
  181DG      H3 4143   0.543   3.468   1.380 -0.0403  3.2205 -0.5614
  181DG      H4 4144   0.705   3.405   1.363 -2.4066  1.5797  1.2804
  181DG      H5 4145   0.591   3.316   1.297 -2.6418  2.6537 -0.5418
  181DG      H6 4146   0.117   3.633   0.972 -2.0608  0.7908  2.4718
  181DG      H7 4147   0.081   3.588   0.820  0.7360  0.2933  0.0775
  181DG      H8 4148   0.131   3.459   0.939  0.2086  0.9026  1.6774
  181DG      O9 4149   0.608   3.480   1.184  0.3067 -0.2145 -0.7969
  181DG     O10 4150   0.292   3.572   0.871 -0.0520  0.0974 -0.5469
  181DG     C11 4151   0.663   3.610   1.188 -0.2165  0.8813  0.2474
  181DG     C12 4152   0.331   3.703   0.856 -0.1922  0.1864 -0.4544
  181DG     H13 4153   0.767   3.599   1.221  0.3663 -0.7898  1.3639
  181DG     H14 4154   0.623   3.663   1.274  0.1154  0.2726 -1.7032
  181DG     H15 4155   0.279   3.770   0.922  1.6868 -0.7295 -1.3909
  181DG     H16 4156   0.306   3.728   0.752  0.1686  1.6734  1.2620
  181DG     C17 4157   0.646   3.681   1.051 -0.6908 -0.2379 -0.3047
  181DG     C18 4158   0.485   3.721   0.873 -0.5178 -0.3354 -0.0882
  181DG     O19 4159   0.512   3.650   0.995 -0.0249  0.1121 -0.3829
  181DG     H20 4160   0.710   3.632   0.983  0.6450  0.3628  0.7421
  181DG     H21 4161   0.671   3.790   1.049 -1.0187 -2.6848  1.9342
  181DG     H22 4162   0.540   3.671   0.787  0.9900 -1.1146  2.0996
  181DG     H23 4163   0.514   3.825   0.877 -5.3359 -1.3936  0.4067
  182DG      C1 4164   1.779   4.759   1.273  0.8019  0.5455  0.0606
  182DG      C2 4165   1.041   4.816   1.700  0.1624 -0.2203 -0.0857
  182DG      H3 4166   1.881   4.755   1.321  2.3190 -0.6276 -0.0433
  182DG      H4 4167   1.774   4.844   1.207 -1.6745  0.9218 -0.7966
  182DG      H5 4168   1.772   4.676   1.197  2.7394 -1.5945  0.7867
  182DG      H6 4169   0.974   4.745   1.653 -0.5566  1.9799  3.6976
  182DG      H7 4170   0.997   4.835   1.802 -1.3399 -1.5252  3.1317
  182DG      H8 4171   1.051   4.915   1.647  0.7729  0.4141  0.5469
  182DG      O9 4172   1.668   4.748   1.366 -0.2656 -0.4358 -0.1641
  182DG     O10 4173   1.160   4.749   1.731  0.0555  0.6762 -0.1798
  182DG     C11 4174   1.662   4.622   1.426 -1.2347  1.0493  0.7166
  182DG     C12 4175   1.241   4.729   1.615 -0.1514 -0.3550 -0.5200
  182DG     H13 4176   1.763   4.583   1.437  3.2893 -0.5653  1.7953
  182DG     H14 4177   1.608   4.549   1.373  0.9935 -1.0817  1.1333
  182DG     H15 4178   1.243   4.818   1.560 -1.2906 -1.3276 -0.4303
  182DG     H16 4179   1.192   4.660   1.541  0.6505  0.3815 -0.5824
  182DG     C17 4180   1.591   4.645   1.558  0.2550  0.2589  0.5234
  182DG     C18 4181   1.377   4.683   1.654  0.5623 -0.1974  0.0953
  182DG     O19 4182   1.457   4.690   1.536  0.2746  0.4731 -0.1757
  182DG     H20 4183   1.639   4.715   1.625 -1.7537  0.1022  4.0821
  182DG     H21 4184   1.599   4.555   1.614  0.4959 -0.6857 -2.8025
  182DG     H22 4185   1.413   4.751   1.730  0.2712  1.7022 -0.3826
  182DG     H23 4186   1.384   4.577   1.697  0.6873 -0.3754  0.7802
  183DG      C1 4187   1.870   0.605   5.219 -0.3356 -0.5902  0.2602
  183DG      C2 4188   1.574   1.140   4.890 -0.6969  0.5161  0.4211
  183DG      H3 4189   1.941   0.580   5.297  0.4898 -0.2233 -2.0383
  183DG      H4 4190   1.908   0.558   5.122 -0.4644 -2.7653 -1.0071
  183DG      H5 4191   1.771   0.573   5.257  2.2047 -0.3334 -1.1204
  183DG      H6 4192   1.617   1.206   4.815 -2.0971 -0.0719  2.1201
  183DG      H7 4193   1.556   1.047   4.830  1.2055 -3.3622  1.0391
  183DG      H8 4194   1.482   1.152   4.932 -1.1915 -1.6713  1.5174
  183DG      O9 4195   1.876   0.746   5.214  0.1792  0.2320 -0.3593
  183DG     O10 4196   1.673   1.091   4.985  0.1902  0.5712 -0.3913
  183DG     C11 4197   1.859   0.824   5.330  0.1670  0.6039  0.0864
  183DG     C12 4198   1.705   1.198   5.072  0.3990  0.1812  0.1583
  183DG     H13 4199   1.932   0.790   5.404 -0.4507 -1.8212  1.3949
  183DG     H14 4200   1.763   0.802   5.372  2.2506  3.0114  1.1775
  183DG     H15 4201   1.621   1.227   5.131  4.8754 -0.0765 -0.1192
  183DG     H16 4202   1.748   1.290   5.027 -1.0792  5.3209  1.5509
  183DG     C17 4203   1.873   0.975   5.301  0.2065  0.0276  0.2657
  183DG     C18 4204   1.813   1.150   5.166 -0.4705 -0.9063  0.7920
  183DG     O19 4205   1.773   1.024   5.211  0.0924 -0.0040 -0.1160
  183DG     H20 4206   1.976   0.988   5.266 -0.2547  2.1512 -0.9010
  183DG     H21 4207   1.865   1.033   5.398 -2.1026 -2.3277  1.6626
  183DG     H22 4208   1.911   1.153   5.112  2.2020 -1.5716  1.2793
  183DG     H23 4209   1.831   1.219   5.246  1.7399  2.0893 -0.2255
  184DG      C1 4210   1.640   4.129   3.706  0.0226  0.8631  0.3152
  184DG      C2 4211   1.592   4.602   3.237 -0.2617  0.4575  0.1840
  184DG      H3 4212   1.724   4.128   3.640 -3.6942  1.3623  0.5945
  184DG      H4 4213   1.567   4.067   3.656 -1.3639  1.6704  1.4260
  184DG      H5 4214   1.670   4.074   3.795  0.4377  0.0501 -0.8235
  184DG      H6 4215   1.570   4.708   3.200 -1.4375 -1.7509  1.0977
  184DG      H7 4216   1.697   4.598   3.232 -1.7210 -1.1604 -2.4385
  184DG      H8 4217   1.546   4.519   3.181  0.8574 -0.8574  0.3009
  184DG      O9 4218   1.591   4.259   3.708 -0.4516  0.5272  0.2621
  184DG     O10 4219   1.565   4.580   3.373  0.3932 -1.0863  0.0770
  184DG     C11 4220   1.461   4.278   3.769 -0.8279 -0.1110 -0.5317
  184DG     C12 4221   1.424   4.595   3.406  0.3049 -0.2498 -0.4101
  184DG     H13 4222   1.460   4.248   3.871 -0.7621 -2.4822 -0.7890
  184DG     H14 4223   1.387   4.215   3.715  1.3525  0.5465 -0.5815
  184DG     H15 4224   1.358   4.539   3.340  0.8361 -0.1467  0.0870
  184DG     H16 4225   1.389   4.694   3.391 -2.2873  0.8075  1.6915
  184DG     C17 4226   1.427   4.426   3.734 -0.1161  0.1549  0.3466
  184DG     C18 4227   1.394   4.574   3.550 -0.6773  0.8809 -0.5505
  184DG     O19 4228   1.418   4.433   3.593  0.1479 -0.4749 -0.4144
  184DG     H20 4229   1.496   4.504   3.773 -0.6227 -1.6418  0.7199
  184DG     H21 4230   1.322   4.460   3.765 -3.9457 -1.1138  2.6716
  184DG     H22 4231   1.439   4.638   3.614 -0.8400  0.8510  0.8172
  184DG     H23 4232   1.286   4.594   3.558 -0.5081  2.2781 -1.9561
  185DG      C1 4233   4.173   0.473   4.525 -0.1594  0.1752  0.9379
  185DG      C2 4234   4.099   0.577   3.866 -0.1188 -0.9791  0.1853
  185DG      H3 4235   4.143   0.371   4.506  0.4487  0.4939  1.1398
  185DG      H4 4236   4.082   0.522   4.541  0.1635  0.5629  1.0362
  185DG      H5 4237   4.239   0.482   4.607  0.7733  0.6066  2.1695
  185DG      H6 4238   4.123   0.618   3.770  1.3569 -1.5007  0.0989
  185DG      H7 4239   4.055   0.478   3.861 -2.4676 -1.1460 -2.6010
  185DG      H8 4240   4.015   0.642   3.908 -0.5501  1.4058  1.3789
  185DG      O9 4241   4.244   0.526   4.404 -0.0311 -0.8215  0.0490
  185DG     O10 4242   4.202   0.593   3.960 -0.1789  0.6784  0.2505
  185DG     C11 4243   4.331   0.638   4.428  0.5173  0.4543  0.6659
  185DG     C12 4244   4.258   0.726   3.952  0.2086 -0.2930 -0.2473
  185DG     H13 4245   4.415   0.604   4.493  2.6331  0.7336  2.2553
  185DG     H14 4246   4.272   0.710   4.490 -1.7093  2.2572 -2.6990
  185DG     H15 4247   4.182   0.803   3.961 -1.7551 -1.9935  0.0451
  185DG     H16 4248   4.298   0.756   3.852  4.2213 -0.4989  0.8804
  185DG     C17 4249   4.394   0.695   4.297  0.3082 -0.1379  0.1933
  185DG     C18 4250   4.367   0.741   4.067  0.4720 -0.1538  0.0193
  185DG     O19 4251   4.306   0.692   4.190  0.3182  0.2619  0.2214
  185DG     H20 4252   4.477   0.640   4.271 -1.0099  0.1865  0.5500
  185DG     H21 4253   4.422   0.801   4.309  1.4491 -0.0919 -0.5103
  185DG     H22 4254   4.447   0.674   4.033  1.6475 -3.1562 -1.4374
  185DG     H23 4255   4.410   0.838   4.076 -2.4887 -3.0279  0.0735
  186DG      C1 4256   5.390   3.936   3.694  0.0988  0.1280 -0.1383
  186DG      C2 4257   5.044   3.635   3.235 -0.4593 -0.7370  0.5696
  186DG      H3 4258   5.346   3.861   3.756 -1.1434 -0.1004 -0.9310
  186DG      H4 4259   5.358   4.041   3.719  0.1381  0.4723 -0.7138
  186DG      H5 4260   5.498   3.933   3.711  0.0255 -1.6430  0.9781
  186DG      H6 4261   4.952   3.610   3.186  0.2094  1.3781 -0.2556
  186DG      H7 4262   5.130   3.620   3.176 -0.1955 -0.9636  0.7454
  186DG      H8 4263   5.050   3.575   3.323 -2.0273 -1.0796 -0.6953
  186DG      O9 4264   5.351   3.915   3.560 -0.1359 -0.1755 -0.0379
  186DG     O10 4265   5.026   3.767   3.277  0.0928 -0.4468  0.6219
  186DG     C11 4266   5.381   4.031   3.476 -0.7800 -0.0375  0.7067
  186DG     C12 4267   5.044   3.858   3.174  0.6493 -0.4628  0.3480
  186DG     H13 4268   5.486   4.053   3.485 -0.7954 -0.7702  0.5952
  186DG     H14 4269   5.314   4.110   3.512 -0.7205 -1.2061 -1.3276
  186DG     H15 4270   4.976   3.940   3.210 -0.7510 -0.2549 -0.8402
  186DG     H16 4271   5.021   3.828   3.076  0.1578 -1.4103  1.4384
  186DG     C17 4272   5.346   3.999   3.331 -0.0960  0.3765  0.2138
  186DG     C18 4273   5.187   3.907   3.183 -0.6128  0.3172  0.3781
  186DG     O19 4274   5.220   3.939   3.319 -0.1233  0.2717  0.0688
  186DG     H20 4275   5.421   3.928   3.297 -1.2986 -4.9195  1.5635
  186DG     H21 4276   5.349   4.089   3.273 -2.4881 -1.1074 -1.1313
  186DG     H22 4277   5.256   3.836   3.135  0.1471 -0.0345  0.6639
  186DG     H23 4278   5.188   4.000   3.127 -0.1172 -1.0686  1.4161
  187DG      C1 4279   5.116   1.193   2.911  0.1493  0.1094  0.5279
  187DG      C2 4280   4.982   0.350   2.824 -0.2373 -0.3495 -1.0135
  187DG      H3 4281   5.106   1.150   3.008 -2.0477  1.0399 -1.3632
  187DG      H4 4282   5.012   1.237   2.909 -2.4804  1.4405  1.6795
  187DG      H5 4283   5.195   1.267   2.907  0.4415 -1.6410 -1.2362
  187DG      H6 4284   4.938   0.342   2.922 -0.5163 -1.2431  0.9991
  187DG      H7 4285   4.902   0.348   2.753 -1.6656  0.4249 -3.7839
  187DG      H8 4286   5.047   0.259   2.812 -0.1655 -0.3226  0.8137
  187DG      O9 4287   5.135   1.087   2.822  0.0999 -0.5062  0.2125
  187DG     O10 4288   5.049   0.475   2.830 -0.5645  0.3278 -0.5026
  187DG     C11 4289   5.071   0.962   2.864 -0.0080 -0.0892 -0.6718
  187DG     C12 4290   5.126   0.501   2.718 -0.5896  0.4698  1.0804
  187DG     H13 4291   4.964   0.973   2.842  0.2622  1.3833 -0.5289
  187DG     H14 4292   5.079   0.940   2.970  1.3743 -2.3826  0.5182
  187DG     H15 4293   5.064   0.503   2.631  1.7785 -0.5528 -0.7102
  187DG     H16 4294   5.203   0.425   2.708  0.9637  1.4475  2.3941
  187DG     C17 4295   5.136   0.858   2.771  0.1753  0.0809 -0.4653
  187DG     C18 4296   5.191   0.635   2.736 -0.3792  0.1115  0.8318
  187DG     O19 4297   5.093   0.722   2.795 -0.2870  0.1456  0.2568
  187DG     H20 4298   5.249   0.871   2.782 -1.5704  0.4087 -1.6577
  187DG     H21 4299   5.115   0.879   2.665 -0.4893 -0.4286 -2.0271
  187DG     H22 4300   5.278   0.618   2.798 -0.1822 -0.1954 -0.9943
  187DG     H23 4301   5.238   0.674   2.647  2.1162 -1.7651 -1.3431
  188DG      C1 4302   0.701   3.465   5.199 -0.1177  0.3271  0.4377
  188DG      C2 4303   0.455   2.944   5.451  0.0625 -0.3272  0.0590
  188DG      H3 4304   0.785   3.542   5.195  1.3847  1.6492  0.7531
  188DG      H4 4305   0.612   3.519   5.242  2.3300  0.6076  3.8857
  188DG      H5 4306   0.657   3.454   5.104  0.1847 -0.7391 -4.9776
  188DG      H6 4307   0.411   2.952   5.352 -0.0732  0.2335  2.8082
  188DG      H7 4308   0.383   2.896   5.519 -0.6401 -3.0457  1.9329
  188DG      H8 4309   0.463   3.049   5.490 -1.3223  2.9991 -0.3349
  188DG      O9 4310   0.731   3.338   5.257 -0.0240 -0.2171 -0.3972
  188DG     O10 4311   0.577   2.874   5.440  0.9619 -0.3838 -0.1384
  188DG     C11 4312   0.767   3.352   5.391  0.6872  0.2247  0.0340
  188DG     C12 4313   0.670   2.895   5.549 -0.2655 -0.1282  0.4517
  188DG     H13 4314   0.667   3.377   5.434 -3.1272 -1.1527 -0.0744
  188DG     H14 4315   0.839   3.435   5.395  1.3463 -1.3689 -2.5670
  188DG     H15 4316   0.725   2.801   5.561  2.2706 -1.2969  2.2636
  188DG     H16 4317   0.621   2.926   5.645  0.1385  1.1211  1.8293
  188DG     C17 4318   0.818   3.220   5.451 -0.6286  0.1282  0.1206
  188DG     C18 4319   0.778   3.003   5.514 -1.2295 -0.4891 -0.2245
  188DG     O19 4320   0.723   3.115   5.458  0.1775  0.8325  0.1629
  188DG     H20 4321   0.841   3.251   5.559 -1.3722 -0.8138  1.2248
  188DG     H21 4322   0.920   3.202   5.405 -0.1585  2.6805 -3.3770
  188DG     H22 4323   0.825   3.027   5.605 -2.1631 -1.2244  0.8552
  188DG     H23 4324   0.847   2.955   5.445 -0.2931  1.7773 -1.6167
  189DG      C1 4325   0.773   3.147   3.655 -0.3280  0.1157 -0.6056
  189DG      C2 4326   1.167   3.753   3.834 -0.3672 -0.3268  0.8009
  189DG      H3 4327   0.708   3.144   3.736 -1.0143 -0.3543  0.8953
  189DG      H4 4328   0.854   3.092   3.697 -1.2591  0.8629 -2.7192
  189DG      H5 4329   0.718   3.097   3.577 -1.4109  0.1875  0.6397
  189DG      H6 4330   1.143   3.701   3.927  0.1632  0.1705  0.3358
  189DG      H7 4331   1.236   3.688   3.785  0.8868 -2.4020 -1.4039
  189DG      H8 4332   1.228   3.836   3.850  2.5458 -1.2040  0.3905
  189DG      O9 4333   0.816   3.276   3.615  0.6305 -0.4529 -0.0918
  189DG     O10 4334   1.052   3.779   3.753  0.3649 -0.4158 -0.2707
  189DG     C11 4335   0.707   3.352   3.566 -0.3102 -0.0046  1.3923
  189DG     C12 4336   0.986   3.661   3.719 -0.2133  0.2307  0.1875
  189DG     H13 4337   0.637   3.339   3.645  2.2833  1.1935 -0.8562
  189DG     H14 4338   0.665   3.301   3.478 -1.1996  1.3055  2.0730
  189DG     H15 4339   0.966   3.602   3.814 -0.6270 -0.6358 -0.9833
  189DG     H16 4340   1.052   3.596   3.661 -0.8203  1.7861  1.0082
  189DG     C17 4341   0.741   3.508   3.536 -0.0027  0.0642 -0.4319
  189DG     C18 4342   0.864   3.682   3.639  0.3279 -0.5934  0.6671
  189DG     O19 4343   0.804   3.554   3.654 -0.2126  0.6222  0.2537
  189DG     H20 4344   0.657   3.576   3.515  0.1500  0.6761  0.7344
  189DG     H21 4345   0.807   3.520   3.452 -2.7468  2.0136 -0.6361
  189DG     H22 4346   0.801   3.761   3.684  2.2852 -1.4734 -2.2613
  189DG     H23 4347   0.889   3.704   3.533 -1.2910 -1.4001  1.6541
  190DG      C1 4348   2.333   2.251   4.310  0.1179 -0.6523 -0.6420
  190DG      C2 4349   2.444   1.733   4.751  0.1238 -0.4448  0.5456
  190DG      H3 4350   2.349   2.173   4.227 -0.9057  2.1871  1.6649
  190DG      H4 4351   2.365   2.349   4.278  0.3917  0.8402  0.7057
  190DG      H5 4352   2.227   2.249   4.319  0.4229 -2.1339  0.3849
  190DG      H6 4353   2.350   1.726   4.800  0.0166 -2.9817 -4.2033
  190DG      H7 4354   2.428   1.666   4.664 -2.2705 -1.3385 -2.2116
  190DG      H8 4355   2.522   1.686   4.814 -2.8741  0.4216  0.1814
  190DG      O9 4356   2.396   2.196   4.425  0.2035  0.8854 -0.1657
  190DG     O10 4357   2.471   1.872   4.733  0.1334 -0.0283  0.3152
  190DG     C11 4358   2.383   2.282   4.532 -0.2559 -0.0556  1.1339
  190DG     C12 4359   2.475   1.937   4.864  0.1348  0.3130  0.0994
  190DG     H13 4360   2.283   2.283   4.569 -2.2737 -1.9154  2.8156
  190DG     H14 4361   2.402   2.388   4.512 -0.6636 -0.5508 -0.8004
  190DG     H15 4362   2.547   1.898   4.936  1.2051  2.2642 -0.0068
  190DG     H16 4363   2.374   1.932   4.908  1.7952 -1.4905 -0.0497
  190DG     C17 4364   2.472   2.247   4.654  0.8438  0.2254  0.6652
  190DG     C18 4365   2.510   2.084   4.831  0.0323 -0.0738  0.0325
  190DG     O19 4366   2.441   2.117   4.707 -0.0660  0.2587 -0.3794
  190DG     H20 4367   2.471   2.315   4.744  1.3547  0.2129  3.5000
  190DG     H21 4368   2.568   2.256   4.615 -3.3619  0.3112  1.4629
  190DG     H22 4369   2.487   2.148   4.920 -1.9072 -1.5857 -0.6174
  190DG     H23 4370   2.620   2.079   4.820 -0.8516  0.8670  1.9519
  191DG      C1 4371   0.205   2.777   2.953  0.3940 -0.0161 -0.1108
  191DG      C2 4372   0.364   2.127   3.058 -0.3505 -0.6430  0.7021
  191DG      H3 4373   0.102   2.795   2.978 -0.5331 -0.7971 -2.0834
  191DG      H4 4374   0.202   2.720   2.862  1.4586  2.1583 -0.7649
  191DG      H5 4375   0.263   2.866   2.944  0.6428 -1.6999  0.8161
  191DG      H6 4376   0.453   2.061   3.069  1.5005 -0.5167 -0.0399
  191DG      H7 4377   0.281   2.077   3.118  0.4411 -0.8797  1.6239
  191DG      H8 4378   0.335   2.116   2.960  2.6792  0.6120 -0.7857
  191DG      O9 4379   0.251   2.687   3.056  0.1126 -0.1078 -0.3010
  191DG     O10 4380   0.390   2.261   3.092  0.4193 -0.3861 -0.0914
  191DG     C11 4381   0.210   2.717   3.185  0.2017 -0.0247  0.5206
  191DG     C12 4382   0.387   2.268   3.235 -0.4975 -1.0701  0.5113
  191DG     H13 4383   0.106   2.705   3.207  1.4644  0.0999 -0.9443
  191DG     H14 4384   0.239   2.822   3.205 -0.0366 -1.5123 -2.7766
  191DG     H15 4385   0.461   2.205   3.279 -1.5279  0.0377  0.2068
  191DG     H16 4386   0.292   2.248   3.286  0.4530 -1.2671 -0.7847
  191DG     C17 4387   0.303   2.633   3.277  0.5289 -0.8343 -0.2699
  191DG     C18 4388   0.409   2.415   3.279 -0.5215  0.3489 -0.1415
  191DG     O19 4389   0.320   2.503   3.214  0.7125 -0.2184 -0.3558
  191DG     H20 4390   0.258   2.626   3.374 -0.6297  0.1372 -0.1174
  191DG     H21 4391   0.398   2.676   3.282 -0.3730  0.3024 -1.7648
  191DG     H22 4392   0.407   2.423   3.388  2.8144  0.7395 -0.4319
  191DG     H23 4393   0.509   2.438   3.249 -3.8496 -0.6303  0.3086
  192DG      C1 4394   4.130   5.337   4.507 -0.5810  0.2364  0.0761
  192DG      C2 4395   3.851   6.094   4.680 -0.3510  1.0762  0.6565
  192DG      H3 4396   4.061   5.346   4.424  0.7950  0.9638  0.6015
  192DG      H4 4397   4.131   5.235   4.544 -1.3726  0.9993  1.0907
  192DG      H5 4398   4.225   5.367   4.457  0.2069 -1.3637  0.3410
  192DG      H6 4399   3.850   6.115   4.571 -1.5839  0.3337 -0.2370
  192DG      H7 4400   3.792   6.166   4.733  1.1131  1.3333 -0.3889
  192DG      H8 4401   3.958   6.106   4.722  2.0470  1.2757  2.1493
  192DG      O9 4402   4.095   5.411   4.621  0.0683 -0.4490 -0.7651
  192DG     O10 4403   3.806   5.958   4.679 -0.2334  0.0199 -0.2272
  192DG     C11 4404   4.026   5.531   4.590 -0.1911  0.0726  0.0901
  192DG     C12 4405   3.812   5.903   4.806  0.3500 -0.4148 -0.1371
  192DG     H13 4406   3.928   5.526   4.545 -1.5786 -0.7052  0.7259
  192DG     H14 4407   4.084   5.592   4.521 -0.9512 -0.0661 -2.2847
  192DG     H15 4408   3.718   5.849   4.827  0.5301 -2.0905 -2.3909
  192DG     H16 4409   3.809   5.973   4.889  1.1910 -2.6672  1.3442
  192DG     C17 4410   4.012   5.611   4.719 -0.2463 -0.2196  0.5332
  192DG     C18 4411   3.933   5.814   4.818 -0.6035  0.3196  0.3428
  192DG     O19 4412   3.931   5.724   4.709  0.9720 -0.5831 -0.0876
  192DG     H20 4413   4.118   5.637   4.746  0.4087  2.2448  0.4343
  192DG     H21 4414   3.973   5.560   4.802 -2.3201  1.2641  0.1635
  192DG     H22 4415   4.018   5.881   4.799  0.2649  1.3571 -0.6888
  192DG     H23 4416   3.942   5.771   4.913  1.3282  1.0105  0.0565
  193DG      C1 4417   3.370   0.319   4.939 -0.3676  0.1663 -0.1537
  193DG      C2 4418   4.143   0.482   5.045 -0.1368  0.2237  0.0697
  193DG      H3 4419   3.303   0.236   4.971 -2.6067 -1.2081  0.3808
  193DG      H4 4420   3.409   0.305   4.839  0.5231 -0.0844  1.6879
  193DG      H5 4421   3.320   0.411   4.944  1.8079  1.6586  2.5609
  193DG      H6 4422   4.224   0.435   4.983  2.4661 -0.7973  0.6768
  193DG      H7 4423   4.108   0.558   4.978  0.6747 -1.5486 -2.2787
  193DG      H8 4424   4.196   0.531   5.128  1.5628  2.0620  1.5734
  193DG      O9 4425   3.476   0.319   5.029 -0.4969 -0.7684  0.1425
  193DG     O10 4426   4.046   0.389   5.087 -0.3413  0.0012 -0.0967
  193DG     C11 4427   3.542   0.195   5.031 -0.0829  0.5169 -0.2972
  193DG     C12 4428   3.954   0.430   5.181 -0.5098 -0.5601  0.2154
  193DG     H13 4429   3.590   0.187   4.930 -0.5724 -0.4126 -0.1320
  193DG     H14 4430   3.474   0.114   5.039  0.2476 -2.3549 -1.1770
  193DG     H15 4431   3.904   0.520   5.143 -0.1315 -0.2099 -0.0716
  193DG     H16 4432   3.991   0.459   5.284  0.2506  1.1592  1.2839
  193DG     C17 4433   3.666   0.186   5.126 -0.0051 -0.2718  0.2836
  193DG     C18 4434   3.857   0.318   5.217  0.8446  0.0643  0.1940
  193DG     O19 4435   3.759   0.291   5.108  0.0514 -0.1396  0.0042
  193DG     H20 4436   3.725   0.094   5.109 -0.4029 -0.7148  1.0466
  193DG     H21 4437   3.630   0.199   5.228 -0.5143  0.7394 -1.4630
  193DG     H22 4438   3.897   0.221   5.229  0.5759  1.6975  0.6902
  193DG     H23 4439   3.806   0.342   5.309 -0.9810  0.3526 -2.2254
  194DG      C1 4440   0.015   5.271   5.454  0.0784  0.0904 -0.3753
  194DG      C2 4441  -0.315   5.787   5.349  0.7609  0.0857  0.8120
  194DG      H3 4442  -0.012   5.163   5.443  1.0908 -2.4386  0.6269
  194DG      H4 4443   0.003   5.301   5.559  0.1208 -3.1565  0.4898
  194DG      H5 4444   0.120   5.270   5.433  1.7429 -0.8649 -0.6375
  194DG      H6 4445  -0.324   5.848   5.442  2.2977  0.2871  0.7564
  194DG      H7 4446  -0.385   5.838   5.291  0.1739 -1.6645 -2.2894
  194DG      H8 4447  -0.348   5.679   5.354  0.8803 -3.4735 -1.5165
  194DG      O9 4448  -0.056   5.351   5.360  0.1330 -0.3228  0.6552
  194DG     O10 4449  -0.186   5.799   5.288  0.4726  0.4638  0.1616
  194DG     C11 4450  -0.026   5.327   5.221 -0.4731  0.0110 -0.3516
  194DG     C12 4451  -0.179   5.773   5.147 -0.2314  0.0390 -0.4202
  194DG     H13 4452  -0.027   5.216   5.197 -2.2677 -0.8330 -0.3452
  194DG     H14 4453   0.072   5.360   5.198  0.8646 -1.3318 -0.7907
  194DG     H15 4454  -0.082   5.805   5.107 -1.0491 -2.3099 -2.4479
  194DG     H16 4455  -0.249   5.836   5.105  0.8601 -0.7525  3.6362
  194DG     C17 4456  -0.122   5.407   5.131  0.4302 -0.6452 -0.7808
  194DG     C18 4457  -0.209   5.628   5.109 -0.2254  0.7545 -0.0444
  194DG     O19 4458  -0.118   5.544   5.178  0.0422 -0.0872  0.2234
  194DG     H20 4459  -0.223   5.372   5.135  1.6022 -0.4753 -1.0389
  194DG     H21 4460  -0.103   5.403   5.019  1.1394  1.0255  1.6868
  194DG     H22 4461  -0.310   5.604   5.149 -0.0505 -2.3313  0.9905
  194DG     H23 4462  -0.195   5.616   5.000  1.0037 -1.3604 -0.1258
  195DG      C1 4463   1.004   2.224   1.544 -0.2781  0.1461  0.3973
  195DG      C2 4464   1.630   1.734   1.526  0.3032 -0.4874 -0.2018
  195DG      H3 4465   1.009   2.279   1.644  2.2647  1.4418  0.6323
  195DG      H4 4466   0.900   2.229   1.505  1.4315 -0.6092  1.4917
  195DG      H5 4467   1.073   2.268   1.473 -1.5821 -0.6011  1.1816
  195DG      H6 4468   1.661   1.836   1.546 -0.3953 -1.5434 -1.3689
  195DG      H7 4469   1.650   1.669   1.614  0.4297  2.2916  3.8176
  195DG      H8 4470   1.676   1.698   1.433 -0.3939 -0.0082  0.7789
  195DG      O9 4471   1.045   2.090   1.566  0.4458 -0.7049  0.9100
  195DG     O10 4472   1.493   1.743   1.493  0.1267  0.6737 -0.3385
  195DG     C11 4473   1.029   2.008   1.445  0.2167 -0.5255  0.9406
  195DG     C12 4474   1.401   1.739   1.602 -0.5277 -0.1485  0.0709
  195DG     H13 4475   1.089   2.046   1.364 -0.8912 -0.6953 -1.9994
  195DG     H14 4476   0.924   2.006   1.404  0.7031  3.5778 -3.8544
  195DG     H15 4477   1.420   1.827   1.666 -0.6510 -4.4135 -0.4693
  195DG     H16 4478   1.416   1.646   1.656 -0.6774 -0.9430  0.7450
  195DG     C17 4479   1.079   1.859   1.459 -0.2147  0.2876 -0.6278
  195DG     C18 4480   1.257   1.736   1.550 -0.6822 -0.1452 -0.9679
  195DG     O19 4481   1.218   1.860   1.487  0.0131  0.2835 -0.3822
  195DG     H20 4482   1.063   1.819   1.360  0.1613  1.5933 -0.5143
  195DG     H21 4483   1.012   1.810   1.536  0.6822  2.1476 -0.9202
  195DG     H22 4484   1.242   1.660   1.476 -0.1840  1.3657 -1.6306
  195DG     H23 4485   1.197   1.712   1.640  1.6167 -2.7075  1.5915
  196DG      C1 4486   0.369   4.884   3.416 -0.0264  0.5352 -0.1058
  196DG      C2 4487   0.304   4.492   4.012 -0.1216  0.5700 -0.0167
  196DG      H3 4488   0.469   4.873   3.381  0.4692  0.5360  1.4882
  196DG      H4 4489   0.385   4.964   3.490  3.4345 -0.8771  2.0514
  196DG      H5 4490   0.307   4.916   3.334  0.5062  0.4258 -1.3073
  196DG      H6 4491   0.308   4.385   4.025 -0.6318  0.1252  0.2401
  196DG      H7 4492   0.410   4.518   4.013 -0.6403 -0.1689  0.9707
  196DG      H8 4493   0.246   4.550   4.076  0.0543  3.5424  3.9116
  196DG      O9 4494   0.304   4.770   3.476  0.1443  0.4567  0.1085
  196DG     O10 4495   0.254   4.499   3.875  0.0718 -0.2755  0.2393
  196DG     C11 4496   0.163   4.796   3.496  0.4208 -0.1572 -0.1306
  196DG     C12 4497   0.114   4.499   3.878  0.0129 -0.0224  0.2505
  196DG     H13 4498   0.123   4.809   3.393 -1.8423 -0.8001 -1.7185
  196DG     H14 4499   0.138   4.889   3.555  2.4299 -0.2471 -1.5839
  196DG     H15 4500   0.076   4.570   3.953  1.7554 -2.6390 -0.4732
  196DG     H16 4501   0.083   4.391   3.894  1.2867 -0.1813 -2.3783
  196DG     C17 4502   0.091   4.668   3.552 -0.4453  0.8252 -0.6097
  196DG     C18 4503   0.061   4.532   3.739 -0.1227 -0.2335  0.6956
  196DG     O19 4504   0.132   4.638   3.684 -0.3825 -0.5578  0.0538
  196DG     H20 4505   0.110   4.582   3.491  1.7073  0.4345  2.1635
  196DG     H21 4506  -0.016   4.680   3.546  1.2314 -0.4756 -1.6953
  196DG     H22 4507   0.085   4.448   3.673  1.6853  1.7128 -1.9249
  196DG     H23 4508  -0.048   4.539   3.746 -0.5872 -1.4254 -2.0988
  197DG      C1 4509   1.425   0.841   5.243 -0.5012 -0.0006 -0.0265
  197DG      C2 4510   2.018   0.781   4.920 -0.4733  0.1160  0.0228
  197DG      H3 4511   1.484   0.914   5.289  1.8640 -0.7754 -0.1383
  197DG      H4 4512   1.429   0.743   5.297 -0.3331 -2.1773 -1.4803
  197DG      H5 4513   1.331   0.893   5.227 -0.9365 -1.4897 -1.9138
  197DG      H6 4514   2.082   0.802   4.831 -0.1982  4.0985 -2.4937
  197DG      H7 4515   2.028   0.860   4.999 -1.0677  0.9475  2.3248
  197DG      H8 4516   2.042   0.685   4.967 -0.3414  1.2418  0.6661
  197DG      O9 4517   1.489   0.819   5.119 -0.0373  0.2875  0.4572
  197DG     O10 4518   1.877   0.784   4.894 -0.0969  0.0410  0.5220
  197DG     C11 4519   1.422   0.734   5.031 -1.0097 -0.1366  0.4017
  197DG     C12 4520   1.826   0.697   4.788 -0.2927 -0.3026  0.1931
  197DG     H13 4521   1.316   0.732   5.044  0.3259  0.3494  0.9063
  197DG     H14 4522   1.443   0.627   5.066  0.7759 -1.6952 -0.6465
  197DG     H15 4523   1.840   0.598   4.828  2.0821 -0.2874 -1.8099
  197DG     H16 4524   1.864   0.706   4.689 -0.5548 -1.2464 -1.1706
  197DG     C17 4525   1.473   0.754   4.888 -0.4335 -0.3105 -0.0401
  197DG     C18 4526   1.677   0.727   4.761 -0.1351 -0.0635  0.2788
  197DG     O19 4527   1.612   0.733   4.892  0.0522 -0.8668 -0.5140
  197DG     H20 4528   1.444   0.851   4.862  0.6993  0.3348 -0.6211
  197DG     H21 4529   1.426   0.688   4.817  1.0192  1.5288 -1.6911
  197DG     H22 4530   1.670   0.824   4.711  0.2373  0.2411  0.6471
  197DG     H23 4531   1.633   0.650   4.693 -1.7159 -1.1629 -1.3606
  198DG      C1 4532   1.323   4.948   0.869 -0.6461 -0.5289  0.1182
  198DG      C2 4533   1.599   5.027   1.576  0.5743 -0.1715 -0.8054
  198DG      H3 4534   1.230   4.897   0.905 -1.4464  2.3784  1.5266
  198DG      H4 4535   1.353   4.893   0.778  0.3096 -1.8628  1.4307
  198DG      H5 4536   1.296   5.042   0.828 -2.8978 -1.4971  0.3618
  198DG      H6 4537   1.523   5.102   1.615 -3.0743 -0.3560 -1.9657
  198DG      H7 4538   1.559   4.935   1.605  0.8476  1.9125  0.2865
  198DG      H8 4539   1.689   5.053   1.630  0.5550  0.2140  0.0573
  198DG      O9 4540   1.430   4.967   0.967 -0.6967  0.1333 -0.2495
  198DG     O10 4541   1.622   5.027   1.438  0.2077  1.2552 -0.4903
  198DG     C11 4542   1.536   5.056   0.932  0.5606 -0.3147  0.0038
  198DG     C12 4543   1.651   5.158   1.383  0.2729  1.0144  0.3047
  198DG     H13 4544   1.505   5.162   0.937  1.2338  0.9368  0.1634
  198DG     H14 4545   1.580   5.044   0.836 -1.4650  3.8051  2.2376
  198DG     H15 4546   1.730   5.200   1.443 -1.1810  0.2678 -0.9917
  198DG     H16 4547   1.559   5.216   1.393 -0.9063  1.5914  0.6488
  198DG     C17 4548   1.648   5.047   1.040 -0.3309  0.1243 -0.3809
  198DG     C18 4549   1.689   5.142   1.247 -0.1506 -0.1584  0.8811
  198DG     O19 4550   1.612   5.054   1.175 -0.1390 -0.2098  0.4020
  198DG     H20 4551   1.734   5.117   1.016  1.5796  0.1741 -1.5650
  198DG     H21 4552   1.683   4.948   1.034 -0.5197 -0.6427 -1.2152
  198DG     H22 4553   1.679   5.238   1.198  0.0070  2.2675 -1.9115
  198DG     H23 4554   1.790   5.115   1.241 -0.6719 -0.4616 -2.1671
  199DG      C1 4555   5.417   1.114   0.439  0.1513 -0.1865 -0.8234
  199DG      C2 4556   5.305   1.414  -0.169 -0.0694  0.2857 -0.3988
  199DG      H3 4557   5.384   1.047   0.508 -1.9131  2.0776 -1.3794
  199DG      H4 4558   5.427   1.214   0.480  4.1569 -1.6328  1.6053
  199DG      H5 4559   5.524   1.089   0.416 -0.2408  3.6113  2.2055
  199DG      H6 4560   5.217   1.489  -0.167  0.7030  1.2501 -0.8194
  199DG      H7 4561   5.396   1.447  -0.123 -1.5238  0.8299 -0.0958
  199DG      H8 4562   5.336   1.409  -0.270  0.4653 -0.5081 -0.3692
  199DG      O9 4563   5.331   1.105   0.326 -0.2945 -0.9635 -0.1436
  199DG     O10 4564   5.263   1.287  -0.107  0.6559  0.3380 -0.3218
  199DG     C11 4565   5.319   0.971   0.274  0.7813 -0.3482  0.6800
  199DG     C12 4566   5.343   1.180  -0.155 -0.4705  0.2812  0.4178
  199DG     H13 4567   5.260   0.918   0.346 -0.8891  0.2705 -1.3217
  199DG     H14 4568   5.418   0.925   0.259  0.6473 -3.0636  0.7999
  199DG     H15 4569   5.444   1.197  -0.145  0.2472 -0.4712 -0.5028
  199DG     H16 4570   5.329   1.159  -0.263  0.6955 -0.2804 -1.3780
  199DG     C17 4571   5.248   0.976   0.142  0.3835  0.1033  1.2251
  199DG     C18 4572   5.294   1.046  -0.074 -0.4187 -0.3380  0.4703
  199DG     O19 4573   5.312   1.074   0.063 -0.0524 -0.3283  0.2517
  199DG     H20 4574   5.142   1.008   0.153 -0.4863  1.3360 -1.7880
  199DG     H21 4575   5.255   0.876   0.097 -1.4166  0.9920 -1.5626
  199DG     H22 4576   5.185   1.029  -0.092  1.4720  0.7272  0.0775
  199DG     H23 4577   5.344   0.947  -0.108 -1.3855 -1.0700  0.4841
  200DG      C1 4578   5.185   5.364   1.242  0.2035 -0.1027 -0.4651
  200DG      C2 4579   5.900   5.294   1.112  0.0684  0.1026  0.0469
  200DG      H3 4580   5.106   5.359   1.323  1.9707  2.3344  0.7932
  200DG      H4 4581   5.143   5.300   1.172 -0.5029  2.3579  2.4087
  200DG      H5 4582   5.201   5.466   1.205  1.0017 -0.5544 -2.4155
  200DG      H6 4583   5.854   5.283   1.009 -0.7377  2.5709 -2.2590
  200DG      H7 4584   5.941   5.395   1.114  0.5935  1.7571  0.5377
  200DG      H8 4585   5.978   5.218   1.121 -0.0793 -2.3524 -0.5975
  200DG      O9 4586   5.293   5.294   1.292  0.2011  0.2882  0.0746
  200DG     O10 4587   5.797   5.268   1.201  0.1234  0.4139 -0.5253
  200DG     C11 4588   5.368   5.370   1.389 -0.2333  0.5989 -0.0531
  200DG     C12 4589   5.835   5.255   1.338 -0.4908  0.1332 -0.9588
  200DG     H13 4590   5.288   5.384   1.465 -2.4964  1.3250 -0.0151
  200DG     H14 4591   5.392   5.474   1.368  1.2416 -2.7615  0.2989
  200DG     H15 4592   5.859   5.356   1.361 -1.2786 -0.1867 -1.4941
  200DG     H16 4593   5.928   5.198   1.358  0.1466 -0.8470  1.1425
  200DG     C17 4594   5.483   5.287   1.460  0.2645  0.3241 -0.1807
  200DG     C18 4595   5.714   5.229   1.434  0.1343 -0.0352 -0.0872
  200DG     O19 4596   5.601   5.316   1.385 -0.2810 -0.0456 -0.3388
  200DG     H20 4597   5.454   5.183   1.463 -1.5281 -2.0983  1.3581
  200DG     H21 4598   5.489   5.328   1.566  0.3554  0.4538 -1.5082
  200DG     H22 4599   5.683   5.120   1.436 -0.1799 -0.5165 -0.3182
  200DG     H23 4600   5.739   5.259   1.538  0.1554  0.2742  2.6903
  201DG      C1 4601   2.204   1.153   0.869  0.2517  0.5032  0.0398
  201DG      C2 4602   2.025   1.027   0.164  0.2385  0.6733 -0.6263
  201DG      H3 4603   2.197   1.066   0.928 -2.6731  0.6891  0.2277
  201DG      H4 4604   2.124   1.226   0.883 -0.4620  1.2862 -0.0728
  201DG      H5 4605   2.296   1.212   0.882  1.3952  0.1711 -2.8752
  201DG      H6 4606   1.994   1.128   0.178 -1.0866 -2.0070  1.5986
  201DG      H7 4607   2.130   1.030   0.195 -0.0386 -1.8747  1.9273
  201DG      H8 4608   2.028   0.997   0.063 -1.4611 -1.2705 -0.1364
  201DG      O9 4609   2.204   1.110   0.734 -0.3876  0.0897  0.2819
  201DG     O10 4610   1.969   0.930   0.244  0.0762 -0.2257 -0.1636
  201DG     C11 4611   2.236   1.213   0.643 -0.5225  0.4195 -0.4061
  201DG     C12 4612   1.951   0.972   0.383 -0.3160 -0.2135  0.8512
  201DG     H13 4613   2.330   1.249   0.675 -1.4522 -1.1211  1.5076
  201DG     H14 4614   2.163   1.285   0.641  1.1028 -4.2216 -1.0565
  201DG     H15 4615   1.887   0.896   0.434  0.9238 -1.6377  1.0530
  201DG     H16 4616   1.905   1.070   0.371  4.8668  1.7927 -0.2163
  201DG     C17 4617   2.255   1.158   0.504 -0.2919 -0.3315  0.4697
  201DG     C18 4618   2.079   0.983   0.467 -0.1378 -0.9228 -0.6851
  201DG     O19 4619   2.131   1.118   0.448  0.2608 -0.5633 -0.3822
  201DG     H20 4620   2.334   1.085   0.506  1.0016 -0.4317 -0.1181
  201DG     H21 4621   2.284   1.239   0.439  0.3794 -0.2222 -2.1250
  201DG     H22 4622   2.060   0.967   0.578 -1.1221  3.5273  0.7980
  201DG     H23 4623   2.151   0.919   0.427 -0.4714  4.0131 -0.0075
  202DG      C1 4624   4.773   2.335   5.294  0.0214  0.2300  0.0567
  202DG      C2 4625   4.672   2.435   4.588 -0.2388  1.2901 -0.1150
  202DG      H3 4626   4.661   2.325   5.287 -1.8522  3.3420  1.2714
  202DG      H4 4627   4.800   2.384   5.388 -0.6067 -2.6762  0.9860
  202DG      H5 4628   4.811   2.231   5.302 -0.4127 -0.4381  2.1782
  202DG      H6 4629   4.565   2.447   4.573 -1.9599 -1.4769  2.9014
  202DG      H7 4630   4.716   2.449   4.491 -1.3425  1.2341 -0.9241
  202DG      H8 4631   4.689   2.330   4.613 -0.1155 -1.6027  1.3430
  202DG      O9 4632   4.837   2.407   5.190 -0.0811 -0.1042 -0.6184
  202DG     O10 4633   4.715   2.531   4.691 -0.0478  0.9535  0.6352
  202DG     C11 4634   4.786   2.538   5.181 -1.1951  0.9495  0.3327
  202DG     C12 4635   4.854   2.527   4.702 -0.7266 -0.4723 -0.0692
  202DG     H13 4636   4.825   2.589   5.269 -0.5389  0.4919 -0.3667
  202DG     H14 4637   4.677   2.541   5.182 -0.5497  1.0970  0.4944
  202DG     H15 4638   4.894   2.579   4.616  0.7071  1.2186  0.1579
  202DG     H16 4639   4.885   2.425   4.707 -1.8887  1.4465 -0.4154
  202DG     C17 4640   4.849   2.623   5.059 -0.4804  0.3750 -0.2395
  202DG     C18 4641   4.899   2.604   4.827 -0.1053 -1.0315 -0.6504
  202DG     O19 4642   4.836   2.539   4.943  0.5105 -0.1697  0.3163
  202DG     H20 4643   4.951   2.653   5.081  0.7550  1.0312 -0.8728
  202DG     H21 4644   4.806   2.722   5.056  0.9499  0.8578  0.8631
  202DG     H22 4645   5.009   2.593   4.824  1.3952 -1.6223  1.6458
  202DG     H23 4646   4.881   2.711   4.813  1.7861  0.8512 -0.5378
  203DG      C1 4647   3.406   1.785   1.232  0.0007 -0.3233  0.0154
  203DG      C2 4648   4.066   1.924   1.149 -0.0531 -1.1986  0.0417
  203DG      H3 4649   3.360   1.707   1.290  1.2592 -0.5087 -3.4111
  203DG      H4 4650   3.333   1.801   1.147  0.4558 -1.2768  0.6539
  203DG      H5 4651   3.416   1.883   1.287 -0.1525  1.4871  1.7216
  203DG      H6 4652   4.043   1.998   1.069 -1.3176 -1.7326 -0.4106
  203DG      H7 4653   4.047   1.964   1.248  1.1703 -0.7598 -0.5549
  203DG      H8 4654   4.169   1.891   1.129 -0.0423  2.1566 -2.1426
  203DG      O9 4655   3.520   1.736   1.179  0.5050  0.4211  0.2321
  203DG     O10 4656   3.974   1.821   1.153  0.3576 -0.6229  0.2830
  203DG     C11 4657   3.498   1.659   1.061 -1.0164  0.4897  1.4634
  203DG     C12 4658   3.959   1.761   1.029  0.3246 -0.4466 -0.1914
  203DG     H13 4659   3.473   1.731   0.980 -2.1673  1.4856  0.2120
  203DG     H14 4660   3.412   1.585   1.070 -0.9007 -1.7396 -0.5857
  203DG     H15 4661   4.058   1.735   0.995  1.7989  1.7716 -0.0023
  203DG     H16 4662   3.918   1.832   0.953  1.2276  2.2709  0.6249
  203DG     C17 4663   3.637   1.587   1.033  0.7270 -0.2521  0.0314
  203DG     C18 4664   3.870   1.633   1.023 -0.1793  0.5639 -0.4112
  203DG     O19 4665   3.738   1.679   1.060  0.2898 -0.0822 -0.1432
  203DG     H20 4666   3.629   1.555   0.928 -4.2845 -0.3902 -2.0954
  203DG     H21 4667   3.641   1.500   1.099 -0.6386  0.1910  2.0235
  203DG     H22 4668   3.879   1.601   0.917  0.0452  3.2103 -0.7199
  203DG     H23 4669   3.906   1.553   1.081 -1.2948  0.5689 -1.3952
  204DG      C1 4670   1.119   0.971   0.510  0.7153  0.1933  0.2384
  204DG      C2 4671   1.125   1.035  -0.133 -0.6519 -0.0832 -0.4120
  204DG      H3 4672   1.221   0.960   0.542 -1.3256 -1.3647  1.5468
  204DG      H4 4673   1.054   0.916   0.582 -0.5776 -1.7581 -0.2155
  204DG      H5 4674   1.100   1.074   0.519  1.4462  2.6077  0.4428
  204DG      H6 4675   1.123   0.994  -0.237 -0.9390  1.6437 -2.2144
  204DG      H7 4676   1.139   1.142  -0.137 -0.4384 -0.0125 -1.1044
  204DG      H8 4677   1.224   1.013  -0.101  0.2962 -3.8265  2.2918
  204DG      O9 4678   1.089   0.901   0.384 -0.5527 -0.2788  0.2041
  204DG     O10 4679   1.027   0.986  -0.043  0.2287  0.3500 -0.0997
  204DG     C11 4680   1.145   0.774   0.376  0.5133 -0.0413  0.1481
  204DG     C12 4681   1.002   0.844  -0.068  0.3374 -0.2850 -0.5912
  204DG     H13 4682   1.086   0.702   0.438  0.9656 -0.1984 -0.1616
  204DG     H14 4683   1.241   0.778   0.424  2.3496 -0.9252 -1.5872
  204DG     H15 4684   1.000   0.829  -0.172  0.2093  0.9920  2.5435
  204DG     H16 4685   0.905   0.825  -0.032 -0.7221 -0.8718 -1.8774
  204DG     C17 4686   1.169   0.713   0.237 -0.8784 -0.3469 -0.6613
  204DG     C18 4687   1.095   0.747   0.014 -0.2357  0.7119  0.1617
  204DG     O19 4688   1.085   0.785   0.147  0.3867  0.1173  0.2978
  204DG     H20 4689   1.148   0.602   0.239  0.8120 -2.2604 -5.6394
  204DG     H21 4690   1.272   0.722   0.199 -0.4054 -1.1563  2.4809
  204DG     H22 4691   1.060   0.639   0.008 -1.5978 -1.0456  1.8946
  204DG     H23 4692   1.197   0.757  -0.023 -1.0977  0.9209  2.8928
  205DG      C1 4693   3.003   4.341   0.494 -0.6161 -0.0205 -0.9777
  205DG      C2 4694   2.598   4.454  -0.121  1.0921 -0.2461 -0.5312
  205DG      H3 4695   3.098   4.387   0.472 -1.8140 -0.9066  0.7789
  205DG      H4 4696   3.014   4.245   0.444  0.0555 -1.0888 -0.2557
  205DG      H5 4697   3.001   4.319   0.600 -0.3814  0.1677  1.3159
  205DG      H6 4698   2.602   4.552  -0.173  2.0821  0.7213  1.4872
  205DG      H7 4699   2.702   4.427  -0.138 -0.2290  0.0290 -0.7036
  205DG      H8 4700   2.524   4.388  -0.163  1.5736 -0.2628  0.5599
  205DG      O9 4701   2.878   4.395   0.448  1.0056 -1.0866  0.2465
  205DG     O10 4702   2.573   4.463   0.026  0.2400 -0.3126  0.3754
  205DG     C11 4703   2.863   4.529   0.489  0.2484 -0.4989  0.3294
  205DG     C12 4704   2.613   4.587   0.073  0.2511 -0.2799 -0.3509
  205DG     H13 4705   2.947   4.604   0.471 -0.3541 -2.5126 -1.4506
  205DG     H14 4706   2.858   4.524   0.599 -0.0576 -0.6535  2.7328
  205DG     H15 4707   2.554   4.667   0.025  0.4877 -0.2135 -1.9111
  205DG     H16 4708   2.717   4.611   0.054 -0.2262  0.2474  2.5208
  205DG     C17 4709   2.727   4.565   0.434  0.1724  0.0197 -0.3116
  205DG     C18 4710   2.601   4.610   0.224 -0.1987 -0.4932 -0.5322
  205DG     O19 4711   2.717   4.549   0.291 -0.3689 -0.3670  0.2691
  205DG     H20 4712   2.703   4.667   0.447 -1.0079  0.2146  0.9520
  205DG     H21 4713   2.647   4.513   0.487 -0.5229 -0.4373 -3.1805
  205DG     H22 4714   2.601   4.721   0.240 -0.3073  0.6233 -1.6987
  205DG     H23 4715   2.504   4.571   0.259  2.7357 -2.4210  0.2922
  206DG      C1 4716   0.114   1.091   2.385 -0.4103 -0.0334 -0.4800
  206DG      C2 4717  -0.168   1.304   1.905 -0.2474 -0.2684  0.0045
  206DG      H3 4718   0.173   1.020   2.442 -1.3979 -0.1911  1.1029
  206DG      H4 4719   0.031   1.142   2.441  0.3028  3.2036 -0.8121
  206DG      H5 4720   0.183   1.169   2.362 -2.5505 -0.2451  3.3488
  206DG      H6 4721  -0.193   1.293   1.799  0.4412  0.6318 -2.1297
  206DG      H7 4722  -0.240   1.371   1.957  0.3380  0.3172  1.4746
  206DG      H8 4723  -0.073   1.365   1.901  0.3929 -0.5674  0.5535
  206DG      O9 4724   0.086   1.020   2.269  0.1091  0.6935 -0.6896
  206DG     O10 4725  -0.151   1.174   1.958  0.0765  0.3345  0.6174
  206DG     C11 4726   0.012   0.900   2.297 -0.4699  0.3701  0.8017
  206DG     C12 4727  -0.267   1.093   1.968 -0.1598  0.0186  0.0953
  206DG     H13 4728  -0.069   0.920   2.372 -0.9825  2.0005  2.3427
  206DG     H14 4729   0.085   0.832   2.342  1.0109  2.6873  1.3786
  206DG     H15 4730  -0.323   1.103   1.870  3.8939  1.9144  0.9242
  206DG     H16 4731  -0.340   1.120   2.048  1.0759 -3.1241 -1.0408
  206DG     C17 4732  -0.064   0.854   2.173  0.0673  0.7834  0.0620
  206DG     C18 4733  -0.225   0.953   2.004 -0.4671 -0.6841  0.4039
  206DG     O19 4734  -0.130   0.966   2.113 -0.1538 -0.1197  0.3746
  206DG     H20 4735  -0.126   0.768   2.205  0.4737  1.7361 -1.9621
  206DG     H21 4736   0.006   0.807   2.104  2.1591  0.9717 -1.4664
  206DG     H22 4737  -0.312   0.890   2.049 -1.8682 -0.2139  1.5398
  206DG     H23 4738  -0.176   0.900   1.917 -0.1148  1.3925 -1.2962
  207DG      C1 4739   3.584   4.629   2.592 -0.6742  0.2252 -0.4797
  207DG      C2 4740   3.479   5.054   2.112  0.3136 -0.1773  0.1676
  207DG      H3 4741   3.507   4.590   2.526 -0.8415 -1.0383  1.0545
  207DG      H4 4742   3.543   4.665   2.682 -2.8056 -0.8982 -1.3807
  207DG      H5 4743   3.637   4.540   2.619  1.1657  0.2073  0.8212
  207DG      H6 4744   3.514   5.060   2.009  1.0713 -1.0475  3.1829
  207DG      H7 4745   3.397   4.987   2.115 -0.0504  0.8921 -0.2173
  207DG      H8 4746   3.448   5.157   2.146 -0.4560 -1.2026 -1.3337
  207DG      O9 4747   3.661   4.724   2.517 -0.3127  0.0849  0.2935
  207DG     O10 4748   3.590   5.010   2.200  0.2307  0.3925 -0.0116
  207DG     C11 4749   3.752   4.800   2.599  0.3107  0.2677  0.0684
  207DG     C12 4750   3.661   5.119   2.247 -0.4888 -0.2027 -0.1099
  207DG     H13 4751   3.813   4.745   2.671 -0.6942 -1.0401 -0.4875
  207DG     H14 4752   3.686   4.858   2.656  1.9402 -1.9159 -0.9293
  207DG     H15 4753   3.591   5.180   2.308 -1.0268 -1.6991  0.9438
  207DG     H16 4754   3.699   5.175   2.154 -0.2595  0.2979  1.0536
  207DG     C17 4755   3.819   4.912   2.509  0.1360  0.0170  0.6545
  207DG     C18 4756   3.771   5.059   2.332 -0.3375 -0.7995 -0.3605
  207DG     O19 4757   3.716   4.971   2.431 -0.4368  0.1267 -0.5471
  207DG     H20 4758   3.902   4.871   2.454  0.0221  4.6611  0.9832
  207DG     H21 4759   3.855   4.990   2.584  1.9417 -2.0016  0.5824
  207DG     H22 4760   3.850   5.011   2.279  0.5550  0.8160  1.1321
  207DG     H23 4761   3.825   5.142   2.376  0.5645 -0.0172  1.4865
  208DG      C1 4762   4.587   2.594   3.470 -0.2899 -0.4597 -0.0735
  208DG      C2 4763   3.953   2.754   3.370  0.2159  0.4874  0.1633
  208DG      H3 4764   4.596   2.690   3.429  0.6142 -0.0222 -1.7076
  208DG      H4 4765   4.679   2.542   3.454 -1.8979  0.7837 -0.9489
  208DG      H5 4766   4.571   2.610   3.578  2.2961  0.1617 -0.1976
  208DG      H6 4767   3.851   2.707   3.391  1.2046 -1.6433  0.1612
  208DG      H7 4768   3.993   2.826   3.441  1.4214 -2.8507 -0.3864
  208DG      H8 4769   3.967   2.806   3.274  0.8801  1.1704  4.3008
  208DG      O9 4770   4.473   2.532   3.414  0.1619  0.1099  0.0003
  208DG     O10 4771   4.046   2.644   3.349  0.2684 -0.0076  0.6526
  208DG     C11 4772   4.459   2.407   3.470  0.2652  0.0919 -0.0738
  208DG     C12 4773   4.002   2.523   3.398  0.2352 -1.1184  0.1275
  208DG     H13 4774   4.440   2.419   3.582  0.4116  0.8571  1.3638
  208DG     H14 4775   4.547   2.339   3.463  0.3512 -0.4285  0.8908
  208DG     H15 4776   3.916   2.484   3.349  2.4629 -0.2969 -1.6942
  208DG     H16 4777   3.984   2.533   3.502  0.2789  1.0076  1.3953
  208DG     C17 4778   4.332   2.354   3.401 -0.3822  0.0497 -0.0762
  208DG     C18 4779   4.104   2.409   3.385 -0.2923  0.2480 -0.2766
  208DG     O19 4780   4.230   2.452   3.424 -0.6396 -0.0122 -0.0710
  208DG     H20 4781   4.322   2.248   3.427  0.0616  4.4030 -1.0066
  208DG     H21 4782   4.358   2.363   3.296  1.2083 -0.0291  2.2164
  208DG     H22 4783   4.066   2.320   3.436 -0.5231 -1.3181 -1.9629
  208DG     H23 4784   4.115   2.381   3.282  2.8500  3.7927  0.0152
  209DG      C1 4785   0.128   0.988   3.396 -0.0590  0.2938 -0.2432
  209DG      C2 4786   0.692   1.240   3.114  0.2234 -0.1799  0.2441
  209DG      H3 4787   0.173   0.963   3.488 -1.9707 -1.1561 -1.3101
  209DG      H4 4788   0.032   0.953   3.372 -1.6752  2.2425  0.2369
  209DG      H5 4789   0.112   1.100   3.406 -0.5808  2.2031 -0.3620
  209DG      H6 4790   0.744   1.256   3.022 -1.4074 -1.5544  4.6413
  209DG      H7 4791   0.612   1.315   3.126 -3.1872 -1.0007 -2.8972
  209DG      H8 4792   0.775   1.248   3.186  2.2249  0.1879  1.1378
  209DG      O9 4793   0.220   0.966   3.289 -0.2758  0.1157  0.5768
  209DG     O10 4794   0.637   1.105   3.115 -0.1742  0.5716 -0.3943
  209DG     C11 4795   0.222   0.834   3.254  0.3576  0.2016  0.0337
  209DG     C12 4796   0.543   1.086   3.015 -0.1288 -0.2910 -0.7118
  209DG     H13 4797   0.121   0.794   3.235 -0.0332 -1.7791  2.4603
  209DG     H14 4798   0.260   0.767   3.332 -0.0330  2.6644 -0.8149
  209DG     H15 4799   0.591   1.114   2.912  2.5966  0.6119 -1.6453
  209DG     H16 4800   0.462   1.152   3.026 -1.3199 -1.9939 -2.4076
  209DG     C17 4801   0.309   0.834   3.126  0.0725  0.1766 -0.5950
  209DG     C18 4802   0.493   0.944   3.022  0.2201 -1.0691 -0.1633
  209DG     O19 4803   0.414   0.935   3.138  0.6797  0.2547  0.1336
  209DG     H20 4804   0.238   0.874   3.061  2.8064 -0.5004  1.0597
  209DG     H21 4805   0.340   0.740   3.092 -0.2784  1.8689 -2.9708
  209DG     H22 4806   0.440   0.929   2.927  1.7581  1.7196 -1.7949
  209DG     H23 4807   0.567   0.860   3.011 -1.5642  0.5532 -2.1439
  210DG      C1 4808   4.738   0.560   4.017  0.5218 -0.6916 -0.1117
  210DG      C2 4809   4.347   1.017   4.544 -0.6814 -0.1593  0.2645
  210DG      H3 4810   4.679   0.587   3.927 -0.7750  1.3827  1.4643
  210DG      H4 4811   4.692   0.464   4.037 -2.9106 -0.0703  0.0918
  210DG      H5 4812   4.848   0.546   3.992  2.3570 -0.5931  2.7385
  210DG      H6 4813   4.259   1.011   4.476 -0.1994 -0.0049 -2.2752
  210DG      H7 4814   4.347   0.934   4.618  0.1423  1.6914  0.1290
  210DG      H8 4815   4.342   1.116   4.599 -2.3532  0.1437  3.3872
  210DG      O9 4816   4.716   0.645   4.129  0.9692 -0.1259 -0.4855
  210DG     O10 4817   4.450   0.983   4.456 -0.4762 -0.4169  0.1191
  210DG     C11 4818   4.775   0.779   4.097  1.0794  0.3486  0.8683
  210DG     C12 4819   4.578   0.953   4.519 -0.2400 -0.0626  0.0647
  210DG     H13 4820   4.709   0.826   4.024 -1.9738 -1.5896  0.4080
  210DG     H14 4821   4.875   0.766   4.049  0.4090  1.7728 -2.4559
  210DG     H15 4822   4.570   0.852   4.548  1.1709 -2.3419 -1.4683
  210DG     H16 4823   4.608   1.020   4.601  2.1291 -1.0851  1.5881
  210DG     C17 4824   4.798   0.862   4.227 -0.1385 -0.3935  0.4993
  210DG     C18 4825   4.677   0.977   4.402  0.0779 -0.1883 -0.5931
  210DG     O19 4826   4.685   0.869   4.307  0.8152  0.7763  0.3758
  210DG     H20 4827   4.832   0.959   4.195  0.9443  0.9247  1.6370
  210DG     H21 4828   4.876   0.828   4.291 -1.9158  0.4258 -0.6943
  210DG     H22 4829   4.661   1.077   4.368 -0.2422  2.5924  0.3923
  210DG     H23 4830   4.779   0.986   4.443 -2.0416  0.5714 -1.8413
  211DG      C1 4831   3.049   3.410   3.178 -0.3884  0.5167  0.1486
  211DG      C2 4832   3.028   2.621   3.484  0.5824 -0.0794  0.5744
  211DG      H3 4833   3.096   3.503   3.140 -1.8137 -1.0714 -2.1468
  211DG      H4 4834   3.078   3.401   3.287 -0.3017 -0.2872  0.8261
  211DG      H5 4835   2.944   3.421   3.174 -0.3886  0.1743 -2.0035
  211DG      H6 4836   3.057   2.536   3.426  0.4605  2.0710 -0.4206
  211DG      H7 4837   3.040   2.594   3.590  0.6371  0.5104  0.2798
  211DG      H8 4838   2.922   2.632   3.467  0.6610 -1.3395  1.0586
  211DG      O9 4839   3.082   3.292   3.106 -0.5534  0.3610 -0.6395
  211DG     O10 4840   3.096   2.732   3.435  0.5368 -0.2481  0.6030
  211DG     C11 4841   3.027   3.169   3.161  0.1334 -0.2205  0.4232
  211DG     C12 4842   3.116   2.835   3.529 -0.4407  0.5413 -0.6770
  211DG     H13 4843   3.055   3.097   3.084 -1.0171  1.0885 -1.4045
  211DG     H14 4844   2.922   3.173   3.157 -0.6559 -1.5178  1.7086
  211DG     H15 4845   3.188   2.809   3.602 -0.1583  0.6976  0.1756
  211DG     H16 4846   3.012   2.841   3.576 -3.2294 -1.6540 -2.2588
  211DG     C17 4847   3.098   3.132   3.296 -0.4711 -0.5724  0.4287
  211DG     C18 4848   3.156   2.967   3.465 -0.3232 -0.0034  0.6986
  211DG     O19 4849   3.073   3.003   3.348 -0.1646 -0.1523 -0.0874
  211DG     H20 4850   3.065   3.193   3.382 -1.4020  1.5445  0.4145
  211DG     H21 4851   3.208   3.141   3.272  0.0623 -0.2003  1.7146
  211DG     H22 4852   3.142   3.045   3.551 -0.2201 -1.2504  0.3386
  211DG     H23 4853   3.262   2.956   3.427 -0.2748  0.4809  0.2961
  212DG      C1 4854   2.960   4.798   1.074  0.1241 -0.8127 -0.1314
  212DG      C2 4855   3.670   4.869   1.078 -0.1826 -0.6627  0.1703
  212DG      H3 4856   2.933   4.838   0.971 -0.5886 -3.2631 -2.2726
  212DG      H4 4857   2.884   4.818   1.141  1.9623 -0.0032 -0.8919
  212DG      H5 4858   2.961   4.690   1.070  0.6447 -1.8501  0.8484
  212DG      H6 4859   3.645   4.882   0.979 -2.0577  0.7253  1.1178
  212DG      H7 4860   3.756   4.939   1.083  0.5687  0.3743 -1.0396
  212DG      H8 4861   3.700   4.768   1.099  1.5788 -0.6117  1.3332
  212DG      O9 4862   3.083   4.845   1.135  0.1493 -0.5300 -0.4354
  212DG     O10 4863   3.555   4.890   1.169  0.0956  0.3590  0.1171
  212DG     C11 4864   3.064   4.966   1.204 -0.7320  0.6753 -0.6133
  212DG     C12 4865   3.531   5.027   1.175 -0.0012  0.0542  0.1991
  212DG     H13 4866   2.981   4.962   1.268  4.2567  0.6743 -1.0022
  212DG     H14 4867   3.055   5.046   1.132 -0.6556  0.8685 -0.6819
  212DG     H15 4868   3.501   5.073   1.081 -0.9882  0.0535  0.2733
  212DG     H16 4869   3.621   5.080   1.210 -0.7036 -1.0982  1.2695
  212DG     C17 4870   3.179   5.008   1.289  0.2104 -0.7747 -0.0895
  212DG     C18 4871   3.418   5.043   1.273 -0.1524  0.1747 -0.3330
  212DG     O19 4872   3.292   5.009   1.211 -0.0987 -0.5163 -0.8608
  212DG     H20 4873   3.193   4.938   1.372 -1.8513  0.0957  1.4105
  212DG     H21 4874   3.166   5.105   1.330  1.5276  0.2392  0.6310
  212DG     H22 4875   3.433   4.987   1.361  1.2297 -0.8609 -1.6977
  212DG     H23 4876   3.410   5.148   1.311 -0.1773  0.4286  1.0135
  213DG      C1 4877   0.727   1.663   3.224 -0.0582 -0.2395 -0.4133
  213DG      C2 4878   0.127   1.495   3.515 -0.9126 -0.0609  0.4028
  213DG      H3 4879   0.772   1.569   3.266  1.4180  1.4086 -0.3864
  213DG      H4 4880   0.809   1.725   3.198  2.8793  0.3528  0.5792
  213DG      H5 4881   0.694   1.622   3.131 -0.8710  0.0759 -2.3341
  213DG      H6 4882   0.178   1.416   3.582  0.8771  1.3247 -0.2944
  213DG      H7 4883   0.029   1.520   3.555  0.2108 -0.5789  0.5961
  213DG      H8 4884   0.100   1.458   3.420 -0.2322  1.6754 -1.8477
  213DG      O9 4885   0.621   1.726   3.284 -0.3404  0.4320 -0.1830
  213DG     O10 4886   0.216   1.601   3.484  0.6778 -0.0252 -0.8054
  213DG     C11 4887   0.641   1.779   3.411 -0.0708  0.1262 -0.2071
  213DG     C12 4888   0.238   1.676   3.605  0.2860  0.3291  0.1821
  213DG     H13 4889   0.731   1.839   3.406  3.2149 -2.5746  2.0726
  213DG     H14 4890   0.669   1.703   3.487 -2.1781 -0.9669 -0.0256
  213DG     H15 4891   0.289   1.610   3.675  2.0310 -1.4375 -0.0486
  213DG     H16 4892   0.147   1.717   3.660  1.2746  1.0294 -0.3967
  213DG     C17 4893   0.523   1.857   3.447  0.9018 -0.0400 -0.3266
  213DG     C18 4894   0.329   1.797   3.568  0.4294 -0.0731  0.4661
  213DG     O19 4895   0.424   1.756   3.472 -0.7553 -0.3070  0.0558
  213DG     H20 4896   0.488   1.939   3.387 -0.9966 -0.0271 -1.0076
  213DG     H21 4897   0.545   1.907   3.541 -0.4690  2.2706 -0.8008
  213DG     H22 4898   0.271   1.876   3.528 -1.3543 -0.6666  1.0296
  213DG     H23 4899   0.380   1.829   3.661  1.5155  4.0418  0.8059
  214DG      C1 4900   4.364   2.287   4.871  0.4062  0.4523  0.6477
  214DG      C2 4901   4.066   2.597   5.427  0.7174 -0.1315  0.2163
  214DG      H3 4902   4.441   2.371   4.870  1.7132  0.7260 -1.9118
  214DG      H4 4903   4.375   2.222   4.779  1.5201  0.6914 -1.7898
  214DG      H5 4904   4.389   2.230   4.954 -0.6118  1.2947 -0.6339
  214DG      H6 4905   4.127   2.672   5.490 -1.3927  0.7974  2.5076
  214DG      H7 4906   4.046   2.509   5.483 -0.3425 -0.5695  0.9012
  214DG      H8 4907   4.120   2.559   5.340 -0.4605 -0.1647 -0.0681
  214DG      O9 4908   4.229   2.335   4.870  0.2156  0.3007 -0.7039
  214DG     O10 4909   3.955   2.657   5.375 -0.0313 -0.2253  0.0174
  214DG     C11 4910   4.172   2.368   4.997 -0.2340 -0.4101  0.6554
  214DG     C12 4911   3.865   2.569   5.310 -0.7470 -1.2971  0.0532
  214DG     H13 4912   4.244   2.425   5.052 -0.6551  2.0460  0.6018
  214DG     H14 4913   4.145   2.275   5.049  1.6138  0.4841 -1.2547
  214DG     H15 4914   3.760   2.595   5.323  0.1002  1.9334 -1.3693
  214DG     H16 4915   3.862   2.476   5.370  0.9589 -3.1318  0.7291
  214DG     C17 4916   4.043   2.455   4.992 -0.4012 -0.0493 -0.4381
  214DG     C18 4917   3.886   2.539   5.157  0.0706 -0.3891 -0.1824
  214DG     O19 4918   4.007   2.466   5.129  0.4161  0.3779  0.6958
  214DG     H20 4919   3.954   2.410   4.939 -1.0197 -0.4805  0.0250
  214DG     H21 4920   4.058   2.553   4.949 -0.0651  1.7920  0.2382
  214DG     H22 4921   3.805   2.483   5.117  0.1687 -0.7188  0.0662
  214DG     H23 4922   3.895   2.632   5.104 -0.4020  0.7480  0.0953
  215DG      C1 4923   2.586   1.045   1.925 -0.2271 -0.7755 -0.6503
  215DG      C2 4924   2.825   0.391   2.109  0.9343  0.3711  1.0750
  215DG      H3 4925   2.569   1.018   2.029 -1.9715 -0.5884  1.2399
  215DG      H4 4926   2.490   1.078   1.888 -1.4888 -3.1282 -0.1133
  215DG      H5 4927   2.658   1.131   1.915 -1.9589  3.6613 -0.4403
  215DG      H6 4928   2.874   0.327   2.186 -0.6949  0.2929  1.2281
  215DG      H7 4929   2.804   0.320   2.026  0.9465 -1.7563  3.3137
  215DG      H8 4930   2.901   0.447   2.061  1.1354 -2.8638  0.0677
  215DG      O9 4931   2.609   0.920   1.860  0.1688  0.0312  0.0325
  215DG     O10 4932   2.714   0.476   2.141 -0.2279  0.1183 -0.6504
  215DG     C11 4933   2.752   0.894   1.850 -0.7247  0.1858 -0.5781
  215DG     C12 4934   2.739   0.587   2.224 -0.1545 -0.0467  0.7445
  215DG     H13 4935   2.806   0.973   1.801  1.0958  2.2067 -0.1931
  215DG     H14 4936   2.770   0.806   1.784 -0.0215 -0.5733  0.3165
  215DG     H15 4937   2.780   0.556   2.324 -1.0222  0.3513  1.1548
  215DG     H16 4938   2.649   0.645   2.240 -1.0571  3.5373 -2.2552
  215DG     C17 4939   2.820   0.859   1.986 -0.4839  0.2819 -0.0282
  215DG     C18 4940   2.827   0.696   2.161 -0.2494 -0.0708 -0.2781
  215DG     O19 4941   2.758   0.750   2.044  0.0647 -0.0997 -0.2031
  215DG     H20 4942   2.814   0.951   2.042  1.0161 -1.9784  0.4550
  215DG     H21 4943   2.923   0.843   1.970 -0.3843  0.1342  0.8133
  215DG     H22 4944   2.854   0.779   2.231  1.8450  2.7270  2.4993
  215DG     H23 4945   2.930   0.659   2.154 -0.5859  2.3796  0.7518
  216DG      C1 4946   4.768   1.028   2.668 -0.4565 -0.2827  0.2205
  216DG      C2 4947   4.328   0.376   2.806 -0.0421  0.2302  0.0576
  216DG      H3 4948   4.712   1.077   2.590  0.5771  0.4242  0.1316
  216DG      H4 4949   4.864   1.018   2.622 -0.2114  0.6645 -1.0447
  216DG      H5 4950   4.749   1.092   2.747 -0.4577 -0.9830  1.4336
  216DG      H6 4951   4.332   0.280   2.861 -1.6773  0.8666 -0.6272
  216DG      H7 4952   4.244   0.435   2.840  2.5835  0.1880 -0.6344
  216DG      H8 4953   4.294   0.339   2.707 -1.1942  0.2827 -1.8915
  216DG      O9 4954   4.722   0.895   2.696  0.9015  0.7523  0.0643
  216DG     O10 4955   4.445   0.452   2.783 -0.0467  0.3048  0.0127
  216DG     C11 4956   4.763   0.786   2.618 -0.7565 -0.4305 -0.2849
  216DG     C12 4957   4.518   0.485   2.901  0.1278 -0.8763 -0.1714
  216DG     H13 4958   4.864   0.805   2.587 -1.3521 -0.9031  1.2154
  216DG     H14 4959   4.700   0.774   2.530 -2.2272  1.0703  2.3200
  216DG     H15 4960   4.501   0.406   2.973  1.5812 -0.0663  0.6799
  216DG     H16 4961   4.483   0.574   2.939  1.1051 -0.7790 -0.7970
  216DG     C17 4962   4.775   0.660   2.704  0.0723 -0.1243  0.5648
  216DG     C18 4963   4.660   0.526   2.856  0.1804 -0.1818 -0.2711
  216DG     O19 4964   4.645   0.623   2.754  0.2582  0.2592 -0.3530
  216DG     H20 4965   4.852   0.674   2.774  0.6059  2.5061 -0.6855
  216DG     H21 4966   4.800   0.578   2.638 -0.0127 -0.2319 -0.8354
  216DG     H22 4967   4.711   0.575   2.940 -0.0291 -1.0086 -0.7666
  216DG     H23 4968   4.716   0.441   2.822  1.6756  1.8991  1.6790
  217DG      C1 4969   3.448   3.547   1.911  0.9745 -0.0313  0.4557
  217DG      C2 4970   3.264   4.203   1.740 -0.0791  0.6242 -0.0812
  217DG      H3 4971   3.550   3.551   1.947 -0.1672  0.5926  0.7280
  217DG      H4 4972   3.448   3.522   1.808 -0.2855  0.2636  1.6660
  217DG      H5 4973   3.400   3.463   1.966 -1.5417  1.5090 -0.3830
  217DG      H6 4974   3.240   4.156   1.642  1.5280  0.9237  1.5816
  217DG      H7 4975   3.197   4.291   1.757 -0.1869 -1.0673  0.0104
  217DG      H8 4976   3.365   4.236   1.735 -0.4148  2.0296  0.4403
  217DG      O9 4977   3.366   3.664   1.941  0.7581  0.4593  0.0999
  217DG     O10 4978   3.258   4.110   1.844 -0.5002 -0.4015  0.3747
  217DG     C11 4979   3.365   3.687   2.081  0.6783  0.0331  0.8751
  217DG     C12 4980   3.320   4.144   1.965  0.0631 -0.1957  0.0090
  217DG     H13 4981   3.466   3.686   2.122  1.4256  0.2509 -0.7367
  217DG     H14 4982   3.319   3.603   2.135  0.3714  1.7069  1.1496
  217DG     H15 4983   3.296   4.246   1.989  0.9679  1.7348 -0.4035
  217DG     H16 4984   3.430   4.132   1.951  0.1904  2.0813  0.4637
  217DG     C17 4985   3.292   3.813   2.108 -0.1286 -0.9178 -0.2485
  217DG     C18 4986   3.288   4.038   2.067 -0.2117  0.7032 -0.2289
  217DG     O19 4987   3.334   3.914   2.021  0.1064  0.0351  0.3388
  217DG     H20 4988   3.304   3.838   2.212 -2.5238  1.1966 -4.2802
  217DG     H21 4989   3.188   3.800   2.083  0.1198 -0.2539  2.4860
  217DG     H22 4990   3.312   4.065   2.164 -2.3535 -1.5552  2.3589
  217DG     H23 4991   3.183   4.031   2.067  1.7017  1.1977  0.3480
  218DG      C1 4992   3.551   0.576   3.328 -0.2128  0.8451 -0.6975
  218DG      C2 4993   2.734   0.412   3.241  0.3627  0.5788  0.0133
  218DG      H3 4994   3.604   0.498   3.278 -2.9218  0.8587  1.2613
  218DG      H4 4995   3.515   0.548   3.425 -2.4190 -0.6089 -0.4030
  218DG      H5 4996   3.620   0.656   3.352  0.7933 -1.5515  1.1432
  218DG      H6 4997   2.715   0.313   3.281 -1.2828 -0.0797  0.1345
  218DG      H7 4998   2.752   0.483   3.324 -0.2405  0.4175  1.0075
  218DG      H8 4999   2.633   0.438   3.207 -0.3300 -1.5379 -0.8677
  218DG      O9 5000   3.458   0.636   3.246  0.3447  0.2249 -0.0954
  218DG     O10 5001   2.836   0.429   3.143  0.2118 -0.1516  0.2097
  218DG     C11 5002   3.334   0.560   3.225  0.6291 -0.4889  0.0136
  218DG     C12 5003   2.870   0.564   3.116  0.0907  0.4704  0.5707
  218DG     H13 5004   3.289   0.568   3.320 -0.8678 -0.0792  1.4555
  218DG     H14 5005   3.350   0.448   3.210  2.5369 -0.0759 -1.2129
  218DG     H15 5006   2.888   0.626   3.204  0.1348  1.0989 -2.4286
  218DG     H16 5007   2.800   0.605   3.052  2.5238  1.0410 -1.5506
  218DG     C17 5008   3.239   0.606   3.113 -0.5806 -0.2187  0.4417
  218DG     C18 5009   3.011   0.572   3.049  0.5777 -0.2842 -0.1422
  218DG     O19 5010   3.111   0.552   3.142  0.3668 -0.1704 -0.3091
  218DG     H20 5011   3.267   0.570   3.018  0.5260  0.3886 -1.6595
  218DG     H21 5012   3.238   0.712   3.113 -3.1884 -0.2062  0.9928
  218DG     H22 5013   3.020   0.495   2.973 -1.3917  2.4667 -0.1888
  218DG     H23 5014   3.026   0.661   2.993 -0.4805 -1.0719  0.4936
  219DG      C1 5015   4.355   0.365   1.447 -0.7612 -0.1843  0.1433
  219DG      C2 5016   4.783   0.214   1.949  0.6576 -0.0954  0.4286
  219DG      H3 5017   4.257   0.374   1.408  3.5953  2.2177  3.5837
  219DG      H4 5018   4.387   0.261   1.469  0.1381  0.1089  2.1786
  219DG      H5 5019   4.417   0.405   1.368  2.8582 -1.2156 -1.2310
  219DG      H6 5020   4.854   0.283   1.907 -2.4707  1.6635 -1.2701
  219DG      H7 5021   4.792   0.230   2.058 -0.0072 -0.4052  0.1629
  219DG      H8 5022   4.792   0.104   1.928 -0.4776 -1.8692  0.8779
  219DG      O9 5023   4.361   0.452   1.556  0.3664 -0.2174 -0.3352
  219DG     O10 5024   4.652   0.263   1.936 -0.1533  0.2027  0.2305
  219DG     C11 5025   4.250   0.440   1.650  0.3423 -0.0645 -0.7055
  219DG     C12 5026   4.638   0.403   1.960  0.1162  0.2701 -0.5786
  219DG     H13 5027   4.214   0.342   1.658 -0.7773  2.1809 -0.3167
  219DG     H14 5028   4.173   0.503   1.630 -0.2252 -2.7970 -1.7719
  219DG     H15 5029   4.697   0.459   1.891  0.0438  0.4203  2.6097
  219DG     H16 5030   4.679   0.437   2.057 -0.4411 -0.0145 -0.7339
  219DG     C17 5031   4.310   0.490   1.782  0.3794  0.2343  0.8297
  219DG     C18 5032   4.484   0.447   1.950 -0.8568  0.0898 -0.0914
  219DG     O19 5033   4.436   0.436   1.813  0.1019 -0.0982 -0.2801
  219DG     H20 5034   4.251   0.471   1.869 -0.4431  0.3090  0.9612
  219DG     H21 5035   4.308   0.595   1.788  0.7356 -2.1648 -0.8439
  219DG     H22 5036   4.411   0.399   2.022 -2.4707  0.9910 -1.6115
  219DG     H23 5037   4.472   0.548   1.972  0.9970 -0.2392 -0.4673
  220DG      C1 5038   4.303   1.628   1.475  0.4364  0.0402 -0.3055
  220DG      C2 5039   4.732   1.266   1.204  0.8257  0.4696  0.6306
  220DG      H3 5040   4.233   1.705   1.464  2.7340  2.9329  0.7055
  220DG      H4 5041   4.394   1.665   1.521  0.6304  1.0752  1.2969
  220DG      H5 5042   4.272   1.557   1.556  2.0834 -2.1057  2.7512
  220DG      H6 5043   4.744   1.164   1.223  0.6513  1.3184  1.8382
  220DG      H7 5044   4.797   1.302   1.122  0.1711  1.8404 -1.9811
  220DG      H8 5045   4.759   1.314   1.296  0.3796 -2.3882  0.0536
  220DG      O9 5046   4.317   1.568   1.348 -0.0584  0.2277  0.4403
  220DG     O10 5047   4.599   1.306   1.176 -0.3198 -0.1312 -0.2107
  220DG     C11 5048   4.202   1.530   1.270  0.3649  0.1447  0.3616
  220DG     C12 5049   4.537   1.247   1.064  0.3614  0.5508 -0.0413
  220DG     H13 5050   4.132   1.615   1.271 -1.0615  1.5746 -2.5230
  220DG     H14 5051   4.145   1.445   1.324 -1.3257 -0.1493 -0.3098
  220DG     H15 5052   4.513   1.141   1.088  2.2515 -1.1472 -0.0221
  220DG     H16 5053   4.596   1.236   0.973  0.2334  4.3739  0.5569
  220DG     C17 5054   4.262   1.482   1.142  0.2537 -0.0200 -0.1691
  220DG     C18 5055   4.430   1.347   1.033 -0.0829  0.1692  0.4910
  220DG     O19 5056   4.361   1.381   1.161 -0.2078 -0.1312  0.0881
  220DG     H20 5057   4.314   1.558   1.101 -0.0657 -0.9140  0.3763
  220DG     H21 5058   4.175   1.445   1.086  1.0926  0.2043 -0.2397
  220DG     H22 5059   4.468   1.436   0.987 -2.5429  0.3577 -2.9971
  220DG     H23 5060   4.359   1.319   0.952 -0.5828  1.6590 -1.1394
  221DG      C1 5061   3.246   2.422   3.836  0.5852  0.1520  1.1247
  221DG      C2 5062   2.728   1.834   3.792 -0.3270 -0.7209  0.1955
  221DG      H3 5063   3.195   2.517   3.801  2.1034 -0.6540 -0.7307
  221DG      H4 5064   3.270   2.370   3.743  1.4737 -2.6859  0.4695
  221DG      H5 5065   3.338   2.439   3.895 -1.7917  1.4035  2.8287
  221DG      H6 5066   2.771   1.743   3.748 -1.0628  0.3202 -0.8426
  221DG      H7 5067   2.674   1.794   3.876 -1.0947 -0.0078  0.0028
  221DG      H8 5068   2.657   1.886   3.726 -0.3906 -1.6975 -0.5391
  221DG      O9 5069   3.161   2.330   3.905 -0.6073  0.4992  0.5528
  221DG     O10 5070   2.820   1.919   3.865 -0.2902 -0.2664  0.3499
  221DG     C11 5071   3.232   2.210   3.936  0.4067  0.3210  0.2972
  221DG     C12 5072   2.915   1.842   3.936 -0.1122  0.4934 -0.7767
  221DG     H13 5073   3.311   2.233   4.003 -2.8357 -0.8280 -1.3498
  221DG     H14 5074   3.271   2.166   3.850  2.4443  0.4475 -0.3463
  221DG     H15 5075   2.963   1.788   3.863 -1.8041  0.9227  0.6315
  221DG     H16 5076   2.856   1.774   4.004 -0.4849  2.1270 -0.8375
  221DG     C17 5077   3.137   2.121   4.019 -0.3202 -0.7805 -0.3016
  221DG     C18 5078   3.006   1.928   4.024 -0.5427  0.1746  0.4713
  221DG     O19 5079   3.068   2.031   3.939 -0.0919  0.2488  0.1566
  221DG     H20 5080   3.064   2.181   4.070 -1.2949  1.6030 -0.3704
  221DG     H21 5081   3.199   2.075   4.093  1.9349  1.9972 -0.8344
  221DG     H22 5082   2.947   1.973   4.103  0.7511  0.7133  0.1403
  221DG     H23 5083   3.087   1.868   4.067  0.2433  1.3091  0.6727
  222DG      C1 5084   2.339   3.880   3.770  0.4016  0.3032  0.1030
  222DG      C2 5085   2.560   3.386   3.244 -0.0949 -0.6169 -0.3043
  222DG      H3 5086   2.345   3.970   3.705  0.6628  0.8136  3.4573
  222DG      H4 5087   2.343   3.928   3.870  0.0056  1.7393 -1.1043
  222DG      H5 5088   2.246   3.837   3.753  3.1265  0.5523 -0.8022
  222DG      H6 5089   2.628   3.333   3.182  0.9862  1.8463  3.2972
  222DG      H7 5090   2.477   3.318   3.240 -1.1480 -0.5676 -3.3078
  222DG      H8 5091   2.547   3.477   3.196  0.8174  1.1109 -2.5850
  222DG      O9 5092   2.457   3.789   3.757 -0.0178 -0.6737 -0.1332
  222DG     O10 5093   2.604   3.407   3.381  0.3125  0.2585 -0.3112
  222DG     C11 5094   2.450   3.672   3.834 -0.1630  0.4869  0.5403
  222DG     C12 5095   2.510   3.473   3.469  0.5007  0.0126 -0.3370
  222DG     H13 5096   2.363   3.619   3.802  0.6717  0.0835 -0.0807
  222DG     H14 5097   2.437   3.702   3.934 -0.8710 -2.9178  1.9246
  222DG     H15 5098   2.414   3.434   3.440  1.9599 -0.7317  1.4581
  222DG     H16 5099   2.495   3.582   3.447 -0.4602  0.4531  2.0140
  222DG     C17 5100   2.573   3.579   3.810 -0.6283  0.5133 -0.5753
  222DG     C18 5101   2.535   3.452   3.617 -0.9279  0.0972 -0.6809
  222DG     O19 5102   2.604   3.559   3.668  0.1000 -0.3482 -0.6076
  222DG     H20 5103   2.574   3.482   3.870  1.7181  3.3026  1.2030
  222DG     H21 5104   2.662   3.631   3.846 -0.5369 -0.7326 -0.2761
  222DG     H22 5105   2.439   3.436   3.674 -0.7456 -1.5311  0.6991
  222DG     H23 5106   2.604   3.370   3.632  0.5575  2.0437 -2.1951
  223DG      C1 5107   4.306   5.424   2.130 -0.6682  1.0080 -0.6316
  223DG      C2 5108   4.480   4.931   1.783  0.0806 -0.3914 -0.1508
  223DG      H3 5109   4.256   5.507   2.075  2.0281  0.2569 -1.3487
  223DG      H4 5110   4.334   5.458   2.230 -0.4130  2.0373  1.1934
  223DG      H5 5111   4.241   5.339   2.145 -0.4370  1.8197  1.0623
  223DG      H6 5112   4.503   4.884   1.686 -2.3369  0.6430 -0.8108
  223DG      H7 5113   4.533   4.868   1.853 -0.7556  2.0543  0.1892
  223DG      H8 5114   4.363   4.918   1.803 -4.1464 -2.6214 -0.8074
  223DG      O9 5115   4.403   5.358   2.048  0.2121 -0.7485 -0.2415
  223DG     O10 5116   4.522   5.066   1.778 -0.7352 -0.1362 -0.5381
  223DG     C11 5117   4.522   5.429   2.042 -0.1146 -0.0399  0.0826
  223DG     C12 5118   4.664   5.085   1.767 -0.6668  0.6962 -0.2226
  223DG     H13 5119   4.554   5.431   2.148  0.1002  0.1159 -2.0418
  223DG     H14 5120   4.526   5.529   1.998  1.1654  0.9009  1.4624
  223DG     H15 5121   4.707   5.048   1.674  0.6084 -2.4313  1.5180
  223DG     H16 5122   4.723   5.032   1.849 -0.2387 -2.2401 -2.1014
  223DG     C17 5123   4.637   5.343   1.978  0.4094 -0.5741  0.5045
  223DG     C18 5124   4.690   5.239   1.766  0.1879 -0.7879  0.3607
  223DG     O19 5125   4.593   5.311   1.847 -0.1382  0.2206  0.2574
  223DG     H20 5126   4.655   5.252   2.037  0.7024  0.5697 -0.2322
  223DG     H21 5127   4.733   5.392   1.980 -0.5111  0.0089  1.6209
  223DG     H22 5128   4.797   5.256   1.799 -1.2036  0.3023  0.7119
  223DG     H23 5129   4.682   5.282   1.665  0.7668  1.4651 -1.7953
  224DG      C1 5130   1.121   4.852   3.449 -0.3542  0.8095  0.5857
  224DG      C2 5131   1.357   4.522   4.124  0.2016 -0.7069 -0.1038
  224DG      H3 5132   1.163   4.755   3.418 -2.2691  0.3135  1.6088
  224DG      H4 5133   1.181   4.932   3.407 -1.1573 -0.6241  0.1336
  224DG      H5 5134   1.020   4.863   3.401 -0.6349  2.4635  1.6277
  224DG      H6 5135   1.389   4.562   4.224  0.8554 -2.4700  1.4138
  224DG      H7 5136   1.324   4.424   4.152  0.0734  1.8662 -0.9992
  224DG      H8 5137   1.436   4.520   4.063 -1.0749 -0.5023  1.8773
  224DG      O9 5138   1.118   4.857   3.594  0.4707  0.3578  0.3276
  224DG     O10 5139   1.234   4.591   4.083  0.2270 -0.1092 -0.2828
  224DG     C11 5140   1.032   4.751   3.651  0.8647 -0.7685 -0.6342
  224DG     C12 5141   1.256   4.726   4.062 -0.2825  0.3670  0.1260
  224DG     H13 5142   1.078   4.652   3.628  0.7460  0.0985 -0.2273
  224DG     H14 5143   0.932   4.747   3.601 -0.2724 -3.3506  0.7359
  224DG     H15 5144   1.357   4.741   4.021 -2.1895 -0.6559 -2.1186
  224DG     H16 5145   1.270   4.781   4.150 -0.5795  0.1618  1.8418
  224DG     C17 5146   1.017   4.772   3.804 -0.1266 -0.6668  0.2150
  224DG     C18 5147   1.136   4.793   3.997  0.2847  0.5837 -0.0798
  224DG     O19 5148   1.135   4.743   3.869  0.6915  0.3059  0.9065
  224DG     H20 5149   0.939   4.710   3.842  0.7540 -0.6950 -0.5569
  224DG     H21 5150   0.992   4.878   3.818  0.7790 -1.6037 -0.9745
  224DG     H22 5151   1.048   4.760   4.060  0.1209  1.5759 -0.0562
  224DG     H23 5152   1.143   4.902   3.995  2.2362  2.3708 -1.5026
  225DG      C1 5153   3.237   2.873   4.492  0.5345 -0.2746 -0.1687
  225DG      C2 5154   3.306   3.514   4.666  0.2390  0.3678 -0.1134
  225DG      H3 5155   3.200   2.942   4.419 -0.4515  1.8862 -0.6063
  225DG      H4 5156   3.149   2.843   4.552  0.0107  0.2168 -1.2629
  225DG      H5 5157   3.281   2.788   4.444  1.4278  0.0481 -0.4382
  225DG      H6 5158   3.299   3.599   4.729 -0.1294 -1.6921 -1.2431
  225DG      H7 5159   3.374   3.535   4.582  1.0676 -1.7032  0.3620
  225DG      H8 5160   3.204   3.507   4.629  0.5430 -0.6840  0.3683
  225DG      O9 5161   3.318   2.935   4.593  0.0828 -0.6909  0.7774
  225DG     O10 5162   3.345   3.396   4.730  0.4013  0.4029 -0.7982
  225DG     C11 5163   3.446   2.964   4.545  0.3007  0.7021 -0.7167
  225DG     C12 5164   3.476   3.384   4.776  1.1419 -0.3830 -0.1466
  225DG     H13 5165   3.445   3.012   4.446  0.1128 -0.3951  0.8018
  225DG     H14 5166   3.502   2.875   4.531  0.3698  0.1283  0.6667
  225DG     H15 5167   3.508   3.434   4.868  2.4993  1.1350 -1.0087
  225DG     H16 5168   3.546   3.425   4.701  1.8346 -0.0298  0.0429
  225DG     C17 5169   3.526   3.041   4.649 -0.4270  0.0067  1.2868
  225DG     C18 5170   3.506   3.234   4.783  0.8080 -0.3161  0.9732
  225DG     O19 5171   3.458   3.164   4.668 -0.0861 -0.3036  0.1464
  225DG     H20 5172   3.624   3.056   4.609 -0.2015 -0.7341  1.0223
  225DG     H21 5173   3.541   2.982   4.739  0.2595  1.0350 -0.0217
  225DG     H22 5174   3.610   3.210   4.804 -0.0231  0.4182 -1.2168
  225DG     H23 5175   3.451   3.180   4.863  2.1084  1.4711  1.0061
  226DG      C1 5176   0.482   5.374   1.842 -0.4899 -0.4916 -0.5682
  226DG      C2 5177   0.189   5.953   1.791 -0.5889 -0.4953 -0.1009
  226DG      H3 5178   0.479   5.411   1.741  0.4217 -1.6922  0.9685
  226DG      H4 5179   0.379   5.339   1.864 -0.7315  0.1170  1.9272
  226DG      H5 5180   0.539   5.282   1.838 -0.3239 -0.4247 -0.7955
  226DG      H6 5181   0.093   5.904   1.801 -0.7539 -2.2352  0.1356
  226DG      H7 5182   0.193   6.029   1.869 -0.0625 -0.1076 -1.6266
  226DG      H8 5183   0.186   5.995   1.690  1.2937 -0.0190  0.3393
  226DG      O9 5184   0.517   5.489   1.923  0.5695  0.5285  0.1533
  226DG     O10 5185   0.294   5.851   1.801  0.2037 -0.2926 -0.0008
  226DG     C11 5186   0.645   5.538   1.890  0.4439 -0.2169  0.7281
  226DG     C12 5187   0.412   5.908   1.817 -0.4275 -0.6500  0.1444
  226DG     H13 5188   0.719   5.461   1.885  2.3353 -1.1876 -0.1382
  226DG     H14 5189   0.675   5.601   1.970 -1.8914 -0.2397  0.2899
  226DG     H15 5190   0.418   5.962   1.907 -0.1449 -0.8165 -1.0961
  226DG     H16 5191   0.433   5.979   1.728 -1.2481 -0.6488 -1.8003
  226DG     C17 5192   0.647   5.622   1.760  0.5525 -0.1373 -0.3032
  226DG     C18 5193   0.529   5.807   1.843  0.1605  0.3343 -0.1652
  226DG     O19 5194   0.535   5.693   1.753  0.2619 -0.5611  0.1590
  226DG     H20 5195   0.639   5.559   1.677  0.5801  1.7946  2.3459
  226DG     H21 5196   0.737   5.673   1.741  0.3806 -0.5902  0.6017
  226DG     H22 5197   0.623   5.866   1.830  1.7643 -0.3013  0.7659
  226DG     H23 5198   0.525   5.776   1.947 -0.2101 -2.3103  1.6715
  227DG      C1 5199   0.646   0.816   4.059 -0.0352  0.0528 -0.4394
  227DG      C2 5200   0.123   1.171   4.311 -0.1945  0.9555 -0.0399
  227DG      H3 5201   0.681   0.767   4.153  1.1685  0.2876 -0.6815
  227DG      H4 5202   0.699   0.904   4.049 -1.6562 -0.3140  0.2050
  227DG      H5 5203   0.685   0.753   3.983  1.8008  0.8029  1.6038
  227DG      H6 5204   0.167   1.117   4.400  1.0930  0.2020  0.7203
  227DG      H7 5205   0.147   1.272   4.319 -1.5770 -1.6641 -3.4290
  227DG      H8 5206   0.018   1.161   4.337 -1.1941 -1.7535  3.8525
  227DG      O9 5207   0.509   0.842   4.045 -0.0958  0.3579 -0.4396
  227DG     O10 5208   0.155   1.098   4.198  0.4348 -0.0786 -0.1474
  227DG     C11 5209   0.428   0.723   4.061 -0.1976 -0.3358 -0.2279
  227DG     C12 5210   0.053   0.994   4.175 -0.0162  0.1574  0.2026
  227DG     H13 5211   0.427   0.682   4.158  0.3000 -0.5974  0.2877
  227DG     H14 5212   0.469   0.641   3.997  1.9417 -3.5295  0.2291
  227DG     H15 5213  -0.048   1.026   4.150  2.6200 -0.5418  0.5039
  227DG     H16 5214   0.047   0.939   4.268 -0.2170  1.4767 -1.2637
  227DG     C17 5215   0.296   0.756   4.013  0.6960  0.0359 -0.7804
  227DG     C18 5216   0.115   0.909   4.056 -0.1636 -0.4380  1.3779
  227DG     O19 5217   0.231   0.842   4.104 -0.1835  0.4911  0.0989
  227DG     H20 5218   0.236   0.666   3.985 -0.3090  3.1161  1.7197
  227DG     H21 5219   0.311   0.815   3.924 -1.7479  2.8402 -1.1667
  227DG     H22 5220   0.035   0.840   4.028 -3.1715  1.7365  1.5204
  227DG     H23 5221   0.149   0.967   3.970  1.1294  2.8665  0.0873
  228DG      C1 5222   2.388   1.690   2.425  0.1611  0.1760  0.1942
  228DG      C2 5223   1.685   2.175   2.398  0.0994 -0.6702  0.1566
  228DG      H3 5224   2.438   1.592   2.450  3.3518 -0.2311  1.2254
  228DG      H4 5225   2.405   1.752   2.508 -0.6027  2.8982 -1.7522
  228DG      H5 5226   2.446   1.731   2.345 -0.8617 -0.0182  1.0505
  228DG      H6 5227   1.706   2.274   2.359 -2.9490  1.5630  1.9201
  228DG      H7 5228   1.590   2.145   2.358  1.1928  0.6672  0.6698
  228DG      H8 5229   1.683   2.190   2.502 -0.5250  3.2512 -0.3433
  228DG      O9 5230   2.251   1.677   2.395 -0.1751  0.1380  0.2833
  228DG     O10 5231   1.773   2.070   2.369 -0.2914 -0.5958 -0.2159
  228DG     C11 5232   2.191   1.801   2.374  0.3685 -0.2072 -0.2939
  228DG     C12 5233   1.824   2.064   2.230  0.3914 -0.1268  0.0097
  228DG     H13 5234   2.256   1.865   2.324  0.7142 -0.5569  0.0608
  228DG     H14 5235   2.178   1.827   2.476 -0.5623  0.4852 -0.7027
  228DG     H15 5236   1.900   2.139   2.205  1.0772 -1.2801 -0.0285
  228DG     H16 5237   1.733   2.075   2.170 -0.3969  1.4516 -0.4103
  228DG     C17 5238   2.051   1.790   2.315  0.6975 -0.1772 -0.2147
  228DG     C18 5239   1.883   1.927   2.218  0.1547 -0.1584 -0.7014
  228DG     O19 5240   1.998   1.919   2.302  0.2820 -0.4529  0.4915
  228DG     H20 5241   1.992   1.718   2.376 -1.3089 -1.0880  1.1445
  228DG     H21 5242   2.048   1.756   2.211  2.2675  2.5717  1.2433
  228DG     H22 5243   1.807   1.855   2.252 -3.0983  0.9357 -0.2368
  228DG     H23 5244   1.903   1.906   2.120 -3.9606 -1.9254 -0.1307
  229DG      C1 5245   1.566   0.483   1.426 -0.0310  0.6814  0.6930
  229DG      C2 5246   1.016   0.402   1.491  0.1674 -0.2682 -0.6498
  229DG      H3 5247   1.558   0.584   1.460  0.6513 -1.7983 -0.0622
  229DG      H4 5248   1.515   0.478   1.335  0.1969  0.6319  0.6762
  229DG      H5 5249   1.673   0.450   1.415 -0.0567 -0.2087  1.2808
  229DG      H6 5250   0.964   0.494   1.478  0.7881 -0.5568 -1.8174
  229DG      H7 5251   1.038   0.366   1.391  1.9862  0.8327  1.2445
  229DG      H8 5252   0.940   0.336   1.543  0.7784 -0.9234  0.8459
  229DG      O9 5253   1.513   0.378   1.515 -0.3021  0.4273  0.4505
  229DG     O10 5254   1.136   0.409   1.566 -0.3452 -0.0415  0.3734
  229DG     C11 5255   1.558   0.391   1.647  0.2917  0.1624 -0.1102
  229DG     C12 5256   1.126   0.417   1.707  0.4936 -0.6208  0.2878
  229DG     H13 5257   1.543   0.503   1.676 -1.3730  2.2272 -1.2149
  229DG     H14 5258   1.662   0.367   1.650 -1.1507 -0.9798 -0.6624
  229DG     H15 5259   1.078   0.324   1.740 -0.3549  1.3543  1.0291
  229DG     H16 5260   1.065   0.501   1.726  3.5271 -3.2421  0.4474
  229DG     C17 5261   1.484   0.304   1.739 -0.4586  0.5321 -0.6009
  229DG     C18 5262   1.270   0.427   1.749 -0.0109  0.0783  0.3845
  229DG     O19 5263   1.339   0.308   1.711  0.6041 -0.1613  0.1270
  229DG     H20 5264   1.507   0.330   1.846  0.9089 -0.1301  0.7945
  229DG     H21 5265   1.510   0.193   1.723 -0.2983 -0.8686 -2.2027
  229DG     H22 5266   1.296   0.518   1.704  0.4195 -0.8409  1.3423
  229DG     H23 5267   1.288   0.437   1.855  0.0361 -2.1875 -0.8898
  230DG      C1 5268   2.499   0.753   1.338 -0.8539 -0.1927 -0.2332
  230DG      C2 5269   2.468   0.638   1.980  0.4116 -0.6539 -0.1436
  230DG      H3 5270   2.507   0.646   1.345 -3.3943  2.7337 -0.4476
  230DG      H4 5271   2.534   0.778   1.236  0.5912 -0.5010  3.1237
  230DG      H5 5272   2.395   0.780   1.350  0.7486  0.1044 -2.1243
  230DG      H6 5273   2.379   0.580   1.982 -0.6647 -1.1161  1.2717
  230DG      H7 5274   2.536   0.591   2.049 -2.3054  1.1082 -2.1312
  230DG      H8 5275   2.424   0.723   2.023  0.7626  2.3452 -1.3354
  230DG      O9 5276   2.573   0.817   1.432  0.0973 -0.0416  0.1793
  230DG     O10 5277   2.519   0.644   1.852  0.1103 -0.4621 -0.0711
  230DG     C11 5278   2.712   0.788   1.434  0.2583 -0.1976 -0.2563
  230DG     C12 5279   2.620   0.543   1.838  0.4861  0.2848  0.4690
  230DG     H13 5280   2.743   0.872   1.497 -1.0073  0.1845 -0.5833
  230DG     H14 5281   2.764   0.789   1.336 -1.2267 -0.6094 -0.7926
  230DG     H15 5282   2.581   0.448   1.863  1.5151 -0.2028 -1.0324
  230DG     H16 5283   2.704   0.570   1.897 -0.8473  0.8215  2.2370
  230DG     C17 5284   2.730   0.656   1.511  0.1578 -0.6819  0.2586
  230DG     C18 5285   2.662   0.531   1.692 -0.5247  0.4328  0.2432
  230DG     O19 5286   2.664   0.655   1.634 -0.2107 -0.1597 -0.0353
  230DG     H20 5287   2.841   0.626   1.523  1.3115  0.6498  0.0314
  230DG     H21 5288   2.676   0.577   1.457  1.6586  0.0683  1.4585
  230DG     H22 5289   2.751   0.468   1.686  0.4639 -0.1037  1.6779
  230DG     H23 5290   2.586   0.473   1.641  1.0133  1.5276  1.2690
  231DG      C1 5291   1.229   1.280   0.163 -0.2867  0.1010  0.3545
  231DG      C2 5292   0.777   0.792   0.283  0.0959  0.4739  0.1993
  231DG      H3 5293   1.268   1.215   0.086  1.8160  0.8655  1.9418
  231DG      H4 5294   1.292   1.278   0.250  2.8777  1.7783 -0.7626
  231DG      H5 5295   1.244   1.385   0.133  1.5051  2.4695  1.4334
  231DG      H6 5296   0.787   0.757   0.390 -0.4833 -0.0563  0.7706
  231DG      H7 5297   0.679   0.749   0.250  2.5136 -2.5316  0.5081
  231DG      H8 5298   0.854   0.738   0.226  0.5667  0.6316  1.2587
  231DG      O9 5299   1.092   1.252   0.192  0.5654 -0.7984  0.0554
  231DG     O10 5300   0.805   0.934   0.278  0.1096  0.5457  0.2427
  231DG     C11 5301   1.035   1.350   0.283  0.2074  0.1013 -0.4150
  231DG     C12 5302   0.722   1.003   0.362 -0.0591 -0.2583  0.4202
  231DG     H13 5303   1.065   1.451   0.258 -0.2109 -0.5668 -1.4122
  231DG     H14 5304   1.075   1.341   0.385  2.0555  1.3078 -1.0649
  231DG     H15 5305   0.741   0.977   0.462 -0.5996 -0.2420 -0.7568
  231DG     H16 5306   0.624   0.979   0.342  0.5828 -0.3019  0.6205
  231DG     C17 5307   0.887   1.326   0.287 -0.3851 -0.4789 -0.2653
  231DG     C18 5308   0.729   1.159   0.339 -0.3996  0.4861 -0.5176
  231DG     O19 5309   0.863   1.191   0.340  0.1461  0.0936 -0.0066
  231DG     H20 5310   0.835   1.353   0.194  1.7588  1.1107  0.2270
  231DG     H21 5311   0.841   1.396   0.352  0.8677  1.0284 -1.1487
  231DG     H22 5312   0.678   1.195   0.247  0.0063  1.5785  2.0202
  231DG     H23 5313   0.678   1.209   0.424  0.3232  1.6684  3.7079
  232DG      C1 5314   1.243   2.299   4.863  0.5026  0.2572  0.4546
  232DG      C2 5315   1.171   1.900   5.382 -0.1780 -0.3773  0.1300
  232DG      H3 5316   1.349   2.287   4.878 -1.0337 -2.3521 -0.5045
  232DG      H4 5317   1.218   2.400   4.890  0.2683  0.0171  1.0927
  232DG      H5 5318   1.228   2.299   4.750  0.5494  0.8355 -1.7585
  232DG      H6 5319   1.277   1.887   5.360 -0.0467 -0.8262 -0.4311
  232DG      H7 5320   1.164   1.950   5.474 -0.5883  0.7000  0.2467
  232DG      H8 5321   1.132   1.802   5.412 -0.8951  0.9700  1.9199
  232DG      O9 5322   1.159   2.194   4.912  0.2843 -0.2414  0.0191
  232DG     O10 5323   1.104   1.948   5.270 -0.2927  0.1899  0.3028
  232DG     C11 5324   1.022   2.226   4.896  0.1781 -0.6571 -0.2063
  232DG     C12 5325   0.965   1.973   5.292 -0.4224  0.3045 -0.7562
  232DG     H13 5326   0.986   2.245   4.796  0.4135  1.9504  0.3576
  232DG     H14 5327   0.994   2.311   4.960 -0.9819 -0.5823 -0.1246
  232DG     H15 5328   0.958   2.056   5.359  0.1550  0.2174  0.1286
  232DG     H16 5329   0.915   1.887   5.336  0.2345  0.3151 -3.8313
  232DG     C17 5330   0.938   2.115   4.957  0.3315 -0.0145  0.5159
  232DG     C18 5331   0.890   2.008   5.162 -0.6993  0.2375  0.3000
  232DG     O19 5332   0.969   2.097   5.093 -0.0475  0.2588 -0.0358
  232DG     H20 5333   0.952   2.021   4.906 -2.1486  1.3381  0.3779
  232DG     H21 5334   0.833   2.147   4.951  1.6221  1.6284  1.5127
  232DG     H22 5335   0.874   1.908   5.117 -2.0878 -1.2182  2.0129
  232DG     H23 5336   0.801   2.043   5.197  0.6995 -1.4220 -1.0095
  233DG      C1 5337   5.225   2.655   1.715  0.8083 -0.1177  0.2072
  233DG      C2 5338   5.376   3.410   1.634 -0.0157  0.0056 -0.0746
  233DG      H3 5339   5.201   2.596   1.802 -0.6635  0.7078 -1.2948
  233DG      H4 5340   5.239   2.590   1.628 -1.0261  1.6152  1.1406
  233DG      H5 5341   5.138   2.713   1.690 -2.9485  1.1162 -0.1173
  233DG      H6 5342   5.307   3.405   1.722  2.4533  0.4187  0.7107
  233DG      H7 5343   5.457   3.486   1.658 -0.6111 -0.8976 -0.4095
  233DG      H8 5344   5.323   3.454   1.551  2.0971  1.5381 -0.5698
  233DG      O9 5345   5.333   2.745   1.725 -0.7501 -0.5459  0.0449
  233DG     O10 5346   5.432   3.283   1.607 -0.2530 -0.2101 -0.1925
  233DG     C11 5347   5.312   2.855   1.811  0.2516 -0.1539  0.0622
  233DG     C12 5348   5.534   3.238   1.698  0.3217  0.0732 -0.0377
  233DG     H13 5349   5.289   2.822   1.913 -0.2100  1.2226  0.2147
  233DG     H14 5350   5.226   2.905   1.775  0.3430  1.9111  0.7968
  233DG     H15 5351   5.515   3.262   1.800 -0.3494 -1.5156 -2.7485
  233DG     H16 5352   5.628   3.294   1.680 -0.7570  0.9089 -1.6188
  233DG     C17 5353   5.433   2.951   1.805 -0.5567  0.3812  0.3879
  233DG     C18 5354   5.571   3.087   1.675  0.7095 -0.8224  0.8354
  233DG     O19 5355   5.460   2.989   1.671 -0.0342 -0.3545  0.1917
  233DG     H20 5356   5.519   2.910   1.859 -2.0133 -3.1173  0.0487
  233DG     H21 5357   5.405   3.033   1.869 -0.0384  2.6730  3.4783
  233DG     H22 5358   5.619   3.079   1.578  3.1724  2.2584  1.8138
  233DG     H23 5359   5.655   3.051   1.739 -1.2520 -0.6154 -1.0903
  234DG      C1 5360   2.281   1.971   2.775 -0.5221 -0.6011 -0.4224
  234DG      C2 5361   2.157   1.528   3.416 -0.3091  0.3905  0.0868
  234DG      H3 5362   2.261   1.940   2.670  1.6900 -1.3990  1.4599
  234DG      H4 5363   2.344   2.063   2.779  0.6630 -1.2124  1.2713
  234DG      H5 5364   2.188   1.991   2.821 -0.4196 -1.0210 -2.8996
  234DG      H6 5365   2.160   1.633   3.456 -0.7069  0.2025 -0.3316
  234DG      H7 5366   2.058   1.489   3.422 -0.7282  0.5088  0.6608
  234DG      H8 5367   2.224   1.462   3.479  1.1088 -0.3068 -1.0216
  234DG      O9 5368   2.356   1.864   2.843 -0.0339 -0.3363 -0.1061
  234DG     O10 5369   2.207   1.515   3.285  0.1021  0.2714  0.5762
  234DG     C11 5370   2.284   1.741   2.815 -0.3581  0.2287 -0.6844
  234DG     C12 5371   2.335   1.553   3.266  0.6235 -0.2977 -0.7463
  234DG     H13 5372   2.304   1.719   2.716 -2.5565  0.9088 -0.2379
  234DG     H14 5373   2.176   1.745   2.825 -0.4146 -0.5292  1.1136
  234DG     H15 5374   2.400   1.491   3.324 -1.4669 -1.0891  1.4955
  234DG     H16 5375   2.357   1.655   3.294  1.1553 -0.2268 -2.0505
  234DG     C17 5376   2.346   1.625   2.904  0.2398 -0.9925 -0.4216
  234DG     C18 5377   2.379   1.536   3.122  0.5993 -0.3729  0.0906
  234DG     O19 5378   2.317   1.636   3.041  0.5083 -0.4594 -0.3098
  234DG     H20 5379   2.450   1.618   2.884  0.5394  0.2195  1.1369
  234DG     H21 5380   2.311   1.532   2.867 -2.2687  1.4239  1.0809
  234DG     H22 5381   2.484   1.523   3.107 -1.4246 -1.5974 -0.3892
  234DG     H23 5382   2.346   1.442   3.077  2.7050  1.3322  0.2096
  235DG      C1 5383   5.216   1.401   4.978 -0.2483  0.0056 -0.6606
  235DG      C2 5384   4.524   1.334   4.427 -0.5736 -0.3489 -0.7584
  235DG      H3 5385   5.144   1.395   5.064  1.3795  0.5178  0.7555
  235DG      H4 5386   5.301   1.467   5.001  0.6111  2.5318 -1.2050
  235DG      H5 5387   5.258   1.294   4.961  0.4750 -0.3108  0.7246
  235DG      H6 5388   4.470   1.367   4.336 -0.0911 -1.5130  0.0132
  235DG      H7 5389   4.526   1.223   4.416 -0.8768  0.7476 -1.2362
  235DG      H8 5390   4.447   1.365   4.502 -1.0655 -2.8616  0.2646
  235DG      O9 5391   5.149   1.449   4.856 -0.1908  0.2354  0.0389
  235DG     O10 5392   4.650   1.395   4.415  0.4462 -0.6596  0.4337
  235DG     C11 5393   5.030   1.369   4.843 -0.5146 -0.2635  0.3369
  235DG     C12 5394   4.725   1.390   4.532 -0.2642  0.2992 -0.3898
  235DG     H13 5395   4.944   1.409   4.895 -0.6274 -2.3492  2.0266
  235DG     H14 5396   5.059   1.264   4.876  4.7567  1.4456  1.0622
  235DG     H15 5397   4.730   1.293   4.582  1.1512  1.2083  0.6797
  235DG     H16 5398   4.669   1.444   4.606  3.5490 -0.7636  2.4266
  235DG     C17 5399   5.008   1.355   4.693 -0.4425  0.9236 -0.3113
  235DG     C18 5400   4.864   1.450   4.519  0.0288  0.1069  0.4873
  235DG     O19 5401   4.931   1.466   4.646  0.0228  0.6463  0.3376
  235DG     H20 5402   4.958   1.267   4.661 -0.1160  1.1894 -1.1181
  235DG     H21 5403   5.105   1.357   4.646 -1.5913  2.2734  2.9182
  235DG     H22 5404   4.934   1.397   4.445  1.4606  1.5272 -0.8235
  235DG     H23 5405   4.858   1.548   4.480  1.1948  1.5300  0.3944
  236DG      C1 5406   0.879   1.111   2.389 -0.2483 -0.1192 -0.4454
  236DG      C2 5407   1.313   0.683   2.156  0.8178 -0.2633  0.2535
  236DG      H3 5408   0.864   1.061   2.487  1.5712 -1.4355  0.3575
  236DG      H4 5409   0.790   1.172   2.368 -0.3305  1.4532 -0.9245
  236DG      H5 5410   0.949   1.189   2.407  0.9875 -1.3399 -0.9079
  236DG      H6 5411   1.296   0.584   2.194  1.1273  0.4628 -0.7276
  236DG      H7 5412   1.382   0.678   2.074 -1.3118 -0.8498 -2.4318
  236DG      H8 5413   1.356   0.733   2.235  0.7465 -2.7004  0.2341
  236DG      O9 5414   0.893   1.027   2.277  0.3294 -0.5502 -0.2180
  236DG     O10 5415   1.194   0.755   2.122 -0.1584 -0.1534 -0.2851
  236DG     C11 5416   0.777   0.946   2.268  0.1230 -0.5916 -0.6282
  236DG     C12 5417   1.093   0.669   2.073  0.7067 -0.1930  1.0746
  236DG     H13 5418   0.696   1.022   2.253  2.5581  3.8959 -1.2351
  236DG     H14 5419   0.760   0.888   2.365  0.3895 -2.4896 -0.9633
  236DG     H15 5420   1.072   0.598   2.146  1.2226  0.8243 -2.0172
  236DG     H16 5421   1.132   0.613   1.993 -0.7157  1.4103 -0.1913
  236DG     C17 5422   0.790   0.864   2.145 -0.1213 -0.3301 -0.8675
  236DG     C18 5423   0.965   0.734   2.033  0.1246  0.0945  1.1654
  236DG     O19 5424   0.920   0.797   2.148  0.0870 -0.3976 -1.0250
  236DG     H20 5425   0.778   0.934   2.065 -0.9264  0.6914  0.8156
  236DG     H21 5426   0.717   0.789   2.141  0.2454  2.2885  0.1966
  236DG     H22 5427   0.980   0.809   1.951 -0.3333  0.6704 -2.0849
  236DG     H23 5428   0.897   0.656   1.990 -3.3152 -1.3910 -1.0786
  237DG      C1 5429   0.485   0.660   0.509 -0.4952 -0.4455  0.5760
  237DG      C2 5430   0.024   0.041   0.391 -0.1946 -0.3766  0.0285
  237DG      H3 5431   0.484   0.756   0.456  0.3988 -1.7788  1.1019
  237DG      H4 5432   0.588   0.633   0.514 -0.9129  2.1501  0.9703
  237DG      H5 5433   0.447   0.656   0.611 -0.1028  1.1634 -1.6096
  237DG      H6 5434  -0.038  -0.028   0.445 -0.5084  0.7547  0.2313
  237DG      H7 5435  -0.020   0.049   0.297 -2.0700  0.3316  2.0315
  237DG      H8 5436   0.130   0.004   0.391  1.8646 -0.0358  1.0856
  237DG      O9 5437   0.424   0.568   0.422  0.2770  0.2887 -0.4354
  237DG     O10 5438   0.004   0.171   0.440  0.2905  0.2352  1.0110
  237DG     C11 5439   0.295   0.594   0.382 -0.5129  0.9796 -0.2035
  237DG     C12 5440   0.091   0.185   0.555  0.2927  1.0961  0.1790
  237DG     H13 5441   0.279   0.546   0.287  1.4560  1.3484  0.2758
  237DG     H14 5442   0.286   0.697   0.360  1.8856  2.4564 -0.4434
  237DG     H15 5443   0.193   0.140   0.542  1.2784 -0.1153 -2.0033
  237DG     H16 5444   0.043   0.139   0.641 -0.2386  0.5598  1.2930
  237DG     C17 5445   0.185   0.537   0.482  0.5770 -0.4808 -0.0652
  237DG     C18 5446   0.104   0.331   0.586 -0.2614  0.0153  0.5959
  237DG     O19 5447   0.189   0.393   0.483 -0.7808  0.0640 -0.1635
  237DG     H20 5448   0.092   0.577   0.436  0.3167 -1.5032 -0.4982
  237DG     H21 5449   0.187   0.566   0.583  3.3128 -0.4343 -1.4720
  237DG     H22 5450   0.011   0.380   0.603  1.0443  1.3695  1.4973
  237DG     H23 5451   0.165   0.348   0.672 -1.3557 -1.4924 -2.0800
  238DG      C1 5452   2.534   3.173   0.578 -0.0169  0.1618 -0.1599
  238DG      C2 5453   3.040   2.730   0.582 -0.8255  0.2240 -0.3000
  238DG      H3 5454   2.489   3.273   0.548  1.9925  0.5257  0.4045
  238DG      H4 5455   2.588   3.190   0.671  0.8709  0.0832 -2.8259
  238DG      H5 5456   2.456   3.109   0.607  2.8225 -0.6075  0.9674
  238DG      H6 5457   2.987   2.637   0.567 -0.1166  2.2075  2.0397
  238DG      H7 5458   3.151   2.726   0.552 -0.6641 -1.7274  1.2580
  238DG      H8 5459   3.053   2.740   0.692 -2.4960  1.4849  0.0995
  238DG      O9 5460   2.631   3.125   0.482  0.2821  0.1376  0.4909
  238DG     O10 5461   2.972   2.834   0.513  0.2363  0.1055  0.1542
  238DG     C11 5462   2.571   3.084   0.363  0.2272  0.6799 -0.2448
  238DG     C12 5463   2.957   2.810   0.377 -0.5423 -0.8502 -0.5543
  238DG     H13 5464   2.524   3.160   0.308  1.8012  0.6892  1.2381
  238DG     H14 5465   2.496   3.004   0.388 -0.2499  0.3379  2.2143
  238DG     H15 5466   2.890   2.721   0.375 -1.9905  0.4945 -0.6033
  238DG     H16 5467   3.052   2.782   0.331  0.3618 -1.0024 -0.4626
  238DG     C17 5468   2.682   3.017   0.285 -0.1634  0.2909  0.8223
  238DG     C18 5469   2.885   2.910   0.288  0.8717  0.3129  0.0044
  238DG     O19 5470   2.776   2.947   0.370  0.2143 -0.5601  0.1462
  238DG     H20 5471   2.733   3.099   0.238  0.4092  1.8262  4.9288
  238DG     H21 5472   2.637   2.946   0.217  1.7810 -1.3596 -0.5094
  238DG     H22 5473   2.946   2.994   0.259  0.6735  0.6171 -0.4993
  238DG     H23 5474   2.841   2.866   0.194 -0.0038 -0.2844 -1.7442
  239DG      C1 5475   2.313   3.913   3.422 -0.2454  0.7038 -0.0005
  239DG      C2 5476   3.004   3.733   3.626 -0.0677 -0.6059 -0.1070
  239DG      H3 5477   2.353   4.003   3.460  1.1843  2.1409 -3.7523
  239DG      H4 5478   2.240   3.869   3.494 -0.4943 -2.8326 -1.8342
  239DG      H5 5479   2.241   3.923   3.337  1.3821 -0.3925  2.0741
  239DG      H6 5480   3.044   3.819   3.568 -0.9761 -0.9548 -1.5737
  239DG      H7 5481   2.997   3.779   3.727 -0.5583  0.1145  3.2421
  239DG      H8 5482   3.073   3.649   3.641 -1.7841  0.8626  0.5355
  239DG      O9 5483   2.418   3.823   3.394 -0.5262 -0.6092 -0.0894
  239DG     O10 5484   2.873   3.704   3.590  0.5243  0.5387 -0.0553
  239DG     C11 5485   2.508   3.879   3.294 -0.4471 -0.4057 -0.0875
  239DG     C12 5486   2.874   3.614   3.484  0.3984 -0.3642  0.2430
  239DG     H13 5487   2.535   3.980   3.317 -1.0201  0.6085 -0.5357
  239DG     H14 5488   2.450   3.896   3.203 -0.5151 -1.6672 -0.6401
  239DG     H15 5489   2.795   3.549   3.496  2.0178  0.7286 -1.0128
  239DG     H16 5490   2.963   3.548   3.474 -2.5401  1.5646 -1.6172
  239DG     C17 5491   2.627   3.779   3.262 -0.3762  0.4739  0.8517
  239DG     C18 5492   2.838   3.690   3.352 -0.3207 -0.1178  0.0700
  239DG     O19 5493   2.719   3.770   3.369  0.5655  0.1873 -0.5512
  239DG     H20 5494   2.683   3.797   3.165 -1.8448  0.3231  1.6609
  239DG     H21 5495   2.572   3.684   3.242 -0.3484 -1.0172  2.4043
  239DG     H22 5496   2.926   3.757   3.320 -0.3399 -0.3225 -1.2976
  239DG     H23 5497   2.824   3.615   3.276 -0.2823 -2.6527  1.9908
  240DG      C1 5498   1.080   4.284   0.377  0.0993 -0.4589 -0.1823
  240DG      C2 5499   1.743   4.135   0.163 -0.3138 -0.8533  0.7671
  240DG      H3 5500   1.087   4.171   0.371 -0.3698 -0.9860  1.4164
  240DG      H4 5501   0.987   4.317   0.329  1.6003  2.7739  0.9997
  240DG      H5 5502   1.063   4.306   0.480 -0.9207 -1.1191 -1.5525
  240DG      H6 5503   1.738   4.048   0.097  0.0165  2.1072  0.5379
  240DG      H7 5504   1.842   4.176   0.161 -1.2658  0.9405 -0.2606
  240DG      H8 5505   1.716   4.113   0.264  0.0197  2.8086 -1.1957
  240DG      O9 5506   1.192   4.348   0.320  0.3632  0.2918  0.4673
  240DG     O10 5507   1.655   4.226   0.102  0.3630  0.5587  0.7336
  240DG     C11 5508   1.195   4.329   0.177  0.8940 -0.7430 -0.2972
  240DG     C12 5509   1.669   4.361   0.146 -0.8901 -0.1309 -0.0428
  240DG     H13 5510   1.099   4.350   0.131  0.1892 -0.7248 -0.7060
  240DG     H14 5511   1.211   4.225   0.164  1.2999 -0.0966 -0.0652
  240DG     H15 5512   1.760   4.408   0.114 -1.2331 -1.9777 -2.2690
  240DG     H16 5513   1.670   4.373   0.253 -0.1013 -2.3476 -0.9751
  240DG     C17 5514   1.302   4.417   0.103  0.6505 -0.3325 -0.4204
  240DG     C18 5515   1.542   4.434   0.090 -0.3775  0.2280 -0.9484
  240DG     O19 5516   1.427   4.369   0.149  0.3454 -0.2842 -0.4202
  240DG     H20 5517   1.288   4.521   0.138 -0.9683  0.3015 -0.4101
  240DG     H21 5518   1.271   4.411  -0.001  2.0312  1.8353  0.3813
  240DG     H22 5519   1.546   4.535   0.116  2.2154  0.8121 -3.1028
  240DG     H23 5520   1.538   4.432  -0.015  0.0348  1.2548 -0.9219
  241DG      C1 5521   1.537   0.542   3.977  0.4130 -0.4616 -0.7496
  241DG      C2 5522   1.836  -0.048   4.171 -0.5188 -0.3562 -0.6728
  241DG      H3 5523   1.482   0.572   3.889  0.7814  2.0980 -1.1213
  241DG      H4 5524   1.643   0.560   3.969 -2.6303 -1.2995 -1.9196
  241DG      H5 5525   1.502   0.598   4.061  4.4499  1.1871 -1.5686
  241DG      H6 5526   1.918  -0.015   4.106 -2.2064  0.4656 -0.4921
  241DG      H7 5527   1.841  -0.025   4.278  0.4482  0.3274 -2.0425
  241DG      H8 5528   1.825  -0.156   4.164  1.8973 -0.6187 -0.1640
  241DG      O9 5529   1.510   0.407   4.002 -0.0073 -0.4878  0.6819
  241DG     O10 5530   1.724   0.011   4.108 -0.8343  0.1067  0.3048
  241DG     C11 5531   1.393   0.374   4.067  0.0232 -0.3011  0.3879
  241DG     C12 5532   1.608  -0.029   4.182 -0.0089  0.3224  0.8499
  241DG     H13 5533   1.308   0.436   4.027  1.5875 -0.4916 -0.8040
  241DG     H14 5534   1.414   0.408   4.166  1.9022  0.2226  0.5757
  241DG     H15 5535   1.598   0.022   4.277  1.6231 -1.4045  0.8250
  241DG     H16 5536   1.607  -0.137   4.196 -0.6424  0.0561  1.1769
  241DG     C17 5537   1.373   0.226   4.047 -0.0430  0.0328 -0.0448
  241DG     C18 5538   1.497   0.020   4.082  0.1243  0.7111  0.5075
  241DG     O19 5539   1.488   0.160   4.100 -0.0862 -0.3207 -0.0226
  241DG     H20 5540   1.367   0.206   3.945  2.2507 -0.6003  0.2577
  241DG     H21 5541   1.277   0.187   4.091 -0.2694 -3.1278  0.5396
  241DG     H22 5542   1.510  -0.002   3.975 -0.7347  2.3823 -0.0742
  241DG     H23 5543   1.405  -0.027   4.116 -0.8709  2.9138 -0.2401
  242DG      C1 5544   5.265   2.753   4.977  0.4801  0.3230  0.6491
  242DG      C2 5545   5.841   2.653   5.087  0.0502  0.7213  0.2143
  242DG      H3 5546   5.276   2.865   4.950 -3.1968  1.4991 -0.0719
  242DG      H4 5547   5.256   2.744   5.081  2.6247 -1.2421 -0.9651
  242DG      H5 5548   5.175   2.721   4.925 -3.0287  1.1093  0.8831
  242DG      H6 5549   5.899   2.585   5.151 -0.6992  1.7425 -2.0900
  242DG      H7 5550   5.915   2.702   5.024  0.2108  1.0649 -1.7252
  242DG      H8 5551   5.794   2.727   5.149 -0.5625  1.9827 -2.7028
  242DG      O9 5552   5.379   2.687   4.915  0.2891 -0.0687  0.1247
  242DG     O10 5553   5.747   2.599   4.997 -0.5823  0.3731  0.5051
  242DG     C11 5554   5.349   2.596   4.816 -0.0111  0.8927 -0.6378
  242DG     C12 5555   5.778   2.482   4.937 -0.0873 -0.3352 -0.0834
  242DG     H13 5556   5.265   2.630   4.748  0.7659  1.9385 -2.3466
  242DG     H14 5557   5.304   2.511   4.873 -1.9668  5.1156 -0.4980
  242DG     H15 5558   5.775   2.408   5.014  1.6368  0.9156 -1.1097
  242DG     H16 5559   5.879   2.472   4.904 -0.6906 -1.3140  1.6860
  242DG     C17 5560   5.473   2.535   4.751 -0.0519 -0.3263  0.8816
  242DG     C18 5561   5.683   2.458   4.813  0.2440 -0.1555 -0.1106
  242DG     O19 5562   5.556   2.497   4.861 -0.0540 -0.4325 -0.8304
  242DG     H20 5563   5.513   2.615   4.687  1.3815  2.2452  0.1059
  242DG     H21 5564   5.452   2.465   4.677 -2.5390  1.5994  0.1858
  242DG     H22 5565   5.717   2.525   4.736 -1.8201  1.1870 -3.3428
  242DG     H23 5566   5.689   2.358   4.789 -0.8499  0.9881 -0.5222
  243DG      C1 5567   5.469   1.461   0.198  0.4539  0.0246  0.3436
  243DG      C2 5568   4.886   1.253  -0.034 -0.4782 -0.5223 -0.4984
  243DG      H3 5569   5.499   1.494   0.093 -0.9292 -0.8744  0.8210
  243DG      H4 5570   5.496   1.351   0.213 -1.0944  0.1968  0.1432
  243DG      H5 5571   5.522   1.523   0.261  1.8838 -0.8653  0.8760
  243DG      H6 5572   4.827   1.295  -0.116 -0.4302 -2.4948 -0.4890
  243DG      H7 5573   4.972   1.210  -0.082 -0.5539  1.7850  1.1362
  243DG      H8 5574   4.836   1.166   0.014  0.2395 -2.7178  0.5502
  243DG      O9 5575   5.327   1.475   0.220 -0.7498 -0.1931  0.6321
  243DG     O10 5576   4.941   1.348   0.060  0.0490 -0.2580  0.8168
  243DG     C11 5577   5.289   1.607   0.259  0.3635  0.2020  0.5202
  243DG     C12 5578   4.847   1.463   0.076  0.1593  0.4613 -0.0710
  243DG     H13 5579   5.330   1.679   0.183  0.4264 -0.9618  0.2275
  243DG     H14 5580   5.338   1.627   0.356 -1.8221  1.9404  1.0493
  243DG     H15 5581   4.750   1.432   0.116  0.6722 -0.2832 -0.6741
  243DG     H16 5582   4.833   1.523  -0.015 -0.1926  0.4463 -0.2870
  243DG     C17 5583   5.134   1.624   0.272 -0.1487  1.2177 -0.1695
  243DG     C18 5584   4.927   1.551   0.180  0.2475 -0.0680 -0.1971
  243DG     O19 5585   5.066   1.544   0.172 -0.1651  0.2470 -0.6752
  243DG     H20 5586   5.103   1.724   0.249 -0.7293 -2.8494  0.7912
  243DG     H21 5587   5.106   1.600   0.376  1.1152 -1.2323 -1.1398
  243DG     H22 5588   4.897   1.658   0.167 -2.6214 -0.5706  0.0519
  243DG     H23 5589   4.889   1.522   0.285  0.3772 -2.9317  1.8913
  244DG      C1 5590   2.360   5.229   5.039  0.1000 -0.6957 -0.5202
  244DG      C2 5591   1.991   5.754   5.197  0.4962 -0.8988  0.3101
  244DG      H3 5592   2.410   5.247   4.943 -0.3435 -0.3841  0.5400
  244DG      H4 5593   2.380   5.126   5.052 -1.3005  0.6612 -0.5563
  244DG      H5 5594   2.417   5.285   5.111 -1.5005 -1.2889  0.6789
  244DG      H6 5595   1.906   5.758   5.266  0.7470  0.0445  2.3973
  244DG      H7 5596   2.083   5.769   5.258  0.7407 -0.6299 -0.1651
  244DG      H8 5597   1.986   5.833   5.118  1.0117 -0.7734 -0.2834
  244DG      O9 5598   2.221   5.262   5.054  0.6585 -0.3958 -0.0036
  244DG     O10 5599   1.997   5.624   5.139  0.5678  0.3000 -0.1748
  244DG     C11 5600   2.137   5.218   4.944  1.0109  0.7506  0.0257
  244DG     C12 5601   1.886   5.603   5.065 -0.5010  0.1598  0.6483
  244DG     H13 5602   2.134   5.107   4.919 -0.2906  0.3907  1.1024
  244DG     H14 5603   2.172   5.271   4.849 -1.2412 -1.4878 -0.7276
  244DG     H15 5604   1.894   5.659   4.973 -0.8489  1.3182  1.7420
  244DG     H16 5605   1.792   5.628   5.107  0.0876 -0.1875  1.5508
  244DG     C17 5606   1.990   5.270   4.963  0.1226 -0.2109 -0.9266
  244DG     C18 5607   1.867   5.459   5.022  0.5009  0.1518  0.4755
  244DG     O19 5608   1.989   5.406   4.981  0.2615 -0.4283 -0.1764
  244DG     H20 5609   1.942   5.220   5.048  0.6824  1.6821 -3.2427
  244DG     H21 5610   1.927   5.249   4.884  2.1534  1.8514  2.6976
  244DG     H22 5611   1.832   5.403   5.105 -0.2486  2.4617 -1.3442
  244DG     H23 5612   1.798   5.430   4.945 -0.5496  0.8758 -2.8783
  245DG      C1 5613   1.086   3.572   5.296 -0.2790  0.2468  0.7738
  245DG      C2 5614   1.511   3.540   4.640  0.3904  0.3400  0.5368
  245DG      H3 5615   1.155   3.631   5.343 -2.1773 -0.4785 -0.8211
  245DG      H4 5616   1.044   3.501   5.371 -1.3856 -1.2870  2.7592
  245DG      H5 5617   0.998   3.631   5.260  3.8096  0.5067 -1.2048
  245DG      H6 5618   1.438   3.606   4.598 -1.5760  1.2970 -1.6375
  245DG      H7 5619   1.597   3.588   4.682 -0.2954 -2.2957 -2.1747
  245DG      H8 5620   1.534   3.460   4.571 -0.6250 -0.8802  0.9469
  245DG      O9 5621   1.127   3.498   5.183 -0.2386 -0.1192 -0.7118
  245DG     O10 5622   1.444   3.476   4.741 -0.0098 -0.0782 -0.5039
  245DG     C11 5623   1.231   3.407   5.202  1.0016  0.4863  0.4261
  245DG     C12 5624   1.422   3.566   4.852 -0.5042 -1.0073 -0.3159
  245DG     H13 5625   1.198   3.340   5.280 -1.4353  2.2651 -1.4902
  245DG     H14 5626   1.330   3.455   5.226 -1.3516  0.9505 -0.2585
  245DG     H15 5627   1.392   3.662   4.813  1.0913  1.4024 -0.3037
  245DG     H16 5628   1.517   3.579   4.905 -0.8440 -0.6326  0.5004
  245DG     C17 5629   1.253   3.320   5.075 -0.7597 -0.1518  0.4482
  245DG     C18 5630   1.310   3.514   4.932  0.4669  0.0391 -0.2096
  245DG     O19 5631   1.353   3.387   4.986 -0.0254  0.2099 -0.4720
  245DG     H20 5632   1.159   3.300   5.022 -0.8961  3.4341 -3.1688
  245DG     H21 5633   1.279   3.215   5.087  0.2791 -3.4141 -0.2770
  245DG     H22 5634   1.274   3.585   5.006  0.7092 -2.7512  0.9092
  245DG     H23 5635   1.223   3.499   4.865 -0.5064  0.6682  1.0132
  246DG      C1 5636   1.608   1.384   0.014 -0.0695  0.9294  0.1096
  246DG      C2 5637   2.129   1.641   0.167  0.2904  0.2872  1.0404
  246DG      H3 5638   1.636   1.291  -0.024  0.7054 -0.1476  0.9842
  246DG      H4 5639   1.608   1.464  -0.063 -1.6055  2.4161 -1.1569
  246DG      H5 5640   1.507   1.359   0.055 -2.5117 -2.5095  1.2595
  246DG      H6 5641   2.090   1.706   0.091  2.2570 -0.4782 -1.4163
  246DG      H7 5642   2.142   1.699   0.262 -0.1091 -0.9296 -2.9115
  246DG      H8 5643   2.222   1.601   0.134  0.3582  0.9082  0.3572
  246DG      O9 5644   1.684   1.413   0.130  0.3118 -0.4214 -0.5908
  246DG     O10 5645   2.038   1.533   0.193 -0.2513  0.1954  0.3423
  246DG     C11 5646   1.663   1.331   0.238 -0.3318  0.5988  0.3402
  246DG     C12 5647   2.070   1.474   0.318 -0.0855  0.2503  0.0942
  246DG     H13 5648   1.722   1.247   0.220  1.2776 -0.3369 -0.1576
  246DG     H14 5649   1.560   1.302   0.256  1.3537  0.0063 -3.7346
  246DG     H15 5650   2.069   1.543   0.401 -0.7315  1.0555  0.1032
  246DG     H16 5651   2.158   1.408   0.321 -0.1431 -1.3248  2.5074
  246DG     C17 5652   1.706   1.406   0.364  0.0148 -0.5916  0.8570
  246DG     C18 5653   1.956   1.381   0.355 -0.1580 -0.4258  0.1131
  246DG     O19 5654   1.842   1.467   0.347  0.5365  0.0470  0.2182
  246DG     H20 5655   1.707   1.337   0.451 -0.2580 -1.0026 -0.2703
  246DG     H21 5656   1.633   1.486   0.379  0.1710  0.9665 -0.9876
  246DG     H22 5657   1.945   1.300   0.283 -1.6334  2.6635  0.7331
  246DG     H23 5658   1.975   1.352   0.457  1.2031  3.0448  1.3100
  247DG      C1 5659   3.801   5.301   3.638  0.7106  0.4592  0.4545
  247DG      C2 5660   4.137   5.479   3.060 -0.2948  0.0156 -0.1888
  247DG      H3 5661   3.854   5.385   3.598  0.5178 -0.6651  2.0153
  247DG      H4 5662   3.823   5.285   3.744 -1.3324  0.5171  1.3661
  247DG      H5 5663   3.699   5.323   3.624 -0.5441 -0.5244 -0.3837
  247DG      H6 5664   4.149   5.394   2.985 -0.7459 -1.1585  0.2120
  247DG      H7 5665   4.051   5.538   3.023  0.6048 -3.7247 -0.4734
  247DG      H8 5666   4.221   5.548   3.072  0.2741 -0.0634  1.3886
  247DG      O9 5667   3.838   5.192   3.546 -0.6016  0.2255 -0.4907
  247DG     O10 5668   4.111   5.424   3.192  0.2057 -0.4335  0.1797
  247DG     C11 5669   3.968   5.134   3.578 -0.1242 -0.4638 -0.7597
  247DG     C12 5670   4.131   5.517   3.305 -0.1568 -0.1802 -0.9080
  247DG     H13 5671   3.975   5.040   3.517 -3.0481 -2.2288  0.7855
  247DG     H14 5672   3.989   5.101   3.680  0.9596  0.4811  0.3694
  247DG     H15 5673   4.042   5.571   3.328 -1.7543  1.7664  2.1095
  247DG     H16 5674   4.213   5.584   3.299 -2.0280 -1.8222 -0.8771
  247DG     C17 5675   4.086   5.232   3.549 -0.1208 -0.5592  0.9843
  247DG     C18 5676   4.153   5.432   3.437  0.5875  0.3333 -0.2423
  247DG     O19 5677   4.059   5.325   3.444  0.1402  0.2000 -0.4100
  247DG     H20 5678   4.180   5.183   3.535  2.2600 -1.2310 -2.1432
  247DG     H21 5679   4.102   5.287   3.640  1.7045 -0.8427 -1.2447
  247DG     H22 5680   4.260   5.398   3.438  0.5906  1.9706  2.5432
  247DG     H23 5681   4.133   5.492   3.528  0.5603  0.8711  2.9493
  248DG      C1 5682   3.357   2.125   0.794 -0.2286 -0.3332 -0.0274
  248DG      C2 5683   3.298   2.130   1.441 -0.1199  0.1328 -0.5147
  248DG      H3 5684   3.292   2.040   0.765  1.9938  1.2150 -0.4146
  248DG      H4 5685   3.435   2.069   0.835  0.4608  1.3884 -0.7722
  248DG      H5 5686   3.396   2.171   0.706  0.7672  0.9295  1.4534
  248DG      H6 5687   3.259   2.225   1.479 -2.6512 -2.1520 -0.9827
  248DG      H7 5688   3.278   2.056   1.518 -1.8629  1.0130  2.3088
  248DG      H8 5689   3.401   2.132   1.434 -1.2297  2.4497 -0.6390
  248DG      O9 5690   3.313   2.219   0.893  0.4014 -0.3939 -0.0207
  248DG     O10 5691   3.246   2.097   1.323  0.2949 -0.2780  0.3293
  248DG     C11 5692   3.180   2.257   0.878  0.3664 -1.0912 -0.2877
  248DG     C12 5693   3.103   2.083   1.315 -0.4370 -0.3764 -0.4532
  248DG     H13 5694   3.140   2.282   0.778 -0.8923  0.2451  2.3085
  248DG     H14 5695   3.186   2.349   0.931  0.3201 -1.7333 -0.9514
  248DG     H15 5696   3.059   2.171   1.356 -1.6991  0.8113 -0.5297
  248DG     H16 5697   3.059   1.999   1.378 -1.5522  0.3764 -2.3097
  248DG     C17 5698   3.075   2.170   0.946 -0.0769 -0.0816  0.1623
  248DG     C18 5699   3.066   2.054   1.167 -0.4793 -0.8736 -0.4867
  248DG     O19 5700   3.125   2.160   1.080 -0.5253 -0.2638  0.5336
  248DG     H20 5701   3.086   2.070   0.904 -0.6346  3.6157 -1.3307
  248DG     H21 5702   2.970   2.216   0.940  0.4035  0.7426  0.9150
  248DG     H22 5703   3.101   1.956   1.139 -0.8386 -3.0021 -2.2149
  248DG     H23 5704   2.955   2.063   1.151 -1.4691 -0.4799 -0.0916
  249DG      C1 5705   2.637   3.592   1.481 -0.1240  0.4210  0.2563
  249DG      C2 5706   1.924   3.814   1.735  0.4630  0.2393  0.7704
  249DG      H3 5707   2.589   3.503   1.441 -1.7638 -0.7465  0.3651
  249DG      H4 5708   2.674   3.561   1.586  0.1426 -0.3136  3.2002
  249DG      H5 5709   2.724   3.614   1.416  0.6064  1.4065  1.3287
  249DG      H6 5710   1.889   3.842   1.634 -0.6436  2.7058  1.4047
  249DG      H7 5711   1.844   3.758   1.789 -2.7386 -2.1570 -2.6252
  249DG      H8 5712   1.934   3.908   1.789  0.1735  2.1228 -2.0760
  249DG      O9 5713   2.542   3.695   1.475  0.0996  0.5218  0.1043
  249DG     O10 5714   2.049   3.741   1.723  0.1325 -0.3047 -0.4947
  249DG     C11 5715   2.586   3.817   1.535  0.2522  0.4961  0.1777
  249DG     C12 5716   2.139   3.820   1.646  0.3400  0.2628 -0.0500
  249DG     H13 5717   2.600   3.888   1.454 -1.5254 -1.5593  0.3491
  249DG     H14 5718   2.688   3.813   1.574  0.5940  1.0025  2.3548
  249DG     H15 5719   2.099   3.918   1.625  0.5857 -2.2870  1.3889
  249DG     H16 5720   2.149   3.788   1.550 -0.8083  0.1794  0.5781
  249DG     C17 5721   2.499   3.862   1.647  0.4334  0.4907  0.2306
  249DG     C18 5722   2.273   3.819   1.706 -0.2616 -0.5395 -0.6170
  249DG     O19 5723   2.363   3.861   1.604  0.0710 -0.1099 -0.1220
  249DG     H20 5724   2.519   3.958   1.696 -1.4416 -2.1714  1.9505
  249DG     H21 5725   2.512   3.789   1.726  0.6993  0.5776 -0.3614
  249DG     H22 5726   2.273   3.878   1.795 -1.4437 -1.9329  0.1322
  249DG     H23 5727   2.302   3.722   1.735  0.8581 -0.2566 -0.8668
  250DG      C1 5728   4.045   2.778   1.263  0.1004  0.5502 -0.2885
  250DG      C2 5729   3.687   3.253   1.743  0.1270 -0.6223 -0.3790
  250DG      H3 5730   4.040   2.818   1.167  1.1118 -0.4835  1.3676
  250DG      H4 5731   3.972   2.691   1.265 -0.4714 -2.5078  1.2331
  250DG      H5 5732   4.136   2.728   1.291  1.9963  1.6723  0.0633
  250DG      H6 5733   3.712   3.292   1.838  1.0354 -0.8045 -0.3121
  250DG      H7 5734   3.628   3.324   1.683 -1.8863 -2.0102  1.1929
  250DG      H8 5735   3.635   3.152   1.745  1.1642  0.6785  0.9268
  250DG      O9 5736   4.006   2.857   1.372 -0.1898 -0.3038  0.7678
  250DG     O10 5737   3.805   3.226   1.671 -0.3342  0.4569  0.2192
  250DG     C11 5738   4.007   2.995   1.339 -0.0780 -0.4907 -0.0487
  250DG     C12 5739   3.874   3.338   1.618  0.7224  0.6942  0.0401
  250DG     H13 5740   3.926   3.034   1.283 -0.4804  2.0986 -0.5926
  250DG     H14 5741   4.096   3.030   1.293 -2.7828  0.0288  0.5157
  250DG     H15 5742   3.888   3.404   1.701 -3.0997 -2.0467 -0.0524
  250DG     H16 5743   3.817   3.393   1.539  0.2290 -1.7166  0.1845
  250DG     C17 5744   3.984   3.077   1.474  0.0999 -0.5614  0.3698
  250DG     C18 5745   4.013   3.293   1.577  0.7724 -0.4572 -0.1181
  250DG     O19 5746   4.014   3.213   1.460 -0.4376  0.2800 -0.3008
  250DG     H20 5747   4.055   3.036   1.545 -0.8899 -0.4640 -1.4013
  250DG     H21 5748   3.885   3.061   1.514 -0.9696  1.4258  2.8495
  250DG     H22 5749   4.078   3.387   1.553 -1.7466  0.2554  2.3641
  250DG     H23 5750   4.048   3.240   1.658 -0.7901 -1.6105 -0.6155
  251DG      C1 5751   2.502   3.629   2.053  0.4180 -0.7080  0.1292
  251DG      C2 5752   1.652   3.585   2.263 -0.7615  0.9101  0.3616
  251DG      H3 5753   2.514   3.742   2.064  1.3549  0.4277 -0.5578
  251DG      H4 5754   2.567   3.604   1.972 -0.0824 -1.8627  0.8118
  251DG      H5 5755   2.547   3.581   2.146  2.5227 -1.4150 -1.6540
  251DG      H6 5756   1.598   3.540   2.177  0.1919 -0.6686 -1.1056
  251DG      H7 5757   1.647   3.517   2.354 -1.5331  1.4339  0.2422
  251DG      H8 5758   1.611   3.680   2.305 -0.9181  0.4094  1.1279
  251DG      O9 5759   2.373   3.585   2.005 -0.0844 -0.7663  0.4617
  251DG     O10 5760   1.785   3.587   2.232 -0.2030  0.1666 -0.0412
  251DG     C11 5761   2.274   3.604   2.103  0.5329  0.3398 -0.0756
  251DG     C12 5762   1.830   3.460   2.196  0.9499  0.5592  0.2949
  251DG     H13 5763   2.264   3.704   2.144 -0.2797 -0.0170 -0.3171
  251DG     H14 5764   2.285   3.531   2.182 -1.6314  0.7457 -1.4862
  251DG     H15 5765   1.752   3.395   2.166  1.8006 -0.2240 -1.7843
  251DG     H16 5766   1.862   3.407   2.284  0.5566 -1.1222 -1.8026
  251DG     C17 5767   2.145   3.555   2.040 -0.0036 -0.5476  0.7203
  251DG     C18 5768   1.932   3.455   2.088 -0.2532 -0.0628 -0.1254
  251DG     O19 5769   2.047   3.527   2.137 -0.0083 -0.5025  0.0616
  251DG     H20 5770   2.173   3.472   1.976 -1.7934 -0.7227  1.2135
  251DG     H21 5771   2.110   3.627   1.969  1.4228 -1.7696 -2.4516
  251DG     H22 5772   1.959   3.347   2.060  2.0050 -1.6546 -1.2453
  251DG     H23 5773   1.887   3.516   2.005  1.0268  1.1739  0.5501
  252DG      C1 5774   3.666   4.158   2.115  0.4696  0.4889  1.0410
  252DG      C2 5775   4.061   3.680   1.800 -0.5540  0.0726  0.3199
  252DG      H3 5776   3.575   4.179   2.167  3.2019  1.3363 -4.0585
  252DG      H4 5777   3.660   4.198   2.015 -3.4411 -1.3488 -1.0448
  252DG      H5 5778   3.753   4.195   2.163 -2.8684 -1.0732  0.4621
  252DG      H6 5779   4.118   3.758   1.847  3.0190 -0.6761 -0.6165
  252DG      H7 5780   4.120   3.590   1.783  1.8277 -1.8134  0.4432
  252DG      H8 5781   4.046   3.705   1.694  3.3385 -1.5665 -0.6569
  252DG      O9 5782   3.689   4.019   2.096 -0.0616  0.4511  0.2359
  252DG     O10 5783   3.941   3.655   1.871 -0.1589  0.5130  0.3989
  252DG     C11 5784   3.709   3.950   2.223  0.1068  0.3340  0.4560
  252DG     C12 5785   3.957   3.605   2.004  0.3000 -0.6980 -0.0892
  252DG     H13 5786   3.615   3.964   2.280  1.9221  1.0223 -1.5516
  252DG     H14 5787   3.795   3.993   2.271  0.6460  0.1531 -1.0892
  252DG     H15 5788   4.048   3.645   2.053  0.9817  0.5528 -0.2274
  252DG     H16 5789   3.971   3.498   1.997  3.5793 -0.4723  0.7654
  252DG     C17 5790   3.742   3.802   2.224 -0.1565 -0.0726 -0.6202
  252DG     C18 5791   3.835   3.634   2.100 -0.4063  0.0458 -0.3653
  252DG     O19 5792   3.832   3.771   2.118  0.2056 -0.3563 -0.2301
  252DG     H20 5793   3.654   3.749   2.198  2.0252 -0.3979  1.0309
  252DG     H21 5794   3.761   3.769   2.322 -1.7660 -1.3703 -2.8761
  252DG     H22 5795   3.749   3.592   2.059  0.9793  0.8840  0.5831
  252DG     H23 5796   3.860   3.585   2.192 -1.6195 -0.7721 -0.9975
  253DG      C1 5797   5.079   5.371   5.501  0.6301 -0.1635 -0.0223
  253DG      C2 5798   4.959   4.566   5.862  0.5756  0.1901 -1.2052
  253DG      H3 5799   5.172   5.352   5.552  1.4330  0.3664 -0.3060
  253DG      H4 5800   5.020   5.454   5.551  0.6384 -2.6795  1.9311
  253DG      H5 5801   5.084   5.383   5.392  0.7162 -1.2645  0.4773
  253DG      H6 5802   5.005   4.530   5.768  0.1074 -0.5636  1.2447
  253DG      H7 5803   5.039   4.582   5.926 -1.3755 -0.3014 -4.3663
  253DG      H8 5804   4.892   4.487   5.899 -0.2680 -0.4714 -1.8358
  253DG      O9 5805   4.999   5.256   5.527  0.2035  0.8552 -0.2610
  253DG     O10 5806   4.892   4.689   5.841 -0.3853 -0.2973  0.4684
  253DG     C11 5807   5.063   5.135   5.491 -0.5938  0.6388  0.9394
  253DG     C12 5808   4.969   4.797   5.803 -0.6555 -0.0165 -0.0949
  253DG     H13 5809   5.166   5.135   5.530  1.0434 -2.3034 -0.5511
  253DG     H14 5810   5.065   5.122   5.387 -1.4361  0.2291  1.8019
  253DG     H15 5811   5.041   4.759   5.733  2.3366 -0.3631  0.6817
  253DG     H16 5812   5.021   4.814   5.900  0.1607 -0.7344  0.9882
  253DG     C17 5813   4.987   5.008   5.536 -0.1908 -0.0150  0.2025
  253DG     C18 5814   4.882   4.905   5.731 -0.3916  0.1322 -0.7749
  253DG     O19 5815   4.978   5.006   5.682 -0.6558  0.0414 -0.2745
  253DG     H20 5816   5.036   4.914   5.507 -1.7338  1.7252  1.4524
  253DG     H21 5817   4.881   5.014   5.501 -0.4683  2.1428 -1.9827
  253DG     H22 5818   4.832   4.856   5.653  0.7367  0.4342  3.0486
  253DG     H23 5819   4.808   4.956   5.794 -1.5658 -0.5508  0.4796
  254DG      C1 5820   4.417   3.599   1.908  1.3951 -0.2964 -0.0359
  254DG      C2 5821   4.360   3.582   2.746  0.2094 -0.2508  0.4421
  254DG      H3 5822   4.501   3.545   1.946 -2.8030  1.6028  1.2115
  254DG      H4 5823   4.441   3.649   1.812  0.8650  1.4048  1.1373
  254DG      H5 5824   4.338   3.525   1.896 -1.3072 -1.0917 -1.2928
  254DG      H6 5825   4.328   3.641   2.834 -3.1916  0.9261 -0.4892
  254DG      H7 5826   4.272   3.520   2.728  1.7035  3.0502  2.4613
  254DG      H8 5827   4.458   3.534   2.748 -1.4139 -0.4807 -3.6554
  254DG      O9 5828   4.389   3.698   2.009  0.2165 -0.2531  0.6224
  254DG     O10 5829   4.373   3.673   2.646 -0.0754 -0.4897 -0.2814
  254DG     C11 5830   4.392   3.650   2.140  0.1245 -0.0831  0.1189
  254DG     C12 5831   4.252   3.745   2.611 -0.3926 -0.0864  0.2310
  254DG     H13 5832   4.493   3.610   2.153  0.3857 -0.1619  0.8090
  254DG     H14 5833   4.322   3.564   2.144  2.6414 -0.3619  1.0165
  254DG     H15 5834   4.231   3.830   2.681  1.4352  1.4759 -1.7339
  254DG     H16 5835   4.154   3.681   2.616 -1.9215  1.9829  1.1798
  254DG     C17 5836   4.346   3.756   2.241 -0.0521  0.0400 -0.1317
  254DG     C18 5837   4.272   3.800   2.461 -0.1575  0.0762 -0.2303
  254DG     O19 5838   4.315   3.704   2.368  0.2271 -0.1468 -0.7933
  254DG     H20 5839   4.265   3.801   2.200 -0.2608  0.9384 -1.4797
  254DG     H21 5840   4.424   3.828   2.242 -3.9768 -0.7541 -1.5960
  254DG     H22 5841   4.185   3.853   2.423 -0.3278  0.2536 -0.9093
  254DG     H23 5842   4.351   3.876   2.456  1.3225  1.7834  0.3336
  255DG      C1 5843   2.440   4.080   5.456  0.0686 -0.6458 -0.0843
  255DG      C2 5844   1.934   4.346   5.043 -0.0983 -0.6091 -0.7022
  255DG      H3 5845   2.371   4.073   5.545  0.4174  1.4767  2.3285
  255DG      H4 5846   2.440   4.184   5.441 -1.6968  0.4686  0.9604
  255DG      H5 5847   2.541   4.045   5.490 -0.5213  1.2558  1.1026
  255DG      H6 5848   1.944   4.453   5.042 -0.3285 -2.3529 -0.0658
  255DG      H7 5849   1.861   4.318   4.974  0.6916  1.0934  1.0008
  255DG      H8 5850   1.909   4.327   5.145  0.3204  1.1716 -1.3850
  255DG      O9 5851   2.397   4.021   5.334  0.6724 -0.8184  0.1150
  255DG     O10 5852   2.056   4.291   5.015  0.0405 -0.0529  0.1030
  255DG     C11 5853   2.478   4.055   5.221 -0.5066 -0.2865  0.0153
  255DG     C12 5854   2.054   4.151   5.014 -0.5962  0.0576  0.2746
  255DG     H13 5855   2.570   4.005   5.214 -3.2194  1.5688  0.2328
  255DG     H14 5856   2.508   4.159   5.232  0.4609 -4.3877  1.4186
  255DG     H15 5857   1.979   4.123   4.943 -0.1429  2.2702 -1.6857
  255DG     H16 5858   2.031   4.119   5.115 -0.3596 -1.6209 -2.1633
  255DG     C17 5859   2.410   4.034   5.088  0.4565 -0.3704  0.0025
  255DG     C18 5860   2.193   4.085   4.990 -0.3566 -0.3393 -0.3798
  255DG     O19 5861   2.282   4.103   5.097  0.9074  0.6389 -0.1473
  255DG     H20 5862   2.404   3.920   5.072  0.4002 -5.6131  1.4898
  255DG     H21 5863   2.470   4.069   5.003 -3.3892 -0.1603  1.0071
  255DG     H22 5864   2.181   3.978   4.954 -1.4285 -0.3471  0.1030
  255DG     H23 5865   2.237   4.132   4.901 -0.6851 -1.5585 -1.9932
  256DG      C1 5866   0.587   4.995   2.087 -0.1266 -0.1399 -0.4019
  256DG      C2 5867   0.797   4.368   1.902  0.7891  0.2934 -0.0746
  256DG      H3 5868   0.600   4.976   1.982  2.1889 -0.2245 -0.8360
  256DG      H4 5869   0.589   5.102   2.098 -2.6093  0.5128  2.0824
  256DG      H5 5870   0.492   4.952   2.127  2.6452 -1.4579  1.0163
  256DG      H6 5871   0.789   4.417   1.804  1.7638  0.8103 -1.1525
  256DG      H7 5872   0.886   4.303   1.889  0.2313  0.8568  1.7944
  256DG      H8 5873   0.706   4.302   1.926  0.6849 -0.8422 -1.4937
  256DG      O9 5874   0.700   4.933   2.155 -0.5650 -0.3990 -0.3432
  256DG     O10 5875   0.813   4.464   2.006  0.3031 -0.2367  0.0755
  256DG     C11 5876   0.822   4.975   2.108 -0.6595 -0.6077  0.1881
  256DG     C12 5877   0.953   4.514   2.023 -0.7542  0.2747 -0.6564
  256DG     H13 5878   0.854   5.074   2.141  1.6482  0.4479 -0.5604
  256DG     H14 5879   0.828   4.979   2.003 -0.8641 -1.2664  1.8998
  256DG     H15 5880   0.979   4.551   1.924  2.5148  1.0304  0.6110
  256DG     H16 5881   1.022   4.435   2.053 -3.4580 -0.7860  1.5045
  256DG     C17 5882   0.927   4.865   2.151  1.0696 -0.9581 -0.0455
  256DG     C18 5883   0.984   4.635   2.120  0.6123  0.3753 -0.1192
  256DG     O19 5884   0.906   4.744   2.080  0.1478 -0.5407 -0.0762
  256DG     H20 5885   0.930   4.853   2.260 -0.0438 -1.4142 -0.9747
  256DG     H21 5886   1.018   4.909   2.120 -0.5964  0.8792 -0.1580
  256DG     H22 5887   0.951   4.596   2.219 -0.8902  3.6865  0.3000
  256DG     H23 5888   1.086   4.659   2.138 -1.1512 -0.9551  2.5505
  257DG      C1 5889   4.397   4.639   4.119  0.4254  0.2375 -0.4579
  257DG      C2 5890   5.154   4.964   4.105  0.1547  0.0005  1.0003
  257DG      H3 5891   4.410   4.646   4.015 -1.6069  0.3213  4.9585
  257DG      H4 5892   4.293   4.682   4.141  0.0565  1.5493 -0.3307
  257DG      H5 5893   4.392   4.537   4.155 -1.0313  1.8560  0.9029
  257DG      H6 5894   5.184   5.025   4.021 -0.1438  1.2650  1.6959
  257DG      H7 5895   5.230   4.972   4.174 -1.7256 -0.4141 -1.1468
  257DG      H8 5896   5.153   4.864   4.066  0.2720 -0.7430 -1.6861
  257DG      O9 5897   4.496   4.713   4.193 -0.4026  0.6226 -0.0120
  257DG     O10 5898   5.027   5.011   4.156 -0.0898 -0.1760  0.6487
  257DG     C11 5899   4.501   4.852   4.163 -0.1410  0.3042 -0.1663
  257DG     C12 5900   4.979   4.921   4.257  0.3382  0.0226 -0.4183
  257DG     H13 5901   4.400   4.892   4.193 -2.5712 -0.8279  0.5157
  257DG     H14 5902   4.521   4.862   4.054  1.6092  0.9223  1.9867
  257DG     H15 5903   5.042   4.911   4.341  0.6556  0.1580 -1.9420
  257DG     H16 5904   4.987   4.816   4.211  0.0078 -0.7816 -0.8628
  257DG     C17 5905   4.607   4.916   4.258  0.5069  0.8890  0.3344
  257DG     C18 5906   4.834   4.933   4.309  0.0584 -0.9380  0.3761
  257DG     O19 5907   4.739   4.905   4.206 -0.1586  0.1827 -0.0767
  257DG     H20 5908   4.588   4.892   4.364  2.4412  0.3745  0.0799
  257DG     H21 5909   4.589   5.026   4.251 -0.7589  0.5947 -1.3961
  257DG     H22 5910   4.826   4.870   4.389  0.8822  2.3610  1.7159
  257DG     H23 5911   4.818   5.031   4.348  4.8077 -0.3835 -1.2462
  258DG      C1 5912   5.109   4.138   5.403  0.4344  0.4414 -0.0672
  258DG      C2 5913   4.870   4.992   5.128  0.3745 -1.4608 -0.6898
  258DG      H3 5914   5.205   4.155   5.356  2.0917 -0.2894 -2.1310
  258DG      H4 5915   5.047   4.082   5.330  2.2020 -1.0602  1.9787
  258DG      H5 5916   5.119   4.063   5.485  1.8798 -2.6474  0.6887
  258DG      H6 5917   4.953   4.973   5.054 -2.2214 -1.5087  0.9408
  258DG      H7 5918   4.775   4.975   5.081  2.0865  0.3924  1.6780
  258DG      H8 5919   4.879   5.096   5.163  0.4259  0.0782 -1.4745
  258DG      O9 5920   5.062   4.259   5.452 -0.1361 -0.4630 -0.0249
  258DG     O10 5921   4.879   4.899   5.240  0.1810 -0.3011  0.6442
  258DG     C11 5922   4.988   4.328   5.352  0.1031  0.4176 -0.2455
  258DG     C12 5923   4.864   4.760   5.207  0.3386  0.3801  0.3010
  258DG     H13 5924   4.886   4.304   5.340  2.1097  0.2490 -0.3578
  258DG     H14 5925   5.033   4.323   5.258  0.0378  2.8108 -0.5214
  258DG     H15 5926   4.929   4.720   5.128 -2.9474  1.3225 -2.8038
  258DG     H16 5927   4.755   4.747   5.188  0.7089  0.5253  0.4735
  258DG     C17 5928   4.990   4.481   5.394  0.3523  0.5720 -0.2354
  258DG     C18 5929   4.919   4.699   5.329 -0.6360 -0.4021  0.6937
  258DG     O19 5930   4.912   4.561   5.306  0.2055  0.1535  0.5407
  258DG     H20 5931   5.096   4.521   5.386  3.0017  0.0201  2.4463
  258DG     H21 5932   4.950   4.495   5.496 -1.1474  1.1442  0.5937
  258DG     H22 5933   5.014   4.741   5.361  1.1286  2.0953  2.1466
  258DG     H23 5934   4.844   4.717   5.411 -1.0659  4.4757 -0.4317
  259DG      C1 5935   0.270   1.716   2.981  0.3681  0.7994 -0.3700
  259DG      C2 5936   0.548   1.459   3.560  0.6946  0.3741 -0.3858
  259DG      H3 5937   0.324   1.684   2.891 -1.0610  0.0630 -1.4244
  259DG      H4 5938   0.322   1.805   3.018  1.4178 -0.1259 -1.8427
  259DG      H5 5939   0.169   1.749   2.967  3.0472 -2.8346  2.1501
  259DG      H6 5940   0.583   1.387   3.634  1.9404 -1.2986  2.3822
  259DG      H7 5941   0.639   1.481   3.494  0.9005  0.0629  0.8534
  259DG      H8 5942   0.520   1.546   3.610  1.9421 -0.0194 -1.4042
  259DG      O9 5943   0.279   1.617   3.093  0.2478 -0.4360  0.4672
  259DG     O10 5944   0.443   1.414   3.482 -0.1692  0.1517 -0.3293
  259DG     C11 5945   0.227   1.492   3.043 -0.8135  0.7452 -0.0604
  259DG     C12 5946   0.487   1.295   3.406 -0.0413  0.0344 -0.7377
  259DG     H13 5947   0.292   1.454   2.956 -0.5393 -1.1663 -2.7840
  259DG     H14 5948   0.128   1.499   2.994 -4.2911  2.1747  2.3847
  259DG     H15 5949   0.513   1.208   3.470  0.4034  0.0339  0.5969
  259DG     H16 5950   0.570   1.329   3.355  0.6368 -3.2083  1.3110
  259DG     C17 5951   0.228   1.380   3.149  0.5645  0.2676  0.1620
  259DG     C18 5952   0.368   1.263   3.308  0.5706 -0.2937  0.1948
  259DG     O19 5953   0.351   1.372   3.211  0.4845 -0.3094  0.1840
  259DG     H20 5954   0.204   1.289   3.095  2.7052  0.5704 -0.9515
  259DG     H21 5955   0.157   1.387   3.234  0.2738 -0.1464  2.0950
  259DG     H22 5956   0.380   1.170   3.256  1.9324  0.9897 -0.0935
  259DG     H23 5957   0.276   1.244   3.359 -0.5074 -1.0573 -1.3484
  260DG      C1 5958   4.311   1.704   3.027 -0.1231  0.0166 -0.5404
  260DG      C2 5959   3.962   1.120   2.835  0.1778  0.6991  0.2327
  260DG      H3 5960   4.327   1.677   3.131  1.5967  0.3823 -2.0324
  260DG      H4 5961   4.297   1.810   3.026 -2.7544 -1.9805  0.5197
  260DG      H5 5962   4.396   1.677   2.973  1.3480  1.9479 -0.7453
  260DG      H6 5963   3.865   1.065   2.829 -0.1264  0.0835 -1.6620
  260DG      H7 5964   4.027   1.075   2.762 -2.2828 -0.0714  0.5400
  260DG      H8 5965   3.995   1.098   2.933 -0.2633 -3.2292 -0.5057
  260DG      O9 5966   4.194   1.644   2.961  1.2995 -0.1964 -0.7749
  260DG     O10 5967   3.961   1.258   2.820  0.1305  0.6012 -0.9039
  260DG     C11 5968   4.195   1.672   2.819  0.5948 -0.7719  0.9926
  260DG     C12 5969   3.911   1.299   2.699  0.3806 -0.5792  0.5900
  260DG     H13 5970   4.284   1.638   2.769 -2.6324  0.3795 -1.6801
  260DG     H14 5971   4.181   1.780   2.812  0.3252  2.2227 -1.3354
  260DG     H15 5972   3.809   1.264   2.677  3.1579  0.3410 -1.3165
  260DG     H16 5973   3.973   1.259   2.622 -0.2301 -1.6066  2.9628
  260DG     C17 5974   4.065   1.629   2.756  0.1389 -0.5163 -0.2420
  260DG     C18 5975   3.921   1.448   2.707 -0.3142  0.0622 -0.3264
  260DG     O19 5976   4.051   1.482   2.763  0.1919 -0.1177 -0.4447
  260DG     H20 5977   4.068   1.667   2.655  0.6699 -1.5600 -0.2621
  260DG     H21 5978   3.990   1.688   2.804  0.4609 -0.2969  1.8047
  260DG     H22 5979   3.910   1.503   2.606 -0.7108  4.9239 -0.8970
  260DG     H23 5980   3.837   1.483   2.768 -1.0761  1.3757 -0.3518
  261DG      C1 5981   2.219   0.415   2.800 -0.6725  0.7439  0.0473
  261DG      C2 5982   2.658  -0.120   2.773  0.1832  0.5091 -0.2712
  261DG      H3 5983   2.196   0.464   2.708  2.0845 -0.3364  1.2616
  261DG      H4 5984   2.316   0.457   2.825  1.5312 -2.2854 -1.5544
  261DG      H5 5985   2.148   0.452   2.877  0.1620 -1.5666  1.5562
  261DG      H6 5986   2.679  -0.190   2.687  0.1666  0.3117  2.2013
  261DG      H7 5987   2.740  -0.037   2.769  2.8546  0.4267 -2.5522
  261DG      H8 5988   2.677  -0.182   2.866 -0.9946 -0.2669  0.4865
  261DG      O9 5989   2.229   0.270   2.789  0.0689  0.0803 -0.2145
  261DG     O10 5990   2.529  -0.062   2.762 -0.0217  0.2766  0.1134
  261DG     C11 5991   2.116   0.195   2.755  0.8095  0.5060  0.4452
  261DG     C12 5992   2.434  -0.156   2.751  0.1515  0.2857  0.1279
  261DG     H13 5993   2.116   0.199   2.639  1.4333  2.1986 -0.7735
  261DG     H14 5994   2.023   0.238   2.798 -1.2135  0.5502  0.6551
  261DG     H15 5995   2.460  -0.245   2.819  2.6982  1.1767  0.7245
  261DG     H16 5996   2.428  -0.201   2.648 -0.7242 -0.6344 -0.6015
  261DG     C17 5997   2.129   0.053   2.802 -0.7079  0.0336  0.1229
  261DG     C18 5998   2.294  -0.115   2.802  0.1090  0.2195  0.1313
  261DG     O19 5999   2.251   0.006   2.748  0.4640 -0.0301  0.4693
  261DG     H20 6000   2.039  -0.008   2.796  2.0320 -2.1762  0.0112
  261DG     H21 6001   2.127   0.061   2.909 -0.4832  1.9559  4.3658
  261DG     H22 6002   2.234  -0.201   2.767  1.8137 -1.3837  1.1259
  261DG     H23 6003   2.297  -0.098   2.906 -1.4006 -1.6749 -0.9278
  262DG      C1 6004   1.709   3.316   0.598  0.8573  0.4977 -0.1828
  262DG      C2 6005   2.113   3.908   0.375 -0.3955  0.4213  0.3755
  262DG      H3 6006   1.668   3.324   0.696 -2.0017  1.6970  0.6127
  262DG      H4 6007   1.818   3.289   0.593  2.1746  0.9608 -0.1971
  262DG      H5 6008   1.645   3.236   0.559 -1.4824 -1.1095 -0.6497
  262DG      H6 6009   2.122   3.970   0.463 -1.6496 -1.8824 -0.4353
  262DG      H7 6010   2.205   3.849   0.377 -1.3067 -0.5897  1.4151
  262DG      H8 6011   2.112   3.973   0.293 -0.5549  0.8029  0.2337
  262DG      O9 6012   1.682   3.436   0.527  0.6199  0.3057 -0.0883
  262DG     O10 6013   1.996   3.823   0.373 -0.1987 -0.0845 -0.0691
  262DG     C11 6014   1.711   3.426   0.391 -0.4912 -0.0313 -0.4470
  262DG     C12 6015   1.873   3.880   0.409  0.3936  0.5150 -0.4942
  262DG     H13 6016   1.644   3.356   0.330 -1.9937 -2.7322 -0.8085
  262DG     H14 6017   1.809   3.376   0.378  1.5336  1.5911 -0.9583
  262DG     H15 6018   1.870   3.976   0.362 -0.8902 -0.5614 -1.4613
  262DG     H16 6019   1.870   3.899   0.523 -0.2291  2.0057  2.0414
  262DG     C17 6020   1.711   3.568   0.326 -0.3018 -0.0085  0.2441
  262DG     C18 6021   1.761   3.790   0.350 -0.5802 -1.1172  0.2451
  262DG     O19 6022   1.784   3.661   0.406 -0.2446 -0.7412  0.1429
  262DG     H20 6023   1.610   3.610   0.309  1.9245 -2.5502 -0.5962
  262DG     H21 6024   1.752   3.564   0.228 -0.1028  0.0121  0.2413
  262DG     H22 6025   1.663   3.822   0.372  2.8778 -1.5762 -2.9227
  262DG     H23 6026   1.776   3.788   0.238  0.7175 -2.1615 -0.1043
  263DG      C1 6027   3.697   0.781   2.988 -0.1438  0.5288 -0.4667
  263DG      C2 6028   4.178   1.018   3.651  0.0765  0.0701  0.3082
  263DG      H3 6029   3.628   0.856   3.002 -0.0984  1.5234  1.7471
  263DG      H4 6030   3.661   0.719   3.066 -0.1492  1.0896  0.4805
  263DG      H5 6031   3.687   0.737   2.886  3.2584  0.6959 -3.1219
  263DG      H6 6032   4.246   1.106   3.660 -1.4556  1.1711 -0.7285
  263DG      H7 6033   4.090   1.054   3.701  1.5248  1.3643 -1.5067
  263DG      H8 6034   4.211   0.926   3.699 -0.9163 -0.5353 -2.4361
  263DG      O9 6035   3.836   0.820   2.999  0.1934  0.6350 -0.2946
  263DG     O10 6036   4.145   1.009   3.515  0.3215  0.1836 -0.0788
  263DG     C11 6037   3.870   0.859   3.131 -0.3717  0.1675 -0.2086
  263DG     C12 6038   4.250   0.936   3.440 -0.5040  0.7089 -0.2626
  263DG     H13 6039   3.837   0.785   3.204 -4.4953  0.4106  1.5581
  263DG     H14 6040   3.819   0.953   3.154  0.4426  0.0081  0.4798
  263DG     H15 6041   4.257   0.834   3.475  2.1867 -0.8004 -0.3086
  263DG     H16 6042   4.354   0.971   3.456  0.6058 -1.7839  0.6855
  263DG     C17 6043   4.022   0.879   3.142 -0.1109 -0.4962 -0.0283
  263DG     C18 6044   4.205   0.926   3.289  0.1638 -0.3486  0.2232
  263DG     O19 6045   4.067   0.896   3.282  0.4370 -0.1200  0.6417
  263DG     H20 6046   4.075   0.948   3.081 -1.8869  1.1405  1.6236
  263DG     H21 6047   4.047   0.784   3.101 -3.2979  0.1084  2.0050
  263DG     H22 6048   4.223   1.025   3.244 -0.2920 -0.6996 -2.2241
  263DG     H23 6049   4.259   0.850   3.244  0.7180 -0.2953  1.6611
  264DG      C1 6050   4.508   0.561   2.314  0.0182 -0.1181  0.2712
  264DG      C2 6051   4.325   0.803   2.934 -0.5732  0.3142 -0.5951
  264DG      H3 6052   4.479   0.463   2.355 -4.0577  0.6869 -0.6418
  264DG      H4 6053   4.616   0.561   2.317 -0.2139 -0.7695  0.9539
  264DG      H5 6054   4.477   0.547   2.213  0.1225  0.5757  1.1718
  264DG      H6 6055   4.423   0.813   2.973  1.9305  4.3032 -2.2293
  264DG      H7 6056   4.270   0.861   3.005  1.8661 -1.0680 -0.3803
  264DG      H8 6057   4.303   0.698   2.949  0.1949  2.1518  1.2383
  264DG      O9 6058   4.446   0.672   2.379  0.1149  0.3478 -0.6106
  264DG     O10 6059   4.324   0.836   2.797  0.2868 -0.7004  0.0484
  264DG     C11 6060   4.479   0.796   2.316 -0.4888  0.0111 -0.5591
  264DG     C12 6061   4.374   0.965   2.765  0.6041  0.0376  0.4223
  264DG     H13 6062   4.448   0.801   2.208  0.2245  0.4048 -0.8835
  264DG     H14 6063   4.583   0.808   2.315 -0.9065 -2.7829 -0.5643
  264DG     H15 6064   4.479   0.981   2.789  0.9160 -0.5058  2.5004
  264DG     H16 6065   4.306   1.040   2.815  1.1564  1.2469 -1.1900
  264DG     C17 6066   4.413   0.917   2.392  0.0576  1.1405  0.6957
  264DG     C18 6067   4.347   0.986   2.612 -0.3451 -0.7662 -0.1582
  264DG     O19 6068   4.425   0.897   2.536  0.7538  0.6217 -0.0584
  264DG     H20 6069   4.312   0.927   2.351 -1.8611  2.4115  1.6177
  264DG     H21 6070   4.460   1.005   2.361 -0.6776 -1.1877  1.3802
  264DG     H22 6071   4.239   0.976   2.588  0.8335 -0.5016  1.7290
  264DG     H23 6072   4.382   1.086   2.592  0.3189  2.6150 -0.0668
  265DG      C1 6073   3.447   1.412   5.384  0.4908 -0.4142  0.2806
  265DG      C2 6074   2.753   1.494   5.431 -0.1146  0.1805 -0.0267
  265DG      H3 6075   3.419   1.317   5.433  1.6095 -3.1641 -1.3534
  265DG      H4 6076   3.505   1.492   5.436 -1.6682 -1.5183  0.8477
  265DG      H5 6077   3.520   1.380   5.303  0.5334  0.1829  0.6043
  265DG      H6 6078   2.747   1.528   5.329  0.7580 -2.7855 -0.7154
  265DG      H7 6079   2.661   1.442   5.448  0.9098 -2.1602  0.9731
  265DG      H8 6080   2.759   1.575   5.499 -0.1277 -1.1068 -0.7890
  265DG      O9 6081   3.329   1.473   5.327  0.0628 -0.0997 -0.1643
  265DG     O10 6082   2.861   1.407   5.447 -0.2342  0.2997  0.2154
  265DG     C11 6083   3.288   1.401   5.208 -0.6219  0.3499  0.0830
  265DG     C12 6084   2.847   1.293   5.373 -0.9799  0.5652 -0.0183
  265DG     H13 6085   3.372   1.358   5.153  0.2750 -0.8647 -0.2650
  265DG     H14 6086   3.242   1.480   5.134  0.6499 -0.1370 -2.1596
  265DG     H15 6087   2.813   1.318   5.265 -0.7922 -0.7213 -0.2057
  265DG     H16 6088   2.775   1.236   5.421 -0.1495 -2.0810 -0.7265
  265DG     C17 6089   3.186   1.292   5.228  0.4075  0.4511 -0.4303
  265DG     C18 6090   2.986   1.225   5.358 -1.2218 -0.3821 -0.4844
  265DG     O19 6091   3.081   1.327   5.320  0.4952 -0.2637 -0.2985
  265DG     H20 6092   3.226   1.199   5.272 -0.9659  0.0821  0.5452
  265DG     H21 6093   3.146   1.261   5.135 -0.7484 -0.1885  0.4814
  265DG     H22 6094   3.017   1.178   5.454  0.1161 -1.7324  4.8646
  265DG     H23 6095   2.982   1.136   5.300  0.4599  1.5814 -1.4421
  266DG      C1 6096   2.391   3.314   4.841 -0.7828  0.6357  0.2227
  266DG      C2 6097   2.627   3.940   4.761 -0.0942  0.1981 -0.0950
  266DG      H3 6098   2.404   3.206   4.843 -2.6819  0.2661  1.6908
  266DG      H4 6099   2.342   3.334   4.748 -0.4142  0.9635  2.0970
  266DG      H5 6100   2.325   3.343   4.925 -1.8508 -0.9651  0.6884
  266DG      H6 6101   2.675   3.909   4.668  0.1029  0.2355  1.0902
  266DG      H7 6102   2.522   3.973   4.744  1.0888 -0.0804  1.0365
  266DG      H8 6103   2.673   4.022   4.813  0.3539  0.0013  0.3878
  266DG      O9 6104   2.505   3.396   4.841  0.4196  0.2690 -0.3087
  266DG     O10 6105   2.637   3.837   4.860  0.3385  0.1492 -0.1866
  266DG     C11 6106   2.574   3.394   4.963 -0.7255  0.6870 -0.2740
  266DG     C12 6107   2.768   3.804   4.919  0.2279  0.3450 -0.8009
  266DG     H13 6108   2.591   3.290   4.994  1.4655  0.1750 -0.1972
  266DG     H14 6109   2.520   3.436   5.044  0.1371  1.3317 -1.4696
  266DG     H15 6110   2.759   3.812   5.025  0.5507  0.3684 -1.3833
  266DG     H16 6111   2.839   3.885   4.886  2.8869 -0.5226  0.2248
  266DG     C17 6112   2.720   3.450   4.958 -0.4093 -0.3453 -0.5664
  266DG     C18 6113   2.812   3.659   4.896  0.6141 -0.9961  0.3066
  266DG     O19 6114   2.702   3.593   4.943 -0.1324 -0.0310  0.0218
  266DG     H20 6115   2.778   3.391   4.892  2.2113 -1.2502 -1.5576
  266DG     H21 6116   2.767   3.424   5.056 -0.8525 -4.3690 -1.0755
  266DG     H22 6117   2.839   3.642   4.791 -0.4986  0.5762  1.2838
  266DG     H23 6118   2.900   3.645   4.941  0.5039  3.9291 -1.9466
  267DG      C1 6119   2.037   3.655   0.656  0.2526  0.1380 -0.2134
  267DG      C2 6120   2.059   3.931   1.245  0.5869 -0.3765  0.0190
  267DG      H3 6121   2.016   3.566   0.590 -1.3212  0.1330  0.7979
  267DG      H4 6122   2.147   3.674   0.660  0.2570  1.7983  2.6871
  267DG      H5 6123   1.968   3.738   0.624 -1.7057 -1.0539  0.0498
  267DG      H6 6124   2.162   3.932   1.205 -0.2916  1.6697 -3.0839
  267DG      H7 6125   2.000   4.011   1.213  0.1735 -1.3079 -0.0384
  267DG      H8 6126   2.062   3.916   1.351 -4.0249 -1.9417 -2.2924
  267DG      O9 6127   2.001   3.629   0.793 -0.3208  0.7455 -0.1233
  267DG     O10 6128   2.013   3.806   1.196 -0.4047  0.3443 -0.4042
  267DG     C11 6129   1.884   3.553   0.816  0.3212  0.3851 -0.3346
  267DG     C12 6130   1.880   3.770   1.242 -1.0119  0.2084  0.9442
  267DG     H13 6131   1.907   3.460   0.762  1.3188  0.2904  1.6311
  267DG     H14 6132   1.791   3.596   0.770  0.6524  0.4766 -0.2403
  267DG     H15 6133   1.803   3.838   1.216 -0.4259 -3.3658  0.6964
  267DG     H16 6134   1.873   3.762   1.346  1.3724  1.7429  0.3827
  267DG     C17 6135   1.868   3.523   0.965 -0.0215  0.1700  0.1357
  267DG     C18 6136   1.851   3.637   1.178 -0.7114  1.2277 -0.2461
  267DG     O19 6137   1.876   3.638   1.035  0.2914  0.4451  0.0135
  267DG     H20 6138   1.947   3.454   1.002  0.4378  1.4029  1.5242
  267DG     H21 6139   1.785   3.460   0.966 -0.1009  2.2674 -0.4594
  267DG     H22 6140   1.931   3.569   1.215 -1.0310 -0.1337  1.3870
  267DG     H23 6141   1.752   3.594   1.205 -1.4342  1.4646 -1.6282
  268DG      C1 6142   5.132   0.254   1.558 -0.2307 -0.0584 -0.1113
  268DG      C2 6143   4.681   0.456   1.122  0.9501 -0.4302  0.0017
  268DG      H3 6144   5.163   0.348   1.595 -0.2624 -0.4966 -1.3454
  268DG      H4 6145   5.206   0.177   1.584  3.2976 -0.3845  0.3878
  268DG      H5 6146   5.046   0.215   1.607  2.7655  1.1129 -1.9481
  268DG      H6 6147   4.713   0.557   1.105  0.3195  2.5666  0.8597
  268DG      H7 6148   4.605   0.422   1.049  0.4710 -1.1102  1.3413
  268DG      H8 6149   4.640   0.460   1.222  1.2675  2.2110  0.1837
  268DG      O9 6150   5.108   0.254   1.420 -0.1129  0.1815  0.3757
  268DG     O10 6151   4.782   0.360   1.117  0.0284  0.1896  0.3648
  268DG     C11 6152   5.216   0.306   1.341 -0.6315 -0.6035 -0.4570
  268DG     C12 6153   4.878   0.385   1.011 -0.0831 -0.1379  0.6482
  268DG     H13 6154   5.295   0.245   1.375 -0.3885  1.3383 -1.3225
  268DG     H14 6155   5.228   0.406   1.380 -3.2794 -1.6046 -0.0750
  268DG     H15 6156   4.909   0.486   1.010 -0.3666  1.4998 -0.8328
  268DG     H16 6157   4.836   0.350   0.910  2.1587 -0.2875 -1.4410
  268DG     C17 6158   5.185   0.307   1.190  0.6002 -0.3903 -0.0980
  268DG     C18 6159   4.998   0.306   1.050  0.9993  0.3756 -0.8144
  268DG     O19 6160   5.053   0.350   1.175  0.0553 -0.1237  0.2401
  268DG     H20 6161   5.201   0.205   1.149 -2.0852  0.7547 -0.2753
  268DG     H21 6162   5.255   0.368   1.133  0.0162 -3.2447 -1.0188
  268DG     H22 6163   4.989   0.199   1.039 -0.2239  1.6204  0.8687
  268DG     H23 6164   5.066   0.334   0.974  0.8232 -0.9343  0.9546
  269DG      C1 6165   0.276   3.967   3.323 -0.0398 -0.7408 -0.1880
  269DG      C2 6166   0.500   4.505   3.634 -0.2046  0.2761  0.2407
  269DG      H3 6167   0.293   3.982   3.431 -0.7349 -0.4077 -1.3157
  269DG      H4 6168   0.340   3.884   3.302 -1.1324 -0.0714 -1.0136
  269DG      H5 6169   0.171   3.940   3.299 -0.0860  0.8081 -1.7395
  269DG      H6 6170   0.540   4.452   3.720  1.0588 -0.9711  0.1277
  269DG      H7 6171   0.565   4.584   3.608  1.4346 -2.0976  1.7128
  269DG      H8 6172   0.404   4.551   3.663  0.0941  1.0984  0.6620
  269DG      O9 6173   0.308   4.080   3.241 -0.6580 -0.3971 -0.2413
  269DG     O10 6174   0.486   4.419   3.520  0.2866  0.2215  0.7394
  269DG     C11 6175   0.198   4.152   3.186  0.1895 -0.3666  0.2387
  269DG     C12 6176   0.391   4.462   3.415 -1.1309  0.1119 -0.2594
  269DG     H13 6177   0.123   4.176   3.264 -2.8229  1.4677 -2.5563
  269DG     H14 6178   0.145   4.090   3.116  0.2932 -0.6462 -0.2522
  269DG     H15 6179   0.432   4.550   3.372 -0.5717 -0.3492  0.9547
  269DG     H16 6180   0.294   4.488   3.459 -2.2766  1.9304 -0.8183
  269DG     C17 6181   0.245   4.288   3.126 -0.5767  0.2641  0.4019
  269DG     C18 6182   0.367   4.363   3.309 -0.0711  0.2310 -0.5462
  269DG     O19 6183   0.257   4.387   3.228  0.0607  0.2087  0.2002
  269DG     H20 6184   0.172   4.327   3.050  0.5634  0.5049  0.3842
  269DG     H21 6185   0.341   4.262   3.073  0.9259 -2.6083 -4.4552
  269DG     H22 6186   0.457   4.352   3.249  0.7199  0.6215 -0.1093
  269DG     H23 6187   0.355   4.270   3.360  2.4062  1.9518 -4.0643
  270DG      C1 6188   2.177   4.386   0.791 -0.3036  0.5341 -0.3389
  270DG      C2 6189   2.406   5.064   0.667 -0.4460 -0.1949  0.0651
  270DG      H3 6190   2.266   4.390   0.859 -0.0335 -1.7544 -0.3789
  270DG      H4 6191   2.140   4.288   0.803 -0.4935  2.5419  0.6222
  270DG      H5 6192   2.105   4.457   0.828  3.2275 -1.1399 -0.2171
  270DG      H6 6193   2.483   5.095   0.597  0.4782 -0.5739  0.2244
  270DG      H7 6194   2.326   5.132   0.666 -0.6628  0.5324 -1.8332
  270DG      H8 6195   2.438   5.067   0.767 -0.8483  0.8260 -2.3824
  270DG      O9 6196   2.203   4.406   0.654 -1.2851 -0.0855  0.0699
  270DG     O10 6197   2.355   4.942   0.633  0.0766 -0.0748 -0.5613
  270DG     C11 6198   2.240   4.544   0.639  0.3527  0.2654  0.2895
  270DG     C12 6199   2.354   4.925   0.488  0.1066  0.2245 -1.0230
  270DG     H13 6200   2.307   4.569   0.716 -0.6985  0.3531 -2.0373
  270DG     H14 6201   2.152   4.619   0.640  1.5720  3.3373  0.8555
  270DG     H15 6202   2.457   4.935   0.468 -3.2746  2.1237  0.8799
  270DG     H16 6203   2.291   5.008   0.444 -1.6740  1.4460  0.9985
  270DG     C17 6204   2.302   4.562   0.500  0.4085 -0.0921 -0.0766
  270DG     C18 6205   2.300   4.793   0.437 -0.4586  0.3064 -0.5250
  270DG     O19 6206   2.381   4.679   0.483  0.3988  0.0444 -0.1765
  270DG     H20 6207   2.217   4.556   0.435  1.7627 -1.7510 -2.1016
  270DG     H21 6208   2.364   4.476   0.467  0.1309  0.1917 -0.0672
  270DG     H22 6209   2.191   4.774   0.465 -2.4066  1.4653 -1.9653
  270DG     H23 6210   2.299   4.801   0.332  0.3867 -1.7977  2.6502
  271DG      C1 6211   4.716   3.862   0.970 -0.4211  0.3537  1.2191
  271DG      C2 6212   4.800   4.372   1.339 -0.4454 -0.2461  0.1886
  271DG      H3 6213   4.634   3.794   0.987 -0.4231 -1.3433  1.5200
  271DG      H4 6214   4.789   3.843   1.047  0.6898 -1.7049  3.2914
  271DG      H5 6215   4.765   3.828   0.875 -0.8448 -1.7141 -0.1165
  271DG      H6 6216   4.731   4.352   1.423  0.2449 -1.8641 -0.7534
  271DG      H7 6217   4.888   4.309   1.349 -3.8869  0.5784  0.5232
  271DG      H8 6218   4.841   4.471   1.345  1.2413  1.1010 -1.1641
  271DG      O9 6219   4.665   4.000   0.981 -0.8515 -0.2203 -0.3579
  271DG     O10 6220   4.733   4.342   1.219  0.3362 -0.0078 -0.1440
  271DG     C11 6221   4.570   4.041   0.893  0.7224  0.5504 -0.1396
  271DG     C12 6222   4.618   4.418   1.185  0.3464 -0.1059  0.8162
  271DG     H13 6223   4.478   3.994   0.933  2.1385 -0.3194  2.5070
  271DG     H14 6224   4.575   4.002   0.793  0.3504 -1.0125  0.0523
  271DG     H15 6225   4.645   4.528   1.203 -0.1631 -1.4345  2.4921
  271DG     H16 6226   4.538   4.404   1.256  1.4004  1.0891  1.0591
  271DG     C17 6227   4.545   4.195   0.901  0.3054 -0.3502 -0.5257
  271DG     C18 6228   4.565   4.374   1.049 -0.3947  0.2725 -0.0922
  271DG     O19 6229   4.584   4.238   1.029  0.0730 -0.1506  0.9097
  271DG     H20 6230   4.442   4.213   0.887  0.9008  2.3570 -0.2524
  271DG     H21 6231   4.602   4.247   0.828  0.4822 -0.5727  2.2362
  271DG     H22 6232   4.455   4.385   1.056 -0.3675 -1.3701  0.6497
  271DG     H23 6233   4.608   4.429   0.962 -0.5526 -2.0902 -0.9038
  272DG      C1 6234   2.125   5.377   5.331  0.1475  0.2014 -0.0339
  272DG      C2 6235   2.449   5.528   4.719  0.5192  0.1218  0.1095
  272DG      H3 6236   2.177   5.287   5.365 -1.2593 -2.3639 -1.8500
  272DG      H4 6237   2.041   5.348   5.262  0.3710  4.9985 -0.9437
  272DG      H5 6238   2.082   5.422   5.420  1.1137 -0.4209  0.2524
  272DG      H6 6239   2.499   5.440   4.696 -4.0448 -2.9764 -0.1587
  272DG      H7 6240   2.344   5.519   4.687  1.5898  1.0698 -0.4114
  272DG      H8 6241   2.491   5.616   4.659 -0.7311  0.6460 -1.1696
  272DG      O9 6242   2.223   5.464   5.263 -0.9446 -0.1568 -0.6404
  272DG     O10 6243   2.430   5.557   4.853 -0.7534 -0.1750 -0.2847
  272DG     C11 6244   2.335   5.481   5.347 -0.8858  0.3411 -0.3135
  272DG     C12 6245   2.552   5.578   4.926  0.7489 -0.4375 -0.6306
  272DG     H13 6246   2.375   5.376   5.373 -0.5078 -0.3562  1.1659
  272DG     H14 6247   2.306   5.522   5.438  2.3265  0.9802  2.0981
  272DG     H15 6248   2.612   5.653   4.871 -0.0603  1.4027 -1.6950
  272DG     H16 6249   2.605   5.482   4.934  1.7998  3.1961  1.7459
  272DG     C17 6250   2.438   5.582   5.280  0.0550  0.3666  0.1298
  272DG     C18 6251   2.528   5.635   5.066  0.1694  0.0004 -0.4058
  272DG     O19 6252   2.448   5.544   5.145  0.2139 -0.0101  0.5364
  272DG     H20 6253   2.536   5.588   5.338 -0.1484  0.9674 -0.2222
  272DG     H21 6254   2.384   5.680   5.281 -3.6655  0.3293 -0.3403
  272DG     H22 6255   2.616   5.662   5.122  1.0261  2.5570 -0.0131
  272DG     H23 6256   2.469   5.730   5.053 -0.4698  1.0932 -0.7262
  273DG      C1 6257   4.839   0.721   1.857  0.7553  0.1745  0.6018
  273DG      C2 6258   4.033   0.875   2.021  0.1644 -0.7233  0.4743
  273DG      H3 6259   4.887   0.818   1.885 -1.3626  1.3257  1.9476
  273DG      H4 6260   4.909   0.656   1.805 -0.4036  2.3830 -2.3020
  273DG      H5 6261   4.822   0.675   1.958  1.0850 -1.3313  3.2640
  273DG      H6 6262   4.000   0.766   2.024 -0.0323 -1.2701  0.4915
  273DG      H7 6263   4.079   0.916   2.110  1.2199  0.1685 -0.1448
  273DG      H8 6264   3.947   0.943   1.994 -0.3594  3.7021  2.2147
  273DG      O9 6265   4.714   0.737   1.787 -0.1204  0.3059 -0.0736
  273DG     O10 6266   4.124   0.862   1.917 -0.3363 -0.2952 -0.6147
  273DG     C11 6267   4.613   0.810   1.852 -0.7492  0.7277  0.0181
  273DG     C12 6268   4.158   0.981   1.849 -0.0485 -0.0350 -0.3043
  273DG     H13 6269   4.641   0.903   1.887 -1.1964 -1.1674 -1.2433
  273DG     H14 6270   4.599   0.753   1.945 -0.6676 -1.1829 -0.6827
  273DG     H15 6271   4.193   1.054   1.915  1.4354  0.6797 -0.8801
  273DG     H16 6272   4.081   1.031   1.787  0.3072  0.6051 -1.0665
  273DG     C17 6273   4.492   0.835   1.761 -0.4045 -0.0084  0.2149
  273DG     C18 6274   4.274   0.932   1.757 -0.2224 -0.6403  0.3697
  273DG     O19 6275   4.381   0.888   1.831  0.0658  0.1819 -0.2616
  273DG     H20 6276   4.470   0.735   1.710 -1.3132 -1.1962 -2.3567
  273DG     H21 6277   4.516   0.908   1.681 -0.9593  0.3668  1.0038
  273DG     H22 6278   4.240   0.858   1.692  0.5857 -0.7621  1.6014
  273DG     H23 6279   4.309   1.016   1.711 -2.0479 -0.5213  1.2426
  274DG      C1 6280   1.260   2.858   0.659  0.3068 -0.1644  0.3176
  274DG      C2 6281   0.582   2.742   0.575 -1.0199  0.1599  1.1033
  274DG      H3 6282   1.355   2.799   0.677  0.0393 -0.3701  1.2724
  274DG      H4 6283   1.279   2.960   0.699  1.2829 -0.2606  2.1293
  274DG      H5 6284   1.244   2.852   0.549 -0.7209 -0.0069  1.3677
  274DG      H6 6285   0.594   2.685   0.485  0.2213 -1.4289  1.1857
  274DG      H7 6286   0.485   2.721   0.615  0.3402  2.2402  2.1328
  274DG      H8 6287   0.596   2.849   0.559  1.2291 -1.8398 -3.5270
  274DG      O9 6288   1.143   2.788   0.712  0.3665  0.5010 -0.5347
  274DG     O10 6289   0.687   2.698   0.655 -0.3680  0.6413  0.0936
  274DG     C11 6290   1.128   2.794   0.854  0.0867  0.3217 -0.8099
  274DG     C12 6291   0.678   2.753   0.787 -0.1142 -0.0860  0.1577
  274DG     H13 6292   1.101   2.897   0.885 -1.9605  2.1730 -1.1130
  274DG     H14 6293   1.220   2.768   0.908 -1.1875 -1.9398 -1.2760
  274DG     H15 6294   0.577   2.725   0.825  3.6003  0.7899 -0.4032
  274DG     H16 6295   0.686   2.864   0.794 -0.0575 -3.5999 -0.5901
  274DG     C17 6296   1.012   2.699   0.902 -0.1626  0.9131  0.5842
  274DG     C18 6297   0.783   2.706   0.886 -1.0669  0.2488  1.1641
  274DG     O19 6298   0.905   2.751   0.832 -0.0157  0.3275  0.2511
  274DG     H20 6299   1.010   2.711   1.008  0.4090  1.4323  0.1959
  274DG     H21 6300   1.031   2.593   0.882 -2.5093  1.1392 -0.0580
  274DG     H22 6301   0.764   2.739   0.987 -2.1779 -1.4251  0.1079
  274DG     H23 6302   0.790   2.598   0.888  2.4722 -0.2791  0.0054
  275DG      C1 6303   4.079   0.480   3.128 -0.9519 -0.0532 -0.2891
  275DG      C2 6304   3.792  -0.166   2.794  0.2640  0.7653  1.3054
  275DG      H3 6305   4.030   0.557   3.188  1.5689 -2.1071  0.6049
  275DG      H4 6306   4.159   0.517   3.075 -1.4188 -2.2256  0.9720
  275DG      H5 6307   4.122   0.412   3.199  0.1650  0.5472  0.9409
  275DG      H6 6308   3.808  -0.258   2.730  0.7366 -1.2515 -1.4677
  275DG      H7 6309   3.878  -0.165   2.861  1.1737 -1.5688 -1.4415
  275DG      H8 6310   3.690  -0.182   2.831 -0.2261  0.9938 -0.8116
  275DG      O9 6311   3.989   0.403   3.052 -0.1049 -0.4956  0.5039
  275DG     O10 6312   3.795  -0.043   2.732  0.0907 -0.3116  0.0382
  275DG     C11 6313   3.937   0.488   2.953 -0.2030  1.0447  1.1976
  275DG     C12 6314   3.758   0.072   2.811 -0.3773  0.2264  0.7122
  275DG     H13 6315   3.998   0.578   2.936 -1.0740  0.0790  0.6453
  275DG     H14 6316   3.848   0.530   2.996  0.9203 -0.0952 -3.1488
  275DG     H15 6317   3.787   0.051   2.915 -1.6557  2.2718 -2.1580
  275DG     H16 6318   3.650   0.073   2.796  0.0551  0.8339 -0.5039
  275DG     C17 6319   3.911   0.412   2.825 -0.3045  0.7025  0.5964
  275DG     C18 6320   3.838   0.194   2.758  0.2219  0.7613  0.2404
  275DG     O19 6321   3.844   0.290   2.862 -0.1721  1.0302  0.0260
  275DG     H20 6322   4.003   0.391   2.773 -2.3289  0.8686  0.7486
  275DG     H21 6323   3.841   0.458   2.756 -0.9773 -3.1535 -2.5155
  275DG     H22 6324   3.939   0.163   2.737  1.7291  1.5402 -0.2274
  275DG     H23 6325   3.807   0.238   2.658  0.2542  0.0921 -1.2801
  276DG      C1 6326   4.525   1.154   2.020 -0.0912 -0.0461  1.0247
  276DG      C2 6327   4.898   1.416   2.684 -0.0764 -0.4596  0.1350
  276DG      H3 6328   4.578   1.237   1.980  0.4556  0.1370  1.0415
  276DG      H4 6329   4.422   1.186   2.037  0.2071  2.1296 -3.1713
  276DG      H5 6330   4.520   1.075   1.943  0.6271  0.7779 -1.5228
  276DG      H6 6331   4.825   1.386   2.768  0.3339 -2.9991  1.0082
  276DG      H7 6332   4.981   1.350   2.699 -1.2293 -0.5649  0.9142
  276DG      H8 6333   4.939   1.513   2.708  3.5340  0.6325  1.3146
  276DG      O9 6334   4.579   1.105   2.144  0.3714  0.2346  0.5721
  276DG     O10 6335   4.833   1.416   2.556  0.2733  0.5916 -0.2173
  276DG     C11 6336   4.637   1.201   2.219  0.0594 -0.2648  0.4861
  276DG     C12 6337   4.923   1.434   2.449 -0.5251  0.4079  0.5941
  276DG     H13 6338   4.619   1.184   2.326  1.8762  1.0182  0.8370
  276DG     H14 6339   4.588   1.299   2.205  0.6638  1.8324  0.8596
  276DG     H15 6340   5.015   1.382   2.468 -0.6147  0.4940  0.6301
  276DG     H16 6341   4.947   1.538   2.465  1.8571 -0.3687  0.3164
  276DG     C17 6342   4.789   1.202   2.188  0.7041  0.2224 -0.2484
  276DG     C18 6343   4.862   1.389   2.318  0.2979 -0.0708  0.2740
  276DG     O19 6344   4.853   1.247   2.306 -0.4254 -0.1736  0.2402
  276DG     H20 6345   4.822   1.260   2.099 -2.1477 -1.4338  0.3225
  276DG     H21 6346   4.820   1.100   2.182 -0.9452  0.6446  1.2680
  276DG     H22 6347   4.763   1.438   2.308 -2.0653  2.9460 -2.2889
  276DG     H23 6348   4.906   1.438   2.233  3.3167 -0.0671  1.7025
  277DG      C1 6349   4.587   3.456   0.069 -0.2988  0.3500  0.1434
  277DG      C2 6350   4.107   3.414  -0.397  0.1561 -0.1928 -0.7244
  277DG      H3 6351   4.625   3.362   0.109  2.0311  0.5622  1.4797
  277DG      H4 6352   4.624   3.525   0.140  1.4129 -1.6008 -1.1545
  277DG      H5 6353   4.648   3.479  -0.019 -0.9433  0.6775 -0.5622
  277DG      H6 6354   4.161   3.503  -0.426 -1.9228  0.4935  0.3200
  277DG      H7 6355   4.151   3.329  -0.456 -0.4213  1.6014  1.2448
  277DG      H8 6356   4.009   3.414  -0.444  1.3388  1.9881  0.0064
  277DG      O9 6357   4.445   3.457   0.056 -0.1906 -0.3082 -0.3690
  277DG     O10 6358   4.108   3.389  -0.253  0.2241 -0.0706  0.3121
  277DG     C11 6359   4.366   3.458   0.172  0.0582 -0.6745 -0.2593
  277DG     C12 6360   4.039   3.497  -0.198 -0.3274 -1.0571 -0.0575
  277DG     H13 6361   4.400   3.518   0.250  1.0445 -1.6773  0.4044
  277DG     H14 6362   4.371   3.361   0.216  0.6337  1.4935  0.6005
  277DG     H15 6363   3.933   3.476  -0.227  1.4332  0.4767 -2.1773
  277DG     H16 6364   4.072   3.593  -0.240 -1.9322 -0.8434  0.4450
  277DG     C17 6365   4.224   3.492   0.139 -0.4177  0.6196 -0.1996
  277DG     C18 6366   4.071   3.503  -0.048  0.2065 -0.1291  0.1142
  277DG     O19 6367   4.204   3.470  -0.001 -0.0052  0.1356 -0.3460
  277DG     H20 6368   4.220   3.605   0.143  2.4611 -0.4673  0.7388
  277DG     H21 6369   4.143   3.450   0.196  1.3061 -0.2974  0.6484
  277DG     H22 6370   4.064   3.606  -0.020 -0.6858 -2.6609 -0.0884
  277DG     H23 6371   3.998   3.452   0.024  1.3650 -0.4579  1.0976
  278DG      C1 6372   0.569   0.714   4.726  0.9906  0.2251  0.0709
  278DG      C2 6373   0.404   1.289   4.513 -1.4353  0.6692  0.7235
  278DG      H3 6374   0.642   0.667   4.665  1.7720 -0.2930  0.0853
  278DG      H4 6375   0.469   0.679   4.698 -2.5303 -1.1837 -1.5104
  278DG      H5 6376   0.581   0.678   4.825  1.5551  1.3995 -0.0436
  278DG      H6 6377   0.364   1.379   4.476 -0.4717  1.3984  0.9280
  278DG      H7 6378   0.513   1.289   4.491 -0.4563 -0.0924  0.1965
  278DG      H8 6379   0.366   1.216   4.448 -0.6330  1.0346 -1.7501
  278DG      O9 6380   0.569   0.856   4.720  0.0943  0.6085 -0.4660
  278DG     O10 6381   0.369   1.256   4.643 -0.0907 -0.4798 -0.3885
  278DG     C11 6382   0.690   0.906   4.780  0.0115  0.1115  0.6021
  278DG     C12 6383   0.451   1.330   4.737 -0.5591  0.3817 -0.0838
  278DG     H13 6384   0.762   0.854   4.721 -1.7467  1.0109  1.3313
  278DG     H14 6385   0.709   0.885   4.888  1.3525 -1.1925  1.5303
  278DG     H15 6386   0.401   1.306   4.833  1.6817 -1.2697  0.2553
  278DG     H16 6387   0.462   1.434   4.710  0.0787  1.2625 -0.2003
  278DG     C17 6388   0.707   1.056   4.748 -0.7977 -0.3315 -0.0121
  278DG     C18 6389   0.590   1.265   4.755  0.8323 -0.2004 -0.9188
  278DG     O19 6390   0.582   1.124   4.774 -0.1666 -0.3324 -0.0206
  278DG     H20 6391   0.732   1.068   4.646  2.0758 -3.5111  1.5835
  278DG     H21 6392   0.790   1.102   4.814 -0.2818 -1.0699 -0.3380
  278DG     H22 6393   0.652   1.282   4.673 -2.2098 -2.2473  0.3150
  278DG     H23 6394   0.631   1.315   4.840  0.8589  0.2253  1.7145
  279DG      C1 6395   3.099   1.457   2.797  0.5601  0.2047 -0.1823
  279DG      C2 6396   2.824   2.044   2.706 -0.2853 -0.5971  0.1507
  279DG      H3 6397   3.132   1.466   2.690 -1.2306 -4.4853 -0.4987
  279DG      H4 6398   3.072   1.354   2.804  2.2193  1.7506 -0.2018
  279DG      H5 6399   3.197   1.477   2.848 -2.1063  0.8833  0.8731
  279DG      H6 6400   2.824   1.982   2.618  0.2886  1.3137  1.2241
  279DG      H7 6401   2.745   2.110   2.703  0.6408 -2.5983 -2.1316
  279DG      H8 6402   2.915   2.103   2.698 -1.9030 -2.7650  0.4012
  279DG      O9 6403   2.999   1.552   2.833  0.1805  0.5213 -0.1607
  279DG     O10 6404   2.811   1.954   2.809 -0.5892  0.1294  0.1187
  279DG     C11 6405   2.919   1.514   2.945 -0.0649 -0.6133  0.4601
  279DG     C12 6406   2.703   1.870   2.811  0.0414  0.0040  0.1118
  279DG     H13 6407   2.981   1.526   3.042 -0.1850  1.2958  1.4423
  279DG     H14 6408   2.888   1.408   2.932  2.5446  0.8793 -1.5380
  279DG     H15 6409   2.698   1.782   2.749 -0.9598  1.8306 -1.4093
  279DG     H16 6410   2.610   1.921   2.792  1.1154  4.0481  3.9202
  279DG     C17 6411   2.785   1.598   2.947 -0.2025 -1.3270 -0.0776
  279DG     C18 6412   2.698   1.814   2.948 -0.0548  0.2253  0.2480
  279DG     O19 6413   2.814   1.735   2.966  0.2661  0.6344 -0.3904
  279DG     H20 6414   2.721   1.574   3.027  0.1152 -0.3133 -2.4811
  279DG     H21 6415   2.724   1.591   2.855  1.3271  0.5722  0.2988
  279DG     H22 6416   2.722   1.891   3.017  0.1697 -1.7522  2.4062
  279DG     H23 6417   2.607   1.763   2.968 -0.1303 -0.6488  2.0617
  280DG      C1 6418   2.780   3.919   0.849  0.5794 -0.5481  0.3765
  280DG      C2 6419   2.792   3.280   1.241 -0.2096 -0.2441  0.0706
  280DG      H3 6420   2.787   3.959   0.751  0.2363 -2.1278 -2.0845
  280DG      H4 6421   2.875   3.913   0.900  0.9516  1.2050  0.2418
  280DG      H5 6422   2.712   3.978   0.903  0.9090 -0.7428 -1.3623
  280DG      H6 6423   2.734   3.342   1.305  0.0181  1.5471 -2.6383
  280DG      H7 6424   2.742   3.193   1.260 -1.3111  1.6764  0.0190
  280DG      H8 6425   2.885   3.292   1.286 -1.2572 -0.6712 -1.3589
  280DG      O9 6426   2.736   3.786   0.837 -0.3319  0.6106  0.6613
  280DG     O10 6427   2.793   3.339   1.110 -0.1407  0.2858  0.0663
  280DG     C11 6428   2.833   3.688   0.796 -0.1389 -0.8113  0.2000
  280DG     C12 6429   2.655   3.340   1.063  0.1435  0.0268 -0.0631
  280DG     H13 6430   2.916   3.680   0.863  0.8812 -1.1843 -0.1108
  280DG     H14 6431   2.881   3.719   0.705  4.0401  1.0597  1.5980
  280DG     H15 6432   2.583   3.404   1.120  1.2781  1.2607 -0.3488
  280DG     H16 6433   2.624   3.232   1.070 -0.2156  0.1816 -0.8389
  280DG     C17 6434   2.764   3.551   0.779  0.8563 -0.2974  0.6353
  280DG     C18 6435   2.661   3.379   0.913  1.2112  0.4577  0.3068
  280DG     O19 6436   2.707   3.515   0.905 -0.2044  0.1674  0.7997
  280DG     H20 6437   2.833   3.477   0.746 -1.2927  0.7403 -1.7191
  280DG     H21 6438   2.676   3.557   0.703 -1.0283 -1.1988  0.3764
  280DG     H22 6439   2.729   3.317   0.847  0.4335  2.1280 -1.3329
  280DG     H23 6440   2.565   3.374   0.862  0.2307 -0.1324 -0.6729
  281DG      C1 6441   0.836   2.780   3.010  0.6574  0.0724  0.8028
  281DG      C2 6442   1.271   3.249   2.989 -0.6476  0.1121 -0.6861
  281DG      H3 6443   0.931   2.729   3.012 -2.9171  1.0639  3.6139
  281DG      H4 6444   0.838   2.814   2.908 -2.3907 -0.7086  0.5133
  281DG      H5 6445   0.752   2.714   3.029  4.7223 -0.3903  2.5014
  281DG      H6 6446   1.256   3.363   2.983  1.7987  2.7311 -0.8137
  281DG      H7 6447   1.371   3.216   3.022  3.0643  0.2650  0.2273
  281DG      H8 6448   1.252   3.203   2.892 -3.8049  0.1926  1.2398
  281DG      O9 6449   0.845   2.889   3.100 -0.2452 -0.5136 -0.4552
  281DG     O10 6450   1.169   3.197   3.073 -0.1664  0.0024  0.1477
  281DG     C11 6451   0.895   2.849   3.227 -0.0146 -0.9223 -0.2900
  281DG     C12 6452   1.183   3.240   3.212 -0.8819  0.8731  0.3419
  281DG     H13 6453   0.979   2.777   3.221 -0.4765  0.5565 -0.1373
  281DG     H14 6454   0.823   2.794   3.288  0.8437 -0.5658  1.8525
  281DG     H15 6455   1.167   3.352   3.234 -2.3133  0.7806  0.3890
  281DG     H16 6456   1.268   3.203   3.271  0.2264  0.1397 -1.8490
  281DG     C17 6457   0.937   2.968   3.308 -0.0916  0.1662  0.0182
  281DG     C18 6458   1.062   3.173   3.280  0.6640 -0.7669 -1.2747
  281DG     O19 6459   1.048   3.034   3.247 -0.0344 -0.0227  0.2407
  281DG     H20 6460   0.967   2.930   3.404 -1.3545  2.0444  0.0160
  281DG     H21 6461   0.850   3.027   3.317  0.4336 -0.2736 -0.2473
  281DG     H22 6462   1.083   3.193   3.391  2.0635  0.4759  1.7805
  281DG     H23 6463   0.968   3.227   3.251 -0.3678 -0.5076 -3.0842
  282DG      C1 6464   4.148   4.514   3.352 -0.5197 -0.0884 -0.7098
  282DG      C2 6465   4.005   5.059   2.975  0.2868 -0.4190  0.2145
  282DG      H3 6466   4.088   4.436   3.399 -1.5009  4.9034 -1.9971
  282DG      H4 6467   4.230   4.538   3.423 -2.2241 -0.0820  1.2696
  282DG      H5 6468   4.195   4.465   3.262 -0.7532 -0.0962  0.5365
  282DG      H6 6469   4.003   5.000   2.876 -0.5892  1.2214 -3.1394
  282DG      H7 6470   3.946   5.149   2.954  0.5773 -0.4315  0.9692
  282DG      H8 6471   4.108   5.082   2.997 -1.4515  1.5268  0.1799
  282DG      O9 6472   4.053   4.615   3.329  0.2630 -0.5407  0.2852
  282DG     O10 6473   3.941   4.985   3.079 -0.1193  0.0339 -0.0401
  282DG     C11 6474   3.978   4.655   3.444 -0.4305 -0.2649 -0.6172
  282DG     C12 6475   3.901   5.051   3.199  0.6112  0.1311  1.1016
  282DG     H13 6476   4.040   4.689   3.523 -0.1474  1.6528  0.8747
  282DG     H14 6477   3.931   4.566   3.477 -1.4580  0.6929 -2.4234
  282DG     H15 6478   3.825   5.132   3.172 -3.4927 -1.0723 -1.1323
  282DG     H16 6479   3.983   5.094   3.248 -1.5213  1.5972 -2.4803
  282DG     C17 6480   3.869   4.750   3.398  0.0284 -0.2723  0.8296
  282DG     C18 6481   3.826   4.954   3.284  0.1347  0.1987 -0.2382
  282DG     O19 6482   3.923   4.845   3.304 -0.0108  0.1310 -0.4714
  282DG     H20 6483   3.835   4.811   3.480  0.9418  0.9732 -1.1617
  282DG     H21 6484   3.786   4.705   3.346  1.0965 -1.4285 -0.6176
  282DG     H22 6485   3.787   4.995   3.378  1.8390  0.4289 -0.5695
  282DG     H23 6486   3.733   4.911   3.240 -1.7533  0.7462  1.3913
  283DG      C1 6487   1.501   3.896   2.189  0.6208  0.4257 -0.5109
  283DG      C2 6488   2.026   4.034   2.550 -0.0430  0.3515 -0.2623
  283DG      H3 6489   1.452   3.992   2.186 -0.7238 -1.0382 -0.3336
  283DG      H4 6490   1.455   3.848   2.276 -1.0561 -1.2036 -1.7365
  283DG      H5 6491   1.475   3.825   2.110 -2.0118  0.0933 -0.0114
  283DG      H6 6492   1.965   4.013   2.632 -0.7359 -0.1583  1.0002
  283DG      H7 6493   2.131   4.043   2.599  1.8853 -1.7531 -2.6743
  283DG      H8 6494   1.995   4.134   2.518 -1.3085  1.8780  0.0212
  283DG      O9 6495   1.638   3.893   2.186  0.0587 -0.5740  0.4819
  283DG     O10 6496   2.010   3.938   2.449  0.2592  0.3542  0.2918
  283DG     C11 6497   1.702   3.958   2.080  0.6338 -0.1744 -0.0410
  283DG     C12 6498   2.105   3.948   2.342 -0.2142 -0.1504  0.2652
  283DG     H13 6499   1.700   4.069   2.099  3.8157  0.7699 -0.9639
  283DG     H14 6500   1.643   3.931   1.991 -1.4090  0.6256 -0.4941
  283DG     H15 6501   2.196   3.900   2.378 -1.5566  2.4466 -0.8694
  283DG     H16 6502   2.136   4.052   2.315 -0.3782 -0.1631  1.8513
  283DG     C17 6503   1.846   3.902   2.087 -0.2033  0.5133 -0.1750
  283DG     C18 6504   2.043   3.878   2.215 -0.2235 -0.6682  0.2761
  283DG     O19 6505   1.900   3.912   2.214 -0.5344 -0.4101 -0.0254
  283DG     H20 6506   1.915   3.966   2.026 -0.8072  1.1480 -1.6395
  283DG     H21 6507   1.838   3.801   2.054 -1.4877 -1.2319  0.9759
  283DG     H22 6508   2.106   3.914   2.132 -0.3663 -0.6519 -0.0661
  283DG     H23 6509   2.079   3.774   2.235 -1.3532 -0.7610  2.0444
  284DG      C1 6510   1.103   4.813   4.436 -0.2065 -0.1237  0.3519
  284DG      C2 6511   0.978   4.918   5.203 -0.3186  0.6236 -0.0387
  284DG      H3 6512   1.140   4.714   4.397  0.0880  1.0879 -0.8359
  284DG      H4 6513   1.191   4.869   4.463 -2.6017 -0.5408 -2.2250
  284DG      H5 6514   1.047   4.856   4.354  0.4665 -0.0147  1.8296
  284DG      H6 6515   1.036   4.954   5.282 -0.5211  0.4908 -0.7803
  284DG      H7 6516   0.918   4.995   5.148 -2.1984 -2.5818  0.3018
  284DG      H8 6517   0.903   4.841   5.234 -1.4255  0.2530  0.6864
  284DG      O9 6518   1.025   4.806   4.559  0.0928 -0.0004  1.0410
  284DG     O10 6519   1.065   4.855   5.107  0.2162 -0.5112 -0.0464
  284DG     C11 6520   1.054   4.701   4.654 -0.4710  0.0185  0.3013
  284DG     C12 6521   1.164   4.937   5.044 -0.1239 -0.3884 -0.8852
  284DG     H13 6522   1.063   4.609   4.588 -0.4470  1.6533 -2.1061
  284DG     H14 6523   0.970   4.679   4.714  1.4548  2.5163 -0.9099
  284DG     H15 6524   1.242   4.966   5.116 -2.2922  2.8835 -1.6572
  284DG     H16 6525   1.119   5.029   5.007 -0.8893  0.8661 -0.3711
  284DG     C17 6526   1.172   4.733   4.746  0.3283 -0.4535 -0.0264
  284DG     C18 6527   1.230   4.855   4.931 -0.0788 -0.3637 -0.0044
  284DG     O19 6528   1.130   4.836   4.830  0.1299  0.6440 -0.1919
  284DG     H20 6529   1.262   4.769   4.681  0.5935  3.9083 -0.5495
  284DG     H21 6530   1.198   4.650   4.808  0.2945 -1.1359  0.6693
  284DG     H22 6531   1.309   4.916   4.880 -1.8234  1.4607  0.0298
  284DG     H23 6532   1.274   4.765   4.974 -2.2919 -1.8133 -1.8146
  285DG      C1 6533   1.397   5.266   2.660 -0.7380  0.6247  0.2143
  285DG      C2 6534   1.589   5.473   3.344  0.0318 -0.1425  0.4470
  285DG      H3 6535   1.336   5.274   2.574  1.9575  2.5434 -2.3963
  285DG      H4 6536   1.408   5.163   2.686  0.1447  1.4603  0.5002
  285DG      H5 6537   1.499   5.309   2.637 -0.8540  1.7892  1.1916
  285DG      H6 6538   1.579   5.559   3.410 -1.2951  1.5672 -0.9253
  285DG      H7 6539   1.560   5.378   3.392  2.8872  3.9670 -1.1430
  285DG      H8 6540   1.695   5.472   3.328 -0.7467  1.2169 -1.7537
  285DG      O9 6541   1.336   5.331   2.775 -0.1740  0.6411 -0.8614
  285DG     O10 6542   1.523   5.489   3.219  0.0267  0.2157  0.2126
  285DG     C11 6543   1.327   5.473   2.762  1.1268  0.4746  1.1985
  285DG     C12 6544   1.444   5.610   3.208 -0.4637 -0.7715 -0.2160
  285DG     H13 6545   1.257   5.507   2.686 -0.8166  1.1424  2.4167
  285DG     H14 6546   1.416   5.514   2.734 -3.2399 -3.1183 -1.2449
  285DG     H15 6547   1.504   5.699   3.176  0.0016  1.0929 -0.3405
  285DG     H16 6548   1.409   5.631   3.306 -0.5953 -2.0773 -1.4883
  285DG     C17 6549   1.277   5.526   2.894 -0.4086  0.0179  1.1327
  285DG     C18 6550   1.330   5.577   3.111  0.0624 -0.4346 -0.3676
  285DG     O19 6551   1.383   5.528   2.984  0.3234 -0.4287 -0.4423
  285DG     H20 6552   1.199   5.461   2.938 -5.2663  1.4443 -0.3166
  285DG     H21 6553   1.232   5.620   2.879 -0.4863 -3.1524  2.4648
  285DG     H22 6554   1.278   5.497   3.165 -0.2106 -1.9236  0.0282
  285DG     H23 6555   1.256   5.659   3.106 -1.2666  0.0217 -0.3045
  286DG      C1 6556   3.219   2.172   1.846  0.6499 -0.4776  0.6353
  286DG      C2 6557   3.707   2.104   1.589  0.3723 -0.0870  0.4629
  286DG      H3 6558   3.330   2.165   1.841  1.6222  0.0524 -0.6890
  286DG      H4 6559   3.182   2.119   1.756 -0.8240 -1.5440 -1.7772
  286DG      H5 6560   3.188   2.104   1.925 -2.6402  1.1951  1.2434
  286DG      H6 6561   3.801   2.152   1.562  1.5521 -1.1374 -2.7949
  286DG      H7 6562   3.713   2.008   1.637  1.0462  1.1882  0.8316
  286DG      H8 6563   3.651   2.102   1.493 -0.1425  1.8283 -0.3593
  286DG      O9 6564   3.148   2.290   1.878  0.4380 -0.0959  0.1116
  286DG     O10 6565   3.626   2.187   1.667 -0.0529  0.5269  0.1744
  286DG     C11 6566   3.139   2.363   1.758 -0.0166 -0.1671 -0.3026
  286DG     C12 6567   3.605   2.319   1.615  0.7315 -0.0276  0.1474
  286DG     H13 6568   3.054   2.437   1.785 -0.8752 -1.0381  0.2599
  286DG     H14 6569   3.099   2.300   1.678  0.2418 -0.9642 -1.6764
  286DG     H15 6570   3.557   2.316   1.516 -1.1311  0.3170  0.1679
  286DG     H16 6571   3.707   2.366   1.603  0.8235  0.8516 -1.3930
  286DG     C17 6572   3.263   2.437   1.712  0.4324  0.5244  0.0336
  286DG     C18 6573   3.511   2.407   1.700  0.1771 -0.1696  0.0476
  286DG     O19 6574   3.378   2.352   1.686  0.2575  0.4943 -0.8193
  286DG     H20 6575   3.287   2.523   1.773  1.3092 -1.4441  1.4948
  286DG     H21 6576   3.242   2.476   1.612  0.6596  0.5419 -0.0899
  286DG     H22 6577   3.552   2.408   1.799  1.2302  0.1368  0.3399
  286DG     H23 6578   3.510   2.502   1.655  0.9596 -1.8313 -1.7242
  287DG      C1 6579   4.165   4.093   0.679  0.0674  0.1405 -0.2195
  287DG      C2 6580   3.883   3.648   0.896 -0.2062 -0.1903 -0.2412
  287DG      H3 6581   4.243   4.117   0.757 -2.4101  0.1364  1.5587
  287DG      H4 6582   4.130   4.183   0.624  0.4649 -0.1546 -2.3533
  287DG      H5 6583   4.208   4.026   0.602 -0.7660 -1.8350 -2.9156
  287DG      H6 6584   3.981   3.623   0.858  3.0986  0.0569 -0.3060
  287DG      H7 6585   3.890   3.627   1.003 -0.3886 -2.0723 -3.0564
  287DG      H8 6586   3.826   3.567   0.850 -1.9669 -1.3505 -0.3466
  287DG      O9 6587   4.056   4.026   0.746 -0.1258  0.3071  0.3554
  287DG     O10 6588   3.841   3.777   0.860 -0.4436  0.0257  0.4127
  287DG     C11 6589   4.012   4.110   0.852 -0.1015 -0.4421  0.8832
  287DG     C12 6590   3.709   3.799   0.909 -0.3342  0.8395 -0.2325
  287DG     H13 6591   3.975   4.204   0.808 -1.8230  2.7950  1.5243
  287DG     H14 6592   4.084   4.125   0.927  1.6425  2.2338  0.5043
  287DG     H15 6593   3.718   3.798   1.018  0.1927  0.7037  1.1045
  287DG     H16 6594   3.637   3.723   0.872 -0.6629  0.6000  1.6808
  287DG     C17 6595   3.890   4.052   0.922  0.2438 -0.1916  0.5389
  287DG     C18 6596   3.676   3.945   0.876 -0.3726  0.7317 -0.3904
  287DG     O19 6597   3.789   4.011   0.829 -0.4470  0.0953  0.0928
  287DG     H20 6598   3.837   4.120   0.997 -0.3906  0.1763  2.1722
  287DG     H21 6599   3.918   3.964   0.977 -1.4007  3.3201 -1.0344
  287DG     H22 6600   3.606   3.937   0.793 -2.0658  1.0454 -0.6920
  287DG     H23 6601   3.624   3.994   0.961 -1.9926  0.5394  1.4093
  288DG      C1 6602   3.571   3.228   3.861  0.3139 -0.9417 -0.7049
  288DG      C2 6603   3.927   3.611   4.240 -0.9327 -0.3975 -0.2615
  288DG      H3 6604   3.516   3.319   3.837  0.1443  3.1231 -1.0294
  288DG      H4 6605   3.500   3.150   3.840 -0.6141 -0.3868 -1.0681
  288DG      H5 6606   3.651   3.220   3.787  0.4291 -1.5253  1.1998
  288DG      H6 6607   3.954   3.633   4.343 -0.9342 -0.0324 -0.5576
  288DG      H7 6608   4.005   3.627   4.162  0.0630  0.7436 -2.2850
  288DG      H8 6609   3.837   3.673   4.216 -0.4526  3.0446 -0.1127
  288DG      O9 6610   3.610   3.221   3.997  0.3207 -0.0721  0.8932
  288DG     O10 6611   3.882   3.478   4.235  0.1695 -0.1415  0.4527
  288DG     C11 6612   3.683   3.103   4.026 -0.7205 -0.3245 -0.0278
  288DG     C12 6613   3.992   3.384   4.251 -0.5514 -0.0401 -0.0928
  288DG     H13 6614   3.762   3.093   3.946  0.3264 -0.8041  2.8004
  288DG     H14 6615   3.616   3.015   4.038 -0.5465 -0.1729  0.5731
  288DG     H15 6616   4.043   3.389   4.348  1.4862  0.1934 -2.0282
  288DG     H16 6617   4.070   3.391   4.176  0.9584 -0.9462  0.1242
  288DG     C17 6618   3.754   3.114   4.161 -0.1988 -0.1516 -0.4070
  288DG     C18 6619   3.935   3.240   4.246  0.5743 -0.3567  0.0198
  288DG     O19 6620   3.832   3.235   4.151  0.4199  0.3550  0.9459
  288DG     H20 6621   3.814   3.019   4.190  1.9718  0.6435  0.9181
  288DG     H21 6622   3.678   3.133   4.238  1.5791 -0.4041  0.8467
  288DG     H22 6623   4.017   3.178   4.229  2.2368 -0.4809 -1.5732
  288DG     H23 6624   3.902   3.225   4.352 -3.1253  3.1464  2.3718
  289DG      C1 6625   4.013   5.013   4.719 -0.4126 -0.1099 -0.4166
  289DG      C2 6626   4.042   5.086   5.356 -0.0612  0.6190  0.3819
  289DG      H3 6627   3.930   5.020   4.651 -0.9120 -2.7400 -2.2116
  289DG      H4 6628   4.084   4.943   4.670 -1.8244 -0.9617 -3.1373
  289DG      H5 6629   4.058   5.106   4.722 -0.7262 -1.7138 -1.9352
  289DG      H6 6630   4.129   5.014   5.364  3.2125  0.5375 -0.5286
  289DG      H7 6631   4.070   5.188   5.339  0.1935 -0.5967  2.8559
  289DG      H8 6632   4.001   5.074   5.459  0.3488 -0.7734 -0.7764
  289DG      O9 6633   3.984   4.984   4.851  0.7552 -0.0330 -0.4991
  289DG     O10 6634   3.954   5.040   5.260  0.5046  0.2778 -0.2573
  289DG     C11 6635   3.972   4.848   4.877  0.1092  1.0413 -0.1669
  289DG     C12 6636   3.890   4.917   5.305  0.0632 -0.1209 -0.5632
  289DG     H13 6637   4.075   4.805   4.865 -0.7756  0.7694  1.7876
  289DG     H14 6638   3.893   4.811   4.807 -3.6816  0.2702 -1.8393
  289DG     H15 6639   3.856   4.916   5.406  1.5814 -0.5309 -2.6961
  289DG     H16 6640   3.975   4.853   5.302  2.6912  2.9046  0.1222
  289DG     C17 6641   3.929   4.817   5.022 -0.2292  0.6493 -0.3388
  289DG     C18 6642   3.781   4.879   5.204  0.5221  0.0552  0.2846
  289DG     O19 6643   3.825   4.907   5.069  0.4595 -0.2958 -0.2232
  289DG     H20 6644   4.020   4.825   5.088 -1.6262  1.4661  2.8552
  289DG     H21 6645   3.901   4.709   5.031  2.9497 -0.4404 -1.3353
  289DG     H22 6646   3.766   4.776   5.211  0.0199  0.4927  1.0185
  289DG     H23 6647   3.686   4.920   5.231 -1.8857  1.3193 -0.4935
  290DG      C1 6648   0.228   3.755   5.427 -0.5852 -0.5145  0.5995
  290DG      C2 6649  -0.016   3.903   5.960  0.0748  0.6029 -0.6052
  290DG      H3 6650   0.238   3.854   5.384  0.6365 -0.8259  0.2050
  290DG      H4 6651   0.250   3.690   5.342 -0.3230  0.7920  0.3855
  290DG      H5 6652   0.302   3.743   5.508  0.6119 -1.8233 -1.9714
  290DG      H6 6653   0.027   3.999   5.929 -3.0262 -1.9859 -0.6105
  290DG      H7 6654  -0.090   3.923   6.033  1.2582  2.8670 -1.2290
  290DG      H8 6655   0.052   3.843   6.016 -1.8421 -2.2461 -1.3437
  290DG      O9 6656   0.092   3.727   5.475  0.4239  0.4377 -0.3616
  290DG     O10 6657  -0.070   3.827   5.853 -0.2588 -0.0986  0.2095
  290DG     C11 6658  -0.004   3.769   5.380 -0.0706 -0.0293  0.5950
  290DG     C12 6659  -0.185   3.892   5.792  0.4491 -0.4916 -0.0586
  290DG     H13 6660  -0.000   3.731   5.278 -0.9608  1.0612  1.4497
  290DG     H14 6661  -0.003   3.876   5.373  0.5780 -0.8288 -3.6689
  290DG     H15 6662  -0.161   4.001   5.777 -0.1808 -2.3857 -0.5233
  290DG     H16 6663  -0.269   3.877   5.861 -1.5587 -0.6482 -0.4932
  290DG     C17 6664  -0.140   3.747   5.452  0.1718 -0.4248 -0.2634
  290DG     C18 6665  -0.226   3.815   5.664  0.0619 -0.7489  0.3252
  290DG     O19 6666  -0.107   3.807   5.580  0.2827  0.6460 -0.4656
  290DG     H20 6667  -0.167   3.643   5.464 -1.0504  0.7957 -0.3499
  290DG     H21 6668  -0.221   3.802   5.407 -1.5735  0.8453  2.9942
  290DG     H22 6669  -0.268   3.711   5.678 -1.6208  1.4749  1.0165
  290DG     H23 6670  -0.301   3.884   5.618 -1.0714  1.8416 -0.0453
  291DG      C1 6671   0.356   0.993   5.044 -0.0045  0.6579  0.2471
  291DG      C2 6672   0.481   0.908   4.418 -0.4433 -0.4933 -0.4662
  291DG      H3 6673   0.443   0.938   5.081 -1.8625  0.8434 -1.7827
  291DG      H4 6674   0.291   1.012   5.127  0.5338 -0.5617  0.5319
  291DG      H5 6675   0.397   1.082   4.998 -3.7344 -0.4234 -1.3107
  291DG      H6 6676   0.558   0.971   4.453 -0.6634 -0.8796  0.3147
  291DG      H7 6677   0.522   0.813   4.453 -1.6350  0.8789 -0.1345
  291DG      H8 6678   0.476   0.913   4.308  0.0884  0.2300 -2.1574
  291DG      O9 6679   0.294   0.907   4.948 -0.1269  0.2743  0.0700
  291DG     O10 6680   0.356   0.922   4.485 -0.3322  0.3654  0.0065
  291DG     C11 6681   0.174   0.966   4.905  0.2333 -0.1652  0.9220
  291DG     C12 6682   0.279   0.800   4.487 -0.1381 -0.2563  0.1739
  291DG     H13 6683   0.190   1.067   4.867 -1.0885  3.0316  0.3316
  291DG     H14 6684   0.108   0.964   4.998  0.1406 -2.2858  1.7664
  291DG     H15 6685   0.339   0.724   4.544  0.6618  3.3892 -2.0694
  291DG     H16 6686   0.260   0.759   4.389  0.2977 -2.8095  2.2249
  291DG     C17 6687   0.109   0.880   4.799  0.5740  0.0901  0.4929
  291DG     C18 6688   0.149   0.820   4.567 -0.8553 -0.3407  0.8788
  291DG     O19 6689   0.197   0.875   4.694  0.0163 -0.6674 -0.4806
  291DG     H20 6690   0.012   0.919   4.784  1.1170  1.1887 -2.4415
  291DG     H21 6691   0.087   0.782   4.827  1.5431  0.1966 -2.9575
  291DG     H22 6692   0.077   0.889   4.527  0.6450 -0.2180  2.3626
  291DG     H23 6693   0.097   0.731   4.589 -1.1630 -1.9976  2.6319
  292DG      C1 6694   0.064   0.420   0.953 -0.6311  0.3017  0.0846
  292DG      C2 6695   0.544   0.394   1.438 -0.5703 -0.1358 -1.4496
  292DG      H3 6696  -0.005   0.368   0.898  1.3585  0.3972 -0.0813
  292DG      H4 6697   0.113   0.495   0.888  0.6293  2.0731 -2.1851
  292DG      H5 6698   0.005   0.470   1.031  3.0477  0.5500 -0.4476
  292DG      H6 6699   0.619   0.430   1.368  0.4507  1.7160 -0.8646
  292DG      H7 6700   0.486   0.477   1.493  0.7385  3.6003  0.5773
  292DG      H8 6701   0.606   0.346   1.520 -1.7518 -0.0224 -0.0231
  292DG      O9 6702   0.151   0.324   1.010 -0.0450 -0.2432  0.8589
  292DG     O10 6703   0.452   0.314   1.356  0.1434 -0.1363 -0.3593
  292DG     C11 6704   0.070   0.216   1.067  0.2965  0.3799 -0.1653
  292DG     C12 6705   0.378   0.218   1.436 -0.4920 -0.2488  0.1077
  292DG     H13 6706   0.012   0.157   0.999 -0.9508  1.4035  1.2683
  292DG     H14 6707   0.002   0.274   1.127  3.2471 -0.7768  0.6620
  292DG     H15 6708   0.301   0.261   1.497 -0.4691  0.1830 -1.2151
  292DG     H16 6709   0.418   0.159   1.516 -2.9935 -1.0077  1.6065
  292DG     C17 6710   0.164   0.132   1.151  0.4607  0.1401  0.2288
  292DG     C18 6711   0.306   0.125   1.336 -0.5064  1.1939  0.6894
  292DG     O19 6712   0.238   0.209   1.242  0.1514  0.0130 -0.6503
  292DG     H20 6713   0.228   0.084   1.086 -2.9689 -0.4755 -1.5447
  292DG     H21 6714   0.113   0.051   1.204  0.6276  0.3509 -2.0834
  292DG     H22 6715   0.384   0.068   1.283 -0.5326  0.2517  1.8835
  292DG     H23 6716   0.242   0.051   1.378 -0.5650  1.7472 -3.9449
  293DG      C1 6717   2.587   0.040   3.835  0.2790  0.0024 -0.3011
  293DG      C2 6718   2.401  -0.137   3.299  0.4986 -0.2924  0.6722
  293DG      H3 6719   2.599   0.081   3.937  1.3455  2.1896 -0.2458
  293DG      H4 6720   2.654   0.104   3.773  2.3321  0.1140  0.0420
  293DG      H5 6721   2.623  -0.063   3.829  2.2552  1.6078  1.2203
  293DG      H6 6722   2.501  -0.100   3.293 -0.2817  2.9836  0.1450
  293DG      H7 6723   2.398  -0.243   3.315  0.1752 -1.1499 -1.5225
  293DG      H8 6724   2.342  -0.115   3.209 -1.9188 -1.9316 -1.0864
  293DG      O9 6725   2.465   0.043   3.765  0.2188 -0.4941  0.0814
  293DG     O10 6726   2.347  -0.076   3.411 -0.2226  0.1113  0.0860
  293DG     C11 6727   2.350  -0.004   3.836 -0.3625  1.3237  0.0084
  293DG     C12 6728   2.208  -0.097   3.420 -0.0519  0.0051  0.1626
  293DG     H13 6729   2.321   0.079   3.905 -0.9351 -1.3646  0.4652
  293DG     H14 6730   2.380  -0.093   3.893 -2.5400  0.2325  0.6766
  293DG     H15 6731   2.179  -0.194   3.461 -1.4444 -0.0999 -0.2985
  293DG     H16 6732   2.152  -0.094   3.321 -0.7078 -1.1141  1.2604
  293DG     C17 6733   2.238  -0.047   3.738  0.6538  0.4240 -0.0297
  293DG     C18 6734   2.152   0.012   3.515 -0.3050 -0.2478  0.4389
  293DG     O19 6735   2.249   0.025   3.622 -0.0172 -0.4982 -0.3978
  293DG     H20 6736   2.139  -0.025   3.774  1.1140 -2.2325  0.1385
  293DG     H21 6737   2.253  -0.146   3.702 -3.5116  1.0689 -2.8820
  293DG     H22 6738   2.160   0.108   3.457 -0.4213  2.1460 -0.5376
  293DG     H23 6739   2.049   0.011   3.544  0.0235  0.4137  0.4502
  294DG      C1 6740   5.040   3.415   0.653  0.0683  0.1251 -0.2767
  294DG      C2 6741   5.503   3.945   1.139 -0.5096 -1.2617  0.4262
  294DG      H3 6742   5.002   3.395   0.552  1.9521 -0.6338 -0.3685
  294DG      H4 6743   4.982   3.367   0.734 -1.1689 -0.3597  0.2849
  294DG      H5 6744   5.130   3.358   0.654 -3.9464  0.7401  1.2414
  294DG      H6 6745   5.575   3.863   1.124 -2.8327 -0.2907 -0.1636
  294DG      H7 6746   5.544   4.047   1.123  1.4924 -1.3624  1.9374
  294DG      H8 6747   5.491   3.932   1.239  1.1874  2.8312 -0.7915
  294DG      O9 6748   5.069   3.548   0.666 -0.1784 -0.1295  0.0758
  294DG     O10 6749   5.384   3.926   1.059  0.0871 -0.0745 -0.2946
  294DG     C11 6750   5.150   3.591   0.771  0.5718  0.4611 -0.1532
  294DG     C12 6751   5.398   3.965   0.926 -0.1641 -0.8702  0.3905
  294DG     H13 6752   5.256   3.549   0.769 -1.1390  4.4564 -4.0694
  294DG     H14 6753   5.102   3.567   0.867  0.8340  0.4526 -0.9111
  294DG     H15 6754   5.486   3.929   0.877 -0.7429 -0.3899  2.7927
  294DG     H16 6755   5.399   4.076   0.927 -0.3484 -1.6055 -0.9931
  294DG     C17 6756   5.158   3.736   0.766 -0.0674 -0.2094 -0.8842
  294DG     C18 6757   5.271   3.926   0.849 -0.1156 -0.0493  0.5551
  294DG     O19 6758   5.256   3.784   0.852 -0.1516  0.0050 -0.4575
  294DG     H20 6759   5.066   3.782   0.804  0.7077 -0.5035 -0.2585
  294DG     H21 6760   5.182   3.766   0.665  1.6420  0.2753  1.7955
  294DG     H22 6761   5.191   3.972   0.894  1.3170  0.7080  2.0008
  294DG     H23 6762   5.281   3.978   0.756 -0.3861  2.2376  0.4356
  295DG      C1 6763   1.206   1.067   4.078  0.4081  0.0909  0.4568
  295DG      C2 6764   1.139   1.831   4.184  0.8084  0.3886 -0.2837
  295DG      H3 6765   1.154   1.006   4.149  0.9966  1.5581  2.0952
  295DG      H4 6766   1.306   1.066   4.122 -2.5629  0.5828 -0.3672
  295DG      H5 6767   1.207   1.023   3.979  3.0567 -0.5732  2.6832
  295DG      H6 6768   1.057   1.903   4.215 -0.6078 -2.1201 -1.1568
  295DG      H7 6769   1.234   1.861   4.217 -0.7908 -1.0340  0.7636
  295DG      H8 6770   1.135   1.836   4.078  2.0656  2.3460  2.7396
  295DG      O9 6771   1.162   1.204   4.081 -0.3574 -0.2861  0.2176
  295DG     O10 6772   1.142   1.714   4.264 -0.4079 -0.7528 -0.2001
  295DG     C11 6773   1.249   1.295   4.003  0.0456 -0.0874  0.1066
  295DG     C12 6774   1.019   1.647   4.261  0.0692 -0.5509  0.1442
  295DG     H13 6775   1.250   1.267   3.899  0.8646 -0.0334 -1.0625
  295DG     H14 6776   1.345   1.327   4.035 -0.7218 -0.1069 -0.9984
  295DG     H15 6777   0.919   1.700   4.265  0.8305  1.3462  2.0932
  295DG     H16 6778   1.004   1.578   4.335 -2.1058  1.7923 -0.3285
  295DG     C17 6779   1.164   1.428   4.009 -0.6045 -0.2893 -0.8640
  295DG     C18 6780   1.023   1.560   4.134  0.3887 -0.2433  0.1764
  295DG     O19 6781   1.129   1.468   4.139  0.1489 -0.1545  0.0784
  295DG     H20 6782   1.077   1.409   3.949 -0.1068  1.4432 -0.6422
  295DG     H21 6783   1.217   1.506   3.956  0.7218 -2.7234 -1.9438
  295DG     H22 6784   0.930   1.503   4.130  0.7204 -1.3193  1.4780
  295DG     H23 6785   1.028   1.627   4.052 -2.2322 -3.0906  3.5481
  296DG      C1 6786   4.751   3.484   2.432 -0.3854 -0.1994  0.3674
  296DG      C2 6787   4.993   2.742   2.631 -0.1949  0.1753  0.0453
  296DG      H3 6788   4.787   3.478   2.328 -1.6804 -1.8408  0.4044
  296DG      H4 6789   4.821   3.547   2.480 -0.7883 -1.9940 -0.6080
  296DG      H5 6790   4.648   3.522   2.423  1.4989  0.5673 -3.6172
  296DG      H6 6791   5.101   2.744   2.656  0.9761  0.5213 -2.3881
  296DG      H7 6792   4.958   2.666   2.703 -1.6050  0.8510  2.3061
  296DG      H8 6793   4.991   2.713   2.520  2.6459 -0.0742  0.8518
  296DG      O9 6794   4.754   3.352   2.494  0.4191  0.3335  0.1284
  296DG     O10 6795   4.924   2.866   2.634  0.1859 -0.3247  0.1709
  296DG     C11 6796   4.874   3.276   2.464  0.3118  0.2837 -0.4102
  296DG     C12 6797   4.788   2.849   2.607 -0.1749  0.0397  0.6270
  296DG     H13 6798   4.964   3.342   2.480 -1.2160  1.7665 -1.8664
  296DG     H14 6799   4.890   3.240   2.365  0.1286 -1.8478  0.3651
  296DG     H15 6800   4.755   2.777   2.683 -1.3980  1.1870  0.7413
  296DG     H16 6801   4.767   2.812   2.509 -1.6122 -0.0457 -2.7946
  296DG     C17 6802   4.885   3.148   2.555  0.5972 -0.0669 -0.3398
  296DG     C18 6803   4.721   2.983   2.627 -0.5253 -0.3799 -0.2929
  296DG     O19 6804   4.763   3.070   2.529  0.5563 -0.2358 -0.1612
  296DG     H20 6805   4.881   3.183   2.657 -3.6132 -3.6088  0.6345
  296DG     H21 6806   4.976   3.097   2.531 -1.1908 -0.6107 -3.2402
  296DG     H22 6807   4.615   2.966   2.616  1.6709  1.7640  2.2217
  296DG     H23 6808   4.731   3.032   2.729  1.1938  0.2048  2.7650
  297DG      C1 6809   3.491   4.597   1.349  0.1940  0.0987 -0.5773
  297DG      C2 6810   3.310   4.938   0.851  0.5309  0.3304  0.0674
  297DG      H3 6811   3.589   4.598   1.309  4.4838  0.6625 -1.3028
  297DG      H4 6812   3.500   4.511   1.418  1.7625 -1.9005 -1.9501
  297DG      H5 6813   3.479   4.685   1.411 -1.2297 -0.6869  0.3933
  297DG      H6 6814   3.269   4.960   0.749 -0.9119 -0.1191  0.7170
  297DG      H7 6815   3.277   5.007   0.929 -1.5690  0.2756  0.3536
  297DG      H8 6816   3.419   4.965   0.837 -0.6269 -1.1784  0.8836
  297DG      O9 6817   3.385   4.581   1.255  0.6014  0.6623 -0.3730
  297DG     O10 6818   3.282   4.804   0.892 -0.5485  0.2852  0.4426
  297DG     C11 6819   3.384   4.454   1.200  0.1239  0.1547 -0.1797
  297DG     C12 6820   3.331   4.702   0.806  0.1411  0.0925  0.2233
  297DG     H13 6821   3.354   4.380   1.272  0.2187 -0.8518 -1.0623
  297DG     H14 6822   3.487   4.435   1.176 -0.2916  1.3106 -2.2091
  297DG     H15 6823   3.440   4.711   0.814  0.9318  0.5823  0.2988
  297DG     H16 6824   3.291   4.706   0.711  1.2383 -0.7357  1.9628
  297DG     C17 6825   3.301   4.454   1.076  1.1007  0.3901  0.8653
  297DG     C18 6826   3.302   4.565   0.867  0.9978 -0.1692 -0.0333
  297DG     O19 6827   3.353   4.555   0.998  0.7092  0.4490  0.2402
  297DG     H20 6828   3.199   4.475   1.099 -0.7132  1.4573 -0.3559
  297DG     H21 6829   3.299   4.358   1.031 -1.4295 -1.9330 -0.1252
  297DG     H22 6830   3.197   4.548   0.866 -0.4074  0.2466 -1.9152
  297DG     H23 6831   3.350   4.494   0.802 -1.9101 -0.6827  0.9953
  298DG      C1 6832   3.873   2.143   4.351  0.6557  0.2368  0.6796
  298DG      C2 6833   4.395   2.502   4.267 -0.6911 -0.2979 -0.9244
  298DG      H3 6834   3.909   2.072   4.279  2.6092  1.5108 -0.4332
  298DG      H4 6835   3.835   2.206   4.272  2.0020  1.2305 -2.5736
  298DG      H5 6836   3.796   2.098   4.406  1.1061  1.4896 -0.9096
  298DG      H6 6837   4.355   2.588   4.207 -2.4165  0.1721 -3.0258
  298DG      H7 6838   4.480   2.530   4.324 -3.1939  0.6463  2.3733
  298DG      H8 6839   4.408   2.415   4.197  1.0970  0.8389  2.1642
  298DG      O9 6840   3.977   2.208   4.426 -0.5437 -0.6343 -0.7260
  298DG     O10 6841   4.295   2.475   4.367 -0.3838 -0.4477 -0.5067
  298DG     C11 6842   3.922   2.269   4.543 -0.7720  0.0441  0.3889
  298DG     C12 6843   4.250   2.588   4.440  0.1675  0.0000 -0.1991
  298DG     H13 6844   3.871   2.197   4.608 -0.5891  1.5151 -2.9505
  298DG     H14 6845   3.836   2.337   4.518 -2.1735  3.3261  0.4779
  298DG     H15 6846   4.194   2.642   4.361  2.0526 -0.4198 -0.9719
  298DG     H16 6847   4.332   2.652   4.476 -2.0745  2.9391 -1.0281
  298DG     C17 6848   4.025   2.355   4.615 -0.4843  0.3975  0.0924
  298DG     C18 6849   4.164   2.535   4.563  0.4411  0.6584 -0.3306
  298DG     O19 6850   4.087   2.429   4.513  0.2618  0.4487  0.0843
  298DG     H20 6851   4.097   2.285   4.666 -2.9385  0.3799 -2.3820
  298DG     H21 6852   3.970   2.417   4.684 -0.7125 -1.3724  1.2579
  298DG     H22 6853   4.226   2.492   4.644 -1.6787 -1.2073  1.6478
  298DG     H23 6854   4.091   2.604   4.606  1.7742 -0.9724  1.6551
  299DG      C1 6855   2.962   2.179   3.033  0.1189 -0.1925 -0.3221
  299DG      C2 6856   3.122   1.955   3.638  0.7749 -0.4910 -0.2740
  299DG      H3 6857   2.930   2.075   2.999  0.7469 -1.9521  3.2789
  299DG      H4 6858   2.996   2.232   2.938  0.7809  3.0267  0.3297
  299DG      H5 6859   2.877   2.221   3.093 -0.5376 -0.4443 -0.8452
  299DG      H6 6860   3.182   1.904   3.718 -0.9075 -0.5414  1.0699
  299DG      H7 6861   3.068   2.035   3.693  1.5110  2.4848 -0.6892
  299DG      H8 6862   3.045   1.887   3.596  1.2062  0.0557  0.2099
  299DG      O9 6863   3.079   2.177   3.123  0.0697  0.1691 -0.3965
  299DG     O10 6864   3.195   1.998   3.524 -0.5734  0.4406 -0.3488
  299DG     C11 6865   3.137   2.302   3.155 -0.5245 -0.3394  0.3354
  299DG     C12 6866   3.279   2.105   3.556  0.8215 -0.4110 -0.4865
  299DG     H13 6867   3.074   2.368   3.204  2.2258  0.2921 -0.4257
  299DG     H14 6868   3.144   2.363   3.062 -1.6178  0.7501  2.5678
  299DG     H15 6869   3.358   2.065   3.613  1.0927  5.7571 -3.0771
  299DG     H16 6870   3.237   2.181   3.629 -1.6093 -1.0905  0.5758
  299DG     C17 6871   3.265   2.300   3.243  0.1242 -0.3775 -0.3071
  299DG     C18 6872   3.334   2.177   3.432  0.2177 -0.4904 -0.0426
  299DG     O19 6873   3.229   2.212   3.349 -0.1241  0.1350  0.0997
  299DG     H20 6874   3.302   2.396   3.281 -0.6641  0.8534  0.7700
  299DG     H21 6875   3.330   2.240   3.180 -0.1245  0.1434 -0.3849
  299DG     H22 6876   3.387   2.266   3.457 -1.1614  1.8751 -0.7782
  299DG     H23 6877   3.404   2.112   3.386  1.5905 -1.7631  4.1722
  300DG      C1 6878   2.571   1.124   1.580 -0.5215  0.0284 -0.0306
  300DG      C2 6879   2.297   0.464   1.626 -0.2196 -0.8570 -0.1606
  300DG      H3 6880   2.669   1.068   1.598  1.9292 -2.2787  0.1136
  300DG      H4 6881   2.570   1.221   1.632 -3.4823  1.2645  0.0417
  300DG      H5 6882   2.572   1.134   1.469  0.5133  1.8469 -0.0592
  300DG      H6 6883   2.200   0.412   1.640 -1.2894 -1.2469 -0.6532
  300DG      H7 6884   2.336   0.441   1.530  1.4003  0.0826  3.3403
  300DG      H8 6885   2.368   0.427   1.702  0.7011  1.6358  3.5503
  300DG      O9 6886   2.460   1.044   1.610  0.1786 -0.4610  0.0020
  300DG     O10 6887   2.277   0.599   1.629 -0.3973  0.1571  0.3507
  300DG     C11 6888   2.340   1.092   1.556 -0.3340  0.7287 -0.3203
  300DG     C12 6889   2.174   0.647   1.549  0.0577  0.5955  1.5574
  300DG     H13 6890   2.346   1.109   1.446 -1.2155 -0.5581  2.1786
  300DG     H14 6891   2.323   1.189   1.607  1.9257  1.7358  3.7491
  300DG     H15 6892   2.083   0.593   1.558 -0.2937  3.4633 -1.3855
  300DG     H16 6893   2.201   0.632   1.441 -2.9693  1.7851 -0.3679
  300DG     C17 6894   2.219   1.005   1.587 -0.7339 -0.4864 -1.0296
  300DG     C18 6895   2.135   0.790   1.591 -1.1384  0.7567 -0.2129
  300DG     O19 6896   2.246   0.874   1.560  0.6927  0.3683 -0.2180
  300DG     H20 6897   2.131   1.040   1.530  0.6997  0.3212 -1.4102
  300DG     H21 6898   2.200   1.006   1.698 -1.3415  3.4238  2.4812
  300DG     H22 6899   2.053   0.822   1.539  2.5327  1.2399 -0.4099
  300DG     H23 6900   2.107   0.775   1.695  0.7977 -4.8614 -1.7296
  301DG      C1 6901   1.468   1.720   5.150 -0.3181  0.0921  0.5887
  301DG      C2 6902   1.191   2.331   5.268 -0.2389  0.4347 -1.3264
  301DG      H3 6903   1.560   1.705   5.199  1.1226  1.4018 -3.7241
  301DG      H4 6904   1.471   1.654   5.065 -0.1744  0.1756  1.2381
  301DG      H5 6905   1.387   1.682   5.211 -0.2894 -1.8186 -0.8236
  301DG      H6 6906   1.188   2.418   5.205  0.2864 -2.6913  2.0594
  301DG      H7 6907   1.099   2.276   5.266 -1.0290  1.5802  0.7960
  301DG      H8 6908   1.212   2.364   5.377 -0.1623 -0.5819  2.8644
  301DG      O9 6909   1.456   1.861   5.123  0.6324  0.4919  0.7290
  301DG     O10 6910   1.298   2.243   5.236  0.3401  0.2885  0.5648
  301DG     C11 6911   1.548   1.912   5.029  0.2256  0.0218 -1.0929
  301DG     C12 6912   1.412   2.329   5.220 -0.3032  0.0363  1.1048
  301DG     H13 6913   1.489   1.938   4.947  0.7376 -0.8954  0.5273
  301DG     H14 6914   1.623   1.833   5.000 -0.1886 -1.8466 -3.5625
  301DG     H15 6915   1.427   2.402   5.307  3.1306  0.3437 -0.8295
  301DG     H16 6916   1.396   2.395   5.137 -0.3003  1.3056  2.3047
  301DG     C17 6917   1.603   2.037   5.099 -0.1289  0.2574 -0.5325
  301DG     C18 6918   1.536   2.254   5.183 -0.1820 -0.7878 -0.0252
  301DG     O19 6919   1.496   2.130   5.120  0.4422 -0.1121  0.2410
  301DG     H20 6920   1.680   2.079   5.030 -0.5286  1.4902 -1.4189
  301DG     H21 6921   1.648   2.027   5.193  0.4203 -3.6403 -1.8289
  301DG     H22 6922   1.617   2.307   5.130 -0.0609  0.9238 -3.6581
  301DG     H23 6923   1.569   2.235   5.287  1.1002  2.9271  0.8588
  302DG      C1 6924   1.832   0.226   0.519  0.1142 -0.0243 -0.5054
  302DG      C2 6925   2.253  -0.048   0.253  0.2948 -0.2590 -0.9379
  302DG      H3 6926   1.800   0.124   0.544 -0.4513  0.8752 -0.7628
  302DG      H4 6927   1.801   0.244   0.414  3.6182  1.5042  2.1705
  302DG      H5 6928   1.780   0.298   0.578 -0.6893 -1.4930 -0.0135
  302DG      H6 6929   2.172  -0.016   0.190 -1.0446 -2.2220  1.2592
  302DG      H7 6930   2.348  -0.031   0.212  2.7422 -0.3641 -2.7260
  302DG      H8 6931   2.250  -0.148   0.279 -0.5127  1.6105 -1.0492
  302DG      O9 6932   1.978   0.232   0.539  0.2634  0.2084 -0.4231
  302DG     O10 6933   2.225   0.027   0.373  0.0494 -0.1190  0.0074
  302DG     C11 6934   2.004   0.213   0.678  0.7354 -0.2459 -0.3284
  302DG     C12 6935   2.313  -0.005   0.481 -0.9667 -0.0354 -0.4921
  302DG     H13 6936   1.964   0.120   0.724 -1.3421  2.3011  3.6326
  302DG     H14 6937   1.949   0.296   0.727 -0.8800  4.4332 -2.2153
  302DG     H15 6938   2.413   0.036   0.473  0.5274 -0.3213  1.0215
  302DG     H16 6939   2.325  -0.113   0.494 -0.6284 -0.2488  0.6438
  302DG     C17 6940   2.150   0.240   0.708  0.4226  0.0464  0.1506
  302DG     C18 6941   2.261   0.043   0.610 -0.4789 -0.3236 -0.2098
  302DG     O19 6942   2.227   0.182   0.602 -0.7881  0.3009 -0.2946
  302DG     H20 6943   2.182   0.203   0.804 -1.8977  0.2552  1.0375
  302DG     H21 6944   2.160   0.349   0.698  1.0197  1.4969 -1.0382
  302DG     H22 6945   2.167  -0.015   0.644  0.0045 -0.2245  0.0701
  302DG     H23 6946   2.339   0.037   0.686 -2.9116  1.1060 -1.9850
  303DG      C1 6947   2.859   0.783   2.757  0.0667 -0.3362  0.2899
  303DG      C2 6948   2.591   1.250   3.220 -0.0416  0.1866  0.4268
  303DG      H3 6949   2.905   0.692   2.802  0.4445  0.9035 -0.3562
  303DG      H4 6950   2.882   0.773   2.652  2.0607 -1.4635  0.9864
  303DG      H5 6951   2.752   0.790   2.773 -0.1666  2.5070  3.2760
  303DG      H6 6952   2.485   1.233   3.254 -0.8073  1.6180 -0.3327
  303DG      H7 6953   2.658   1.175   3.258  1.1256  1.9563 -0.4759
  303DG      H8 6954   2.615   1.345   3.269  0.8813  0.4730 -2.0770
  303DG      O9 6955   2.909   0.903   2.803 -0.1579  0.2511  0.1168
  303DG     O10 6956   2.607   1.270   3.081  0.0457  0.6910  0.1605
  303DG     C11 6957   2.885   1.020   2.722  0.0999  0.0806 -0.2032
  303DG     C12 6958   2.529   1.176   3.011 -0.1076  0.2157 -0.3229
  303DG     H13 6959   2.913   1.001   2.619 -1.1374 -1.1966  1.7457
  303DG     H14 6960   2.951   1.104   2.755  3.4913  0.1470 -1.2759
  303DG     H15 6961   2.423   1.221   3.004 -1.4352  1.3328  1.5300
  303DG     H16 6962   2.515   1.086   3.062  1.0570 -0.1883 -3.1641
  303DG     C17 6963   2.743   1.076   2.727 -0.6898  0.3484  0.1779
  303DG     C18 6964   2.571   1.158   2.864 -0.6179  0.3967  0.2475
  303DG     O19 6965   2.701   1.095   2.861  0.2084  0.1987 -0.0750
  303DG     H20 6966   2.664   1.010   2.686 -2.3117 -4.6148  2.2349
  303DG     H21 6967   2.740   1.169   2.670 -1.2911 -1.3173  2.0487
  303DG     H22 6968   2.495   1.092   2.804 -3.3830 -0.0213 -2.8809
  303DG     H23 6969   2.579   1.253   2.813 -0.6643 -0.5151  0.9959
  304DG      C1 6970   3.300   4.402   2.970  0.1350 -0.4821  0.1498
  304DG      C2 6971   2.864   4.447   3.486  1.0469 -0.0861 -0.6389
  304DG      H3 6972   3.238   4.315   2.997 -2.3172 -1.7409  2.1059
  304DG      H4 6973   3.397   4.367   2.998  1.4376  1.3963  0.4238
  304DG      H5 6974   3.298   4.418   2.861  0.5398 -2.7811 -3.2540
  304DG      H6 6975   2.809   4.517   3.547 -0.0910 -2.0920  2.2190
  304DG      H7 6976   2.788   4.373   3.453 -1.5265  1.1760  1.5519
  304DG      H8 6977   2.933   4.385   3.543  2.1016 -1.5851 -1.2611
  304DG      O9 6978   3.269   4.521   3.038  0.1294  0.3735  0.3301
  304DG     O10 6979   2.927   4.513   3.372 -0.0158  0.3567 -0.0304
  304DG     C11 6980   3.177   4.612   2.974 -0.2329 -0.0043  0.6684
  304DG     C12 6981   2.996   4.626   3.415 -0.0332 -0.1769 -0.4393
  304DG     H13 6982   3.106   4.551   2.927 -3.4343  1.4868  0.6207
  304DG     H14 6983   3.220   4.660   2.887 -3.4004  2.3928  3.5519
  304DG     H15 6984   3.094   4.602   3.469  0.2750  2.9520 -1.6532
  304DG     H16 6985   2.948   4.684   3.494  0.4402  0.9677 -0.4476
  304DG     C17 6986   3.108   4.706   3.074 -0.0026  0.2617 -0.3752
  304DG     C18 6987   3.016   4.719   3.295 -0.4205 -0.1977 -0.4977
  304DG     O19 6988   3.085   4.644   3.194 -0.0638 -0.1622  0.4734
  304DG     H20 6989   3.017   4.739   3.022  0.8381 -1.5309  2.4209
  304DG     H21 6990   3.166   4.799   3.093  1.2783  0.0662  2.1299
  304DG     H22 6991   2.916   4.736   3.253  0.6497 -1.7859  1.2911
  304DG     H23 6992   3.059   4.808   3.324 -1.8778 -0.3575 -1.7987
  305DG      C1 6993   0.022   0.136   1.637  0.1176 -0.9278  0.2659
  305DG      C2 6994  -0.600  -0.072   2.201  0.0129 -0.2862  1.1220
  305DG      H3 6995   0.007   0.213   1.558  0.5431  0.6453 -0.5200
  305DG      H4 6996   0.087   0.066   1.591 -0.0690 -1.8508 -2.6740
  305DG      H5 6997   0.084   0.169   1.728  0.1052 -1.0347  0.2820
  305DG      H6 6998  -0.553  -0.063   2.298  1.1858  0.7029 -0.6965
  305DG      H7 6999  -0.661   0.016   2.184 -0.8771  0.9508  1.8466
  305DG      H8 7000  -0.653  -0.163   2.191 -2.4988 -0.2544  0.4201
  305DG      O9 7001  -0.098   0.095   1.689  0.8203 -0.3642  0.0784
  305DG     O10 7002  -0.503  -0.066   2.106 -0.3019 -0.4960  0.8724
  305DG     C11 7003  -0.089   0.006   1.795  0.6270  0.9900 -0.4079
  305DG     C12 7004  -0.426   0.052   2.097  0.6795 -0.2279  0.2984
  305DG     H13 7005  -0.062   0.051   1.894 -0.0184  1.8954  1.8279
  305DG     H14 7006  -0.026  -0.078   1.770 -0.5712 -1.6156  0.9795
  305DG     H15 7007  -0.416   0.085   2.199  1.0897  2.8132 -2.0798
  305DG     H16 7008  -0.483   0.130   2.047 -2.6427  1.5563 -1.7166
  305DG     C17 7009  -0.232  -0.058   1.817 -0.1660 -0.4260  0.5681
  305DG     C18 7010  -0.293   0.028   2.020 -0.3800  0.0180  0.0780
  305DG     O19 7011  -0.333   0.019   1.879 -0.7915  0.3624  0.4528
  305DG     H20 7012  -0.221  -0.152   1.876  1.8754 -0.3444  1.0730
  305DG     H21 7013  -0.271  -0.088   1.719  2.7307  1.5433  1.5325
  305DG     H22 7014  -0.224   0.104   2.029 -3.5407 -1.3911 -0.9081
  305DG     H23 7015  -0.245  -0.059   2.066  0.0642  1.5816  3.8098
  306DG      C1 7016   3.149   5.471   0.224 -0.2998  0.6306  0.3395
  306DG      C2 7017   3.195   6.084   0.046  0.4101  0.6407  0.8218
  306DG      H3 7018   3.088   5.379   0.244 -0.8740  3.3739  1.5631
  306DG      H4 7019   3.239   5.485   0.301 -0.2636  1.3020  2.7731
  306DG      H5 7020   3.188   5.447   0.120  0.5024 -2.2506 -2.1008
  306DG      H6 7021   3.207   6.102   0.157  0.7404  0.9858  3.5083
  306DG      H7 7022   3.290   6.040   0.034 -1.5014 -2.1944  2.8669
  306DG      H8 7023   3.207   6.167  -0.025 -0.9332 -2.9220  1.0566
  306DG      O9 7024   3.064   5.586   0.234 -0.5235  0.6741  0.5314
  306DG     O10 7025   3.092   5.992   0.013 -1.2572  0.1109  0.2489
  306DG     C11 7026   3.083   5.666   0.343 -0.0725 -1.0196  0.3798
  306DG     C12 7027   2.967   6.027   0.069 -0.0248 -0.0879  0.6335
  306DG     H13 7028   3.185   5.707   0.354  0.5555 -1.5961  2.3924
  306DG     H14 7029   3.053   5.605   0.428  2.7710 -3.3362  1.9270
  306DG     H15 7030   2.896   5.978   0.007  3.2760  2.4156  1.2490
  306DG     H16 7031   2.935   6.135   0.062  0.0689  0.2899 -2.3318
  306DG     C17 7032   2.989   5.791   0.345  0.5600  0.3901 -0.2442
  306DG     C18 7033   2.949   5.982   0.214 -0.3069 -0.2407  0.0849
  306DG     O19 7034   3.022   5.868   0.230 -0.4655 -0.3429  0.3289
  306DG     H20 7035   3.003   5.853   0.436  0.7189 -0.2720 -0.6284
  306DG     H21 7036   2.885   5.768   0.344  3.8697  0.7917 -2.1881
  306DG     H22 7037   2.992   6.052   0.287 -2.4896  3.4301  1.3324
  306DG     H23 7038   2.841   5.974   0.239 -0.6331  3.9614  0.3919
  307DG      C1 7039   4.206   1.693   5.422  0.8443 -0.1385  0.6122
  307DG      C2 7040   4.344   1.104   5.021 -0.1895  0.1414  0.1886
  307DG      H3 7041   4.294   1.717   5.492 -0.1622 -0.1930 -0.8678
  307DG      H4 7042   4.163   1.602   5.472 -2.0474  2.6435  0.5163
  307DG      H5 7043   4.133   1.764   5.438  1.2352 -0.2862 -0.3020
  307DG      H6 7044   4.256   1.054   4.984 -0.1819  0.5368 -1.2970
  307DG      H7 7045   4.433   1.092   4.953 -1.8219  0.2596 -1.6863
  307DG      H8 7046   4.370   1.067   5.121 -1.2598  0.1889 -2.1607
  307DG      O9 7047   4.235   1.662   5.284 -0.0999 -0.3068  0.0079
  307DG     O10 7048   4.299   1.238   5.012  0.2558  0.2760 -0.2444
  307DG     C11 7049   4.124   1.650   5.202  0.2474 -0.5985 -0.1727
  307DG     C12 7050   4.393   1.336   4.986 -0.0678 -0.9844  0.5220
  307DG     H13 7051   4.055   1.738   5.202 -1.8186  0.0300 -2.6646
  307DG     H14 7052   4.065   1.559   5.225  1.3087  1.3725  0.8645
  307DG     H15 7053   4.432   1.292   4.888  0.9470 -0.2457 -0.7926
  307DG     H16 7054   4.470   1.338   5.063  0.4303 -1.0169  2.2821
  307DG     C17 7055   4.182   1.634   5.062 -0.0277 -0.3916 -0.2449
  307DG     C18 7056   4.330   1.475   4.961 -0.6639 -0.6156  0.2482
  307DG     O19 7057   4.251   1.509   5.074 -0.4393 -0.1224 -0.5721
  307DG     H20 7058   4.253   1.711   5.038  0.8316 -0.6212 -1.3527
  307DG     H21 7059   4.104   1.634   4.980  1.1308 -2.2689 -1.2245
  307DG     H22 7060   4.403   1.545   4.938  0.7132 -0.3293 -1.7332
  307DG     H23 7061   4.266   1.477   4.870  3.0439 -2.0468  0.4680
  308DG      C1 7062   0.823   0.387   0.331 -0.4037 -0.5556  1.0032
  308DG      C2 7063   0.250  -0.255   0.270 -0.1214 -0.4444  0.5785
  308DG      H3 7064   0.827   0.412   0.219  0.0073 -1.7463 -1.5549
  308DG      H4 7065   0.916   0.403   0.387  0.3549 -0.9574 -2.8072
  308DG      H5 7066   0.740   0.453   0.371 -2.6354  0.8537 -0.1236
  308DG      H6 7067   0.288  -0.343   0.212  3.4174 -1.0447  0.9933
  308DG      H7 7068   0.173  -0.289   0.333 -0.2454  1.3893 -0.4369
  308DG      H8 7069   0.209  -0.171   0.220  2.2617  0.5552 -1.4261
  308DG      O9 7070   0.791   0.250   0.344 -0.0687  0.1633  0.0130
  308DG     O10 7071   0.358  -0.207   0.344  0.6759  0.5075 -0.0561
  308DG     C11 7072   0.733   0.216   0.471 -0.2554 -0.7716 -0.4637
  308DG     C12 7073   0.470  -0.155   0.272 -1.4165 -0.2444  0.1251
  308DG     H13 7074   0.640   0.268   0.467  0.0646  0.9592  2.1471
  308DG     H14 7075   0.787   0.249   0.566 -0.0615  0.7570 -0.2857
  308DG     H15 7076   0.437  -0.076   0.205  0.2972  2.6970 -1.1742
  308DG     H16 7077   0.517  -0.236   0.217  0.0649  1.8469  0.1619
  308DG     C17 7078   0.695   0.065   0.486  0.1249 -0.1386 -0.5105
  308DG     C18 7079   0.570  -0.112   0.380  0.0327 -0.5193 -0.3545
  308DG     O19 7080   0.603   0.028   0.384  0.1916 -0.4379 -0.1742
  308DG     H20 7081   0.659   0.036   0.588 -0.6768 -0.9855  0.4288
  308DG     H21 7082   0.783   0.013   0.463 -1.0393  1.4233 -2.0144
  308DG     H22 7083   0.542  -0.154   0.477  1.0316 -0.2568  1.9962
  308DG     H23 7084   0.670  -0.156   0.357 -2.4397 -1.8971  0.1173
  309DG      C1 7085   1.495   4.610   1.070  0.1468  0.4750 -0.3056
  309DG      C2 7086   1.268   5.169   1.204  0.4000  0.5969 -0.0335
  309DG      H3 7087   1.566   4.614   1.147  1.4641 -1.8324  2.4932
  309DG      H4 7088   1.545   4.669   0.993  1.3472 -0.2195  0.5145
  309DG      H5 7089   1.478   4.513   1.034  0.7864 -0.0874 -0.7935
  309DG      H6 7090   1.185   5.235   1.223 -1.5057 -2.3055 -1.1690
  309DG      H7 7091   1.354   5.233   1.181 -0.8008 -0.0972  0.2758
  309DG      H8 7092   1.240   5.106   1.117  1.5151  0.0397 -0.3622
  309DG      O9 7093   1.371   4.676   1.105  0.1049  0.0392  0.1018
  309DG     O10 7094   1.302   5.093   1.314  0.0570  0.1860 -0.5339
  309DG     C11 7095   1.306   4.628   1.224 -0.5023 -0.1748 -0.1438
  309DG     C12 7096   1.198   5.044   1.400 -0.0525  0.1686  0.0559
  309DG     H13 7097   1.374   4.633   1.301 -1.6070  1.7568 -2.4867
  309DG     H14 7098   1.288   4.521   1.210  0.5723 -1.1477 -1.7217
  309DG     H15 7099   1.141   5.131   1.434  0.7444 -0.9729  1.3471
  309DG     H16 7100   1.240   5.016   1.496  0.3291 -2.8004  0.0615
  309DG     C17 7101   1.177   4.711   1.259 -0.1577 -0.5391 -0.4410
  309DG     C18 7102   1.120   4.931   1.334 -0.4356 -0.4436 -0.5292
  309DG     O19 7103   1.219   4.834   1.305 -0.3399  0.2970  0.0625
  309DG     H20 7104   1.120   4.660   1.335  0.2316  0.5989 -0.3817
  309DG     H21 7105   1.111   4.742   1.173  0.7185  2.2255 -1.8226
  309DG     H22 7106   1.045   4.898   1.404 -0.4503 -1.1841  0.0047
  309DG     H23 7107   1.072   4.960   1.241  0.2942 -1.0272  0.8559
  310DG      C1 7108   1.871   1.837   0.410 -0.3403 -0.0518 -0.3088
  310DG      C2 7109   1.873   1.491  -0.165 -0.3458  0.2725 -0.2659
  310DG      H3 7110   1.849   1.742   0.449 -0.3347  0.0952 -4.0244
  310DG      H4 7111   1.816   1.908   0.469 -1.3572 -0.6050  2.9050
  310DG      H5 7112   1.979   1.844   0.419  1.6325 -0.1353 -0.0021
  310DG      H6 7113   1.798   1.477  -0.243 -0.6825  0.2885  2.1415
  310DG      H7 7114   1.974   1.483  -0.200 -0.3909 -1.1505  1.6895
  310DG      H8 7115   1.864   1.411  -0.095 -0.0119  1.6474  0.3408
  310DG      O9 7116   1.817   1.849   0.281 -0.2123  0.4636 -0.2766
  310DG     O10 7117   1.848   1.619  -0.097  0.4459 -0.4600  0.2037
  310DG     C11 7118   1.842   1.973   0.222 -0.3301 -0.1114  0.0169
  310DG     C12 7119   1.876   1.730  -0.178  0.2479 -0.9113 -0.9304
  310DG     H13 7120   1.950   1.993   0.220 -3.0144  0.9356 -0.2189
  310DG     H14 7121   1.800   2.051   0.284  0.3716  0.4629  1.7649
  310DG     H15 7122   1.853   1.713  -0.286 -3.5220  2.0958 -0.2573
  310DG     H16 7123   1.977   1.764  -0.185 -4.0917  0.6365  0.0977
  310DG     C17 7124   1.784   1.974   0.075 -0.0323  0.1882  0.0410
  310DG     C18 7125   1.804   1.856  -0.124  0.0855 -0.1944  0.0049
  310DG     O19 7126   1.842   1.863   0.008 -0.1015 -0.3928 -0.3296
  310DG     H20 7127   1.803   2.064   0.024 -0.4130 -0.4785  2.1591
  310DG     H21 7128   1.677   1.964   0.088 -1.2887 -0.6060  0.5512
  310DG     H22 7129   1.843   1.938  -0.170 -0.3837 -1.9201  2.2345
  310DG     H23 7130   1.699   1.858  -0.135  1.2784  0.3305  0.2162
  311DG      C1 7131   2.271   1.357   1.841  0.0546  0.1567  0.3206
  311DG      C2 7132   2.241   1.408   1.274  0.0522 -0.2116 -0.1433
  311DG      H3 7133   2.309   1.256   1.869 -0.2717  1.2453 -3.0156
  311DG      H4 7134   2.264   1.352   1.732 -0.1430  0.3188  0.8715
  311DG      H5 7135   2.169   1.376   1.876 -0.8043 -0.3423  0.5839
  311DG      H6 7136   2.197   1.501   1.316 -2.3120  0.8729  1.4794
  311DG      H7 7137   2.262   1.428   1.167 -1.2187  2.0024 -0.5946
  311DG      H8 7138   2.151   1.339   1.263  0.4238 -0.3641  0.2233
  311DG      O9 7139   2.358   1.449   1.894  0.1837  0.0475  0.3385
  311DG     O10 7140   2.348   1.346   1.336  0.0132  0.2723  0.0798
  311DG     C11 7141   2.485   1.467   1.825  0.6142  0.2461 -0.3081
  311DG     C12 7142   2.468   1.428   1.331  0.3185 -0.2353 -0.4770
  311DG     H13 7143   2.537   1.373   1.817 -0.8061  1.0940 -0.5734
  311DG     H14 7144   2.542   1.531   1.899 -0.7755  0.8449  1.3453
  311DG     H15 7145   2.475   1.477   1.234  0.5450 -0.4520  0.3236
  311DG     H16 7146   2.544   1.351   1.352  3.3920  1.1109  0.8632
  311DG     C17 7147   2.467   1.540   1.689  0.3336 -0.0327 -0.3367
  311DG     C18 7148   2.460   1.527   1.452 -0.0319 -0.0652 -0.3296
  311DG     O19 7149   2.461   1.456   1.577 -0.3137  0.1364  0.1770
  311DG     H20 7150   2.549   1.606   1.676 -0.2280  1.9953 -1.2945
  311DG     H21 7151   2.374   1.603   1.689 -0.4085  1.0767 -0.3723
  311DG     H22 7152   2.554   1.579   1.441  1.1383 -0.1746  1.1350
  311DG     H23 7153   2.378   1.592   1.430  2.1416 -1.2450 -1.4841
  312DG      C1 7154   3.274   0.920   0.242  0.9508 -0.2662  0.3065
  312DG      C2 7155   2.657   0.512   0.473 -0.0212  0.0233  0.1138
  312DG      H3 7156   3.384   0.917   0.274  0.3327  1.8990  0.2902
  312DG      H4 7157   3.263   1.008   0.173  0.6935  1.3291 -0.0223
  312DG      H5 7158   3.247   0.824   0.204  0.6629  0.6443  0.5818
  312DG      H6 7159   2.585   0.548   0.402 -1.6074  2.1919 -1.5695
  312DG      H7 7160   2.712   0.433   0.415 -1.0685 -0.2086 -1.7910
  312DG      H8 7161   2.601   0.464   0.549  0.7894 -2.8576 -0.0988
  312DG      O9 7162   3.211   0.939   0.365  0.9102  0.2768  0.0829
  312DG     O10 7163   2.743   0.629   0.505  0.0738 -0.5626  0.8174
  312DG     C11 7164   3.073   0.959   0.362  0.5168  0.3103 -0.6116
  312DG     C12 7165   2.843   0.600   0.590  0.6315 -0.0156 -0.6137
  312DG     H13 7166   3.034   0.899   0.277  0.0003  1.3565  0.4851
  312DG     H14 7167   3.041   1.060   0.338 -0.1562 -0.3612 -1.4232
  312DG     H15 7168   2.899   0.517   0.549  1.3031  0.3326  1.2972
  312DG     H16 7169   2.805   0.567   0.682  0.4232 -0.6796 -0.4846
  312DG     C17 7170   3.013   0.915   0.500  0.5766  0.0728 -0.3516
  312DG     C18 7171   2.935   0.721   0.615  0.5495  0.0744  0.5260
  312DG     O19 7172   2.976   0.778   0.488  0.0576 -0.2379 -0.0597
  312DG     H20 7173   2.923   0.969   0.532  1.4161 -2.8963  4.0487
  312DG     H21 7174   3.094   0.928   0.570 -0.4310  0.8155  1.8282
  312DG     H22 7175   2.882   0.794   0.661  0.4944 -2.0409  1.1388
  312DG     H23 7176   3.028   0.705   0.671  1.2349 -2.1180 -2.8692
  313DG      C1 7177   2.831   1.968   5.475 -0.5034 -0.3603  0.3927
  313DG      C2 7178   2.814   1.839   6.219 -0.1274  0.1064 -0.2525
  313DG      H3 7179   2.883   1.956   5.374  2.3386 -1.2636 -2.1801
  313DG      H4 7180   2.838   2.075   5.500 -1.4791  0.2717  1.8642
  313DG      H5 7181   2.722   1.955   5.456  0.3653  1.0429 -2.6241
  313DG      H6 7182   2.736   1.776   6.189  0.4354  3.3802  0.6837
  313DG      H7 7183   2.894   1.782   6.275 -0.7917 -1.2296  2.4546
  313DG      H8 7184   2.783   1.915   6.290  0.5956  2.1024 -0.2214
  313DG      O9 7185   2.881   1.884   5.576  0.7359  0.2583  0.3461
  313DG     O10 7186   2.876   1.889   6.108  0.4259 -0.2490 -0.0948
  313DG     C11 7187   3.003   1.933   5.625  0.2088 -0.1741  0.5473
  313DG     C12 7188   2.814   2.011   6.062 -0.4397  1.0243 -0.7159
  313DG     H13 7189   3.080   1.965   5.550  0.3426  3.0976 -0.2851
  313DG     H14 7190   3.060   1.851   5.668  2.0407  1.9776 -0.7478
  313DG     H15 7191   2.794   2.081   6.145  0.4667 -1.6941 -0.9669
  313DG     H16 7192   2.710   1.992   6.024 -1.7860 -0.8480  1.6462
  313DG     C17 7193   2.982   2.037   5.737  0.0669  0.3088  0.0265
  313DG     C18 7194   2.901   2.069   5.955 -0.0909 -0.0143 -0.2435
  313DG     O19 7195   2.905   1.985   5.839  0.0111  0.6309 -0.0274
  313DG     H20 7196   2.921   2.119   5.693 -2.0414 -1.8431 -0.7237
  313DG     H21 7197   3.078   2.070   5.773  2.0688 -1.4128 -2.5728
  313DG     H22 7198   2.871   2.166   5.922  0.6349  0.0278  0.4052
  313DG     H23 7199   2.998   2.079   5.987 -0.9413  1.0291 -0.3217
  314DG      C1 7200   1.413   5.329   4.992  0.1201 -0.0764 -0.1206
  314DG      C2 7201   1.266   5.551   4.364  0.3207 -0.5961 -0.0779
  314DG      H3 7202   1.333   5.270   5.030 -0.2465  0.0162  0.5332
  314DG      H4 7203   1.466   5.367   5.076 -0.5873  2.0274 -1.1545
  314DG      H5 7204   1.492   5.268   4.946 -2.7145 -0.4141  1.4571
  314DG      H6 7205   1.227   5.452   4.342  1.3897  0.9107  0.2008
  314DG      H7 7206   1.209   5.621   4.305  0.9007 -1.2099 -0.3173
  314DG      H8 7207   1.369   5.561   4.330  0.4800 -0.1107  2.1524
  314DG      O9 7208   1.381   5.434   4.900  0.5050  0.2505 -0.1654
  314DG     O10 7209   1.255   5.571   4.502  0.3002 -0.5799 -0.4131
  314DG     C11 7210   1.326   5.551   4.970 -0.5010  0.1822 -0.3981
  314DG     C12 7211   1.130   5.629   4.548 -0.2398 -0.1390 -0.1684
  314DG     H13 7212   1.380   5.596   5.062  2.2059 -0.1698  2.2188
  314DG     H14 7213   1.237   5.506   5.001  2.3560  0.0646 -2.7537
  314DG     H15 7214   1.045   5.560   4.551  1.4417 -0.5062 -2.5978
  314DG     H16 7215   1.099   5.699   4.481 -2.8784  2.9483 -0.4596
  314DG     C17 7216   1.272   5.663   4.884  0.2453 -0.5300 -0.3391
  314DG     C18 7217   1.155   5.700   4.676  0.3847  0.6399  0.2488
  314DG     O19 7218   1.210   5.602   4.769 -0.0355 -0.1822  0.3258
  314DG     H20 7219   1.367   5.715   4.862  3.9353  0.5982  2.0406
  314DG     H21 7220   1.211   5.727   4.945 -0.2230  1.0230  0.7890
  314DG     H22 7221   1.226   5.778   4.648 -3.6811  0.0049  0.4551
  314DG     H23 7222   1.052   5.740   4.706 -3.5612  2.0943 -0.8820
  315DG      C1 7223   0.539   2.943   2.800 -0.1104  0.2528  0.9215
  315DG      C2 7224   0.973   2.478   2.748 -0.3373  0.5301  0.5376
  315DG      H3 7225   0.429   2.950   2.804 -1.7637 -1.2630  1.8248
  315DG      H4 7226   0.584   3.042   2.783  1.2794 -2.2436 -1.2403
  315DG      H5 7227   0.565   2.911   2.905  0.7948 -1.4021  1.6051
  315DG      H6 7228   0.958   2.476   2.861 -0.9174  2.0407 -0.1090
  315DG      H7 7229   0.991   2.378   2.716  0.3799  2.8513  2.0259
  315DG      H8 7230   1.060   2.535   2.729  0.1641  0.8581  0.8161
  315DG      O9 7231   0.582   2.846   2.699  0.1231  0.5368  0.0020
  315DG     O10 7232   0.863   2.533   2.677  0.2730  0.4377 -0.0007
  315DG     C11 7233   0.581   2.889   2.567  0.3592 -0.1514 -0.1477
  315DG     C12 7234   0.890   2.544   2.535 -0.5492  0.4719  0.6556
  315DG     H13 7235   0.644   2.973   2.539  3.5526 -1.3133 -2.5885
  315DG     H14 7236   0.476   2.934   2.556  0.9042  0.9661 -1.8466
  315DG     H15 7237   0.910   2.444   2.487 -1.7483  0.5262  0.9701
  315DG     H16 7238   0.980   2.598   2.516  1.1455 -1.0786  1.6368
  315DG     C17 7239   0.619   2.779   2.473 -0.5900  0.4277 -0.0591
  315DG     C18 7240   0.772   2.604   2.465  0.2877  0.1600  0.4585
  315DG     O19 7241   0.747   2.732   2.519 -0.3676 -0.0583  0.0155
  315DG     H20 7242   0.613   2.811   2.371  0.2911 -3.3097  3.6949
  315DG     H21 7243   0.542   2.702   2.473  1.0793  2.4187 -0.1299
  315DG     H22 7244   0.797   2.592   2.360  0.4694 -1.2535 -1.0440
  315DG     H23 7245   0.696   2.534   2.483  0.4653  1.8692 -0.8099
  316DG      C1 7246   0.832   1.558   5.418 -0.2174  0.0386  0.4430
  316DG      C2 7247   1.096   0.986   4.840  0.5901 -0.7299  0.6830
  316DG      H3 7248   0.879   1.651   5.449  0.0525  1.3710  0.0672
  316DG      H4 7249   0.839   1.481   5.491 -0.9499  2.7534  0.7252
  316DG      H5 7250   0.741   1.583   5.376  0.1066  1.7599 -1.2947
  316DG      H6 7251   1.011   0.938   4.892 -2.9219 -1.0391 -2.4604
  316DG      H7 7252   1.091   0.977   4.735 -0.7559 -0.0913  0.3488
  316DG      H8 7253   1.185   0.923   4.869 -0.1839  0.7150  0.6571
  316DG      O9 7254   0.909   1.495   5.320 -0.4284  0.1376  0.3901
  316DG     O10 7255   1.107   1.120   4.870  0.4657 -0.4444 -0.3106
  316DG     C11 7256   1.051   1.494   5.334 -0.1424 -0.2991 -0.1130
  316DG     C12 7257   1.121   1.154   5.006 -0.1844  0.2009 -0.7449
  316DG     H13 7258   1.084   1.428   5.417  0.9662  0.9840  2.2558
  316DG     H14 7259   1.097   1.590   5.355 -1.1325 -0.3515 -0.6910
  316DG     H15 7260   1.223   1.118   5.038  0.3343 -3.4546 -1.6766
  316DG     H16 7261   1.049   1.102   5.066  2.0660  3.0481  1.2184
  316DG     C17 7262   1.101   1.468   5.189  0.2316 -0.7431 -0.1064
  316DG     C18 7263   1.107   1.304   5.020  0.3933  0.1913 -0.2153
  316DG     O19 7264   1.070   1.333   5.153  0.4129  0.2931  0.2738
  316DG     H20 7265   1.203   1.487   5.191  0.4464  0.7406 -0.9580
  316DG     H21 7266   1.056   1.542   5.119 -1.8446  0.0991 -1.9503
  316DG     H22 7267   1.204   1.345   4.986  0.4419  1.1194  0.5056
  316DG     H23 7268   1.032   1.338   4.956  1.2073 -1.7126  0.2412
  317DG      C1 7269   0.137   0.450   4.694  0.0528 -0.4434 -0.5144
  317DG      C2 7270   0.232  -0.352   4.995  0.2396 -0.8778 -0.1920
  317DG      H3 7271   0.214   0.517   4.654  1.0446  0.6592  1.1158
  317DG      H4 7272   0.072   0.500   4.766 -1.0310  0.2969 -0.7378
  317DG      H5 7273   0.077   0.421   4.613  2.8428 -0.3236  0.5582
  317DG      H6 7274   0.200  -0.456   4.982 -0.7492 -0.3387  1.2563
  317DG      H7 7275   0.338  -0.343   5.015 -0.1339 -0.6113 -0.2120
  317DG      H8 7276   0.176  -0.312   5.087 -1.6606  2.4315 -0.2244
  317DG      O9 7277   0.191   0.343   4.762 -0.4823  0.1106 -0.4113
  317DG     O10 7278   0.193  -0.270   4.883 -0.5969  0.3450  0.4942
  317DG     C11 7279   0.276   0.264   4.684  0.3351 -0.1528 -0.5596
  317DG     C12 7280   0.238  -0.135   4.881 -0.4122  0.4070  0.8115
  317DG     H13 7281   0.365   0.316   4.668  1.4860  0.3819 -1.2034
  317DG     H14 7282   0.225   0.269   4.588  0.8370 -0.9016 -0.5176
  317DG     H15 7283   0.346  -0.124   4.858  1.9790  2.2563 -0.6785
  317DG     H16 7284   0.224  -0.084   4.974  0.4313  0.2963 -2.2562
  317DG     C17 7285   0.292   0.119   4.730 -0.3270 -0.8927 -0.2204
  317DG     C18 7286   0.138  -0.074   4.782 -0.1118 -0.3282 -0.4535
  317DG     O19 7287   0.171   0.070   4.789  0.1687  0.6172 -0.2546
  317DG     H20 7288   0.373   0.104   4.800  0.1412 -0.9305 -0.3952
  317DG     H21 7289   0.333   0.064   4.639  0.5925 -1.9813 -2.0551
  317DG     H22 7290   0.143  -0.117   4.682 -1.1491 -1.3169  0.6310
  317DG     H23 7291   0.036  -0.094   4.812  0.3531 -1.7319  0.7906
  318DG      C1 7292   5.217   2.194   1.125 -0.3053  0.0895  0.1026
  318DG      C2 7293   4.524   2.228   0.647  0.0541 -0.2221 -0.9801
  318DG      H3 7294   5.205   2.298   1.112  2.4616  1.8144 -0.5604
  318DG      H4 7295   5.323   2.158   1.142 -0.9531 -1.0107  0.8147
  318DG      H5 7296   5.156   2.179   1.212 -1.0903 -0.5704 -1.3939
  318DG      H6 7297   4.509   2.336   0.619 -0.0642  0.3593  0.1448
  318DG      H7 7298   4.470   2.165   0.571 -2.1178 -1.8748 -1.1766
  318DG      H8 7299   4.478   2.215   0.745  2.5193  0.4040  1.3007
  318DG      O9 7300   5.169   2.126   1.012  0.1490  0.0769  0.3066
  318DG     O10 7301   4.664   2.193   0.650 -0.2056  0.0478  0.9160
  318DG     C11 7302   5.029   2.149   0.989 -0.3182  0.3059  0.1651
  318DG     C12 7303   4.686   2.057   0.663 -0.4072 -0.1983  0.6888
  318DG     H13 7304   5.014   2.254   0.970 -0.8002 -0.7372  1.9370
  318DG     H14 7305   4.969   2.125   1.075  0.7385  0.2214  3.4830
  318DG     H15 7306   4.658   2.005   0.569 -2.1637 -1.0126  0.1219
  318DG     H16 7307   4.649   2.013   0.751  0.0973  1.3056  1.9555
  318DG     C17 7308   4.987   2.059   0.875 -0.5045 -0.5995  0.3877
  318DG     C18 7309   4.837   2.045   0.692 -0.2495 -0.1223  0.3356
  318DG     O19 7310   4.855   2.089   0.833 -1.0943  0.0666  0.0290
  318DG     H20 7311   4.975   1.965   0.913  1.9067 -1.8200  0.3575
  318DG     H21 7312   5.069   2.068   0.804 -1.6399  1.2917  1.6633
  318DG     H22 7313   4.867   1.938   0.689 -1.1703  0.2797  2.0721
  318DG     H23 7314   4.904   2.101   0.630 -0.0232  0.1041  0.0447
  319DG      C1 7315   2.658   0.143   3.006  0.5401  0.3600 -0.4667
  319DG      C2 7316   2.330   0.168   2.404 -0.1708 -0.9073 -1.0648
  319DG      H3 7317   2.766   0.133   2.987  2.0414 -2.7375  0.4650
  319DG      H4 7318   2.599   0.052   3.011  0.0787 -2.0794  0.9060
  319DG      H5 7319   2.653   0.195   3.101 -1.0948 -0.8963  1.6167
  319DG      H6 7320   2.260   0.206   2.330 -0.4948 -1.4378  0.0329
  319DG      H7 7321   2.399   0.094   2.361 -3.0997 -0.1131 -0.4306
  319DG      H8 7322   2.267   0.109   2.474 -0.7272  0.6282 -1.4248
  319DG      O9 7323   2.600   0.217   2.899  0.1181 -0.3281 -0.2839
  319DG     O10 7324   2.405   0.250   2.492 -0.3611 -0.3181 -0.1095
  319DG     C11 7325   2.664   0.343   2.880  0.3445 -0.0991 -0.3054
  319DG     C12 7326   2.502   0.326   2.422  0.3515  0.2189  0.2585
  319DG     H13 7327   2.772   0.322   2.857 -0.0438  0.3360  0.8172
  319DG     H14 7328   2.666   0.414   2.966  0.0498  2.2191 -1.3362
  319DG     H15 7329   2.454   0.399   2.352 -1.3990  1.6672 -1.4384
  319DG     H16 7330   2.583   0.276   2.374  0.5545 -0.1341 -0.2378
  319DG     C17 7331   2.612   0.423   2.762 -0.1117 -1.0630  0.1038
  319DG     C18 7332   2.558   0.422   2.531  0.0916 -0.6740 -0.3528
  319DG     O19 7333   2.574   0.347   2.650  0.2388  0.1486  0.1138
  319DG     H20 7334   2.670   0.504   2.723 -1.4567 -1.4828 -0.7595
  319DG     H21 7335   2.514   0.467   2.784 -1.2337  0.0947  0.3721
  319DG     H22 7336   2.641   0.475   2.497  0.2287 -1.5766 -0.4725
  319DG     H23 7337   2.474   0.494   2.543  1.2360 -0.0609 -0.6198
  320DG      C1 7338   1.021   0.455   3.317 -0.0165 -0.1401  0.0737
  320DG      C2 7339   0.473   0.665   3.569  0.4358  0.0089  0.0339
  320DG      H3 7340   0.967   0.374   3.365  0.8789  2.3892  0.7035
  320DG      H4 7341   1.123   0.422   3.337  0.1399 -3.3558 -1.7368
  320DG      H5 7342   0.996   0.453   3.213 -1.2322  2.8948 -3.2323
  320DG      H6 7343   0.430   0.606   3.492  1.6662 -0.1463  0.0860
  320DG      H7 7344   0.480   0.606   3.661  0.8872 -0.6031  2.3068
  320DG      H8 7345   0.409   0.747   3.587 -3.0584 -0.0120  0.9280
  320DG      O9 7346   0.987   0.575   3.383  0.1604  0.2027  0.2838
  320DG     O10 7347   0.596   0.714   3.529 -0.8554 -0.5536  0.5766
  320DG     C11 7348   1.032   0.695   3.319  0.2269 -0.1861 -0.3640
  320DG     C12 7349   0.598   0.824   3.435 -1.1915 -0.8404 -0.6450
  320DG     H13 7350   1.007   0.690   3.213  0.9317  0.4197 -2.2700
  320DG     H14 7351   1.143   0.716   3.337 -1.7734 -2.2364 -0.7751
  320DG     H15 7352   0.543   0.908   3.480 -1.8396  1.0524  1.0494
  320DG     H16 7353   0.530   0.803   3.355 -1.2640 -2.9374 -2.4547
  320DG     C17 7354   0.952   0.806   3.382  0.1662  0.1973 -0.3357
  320DG     C18 7355   0.733   0.882   3.412 -0.0537  0.2338  0.1498
  320DG     O19 7356   0.813   0.769   3.378 -0.3330  0.0048 -0.2387
  320DG     H20 7357   0.970   0.901   3.327 -0.3813 -0.9919 -0.4839
  320DG     H21 7358   0.979   0.815   3.484 -0.6863 -2.6530 -1.8035
  320DG     H22 7359   0.730   0.948   3.328 -1.4830 -0.6052 -1.3739
  320DG     H23 7360   0.770   0.928   3.504 -1.0210  1.7089  0.2200
  321DG      C1 7361   4.346   4.610   4.954  0.6038 -0.2543 -0.1630
  321DG      C2 7362   4.009   4.941   4.372 -0.8892 -0.2770 -0.3944
  321DG      H3 7363   4.285   4.526   4.997  0.1241 -1.7626  1.5788
  321DG      H4 7364   4.316   4.694   5.010  4.2029 -1.9387 -1.0657
  321DG      H5 7365   4.451   4.592   4.979  1.4428  0.4349 -0.5488
  321DG      H6 7366   4.102   4.996   4.393 -0.5988  1.9495 -0.8731
  321DG      H7 7367   3.989   4.928   4.261  2.3738 -0.4269 -2.7882
  321DG      H8 7368   3.927   4.991   4.425  0.4862 -0.1022  2.1354
  321DG      O9 7369   4.341   4.626   4.809 -0.3165  0.2812  0.1443
  321DG     O10 7370   4.027   4.809   4.434 -0.3659 -0.5702 -0.0641
  321DG     C11 7371   4.402   4.745   4.763  1.0863  0.4342 -0.8663
  321DG     C12 7372   4.114   4.721   4.376 -0.3173  0.3048 -0.1540
  321DG     H13 7373   4.501   4.756   4.792 -0.5639  1.0253  1.1745
  321DG     H14 7374   4.349   4.839   4.798  0.7046 -0.3562 -0.2895
  321DG     H15 7375   4.103   4.726   4.270  0.6182  0.5639  0.8867
  321DG     H16 7376   4.079   4.620   4.400  0.2029 -0.3151  1.4078
  321DG     C17 7377   4.393   4.749   4.609 -0.3450  0.2702  0.1047
  321DG     C18 7378   4.256   4.732   4.419 -0.8804  0.1042  0.5771
  321DG     O19 7379   4.260   4.735   4.560  0.4819  0.4343  0.0938
  321DG     H20 7380   4.447   4.669   4.570 -2.7536  1.4036 -0.7062
  321DG     H21 7381   4.440   4.840   4.575 -2.5128 -0.4019  1.6307
  321DG     H22 7382   4.306   4.642   4.376 -0.2716 -2.0734 -1.2281
  321DG     H23 7383   4.305   4.822   4.396  2.3904  0.7813 -2.1156
  322DG      C1 7384   2.009   1.286   2.624 -1.1051  0.2390 -0.7617
  322DG      C2 7385   1.805   2.035   2.910  0.4108 -0.8318 -0.5426
  322DG      H3 7386   1.943   1.235   2.692  0.5419 -0.6272 -2.9709
  322DG      H4 7387   2.072   1.207   2.586 -2.2965  0.9246  1.8626
  322DG      H5 7388   1.953   1.320   2.536  2.4987 -1.3678 -1.5689
  322DG      H6 7389   1.760   1.966   2.980 -0.6804  0.5055  0.8976
  322DG      H7 7390   1.877   2.098   2.963  1.3077 -1.0656  3.1751
  322DG      H8 7391   1.723   2.098   2.861 -1.0005  1.8948  1.6548
  322DG      O9 7392   2.083   1.386   2.700  0.0600 -0.4336 -0.0480
  322DG     O10 7393   1.869   1.963   2.804 -0.2777  0.3038 -0.0109
  322DG     C11 7394   2.002   1.490   2.756 -0.4906 -0.2150 -0.7302
  322DG     C12 7395   1.784   1.910   2.710  0.0431  0.7325  0.6092
  322DG     H13 7396   2.029   1.520   2.864  0.2575  0.3545 -0.4499
  322DG     H14 7397   1.908   1.444   2.775  0.4059  2.0218 -2.4809
  322DG     H15 7398   1.744   1.998   2.654  0.6893  1.5656 -2.2391
  322DG     H16 7399   1.694   1.865   2.756  4.5162 -0.3703  1.2077
  322DG     C17 7400   1.984   1.604   2.653  0.0020 -0.5499  0.4530
  322DG     C18 7401   1.875   1.812   2.631  0.7256 -0.1927  0.0115
  322DG     O19 7402   1.906   1.707   2.713  0.3481 -0.6042 -0.4134
  322DG     H20 7403   1.923   1.565   2.574 -3.2952  1.0769  1.4967
  322DG     H21 7404   2.072   1.629   2.598 -0.9638 -1.0857  2.5003
  322DG     H22 7405   1.812   1.778   2.551 -0.5629  0.6674 -1.6001
  322DG     H23 7406   1.964   1.857   2.579 -0.6351 -1.8860 -0.8746
  323DG      C1 7407   0.248   2.584   1.129  0.0454 -0.0217 -0.2502
  323DG      C2 7408   0.922   2.776   1.606 -0.3279 -0.6662  0.4666
  323DG      H3 7409   0.186   2.504   1.085 -0.3710  1.6921 -0.2794
  323DG      H4 7410   0.267   2.661   1.063 -0.8982 -1.4148  0.4496
  323DG      H5 7411   0.191   2.624   1.219 -0.6455 -0.2798 -0.5713
  323DG      H6 7412   1.016   2.746   1.653 -0.3101  0.7900  1.5553
  323DG      H7 7413   0.933   2.841   1.519 -1.6204 -0.6851  1.2209
  323DG      H8 7414   0.870   2.837   1.686  2.4144  3.1099 -0.2988
  323DG      O9 7415   0.371   2.515   1.158  0.4188  0.0903  0.0045
  323DG     O10 7416   0.841   2.666   1.560  0.5107  0.0538  0.6009
  323DG     C11 7417   0.478   2.598   1.190 -0.1859  0.0693 -0.0729
  323DG     C12 7418   0.891   2.607   1.446 -0.2689  0.6671 -0.2128
  323DG     H13 7419   0.455   2.664   1.273  1.8385  2.1202 -2.1178
  323DG     H14 7420   0.498   2.667   1.107 -2.9789  0.0816 -0.7943
  323DG     H15 7421   0.980   2.552   1.474  0.1223 -0.2543  0.9498
  323DG     H16 7422   0.912   2.684   1.369  0.8258  3.0588  3.2170
  323DG     C17 7423   0.595   2.516   1.238 -0.5401 -0.4802 -0.0626
  323DG     C18 7424   0.793   2.509   1.377  0.6723  0.3997  0.4542
  323DG     O19 7425   0.684   2.592   1.317  0.3417 -0.6030  0.1236
  323DG     H20 7426   0.639   2.458   1.159 -2.6950  0.0111 -0.9712
  323DG     H21 7427   0.548   2.439   1.305 -2.6464  1.8801  0.5067
  323DG     H22 7428   0.844   2.465   1.290 -1.2954  0.5402 -0.0981
  323DG     H23 7429   0.756   2.427   1.442 -0.7960  0.3348  2.3248
  324DG      C1 7430   2.983   5.276   5.487 -0.2493  0.3315 -0.2922
  324DG      C2 7431   2.936   4.884   4.932  0.6173 -0.6042 -0.0495
  324DG      H3 7432   3.000   5.262   5.594 -0.4380 -1.0327  1.1074
  324DG      H4 7433   2.885   5.254   5.455  1.4017 -0.5887 -0.6295
  324DG      H5 7434   2.994   5.382   5.471  2.2965 -0.8562  0.1112
  324DG      H6 7435   2.996   4.800   4.886  0.6474 -1.9149  3.1529
  324DG      H7 7436   2.846   4.844   4.982  1.2655 -0.9445 -0.0626
  324DG      H8 7437   2.912   4.948   4.851 -0.2189  0.3186 -1.0785
  324DG      O9 7438   3.075   5.208   5.399  0.9265  0.7404 -0.0738
  324DG     O10 7439   3.028   4.950   5.019  0.9735 -0.0299 -0.0962
  324DG     C11 7440   3.210   5.223   5.414 -0.6999  0.4498  0.1444
  324DG     C12 7441   3.132   5.019   4.962 -0.5284  0.5595 -0.5712
  324DG     H13 7442   3.241   5.164   5.499  0.9867  1.6042  2.3326
  324DG     H14 7443   3.245   5.324   5.432  1.1386 -3.0316 -1.3550
  324DG     H15 7444   3.097   5.105   4.909 -0.0531 -1.3892 -3.3108
  324DG     H16 7445   3.178   4.968   4.884 -0.6465  0.3888 -0.1152
  324DG     C17 7446   3.278   5.158   5.288 -0.0279  0.2213 -0.5699
  324DG     C18 7447   3.245   5.057   5.067  0.4607 -0.0543 -0.4121
  324DG     O19 7448   3.191   5.127   5.178 -0.1283 -0.3791 -0.3149
  324DG     H20 7449   3.326   5.062   5.317 -0.5522  1.0554  2.5608
  324DG     H21 7450   3.351   5.224   5.244  0.6509 -3.8302 -0.6931
  324DG     H22 7451   3.291   4.964   5.089 -1.0601  0.6525  0.8782
  324DG     H23 7452   3.314   5.129   5.020 -1.3258  0.0884  0.2950
  325DG      C1 7453   4.926   4.901   1.414 -0.0829  0.3390  0.6420
  325DG      C2 7454   4.816   4.975   2.161  0.2741  0.3995  0.3328
  325DG      H3 7455   4.827   4.874   1.385  0.4593  1.5537  1.9379
  325DG      H4 7456   4.998   4.820   1.439 -0.4963 -0.2023  0.3701
  325DG      H5 7457   4.961   4.945   1.325 -0.3502  1.1415  1.3998
  325DG      H6 7458   4.881   4.898   2.213 -0.9215 -4.4860  0.5291
  325DG      H7 7459   4.811   5.069   2.224  0.9020  0.5305 -0.6815
  325DG      H8 7460   4.711   4.948   2.157 -1.1515 -0.8918  1.8862
  325DG      O9 7461   4.925   4.984   1.523 -0.1489  0.0418  0.7723
  325DG     O10 7462   4.870   5.000   2.028 -0.3791  0.3663 -0.3309
  325DG     C11 7463   5.052   5.043   1.542  0.2843 -0.1736 -0.8268
  325DG     C12 7464   5.002   5.063   2.022 -0.3614  0.7735  0.3802
  325DG     H13 7465   5.086   5.095   1.456 -1.8889 -0.4066 -1.9036
  325DG     H14 7466   5.130   4.970   1.565 -0.8408  0.2321  1.9426
  325DG     H15 7467   5.084   4.988   2.038  1.7199 -2.5142 -1.4550
  325DG     H16 7468   5.002   5.134   2.099 -0.9091  0.5770 -2.7629
  325DG     C17 7469   5.048   5.136   1.662  0.7263  0.4846 -0.0713
  325DG     C18 7470   5.037   5.148   1.894  0.9169 -0.2844 -0.1835
  325DG     O19 7471   4.991   5.076   1.782 -0.2750  0.0467 -0.5325
  325DG     H20 7472   4.992   5.224   1.637 -2.2736 -1.4486  0.2190
  325DG     H21 7473   5.148   5.160   1.691  0.7507 -0.8641  1.7294
  325DG     H22 7474   4.993   5.244   1.896  3.0527 -0.0599  0.7504
  325DG     H23 7475   5.143   5.162   1.896  0.2315  1.0563 -2.0260
  326DG      C1 7476   4.515   2.799   5.307 -0.2281  0.7945 -0.5055
  326DG      C2 7477   4.226   2.298   5.928  1.1153  0.6900  0.3224
  326DG      H3 7478   4.601   2.826   5.246  0.5541  3.5940 -2.5518
  326DG      H4 7479   4.515   2.860   5.399  0.1491  1.9569  1.5491
  326DG      H5 7480   4.422   2.823   5.251 -1.2351  0.5907  0.8193
  326DG      H6 7481   4.182   2.196   5.926  0.5224  1.2625  0.7089
  326DG      H7 7482   4.294   2.317   6.014 -0.3084  0.7575  0.1065
  326DG      H8 7483   4.147   2.371   5.919  1.1963  1.2167 -2.4870
  326DG      O9 7484   4.529   2.664   5.341  0.1465  0.1410  0.5071
  326DG     O10 7485   4.301   2.318   5.816 -0.2120  0.2976  0.6943
  326DG     C11 7486   4.449   2.625   5.455 -0.2991  0.7466 -0.3480
  326DG     C12 7487   4.235   2.286   5.692 -0.4153 -0.8086 -0.8279
  326DG     H13 7488   4.345   2.661   5.436 -0.7589  1.1584 -3.3239
  326DG     H14 7489   4.493   2.667   5.546 -0.4452  0.9598 -0.5688
  326DG     H15 7490   4.145   2.341   5.685 -0.8956  0.4793  0.3318
  326DG     H16 7491   4.210   2.179   5.696  0.7620 -0.4272  1.8375
  326DG     C17 7492   4.462   2.471   5.458  0.5148 -0.0207  0.7860
  326DG     C18 7493   4.337   2.304   5.570 -0.7139 -0.7903  0.3146
  326DG     O19 7494   4.380   2.436   5.569  0.2434  0.4433  0.3745
  326DG     H20 7495   4.563   2.429   5.456 -1.2837 -0.8918  1.9461
  326DG     H21 7496   4.423   2.432   5.368  2.2847  2.1715  2.2486
  326DG     H22 7497   4.419   2.234   5.589 -3.4114 -1.4179  2.2250
  326DG     H23 7498   4.298   2.274   5.470  1.2280 -3.8186  1.6803
  327DG      C1 7499   4.551   1.979   3.716  0.0278 -0.2683 -0.4196
  327DG      C2 7500   4.221   2.119   3.150 -0.3944  0.4507 -0.7613
  327DG      H3 7501   4.595   1.876   3.729 -0.0811  0.3194 -0.8627
  327DG      H4 7502   4.568   2.030   3.805 -2.2441  0.7275 -0.1474
  327DG      H5 7503   4.596   2.030   3.631 -4.9765 -2.3154 -1.6401
  327DG      H6 7504   4.325   2.087   3.168 -0.5463  0.3612  1.7103
  327DG      H7 7505   4.176   2.068   3.071 -1.0386  0.0761  1.5009
  327DG      H8 7506   4.232   2.225   3.126 -1.3304 -2.2922 -1.9909
  327DG      O9 7507   4.412   1.969   3.690 -0.4225  0.2420 -0.2101
  327DG     O10 7508   4.140   2.121   3.268  0.8113 -0.8809 -0.1041
  327DG     C11 7509   4.348   2.096   3.698  0.1377 -0.0199 -0.9714
  327DG     C12 7510   4.096   1.992   3.304 -0.6986  0.4395 -0.0188
  327DG     H13 7511   4.411   2.154   3.631  0.1955  0.2993  1.8957
  327DG     H14 7512   4.359   2.129   3.798  2.4092 -1.2572  4.2330
  327DG     H15 7513   4.156   1.905   3.271  1.0277 -0.4792 -2.4469
  327DG     H16 7514   3.997   1.976   3.254  0.5327 -1.0820 -0.6787
  327DG     C17 7515   4.202   2.089   3.643  0.6062 -0.0515 -0.0698
  327DG     C18 7516   4.074   1.998   3.460 -0.6354  0.4559 -0.6332
  327DG     O19 7517   4.204   2.045   3.507  0.3031  1.0987 -0.1638
  327DG     H20 7518   4.150   2.180   3.652  0.4096 -3.1500 -2.3392
  327DG     H21 7519   4.155   2.017   3.711 -0.1487  1.1098 -1.5754
  327DG     H22 7520   3.998   2.075   3.484 -0.6632  1.2599  1.1373
  327DG     H23 7521   4.035   1.905   3.501  1.7650  1.7039  0.8750
  328DG      C1 7522   1.682   0.228   3.789 -0.1957  0.0633  0.8856
  328DG      C2 7523   1.762   0.672   4.236  0.1523  0.0093 -0.2651
  328DG      H3 7524   1.681   0.123   3.789 -1.3746 -1.7584 -2.1877
  328DG      H4 7525   1.705   0.261   3.689  0.6229  1.6381  1.4769
  328DG      H5 7526   1.574   0.257   3.799 -2.4707 -2.9688  3.0163
  328DG      H6 7527   1.660   0.670   4.279  0.3313  0.9394  0.2906
  328DG      H7 7528   1.832   0.734   4.300  2.0966  0.2129 -1.4765
  328DG      H8 7529   1.766   0.713   4.135 -0.1965 -0.4465  1.9248
  328DG      O9 7530   1.774   0.285   3.883  0.2482 -0.3863 -0.1383
  328DG     O10 7531   1.797   0.532   4.212  0.4558 -0.2031 -0.0521
  328DG     C11 7532   1.907   0.254   3.857  0.5156  0.1047 -0.0649
  328DG     C12 7533   1.936   0.518   4.210 -0.1366 -0.4798 -0.8696
  328DG     H13 7534   1.944   0.286   3.759 -0.8906  1.8190  0.8953
  328DG     H14 7535   1.942   0.151   3.873 -0.4430 -0.5772  3.3389
  328DG     H15 7536   1.974   0.543   4.304  1.5911 -1.4423 -0.8011
  328DG     H16 7537   1.980   0.592   4.139 -0.0126  2.5937  1.0315
  328DG     C17 7538   1.994   0.325   3.955  0.5343 -0.0635 -0.9383
  328DG     C18 7539   1.980   0.375   4.197  0.0260  0.6045 -0.0424
  328DG     O19 7540   1.927   0.311   4.080  0.6775  0.2592 -0.7276
  328DG     H20 7541   1.992   0.435   3.948  0.7613  0.7630  0.2242
  328DG     H21 7542   2.091   0.284   3.961 -0.2871  1.1505  1.6235
  328DG     H22 7543   2.086   0.372   4.192  1.6891  0.4753  0.2836
  328DG     H23 7544   1.950   0.317   4.285 -1.2754  2.2363  1.9566
  329DG      C1 7545   2.438   2.747   0.549 -0.1799 -0.4437 -0.5990
  329DG      C2 7546   2.974   3.168   0.667  0.3876  0.2556  0.4705
  329DG      H3 7547   2.462   2.642   0.564 -1.2400  1.6084 -1.7032
  329DG      H4 7548   2.459   2.770   0.453 -0.8086 -1.1781  1.0396
  329DG      H5 7549   2.332   2.748   0.570 -0.0469  0.5074  0.9094
  329DG      H6 7550   2.937   3.258   0.713 -1.5157 -0.7466  0.5020
  329DG      H7 7551   3.078   3.161   0.695  4.0090  1.0840 -1.2735
  329DG      H8 7552   2.956   3.182   0.556  0.4049 -1.3786  0.4808
  329DG      O9 7553   2.518   2.830   0.638 -0.2983  0.4279  0.0132
  329DG     O10 7554   2.890   3.063   0.721 -0.0904 -0.1728 -0.5788
  329DG     C11 7555   2.462   2.808   0.773  0.3801 -0.5170  0.1768
  329DG     C12 7556   2.887   3.031   0.865  0.3545 -0.3171  0.1428
  329DG     H13 7557   2.480   2.699   0.803  0.7508  0.4506  0.7142
  329DG     H14 7558   2.354   2.834   0.771 -1.9831  2.9287 -0.2101
  329DG     H15 7559   2.927   3.111   0.929 -0.2265 -2.2388  0.4643
  329DG     H16 7560   2.936   2.933   0.885 -0.0762  0.4967 -1.8066
  329DG     C17 7561   2.537   2.905   0.868  0.1926  0.0490  0.2677
  329DG     C18 7562   2.737   3.016   0.900 -0.6727 -0.0279 -0.2511
  329DG     O19 7563   2.665   2.922   0.820  0.5679 -0.8018  0.3186
  329DG     H20 7564   2.538   2.870   0.979 -1.8465 -0.9286  0.5096
  329DG     H21 7565   2.481   3.000   0.868  1.9884  1.9385 -0.2565
  329DG     H22 7566   2.734   2.997   1.010 -1.2725  0.8419 -0.2357
  329DG     H23 7567   2.695   3.112   0.897 -0.9769  0.4884  1.4385
  330DG      C1 7568   4.755   4.961   3.104 -0.3305  0.8003  0.0324
  330DG      C2 7569   5.017   5.584   3.098  0.3015  0.5090  0.5461
  330DG      H3 7570   4.767   4.963   2.996  0.8306 -0.6779 -0.7652
  330DG      H4 7571   4.655   4.923   3.120 -0.0073 -1.2122  0.2194
  330DG      H5 7572   4.816   4.871   3.143  2.1432 -0.3647 -1.0038
  330DG      H6 7573   5.117   5.550   3.118 -1.1672 -1.4298  0.7532
  330DG      H7 7574   4.996   5.581   2.986  2.1208 -0.5358  1.8288
  330DG      H8 7575   4.999   5.692   3.128  3.6019  1.0602  2.6092
  330DG      O9 7576   4.781   5.085   3.169  0.2248 -0.5745  0.7768
  330DG     O10 7577   4.928   5.508   3.176 -0.3075  0.6856  0.1523
  330DG     C11 7578   4.753   5.079   3.303  0.1143 -0.1924 -0.2324
  330DG     C12 7579   4.963   5.505   3.310  0.3761 -0.1048 -0.2586
  330DG     H13 7580   4.821   5.025   3.362  0.2643 -1.3746 -1.4508
  330DG     H14 7581   4.658   5.033   3.336 -2.9478  0.5176  2.8533
  330DG     H15 7582   4.964   5.607   3.356  2.4166  1.2961  0.1254
  330DG     H16 7583   5.063   5.474   3.329 -1.7243  1.4701  4.3094
  330DG     C17 7584   4.744   5.213   3.375 -0.1488 -0.1206  0.9339
  330DG     C18 7585   4.874   5.419   3.396  0.3659  0.1181 -0.4035
  330DG     O19 7586   4.851   5.291   3.324 -0.3114 -0.0105  1.1842
  330DG     H20 7587   4.745   5.218   3.482 -0.7013  0.1341 -1.4169
  330DG     H21 7588   4.652   5.262   3.335  2.2539 -1.5071 -2.0551
  330DG     H22 7589   4.911   5.405   3.500  1.3992  1.8218  1.2323
  330DG     H23 7590   4.782   5.481   3.408 -0.3223 -1.7238 -0.2284
  331DG      C1 7591   1.834   3.066   4.879 -1.1859  0.0096 -0.3154
  331DG      C2 7592   1.893   3.254   5.542 -0.6435  0.0949 -0.5376
  331DG      H3 7593   1.852   3.095   4.782 -0.5492  1.4581  1.9108
  331DG      H4 7594   1.733   3.069   4.902  3.2556  1.2475  0.2334
  331DG      H5 7595   1.851   2.963   4.888  0.1386  0.6133  3.7752
  331DG      H6 7596   1.811   3.332   5.528 -1.7829  0.1312 -0.2186
  331DG      H7 7597   1.849   3.158   5.557 -3.5111  0.1211 -0.8279
  331DG      H8 7598   1.932   3.288   5.641  0.2850  0.6190 -1.1067
  331DG      O9 7599   1.909   3.125   4.989 -0.1631 -0.1831  0.3278
  331DG     O10 7600   1.982   3.263   5.430 -0.1748  0.4605  1.0853
  331DG     C11 7601   2.049   3.111   4.979  0.5294 -0.2206 -0.1369
  331DG     C12 7602   2.105   3.193   5.446 -0.3385  0.2587  0.3047
  331DG     H13 7603   2.076   3.144   4.874  1.3073  0.9726 -0.8854
  331DG     H14 7604   2.079   3.005   4.985 -0.1777  2.6400  0.1720
  331DG     H15 7605   2.084   3.093   5.467 -2.2509  1.9631  1.4347
  331DG     H16 7606   2.162   3.235   5.532  1.4580  1.4209  2.4073
  331DG     C17 7607   2.132   3.190   5.075 -0.2540  0.0097 -0.6007
  331DG     C18 7608   2.176   3.206   5.307 -0.3134 -0.7835  0.1975
  331DG     O19 7609   2.101   3.143   5.205  0.7751  0.1013  0.0470
  331DG     H20 7610   2.106   3.297   5.060  0.2655  1.2290 -1.0246
  331DG     H21 7611   2.241   3.184   5.053 -0.7847  0.3885 -1.3608
  331DG     H22 7612   2.182   3.305   5.281  0.8266 -3.1089 -2.5111
  331DG     H23 7613   2.271   3.162   5.319 -1.7188 -1.7406  1.2211
  332DG      C1 7614   1.469   3.713   0.584  0.6732 -0.1951  0.2055
  332DG      C2 7615   1.065   3.927   0.149 -0.7786  0.0044 -0.2248
  332DG      H3 7616   1.485   3.815   0.573 -3.6630 -2.5390 -1.1541
  332DG      H4 7617   1.565   3.671   0.603 -1.0600 -0.7044 -0.6423
  332DG      H5 7618   1.403   3.709   0.678 -1.0391  0.4169  1.1743
  332DG      H6 7619   1.132   4.015   0.156 -1.2698  2.3881 -1.7469
  332DG      H7 7620   1.042   3.920   0.042  0.0405 -3.7256  0.2406
  332DG      H8 7621   0.970   3.949   0.196 -1.5512 -1.1666  1.6612
  332DG      O9 7622   1.405   3.657   0.467  0.6344  0.0598 -0.0019
  332DG     O10 7623   1.135   3.812   0.187  0.2913 -0.0974  0.0933
  332DG     C11 7624   1.341   3.535   0.504 -0.7266 -0.0111  0.1788
  332DG     C12 7625   1.057   3.697   0.165  0.4806  0.7547 -0.8805
  332DG     H13 7626   1.276   3.547   0.592 -0.9042 -1.2531  0.1237
  332DG     H14 7627   1.412   3.463   0.529 -1.0573  2.4704 -1.4060
  332DG     H15 7628   1.018   3.685   0.065  0.1751  0.6523  1.0485
  332DG     H16 7629   0.964   3.711   0.229  0.2725  0.8406 -1.8727
  332DG     C17 7630   1.263   3.481   0.381 -0.5202  0.4817 -0.0614
  332DG     C18 7631   1.124   3.575   0.219 -0.7733  0.2942 -0.3299
  332DG     O19 7632   1.187   3.595   0.337  0.0309 -0.1731  0.1933
  332DG     H20 7633   1.212   3.385   0.397 -1.6339 -0.9942  0.5042
  332DG     H21 7634   1.345   3.469   0.303  0.0785  0.5030 -1.1163
  332DG     H22 7635   1.051   3.497   0.218  0.4328 -0.1344 -2.5054
  332DG     H23 7636   1.212   3.558   0.153 -0.4926 -0.3598 -0.3176
  333DG      C1 7637   3.286   0.002   2.942 -0.4863 -0.3563 -0.1479
  333DG      C2 7638   3.577   0.191   3.514 -0.0149 -0.6443  0.0731
  333DG      H3 7639   3.204  -0.057   2.911  1.4439  0.5440  0.7775
  333DG      H4 7640   3.379  -0.062   2.943  2.6790 -3.4188  0.2947
  333DG      H5 7641   3.300   0.082   2.871 -0.6216  3.1866  0.9227
  333DG      H6 7642   3.628   0.092   3.521 -1.4439  0.0366 -0.9957
  333DG      H7 7643   3.644   0.260   3.465  2.3485 -1.1326  0.0635
  333DG      H8 7644   3.574   0.234   3.615  2.0426  0.8113  0.5632
  333DG      O9 7645   3.259   0.053   3.068 -0.1002  0.0606 -0.0403
  333DG     O10 7646   3.445   0.180   3.462 -0.1713  0.2568  0.7080
  333DG     C11 7647   3.170   0.171   3.068 -0.1286  0.5097  0.1715
  333DG     C12 7648   3.351   0.283   3.493  0.1827  0.7077 -0.5393
  333DG     H13 7649   3.085   0.148   2.996 -0.1797  0.1008 -0.0652
  333DG     H14 7650   3.226   0.245   3.025  1.0152 -1.0975  1.5081
  333DG     H15 7651   3.389   0.381   3.458  0.6520  1.5559 -1.1132
  333DG     H16 7652   3.341   0.283   3.599 -0.7794  0.2496  1.1562
  333DG     C17 7653   3.116   0.225   3.208  0.6653  0.0604 -0.2809
  333DG     C18 7654   3.218   0.263   3.422  0.6516 -0.4935  0.1736
  333DG     O19 7655   3.239   0.219   3.285  0.3505  0.7113  0.1458
  333DG     H20 7656   3.047   0.156   3.246 -2.6706  0.2504 -0.5429
  333DG     H21 7657   3.063   0.324   3.201  1.2987  0.7501 -0.5046
  333DG     H22 7658   3.154   0.177   3.455  1.8147 -1.7419 -0.0330
  333DG     H23 7659   3.167   0.359   3.435 -1.1677  2.5170 -1.2866
  334DG      C1 7660   5.018   2.452   3.370 -0.4497 -0.8004  0.4489
  334DG      C2 7661   5.529   1.770   3.252  0.0309  0.5090  0.3951
  334DG      H3 7662   4.955   2.402   3.300  2.8833  0.6061  0.9581
  334DG      H4 7663   5.074   2.532   3.316  0.7833  0.8373 -0.9257
  334DG      H5 7664   4.952   2.515   3.434  0.2746  0.4127 -0.2373
  334DG      H6 7665   5.499   1.736   3.151 -0.4322 -5.0600 -0.8411
  334DG      H7 7666   5.630   1.810   3.239  0.8417 -0.8642  1.7514
  334DG      H8 7667   5.533   1.672   3.299  1.7573  2.7597 -0.0259
  334DG      O9 7668   5.101   2.376   3.466 -0.2449  0.4249  0.0925
  334DG     O10 7669   5.444   1.857   3.314  0.1498  0.5026 -0.2370
  334DG     C11 7670   5.189   2.290   3.393 -0.0281 -0.0195  0.3371
  334DG     C12 7671   5.487   1.911   3.437  0.9209  0.4878  0.0822
  334DG     H13 7672   5.254   2.349   3.324  0.5626  2.4914 -1.4343
  334DG     H14 7673   5.119   2.230   3.349  0.9194  0.4304  3.4054
  334DG     H15 7674   5.570   1.976   3.410  0.5113  1.9656 -0.9844
  334DG     H16 7675   5.509   1.823   3.506 -1.9054 -0.2570 -1.0208
  334DG     C17 7676   5.247   2.194   3.498  0.2425 -0.7371  0.4144
  334DG     C18 7677   5.381   2.000   3.500  0.9835 -0.6526 -0.1654
  334DG     O19 7678   5.327   2.100   3.423  0.2899 -0.2439 -0.1095
  334DG     H20 7679   5.172   2.142   3.547  1.9197  0.6138 -0.1034
  334DG     H21 7680   5.303   2.258   3.559 -3.0173 -0.6343  0.2451
  334DG     H22 7681   5.314   1.946   3.561  0.7697  2.2290  0.6340
  334DG     H23 7682   5.439   2.049   3.582  0.7378  2.0818  0.1081
  335DG      C1 7683   1.150   3.144   3.791 -0.0178 -0.1357  0.4335
  335DG      C2 7684   0.977   2.792   3.982  0.3169  0.2316 -0.1316
  335DG      H3 7685   1.240   3.088   3.770 -0.1839 -2.1230 -0.9543
  335DG      H4 7686   1.124   3.175   3.686  1.2782 -0.2722 -2.0721
  335DG      H5 7687   1.078   3.076   3.833  0.6649 -0.7956  1.5471
  335DG      H6 7688   1.055   2.854   4.021 -0.3902  1.5014 -2.3308
  335DG      H7 7689   0.951   2.732   4.071 -2.8252 -2.0929  0.2503
  335DG      H8 7690   1.027   2.723   3.917 -1.0575 -1.0377 -0.6526
  335DG      O9 7691   1.172   3.259   3.875  0.1842 -0.1280  0.6413
  335DG     O10 7692   0.874   2.878   3.924  0.4573 -0.0880  0.1594
  335DG     C11 7693   1.053   3.331   3.897  0.6920  0.0942 -0.5005
  335DG     C12 7694   0.787   2.951   4.019  0.0758  0.4180  0.7749
  335DG     H13 7695   0.993   3.335   3.812  0.5642 -0.1066  0.7631
  335DG     H14 7696   1.080   3.435   3.921  0.3859  1.0071 -0.3720
  335DG     H15 7697   0.749   2.877   4.089  0.3458  0.9660 -0.1569
  335DG     H16 7698   0.714   2.997   3.951 -0.0186 -2.6538 -0.3828
  335DG     C17 7699   0.982   3.266   4.016  0.2519  0.2672  0.1272
  335DG     C18 7700   0.859   3.071   4.085 -0.0481  0.2680 -0.0872
  335DG     O19 7701   0.915   3.148   3.977  0.1185  0.1905 -0.4844
  335DG     H20 7702   0.898   3.340   4.032 -3.4927 -1.3061  3.3091
  335DG     H21 7703   1.041   3.271   4.112  0.6833 -1.7969 -0.8358
  335DG     H22 7704   0.784   3.125   4.144  1.3897 -0.3031 -1.6664
  335DG     H23 7705   0.935   3.042   4.155 -2.4063  2.1476  2.4486
  336DG      C1 7706   4.354   2.005   5.142  0.4076  0.1439 -0.3413
  336DG      C2 7707   4.877   1.647   5.099  0.4598 -1.0222  0.1249
  336DG      H3 7708   4.338   2.114   5.154 -0.5586 -0.0751  0.2955
  336DG      H4 7709   4.304   1.956   5.229  1.6921 -0.6015  2.4036
  336DG      H5 7710   4.303   1.975   5.055  1.5404 -0.8390 -0.7706
  336DG      H6 7711   4.830   1.747   5.117  1.5462 -1.7117  1.8354
  336DG      H7 7712   4.982   1.654   5.100 -0.4818 -1.6736  0.8841
  336DG      H8 7713   4.862   1.625   4.993 -1.1387 -3.2707 -1.0029
  336DG      O9 7714   4.491   1.972   5.140 -0.2350 -0.6866  0.1393
  336DG     O10 7715   4.839   1.547   5.193 -0.2955  0.1989  0.0508
  336DG     C11 7716   4.558   1.977   5.262 -0.0201  0.1352 -0.2120
  336DG     C12 7717   4.700   1.518   5.196 -0.0236  0.7434  0.8989
  336DG     H13 7718   4.502   2.041   5.321  2.5491 -2.8958 -1.0843
  336DG     H14 7719   4.660   2.024   5.256  3.5634  1.4665  2.3512
  336DG     H15 7720   4.684   1.421   5.245 -0.0423 -2.2206  0.9341
  336DG     H16 7721   4.660   1.515   5.092  1.3867 -0.9852 -1.1562
  336DG     C17 7722   4.568   1.840   5.329 -0.3819  0.2069  0.0827
  336DG     C18 7723   4.619   1.614   5.288  0.6430  0.1598 -0.4850
  336DG     O19 7724   4.626   1.749   5.231  0.2494 -0.2946  0.6254
  336DG     H20 7725   4.459   1.819   5.351 -0.0439  2.6836 -1.4757
  336DG     H21 7726   4.631   1.840   5.421 -1.2104  1.4540  1.3818
  336DG     H22 7727   4.512   1.583   5.295 -2.4855 -3.0102  0.7811
  336DG     H23 7728   4.663   1.614   5.387 -1.9340 -1.2855  4.2594
  337DG      C1 7729   3.638   2.115   5.114 -0.1818  0.1136  0.6200
  337DG      C2 7730   3.613   2.885   5.159 -0.3148  0.4102 -0.3424
  337DG      H3 7731   3.671   2.128   5.215 -0.0089 -0.3690  0.8671
  337DG      H4 7732   3.714   2.068   5.060 -1.5881 -1.3547  0.4598
  337DG      H5 7733   3.550   2.048   5.104  1.5058  0.7849 -2.9203
  337DG      H6 7734   3.705   2.911   5.114 -1.8615 -1.5337 -2.8538
  337DG      H7 7735   3.537   2.947   5.106  1.7843  0.5015 -2.1454
  337DG      H8 7736   3.617   2.928   5.265  0.4195 -0.0558 -0.7232
  337DG      O9 7737   3.604   2.234   5.039 -0.1040  0.1867 -0.7258
  337DG     O10 7738   3.568   2.751   5.155  0.0282  0.1903 -0.0529
  337DG     C11 7739   3.522   2.318   5.120  0.1775  0.2219 -0.0124
  337DG     C12 7740   3.450   2.727   5.227 -0.1001  0.2590 -0.1019
  337DG     H13 7741   3.581   2.335   5.207  1.3245 -0.7187 -1.7133
  337DG     H14 7742   3.424   2.267   5.144 -2.9479 -0.4896  1.2058
  337DG     H15 7743   3.354   2.770   5.179 -4.1389 -2.2333 -0.2612
  337DG     H16 7744   3.452   2.753   5.330  0.6375  0.8267 -0.9770
  337DG     C17 7745   3.497   2.445   5.039  0.5761  0.5210  0.1058
  337DG     C18 7746   3.435   2.575   5.232  0.8665  0.0810 -0.2211
  337DG     O19 7747   3.392   2.524   5.100 -0.2543  0.3887  0.0793
  337DG     H20 7748   3.447   2.425   4.949  0.2533  1.3610 -0.4665
  337DG     H21 7749   3.596   2.487   5.011  0.8940  0.7162  1.4218
  337DG     H22 7750   3.531   2.538   5.264 -0.1222  1.0312 -0.4973
  337DG     H23 7751   3.362   2.540   5.300  0.8373 -0.4264  0.1359
  338DG      C1 7752   3.870   2.563   0.452 -0.0283  0.0403  0.0597
  338DG      C2 7753   3.956   2.113  -0.205  0.0917 -0.0226  0.6856
  338DG      H3 7754   3.966   2.557   0.501  0.0599  0.0640  2.2905
  338DG      H4 7755   3.798   2.492   0.491 -0.3543 -0.9736 -0.5943
  338DG      H5 7756   3.836   2.661   0.471 -4.0820  2.9102  1.7608
  338DG      H6 7757   3.905   2.107  -0.304  0.8258 -2.4284  1.9605
  338DG      H7 7758   4.038   2.192  -0.202  2.0760  1.3556 -0.8491
  338DG      H8 7759   3.996   2.015  -0.184 -1.1559  1.2084 -0.2231
  338DG      O9 7760   3.890   2.557   0.309  0.0578  0.0560 -0.5709
  338DG     O10 7761   3.864   2.153  -0.108 -0.1990 -0.1113 -0.5530
  338DG     C11 7762   3.764   2.551   0.232  0.2686 -0.0924 -0.6239
  338DG     C12 7763   3.910   2.153   0.020 -0.2514  0.6452 -0.3861
  338DG     H13 7764   3.772   2.594   0.133  0.5641  0.7667  2.0139
  338DG     H14 7765   3.686   2.602   0.297 -0.2119 -2.0176  1.4999
  338DG     H15 7766   4.002   2.212   0.039 -0.1369 -2.8793  1.3106
  338DG     H16 7767   3.936   2.045   0.045 -0.7460  0.9426  3.9418
  338DG     C17 7768   3.722   2.406   0.225 -0.0851  0.1396  0.0422
  338DG     C18 7769   3.814   2.201   0.127 -0.5666  0.3098 -0.2976
  338DG     O19 7770   3.796   2.345   0.119  0.7525  0.0468 -0.1067
  338DG     H20 7771   3.621   2.399   0.192  1.8009 -0.7646  0.7467
  338DG     H21 7772   3.736   2.345   0.321 -0.0902  0.1755 -2.4894
  338DG     H22 7773   3.731   2.144   0.110 -1.7555  0.9365  1.5147
  338DG     H23 7774   3.855   2.173   0.228 -1.5130 -0.3409 -1.4878
  339DG      C1 7775   4.960   0.254   4.297 -0.1445  0.5524  0.0919
  339DG      C2 7776   5.616   0.401   4.333  0.1327 -0.5981  0.0629
  339DG      H3 7777   4.945   0.210   4.197  3.9372 -1.6966 -1.8501
  339DG      H4 7778   4.868   0.284   4.339 -1.9535 -0.7211  2.2473
  339DG      H5 7779   4.992   0.174   4.356  0.5606 -1.2608 -1.1486
  339DG      H6 7780   5.664   0.372   4.238  0.6832  1.8843 -0.2993
  339DG      H7 7781   5.689   0.466   4.384 -1.0532  1.8016 -0.7041
  339DG      H8 7782   5.597   0.306   4.381 -1.8002 -1.1162 -0.7873
  339DG      O9 7783   5.059   0.360   4.296 -0.0865 -0.9227 -0.0950
  339DG     O10 7784   5.488   0.459   4.329  0.4594 -0.0478 -0.7374
  339DG     C11 7785   5.032   0.461   4.198 -0.0500 -0.0138 -0.0940
  339DG     C12 7786   5.502   0.582   4.263 -0.2051 -0.6057 -0.4856
  339DG     H13 7787   4.921   0.490   4.205 -1.1728 -3.2024 -2.4858
  339DG     H14 7788   5.031   0.414   4.096  1.1744  0.8663 -1.5116
  339DG     H15 7789   5.544   0.570   4.163 -0.2626  0.2645  0.6848
  339DG     H16 7790   5.574   0.655   4.307  1.6029  1.7235  0.0913
  339DG     C17 7791   5.128   0.585   4.219 -0.1123  0.2862 -0.0120
  339DG     C18 7792   5.354   0.640   4.264  0.0021  0.2817 -0.2222
  339DG     O19 7793   5.258   0.535   4.250 -0.8801  0.2867  0.3101
  339DG     H20 7794   5.089   0.647   4.292 -0.9656 -2.3647  1.8219
  339DG     H21 7795   5.116   0.652   4.135 -3.5759  1.5368  0.5239
  339DG     H22 7796   5.324   0.684   4.357  3.3713 -0.8535 -1.0814
  339DG     H23 7797   5.345   0.720   4.188 -0.7374 -0.1300  0.4380
  340DG      C1 7798   4.700   3.792   5.279  0.1554 -0.6593  0.3725
  340DG      C2 7799   3.936   4.009   5.113 -0.5393 -0.9474 -0.0836
  340DG      H3 7800   4.732   3.688   5.292 -1.9645  4.1315 -1.9862
  340DG      H4 7801   4.749   3.856   5.351 -0.2432 -0.0873 -0.7797
  340DG      H5 7802   4.748   3.831   5.184  1.4539  1.8318 -1.1424
  340DG      H6 7803   3.973   4.106   5.087 -1.2338  1.4498 -0.2317
  340DG      H7 7804   3.900   3.958   5.029  1.6470  1.4200 -0.0188
  340DG      H8 7805   3.845   4.044   5.163  2.2846  0.4475 -3.0863
  340DG      O9 7806   4.559   3.802   5.277  0.2141  0.0816 -0.0943
  340DG     O10 7807   4.023   3.929   5.191  0.1061  0.1534 -0.4189
  340DG     C11 7808   4.505   3.741   5.392  0.1010 -0.1706 -0.1155
  340DG     C12 7809   4.099   4.012   5.291  0.5594  0.4618 -0.3133
  340DG     H13 7810   4.574   3.737   5.476 -0.1264 -2.7071  1.3241
  340DG     H14 7811   4.479   3.637   5.377 -2.6184  2.1417 -0.0782
  340DG     H15 7812   4.027   4.076   5.344  0.6591 -1.2151  1.8801
  340DG     H16 7813   4.175   4.081   5.246 -1.4337  0.6536  1.9726
  340DG     C17 7814   4.382   3.812   5.439 -0.5190  0.8115 -0.0059
  340DG     C18 7815   4.185   3.938   5.393 -0.4603  0.0446  0.3462
  340DG     O19 7816   4.298   3.872   5.329  0.0988 -0.0971  0.7746
  340DG     H20 7817   4.408   3.896   5.507 -2.2539 -0.4745  0.3094
  340DG     H21 7818   4.324   3.747   5.498  1.0948  0.4777  3.1607
  340DG     H22 7819   4.220   4.012   5.458 -1.1767 -1.3722  0.5003
  340DG     H23 7820   4.132   3.870   5.452 -1.4527  1.2989  1.4737
  341DG      C1 7821   2.948   1.136   3.541 -1.2228 -0.6927  0.9907
  341DG      C2 7822   2.508   0.705   2.977  0.6071  0.0641  0.1608
  341DG      H3 7823   2.924   1.239   3.563 -0.1246 -1.2286  1.8600
  341DG      H4 7824   3.030   1.151   3.469 -0.0254 -0.4075  0.0200
  341DG      H5 7825   2.991   1.110   3.636  1.0891  0.8664  2.5527
  341DG      H6 7826   2.479   0.801   2.931  0.2488  0.4114 -2.4183
  341DG      H7 7827   2.609   0.683   2.941  1.6911 -1.9343  1.4587
  341DG      H8 7828   2.444   0.627   2.942  0.0183 -0.9137  2.6250
  341DG      O9 7829   2.846   1.059   3.491 -0.0101  0.6775  0.0377
  341DG     O10 7830   2.515   0.686   3.117  0.4419 -0.0923 -0.0267
  341DG     C11 7831   2.722   1.059   3.554 -0.1179 -0.3367  0.2995
  341DG     C12 7832   2.582   0.796   3.180 -0.1058 -0.1515 -0.7338
  341DG     H13 7833   2.653   1.146   3.533 -1.0939  1.3900  0.5927
  341DG     H14 7834   2.728   1.054   3.663 -0.1601  0.7103 -0.3888
  341DG     H15 7835   2.528   0.880   3.169  0.0935 -1.6345 -1.4520
  341DG     H16 7836   2.679   0.807   3.138 -3.5182 -1.7573 -0.8096
  341DG     C17 7837   2.643   0.929   3.511 -0.3270  0.3914  0.0404
  341DG     C18 7838   2.594   0.783   3.330 -0.2434 -0.8324  0.0993
  341DG     O19 7839   2.615   0.918   3.374  0.0662 -0.2007  0.3117
  341DG     H20 7840   2.556   0.945   3.571  1.9218 -1.2062  1.7727
  341DG     H21 7841   2.693   0.838   3.545 -0.1085 -1.6212  2.0130
  341DG     H22 7842   2.502   0.731   3.370 -0.0210 -1.4072  1.6367
  341DG     H23 7843   2.674   0.722   3.362  0.8906  0.7214  0.3964
  342DG      C1 7844   2.967   4.472   1.560 -0.0613  0.0304  0.1320
  342DG      C2 7845   2.605   4.728   2.086 -0.3595 -0.0327  0.0942
  342DG      H3 7846   3.038   4.399   1.524 -1.8730 -1.4662  0.5122
  342DG      H4 7847   3.020   4.561   1.530  0.2802  0.1236 -0.4187
  342DG      H5 7848   2.863   4.461   1.524  0.3911  0.4663  1.1280
  342DG      H6 7849   2.629   4.824   2.052  0.3089  0.7270  2.4000
  342DG      H7 7850   2.525   4.686   2.024 -0.2107  1.4950 -1.3309
  342DG      H8 7851   2.567   4.719   2.188  1.3431 -1.0121 -0.7668
  342DG      O9 7852   2.977   4.465   1.698 -0.0048 -0.2460  0.0931
  342DG     O10 7853   2.723   4.654   2.056 -0.7562 -0.1453  0.1351
  342DG     C11 7854   2.920   4.346   1.745  1.8593 -0.3950  0.2523
  342DG     C12 7855   2.698   4.530   2.125 -0.2198  0.1472 -0.0200
  342DG     H13 7856   2.975   4.259   1.709  0.7677 -0.8926  0.6527
  342DG     H14 7857   2.812   4.334   1.703  0.7182  1.7317 -0.2830
  342DG     H15 7858   2.608   4.477   2.103  0.7474  0.4795  1.2621
  342DG     H16 7859   2.700   4.538   2.232 -1.2177 -0.9402  2.3982
  342DG     C17 7860   2.925   4.350   1.892 -0.2614 -0.0258 -0.5723
  342DG     C18 7861   2.823   4.443   2.086  0.0255  0.2400 -0.0104
  342DG     O19 7862   2.830   4.442   1.938 -0.3096 -0.8569  0.2616
  342DG     H20 7863   3.029   4.385   1.920 -0.7183  0.8887  0.9778
  342DG     H21 7864   2.908   4.246   1.921 -3.0852  0.3387 -1.3596
  342DG     H22 7865   2.902   4.499   2.126 -3.6191 -1.1086  0.5152
  342DG     H23 7866   2.809   4.343   2.137  2.1507 -2.3362 -1.2599
  343DG      C1 7867   3.162   0.157   4.154  0.2081  0.1215 -0.6496
  343DG      C2 7868   2.757  -0.358   4.355  0.5718  0.6479  0.4685
  343DG      H3 7869   3.249   0.090   4.165  0.7717 -1.5164 -1.1319
  343DG      H4 7870   3.186   0.263   4.151 -1.1073  2.7853 -0.4534
  343DG      H5 7871   3.107   0.129   4.066 -1.4249 -0.5112  0.6535
  343DG      H6 7872   2.846  -0.417   4.355  1.2813  0.7774 -1.4189
  343DG      H7 7873   2.685  -0.403   4.431  0.4464  2.7893  2.7946
  343DG      H8 7874   2.708  -0.365   4.260  3.3961 -0.3386  2.0500
  343DG      O9 7875   3.075   0.136   4.265  0.1176 -0.2565  0.7291
  343DG     O10 7876   2.783  -0.231   4.399 -0.0289  0.2407 -0.4151
  343DG     C11 7877   2.947   0.206   4.251  0.4918 -0.0292  0.5349
  343DG     C12 7878   2.668  -0.148   4.416  0.4805 -0.2945 -0.0343
  343DG     H13 7879   2.910   0.176   4.150  3.2810 -1.4256 -1.6149
  343DG     H14 7880   2.968   0.310   4.240  0.1889  0.0767 -1.3232
  343DG     H15 7881   2.602  -0.191   4.495  1.9668 -1.0347 -0.9448
  343DG     H16 7882   2.608  -0.139   4.324 -1.7832  0.4403 -1.0956
  343DG     C17 7883   2.859   0.172   4.373  0.4540  0.2457  0.5140
  343DG     C18 7884   2.727  -0.015   4.450  0.2703  0.3486  0.4332
  343DG     O19 7885   2.808   0.041   4.351 -0.3983 -0.2476  0.3881
  343DG     H20 7886   2.783   0.242   4.381 -0.5080 -3.2435  1.1160
  343DG     H21 7887   2.923   0.170   4.467  0.3653 -2.2959  1.5763
  343DG     H22 7888   2.648   0.050   4.479  2.7286 -2.3713 -1.1295
  343DG     H23 7889   2.789  -0.027   4.535  2.8016 -0.5431 -0.9956
  344DG      C1 7890   3.126   1.426   0.659  1.3326 -0.3316 -0.0990
  344DG      C2 7891   3.375   1.804   0.178  0.4292 -0.7675  0.1980
  344DG      H3 7892   3.120   1.370   0.750 -0.3218 -1.8841 -0.3145
  344DG      H4 7893   3.137   1.369   0.573 -1.0489  1.1714  0.2928
  344DG      H5 7894   3.031   1.471   0.635 -2.1222 -0.5340 -0.9453
  344DG      H6 7895   3.315   1.754   0.110 -1.2038 -1.5662 -0.0456
  344DG      H7 7896   3.407   1.902   0.135  0.8029  3.1642 -1.9923
  344DG      H8 7897   3.466   1.754   0.194 -1.4059 -0.1392  1.0389
  344DG      O9 7898   3.221   1.525   0.675 -0.6458 -0.4169  0.3238
  344DG     O10 7899   3.306   1.813   0.301 -0.2839 -0.0231  0.4382
  344DG     C11 7900   3.195   1.634   0.758 -0.1050  0.0866  0.3884
  344DG     C12 7901   3.341   1.920   0.387 -0.0902  0.8619  0.3355
  344DG     H13 7902   3.275   1.656   0.821 -4.0552  0.0433  0.4798
  344DG     H14 7903   3.113   1.607   0.828 -0.5505  0.8762  0.5349
  344DG     H15 7904   3.316   2.019   0.340  1.0578  1.9926  0.1535
  344DG     H16 7905   3.441   1.923   0.435  1.7463 -1.4411  1.9678
  344DG     C17 7906   3.168   1.763   0.684  0.0262  0.3720  0.1583
  344DG     C18 7907   3.245   1.910   0.501 -0.2748  0.5073 -0.5933
  344DG     O19 7908   3.274   1.797   0.591 -0.5051 -0.3740 -0.3852
  344DG     H20 7909   3.149   1.845   0.747  0.6478 -2.0796  1.8452
  344DG     H21 7910   3.081   1.741   0.618  1.4166  2.3926 -0.9305
  344DG     H22 7911   3.254   2.002   0.556  0.2035  2.7105 -0.2374
  344DG     H23 7912   3.146   1.901   0.470  0.2823 -2.3616  1.0224
  345DG      C1 7913   1.863   2.393   5.358 -1.0563  0.1215  0.1905
  345DG      C2 7914   1.565   2.947   5.839 -0.6265 -1.3915 -0.0792
  345DG      H3 7915   1.837   2.428   5.256  0.6192 -0.6065 -0.6448
  345DG      H4 7916   1.843   2.289   5.361  0.8054  1.6195 -2.3596
  345DG      H5 7917   1.970   2.411   5.385  2.1976  0.6012 -1.5801
  345DG      H6 7918   1.507   2.964   5.933 -1.6661 -1.3168  0.7144
  345DG      H7 7919   1.657   3.005   5.858  0.0101 -0.2029  1.4895
  345DG      H8 7920   1.503   2.990   5.769  1.4118  0.8400  2.4298
  345DG      O9 7921   1.792   2.467   5.463 -0.1248 -0.1995  0.5057
  345DG     O10 7922   1.607   2.817   5.821 -0.0703 -0.0542 -0.8505
  345DG     C11 7923   1.823   2.423   5.597 -0.8333 -0.1887  0.5981
  345DG     C12 7924   1.504   2.724   5.801  0.1204  0.2220 -0.3588
  345DG     H13 7925   1.904   2.491   5.635  0.0463  1.5503  1.8471
  345DG     H14 7926   1.869   2.313   5.594  3.0219 -2.8449  0.9529
  345DG     H15 7927   1.450   2.741   5.709  0.0858  2.1983 -2.5101
  345DG     H16 7928   1.429   2.735   5.879 -1.4872  0.4077  1.9314
  345DG     C17 7929   1.705   2.427   5.693 -1.0048 -0.4318 -0.2580
  345DG     C18 7930   1.552   2.574   5.801  0.2316 -0.6759  0.0017
  345DG     O19 7931   1.657   2.556   5.703 -0.2226 -0.1402  0.3604
  345DG     H20 7932   1.743   2.385   5.790  0.3040  0.6811  0.7607
  345DG     H21 7933   1.625   2.368   5.660 -0.0831  1.6873  0.2840
  345DG     H22 7934   1.588   2.542   5.896 -1.1843  2.7576  0.1499
  345DG     H23 7935   1.472   2.500   5.793  1.3001  2.7902  0.4735
  346DG      C1 7936   0.791   4.574   3.357 -0.0443 -0.6892  0.0852
  346DG      C2 7937   0.670   5.098   3.226  0.3119  0.3270 -0.1168
  346DG      H3 7938   0.808   4.676   3.344 -2.4369  1.7890 -2.4437
  346DG      H4 7939   0.834   4.539   3.453 -0.6764 -0.0143  0.5535
  346DG      H5 7940   0.689   4.552   3.345 -0.0665  1.8266  1.1281
  346DG      H6 7941   0.563   5.099   3.246 -0.3160  1.2346 -1.9274
  346DG      H7 7942   0.728   5.081   3.319 -0.1498 -0.6221  1.2694
  346DG      H8 7943   0.692   5.198   3.193 -0.5731 -0.9799 -1.9391
  346DG      O9 7944   0.865   4.497   3.266 -0.3397 -0.5046 -0.3311
  346DG     O10 7945   0.684   5.002   3.123 -0.4023  0.0584 -0.6879
  346DG     C11 7946   0.822   4.511   3.132 -0.2384 -0.2847 -0.5032
  346DG     C12 7947   0.819   4.992   3.066  0.6208 -0.3015  0.2495
  346DG     H13 7948   0.722   4.518   3.124  1.0482 -0.4989 -2.9533
  346DG     H14 7949   0.856   4.415   3.086  0.9760 -2.2870  1.0028
  346DG     H15 7950   0.896   5.015   3.146  2.8400  1.8004 -0.9025
  346DG     H16 7951   0.822   5.073   2.990  0.3051  1.4864 -1.5983
  346DG     C17 7952   0.889   4.626   3.054  0.2742 -0.3153 -0.1401
  346DG     C18 7953   0.842   4.854   3.010  0.2206 -0.4046 -0.3027
  346DG     O19 7954   0.856   4.755   3.112 -0.0557 -0.6052 -0.4331
  346DG     H20 7955   0.842   4.617   2.953  0.4237 -0.7994  1.6558
  346DG     H21 7956   0.998   4.622   3.027 -0.7334 -2.8241 -2.2166
  346DG     H22 7957   0.762   4.821   2.945 -1.4489  0.2484  1.0474
  346DG     H23 7958   0.933   4.859   2.951  3.4935  2.9983 -0.2414
  347DG      C1 7959   3.925   2.916   0.389  0.1553 -0.0241 -0.0203
  347DG      C2 7960   3.324   3.115   0.213  0.5933 -0.1074  0.6644
  347DG      H3 7961   3.973   2.843   0.452 -0.6329  1.5425 -3.4535
  347DG      H4 7962   3.983   3.012   0.406 -2.4604  3.5873 -0.1690
  347DG      H5 7963   3.924   2.881   0.282 -0.8451  4.8250 -1.2045
  347DG      H6 7964   3.386   3.200   0.220 -1.9540  0.8366 -1.9978
  347DG      H7 7965   3.347   3.065   0.117 -1.1296  0.2695 -3.3704
  347DG      H8 7966   3.227   3.166   0.199 -0.2000  0.6432  1.1429
  347DG      O9 7967   3.788   2.924   0.435 -0.0145 -0.0041  0.3537
  347DG     O10 7968   3.357   3.042   0.332  0.3893  0.6560 -0.1973
  347DG     C11 7969   3.769   2.941   0.575 -0.2767 -1.1567 -0.7256
  347DG     C12 7970   3.319   3.093   0.461 -0.2035  0.3110 -0.2083
  347DG     H13 7971   3.822   3.027   0.613 -0.9925  2.4866  3.3844
  347DG     H14 7972   3.827   2.877   0.636 -0.6311  3.8139 -1.1791
  347DG     H15 7973   3.215   3.089   0.492 -0.2367  1.0103  1.4505
  347DG     H16 7974   3.356   3.194   0.473 -2.1589  1.0422  3.4377
  347DG     C17 7975   3.621   2.930   0.626 -0.3668 -0.1307 -0.1493
  347DG     C18 7976   3.397   3.008   0.565  0.7955  0.3570 -0.4229
  347DG     O19 7977   3.536   3.015   0.540 -0.2555 -0.2347  0.9125
  347DG     H20 7978   3.606   2.942   0.733  2.9752  0.9359  1.7281
  347DG     H21 7979   3.611   2.821   0.610 -0.2007 -1.8526  1.4664
  347DG     H22 7980   3.388   3.035   0.671  2.2886 -0.8265 -0.0998
  347DG     H23 7981   3.366   2.909   0.548 -1.2754  2.0066 -2.7060
  348DG      C1 7982   0.526   4.273   2.315 -0.0605 -0.3397 -0.3493
  348DG      C2 7983  -0.161   4.044   2.205  0.0158 -0.0079  0.5669
  348DG      H3 7984   0.612   4.322   2.276 -1.7776  1.4424 -1.1503
  348DG      H4 7985   0.567   4.205   2.393  2.7730  1.8716 -0.1374
  348DG      H5 7986   0.458   4.338   2.372 -2.0852 -1.1647  0.1809
  348DG      H6 7987  -0.226   3.965   2.166  0.6715  1.8225  1.3569
  348DG      H7 7988  -0.180   4.053   2.313 -2.2706 -0.9991  0.3255
  348DG      H8 7989  -0.197   4.129   2.143 -2.0509  2.2971 -4.2733
  348DG      O9 7990   0.458   4.181   2.227  0.1957  0.2263 -0.2418
  348DG     O10 7991  -0.021   4.020   2.178  0.1963  0.1653  0.7195
  348DG     C11 7992   0.420   4.234   2.101  0.1940 -0.5802  0.1442
  348DG     C12 7993   0.007   3.999   2.039 -0.1063  0.8982  0.1482
  348DG     H13 7994   0.515   4.267   2.051 -1.0598  0.7870  0.8654
  348DG     H14 7995   0.351   4.323   2.109 -0.6477 -0.0868  0.6997
  348DG     H15 7996  -0.018   4.084   1.979  0.5385  0.9428 -0.2146
  348DG     H16 7997  -0.038   3.910   2.000  0.7568 -2.1209  1.9736
  348DG     C17 7998   0.350   4.120   2.029  0.1435 -0.0400  0.1887
  348DG     C18 7999   0.157   3.997   2.033 -0.7419 -0.2004  0.1005
  348DG     O19 8000   0.218   4.124   2.063  0.4511  0.3221 -0.4565
  348DG     H20 8001   0.396   4.023   2.052  0.1527 -2.0654  1.3266
  348DG     H21 8002   0.354   4.126   1.923  0.2596 -0.1456 -0.6110
  348DG     H22 8003   0.191   3.906   2.086 -0.8411  3.3085 -0.8485
  348DG     H23 8004   0.186   3.977   1.929  0.3889 -1.8212  0.8056
  349DG      C1 8005   0.792   0.728   1.345 -0.5194 -0.1548  0.5975
  349DG      C2 8006   0.076   0.496   1.359  0.1830  0.0945  0.9358
  349DG      H3 8007   0.795   0.745   1.454 -0.8125 -0.2286 -2.1642
  349DG      H4 8008   0.837   0.814   1.296  0.3662 -2.4627  1.4834
  349DG      H5 8009   0.843   0.638   1.324 -0.7953  0.4804 -0.0102
  349DG      H6 8010  -0.013   0.536   1.304  0.2952  2.7632 -0.0009
  349DG      H7 8011   0.078   0.391   1.356 -1.0487 -1.1566 -0.3540
  349DG      H8 8012   0.064   0.523   1.462  2.5017  1.6238  2.4064
  349DG      O9 8013   0.664   0.711   1.298  0.5899  0.0099  0.0538
  349DG     O10 8014   0.206   0.544   1.321  0.4965  0.1094  0.3296
  349DG     C11 8015   0.639   0.708   1.155  0.1367 -0.1135 -0.2477
  349DG     C12 8016   0.217   0.688   1.337  0.1876 -0.1840  0.0347
  349DG     H13 8017   0.666   0.612   1.115 -0.1533 -2.7934  1.7106
  349DG     H14 8018   0.717   0.769   1.114  0.3286  0.0636 -1.6979
  349DG     H15 8019   0.208   0.717   1.441 -0.2241 -0.6484  2.2123
  349DG     H16 8020   0.155   0.747   1.272 -0.3022 -0.9319  1.1163
  349DG     C17 8021   0.501   0.746   1.106  0.0190 -0.0480  0.3632
  349DG     C18 8022   0.359   0.724   1.299 -0.0665 -0.2707  0.1616
  349DG     O19 8023   0.399   0.665   1.175  0.1580  0.0502 -0.2246
  349DG     H20 8024   0.487   0.714   1.002  2.0302 -1.9905  0.6871
  349DG     H21 8025   0.477   0.852   1.118  0.3363  0.1873  0.3980
  349DG     H22 8026   0.386   0.827   1.301 -0.0818 -0.5227  1.4717
  349DG     H23 8027   0.424   0.688   1.375  3.5757 -0.3936 -4.1049
  350DG      C1 8028   1.114   0.028   1.681  0.1930  0.0499  0.5609
  350DG      C2 8029   1.216   0.487   1.235  0.5515  0.6133 -0.7563
  350DG      H3 8030   1.011  -0.007   1.697 -4.2931 -1.1953  1.0678
  350DG      H4 8031   1.128   0.110   1.748  1.7257  1.9079 -2.8564
  350DG      H5 8032   1.190  -0.044   1.713  1.4612  0.2486  0.2891
  350DG      H6 8033   1.195   0.530   1.335 -1.2218  1.4850  0.2908
  350DG      H7 8034   1.272   0.574   1.201 -1.5854 -1.2398 -0.2858
  350DG      H8 8035   1.119   0.482   1.184 -1.3407  2.4281  1.4330
  350DG      O9 8036   1.142   0.070   1.546 -0.1880  0.0611 -0.2060
  350DG     O10 8037   1.306   0.378   1.240  0.2714  0.3740  0.0579
  350DG     C11 8038   1.134  -0.030   1.444 -0.0844  0.6920  0.0580
  350DG     C12 8039   1.280   0.288   1.129  0.0389 -1.1359  0.4717
  350DG     H13 8040   1.033  -0.071   1.455 -0.0741 -0.5695  0.4888
  350DG     H14 8041   1.194  -0.120   1.476 -0.2486 -0.0148 -0.7395
  350DG     H15 8042   1.366   0.218   1.127  1.9036  0.1947  0.3591
  350DG     H16 8043   1.284   0.339   1.031  0.1124 -2.1731 -1.6328
  350DG     C17 8044   1.167   0.019   1.299 -0.3537  0.1534 -0.1861
  350DG     C18 8045   1.155   0.196   1.149  0.3782 -0.4627  0.4840
  350DG     O19 8046   1.142   0.155   1.282 -0.1002  0.3323 -0.4004
  350DG     H20 8047   1.109  -0.042   1.228 -2.8047 -0.0210  0.2419
  350DG     H21 8048   1.278   0.006   1.286  0.0338 -3.8607  0.8733
  350DG     H22 8049   1.063   0.248   1.125  0.3115 -0.5467  0.7215
  350DG     H23 8050   1.150   0.112   1.085 -1.0823 -1.1441  1.6837
  351DG      C1 8051   4.078   3.961   2.915 -0.0150 -0.2346 -0.4544
  351DG      C2 8052   3.827   3.345   2.969  0.1591  0.1976 -0.5247
  351DG      H3 8053   4.153   4.022   2.885  2.7736  0.2673  1.0350
  351DG      H4 8054   4.010   4.005   2.988  3.4654  2.6095 -0.9221
  351DG      H5 8055   4.022   3.946   2.820 -0.6940 -0.9614  4.7244
  351DG      H6 8056   3.829   3.367   2.864 -2.3577 -0.5928  0.8972
  351DG      H7 8057   3.838   3.244   2.992  0.3707  1.1246 -1.5392
  351DG      H8 8058   3.720   3.365   2.992  1.5323  1.6552 -1.3331
  351DG      O9 8059   4.129   3.834   2.958  0.3148  0.1925  0.3249
  351DG     O10 8060   3.921   3.433   3.037 -0.1048  0.2902 -0.1225
  351DG     C11 8061   4.180   3.827   3.092 -0.7392  0.3917  0.4911
  351DG     C12 8062   4.052   3.392   2.998 -0.4780  0.1382 -0.0657
  351DG     H13 8063   4.103   3.856   3.168 -2.9836  0.3440  2.0406
  351DG     H14 8064   4.259   3.903   3.099 -2.7444  0.4351 -1.3009
  351DG     H15 8065   4.063   3.409   2.893 -1.7275 -1.5862  1.1890
  351DG     H16 8066   4.064   3.280   3.014  0.6958  0.2642  3.2214
  351DG     C17 8067   4.237   3.688   3.113 -0.0002 -0.6750  0.0836
  351DG     C18 8068   4.143   3.471   3.080 -0.0466 -0.0018 -0.3314
  351DG     O19 8069   4.136   3.606   3.048 -0.1509  0.2340 -0.1100
  351DG     H20 8070   4.253   3.668   3.220 -0.3998  4.5381  0.0965
  351DG     H21 8071   4.336   3.678   3.060  2.1558  2.3762  1.3862
  351DG     H22 8072   4.118   3.470   3.186 -0.7623  4.0107 -1.4493
  351DG     H23 8073   4.245   3.430   3.081 -1.4667 -0.0583 -0.7564
  352DG      C1 8074   2.475   3.676   5.248  0.3043  0.3855 -0.4955
  352DG      C2 8075   2.458   3.730   4.552 -0.3297 -0.3691 -0.6544
  352DG      H3 8076   2.438   3.729   5.333  0.8829  0.6519  0.7818
  352DG      H4 8077   2.550   3.723   5.191 -0.8025  0.4526 -1.1183
  352DG      H5 8078   2.523   3.591   5.291 -1.6203  0.5742  0.0213
  352DG      H6 8079   2.548   3.684   4.555 -1.1907  0.4375  1.8550
  352DG      H7 8080   2.405   3.688   4.467  1.7264 -3.1946  1.3744
  352DG      H8 8081   2.482   3.841   4.538  0.9436  1.6599 -0.8344
  352DG      O9 8082   2.373   3.630   5.161  0.3089 -0.0512  0.2479
  352DG     O10 8083   2.403   3.696   4.675  0.2303  0.1363 -0.5458
  352DG     C11 8084   2.244   3.683   5.172  0.7308 -1.0605  0.7084
  352DG     C12 8085   2.282   3.763   4.694  0.6885 -0.6036  0.1137
  352DG     H13 8086   2.237   3.791   5.200  0.3308  0.5718 -0.2946
  352DG     H14 8087   2.199   3.623   5.254 -0.8897 -0.1737  1.8771
  352DG     H15 8088   2.234   3.746   4.594  0.5753 -3.0772  1.4140
  352DG     H16 8089   2.284   3.871   4.713 -1.0355  2.1316  0.6061
  352DG     C17 8090   2.163   3.671   5.040 -0.3968 -0.4155 -0.5194
  352DG     C18 8091   2.202   3.700   4.803  0.2367  0.6997  0.0713
  352DG     O19 8092   2.245   3.738   4.940 -0.2465  0.3703 -0.2257
  352DG     H20 8093   2.064   3.718   5.044  1.9058 -3.6758 -1.8830
  352DG     H21 8094   2.148   3.568   5.017  0.6868 -0.1734 -2.0750
  352DG     H22 8095   2.096   3.709   4.786 -2.2426 -0.3077 -0.9966
  352DG     H23 8096   2.211   3.593   4.788 -2.5920 -0.0697  2.0354
  353DG      C1 8097   1.886   5.330   3.856  0.5771 -0.3155  0.8958
  353DG      C2 8098   2.569   5.086   3.968  0.2497  0.2400 -0.1746
  353DG      H3 8099   1.839   5.426   3.826 -0.3681 -2.4292  0.3684
  353DG      H4 8100   1.935   5.335   3.948 -0.9609  0.6128  0.7152
  353DG      H5 8101   1.796   5.269   3.868 -1.6332  1.9250 -1.2682
  353DG      H6 8102   2.583   5.027   4.061 -0.8231 -0.4819 -3.4593
  353DG      H7 8103   2.666   5.089   3.923 -1.3520 -1.8583 -0.9754
  353DG      H8 8104   2.524   5.184   3.996 -2.1108  0.7398  0.7735
  353DG      O9 8105   1.955   5.277   3.743  0.8494  0.4264  0.0217
  353DG     O10 8106   2.469   5.018   3.889  0.3531  0.0068  0.0968
  353DG     C11 8107   2.001   5.138   3.772 -0.4592 -0.1512 -0.4274
  353DG     C12 8108   2.460   5.084   3.768 -0.6535 -0.1225 -0.0783
  353DG     H13 8109   1.915   5.070   3.772 -1.5373  2.2306 -1.8885
  353DG     H14 8110   2.044   5.126   3.870  1.6455 -1.0933  1.8583
  353DG     H15 8111   2.550   5.063   3.707  3.0311  3.0563  1.8208
  353DG     H16 8112   2.450   5.194   3.782 -2.6302  3.0794 -0.3691
  353DG     C17 8113   2.105   5.092   3.668 -0.2766  0.1975  0.1130
  353DG     C18 8114   2.340   5.049   3.686 -0.4542  0.5463 -0.0193
  353DG     O19 8115   2.228   5.123   3.729  0.0397 -0.1174  0.4931
  353DG     H20 8116   2.100   5.151   3.572 -0.3257  1.0116  0.3777
  353DG     H21 8117   2.083   4.988   3.662 -0.3922  2.5613 -1.1839
  353DG     H22 8118   2.363   5.072   3.587  0.5823 -0.9548  2.0460
  353DG     H23 8119   2.313   4.947   3.710 -0.7340 -2.5779  1.2135
  354DG      C1 8120   0.202   5.225   3.372  0.2163  1.1344 -0.0077
  354DG      C2 8121   0.189   6.000   3.297  0.1216  0.3041  0.3012
  354DG      H3 8122   0.224   5.135   3.436  2.4047  0.3496  0.2307
  354DG      H4 8123   0.257   5.205   3.283 -0.0607 -0.8842 -0.7655
  354DG      H5 8124   0.103   5.207   3.322  0.7254 -2.1386 -1.9868
  354DG      H6 8125   0.294   6.035   3.314  0.4619  1.9005  2.1299
  354DG      H7 8126   0.167   5.991   3.195  0.0069  3.5026  2.3864
  354DG      H8 8127   0.114   6.073   3.347  2.5624  0.7452 -0.1679
  354DG      O9 8128   0.223   5.351   3.429 -0.3894  0.1073  0.4546
  354DG     O10 8129   0.186   5.870   3.347  0.2093 -0.4322  0.3100
  354DG     C11 8130   0.118   5.384   3.515  0.6765 -0.5879  0.6347
  354DG     C12 8131   0.124   5.866   3.474  0.6816  0.5654  0.6502
  354DG     H13 8132   0.114   5.294   3.582  0.7156  2.0378  1.7537
  354DG     H14 8133   0.014   5.377   3.479 -1.0651 -3.5005  3.9670
  354DG     H15 8134   0.012   5.879   3.457 -2.0885  1.0132 -0.2122
  354DG     H16 8135   0.158   5.955   3.534 -0.5967 -2.4417  1.7479
  354DG     C17 8136   0.151   5.519   3.588  0.1613  0.9597  0.0786
  354DG     C18 8137   0.159   5.749   3.574 -0.3607  0.5183  0.8778
  354DG     O19 8138   0.150   5.627   3.496 -0.2427 -0.9814 -0.2152
  354DG     H20 8139   0.246   5.509   3.639 -1.0185  0.2643 -0.6597
  354DG     H21 8140   0.073   5.528   3.659  0.5325  3.0537 -3.6900
  354DG     H22 8141   0.261   5.755   3.607 -0.2093 -2.3101  1.8300
  354DG     H23 8142   0.092   5.750   3.663  0.3607  0.6594  1.5095
  355DG      C1 8143   0.585   4.769   1.718 -1.2586  0.6036 -0.6515
  355DG      C2 8144   0.712   4.710   2.384 -0.0089 -0.3046 -0.0136
  355DG      H3 8145   0.573   4.703   1.635 -1.8663 -2.8248  2.0929
  355DG      H4 8146   0.682   4.808   1.740 -1.6098  1.4858 -0.1935
  355DG      H5 8147   0.525   4.864   1.702 -3.2800  1.2359  0.1707
  355DG      H6 8148   0.695   4.817   2.373 -1.1987 -2.5731  1.0123
  355DG      H7 8149   0.695   4.685   2.488 -3.7602  2.3346 -1.9375
  355DG      H8 8150   0.815   4.691   2.363  0.1023 -1.0918 -0.4587
  355DG      O9 8151   0.541   4.693   1.826  0.0385  0.0868 -0.6413
  355DG     O10 8152   0.630   4.644   2.300  0.1231  0.3902 -0.0573
  355DG     C11 8153   0.402   4.702   1.844  0.2258  0.2946  0.0576
  355DG     C12 8154   0.497   4.682   2.316 -0.0667 -0.5609  0.1326
  355DG     H13 8155   0.342   4.659   1.770  3.3940 -1.0151 -0.5471
  355DG     H14 8156   0.369   4.810   1.842  3.5698  3.2487 -0.8510
  355DG     H15 8157   0.471   4.788   2.322 -1.4218  0.4646  0.1940
  355DG     H16 8158   0.453   4.645   2.408  0.5783  1.3156  0.7422
  355DG     C17 8159   0.365   4.640   1.980  0.1577  0.3236  0.1262
  355DG     C18 8160   0.423   4.633   2.202 -0.0938  0.0707  0.1910
  355DG     O19 8161   0.441   4.703   2.083 -0.0353 -0.5508 -0.4566
  355DG     H20 8162   0.379   4.536   1.971  1.5388 -0.1640  1.1401
  355DG     H21 8163   0.260   4.659   1.996  1.1065  0.1488 -0.8285
  355DG     H22 8164   0.439   4.519   2.192 -0.8622 -0.1380 -1.2043
  355DG     H23 8165   0.319   4.641   2.224  3.3358  0.6748 -2.7960
  356DG      C1 8166   0.061   3.862   2.483  0.0172  0.3884 -0.2130
  356DG      C2 8167   0.823   4.087   2.264 -0.1672  0.2938 -0.5581
  356DG      H3 8168   0.017   3.814   2.572 -1.3055 -0.1364 -0.4227
  356DG      H4 8169   0.004   3.839   2.391 -0.3849 -0.6473  3.3676
  356DG      H5 8170   0.077   3.971   2.505 -1.1467  1.3566  0.8513
  356DG      H6 8171   0.910   4.020   2.231 -1.1381 -2.0141 -0.3154
  356DG      H7 8172   0.784   4.163   2.186  0.1338  0.9090 -0.6907
  356DG      H8 8173   0.848   4.140   2.356 -0.6951 -2.5658 -1.2327
  356DG      O9 8174   0.199   3.817   2.473 -0.0273 -0.1683  0.0887
  356DG     O10 8175   0.715   3.992   2.294 -0.5703 -0.1043 -0.0314
  356DG     C11 8176   0.268   3.857   2.353 -0.6803 -0.0469  0.0538
  356DG     C12 8177   0.706   3.959   2.430  0.1517  0.1781 -0.3147
  356DG     H13 8178   0.267   3.967   2.332 -1.3903 -0.5063  0.1455
  356DG     H14 8179   0.208   3.805   2.276 -0.0857 -0.9721  0.0957
  356DG     H15 8180   0.658   4.043   2.478  0.1000  1.6206  1.3801
  356DG     H16 8181   0.803   3.959   2.476  0.2900 -2.5521  2.3611
  356DG     C17 8182   0.417   3.826   2.341  0.7931  0.0956  0.3286
  356DG     C18 8183   0.625   3.836   2.457  0.3394  0.0823 -0.9720
  356DG     O19 8184   0.488   3.861   2.462  0.4994  0.0416  0.4151
  356DG     H20 8185   0.442   3.877   2.250  0.4216 -0.5056  1.5189
  356DG     H21 8186   0.435   3.723   2.314 -0.7810  1.9883 -0.0716
  356DG     H22 8187   0.649   3.750   2.400  0.8855  0.6171  2.4191
  356DG     H23 8188   0.641   3.805   2.566  0.2757  0.3841  3.6869
  357DG      C1 8189   5.423   2.336   1.784 -0.5900  0.3128  0.5206
  357DG      C2 8190   5.927   2.127   1.309  0.5628 -0.5138  0.2415
  357DG      H3 8191   5.393   2.231   1.799 -1.7638 -0.1242 -1.7637
  357DG      H4 8192   5.345   2.403   1.808 -2.7668 -2.0342  0.2002
  357DG      H5 8193   5.506   2.358   1.854 -0.2337  1.0838  1.3996
  357DG      H6 8194   5.966   2.150   1.212 -0.8219 -1.7729  1.2879
  357DG      H7 8195   6.006   2.141   1.382 -0.9543 -0.5716  0.4186
  357DG      H8 8196   5.898   2.018   1.304 -0.7166  2.8303  0.1789
  357DG      O9 8197   5.467   2.351   1.649 -0.1666 -0.9988  0.6987
  357DG     O10 8198   5.814   2.203   1.352 -0.1180  0.2020 -0.3507
  357DG     C11 8199   5.360   2.296   1.572 -0.4238 -0.2324 -0.4494
  357DG     C12 8200   5.713   2.190   1.257  0.0015 -0.5083 -0.0615
  357DG     H13 8201   5.266   2.348   1.608 -1.5904  1.5167  2.2208
  357DG     H14 8202   5.349   2.188   1.589  1.5519 -1.6554 -0.6283
  357DG     H15 8203   5.686   2.081   1.268  0.1687 -1.3334  0.2883
  357DG     H16 8204   5.754   2.210   1.160  1.3102 -1.2992 -1.1993
  357DG     C17 8205   5.396   2.314   1.424  0.0224  0.3024 -0.1775
  357DG     C18 8206   5.590   2.286   1.285 -0.2677  1.2643 -0.4226
  357DG     O19 8207   5.520   2.241   1.400  0.2229  0.2171  0.1667
  357DG     H20 8208   5.404   2.422   1.398 -1.4896  0.5133  2.5325
  357DG     H21 8209   5.319   2.269   1.359 -0.0855 -1.1205 -0.1715
  357DG     H22 8210   5.627   2.386   1.296 -1.8722  1.1881  0.6257
  357DG     H23 8211   5.530   2.282   1.196 -3.1705  1.7990  1.7127
  358DG      C1 8212   2.908   5.326   3.996 -1.0513 -0.0638  0.4206
  358DG      C2 8213   3.228   5.505   4.546  0.3043 -0.0292 -0.4403
  358DG      H3 8214   2.816   5.265   4.013 -4.2701  0.8193 -0.0654
  358DG      H4 8215   2.935   5.314   3.892 -0.8429 -2.0409 -1.2994
  358DG      H5 8216   2.875   5.429   4.023 -2.4521  0.0610  0.1440
  358DG      H6 8217   3.147   5.477   4.612 -1.2612  0.5779  0.6135
  358DG      H7 8218   3.315   5.509   4.603  0.0727  2.4680 -1.3634
  358DG      H8 8219   3.200   5.611   4.521  3.4196 -0.6655 -1.1940
  358DG      O9 8220   3.014   5.293   4.082  0.2591 -0.1537  0.5296
  358DG     O10 8221   3.240   5.423   4.428  0.9390 -0.6954 -0.2898
  358DG     C11 8222   3.026   5.151   4.088 -0.4666 -0.3789  0.2102
  358DG     C12 8223   3.306   5.303   4.443  0.0280 -0.0242  0.0135
  358DG     H13 8224   3.052   5.118   3.992  0.3014 -0.9340  1.5597
  358DG     H14 8225   2.933   5.106   4.122 -1.9155 -0.3869 -0.0157
  358DG     H15 8226   3.251   5.262   4.523  0.0708 -3.2832 -1.9133
  358DG     H16 8227   3.409   5.315   4.470  0.0963  0.1152 -3.3817
  358DG     C17 8228   3.129   5.102   4.192 -0.3547 -0.1232  0.8282
  358DG     C18 8229   3.284   5.214   4.321 -0.2029 -0.5421 -0.2121
  358DG     O19 8230   3.155   5.212   4.276 -0.2164 -0.1440 -0.0034
  358DG     H20 8231   3.218   5.075   4.140  0.5013  0.3134 -1.3691
  358DG     H21 8232   3.086   5.021   4.245  0.9404 -1.2960  1.7148
  358DG     H22 8233   3.341   5.250   4.238 -2.3701  0.1241  2.9135
  358DG     H23 8234   3.329   5.111   4.346 -2.2651 -0.7423  1.7304
  359DG      C1 8235   5.177   5.126   4.677  0.0022  0.4304  0.6296
  359DG      C2 8236   5.902   5.354   4.377  0.1294  0.4461 -0.3121
  359DG      H3 8237   5.152   5.222   4.701  0.4791 -0.6439  1.3957
  359DG      H4 8238   5.218   5.093   4.772 -1.5878 -0.4987 -1.5915
  359DG      H5 8239   5.083   5.068   4.666  0.5474 -2.1218  0.2974
  359DG      H6 8240   5.897   5.350   4.482  2.6380  0.7748 -2.9874
  359DG      H7 8241   5.998   5.310   4.351 -0.4465 -0.1296  1.3676
  359DG      H8 8242   5.901   5.458   4.344 -0.8153  0.6038 -4.0071
  359DG      O9 8243   5.278   5.122   4.583 -0.1633 -0.4854 -0.2975
  359DG     O10 8244   5.796   5.286   4.313 -0.1332 -0.0679  0.4375
  359DG     C11 8245   5.231   5.165   4.454 -0.0636 -0.0342  0.1757
  359DG     C12 8246   5.682   5.257   4.392  0.9266  0.5355 -0.5030
  359DG     H13 8247   5.202   5.272   4.463  0.6631 -0.0412  0.7183
  359DG     H14 8248   5.140   5.111   4.428  0.8698  2.5716  0.5764
  359DG     H15 8249   5.651   5.342   4.447 -0.1670  0.4331  2.3799
  359DG     H16 8250   5.704   5.191   4.474 -0.0512  1.5835  0.9561
  359DG     C17 8251   5.344   5.152   4.349 -0.2807 -0.4227  0.6193
  359DG     C18 8252   5.568   5.199   4.309  1.3199 -0.1048  0.0241
  359DG     O19 8253   5.458   5.208   4.403  0.0676  0.4193 -0.0257
  359DG     H20 8254   5.310   5.206   4.259 -0.1483 -1.6518  1.0868
  359DG     H21 8255   5.373   5.043   4.331  0.3598 -2.5496 -0.7933
  359DG     H22 8256   5.556   5.249   4.214 -0.5609 -0.4922 -0.2999
  359DG     H23 8257   5.594   5.094   4.283  1.9698 -2.2198  2.6240
  360DG      C1 8258   0.343   1.063   3.729  1.1214 -0.0237  0.0932
  360DG      C2 8259  -0.263   1.608   3.594 -0.2755 -0.0895  0.3683
  360DG      H3 8260   0.405   0.970   3.742  2.3441 -1.6150  1.3089
  360DG      H4 8261   0.377   1.138   3.793  2.9017 -2.1181 -0.7027
  360DG      H5 8262   0.362   1.099   3.627 -1.1036 -1.4179  0.6898
  360DG      H6 8263  -0.372   1.597   3.572 -2.8139 -1.6559  0.1875
  360DG      H7 8264  -0.257   1.691   3.658 -0.0766  0.7058 -1.8682
  360DG      H8 8265  -0.200   1.628   3.504  0.6788 -0.2132 -0.9867
  360DG      O9 8266   0.201   1.034   3.738  0.4912 -0.2000  0.7103
  360DG     O10 8267  -0.228   1.487   3.645  0.2122  0.0432 -0.3468
  360DG     C11 8268   0.128   1.154   3.716 -0.3607 -0.7832  0.0005
  360DG     C12 8269  -0.236   1.377   3.556  0.0629  0.1258 -0.2382
  360DG     H13 8270   0.153   1.195   3.610 -1.0917 -2.0190 -2.3439
  360DG     H14 8271   0.160   1.229   3.791 -1.0633  1.3723 -1.5438
  360DG     H15 8272  -0.180   1.398   3.468 -1.3618  1.6127 -2.4639
  360DG     H16 8273  -0.346   1.367   3.532 -1.3855 -2.2767 -2.5142
  360DG     C17 8274  -0.022   1.134   3.722  0.2820  0.6039  0.2163
  360DG     C18 8275  -0.212   1.237   3.609 -0.0084 -0.6182  0.3468
  360DG     O19 8276  -0.071   1.236   3.633  0.3101  0.0017  0.4438
  360DG     H20 8277  -0.064   1.133   3.820 -0.2404 -1.5933  0.8574
  360DG     H21 8278  -0.057   1.039   3.674  0.0691  1.6423 -1.4696
  360DG     H22 8279  -0.264   1.219   3.703  0.6403 -1.1677 -1.0571
  360DG     H23 8280  -0.250   1.155   3.543 -4.2925 -0.7927 -1.4901
  361DG      C1 8281   5.284   1.279   2.262 -0.1578 -0.2041 -0.3993
  361DG      C2 8282   5.963   1.156   2.149 -0.5912  0.5736 -0.6132
  361DG      H3 8283   5.285   1.172   2.272  0.7672 -1.1618  1.1152
  361DG      H4 8284   5.247   1.297   2.162  1.6259 -1.5574  2.2792
  361DG      H5 8285   5.230   1.320   2.347 -1.0672  0.6580 -1.2744
  361DG      H6 8286   5.953   1.054   2.179 -1.5839 -1.4384  0.8547
  361DG      H7 8287   5.939   1.167   2.043  0.2053  2.2660  1.1241
  361DG      H8 8288   6.063   1.180   2.149  1.5677 -1.0748 -0.8437
  361DG      O9 8289   5.420   1.327   2.271  0.0409  0.1455  0.0827
  361DG     O10 8290   5.879   1.242   2.221  0.5990  0.5568  0.5785
  361DG     C11 8291   5.432   1.469   2.283  0.7284  1.0133 -0.3908
  361DG     C12 8292   5.901   1.376   2.181  0.1154  0.3832 -0.8412
  361DG     H13 8293   5.368   1.509   2.365 -1.5546 -0.2779 -1.6624
  361DG     H14 8294   5.389   1.506   2.192  0.5171 -3.0089  0.0135
  361DG     H15 8295   5.878   1.383   2.072  1.8913  0.2199 -3.0753
  361DG     H16 8296   5.999   1.418   2.207  0.3364 -0.0223 -2.8159
  361DG     C17 8297   5.584   1.508   2.304  0.0796 -0.2072 -0.3198
  361DG     C18 8298   5.800   1.460   2.261  0.2122 -0.1050  0.5134
  361DG     O19 8299   5.671   1.423   2.228  0.2611  0.6596 -0.1126
  361DG     H20 8300   5.605   1.502   2.411 -0.2923  0.4590 -0.1683
  361DG     H21 8301   5.603   1.611   2.290  2.3030  2.6737 -0.7469
  361DG     H22 8302   5.817   1.459   2.365  0.2270  0.4273 -2.6195
  361DG     H23 8303   5.816   1.564   2.225  1.2321  1.5462  0.9170
  362DG      C1 8304   4.965   5.185   2.857 -0.2225  0.2698 -0.2075
  362DG      C2 8305   4.549   5.581   3.307 -0.0298  0.2108  0.7229
  362DG      H3 8306   5.035   5.163   2.936 -1.0577 -0.7269 -2.2241
  362DG      H4 8307   5.022   5.211   2.771 -2.0664 -0.7470  0.4318
  362DG      H5 8308   4.896   5.103   2.851 -3.3557 -1.5820 -0.8899
  362DG      H6 8309   4.553   5.509   3.387 -0.4569  1.3910  0.2506
  362DG      H7 8310   4.619   5.654   3.350  1.1275 -1.9091 -3.6099
  362DG      H8 8311   4.445   5.610   3.299 -0.3194  0.6513 -0.6297
  362DG      O9 8312   4.903   5.312   2.885  0.5273 -0.4970  0.1527
  362DG     O10 8313   4.600   5.536   3.183 -0.4969  0.1082 -0.0759
  362DG     C11 8314   4.826   5.345   2.768  0.3967 -0.6218  0.0209
  362DG     C12 8315   4.590   5.647   3.089 -0.2177  0.1423 -0.3360
  362DG     H13 8316   4.763   5.259   2.739 -0.1653  3.3344  0.7149
  362DG     H14 8317   4.898   5.381   2.694  0.3881  0.4858  0.9645
  362DG     H15 8318   4.671   5.721   3.120 -5.0236  1.0773 -0.1466
  362DG     H16 8319   4.493   5.677   3.092 -1.1126 -3.2876 -3.1417
  362DG     C17 8320   4.741   5.476   2.787  0.2222 -0.6882  0.5279
  362DG     C18 8321   4.610   5.608   2.941  0.4032 -0.4769  1.0506
  362DG     O19 8322   4.716   5.511   2.925 -0.0296 -0.4598  0.2726
  362DG     H20 8323   4.650   5.477   2.718 -2.5309  3.4523  2.3127
  362DG     H21 8324   4.799   5.563   2.739  2.7094  0.3593 -1.9340
  362DG     H22 8325   4.526   5.564   2.893 -2.0571  1.9592 -2.5063
  362DG     H23 8326   4.640   5.701   2.882 -1.3531  2.2342 -2.0856
  363DG      C1 8327   1.656   1.533   3.180  0.0937  1.0317 -0.3326
  363DG      C2 8328   2.128   2.167   3.384  0.6079  0.6389  0.7605
  363DG      H3 8329   1.627   1.476   3.090 -0.6583 -1.6680  3.0780
  363DG      H4 8330   1.575   1.603   3.192 -2.0920 -1.7428 -1.0386
  363DG      H5 8331   1.647   1.472   3.267 -0.2554 -2.3159  0.1062
  363DG      H6 8332   2.233   2.166   3.412  0.2846 -0.7391 -0.1101
  363DG      H7 8333   2.113   2.269   3.343  0.9550 -1.2557  0.0739
  363DG      H8 8334   2.058   2.151   3.470 -0.2292 -2.2066  0.1321
  363DG      O9 8335   1.784   1.595   3.180 -0.1183 -0.1785  0.2346
  363DG     O10 8336   2.108   2.067   3.281 -0.3709 -0.3497 -0.4192
  363DG     C11 8337   1.782   1.693   3.080  0.0469  0.1226  0.0850
  363DG     C12 8338   2.147   1.933   3.300  0.2114 -0.6034 -0.4705
  363DG     H13 8339   1.709   1.772   3.125 -1.7345 -1.2431  1.4305
  363DG     H14 8340   1.738   1.666   2.985 -0.1461  1.7653 -1.5514
  363DG     H15 8341   2.117   1.899   3.407 -1.3585  2.0959  3.0958
  363DG     H16 8342   2.252   1.938   3.295 -0.5502 -1.2847  1.0082
  363DG     C17 8343   1.930   1.737   3.069  0.2433 -0.1535 -0.6799
  363DG     C18 8344   2.105   1.846   3.187  0.6053  0.2804 -0.4600
  363DG     O19 8345   1.966   1.812   3.187  0.2992 -0.2085  0.5316
  363DG     H20 8346   1.946   1.795   2.978 -0.6701 -2.9153  1.2252
  363DG     H21 8347   1.988   1.651   3.044  0.0557 -0.0247 -1.0987
  363DG     H22 8348   2.118   1.902   3.095  0.5354 -1.0951 -1.8213
  363DG     H23 8349   2.172   1.765   3.193  2.1298 -2.3378 -1.6302
  364DG      C1 8350   1.909   2.823   5.360  0.4692  0.3187  0.1581
  364DG      C2 8351   1.794   3.448   5.108  0.3333 -0.1637 -0.4586
  364DG      H3 8352   2.011   2.846   5.369  2.2370 -0.4092  1.6899
  364DG      H4 8353   1.885   2.751   5.279  0.5270 -0.0050  0.6829
  364DG      H5 8354   1.901   2.763   5.448  1.8474 -2.4302 -2.0940
  364DG      H6 8355   1.902   3.449   5.105 -0.6604  0.2499 -0.9431
  364DG      H7 8356   1.758   3.455   5.008  0.0416 -0.6594 -0.1761
  364DG      H8 8357   1.779   3.544   5.158  0.9416 -2.9048  0.2988
  364DG      O9 8358   1.821   2.933   5.371  0.3561  0.0175 -0.2330
  364DG     O10 8359   1.735   3.353   5.196  0.5063  0.4423  0.3702
  364DG     C11 8360   1.687   2.893   5.413  0.4986 -0.2928  0.2599
  364DG     C12 8361   1.609   3.296   5.152  0.2804 -0.6863 -0.1518
  364DG     H13 8362   1.680   2.849   5.514 -1.0865 -0.3313  0.6648
  364DG     H14 8363   1.653   2.811   5.341  0.5047 -2.2378  1.1385
  364DG     H15 8364   1.618   3.243   5.061  1.5434  3.3124 -2.4244
  364DG     H16 8365   1.538   3.379   5.143  2.8722 -0.0033 -2.1505
  364DG     C17 8366   1.598   3.019   5.393 -0.7888  0.2829 -1.0911
  364DG     C18 8367   1.550   3.206   5.252  0.5072 -0.2049 -0.6112
  364DG     O19 8368   1.639   3.089   5.273 -0.3014  0.0305  0.1418
  364DG     H20 8369   1.627   3.071   5.479 -1.2996  1.8386  1.0451
  364DG     H21 8370   1.493   2.997   5.390  1.0829  2.2655  1.1390
  364DG     H22 8371   1.537   3.264   5.344 -1.2366  0.4441  1.2776
  364DG     H23 8372   1.452   3.172   5.216  0.2580  1.3404 -0.4340
  365DG      C1 8373   1.878   3.032   4.443 -0.0280  0.2028  0.2308
  365DG      C2 8374   1.375   2.968   3.975  0.2134 -0.2537 -0.6777
  365DG      H3 8375   1.938   3.004   4.357  1.0106 -0.9267  1.3257
  365DG      H4 8376   1.939   3.005   4.528  2.2056  1.6912 -1.4186
  365DG      H5 8377   1.857   3.141   4.443 -1.0178 -2.2812 -1.4375
  365DG      H6 8378   1.270   2.983   3.995  0.5342  0.1538  0.3632
  365DG      H7 8379   1.415   3.065   3.936 -1.6321  0.6703 -0.4070
  365DG      H8 8380   1.390   2.900   3.885 -0.5180 -2.4396 -0.4935
  365DG      O9 8381   1.754   2.968   4.433 -0.1741 -0.4919 -0.6273
  365DG     O10 8382   1.449   2.931   4.087  0.4559 -0.0050 -0.3832
  365DG     C11 8383   1.768   2.827   4.427  0.4421 -0.5780  0.3350
  365DG     C12 8384   1.405   2.802   4.124 -0.4795  0.7842  0.5190
  365DG     H13 8385   1.806   2.787   4.520  0.4957 -0.8569  0.0310
  365DG     H14 8386   1.829   2.797   4.348 -2.3978  1.7517  0.5047
  365DG     H15 8387   1.446   2.720   4.062 -0.7935 -2.1912 -0.4844
  365DG     H16 8388   1.301   2.802   4.121  1.3824  0.1605 -1.2439
  365DG     C17 8389   1.629   2.766   4.410  0.3627  0.0388  0.0197
  365DG     C18 8390   1.445   2.777   4.266  0.3788  0.1454  0.1615
  365DG     O19 8391   1.581   2.809   4.286 -0.7806  0.5522  0.0984
  365DG     H20 8392   1.563   2.783   4.493 -1.8864 -0.5188  0.6047
  365DG     H21 8393   1.643   2.654   4.408 -0.8205 -1.1496 -1.7620
  365DG     H22 8394   1.394   2.848   4.331  1.4643  0.8500 -0.7667
  365DG     H23 8395   1.424   2.676   4.293 -0.7969  1.4913  0.1801
  366DG      C1 8396   0.613   4.968   0.276 -0.4468 -0.0908  0.5544
  366DG      C2 8397   0.547   4.327  -0.122 -0.1396 -0.2759 -0.2370
  366DG      H3 8398   0.689   5.048   0.283  1.4683  1.2375 -0.7864
  366DG      H4 8399   0.577   4.941   0.373 -0.7395 -0.8039 -4.6726
  366DG      H5 8400   0.527   5.012   0.225 -0.9495  0.2953  2.8124
  366DG      H6 8401   0.600   4.267  -0.186 -0.1340  2.0696  0.5472
  366DG      H7 8402   0.511   4.274  -0.042  0.7239 -0.5507  1.2058
  366DG      H8 8403   0.457   4.366  -0.178  2.6443  1.2523  0.2295
  366DG      O9 8404   0.663   4.841   0.235 -0.2858 -0.4728  0.0590
  366DG     O10 8405   0.628   4.433  -0.070  0.1519 -0.3536  0.2742
  366DG     C11 8406   0.689   4.832   0.094 -0.1219  0.2632  0.3011
  366DG     C12 8407   0.731   4.386   0.006  0.9686  0.3410 -0.2982
  366DG     H13 8408   0.784   4.876   0.061  0.8591 -2.8752 -1.1149
  366DG     H14 8409   0.611   4.877   0.040 -3.8290 -0.8478 -1.9562
  366DG     H15 8410   0.789   4.311  -0.049 -2.4631  1.5694  1.9757
  366DG     H16 8411   0.693   4.350   0.099 -0.4976  1.7460 -0.9559
  366DG     C17 8412   0.675   4.685   0.051  0.0829  0.7569 -0.0186
  366DG     C18 8413   0.828   4.502   0.040  0.0714  0.2106 -0.0837
  366DG     O19 8414   0.767   4.599   0.120 -0.5664  0.4203  0.4142
  366DG     H20 8415   0.691   4.686  -0.061  0.5948  1.2739 -2.0462
  366DG     H21 8416   0.581   4.637   0.081  1.1299  1.6250 -0.2210
  366DG     H22 8417   0.922   4.456   0.081 -0.1115 -0.9106  0.4657
  366DG     H23 8418   0.850   4.562  -0.053  3.3433  0.5928 -0.2186
  367DG      C1 8419   3.668   3.340   0.356  0.2221  0.3344 -0.8360
  367DG      C2 8420   3.466   2.735   0.188  0.0309  0.0514  0.1726
  367DG      H3 8421   3.637   3.307   0.457  0.4282  0.4767  0.7502
  367DG      H4 8422   3.613   3.429   0.327  0.9686 -0.2628 -0.7689
  367DG      H5 8423   3.775   3.368   0.368  3.6685 -1.5396  2.0785
  367DG      H6 8424   3.467   2.720   0.302 -2.3527 -0.2551 -0.0729
  367DG      H7 8425   3.385   2.799   0.166  3.0161  4.0667  0.6239
  367DG      H8 8426   3.432   2.644   0.139 -2.0931  1.9480  0.4455
  367DG      O9 8427   3.657   3.230   0.273  0.0699 -0.2644 -0.4528
  367DG     O10 8428   3.585   2.804   0.162 -0.3777  0.3190 -0.0582
  367DG     C11 8429   3.702   3.268   0.143  0.7572  0.1965  0.0156
  367DG     C12 8430   3.603   2.835   0.026 -0.0288 -0.3724 -0.5029
  367DG     H13 8431   3.806   3.290   0.142  1.7948  0.4794  1.6950
  367DG     H14 8432   3.645   3.348   0.094  0.2725  0.2156  0.5454
  367DG     H15 8433   3.517   2.892  -0.013  0.3729 -1.2667 -0.4228
  367DG     H16 8434   3.614   2.748  -0.041  1.7666 -1.0551  0.5338
  367DG     C17 8435   3.683   3.144   0.059  0.3353  0.2592  0.0167
  367DG     C18 8436   3.737   2.916   0.033  0.1992  0.8394 -0.3134
  367DG     O19 8437   3.738   3.024   0.120 -0.1645 -0.1563  0.1098
  367DG     H20 8438   3.729   3.170  -0.037  0.8889 -0.0717 -1.3951
  367DG     H21 8439   3.576   3.128   0.033 -1.3679 -0.4272 -3.2952
  367DG     H22 8440   3.823   2.854   0.063  0.9023  1.0131 -0.9848
  367DG     H23 8441   3.766   2.947  -0.066 -0.9330  1.6735 -0.2030
  368DG      C1 8442   0.133   0.164   5.380  0.7696  0.9264  0.3816
  368DG      C2 8443   0.727   0.276   5.250  0.3285 -0.4779 -0.9316
  368DG      H3 8444   0.120   0.214   5.285 -0.7488  3.4031 -1.4261
  368DG      H4 8445   0.047   0.179   5.446 -0.3613  0.0987  1.2764
  368DG      H5 8446   0.134   0.059   5.361 -0.4024  1.0900 -3.2858
  368DG      H6 8447   0.792   0.359   5.276  0.4590  0.3182 -2.5073
  368DG      H7 8448   0.789   0.183   5.235 -1.8689 -0.2383 -2.0067
  368DG      H8 8449   0.670   0.315   5.158 -1.6208  0.2565 -2.0927
  368DG      O9 8450   0.248   0.221   5.440  0.0616 -0.1921 -0.7161
  368DG     O10 8451   0.629   0.241   5.345 -0.1496  0.0645 -0.8042
  368DG     C11 8452   0.270   0.179   5.572 -0.7231 -0.2260  0.4681
  368DG     C12 8453   0.679   0.194   5.471  0.1510  0.4778  0.1135
  368DG     H13 8454   0.292   0.068   5.566 -2.8394 -2.1356  1.5190
  368DG     H14 8455   0.173   0.192   5.633  0.8111  0.5970  0.7043
  368DG     H15 8456   0.741   0.269   5.509  1.4513  0.1712 -0.7553
  368DG     H16 8457   0.754   0.116   5.467  2.0113 -0.5299  0.1342
  368DG     C17 8458   0.370   0.263   5.653 -0.2483 -0.2435 -0.5326
  368DG     C18 8459   0.564   0.155   5.563 -0.6273 -0.6030 -0.7496
  368DG     O19 8460   0.494   0.276   5.582 -0.6169 -0.5533 -0.0498
  368DG     H20 8461   0.388   0.217   5.751  3.1485  0.5156 -0.7571
  368DG     H21 8462   0.341   0.372   5.672  0.8724  1.8377  1.8545
  368DG     H22 8463   0.512   0.076   5.515 -0.7293  0.5475  0.5700
  368DG     H23 8464   0.602   0.114   5.658 -0.4386  0.9800 -1.2054
  369DG      C1 8465   0.363   1.672   1.103 -0.2888 -0.2050 -0.1921
  369DG      C2 8466   0.629   1.035   1.370 -0.2748 -0.4074 -0.4941
  369DG      H3 8467   0.267   1.685   1.051 -0.9846 -0.0731 -0.7127
  369DG      H4 8468   0.444   1.703   1.036 -1.1991  0.9766  1.2899
  369DG      H5 8469   0.371   1.751   1.181  0.8472 -2.7851  1.0564
  369DG      H6 8470   0.703   1.120   1.391  0.7252  2.9325  0.0755
  369DG      H7 8471   0.621   0.964   1.457 -2.9905  0.2679  1.7527
  369DG      H8 8472   0.672   0.983   1.287  2.4866  0.0001 -0.2139
  369DG      O9 8473   0.372   1.547   1.162 -0.2102 -0.1656 -0.3916
  369DG     O10 8474   0.497   1.083   1.351  0.0069 -0.2227  0.6254
  369DG     C11 8475   0.501   1.513   1.204  0.2466  0.4307  0.2492
  369DG     C12 8476   0.447   1.145   1.475  0.0836  0.0400  0.3173
  369DG     H13 8477   0.542   1.594   1.265  2.5104 -2.1283 -0.8897
  369DG     H14 8478   0.566   1.489   1.121 -2.7098  1.0735  0.6423
  369DG     H15 8479   0.489   1.094   1.562  1.6675  1.2198 -0.0536
  369DG     H16 8480   0.342   1.140   1.480  1.7378  0.4095  0.6094
  369DG     C17 8481   0.517   1.375   1.276  0.2405  0.2507  0.0473
  369DG     C18 8482   0.495   1.288   1.495  0.6070  0.7396 -0.3682
  369DG     O19 8483   0.437   1.373   1.395 -0.2582 -1.0621  0.1537
  369DG     H20 8484   0.621   1.336   1.293  0.1216 -1.7092 -1.2322
  369DG     H21 8485   0.476   1.291   1.230  1.9865 -2.5064  0.9568
  369DG     H22 8486   0.459   1.319   1.587 -1.7022  0.8170 -0.0939
  369DG     H23 8487   0.611   1.285   1.493  3.0681 -3.2730  0.2627
  370DG      C1 8488   4.262   5.222   4.157  0.6387  0.7836 -0.0910
  370DG      C2 8489   3.639   5.574   4.404  0.1394  0.0868 -0.4132
  370DG      H3 8490   4.196   5.141   4.198  1.3494  0.8412 -0.5887
  370DG      H4 8491   4.339   5.236   4.235  3.6319 -1.5828  1.0407
  370DG      H5 8492   4.314   5.176   4.075  2.9923  0.7545  1.0313
  370DG      H6 8493   3.605   5.672   4.373 -2.0206 -1.7715  1.9341
  370DG      H7 8494   3.549   5.538   4.454  0.8095 -0.6206  0.1030
  370DG      H8 8495   3.713   5.594   4.485 -0.2476 -2.2895  2.5352
  370DG      O9 8496   4.172   5.333   4.124  0.0489  0.4146  0.0040
  370DG     O10 8497   3.683   5.489   4.298  0.1526 -0.8324  0.3398
  370DG     C11 8498   4.066   5.297   4.040 -0.0964 -0.0304  0.0816
  370DG     C12 8499   3.710   5.358   4.349  0.3775  0.5749 -0.3849
  370DG     H13 8500   4.119   5.236   3.959  1.6885 -0.0850 -0.2449
  370DG     H14 8501   4.031   5.391   4.001  0.9747 -3.3843  2.7010
  370DG     H15 8502   3.623   5.315   4.398  0.3249 -2.5213  3.0198
  370DG     H16 8503   3.790   5.361   4.432 -0.4790  1.3003  0.8134
  370DG     C17 8504   3.942   5.233   4.090 -0.0076  0.2712  0.1716
  370DG     C18 8505   3.755   5.273   4.231 -0.4510  0.4281 -0.1088
  370DG     O19 8506   3.864   5.333   4.164 -0.2822 -0.5388  0.6322
  370DG     H20 8507   3.978   5.143   4.146 -0.3337 -1.8160 -1.2833
  370DG     H21 8508   3.886   5.190   4.014  3.5387  0.1589 -2.1089
  370DG     H22 8509   3.769   5.167   4.252 -0.3774  0.1071  1.6903
  370DG     H23 8510   3.671   5.271   4.161 -0.4910 -0.3434 -1.7634
  371DG      C1 8511   1.107   3.109   1.766  0.1486  0.2373  0.7574
  371DG      C2 8512   1.396   2.846   2.303  0.4283  0.3379  0.2279
  371DG      H3 8513   1.179   3.187   1.744  1.2199  1.7360 -2.1070
  371DG      H4 8514   1.015   3.125   1.711 -0.2460  0.6277 -1.1846
  371DG      H5 8515   1.143   3.020   1.717  4.6940 -1.2225 -2.1736
  371DG      H6 8516   1.398   2.743   2.255  0.1690 -1.2951 -1.7260
  371DG      H7 8517   1.483   2.903   2.272  0.7742  0.4665  1.0702
  371DG      H8 8518   1.399   2.837   2.410 -0.2947 -0.6603  2.9201
  371DG      O9 8519   1.072   3.108   1.902  0.0776  0.1770 -0.5689
  371DG     O10 8520   1.277   2.922   2.273  0.1836  0.2115  0.1529
  371DG     C11 8521   0.941   3.059   1.937 -0.4883  1.0546  0.1795
  371DG     C12 8522   1.161   2.845   2.291 -0.3575  0.1139  0.1145
  371DG     H13 8523   0.929   2.964   1.889  1.7662 -1.0021 -0.8690
  371DG     H14 8524   0.863   3.121   1.894  0.3947  0.4475 -1.4169
  371DG     H15 8525   1.155   2.809   2.389  0.1470  0.7036 -1.3619
  371DG     H16 8526   1.175   2.748   2.241  0.6191  1.2303 -1.7019
  371DG     C17 8527   0.927   3.048   2.089 -0.1019 -0.1173 -0.3318
  371DG     C18 8528   1.037   2.925   2.259 -0.2338  0.3217 -0.6259
  371DG     O19 8529   1.028   2.959   2.122 -0.2579  0.1922 -0.5454
  371DG     H20 8530   0.826   3.025   2.122 -0.2549  0.7087  0.7421
  371DG     H21 8531   0.954   3.141   2.142 -1.1562  3.9644 -1.5867
  371DG     H22 8532   0.952   2.870   2.292  1.3393 -2.3218  0.8193
  371DG     H23 8533   1.046   3.018   2.318  1.4254  2.8256  1.6438
  372DG      C1 8534   1.071   5.478   3.999 -0.2782 -0.2568 -0.4777
  372DG      C2 8535   0.499   6.015   4.421  0.2506 -0.4831 -0.2461
  372DG      H3 8536   1.154   5.469   3.926  1.1518  1.7395 -0.6011
  372DG      H4 8537   0.987   5.429   3.949 -0.7766 -2.3538  1.5381
  372DG      H5 8538   1.097   5.411   4.085  0.2686  2.3811  0.4308
  372DG      H6 8539   0.459   5.914   4.436  0.7594 -2.7784 -2.2698
  372DG      H7 8540   0.534   6.052   4.517  1.1965 -0.4780 -2.9610
  372DG      H8 8541   0.409   6.063   4.387 -1.5425 -1.4905 -1.0241
  372DG      O9 8542   1.051   5.610   4.046 -0.1760 -0.2377  0.3240
  372DG     O10 8543   0.610   6.003   4.329  0.0237 -0.1403  0.3022
  372DG     C11 8544   0.935   5.652   4.117  0.8075  0.6069  0.3430
  372DG     C12 8545   0.594   5.906   4.233  0.6552 -0.2174  0.4963
  372DG     H13 8546   0.924   5.580   4.199  0.2043 -3.8865  1.8197
  372DG     H14 8547   0.854   5.638   4.044  2.3255  0.4654  0.0111
  372DG     H15 8548   0.507   5.937   4.184  1.6526 -0.2857  2.4527
  372DG     H16 8549   0.582   5.810   4.279 -4.8355 -1.4804 -1.7331
  372DG     C17 8550   0.943   5.792   4.172 -0.5815  0.0617  0.6722
  372DG     C18 8551   0.726   5.895   4.149  0.4223 -0.5163 -0.3251
  372DG     O19 8552   0.835   5.847   4.243 -0.4086 -0.7086 -0.0075
  372DG     H20 8553   0.977   5.861   4.097 -1.6062  1.0814  0.5026
  372DG     H21 8554   1.034   5.783   4.230 -0.4490 -2.7380  0.1284
  372DG     H22 8555   0.709   5.818   4.074  0.3373 -2.0262 -2.3538
  372DG     H23 8556   0.740   5.986   4.089  3.4640 -1.4178 -0.6094
  373DG      C1 8557   1.234   5.162   0.605  0.0483 -0.9981 -0.4848
  373DG      C2 8558   1.978   5.139   0.380  0.3953  0.2098 -0.6810
  373DG      H3 8559   1.168   5.088   0.638 -1.7106 -1.3805 -0.2057
  373DG      H4 8560   1.188   5.206   0.517  1.4097 -3.5819  1.1946
  373DG      H5 8561   1.233   5.235   0.681  0.7895 -1.0024 -1.4596
  373DG      H6 8562   2.013   5.224   0.318 -1.6500 -1.5136 -0.6990
  373DG      H7 8563   2.047   5.057   0.361  2.1665 -0.6705 -1.8251
  373DG      H8 8564   1.876   5.112   0.348  1.1799 -2.9815  0.9199
  373DG      O9 8565   1.360   5.106   0.575  0.3951  0.0084 -0.3126
  373DG     O10 8566   1.966   5.180   0.521 -0.9506  0.0840  0.0118
  373DG     C11 8567   1.449   5.207   0.530  0.3823  0.5432 -0.4052
  373DG     C12 8568   1.895   5.294   0.556  1.2790 -0.5568 -0.5211
  373DG     H13 8569   1.463   5.271   0.621 -1.1730 -0.2572  2.9012
  373DG     H14 8570   1.418   5.252   0.440 -1.5374 -1.0651 -0.0636
  373DG     H15 8571   1.907   5.368   0.479  0.7991  0.3575 -1.8279
  373DG     H16 8572   1.947   5.334   0.643 -1.3211  1.1086 -0.4578
  373DG     C17 8573   1.574   5.126   0.493 -0.7236 -0.4085 -0.0367
  373DG     C18 8574   1.746   5.264   0.591 -0.4910  0.9471  0.1730
  373DG     O19 8575   1.689   5.208   0.473  0.5141  0.0834 -0.3652
  373DG     H20 8576   1.572   5.066   0.399  1.2425 -1.0956 -0.4895
  373DG     H21 8577   1.601   5.052   0.566 -2.6438  0.5040 -1.7010
  373DG     H22 8578   1.737   5.195   0.674  0.8558 -3.0185 -0.8040
  373DG     H23 8579   1.703   5.356   0.616 -1.5527 -0.3802  1.8600
  374DG      C1 8580   1.331   1.061   3.250  0.5663  0.5505  1.1676
  374DG      C2 8581   0.862   1.146   3.877  0.1952  0.4092  0.2581
  374DG      H3 8582   1.415   0.984   3.239  0.8520  0.0716  0.8324
  374DG      H4 8583   1.373   1.164   3.247  0.4103  1.4216  1.0024
  374DG      H5 8584   1.280   1.038   3.161  0.9383 -1.0803  0.4500
  374DG      H6 8585   0.953   1.148   3.938  0.6752  1.2237  0.2169
  374DG      H7 8586   0.811   1.235   3.899 -2.7489  0.8732 -1.4847
  374DG      H8 8587   0.809   1.059   3.923 -0.6955 -1.0378  3.0325
  374DG      O9 8588   1.241   1.032   3.355  0.1826  0.3428  0.3699
  374DG     O10 8589   0.877   1.131   3.735 -0.0133  0.2270  0.5028
  374DG     C11 8590   1.285   1.079   3.481 -0.1383 -0.4901 -0.1537
  374DG     C12 8591   0.948   1.246   3.689  0.5246  0.5260  0.1176
  374DG     H13 8592   1.298   1.192   3.467  0.4530  1.3075 -0.6831
  374DG     H14 8593   1.374   1.024   3.511 -0.7901  0.6243  2.0052
  374DG     H15 8594   1.031   1.265   3.746  1.2437 -3.3117  1.2816
  374DG     H16 8595   0.878   1.332   3.700 -2.3097 -0.3846 -1.1283
  374DG     C17 8596   1.170   1.057   3.580 -0.8572  0.1374 -0.2494
  374DG     C18 8597   0.993   1.226   3.541  0.2845  0.9339 -0.7571
  374DG     O19 8598   1.041   1.094   3.525 -0.0460  0.0551 -1.2215
  374DG     H20 8599   1.188   1.106   3.676 -2.3304 -0.9061  2.3935
  374DG     H21 8600   1.162   0.945   3.594  0.4560 -3.8833  1.9921
  374DG     H22 8601   0.911   1.245   3.471 -0.8251 -0.8629 -2.9885
  374DG     H23 8602   1.074   1.293   3.525 -1.0138  1.1240 -0.8238
  375DG      C1 8603   1.545   1.653   1.138  0.6053  0.2999  0.1962
  375DG      C2 8604   0.770   1.574   1.438 -0.4219 -0.5447 -0.4450
  375DG      H3 8605   1.637   1.619   1.089  1.7238 -2.5940 -0.5595
  375DG      H4 8606   1.572   1.676   1.239  0.1981 -0.8481 -2.2022
  375DG      H5 8607   1.514   1.734   1.087  0.6678 -0.9786  2.6048
  375DG      H6 8608   0.827   1.617   1.526  0.9748  1.2578 -0.0139
  375DG      H7 8609   0.715   1.661   1.407 -0.4470 -0.2755 -0.5700
  375DG      H8 8610   0.705   1.503   1.483  0.9336 -1.1541  1.0561
  375DG      O9 8611   1.452   1.559   1.114  0.0753 -0.0778 -0.3364
  375DG     O10 8612   0.857   1.525   1.337  0.0207  0.0453  0.1822
  375DG     C11 8613   1.321   1.584   1.177 -0.5132  0.6800  0.2037
  375DG     C12 8614   0.912   1.401   1.383  0.7448 -0.4538 -0.3858
  375DG     H13 8615   1.278   1.679   1.137 -0.6616  1.5186 -1.4086
  375DG     H14 8616   1.330   1.612   1.281  0.7561  0.4083  0.0434
  375DG     H15 8617   0.838   1.318   1.389 -0.8627 -1.1619 -1.5955
  375DG     H16 8618   0.939   1.414   1.490  2.5642  0.9283 -0.4194
  375DG     C17 8619   1.220   1.462   1.166  0.3022 -0.6504 -0.1771
  375DG     C18 8620   1.030   1.361   1.283  0.0953 -1.1979  0.0965
  375DG     O19 8621   1.115   1.478   1.263  0.5412 -0.4550 -0.1154
  375DG     H20 8622   1.263   1.369   1.190 -0.6829  1.8312 -0.0993
  375DG     H21 8623   1.177   1.454   1.066  0.7776  0.4254 -0.2356
  375DG     H22 8624   1.093   1.281   1.317 -0.8945  0.6919 -2.0375
  375DG     H23 8625   0.998   1.315   1.188  2.8949 -2.0716 -0.3113
  376DG      C1 8626   5.229   0.130   3.479 -0.1078 -0.9393 -0.2610
  376DG      C2 8627   4.969   0.624   3.118  1.1287  0.4376  0.4224
  376DG      H3 8628   5.183   0.034   3.489  2.3311  1.3682  2.3862
  376DG      H4 8629   5.330   0.128   3.516  2.5943  0.3091  0.5183
  376DG      H5 8630   5.228   0.157   3.375 -1.4191 -1.7687 -0.1402
  376DG      H6 8631   4.972   0.724   3.064 -1.9710  2.3342  1.3138
  376DG      H7 8632   5.051   0.559   3.095  0.0736  3.1041 -1.0335
  376DG      H8 8633   4.873   0.582   3.079  0.6840  0.4478  1.8209
  376DG      O9 8634   5.154   0.232   3.539  0.4239 -0.1821 -0.0781
  376DG     O10 8635   4.973   0.656   3.255  0.3189 -0.1134  0.1235
  376DG     C11 8636   5.230   0.352   3.560  0.5372 -0.0133  0.6622
  376DG     C12 8637   4.892   0.566   3.333 -0.4125  0.1553 -0.6933
  376DG     H13 8638   5.288   0.374   3.466  1.0499  0.8118 -0.0232
  376DG     H14 8639   5.301   0.333   3.644  0.6300  0.5048 -1.4401
  376DG     H15 8640   4.892   0.461   3.299  1.2264 -0.5451  0.5906
  376DG     H16 8641   4.794   0.589   3.325 -0.1545 -1.5189  3.0275
  376DG     C17 8642   5.134   0.462   3.595  0.5432 -0.1406  0.8275
  376DG     C18 8643   4.940   0.548   3.474  0.0235 -0.3154 -0.1785
  376DG     O19 8644   5.061   0.481   3.469  0.6366  0.3118 -0.4014
  376DG     H20 8645   5.182   0.555   3.619  1.2772  1.8907 -1.0667
  376DG     H21 8646   5.060   0.436   3.672 -1.6741  0.3555 -0.4737
  376DG     H22 8647   4.968   0.643   3.512 -2.1886 -0.3659  0.9281
  376DG     H23 8648   4.852   0.511   3.537 -1.3118 -0.8826 -0.5415
  377DG      C1 8649   5.083   3.200   3.420 -0.5385  0.4895 -0.3560
  377DG      C2 8650   5.494   2.574   3.499  0.2565 -0.4684  0.4637
  377DG      H3 8651   4.997   3.136   3.460 -0.8513 -3.3758  0.6164
  377DG      H4 8652   5.064   3.200   3.311  5.0291  0.2603  0.8416
  377DG      H5 8653   5.074   3.306   3.457  1.4607  1.8420 -1.7207
  377DG      H6 8654   5.387   2.546   3.527 -2.3739 -1.0586 -1.2617
  377DG      H7 8655   5.518   2.515   3.414 -0.6938  1.4701 -0.5757
  377DG      H8 8656   5.568   2.544   3.576  0.5591 -2.0511 -0.1549
  377DG      O9 8657   5.207   3.146   3.460  0.5241  0.0131 -0.7145
  377DG     O10 8658   5.501   2.715   3.479  0.9096 -0.2093 -0.3173
  377DG     C11 8659   5.327   3.204   3.400  0.4676  0.3641 -0.8569
  377DG     C12 8660   5.389   2.770   3.407 -0.6757  0.0595  0.2675
  377DG     H13 8661   5.330   3.314   3.393 -2.8174  1.9313 -1.1194
  377DG     H14 8662   5.316   3.188   3.290 -1.4378  1.4521  0.8885
  377DG     H15 8663   5.293   2.761   3.462 -2.4045  0.2361 -0.8535
  377DG     H16 8664   5.379   2.721   3.307 -0.3695  0.2421 -1.2562
  377DG     C17 8665   5.443   3.127   3.459 -0.8434 -0.1123 -0.2651
  377DG     C18 8666   5.412   2.920   3.365 -0.0103  0.3552  0.1223
  377DG     O19 8667   5.418   2.996   3.487 -0.2535  0.1774 -0.3116
  377DG     H20 8668   5.477   3.165   3.555 -0.5538 -1.2552  2.2828
  377DG     H21 8669   5.536   3.134   3.405  0.8171  1.5640 -1.2588
  377DG     H22 8670   5.496   2.918   3.300  1.3028 -0.1675  1.9585
  377DG     H23 8671   5.322   2.944   3.304  1.5670  1.8297  0.8689
  378DG      C1 8672   1.715   0.821   3.161  0.2890  0.4427 -0.0663
  378DG      C2 8673   2.239   1.145   3.391 -0.0354 -0.4919  0.0707
  378DG      H3 8674   1.650   0.828   3.244 -2.0988  2.3846 -3.7723
  378DG      H4 8675   1.677   0.746   3.089  0.6981  0.3127  0.9381
  378DG      H5 8676   1.701   0.914   3.110 -2.0350  1.3674  0.2563
  378DG      H6 8677   2.259   1.207   3.303 -0.1855 -2.8545 -1.3100
  378DG      H7 8678   2.156   1.177   3.451 -1.8544  1.0604  0.1742
  378DG      H8 8679   2.330   1.152   3.448  0.8760  0.3796 -1.2604
  378DG      O9 8680   1.852   0.804   3.196  0.5639 -0.4957 -0.3733
  378DG     O10 8681   2.238   1.016   3.334 -0.5135 -0.0267 -0.0612
  378DG     C11 8682   1.897   0.672   3.219 -0.0884 -0.8457 -0.0385
  378DG     C12 8683   2.258   0.914   3.426 -0.4603 -0.5959 -0.5502
  378DG     H13 8684   1.897   0.636   3.118  1.0732 -1.5055 -1.9192
  378DG     H14 8685   1.840   0.614   3.307  0.8629 -3.0570 -0.3512
  378DG     H15 8686   2.199   0.941   3.512 -0.1475  0.9579 -3.3536
  378DG     H16 8687   2.363   0.910   3.458  0.2333  1.3923 -2.7983
  378DG     C17 8688   2.042   0.671   3.255  0.2573  0.1357  0.4338
  378DG     C18 8689   2.215   0.779   3.379  0.7488  0.2067  0.2797
  378DG     O19 8690   2.079   0.780   3.334  0.1513  0.0120 -0.6296
  378DG     H20 8691   2.105   0.674   3.170 -2.6071 -0.7015 -1.0060
  378DG     H21 8692   2.059   0.579   3.313 -2.4440  1.2430 -0.1889
  378DG     H22 8693   2.275   0.737   3.286 -0.0458 -3.1634 -1.2943
  378DG     H23 8694   2.221   0.703   3.461  1.1209 -0.4817  0.9331
  379DG      C1 8695   3.705   1.129   5.300  0.3917  0.3768  0.8264
  379DG      C2 8696   3.634   1.870   5.407  0.0343  0.1385  0.1572
  379DG      H3 8697   3.754   1.039   5.342 -2.4273  0.5629 -0.3692
  379DG      H4 8698   3.751   1.140   5.204  2.8748  2.0818 -2.1600
  379DG      H5 8699   3.601   1.108   5.294  2.1068  1.3135 -3.0823
  379DG      H6 8700   3.526   1.869   5.380  3.0824  2.8894 -1.5275
  379DG      H7 8701   3.646   1.931   5.499  1.5569 -2.9095  2.6687
  379DG      H8 8702   3.698   1.905   5.326 -2.0157 -0.7837  0.5042
  379DG      O9 8703   3.721   1.242   5.386  0.1360  0.4036 -0.1176
  379DG     O10 8704   3.670   1.743   5.448 -0.3383 -0.4620 -0.1241
  379DG     C11 8705   3.857   1.274   5.416  0.2344 -0.4090  0.2672
  379DG     C12 8706   3.785   1.730   5.537  0.5317 -0.4802  0.7249
  379DG     H13 8707   3.907   1.313   5.325  0.2010  0.1062 -2.5180
  379DG     H14 8708   3.913   1.187   5.444  0.7594  0.7484  0.2185
  379DG     H15 8709   3.768   1.796   5.625  2.9730 -0.6697 -0.2391
  379DG     H16 8710   3.867   1.753   5.470 -0.7559 -1.6681  0.2892
  379DG     C17 8711   3.885   1.369   5.539  0.6103  0.3864 -0.4256
  379DG     C18 8712   3.800   1.586   5.598  0.1338 -0.2035  0.2103
  379DG     O19 8713   3.819   1.489   5.493  0.3292  0.9386  0.6219
  379DG     H20 8714   3.991   1.390   5.559  1.3957  2.0193 -0.5344
  379DG     H21 8715   3.851   1.335   5.638  0.2315  1.4744 -0.9919
  379DG     H22 8716   3.882   1.588   5.667 -0.8782  0.3923 -1.3512
  379DG     H23 8717   3.705   1.567   5.655 -0.7443 -1.1615  1.1223
  380DG      C1 8718   2.135   3.173   1.842  0.6872  0.1679 -0.0185
  380DG      C2 8719   2.146   3.041   1.205  0.0983  1.0047 -0.4745
  380DG      H3 8720   2.198   3.169   1.932 -0.0514 -0.2837 -0.6877
  380DG      H4 8721   2.077   3.086   1.831  2.6568  3.2069 -0.7170
  380DG      H5 8722   2.077   3.261   1.871 -1.7743  0.3075  1.2626
  380DG      H6 8723   2.039   3.059   1.199 -2.2004  0.1789  3.4610
  380DG      H7 8724   2.173   3.055   1.107 -2.3603  1.8868  0.2104
  380DG      H8 8725   2.158   2.936   1.237 -4.2385 -0.9813 -1.9714
  380DG      O9 8726   2.219   3.182   1.730 -0.3099  0.1970  0.7239
  380DG     O10 8727   2.200   3.140   1.293 -0.7772  0.3145  0.3144
  380DG     C11 8728   2.289   3.303   1.733  0.4351 -0.3021  0.4809
  380DG     C12 8729   2.337   3.126   1.290 -0.2847 -0.7389  1.1336
  380DG     H13 8730   2.347   3.309   1.824  1.3483 -1.1603 -1.7295
  380DG     H14 8731   2.226   3.389   1.749 -1.6750  1.8979  0.0623
  380DG     H15 8732   2.373   3.134   1.185 -2.6520 -0.1735  0.7494
  380DG     H16 8733   2.356   3.024   1.313  1.0638 -0.5623  0.7895
  380DG     C17 8734   2.379   3.323   1.599 -0.2844 -0.0508  0.4111
  380DG     C18 8735   2.395   3.226   1.385  0.1447  0.2130  0.4012
  380DG     O19 8736   2.329   3.223   1.509  0.1177  0.5312  0.2983
  380DG     H20 8737   2.482   3.310   1.622 -0.8757  1.1773 -0.1471
  380DG     H21 8738   2.378   3.428   1.555  0.7044  1.4897  0.7837
  380DG     H22 8739   2.504   3.206   1.386  0.4158  0.7292 -0.6785
  380DG     H23 8740   2.384   3.324   1.345 -2.8328  1.3279  1.7392
  381DG      C1 8741   0.144   2.320   5.272 -0.0121 -0.4456 -0.2377
  381DG      C2 8742   0.075   2.977   4.976  0.3028 -0.7930  0.0054
  381DG      H3 8743   0.143   2.289   5.170 -1.9444 -0.2364  2.5446
  381DG      H4 8744   0.056   2.279   5.320  0.4671  3.1463 -1.4406
  381DG      H5 8745   0.237   2.277   5.317 -1.3079  0.6202  0.4125
  381DG      H6 8746   0.089   3.084   4.981 -0.8989 -0.6718 -0.0778
  381DG      H7 8747   0.120   2.945   4.881  0.6481  1.0133 -1.2065
  381DG      H8 8748  -0.032   2.961   4.971  0.3405  0.5120  0.2874
  381DG      O9 8749   0.126   2.457   5.282  0.1667 -0.2475 -0.0654
  381DG     O10 8750   0.110   2.909   5.092  0.0431  0.2134  0.2676
  381DG     C11 8751   0.113   2.506   5.413  0.3273  0.8403 -0.5872
  381DG     C12 8752   0.048   2.944   5.212  0.0198 -0.2264 -0.7591
  381DG     H13 8753   0.162   2.455   5.493  2.6765 -3.1080  1.4376
  381DG     H14 8754   0.009   2.509   5.433 -0.5877 -0.3965 -2.8567
  381DG     H15 8755  -0.061   2.919   5.205  0.9210 -2.2191  0.6702
  381DG     H16 8756   0.054   3.050   5.219  1.7128 -0.2588 -0.2834
  381DG     C17 8757   0.153   2.656   5.428 -0.1281  0.2960  0.4883
  381DG     C18 8758   0.110   2.873   5.343  0.3727 -1.1138  0.9021
  381DG     O19 8759   0.101   2.729   5.318 -0.5190 -0.3374  0.4158
  381DG     H20 8760   0.258   2.675   5.445  2.2505  1.0489  1.2103
  381DG     H21 8761   0.106   2.691   5.525 -1.9691  2.6034 -2.1158
  381DG     H22 8762   0.209   2.898   5.341 -2.3364  2.7537  0.5172
  381DG     H23 8763   0.062   2.902   5.438 -0.8209 -0.3794  3.1266
  382DG      C1 8764   2.083   0.821   4.502 -0.0064  0.7344  0.1817
  382DG      C2 8765   2.647   1.109   4.428 -0.1529 -0.1165  0.3574
  382DG      H3 8766   2.073   0.718   4.545  1.9876 -0.0602  0.7897
  382DG      H4 8767   2.001   0.838   4.430  1.2076 -1.4088  1.8126
  382DG      H5 8768   2.082   0.894   4.580 -0.4282  0.8193  2.2037
  382DG      H6 8769   2.648   1.027   4.502 -1.5833 -2.1847 -3.2805
  382DG      H7 8770   2.747   1.135   4.393  1.7711 -2.6690 -0.9318
  382DG      H8 8771   2.591   1.183   4.489  2.3501 -1.0142  0.1176
  382DG      O9 8772   2.204   0.834   4.438  0.5732  0.2024 -0.3770
  382DG     O10 8773   2.563   1.064   4.325  0.3064  0.2050  0.0728
  382DG     C11 8774   2.241   0.735   4.350  0.1424  0.4100 -0.0132
  382DG     C12 8775   2.620   0.959   4.249  0.2576 -0.0542  0.2491
  382DG     H13 8776   2.168   0.717   4.266 -2.0648 -0.1633 -2.1504
  382DG     H14 8777   2.249   0.638   4.401 -0.1023 -2.2149 -1.3181
  382DG     H15 8778   2.646   0.873   4.314 -0.4906 -1.0727 -2.0914
  382DG     H16 8779   2.703   0.980   4.184  0.7009 -0.7460  1.0953
  382DG     C17 8780   2.382   0.770   4.293 -0.3290  0.6208 -0.2213
  382DG     C18 8781   2.511   0.910   4.150  0.0414 -0.4316 -0.2440
  382DG     O19 8782   2.389   0.891   4.224  0.4843  0.0853 -0.2943
  382DG     H20 8783   2.407   0.685   4.229  0.7500  1.9028  0.2244
  382DG     H21 8784   2.451   0.775   4.376 -0.0182 -0.3356 -3.8205
  382DG     H22 8785   2.500   0.989   4.070  1.8849 -1.9582  0.4636
  382DG     H23 8786   2.545   0.814   4.107  2.3158 -0.2947  1.8990
  383DG      C1 8787   1.213   4.353   3.164  0.3784 -0.1026  0.0205
  383DG      C2 8788   1.797   4.823   3.019 -0.5111 -0.2868 -0.2908
  383DG      H3 8789   1.153   4.428   3.216  0.8571 -1.0616 -0.8652
  383DG      H4 8790   1.261   4.311   3.253  2.2019 -1.5429  1.8398
  383DG      H5 8791   1.145   4.286   3.105 -1.1796 -1.4224 -2.4742
  383DG      H6 8792   1.865   4.790   3.098  1.9639  1.2896 -1.1057
  383DG      H7 8793   1.863   4.858   2.942  0.0662  0.4872 -2.8603
  383DG      H8 8794   1.738   4.905   3.061 -1.9767 -0.3996  3.4958
  383DG      O9 8795   1.314   4.414   3.084  0.0434  0.4390  0.4258
  383DG     O10 8796   1.712   4.718   2.974 -0.3351  0.1226 -0.1297
  383DG     C11 8797   1.255   4.469   2.969  0.0110 -0.3035  0.2607
  383DG     C12 8798   1.621   4.765   2.872 -0.6038 -0.2256  0.6136
  383DG     H13 8799   1.190   4.558   3.000 -4.2077 -1.4838 -0.1864
  383DG     H14 8800   1.182   4.400   2.921  0.3289 -0.1119 -0.7520
  383DG     H15 8801   1.682   4.814   2.788  1.8202  2.0211 -1.8738
  383DG     H16 8802   1.565   4.844   2.919 -0.1945  4.4599 -0.2494
  383DG     C17 8803   1.356   4.506   2.856 -0.3171 -0.7040 -0.2106
  383DG     C18 8804   1.529   4.655   2.816 -0.4941 -0.5442 -0.0982
  383DG     O19 8805   1.438   4.607   2.913 -0.7559 -0.2595  0.5343
  383DG     H20 8806   1.301   4.543   2.774  1.5861 -0.1152 -1.7088
  383DG     H21 8807   1.409   4.413   2.829  0.3310  0.3935  1.5463
  383DG     H22 8808   1.482   4.700   2.732  1.4773  0.7426  0.1791
  383DG     H23 8809   1.586   4.572   2.787 -1.4746 -2.4375  0.7180
  384DG      C1 8810   3.053   0.382   2.581  0.7394 -0.1071  0.7461
  384DG      C2 8811   3.315  -0.049   2.163 -0.7921  0.0021 -0.2924
  384DG      H3 8812   2.976   0.436   2.623 -0.3107 -2.5040 -1.0366
  384DG      H4 8813   3.094   0.444   2.502 -0.3247  1.8441 -0.1944
  384DG      H5 8814   3.124   0.368   2.660 -1.6549 -0.4151 -2.7088
  384DG      H6 8815   3.400   0.011   2.164 -2.5498  0.0781  0.4780
  384DG      H7 8816   3.365  -0.146   2.197  1.9289  1.8011  1.5220
  384DG      H8 8817   3.275  -0.057   2.066  3.2589 -0.9730  3.0396
  384DG      O9 8818   3.017   0.254   2.527  0.3719 -1.0156 -0.5192
  384DG     O10 8819   3.227  -0.016   2.266  0.0250 -0.0618 -0.3587
  384DG     C11 8820   2.964   0.169   2.629  0.4214 -0.4029  0.4860
  384DG     C12 8821   3.114  -0.100   2.277 -0.0438  0.0442  0.5890
  384DG     H13 8822   2.878   0.214   2.683 -3.3397  0.5859  1.7269
  384DG     H14 8823   3.047   0.139   2.700  1.2876 -3.5742 -1.7045
  384DG     H15 8824   3.155  -0.196   2.317  0.2399  0.0737 -1.1095
  384DG     H16 8825   3.082  -0.115   2.172 -0.4059 -0.4458 -0.5013
  384DG     C17 8826   2.919   0.042   2.557 -0.5720 -0.1114  0.4147
  384DG     C18 8827   2.993  -0.050   2.348  0.4166  0.5205 -0.3650
  384DG     O19 8828   3.026   0.008   2.473 -0.9592 -0.0832  0.6318
  384DG     H20 8829   2.834   0.048   2.490  2.6482  1.0300  1.5963
  384DG     H21 8830   2.900  -0.032   2.624 -1.2109  0.3643  1.7774
  384DG     H22 8831   2.937   0.023   2.292 -1.6881 -0.0488  0.6191
  384DG     H23 8832   2.921  -0.128   2.359  1.6671 -1.0820 -1.2071
  385DG      C1 8833   1.579   0.617   2.446  0.0990  0.6201  0.6773
  385DG      C2 8834   2.108   0.519   1.969 -0.8163 -0.3528 -0.7031
  385DG      H3 8835   1.589   0.713   2.484  0.6897  2.2931 -0.3650
  385DG      H4 8836   1.651   0.562   2.503  0.8328 -0.3309 -1.8816
  385DG      H5 8837   1.479   0.593   2.463  0.2651  2.8253 -0.0025
  385DG      H6 8838   2.073   0.415   1.958 -2.3438  1.9648 -0.6735
  385DG      H7 8839   2.164   0.556   1.881  1.2619  4.0766 -2.7170
  385DG      H8 8840   2.175   0.514   2.049 -1.9000  0.9465 -1.4065
  385DG      O9 8841   1.601   0.609   2.306  0.4509  0.0173 -0.6286
  385DG     O10 8842   1.994   0.587   2.026  0.1537 -0.1892  0.3734
  385DG     C11 8843   1.575   0.472   2.262  0.1394  0.8688 -0.4267
  385DG     C12 8844   1.886   0.604   1.934  0.5540  0.2757  0.7071
  385DG     H13 8845   1.478   0.436   2.289 -2.7275  1.8176  1.4266
  385DG     H14 8846   1.642   0.408   2.324  1.8322 -2.5723  1.9079
  385DG     H15 8847   1.923   0.594   1.828 -1.1126  0.6626 -2.5655
  385DG     H16 8848   1.849   0.705   1.956 -0.5312 -1.1642 -1.6275
  385DG     C17 8849   1.613   0.462   2.121  0.1723  0.6317 -0.6516
  385DG     C18 8850   1.770   0.510   1.963  0.8220 -0.1864 -0.2907
  385DG     O19 8851   1.740   0.521   2.096 -0.3275 -0.4193 -0.0399
  385DG     H20 8852   1.541   0.523   2.061 -0.9178 -0.5239 -1.2829
  385DG     H21 8853   1.628   0.356   2.097 -0.5459  2.7052 -2.7259
  385DG     H22 8854   1.687   0.532   1.900 -0.7408 -0.9460 -1.5289
  385DG     H23 8855   1.801   0.413   1.941 -0.5703  1.9655  0.6885
  386DG      C1 8856   4.505   2.896   3.654  0.3615 -0.9038 -0.2848
  386DG      C2 8857   4.286   2.593   3.080  0.6515  0.2851  0.0430
  386DG      H3 8858   4.566   2.811   3.669  0.3424 -2.8559 -1.7741
  386DG      H4 8859   4.500   2.963   3.738 -1.1515  0.7696 -1.5954
  386DG      H5 8860   4.550   2.954   3.575  1.6857  2.7380 -0.8848
  386DG      H6 8861   4.187   2.555   3.108  1.6983 -1.8659  1.5779
  386DG      H7 8862   4.278   2.624   2.975 -0.6089  0.8372  1.3261
  386DG      H8 8863   4.354   2.514   3.087  0.2852 -0.3377  0.6667
  386DG      O9 8864   4.380   2.845   3.625  0.0314 -0.3967  0.1120
  386DG     O10 8865   4.330   2.706   3.161  0.5901 -0.3936 -0.5488
  386DG     C11 8866   4.292   2.950   3.583  0.1788 -1.1903  1.4599
  386DG     C12 8867   4.269   2.824   3.119  0.3987 -0.4222  0.2398
  386DG     H13 8868   4.283   3.022   3.660 -1.4056 -0.8011 -2.2539
  386DG     H14 8869   4.195   2.911   3.584  0.3612  1.9706 -2.8701
  386DG     H15 8870   4.159   2.824   3.122 -0.2872  0.6657 -0.9671
  386DG     H16 8871   4.285   2.845   3.016 -0.6863 -0.3286  0.6484
  386DG     C17 8872   4.310   3.006   3.438 -0.6574  0.5844 -0.3064
  386DG     C18 8873   4.311   2.943   3.210 -0.7507  0.0086 -0.5347
  386DG     O19 8874   4.281   2.905   3.343 -0.6433  0.2196  0.0755
  386DG     H20 8875   4.410   3.036   3.416 -0.2948 -1.8011 -0.7761
  386DG     H21 8876   4.247   3.100   3.433  0.0629  1.0612  1.5855
  386DG     H22 8877   4.419   2.980   3.197  3.5784 -0.8027 -1.1816
  386DG     H23 8878   4.248   3.036   3.195 -1.4943  1.4296  4.4886
  387DG      C1 8879   4.324   4.267   0.309  0.2241  0.2173  0.2836
  387DG      C2 8880   4.324   4.921   0.550  0.7825 -0.2184 -0.0646
  387DG      H3 8881   4.373   4.204   0.238 -1.8976  3.0784  3.3587
  387DG      H4 8882   4.214   4.262   0.294 -1.3321 -1.3972  2.0872
  387DG      H5 8883   4.349   4.226   0.406  3.4162 -1.4099 -0.7474
  387DG      H6 8884   4.401   5.001   0.556  2.5937  0.3651  1.8411
  387DG      H7 8885   4.228   4.962   0.521 -2.0263 -2.6990  2.9825
  387DG      H8 8886   4.312   4.871   0.651 -1.5694 -0.0312  1.6713
  387DG      O9 8887   4.374   4.399   0.288 -0.4405  0.2334  0.5891
  387DG     O10 8888   4.384   4.833   0.453  0.3205  0.3669  0.1935
  387DG     C11 8889   4.358   4.443   0.158  0.2355  1.5400 -0.0907
  387DG     C12 8890   4.414   4.894   0.327 -0.0394  0.4283 -0.0062
  387DG     H13 8891   4.250   4.455   0.144 -0.7133 -1.7400 -0.1328
  387DG     H14 8892   4.389   4.362   0.084 -1.4875 -1.7385  2.8774
  387DG     H15 8893   4.486   4.974   0.331 -0.7195 -0.1209 -1.3146
  387DG     H16 8894   4.317   4.930   0.289 -2.3820  0.6396  0.7943
  387DG     C17 8895   4.440   4.570   0.138  0.1409 -0.9744 -0.0586
  387DG     C18 8896   4.467   4.782   0.236  0.1051 -0.0603 -0.4571
  387DG     O19 8897   4.396   4.664   0.236  0.1634 -0.7852 -0.2043
  387DG     H20 8898   4.422   4.605   0.036 -2.2326  0.1972  0.0217
  387DG     H21 8899   4.545   4.549   0.146 -1.6900 -2.0822 -2.0352
  387DG     H22 8900   4.463   4.824   0.133  1.5311 -5.0680 -1.9134
  387DG     H23 8901   4.574   4.766   0.258 -0.0168  1.5437 -0.3492
  388DG      C1 8902   4.019   5.486   5.083 -0.1301 -0.2698  0.2722
  388DG      C2 8903   4.450   4.828   5.315 -0.2737 -0.5416  0.0706
  388DG      H3 8904   3.918   5.462   5.045  0.6544 -3.2859  1.7436
  388DG      H4 8905   4.054   5.570   5.030 -0.6555  0.7103 -2.4902
  388DG      H5 8906   4.000   5.521   5.186  1.5222 -1.1690  2.7415
  388DG      H6 8907   4.373   4.753   5.332  3.0662 -3.4646 -3.0125
  388DG      H7 8908   4.541   4.770   5.289  1.9337  0.4952 -3.6158
  388DG      H8 8909   4.481   4.886   5.404 -0.1229 -1.9834 -0.6893
  388DG      O9 8910   4.107   5.368   5.066 -0.3626 -0.2351 -0.0343
  388DG     O10 8911   4.424   4.886   5.189 -0.0053 -0.6064  0.1548
  388DG     C11 8912   4.127   5.329   4.935 -0.0748  0.4066 -0.8054
  388DG     C12 8913   4.306   4.958   5.178  0.0024 -0.0326  0.1603
  388DG     H13 8914   4.158   5.409   4.865  2.8866 -1.7596  0.9189
  388DG     H14 8915   4.032   5.292   4.883  0.7664  0.6853  0.9375
  388DG     H15 8916   4.313   5.036   5.253 -0.6178 -1.3181  1.5528
  388DG     H16 8917   4.217   4.896   5.201 -0.1549 -0.5629 -1.4283
  388DG     C17 8918   4.243   5.219   4.928  0.1403 -0.1841  0.1227
  388DG     C18 8919   4.302   5.022   5.039 -0.2089 -0.0167 -0.0996
  388DG     O19 8920   4.214   5.134   5.037  0.0505  0.4216 -0.2225
  388DG     H20 8921   4.335   5.271   4.962 -0.2009  2.5722  0.7129
  388DG     H21 8922   4.259   5.168   4.836 -2.6117 -3.2032  1.9674
  388DG     H22 8923   4.402   5.049   5.001 -2.3825 -3.7335  0.9986
  388DG     H23 8924   4.259   4.938   4.982 -2.1545 -1.1324 -0.4060
  389DG      C1 8925   5.311   0.529   1.815 -0.3365 -1.1224 -1.1085
  389DG      C2 8926   5.112   0.974   2.328 -0.4054  0.5823 -0.3887
  389DG      H3 8927   5.374   0.597   1.875  1.3847 -1.6442 -1.4326
  389DG      H4 8928   5.301   0.571   1.713  0.2245 -0.3712  0.1206
  389DG      H5 8929   5.341   0.427   1.826 -5.6707 -1.3856 -0.0150
  389DG      H6 8930   5.113   1.044   2.242 -1.4895  2.7424 -1.2577
  389DG      H7 8931   5.017   0.997   2.385  1.6928 -1.0431  1.8125
  389DG      H8 8932   5.200   0.992   2.393  0.3542  1.1806  1.8638
  389DG      O9 8933   5.184   0.541   1.874  0.1613  0.1892  0.0088
  389DG     O10 8934   5.118   0.835   2.286  0.0329  0.1044  0.0402
  389DG     C11 8935   5.169   0.460   1.992 -0.2510 -0.7517  0.3811
  389DG     C12 8936   4.987   0.778   2.269  0.2180 -0.8877 -0.1175
  389DG     H13 8937   5.256   0.461   2.059  1.1860  2.0665  0.0020
  389DG     H14 8938   5.161   0.357   1.958  2.5287 -0.5292 -2.8472
  389DG     H15 8939   4.942   0.828   2.185 -2.1002 -0.6124 -0.5801
  389DG     H16 8940   4.931   0.805   2.355  0.4115  1.2121  1.2198
  389DG     C17 8941   5.046   0.490   2.078 -0.2014 -0.4831  1.0332
  389DG     C18 8942   4.985   0.633   2.249 -0.3913  0.1988 -0.5775
  389DG     O19 8943   5.064   0.621   2.135  1.3438  0.2886 -0.9913
  389DG     H20 8944   5.030   0.402   2.149 -2.1891  0.9924  0.5519
  389DG     H21 8945   4.961   0.484   2.010 -0.8498  0.6903  2.0628
  389DG     H22 8946   5.035   0.585   2.336  1.0557  1.4532  1.6700
  389DG     H23 8947   4.884   0.601   2.246  1.6513 -0.7803 -0.9811
  390DG      C1 8948   5.253   4.158   1.801  0.4379  0.1192 -0.4063
  390DG      C2 8949   5.381   4.925   1.339 -0.6261 -0.7251  0.0708
  390DG      H3 8950   5.303   4.171   1.898  2.3116 -2.0354 -0.5419
  390DG      H4 8951   5.321   4.083   1.751 -0.6174 -3.5049 -1.7171
  390DG      H5 8952   5.156   4.110   1.814  0.8527  0.9097 -2.2191
  390DG      H6 8953   5.413   4.956   1.436 -0.9588  2.9194  2.4744
  390DG      H7 8954   5.475   4.880   1.289  3.4432  0.3142 -0.9289
  390DG      H8 8955   5.337   5.006   1.283 -0.5092 -4.3323 -0.7651
  390DG      O9 8956   5.228   4.277   1.729 -0.0579  0.6277  0.5630
  390DG     O10 8957   5.285   4.816   1.358  0.1785 -0.0492 -1.4233
  390DG     C11 8958   5.231   4.248   1.589  0.9156  0.1475  0.3461
  390DG     C12 8959   5.328   4.715   1.445 -0.3994 -0.1662  0.3236
  390DG     H13 8960   5.171   4.153   1.562  1.8258 -1.8724  3.5594
  390DG     H14 8961   5.327   4.229   1.556  1.0187 -0.1782  1.1146
  390DG     H15 8962   5.329   4.757   1.548  0.8124 -2.1126  1.5804
  390DG     H16 8963   5.424   4.679   1.405 -2.1309  1.4548  1.9226
  390DG     C17 8964   5.176   4.374   1.508  0.7530 -0.3922  0.1796
  390DG     C18 8965   5.229   4.601   1.459  0.1548 -0.0907 -0.1534
  390DG     O19 8966   5.275   4.471   1.497 -0.2966  0.8927 -0.7877
  390DG     H20 8967   5.084   4.417   1.543  0.9101  1.5779  1.1211
  390DG     H21 8968   5.161   4.340   1.403  1.2919 -2.2001 -3.7481
  390DG     H22 8969   5.154   4.630   1.528  0.4065  2.1928  1.6753
  390DG     H23 8970   5.173   4.597   1.365  1.9957  0.0855 -0.5035
  391DG      C1 8971   4.475   0.150   4.941 -0.1388  0.6633  0.0498
  391DG      C2 8972   4.865   0.474   4.523 -0.6065  1.0617 -0.9190
  391DG      H3 8973   4.447   0.231   4.997  1.3586 -1.6671 -1.2804
  391DG      H4 8974   4.568   0.168   4.889  2.9973  0.5652 -0.7746
  391DG      H5 8975   4.496   0.064   5.009 -2.0610 -0.3301 -3.0209
  391DG      H6 8976   4.973   0.442   4.523 -2.6294  0.0242  0.2325
  391DG      H7 8977   4.848   0.534   4.438  1.6797  2.0737 -1.3777
  391DG      H8 8978   4.845   0.543   4.607  0.8491  1.1223 -0.0344
  391DG      O9 8979   4.380   0.109   4.841 -0.0185  0.3401 -0.0503
  391DG     O10 8980   4.777   0.364   4.516 -0.1581 -0.0671  0.2308
  391DG     C11 8981   4.432   0.012   4.748  0.0928 -0.8019 -0.0536
  391DG     C12 8982   4.641   0.391   4.545  0.6878  0.1498  0.4385
  391DG     H13 8983   4.352  -0.057   4.726 -0.2453  2.4532 -0.8452
  391DG     H14 8984   4.523  -0.040   4.774  3.8501  1.7276 -4.8327
  391DG     H15 8985   4.608   0.468   4.471  2.0724 -0.0541 -1.1223
  391DG     H16 8986   4.632   0.435   4.646 -0.1215 -3.5354  0.6035
  391DG     C17 8987   4.455   0.075   4.609 -0.2673  1.2162  0.1950
  391DG     C18 8988   4.539   0.278   4.521  0.3819  0.6752 -0.8460
  391DG     O19 8989   4.545   0.186   4.630 -0.6508  0.2635  0.2665
  391DG     H20 8990   4.355   0.099   4.577  0.4857  0.5842  0.1916
  391DG     H21 8991   4.495   0.010   4.532 -1.4550 -0.0104 -1.7108
  391DG     H22 8992   4.433   0.302   4.508  2.2778 -1.4824  0.2147
  391DG     H23 8993   4.572   0.224   4.433  1.5689  1.1010  2.7245
  392DG      C1 8994   3.293   1.984   5.312 -0.2557 -0.3724 -1.2082
  392DG      C2 8995   2.890   1.948   4.807 -0.2378  0.9105  0.1044
  392DG      H3 8996   3.367   1.953   5.243  0.5848  2.5537  2.0078
  392DG      H4 8997   3.330   1.954   5.413  0.8747  1.0448  3.1751
  392DG      H5 8998   3.275   2.091   5.301 -1.5492  0.1849 -1.3701
  392DG      H6 8999   2.959   1.894   4.739 -0.3927  2.6835 -1.1793
  392DG      H7 9000   2.794   1.948   4.758  2.1183 -1.3973 -1.3715
  392DG      H8 9001   2.920   2.052   4.809 -1.4401 -0.6592  0.8342
  392DG      O9 9002   3.164   1.926   5.289  0.1303 -0.1363 -0.2317
  392DG     O10 9003   2.871   1.903   4.934  0.5176 -0.2563  0.1264
  392DG     C11 9004   3.162   1.779   5.302 -0.1877  0.5202  0.0598
  392DG     C12 9005   2.851   1.756   4.936 -0.2349 -0.6517 -0.4488
  392DG     H13 9006   3.181   1.765   5.411 -0.4710 -3.7723  1.1966
  392DG     H14 9007   3.242   1.728   5.252 -0.2585 -0.7642 -0.4169
  392DG     H15 9008   2.933   1.716   4.871 -0.1223 -2.2184 -4.7403
  392DG     H16 9009   2.755   1.725   4.887 -0.7331  2.7541 -1.0222
  392DG     C17 9010   3.027   1.721   5.251 -0.0590  0.8217 -0.3070
  392DG     C18 9011   2.869   1.703   5.079  0.4403 -1.0372 -0.3275
  392DG     O19 9012   2.981   1.776   5.128  0.2157 -0.0743  0.6510
  392DG     H20 9013   2.946   1.735   5.323  0.4316  0.3892  0.1485
  392DG     H21 9014   3.037   1.612   5.244  0.2915 -2.5305 -1.1286
  392DG     H22 9015   2.776   1.722   5.141 -0.7013 -1.6239  0.5928
  392DG     H23 9016   2.870   1.594   5.083  0.4043 -1.9717  0.7973
  393DG      C1 9017   4.549   2.699   4.871  0.0715  1.0196  0.4299
  393DG      C2 9018   4.401   3.438   4.687  0.0375 -0.3859 -0.1825
  393DG      H3 9019   4.513   2.599   4.860 -0.3142 -1.3677  0.3253
  393DG      H4 9020   4.653   2.682   4.898  1.5142 -1.7727  0.6321
  393DG      H5 9021   4.555   2.727   4.769 -0.6596 -0.2618 -0.9301
  393DG      H6 9022   4.332   3.494   4.747  2.3105  0.3162 -0.1986
  393DG      H7 9023   4.503   3.465   4.725 -1.5810 -1.3195 -0.2384
  393DG      H8 9024   4.402   3.477   4.586  0.7961  2.1691 -2.0613
  393DG      O9 9025   4.478   2.789   4.952  0.2034  0.0873  0.0381
  393DG     O10 9026   4.372   3.302   4.686 -0.1137  0.0373 -0.6269
  393DG     C11 9027   4.541   2.916   4.980 -0.0583 -0.2196 -0.2558
  393DG     C12 9028   4.476   3.222   4.631  0.0044  0.1688  0.0010
  393DG     H13 9029   4.635   2.893   5.007  1.0006 -0.5706 -2.0419
  393DG     H14 9030   4.483   2.956   5.059  2.4630  0.0563 -0.3913
  393DG     H15 9031   4.570   3.244   4.682  0.9756  1.3371  0.0107
  393DG     H16 9032   4.494   3.240   4.529  0.0015  0.7007  0.7589
  393DG     C17 9033   4.538   3.013   4.865 -0.0842 -0.1737  0.4706
  393DG     C18 9034   4.434   3.068   4.656  0.1987 -0.0162 -0.2010
  393DG     O19 9035   4.417   3.027   4.795  0.3014  0.0975  0.1928
  393DG     H20 9036   4.620   2.984   4.792 -2.3715 -1.7922  2.2113
  393DG     H21 9037   4.561   3.110   4.912 -1.3672 -0.1119  1.1546
  393DG     H22 9038   4.338   3.046   4.611  0.1049  1.3200  0.5837
  393DG     H23 9039   4.501   3.005   4.598 -0.5296 -0.6792  0.9487
  394DG      C1 9040   4.962   2.402   1.643 -0.1411 -0.2819 -0.6477
  394DG      C2 9041   4.731   2.909   2.238  0.1351  0.2933  0.3165
  394DG      H3 9042   5.058   2.441   1.664 -1.3437  1.5789  0.6630
  394DG      H4 9043   4.972   2.339   1.564 -1.9229  1.0696  2.2086
  394DG      H5 9044   4.933   2.345   1.728  0.8256 -0.4100  0.0068
  394DG      H6 9045   4.821   2.913   2.293 -3.1301  1.2497  2.0339
  394DG      H7 9046   4.690   3.011   2.238 -1.3562 -0.6612  0.4606
  394DG      H8 9047   4.663   2.840   2.284 -0.0584 -0.6265 -0.6472
  394DG      O9 9048   4.886   2.520   1.625 -0.6754 -0.4382 -0.1556
  394DG     O10 9049   4.755   2.879   2.098  0.4051 -0.3828 -0.2115
  394DG     C11 9050   4.851   2.575   1.750 -0.1413 -0.1278  0.4311
  394DG     C12 9051   4.625   2.881   2.032 -0.1447 -0.0438  0.0189
  394DG     H13 9052   4.939   2.601   1.811 -1.2711 -0.9584 -2.7828
  394DG     H14 9053   4.792   2.509   1.807  1.6632  2.3520 -0.1441
  394DG     H15 9054   4.574   2.978   2.049 -1.5122 -3.4671  0.0058
  394DG     H16 9055   4.553   2.808   2.067 -0.7540  1.5290  0.3612
  394DG     C17 9056   4.766   2.703   1.735  0.0675 -0.3894  0.2600
  394DG     C18 9057   4.659   2.852   1.895 -0.0703  0.4007  0.2697
  394DG     O19 9058   4.738   2.730   1.871 -0.1437 -0.4251 -0.2666
  394DG     H20 9059   4.667   2.689   1.689  1.0763  1.1345  0.5786
  394DG     H21 9060   4.815   2.783   1.679 -2.0879 -1.2268  2.7249
  394DG     H22 9061   4.565   2.853   1.840  2.8131  2.7544  0.7615
  394DG     H23 9062   4.714   2.937   1.868 -1.0592  1.3578 -0.5476
  395DG      C1 9063   5.459   5.329   2.401  0.3496  0.5510  0.0564
  395DG      C2 9064   5.509   5.995   2.241 -0.3763 -0.1521  0.7702
  395DG      H3 9065   5.527   5.327   2.314 -1.8409 -3.4123  0.2115
  395DG      H4 9066   5.396   5.237   2.396 -0.0195 -0.4014  0.7401
  395DG      H5 9067   5.518   5.311   2.493  2.2723  3.0741 -0.2441
  395DG      H6 9068   5.455   6.043   2.158 -0.2709  0.5981  1.7266
  395DG      H7 9069   5.516   6.064   2.320 -0.0748 -1.3632  1.0154
  395DG      H8 9070   5.612   5.971   2.218 -2.7341 -0.6689 -2.3023
  395DG      O9 9071   5.379   5.446   2.392 -0.1867  0.4733 -0.5749
  395DG     O10 9072   5.435   5.886   2.284  0.2685 -0.1478 -0.0403
  395DG     C11 9073   5.309   5.483   2.516  0.3341 -0.0301  0.3883
  395DG     C12 9074   5.313   5.921   2.357 -0.1180  0.4286 -0.2539
  395DG     H13 9075   5.379   5.511   2.597 -0.0889  1.7254 -0.4638
  395DG     H14 9076   5.259   5.395   2.555 -0.7289  0.9173  2.3433
  395DG     H15 9077   5.253   6.000   2.304  1.4027  1.5208 -0.0664
  395DG     H16 9078   5.337   5.967   2.451 -2.4730 -2.8664  1.3470
  395DG     C17 9079   5.205   5.596   2.500  0.5004 -0.4708  0.3489
  395DG     C18 9080   5.225   5.804   2.390 -0.0010 -0.1965 -0.1489
  395DG     O19 9081   5.294   5.705   2.463  0.0206 -0.6913  0.1144
  395DG     H20 9082   5.165   5.619   2.600  1.3624  1.3621  1.0716
  395DG     H21 9083   5.129   5.572   2.426  0.6661  1.4185 -1.1908
  395DG     H22 9084   5.136   5.841   2.448  1.2496 -0.6312 -0.3053
  395DG     H23 9085   5.191   5.766   2.293  1.1049  0.1777  3.1179
  396DG      C1 9086   5.201   2.048   0.286  0.0173 -0.1156 -0.1747
  396DG      C2 9087   5.331   2.810   0.119 -0.4660 -0.1676 -0.1420
  396DG      H3 9088   5.259   1.953   0.296 -0.9352 -1.9751  0.5067
  396DG      H4 9089   5.140   2.031   0.194  1.3167 -2.8926 -0.9086
  396DG      H5 9090   5.131   2.046   0.370 -0.9287  0.4472 -1.2733
  396DG      H6 9091   5.413   2.874   0.083  0.3933  1.1845  0.0546
  396DG      H7 9092   5.260   2.809   0.028 -1.2429  1.4871  0.6842
  396DG      H8 9093   5.287   2.851   0.208  2.7644  1.5952  0.3511
  396DG      O9 9094   5.283   2.164   0.279  0.0867  0.3682  0.3891
  396DG     O10 9095   5.374   2.684   0.137 -0.2201 -0.0105 -0.1938
  396DG     C11 9096   5.374   2.161   0.166  0.0882  0.0711  0.7354
  396DG     C12 9097   5.274   2.609   0.204  1.0122  1.0823 -0.3087
  396DG     H13 9098   5.323   2.145   0.066  2.0310  0.5336  1.0391
  396DG     H14 9099   5.444   2.076   0.176  2.8032 -1.0454 -1.2669
  396DG     H15 9100   5.185   2.610   0.145 -1.4821  2.6187  2.0519
  396DG     H16 9101   5.247   2.656   0.296  0.9802 -1.6533  0.7752
  396DG     C17 9102   5.461   2.283   0.156 -0.3464 -0.2304 -0.7038
  396DG     C18 9103   5.319   2.465   0.236  0.3571  0.5306 -0.3552
  396DG     O19 9104   5.384   2.400   0.126  0.4775 -0.2696 -0.3489
  396DG     H20 9105   5.531   2.283   0.072 -1.8228  1.6544 -0.9290
  396DG     H21 9106   5.515   2.312   0.250 -0.1462  0.3027  0.4778
  396DG     H22 9107   5.392   2.478   0.311  1.6188  1.3033 -1.1600
  396DG     H23 9108   5.231   2.407   0.277 -2.5599  1.9173  0.1106
  397DG      C1 9109   3.582   4.696   0.061  0.8893 -0.7153  0.7487
  397DG      C2 9110   3.613   4.983   0.559  0.8343  0.0059  0.0731
  397DG      H3 9111   3.682   4.673   0.014  1.3454  1.7034  0.5348
  397DG      H4 9112   3.501   4.689  -0.013 -1.2686 -0.4652  2.3802
  397DG      H5 9113   3.556   4.617   0.133  0.5116  0.1172  1.8906
  397DG      H6 9114   3.713   4.954   0.557 -0.6406  3.0498  1.0072
  397DG      H7 9115   3.609   5.063   0.637 -0.0696 -1.6879  1.5495
  397DG      H8 9116   3.541   4.898   0.580 -0.7217 -0.5359 -4.9873
  397DG      O9 9117   3.576   4.822   0.137  0.4679  0.5633  0.4067
  397DG     O10 9118   3.564   5.040   0.435 -0.1229  0.7101 -0.4381
  397DG     C11 9119   3.550   4.935   0.051  0.5022 -0.4608 -0.5714
  397DG     C12 9120   3.432   5.087   0.450 -0.4741 -0.2396  0.3415
  397DG     H13 9121   3.465   4.907  -0.008  1.6122 -0.7537 -1.0368
  397DG     H14 9122   3.631   4.940  -0.014 -0.3588  0.5468 -0.2858
  397DG     H15 9123   3.437   5.157   0.532 -1.4766  2.4661  1.0729
  397DG     H16 9124   3.360   5.014   0.480  0.9174  1.3736 -0.3435
  397DG     C17 9125   3.511   5.057   0.132  0.3315  0.3653  0.7431
  397DG     C18 9126   3.382   5.144   0.314 -0.3856 -0.1856  0.9011
  397DG     O19 9127   3.390   5.047   0.203  0.5090 -0.5517  0.2831
  397DG     H20 9128   3.489   5.131   0.056  1.5514 -1.0314  0.8548
  397DG     H21 9129   3.594   5.080   0.190  1.6900  1.4188  0.5516
  397DG     H22 9130   3.272   5.170   0.322  1.5287  2.6852 -0.4880
  397DG     H23 9131   3.429   5.234   0.273 -1.2291 -2.8441 -2.1582
  398DG      C1 9132   4.629   0.203   0.277  0.4607  0.2991  0.1282
  398DG      C2 9133   4.299  -0.324   0.084  0.1680 -0.1278  0.0829
  398DG      H3 9134   4.649   0.277   0.355 -1.1731  1.0219 -1.1479
  398DG      H4 9135   4.702   0.225   0.203  0.0443 -0.5180  0.9884
  398DG      H5 9136   4.670   0.108   0.315 -1.4600 -0.5517 -0.6581
  398DG      H6 9137   4.257  -0.419   0.118  0.5039 -1.0768  1.9924
  398DG      H7 9138   4.220  -0.273   0.032 -2.1554  1.5029  0.0562
  398DG      H8 9139   4.372  -0.349   0.010 -0.3971  0.8405  0.6251
  398DG      O9 9140   4.490   0.191   0.244  0.2990  0.4913  0.2443
  398DG     O10 9141   4.361  -0.243   0.185 -0.0717  0.4925  0.2274
  398DG     C11 9142   4.402   0.196   0.362  0.0368  0.9435  0.4150
  398DG     C12 9143   4.276  -0.245   0.302  0.4047  0.3033 -0.4886
  398DG     H13 9144   4.301   0.210   0.323 -0.0042 -0.1648  0.2845
  398DG     H14 9145   4.427   0.283   0.424 -1.7521  0.7611 -3.5674
  398DG     H15 9146   4.244  -0.347   0.341  0.7345  0.9776  2.9752
  398DG     H16 9147   4.185  -0.201   0.273 -0.8907  1.0322  0.7752
  398DG     C17 9148   4.412   0.063   0.444 -0.2103  0.3380  1.0241
  398DG     C18 9149   4.326  -0.158   0.417 -0.0290  0.5365 -0.9253
  398DG     O19 9150   4.371  -0.041   0.353  0.3076  0.3390 -0.5632
  398DG     H20 9151   4.347   0.069   0.534  1.7736 -0.8486 -1.9327
  398DG     H21 9152   4.508   0.030   0.478  0.5968 -1.2540  0.0835
  398DG     H22 9153   4.246  -0.155   0.482  0.6575  0.0295 -1.9551
  398DG     H23 9154   4.401  -0.208   0.480  1.2378 -0.8071 -1.5300
  399DG      C1 9155   2.821   0.210   5.398  0.2264  0.2850 -0.0970
  399DG      C2 9156   3.476   0.253   5.686 -1.0045 -0.5834 -0.3487
  399DG      H3 9157   2.768   0.299   5.421 -0.9693  1.4542  0.4227
  399DG      H4 9158   2.828   0.147   5.482 -2.5595  0.5580 -1.4025
  399DG      H5 9159   2.764   0.157   5.322 -3.2147  1.2562 -1.0070
  399DG      H6 9160   3.580   0.257   5.673  0.4797  1.5456  0.1659
  399DG      H7 9161   3.433   0.348   5.725 -0.2051  1.2562 -0.9368
  399DG      H8 9162   3.457   0.171   5.766 -1.4569 -1.4340 -1.0400
  399DG      O9 9163   2.955   0.241   5.358 -0.6269  0.0591 -0.2506
  399DG     O10 9164   3.403   0.235   5.563 -0.1935  0.2867 -0.1581
  399DG     C11 9165   3.005   0.149   5.258 -0.3812  0.3394  0.1274
  399DG     C12 9166   3.460   0.135   5.476  0.0302 -0.2240  0.4077
  399DG     H13 9167   2.956   0.195   5.170 -1.2791 -1.9820 -0.0015
  399DG     H14 9168   2.980   0.051   5.283 -0.1055  1.5166 -3.6632
  399DG     H15 9169   3.448   0.032   5.514  4.6455 -3.4101  3.4780
  399DG     H16 9170   3.566   0.163   5.460  2.4642  0.4924  0.6688
  399DG     C17 9171   3.159   0.175   5.239  0.5248  0.2218  0.2393
  399DG     C18 9172   3.376   0.154   5.343  0.5276 -0.6010 -0.7193
  399DG     O19 9173   3.236   0.158   5.359  0.2406 -0.3363 -0.3207
  399DG     H20 9174   3.168   0.273   5.206 -0.0035  0.4170 -0.9579
  399DG     H21 9175   3.192   0.099   5.167 -0.6026  1.3896  0.0183
  399DG     H22 9176   3.395   0.259   5.308  0.0880 -0.8539  4.1238
  399DG     H23 9177   3.407   0.088   5.262 -1.4862  0.5099 -1.5384
  400DG      C1 9178   3.116   3.341   2.053  0.0663 -0.2681 -0.0871
  400DG      C2 9179   2.999   2.714   1.550 -0.2876  0.2078  1.0274
  400DG      H3 9180   3.180   3.376   2.131 -1.1750  0.8808 -0.2159
  400DG      H4 9181   3.054   3.420   2.010 -3.2070  1.3461  0.9225
  400DG      H5 9182   3.191   3.315   1.979 -0.3765  0.2791  0.3749
  400DG      H6 9183   2.960   2.795   1.495  0.7914 -1.0024 -1.2634
  400DG      H7 9184   3.039   2.643   1.475 -0.1416  0.1745 -0.0308
  400DG      H8 9185   2.912   2.669   1.611  0.4372 -2.3919  0.6554
  400DG      O9 9186   3.040   3.220   2.086  0.2374  0.0395 -0.3365
  400DG     O10 9187   3.092   2.768   1.636  0.1410 -0.2699 -0.0678
  400DG     C11 9188   3.115   3.112   2.145 -0.0348  0.5742 -0.8868
  400DG     C12 9189   3.040   2.863   1.730 -0.1491 -0.5217 -0.9839
  400DG     H13 9190   3.041   3.045   2.186 -0.0866 -3.6631  0.5079
  400DG     H14 9191   3.188   3.135   2.232  1.6321  2.7459  0.4768
  400DG     H15 9192   2.967   2.811   1.788  0.7841  2.0470  0.8251
  400DG     H16 9193   2.993   2.944   1.682  0.9757  1.0440  0.7781
  400DG     C17 9194   3.187   3.030   2.028  0.4424 -0.2725  0.0644
  400DG     C18 9195   3.144   2.907   1.835 -0.1049  0.2830  0.0521
  400DG     O19 9196   3.083   2.992   1.935  0.4532 -0.2912 -0.3580
  400DG     H20 9197   3.235   2.951   2.084  0.9854  2.5310  0.6884
  400DG     H21 9198   3.271   3.093   1.990 -1.4288  3.6903  1.3328
  400DG     H22 9199   3.176   2.810   1.883  1.1518  0.1153  1.4476
  400DG     H23 9200   3.225   2.963   1.781  0.4603  1.5379  0.6397
  401DG      C1 9201   1.946   0.535   3.594 -0.0009 -0.2404  0.2509
  401DG      C2 9202   2.404   0.984   3.812 -0.2946 -0.0555 -0.3615
  401DG      H3 9203   1.866   0.453   3.604 -2.3747  1.2080 -0.5552
  401DG      H4 9204   2.018   0.490   3.531  1.4459 -0.1912 -0.1723
  401DG      H5 9205   1.908   0.605   3.518 -0.1752  1.4050  0.0646
  401DG      H6 9206   2.487   0.930   3.770 -1.2041 -1.1917  2.9582
  401DG      H7 9207   2.350   1.021   3.721 -1.4816  1.0750  2.1651
  401DG      H8 9208   2.447   1.071   3.859 -0.6331  1.9074  1.0538
  401DG      O9 9209   2.004   0.592   3.707 -0.2667  0.3924 -0.4442
  401DG     O10 9210   2.326   0.895   3.895  0.4699  0.3057  0.2858
  401DG     C11 9211   1.913   0.672   3.778 -0.0846 -0.3485  0.0459
  401DG     C12 9212   2.294   0.772   3.833  1.1836  1.0367 -0.9179
  401DG     H13 9213   1.860   0.625   3.868  0.8137 -0.9820  2.8085
  401DG     H14 9214   1.840   0.718   3.711 -0.9414 -1.7360  0.3225
  401DG     H15 9215   2.384   0.714   3.822 -0.7617  1.6461  0.8951
  401DG     H16 9216   2.261   0.773   3.732 -0.4489 -2.4823 -1.0620
  401DG     C17 9217   1.998   0.801   3.824 -0.2018 -0.5662 -0.0421
  401DG     C18 9218   2.199   0.697   3.933  0.6598  1.1800  0.2794
  401DG     O19 9219   2.072   0.764   3.942 -0.1537 -0.4819 -0.7150
  401DG     H20 9220   1.926   0.883   3.837 -1.7320  0.0233 -0.6515
  401DG     H21 9221   2.058   0.842   3.740  0.8058 -0.1473  2.3373
  401DG     H22 9222   2.178   0.591   3.896 -0.2867  3.3037  0.9424
  401DG     H23 9223   2.238   0.683   4.035 -0.0778 -0.8690 -1.3973
  402DG      C1 9224   1.166   3.656   3.271 -0.0521  0.3130  0.3774
  402DG      C2 9225   1.510   4.202   3.365  0.3085  0.2138 -0.0128
  402DG      H3 9226   1.129   3.715   3.352 -1.8938 -2.7809 -0.8223
  402DG      H4 9227   1.222   3.566   3.312  0.7198  0.2969  0.7440
  402DG      H5 9228   1.076   3.624   3.216 -3.3023  0.6578  2.2736
  402DG      H6 9229   1.539   4.299   3.319  1.1568  1.3870  0.1215
  402DG      H7 9230   1.453   4.221   3.453 -1.8951 -1.1486 -1.7830
  402DG      H8 9231   1.601   4.153   3.400  0.7647 -1.2541  0.5229
  402DG      O9 9232   1.252   3.727   3.187 -0.1037 -0.1721  0.2707
  402DG     O10 9233   1.432   4.138   3.267  0.6196 -0.3599  0.8300
  402DG     C11 9234   1.187   3.826   3.100 -0.2312 -0.0973  0.3322
  402DG     C12 9235   1.501   4.120   3.143 -0.7861 -0.0725  0.3112
  402DG     H13 9236   1.153   3.914   3.153  1.3949 -0.2779  1.4262
  402DG     H14 9237   1.106   3.775   3.039  1.7896 -0.9883  2.5275
  402DG     H15 9238   1.593   4.071   3.150 -1.9701  0.4367 -1.4939
  402DG     H16 9239   1.545   4.217   3.108  0.4753  2.0538 -0.6049
  402DG     C17 9240   1.299   3.871   2.994 -0.5957  0.5685 -0.3056
  402DG     C18 9241   1.410   4.076   3.032 -0.2056 -0.4458  0.1172
  402DG     O19 9242   1.404   3.939   3.062  0.7808 -0.3994  0.2019
  402DG     H20 9243   1.247   3.940   2.923 -1.2501 -0.4714 -0.0079
  402DG     H21 9244   1.330   3.783   2.947  0.2308 -0.1156  1.0449
  402DG     H22 9245   1.316   4.127   3.040  1.8769  0.5894 -0.0020
  402DG     H23 9246   1.446   4.088   2.931 -1.8510 -1.0029  2.1430
  403DG      C1 9247   3.875   0.623   4.212 -0.3290  0.4010  0.5562
  403DG      C2 9248   4.468   0.300   4.077 -0.2483 -0.6185 -0.2565
  403DG      H3 9249   3.930   0.698   4.155  1.5615  1.6533  1.2479
  403DG      H4 9250   3.873   0.656   4.316  0.0396 -0.5365 -3.1882
  403DG      H5 9251   3.776   0.613   4.166 -1.6539  1.1922 -0.3475
  403DG      H6 9252   4.490   0.383   4.021  0.6878 -4.1152 -2.0681
  403DG      H7 9253   4.545   0.284   4.159 -0.0872 -2.1560  1.3943
  403DG      H8 9254   4.482   0.221   3.999  2.3028  1.1134 -0.6651
  403DG      O9 9255   3.944   0.501   4.200  0.1606 -0.3461  0.6143
  403DG     O10 9256   4.333   0.294   4.124  0.0706  0.2054 -0.1817
  403DG     C11 9257   3.879   0.398   4.268 -0.3101 -0.3226  0.2515
  403DG     C12 9258   4.305   0.175   4.193 -0.0832  0.1938  0.3484
  403DG     H13 9259   3.772   0.399   4.254  1.2781  1.1444  0.3065
  403DG     H14 9260   3.886   0.413   4.374  1.8461 -0.6840  1.3366
  403DG     H15 9261   4.349   0.174   4.296  0.9675  0.1832  0.7314
  403DG     H16 9262   4.350   0.092   4.142 -0.5026 -2.9465  1.4306
  403DG     C17 9263   3.951   0.262   4.241  0.5469  0.0023 -1.0993
  403DG     C18 9264   4.154   0.147   4.200  0.1411  0.3783  0.0662
  403DG     O19 9265   4.092   0.273   4.235  0.4669 -0.4801 -0.0593
  403DG     H20 9266   3.925   0.245   4.140  0.8013 -0.3904  3.5862
  403DG     H21 9267   3.923   0.181   4.307  0.9394  2.0415 -0.9494
  403DG     H22 9268   4.125   0.115   4.103 -0.2034 -2.4231 -1.2115
  403DG     H23 9269   4.126   0.066   4.271 -0.7247 -0.8940 -1.9060
  404DG      C1 9270   5.362   2.019   4.352 -0.6245  0.3168 -0.7313
  404DG      C2 9271   5.541   1.495   4.704  0.9696  0.2279 -0.0817
  404DG      H3 9272   5.284   2.077   4.304  0.9382  1.7484  3.1227
  404DG      H4 9273   5.457   2.008   4.289 -2.5145 -3.4947  1.9899
  404DG      H5 9274   5.399   2.080   4.436 -1.9395 -0.7080 -0.5850
  404DG      H6 9275   5.566   1.568   4.778  0.3364 -1.2052  2.2518
  404DG      H7 9276   5.515   1.406   4.754  2.1783 -1.0094  0.6727
  404DG      H8 9277   5.636   1.492   4.651 -2.0036 -3.9463 -0.8256
  404DG      O9 9278   5.315   1.897   4.402  0.2111  0.5684 -0.2535
  404DG     O10 9279   5.426   1.542   4.640 -0.1874 -0.1829  0.4197
  404DG     C11 9280   5.261   1.815   4.296 -0.0470  0.1984 -0.7160
  404DG     C12 9281   5.370   1.430   4.557 -0.9915  0.2137 -0.1179
  404DG     H13 9282   5.341   1.809   4.223  0.4342  0.0342  2.6234
  404DG     H14 9283   5.180   1.875   4.251 -0.4127  0.6804  1.6269
  404DG     H15 9284   5.326   1.352   4.617  1.2990  1.3611  0.3427
  404DG     H16 9285   5.448   1.359   4.513  0.8596  0.6238  0.3937
  404DG     C17 9286   5.212   1.680   4.335 -1.1199  0.3251 -0.3898
  404DG     C18 9287   5.262   1.490   4.466  0.0551 -0.1150  0.3694
  404DG     O19 9288   5.312   1.614   4.415 -0.0755 -0.0408 -0.6430
  404DG     H20 9289   5.179   1.631   4.242 -0.0112  0.3450 -1.1400
  404DG     H21 9290   5.121   1.693   4.386  3.9224 -1.6963 -2.3199
  404DG     H22 9291   5.241   1.425   4.385 -2.0500  0.3399  1.9648
  404DG     H23 9292   5.167   1.501   4.508 -1.1653  0.7684 -3.1874
  405DG      C1 9293   2.208   2.816   1.526 -0.0430 -0.5935  0.0883
  405DG      C2 9294   1.976   3.452   1.617  0.0951  0.4759 -0.5143
  405DG      H3 9295   2.205   2.790   1.420 -0.9916  1.1244 -1.9440
  405DG      H4 9296   2.197   2.726   1.586 -0.0588  1.2000  2.8805
  405DG      H5 9297   2.296   2.864   1.564 -2.6774  1.7905 -0.6337
  405DG      H6 9298   1.998   3.470   1.722 -0.1875  0.0378  0.3601
  405DG      H7 9299   2.051   3.492   1.558  0.8140 -0.2281  2.3655
  405DG      H8 9300   1.888   3.509   1.597 -0.6543 -2.0738  0.1339
  405DG      O9 9301   2.099   2.903   1.560 -0.0181  0.3378  0.0024
  405DG     O10 9302   1.940   3.319   1.581 -0.0665  0.1110  0.1864
  405DG     C11 9303   1.976   2.830   1.551 -0.1357 -0.1510 -1.0774
  405DG     C12 9304   1.817   3.277   1.643  0.2448 -0.4233  0.0073
  405DG     H13 9305   1.953   2.780   1.647 -1.3094 -1.5844  0.3879
  405DG     H14 9306   1.977   2.754   1.475 -0.4360 -1.8051 -1.2216
  405DG     H15 9307   1.744   3.346   1.608  0.3463  0.8762 -2.7722
  405DG     H16 9308   1.825   3.286   1.757  1.1740  0.2840  1.8752
  405DG     C17 9309   1.861   2.927   1.521  0.5323 -0.6498 -0.5411
  405DG     C18 9310   1.780   3.138   1.587  0.0255  0.6880  0.8218
  405DG     O19 9311   1.885   3.049   1.597 -0.3077  0.1861 -0.4060
  405DG     H20 9312   1.769   2.875   1.549  1.5924  1.0439 -1.1899
  405DG     H21 9313   1.863   2.950   1.420  0.2096 -1.5116  3.7935
  405DG     H22 9314   1.693   3.082   1.629 -1.2402  1.2468 -3.6014
  405DG     H23 9315   1.752   3.145   1.481 -2.3897 -0.6269  0.1921
  406DG      C1 9316   5.401   5.302   2.837  0.7276 -0.6978  0.1978
  406DG      C2 9317   6.023   5.351   2.255  0.7209 -0.6748 -0.0697
  406DG      H3 9318   5.462   5.381   2.874  1.2962 -3.3225  2.9187
  406DG      H4 9319   5.365   5.238   2.918  0.5134 -0.5726  1.1353
  406DG      H5 9320   5.312   5.340   2.786 -2.3127  1.2644 -0.2453
  406DG      H6 9321   6.052   5.313   2.155 -0.5025 -1.6761  0.4909
  406DG      H7 9322   5.964   5.444   2.245  2.6099  1.1829  0.6214
  406DG      H8 9323   6.106   5.379   2.318 -1.1328 -1.0632  0.7081
  406DG      O9 9324   5.477   5.244   2.736  0.5502 -0.3987  0.3068
  406DG     O10 9325   5.930   5.262   2.318 -0.3037  0.7275  0.1293
  406DG     C11 9326   5.593   5.180   2.792  0.2256 -0.7587 -0.3615
  406DG     C12 9327   5.899   5.302   2.450  0.4048 -0.4511 -0.3723
  406DG     H13 9328   5.558   5.099   2.857  0.4765 -0.0644 -0.9422
  406DG     H14 9329   5.637   5.260   2.843 -1.3561  0.9646 -0.9332
  406DG     H15 9330   5.845   5.403   2.454 -0.6749 -0.6444 -3.3212
  406DG     H16 9331   5.988   5.307   2.508  2.1799 -1.6289  1.7118
  406DG     C17 9332   5.660   5.127   2.672  0.4924  0.0132  0.2192
  406DG     C18 9333   5.804   5.195   2.508 -0.8788  0.2790 -0.9169
  406DG     O19 9334   5.742   5.232   2.625 -0.2779 -0.6006  0.3164
  406DG     H20 9335   5.588   5.108   2.598 -1.0241  0.3596  1.0007
  406DG     H21 9336   5.723   5.039   2.681  0.5082  0.3278  1.5253
  406DG     H22 9337   5.732   5.181   2.439  0.1036  3.1674  0.8123
  406DG     H23 9338   5.870   5.111   2.521 -1.2068 -0.0054 -0.7352
  407DG      C1 9339   4.601   1.607   2.637 -0.4464  0.3679 -0.4699
  407DG      C2 9340   4.092   2.268   2.775  0.2035  0.5748  0.2597
  407DG      H3 9341   4.688   1.636   2.687 -1.0936 -0.8822  2.9041
  407DG      H4 9342   4.620   1.539   2.558  1.2241 -0.3254  0.9259
  407DG      H5 9343   4.547   1.551   2.708  1.6323  0.2569 -1.4118
  407DG      H6 9344   3.988   2.240   2.771 -0.0156 -0.3892 -0.7407
  407DG      H7 9345   4.123   2.262   2.881  0.9599  1.6713  1.9649
  407DG      H8 9346   4.098   2.376   2.758  0.2548  0.7819 -0.8772
  407DG      O9 9347   4.533   1.719   2.585 -0.9344 -0.7057 -1.0358
  407DG     O10 9348   4.165   2.195   2.676 -0.1907 -0.0250 -0.1125
  407DG     C11 9349   4.416   1.685   2.511  1.2088 -0.1188 -0.5080
  407DG     C12 9350   4.212   2.063   2.722  0.0352 -0.0938 -0.2178
  407DG     H13 9351   4.364   1.595   2.554  1.4830 -2.0651  1.8753
  407DG     H14 9352   4.454   1.654   2.416 -1.7594  0.6549  0.8721
  407DG     H15 9353   4.127   2.006   2.767  0.2980 -2.5586  3.2671
  407DG     H16 9354   4.284   2.072   2.803 -0.8118  3.9275 -1.8704
  407DG     C17 9355   4.328   1.804   2.486 -0.4633  0.4484  0.3728
  407DG     C18 9356   4.275   2.000   2.594  0.3650  0.3651 -0.3631
  407DG     O19 9357   4.306   1.860   2.617  0.0723 -0.0491  0.3108
  407DG     H20 9358   4.232   1.784   2.438  0.1047 -1.6670  1.6697
  407DG     H21 9359   4.385   1.874   2.427 -0.3842  1.2493 -2.7673
  407DG     H22 9360   4.220   2.019   2.505 -0.4920 -0.6557 -0.9447
  407DG     H23 9361   4.371   2.056   2.589 -1.6541  1.8182  1.3326
  408DG      C1 9362   0.428   5.181   2.910  0.0866 -0.1970  0.1851
  408DG      C2 9363  -0.166   5.696   3.001  0.4533  0.3807 -0.0691
  408DG      H3 9364   0.384   5.087   2.897  1.4442 -0.8011  1.4784
  408DG      H4 9365   0.526   5.147   2.937  0.2110  0.4745  2.3013
  408DG      H5 9366   0.430   5.229   2.818  1.7384 -2.5401 -0.4023
  408DG      H6 9367  -0.235   5.635   2.951  1.4017  1.8136  0.5239
  408DG      H7 9368  -0.241   5.748   3.066  0.0370 -0.9004 -1.5843
  408DG      H8 9369  -0.123   5.773   2.929  0.8375  0.3986 -1.0043
  408DG      O9 9370   0.378   5.258   3.014 -0.9486 -0.5289 -0.3283
  408DG     O10 9371  -0.073   5.609   3.066  0.0593 -0.1084  0.1619
  408DG     C11 9372   0.426   5.392   3.000  0.1163  0.0180 -0.5203
  408DG     C12 9373   0.050   5.674   3.100  0.0434 -1.2047 -0.8237
  408DG     H13 9374   0.389   5.427   2.898  0.2955 -2.0541 -0.5878
  408DG     H14 9375   0.537   5.403   3.006 -0.5960 -0.3892 -0.8918
  408DG     H15 9376   0.025   5.748   3.175  0.5650  0.4009 -0.5667
  408DG     H16 9377   0.095   5.724   3.016  0.3021  0.2617  2.6984
  408DG     C17 9378   0.366   5.485   3.106  0.5224 -0.0349 -0.3040
  408DG     C18 9379   0.161   5.586   3.169  0.1490 -0.0324 -0.8014
  408DG     O19 9380   0.234   5.515   3.069  0.7560 -0.3362 -0.2020
  408DG     H20 9381   0.429   5.577   3.111 -0.7202 -0.2039  0.9471
  408DG     H21 9382   0.381   5.431   3.195 -1.3283  0.2033  1.4264
  408DG     H22 9383   0.234   5.654   3.214  1.5884 -1.6372 -1.8420
  408DG     H23 9384   0.112   5.516   3.237  0.0682  1.0824 -2.0998
  409DG      C1 9385   0.395   0.123   5.123 -0.2248 -0.4055  0.4771
  409DG      C2 9386   0.687   0.579   5.385 -0.3886  0.3890  0.0301
  409DG      H3 9387   0.461   0.083   5.201  0.7359  0.3683 -0.3175
  409DG      H4 9388   0.444   0.107   5.035  1.2827  1.6147  0.4150
  409DG      H5 9389   0.300   0.071   5.126 -0.4436  0.5897  1.2337
  409DG      H6 9390   0.781   0.558   5.329 -0.6109 -1.5023 -0.0987
  409DG      H7 9391   0.685   0.683   5.412  0.0485 -0.8783  0.4637
  409DG      H8 9392   0.702   0.520   5.477 -1.6935 -0.4603 -1.1232
  409DG      O9 9393   0.369   0.263   5.138  0.3569  0.0365 -0.6487
  409DG     O10 9394   0.575   0.546   5.303  0.1059 -0.2655  0.1056
  409DG     C11 9395   0.284   0.307   5.040  0.8414 -0.7017  0.6837
  409DG     C12 9396   0.573   0.624   5.189  0.3176 -0.1192  0.8477
  409DG     H13 9397   0.188   0.252   5.022  1.4723 -0.6825 -1.9954
  409DG     H14 9398   0.349   0.302   4.957  2.0624 -0.0136  1.0179
  409DG     H15 9399   0.664   0.615   5.138  1.2940 -0.0344  2.0956
  409DG     H16 9400   0.566   0.729   5.209  0.0076  0.2614 -0.9826
  409DG     C17 9401   0.249   0.458   5.079  0.5467 -0.8263  0.2997
  409DG     C18 9402   0.464   0.576   5.098  0.2580  0.0597 -0.4175
  409DG     O19 9403   0.351   0.526   5.163 -0.1905  0.2325 -0.5562
  409DG     H20 9404   0.157   0.463   5.144  0.5374  1.7018  0.6231
  409DG     H21 9405   0.216   0.516   4.990 -0.5378  1.1235 -0.9379
  409DG     H22 9406   0.425   0.664   5.054 -0.3639  1.1022  0.8004
  409DG     H23 9407   0.509   0.517   5.014 -1.0825 -2.1081  0.1153
  410DG      C1 9408   2.225   4.663   1.847  0.2732 -0.2109 -0.2276
  410DG      C2 9409   2.693   4.551   1.275 -0.1845 -0.0436 -0.1287
  410DG      H3 9410   2.249   4.765   1.871  2.2411 -0.2518  2.0639
  410DG      H4 9411   2.155   4.627   1.913  0.1510 -0.4587 -0.8935
  410DG      H5 9412   2.181   4.666   1.745  2.0886 -2.8851  1.3703
  410DG      H6 9413   2.748   4.640   1.301 -2.0905 -3.6496  3.1375
  410DG      H7 9414   2.768   4.484   1.233 -0.6515 -2.7370  0.5452
  410DG      H8 9415   2.618   4.580   1.204  0.0951 -0.9629  1.6988
  410DG      O9 9416   2.357   4.599   1.847  0.4887  0.2668 -0.2336
  410DG     O10 9417   2.647   4.502   1.396 -0.3816  0.0533  0.4060
  410DG     C11 9418   2.353   4.461   1.807 -0.3948 -0.4125 -0.8100
  410DG     C12 9419   2.590   4.610   1.483 -0.1750  0.0317 -0.0193
  410DG     H13 9420   2.286   4.443   1.731 -0.3858 -1.0052  2.3214
  410DG     H14 9421   2.320   4.417   1.899  1.2312  0.7561 -2.4147
  410DG     H15 9422   2.489   4.634   1.450 -1.4804 -1.5407  2.7868
  410DG     H16 9423   2.643   4.703   1.484  1.7956  0.2680  1.3010
  410DG     C17 9424   2.484   4.403   1.772 -0.9524 -0.0770  0.1558
  410DG     C18 9425   2.581   4.565   1.627 -0.7138 -0.2942 -0.3425
  410DG     O19 9426   2.518   4.439   1.638 -0.0139  0.0163 -0.4662
  410DG     H20 9427   2.472   4.292   1.778  0.6703 -2.9622  0.0770
  410DG     H21 9428   2.555   4.410   1.855  0.3856 -1.5724 -1.9069
  410DG     H22 9429   2.681   4.560   1.679  2.3791 -1.0931  4.2268
  410DG     H23 9430   2.525   4.643   1.674 -2.1836 -0.7992  0.8737
  411THF     O1 9431   0.911   4.007   3.298  0.5532 -0.4506 -0.2726
  411THF     C2 9432   0.821   3.907   3.328 -0.9227  0.4176  1.3970
  411THF     C3 9433   0.829   4.130   3.270  0.1744 -0.5034  0.4181
  411THF     H4 9434   0.784   3.909   3.434  1.1479 -1.7646 -0.4787
  411THF     H5 9435   0.866   3.808   3.320  1.7677  0.8349 -1.0129
  411THF     H6 9436   0.820   4.192   3.365 -1.1294  0.9717  0.5847
  411THF     H7 9437   0.881   4.194   3.204  0.6886  0.8703  0.4156
  411THF     C8 9438   0.694   4.090   3.217 -0.7069 -0.0232  0.5709
  411THF     C9 9439   0.705   3.933   3.231  0.4791  0.0751 -0.7116
  411THF    H10 9440   0.681   4.118   3.118 -0.7396  2.8570  0.2688
  411THF    H11 9441   0.609   4.137   3.273 -1.5150 -2.7961  2.4308
  411THF    H12 9442   0.610   3.885   3.263  0.9665 -2.5424 -0.5488
  411THF    H13 9443   0.722   3.887   3.134 -3.5790 -1.1385  0.8155
  412THF     O1 9444   2.008   5.444   1.736  0.3322  0.5406 -0.6946
  412THF     C2 9445   1.932   5.561   1.704 -0.1711  0.3647 -0.2241
  412THF     C3 9446   1.911   5.349   1.785 -0.2116 -0.3736 -0.1632
  412THF     H4 9447   1.862   5.550   1.626  3.3043 -3.4250  1.8958
  412THF     H5 9448   1.994   5.648   1.684 -0.0135 -0.9093 -1.7157
  412THF     H6 9449   1.858   5.297   1.708  0.1088  1.8956  2.6776
  412THF     H7 9450   1.951   5.267   1.843  2.4929  1.5254  0.5967
  412THF     C8 9451   1.812   5.440   1.871  0.4228  0.0252  0.3277
  412THF     C9 9452   1.856   5.581   1.835 -0.1280 -0.2214 -0.2108
  412THF    H10 9453   1.812   5.416   1.980  0.8087 -0.2879  0.8861
  412THF    H11 9454   1.711   5.423   1.844 -0.0671  0.3011 -1.8898
  412THF    H12 9455   1.773   5.648   1.840  0.2385  0.6881 -1.0304
  412THF    H13 9456   1.932   5.608   1.915 -0.2091  0.7051  1.0793
  413THF     O1 9457   3.842   5.312   0.888 -0.3834  0.4368 -0.2890
  413THF     C2 9458   3.756   5.210   0.938 -0.3014  0.2428 -0.0275
  413THF     C3 9459   3.786   5.397   0.792  0.0649  0.2151 -0.4529
  413THF     H4 9460   3.748   5.220   1.047  0.6533 -2.7973  0.2367
  413THF     H5 9461   3.788   5.108   0.929 -2.6269  1.3902 -0.2756
  413THF     H6 9462   3.759   5.489   0.851 -1.7295  0.1854 -1.0511
  413THF     H7 9463   3.836   5.433   0.708  0.9823  0.0414  0.5924
  413THF     C8 9464   3.658   5.323   0.754 -0.5178  0.8573 -0.7735
  413THF     C9 9465   3.619   5.246   0.880 -0.0202 -0.0223  0.8223
  413THF    H10 9466   3.690   5.248   0.682 -0.9167 -2.1057  1.2254
  413THF    H11 9467   3.589   5.385   0.705  1.8327  0.2389 -2.2673
  413THF    H12 9468   3.580   5.305   0.961 -1.8308  2.2619  0.8659
  413THF    H13 9469   3.550   5.162   0.861  1.8652 -0.1893  0.8452
  414THF     O1 9470   0.216   4.505   0.318 -0.1164  0.4384 -0.0619
  414THF     C2 9471   0.323   4.578   0.265 -0.1094 -0.8543 -0.1619
  414THF     C3 9472   0.265   4.414   0.413 -0.4840 -0.7307 -0.1266
  414THF     H4 9473   0.339   4.667   0.324  0.8501 -1.3090  0.4469
  414THF     H5 9474   0.278   4.613   0.173 -4.0598 -1.4463 -0.3794
  414THF     H6 9475   0.282   4.459   0.507 -1.7704  1.7669 -0.1392
  414THF     H7 9476   0.196   4.331   0.425 -0.6603 -0.4892  0.7367
  414THF     C8 9477   0.390   4.365   0.346  0.6165 -0.3447  0.3018
  414THF     C9 9478   0.445   4.486   0.264  0.0272  0.0019 -0.3660
  414THF    H10 9479   0.350   4.286   0.281 -1.6440 -1.9760 -0.9619
  414THF    H11 9480   0.472   4.320   0.407  0.0350  0.1143 -1.6310
  414THF    H12 9481   0.521   4.541   0.321 -2.5480 -1.6287  0.7264
  414THF    H13 9482   0.481   4.458   0.171 -0.2428 -0.4857  1.8816
  415THF     O1 9483   1.229   0.490   3.083  0.1206 -0.4493  0.5371
  415THF     C2 9484   1.367   0.493   3.041 -0.3833  0.3365 -0.6370
  415THF     C3 9485   1.160   0.555   2.978  0.0881 -0.1809 -0.2415
  415THF     H4 9486   1.382   0.417   2.958 -0.2013 -3.8950 -0.7175
  415THF     H5 9487   1.435   0.466   3.122  0.1908 -2.7069 -0.3387
  415THF     H6 9488   1.150   0.493   2.884 -1.9940 -1.0104 -0.5269
  415THF     H7 9489   1.056   0.588   3.008 -1.1921 -0.2885  0.5540
  415THF     C8 9490   1.241   0.678   2.962 -0.2921 -0.4008  0.1584
  415THF     C9 9491   1.385   0.634   2.995  0.6122 -0.1178  0.0363
  415THF    H10 9492   1.219   0.761   3.030 -1.9841 -0.4382  0.0281
  415THF    H11 9493   1.231   0.723   2.858 -0.5384 -3.5480  0.0095
  415THF    H12 9494   1.456   0.664   2.916  0.6676  0.6127 -1.1146
  415THF    H13 9495   1.407   0.685   3.093  0.1939  3.4537  2.0012
  416THF     O1 9496   4.053   1.113   4.174 -0.3518  0.2625 -0.3937
  416THF     C2 9497   3.949   1.203   4.122  0.3553 -0.5002  0.0340
  416THF     C3 9498   4.007   0.992   4.224  0.2924  0.6466  0.2388
  416THF     H4 9499   3.921   1.190   4.018 -0.1300 -0.7093  1.7209
  416THF     H5 9500   3.963   1.309   4.149 -2.2496 -3.0741  2.6779
  416THF     H6 9501   3.980   0.911   4.157  2.6667  1.2566  0.7091
  416THF     H7 9502   4.083   0.940   4.277  2.3689 -0.0122 -1.9082
  416THF     C8 9503   3.884   1.043   4.301 -0.0094  0.1505  0.3321
  416THF     C9 9504   3.829   1.151   4.209 -0.2337 -0.1936  0.3137
  416THF    H10 9505   3.909   1.096   4.401 -0.6040  0.7167  0.4641
  416THF    H11 9506   3.811   0.963   4.328 -0.1157 -1.0321  0.1112
  416THF    H12 9507   3.743   1.111   4.148 -1.7675  3.3936  2.6182
  416THF    H13 9508   3.784   1.233   4.270  0.7220  1.2926  1.8484
  417THF     O1 9509   0.057   2.179   0.990  0.4474  0.0483 -0.5378
  417THF     C2 9510   0.061   2.036   1.004  0.3649  0.2434 -0.0499
  417THF     C3 9511   0.111   2.212   0.868  0.0279 -0.3635  0.3189
  417THF     H4 9512  -0.023   1.991   0.947  1.3310 -0.9743  1.5383
  417THF     H5 9513   0.054   2.004   1.105  1.9029 -2.3904  1.5243
  417THF     H6 9514   0.041   2.189   0.785 -0.6677 -1.0164  1.3150
  417THF     H7 9515   0.144   2.313   0.859 -4.8292 -0.9056  0.4398
  417THF     C8 9516   0.229   2.113   0.852  0.0623  0.6075 -0.5337
  417THF     C9 9517   0.205   1.998   0.939  0.5534  0.4365 -0.8210
  417THF    H10 9518   0.322   2.160   0.877 -0.9958  1.9709  1.8845
  417THF    H11 9519   0.243   2.083   0.748 -0.8473 -1.1093  1.2111
  417THF    H12 9520   0.205   1.903   0.891  0.0768  1.1526 -2.1053
  417THF    H13 9521   0.273   2.003   1.021 -0.4419 -1.4049 -1.8485
  418THF     O1 9522   1.485   3.816   4.472  0.1740  0.4026 -0.2093
  418THF     C2 9523   1.623   3.827   4.471 -0.3194  0.5758  0.0646
  418THF     C3 9524   1.441   3.886   4.361  0.1179 -0.1326  0.6051
  418THF     H4 9525   1.661   3.764   4.391  0.2267 -2.5161  0.0258
  418THF     H5 9526   1.650   3.792   4.568 -3.9653 -0.5114 -3.2369
  418THF     H6 9527   1.452   3.818   4.279 -1.4744  0.1520  2.2943
  418THF     H7 9528   1.343   3.922   4.375  2.6286 -2.0065 -2.2797
  418THF     C8 9529   1.532   4.008   4.350 -0.1911  0.0268 -0.2160
  418THF     C9 9530   1.647   3.981   4.445 -0.2935  0.0763  0.5574
  418THF    H10 9531   1.489   4.105   4.375 -1.2639  0.1223 -0.0301
  418THF    H11 9532   1.569   4.008   4.249 -0.2368  0.4195 -0.5925
  418THF    H12 9533   1.745   4.002   4.403  1.2295 -0.3303 -2.0619
  418THF    H13 9534   1.641   4.048   4.531 -0.4148  1.0044 -0.4709
  419THF     O1 9535   3.831   1.607   4.075  0.0851 -0.5835  0.5037
  419THF     C2 9536   3.854   1.734   4.142  0.9579  0.3237  0.3731
  419THF     C3 9537   3.909   1.588   3.960  0.1584  0.3549  0.3446
  419THF     H4 9538   3.906   1.715   4.236  1.2854 -1.8519  0.8256
  419THF     H5 9539   3.758   1.786   4.163 -0.6155  0.7622 -0.0882
  419THF     H6 9540   3.959   1.497   3.961 -0.4996  1.1799 -0.0213
  419THF     H7 9541   3.842   1.569   3.876  1.5681  0.8121 -1.6160
  419THF     C8 9542   3.999   1.708   3.947  0.3271 -0.2088 -0.7875
  419THF     C9 9543   3.933   1.814   4.040  0.3571  0.3131  0.4008
  419THF    H10 9544   4.007   1.745   3.839 -0.5885  1.4185 -3.6254
  419THF    H11 9545   4.101   1.679   3.982 -1.4278 -0.8956  0.7215
  419THF    H12 9546   3.993   1.901   4.070 -1.3272 -2.5431  1.4813
  419THF    H13 9547   3.862   1.862   3.980 -0.4915  2.2870  2.5717
  420THF     O1 9548   2.257   4.109   4.667  0.3496  0.5214 -0.4837
  420THF     C2 9549   2.349   4.132   4.552  0.2470 -0.3214  0.8952
  420THF     C3 9550   2.124   4.126   4.615  0.5755 -0.0765  0.4681
  420THF     H4 9551   2.428   4.066   4.558 -0.1284 -0.9731  2.3675
  420THF     H5 9552   2.398   4.227   4.544  0.9450  1.8942 -1.6747
  420THF     H6 9553   2.061   4.078   4.684 -1.1178 -0.4901  1.0452
  420THF     H7 9554   2.096   4.228   4.625  1.2678 -0.2175 -0.7346
  420THF     C8 9555   2.127   4.079   4.477  0.1490 -0.2958  0.7967
  420THF     C9 9556   2.258   4.124   4.429  0.4706  0.3483  0.2124
  420THF    H10 9557   2.038   4.112   4.418 -1.2275  3.3015 -0.5046
  420THF    H11 9558   2.123   3.967   4.484  3.0256  0.1323  0.0904
  420THF    H12 9559   2.291   4.054   4.352  1.0263 -1.5404  4.8952
  420THF    H13 9560   2.257   4.223   4.382  1.4379 -1.9332 -1.5268
  421THF     O1 9561   5.501   4.843   4.585  0.1470 -0.2567  0.9151
  421THF     C2 9562   5.549   4.745   4.676 -0.6324 -0.6517  0.8838
  421THF     C3 9563   5.547   4.976   4.620 -0.5257 -0.2175  0.0600
  421THF     H4 9564   5.568   4.654   4.634  2.9152  0.3832  1.3031
  421THF     H5 9565   5.491   4.736   4.764 -0.6272  0.0204 -0.2436
  421THF     H6 9566   5.525   5.045   4.546  0.8918 -1.3487 -0.7931
  421THF     H7 9567   5.489   5.005   4.707 -1.0364  0.7607  3.5990
  421THF     C8 9568   5.695   4.945   4.647 -0.0173  0.4377 -0.1628
  421THF     C9 9569   5.677   4.811   4.725 -0.3890 -0.0269 -0.6972
  421THF    H10 9570   5.751   5.018   4.704  0.6115 -1.0318  1.1298
  421THF    H11 9571   5.751   4.927   4.559 -0.3530  0.4703  2.1601
  421THF    H12 9572   5.758   4.739   4.721  2.2856  0.5864  2.7027
  421THF    H13 9573   5.655   4.839   4.830 -0.2078 -0.0687 -0.2830
  422THF     O1 9574   1.285   4.426   4.694  0.2926 -0.2747  0.1921
  422THF     C2 9575   1.229   4.297   4.678 -0.1738 -0.0241 -0.0625
  422THF     C3 9576   1.367   4.409   4.807  0.1137 -0.2708 -0.4775
  422THF     H4 9577   1.192   4.302   4.575  0.9589  1.1753 -0.2670
  422THF     H5 9578   1.137   4.275   4.749  1.1104  1.5689 -0.0401
  422THF     H6 9579   1.440   4.491   4.809 -1.1404  0.1704 -1.0793
  422THF     H7 9580   1.323   4.395   4.903  0.7517 -1.5746  2.1500
  422THF     C8 9581   1.431   4.274   4.786 -0.1319 -0.8090 -0.0049
  422THF     C9 9582   1.346   4.206   4.679  0.1734  0.7804  0.2535
  422THF    H10 9583   1.435   4.214   4.874 -1.6173 -1.7159  2.4891
  422THF    H11 9584   1.533   4.292   4.754  1.5963 -1.4772 -1.4743
  422THF    H12 9585   1.400   4.214   4.588  0.5358  0.0405  1.5320
  422THF    H13 9586   1.329   4.108   4.709 -0.8036 -0.3818  2.2317
  423THF     O1 9587   0.773   0.428   2.053 -0.7695 -0.4426  0.1182
  423THF     C2 9588   0.710   0.498   2.157  0.4646 -0.2378 -0.2806
  423THF     C3 9589   0.843   0.324   2.110 -0.3033 -0.3238 -0.3971
  423THF     H4 9590   0.635   0.562   2.108  1.0450  2.5175  0.5952
  423THF     H5 9591   0.779   0.562   2.213  1.8321  2.0512 -0.3840
  423THF     H6 9592   0.861   0.240   2.044 -3.0317 -2.6712 -1.1265
  423THF     H7 9593   0.945   0.360   2.128  1.3991 -1.6541  3.9567
  423THF     C8 9594   0.767   0.286   2.242 -0.2332 -0.4202  0.4074
  423THF     C9 9595   0.653   0.385   2.237 -0.0379 -0.0681  0.4520
  423THF    H10 9596   0.837   0.298   2.326 -0.5944  1.1909 -1.0985
  423THF    H11 9597   0.732   0.188   2.244  0.9080 -0.0019  2.0331
  423THF    H12 9598   0.562   0.348   2.196  0.3358 -1.0871  0.7142
  423THF    H13 9599   0.632   0.420   2.341  2.6236  2.4500  2.4918
  424THF     O1 9600   0.945   4.377   5.277  0.1894  0.1414  0.3839
  424THF     C2 9601   1.066   4.450   5.299  0.0035 -0.6140 -0.0191
  424THF     C3 9602   0.873   4.450   5.182 -0.1067  0.2673 -0.6041
  424THF     H4 9603   1.149   4.387   5.326  1.7472  1.1552  1.8604
  424THF     H5 9604   1.054   4.525   5.371 -1.0598  1.5165 -0.8639
  424THF     H6 9605   0.788   4.395   5.137  0.0618 -0.9254 -0.5593
  424THF     H7 9606   0.834   4.540   5.234  0.2648  2.5196  1.6107
  424THF     C8 9607   0.983   4.483   5.081 -0.1076  0.5874 -0.0756
  424THF     C9 9608   1.099   4.508   5.168 -0.9828 -0.5516 -1.0103
  424THF    H10 9609   0.955   4.565   5.015 -0.5809  1.1301 -0.7733
  424THF    H11 9610   1.008   4.400   5.014 -0.8587 -0.5290 -2.3326
  424THF    H12 9611   1.194   4.482   5.126 -0.4924  0.4710 -1.6585
  424THF    H13 9612   1.100   4.618   5.189 -0.5402 -0.5398 -1.9726
  425THF     O1 9613   2.923   0.831   5.020  0.3311  0.4070  0.3629
  425THF     C2 9614   2.982   0.708   5.063 -0.4426 -0.5181 -0.0353
  425THF     C3 9615   2.971   0.927   5.108 -0.0059  0.4717 -0.5198
  425THF     H4 9616   3.088   0.712   5.028  0.3917  0.7388  0.1241
  425THF     H5 9617   2.940   0.617   5.013 -0.9940 -1.3839  3.9195
  425THF     H6 9618   3.069   0.966   5.093 -0.3519  1.6306  0.4006
  425THF     H7 9619   2.916   1.018   5.102  1.1249 -0.4060 -3.6736
  425THF     C8 9620   2.966   0.861   5.244  0.4822  0.0738  0.9253
  425THF     C9 9621   2.967   0.714   5.218 -0.6537  0.2404  0.4078
  425THF    H10 9622   2.872   0.878   5.296 -2.5728  1.8907  0.2396
  425THF    H11 9623   3.032   0.895   5.319  0.3840  2.1343 -2.1235
  425THF    H12 9624   3.043   0.651   5.276 -0.7909  2.3927  2.4744
  425THF    H13 9625   2.870   0.683   5.262 -1.9254 -1.1025 -1.0720
  426THF     O1 9626   1.444   0.420   3.481 -0.0853 -0.0730 -0.1091
  426THF     C2 9627   1.558   0.499   3.445 -0.9660  1.1692 -0.1498
  426THF     C3 9628   1.355   0.511   3.548 -0.2067 -0.2250  0.0496
  426THF     H4 9629   1.545   0.532   3.342 -1.0109  0.2488 -1.8582
  426THF     H5 9630   1.655   0.448   3.459 -2.4045 -1.0081 -2.8048
  426THF     H6 9631   1.251   0.485   3.526 -1.2168  0.7947 -1.8362
  426THF     H7 9632   1.365   0.487   3.656 -1.8730  1.1460  0.8947
  426THF     C8 9633   1.407   0.656   3.524 -0.7968  0.0241 -0.5022
  426THF     C9 9634   1.558   0.626   3.523 -0.0617  0.3235  0.5418
  426THF    H10 9635   1.382   0.708   3.617 -1.4071 -0.8518  0.7072
  426THF    H11 9636   1.383   0.688   3.428  2.7583  0.5683 -0.4616
  426THF    H12 9637   1.626   0.694   3.481 -3.1410 -0.7508  4.0707
  426THF    H13 9638   1.587   0.600   3.628 -0.1248 -1.7596  1.1232
  427THF     O1 9639   5.228   5.285   0.596 -0.8139 -0.2955 -0.0993
  427THF     C2 9640   5.207   5.164   0.667 -0.3143 -0.0379 -0.0461
  427THF     C3 9641   5.253   5.256   0.459  0.2076 -0.6664 -0.2626
  427THF     H4 9642   5.178   5.194   0.775  1.2253 -1.6617  1.3056
  427THF     H5 9643   5.303   5.107   0.673  0.1617  2.0670  0.6981
  427THF     H6 9644   5.220   5.339   0.398  1.3420 -3.4087 -2.9346
  427THF     H7 9645   5.355   5.238   0.430  2.3272  1.7472 -1.1250
  427THF     C8 9646   5.159   5.131   0.436 -0.4613  0.0779  0.2804
  427THF     C9 9647   5.106   5.094   0.580 -0.6980 -0.5518  0.0655
  427THF    H10 9648   5.209   5.049   0.392 -2.0576 -1.5100 -0.6495
  427THF    H11 9649   5.078   5.163   0.373 -0.1120  1.1767  0.4031
  427THF    H12 9650   5.009   5.129   0.600  2.5390  0.1337 -0.8066
  427THF    H13 9651   5.112   4.988   0.599  3.3940  0.5563  0.0903
  428THF     O1 9652   0.376   2.333   2.400  0.4797 -0.5214  0.3505
  428THF     C2 9653   0.344   2.214   2.468  0.3734 -0.1857 -0.1275
  428THF     C3 9654   0.500   2.326   2.332  0.7138  0.1547  0.0353
  428THF     H4 9655   0.307   2.147   2.387  1.1923  0.7357 -1.0877
  428THF     H5 9656   0.267   2.214   2.549  0.3534  1.1630  1.7783
  428THF     H6 9657   0.491   2.287   2.221 -1.3548 -0.4804  0.1550
  428THF     H7 9658   0.560   2.421   2.320  0.6249  0.9388  0.1761
  428THF     C8 9659   0.574   2.213   2.407 -0.7303 -0.4565  0.6618
  428THF     C9 9660   0.481   2.168   2.519  0.4457 -0.3738  0.2135
  428THF    H10 9661   0.674   2.255   2.434  1.4560  3.9322 -1.4493
  428THF    H11 9662   0.588   2.117   2.349 -1.4090  0.3392 -0.9672
  428THF    H12 9663   0.482   2.062   2.534 -0.9722 -1.3802  0.5980
  428THF    H13 9664   0.489   2.225   2.615 -0.6970 -1.3130 -0.5713
  429THF     O1 9665   0.235   4.724   5.146  0.2886  0.3324 -0.4906
  429THF     C2 9666   0.307   4.771   5.264  0.0035  0.3754 -0.3783
  429THF     C3 9667   0.336   4.718   5.040 -0.3880 -0.4321  0.6724
  429THF     H4 9668   0.265   4.738   5.359  1.8918  0.4166  0.4247
  429THF     H5 9669   0.305   4.878   5.262 -0.3753  1.8172 -0.0671
  429THF     H6 9670   0.317   4.661   4.956  0.6679  1.9056  1.0209
  429THF     H7 9671   0.341   4.815   4.998  2.3386 -0.1808  2.5233
  429THF     C8 9672   0.463   4.662   5.111 -0.5148 -0.1010  0.0393
  429THF     C9 9673   0.454   4.712   5.254 -0.0197  0.6851 -0.6890
  429THF    H10 9674   0.555   4.703   5.065 -1.6740 -0.1987  1.9746
  429THF    H11 9675   0.451   4.557   5.107 -2.0869  3.5751  0.2158
  429THF    H12 9676   0.470   4.629   5.317 -0.3817  0.7523  0.3233
  429THF    H13 9677   0.527   4.790   5.274  0.8908 -1.6442  0.2538
  430THF     O1 9678   2.953   3.236   3.979 -0.2281 -0.2065 -0.3604
  430THF     C2 9679   2.951   3.229   3.834 -0.4092  0.2901  0.3246
  430THF     C3 9680   2.992   3.362   4.019  0.1958 -0.1872 -0.0830
  430THF     H4 9681   2.878   3.158   3.790  2.2944 -1.1307  0.3300
  430THF     H5 9682   3.047   3.205   3.798 -2.4288  2.3786  2.8829
  430THF     H6 9683   2.956   3.391   4.122 -0.5967  1.9998  1.7584
  430THF     H7 9684   3.101   3.341   4.029 -2.1886 -0.8911  3.8961
  430THF     C8 9685   2.949   3.464   3.912 -0.2018  0.3586  0.1250
  430THF     C9 9686   2.915   3.370   3.790 -0.3514  0.0044  0.1704
  430THF    H10 9687   3.021   3.536   3.882 -0.1937  0.6916 -0.5094
  430THF    H11 9688   2.867   3.519   3.946  3.3362 -1.0955  0.9181
  430THF    H12 9689   2.807   3.381   3.762  0.1521  0.8026 -0.8332
  430THF    H13 9690   2.969   3.414   3.706  1.8638 -1.1029  1.7707
  431THF     O1 9691   1.623   5.419   2.206 -0.0127 -0.2439 -0.1769
  431THF     C2 9692   1.549   5.522   2.275 -0.7015  0.0174  0.0968
  431THF     C3 9693   1.539   5.367   2.107 -0.5674 -0.0502  0.5394
  431THF     H4 9694   1.634   5.590   2.305 -0.6788 -1.1249 -1.5730
  431THF     H5 9695   1.500   5.488   2.373 -0.0606  0.1939  3.1253
  431THF     H6 9696   1.599   5.306   2.042 -2.2243 -1.0875  0.0778
  431THF     H7 9697   1.474   5.299   2.161 -2.3142 -1.1280  0.9874
  431THF     C8 9698   1.467   5.494   2.056  0.2789  0.0722  0.0984
  431THF     C9 9699   1.456   5.591   2.175  0.0746  0.0612 -0.2964
  431THF    H10 9700   1.374   5.477   2.017  1.4842 -0.9938 -0.5561
  431THF    H11 9701   1.525   5.530   1.968 -3.9654  0.6327 -0.5603
  431THF    H12 9702   1.483   5.691   2.151 -0.8047 -2.7253 -0.4862
  431THF    H13 9703   1.352   5.589   2.209  0.9301  2.3787 -1.6875
  432THF     O1 9704   4.842   2.264   4.318  0.1916 -0.2631  0.0992
  432THF     C2 9705   4.824   2.133   4.380 -0.0003  0.3327 -0.5549
  432THF     C3 9706   4.852   2.250   4.179  0.6954 -1.0205  0.3096
  432THF     H4 9707   4.776   2.138   4.485 -0.6266  1.0691  0.8410
  432THF     H5 9708   4.915   2.078   4.388  3.2954 -1.0254 -0.7952
  432THF     H6 9709   4.821   2.347   4.132 -3.3804  2.1958  0.0447
  432THF     H7 9710   4.957   2.231   4.151 -1.1002  1.6323 -0.1407
  432THF     C8 9711   4.742   2.137   4.152  0.7311  0.1188  0.5763
  432THF     C9 9712   4.726   2.072   4.286  0.5773 -1.0957  0.0471
  432THF    H10 9713   4.767   2.047   4.088 -1.0565  0.9331 -2.9154
  432THF    H11 9714   4.642   2.186   4.127 -2.7380 -1.2099 -0.8321
  432THF    H12 9715   4.620   2.091   4.318  0.8437 -0.9464 -4.5076
  432THF    H13 9716   4.728   1.958   4.284 -1.3695 -1.0686 -0.3063
  433THF     O1 9717   1.157   5.371   0.885 -0.2000  0.1379 -0.1082
  433THF     C2 9718   1.148   5.484   0.798 -0.7410 -0.1872  0.4615
  433THF     C3 9719   1.030   5.315   0.911 -0.3519 -0.5163 -0.2714
  433THF     H4 9720   1.243   5.516   0.765 -0.8264 -0.9608  0.2579
  433THF     H5 9721   1.098   5.560   0.862  0.3931 -0.2764 -0.6976
  433THF     H6 9722   1.036   5.214   0.943  2.3626  0.6087 -2.3190
  433THF     H7 9723   0.981   5.372   0.992  0.3171 -4.0310  0.2761
  433THF     C8 9724   0.962   5.332   0.770  0.4450  0.6178 -0.1719
  433THF     C9 9725   1.042   5.436   0.695  0.6186 -0.1906 -0.6978
  433THF    H10 9726   0.862   5.379   0.788  0.6292 -3.7199 -2.0484
  433THF    H11 9727   0.938   5.243   0.711  1.5618  0.9180  0.0983
  433THF    H12 9728   1.097   5.390   0.614  2.7211  0.0093  1.2467
  433THF    H13 9729   0.979   5.517   0.654 -1.2372  2.5484  0.1542
  434THF     O1 9730   1.322   1.394   4.447 -0.6165  0.2767 -0.4832
  434THF     C2 9731   1.210   1.304   4.427  0.8094  0.9774 -0.7363
  434THF     C3 9732   1.304   1.458   4.568  0.2220  0.4103  0.3882
  434THF     H4 9733   1.229   1.231   4.348  2.6888  0.2401  1.3049
  434THF     H5 9734   1.121   1.355   4.412  0.7093 -1.0983  1.1825
  434THF     H6 9735   1.399   1.499   4.611  2.7834  1.0333  2.4252
  434THF     H7 9736   1.241   1.542   4.555  0.3241 -1.3990  0.6268
  434THF     C8 9737   1.264   1.341   4.659 -0.5707 -0.4851  0.3064
  434THF     C9 9738   1.196   1.243   4.562 -0.3596 -0.4817 -0.2508
  434THF    H10 9739   1.197   1.385   4.736  0.4278 -0.8743 -1.0635
  434THF    H11 9740   1.349   1.298   4.711 -2.6483  3.5334 -3.1272
  434THF    H12 9741   1.253   1.147   4.554  2.2001  0.4943 -0.8661
  434THF    H13 9742   1.089   1.223   4.590 -0.4750  1.3944  0.0004
  435THF     O1 9743   5.444   4.388   5.325  0.0112  0.1439  1.0061
  435THF     C2 9744   5.515   4.505   5.363 -0.5048 -0.5399  0.6188
  435THF     C3 9745   5.539   4.294   5.287  0.2225 -0.2083  0.4347
  435THF     H4 9746   5.444   4.564   5.421 -1.3875  0.6373  1.9303
  435THF     H5 9747   5.534   4.559   5.269  2.5531  1.4345  0.2195
  435THF     H6 9748   5.501   4.190   5.278 -0.7008 -2.1487  1.8582
  435THF     H7 9749   5.580   4.321   5.189 -0.3495 -1.3058 -2.1685
  435THF     C8 9750   5.646   4.310   5.398 -0.3672 -0.1824  0.1689
  435THF     C9 9751   5.637   4.455   5.440 -0.0805 -0.6391  0.0003
  435THF    H10 9752   5.749   4.283   5.365  1.8176 -0.6420 -1.8243
  435THF    H11 9753   5.612   4.254   5.481  3.4695  1.9047 -0.1480
  435THF    H12 9754   5.641   4.460   5.549  0.9612  1.4543  0.9241
  435THF    H13 9755   5.730   4.507   5.407  1.6259 -0.6854 -1.1132
  436THF     O1 9756   5.157   4.518   4.873 -0.6204  0.1461  0.7011
  436THF     C2 9757   5.172   4.629   4.960 -0.0236  0.2363  0.1850
  436THF     C3 9758   5.263   4.428   4.896  0.1489 -0.1741 -0.3231
  436THF     H4 9759   5.077   4.660   5.008  1.2483 -3.8999  0.0128
  436THF     H5 9760   5.217   4.711   4.904  0.6868  2.8785 -0.0636
  436THF     H6 9761   5.225   4.338   4.949 -1.1776  0.4235  2.1540
  436THF     H7 9762   5.311   4.399   4.808 -2.1059  3.0284 -0.4243
  436THF     C8 9763   5.366   4.498   4.989 -0.4428 -0.2275 -0.0056
  436THF     C9 9764   5.272   4.586   5.067  0.0097 -0.4192  0.3089
  436THF    H10 9765   5.443   4.553   4.938 -0.5727  1.1635  2.4620
  436THF    H11 9766   5.411   4.419   5.054  1.3728 -1.7095  1.2053
  436THF    H12 9767   5.215   4.542   5.148 -1.6964 -0.3176 -3.3843
  436THF    H13 9768   5.325   4.675   5.108 -0.0017 -1.6300 -2.0791
  437THF     O1 9769   4.011   2.227   1.915  0.3477 -0.0385  0.4810
  437THF     C2 9770   3.930   2.131   1.992  0.4967 -0.0124  0.4729
  437THF     C3 9771   3.927   2.336   1.887  0.2689  0.3679  0.7014
  437THF     H4 9772   3.975   2.038   2.034  1.0538 -0.3924  0.4238
  437THF     H5 9773   3.857   2.084   1.921  0.8708  1.1602  0.3622
  437THF     H6 9774   3.992   2.420   1.844  1.1828 -0.2361 -1.1552
  437THF     H7 9775   3.854   2.310   1.813 -0.1663 -0.7751 -0.7785
  437THF     C8 9776   3.863   2.358   2.027 -0.3745  0.5507 -0.7788
  437THF     C9 9777   3.859   2.222   2.090 -0.1608  0.0271  1.0809
  437THF    H10 9778   3.774   2.414   2.034  1.6927 -1.4016 -2.1539
  437THF    H11 9779   3.914   2.420   2.094 -2.2828 -0.7938  1.8773
  437THF    H12 9780   3.906   2.223   2.189 -0.3728  0.2595  2.0214
  437THF    H13 9781   3.759   2.194   2.119  0.8653 -0.2352  1.1096
  438THF     O1 9782   1.821   2.834   1.214 -0.3727 -0.2060 -0.0895
  438THF     C2 9783   1.684   2.855   1.170  0.1164 -0.1451 -0.7874
  438THF     C3 9784   1.869   2.744   1.119 -0.6152 -0.4854  0.4916
  438THF     H4 9785   1.665   2.947   1.120  0.5073 -1.1942 -0.9034
  438THF     H5 9786   1.629   2.842   1.264  0.0399  0.8479 -0.6782
  438THF     H6 9787   1.895   2.807   1.030 -1.4469  0.8379  0.0011
  438THF     H7 9788   1.963   2.697   1.160  0.8960  1.5581  0.8138
  438THF     C8 9789   1.747   2.650   1.097  0.5126  0.3931 -0.1214
  438THF     C9 9790   1.633   2.740   1.078  0.3203  0.1667 -0.7404
  438THF    H10 9791   1.738   2.587   1.183  0.1110  0.8561 -1.6831
  438THF    H11 9792   1.754   2.576   1.005  1.7985 -0.2578 -0.7713
  438THF    H12 9793   1.625   2.771   0.979  3.7303 -1.3481  2.7946
  438THF    H13 9794   1.533   2.701   1.103 -0.7566 -4.0853 -0.6897
  439THF     O1 9795   2.468   0.244   1.938 -0.4524  0.1916 -0.2311
  439THF     C2 9796   2.464   0.149   1.824  0.2164 -0.7255  0.0632
  439THF     C3 9797   2.375   0.191   2.038  0.3616 -0.1135 -0.7284
  439THF     H4 9798   2.527   0.063   1.848 -0.8714 -1.8159 -0.0806
  439THF     H5 9799   2.491   0.211   1.737 -2.3875 -3.2431  0.1173
  439THF     H6 9800   2.424   0.113   2.096  0.8375 -0.5358 -0.1064
  439THF     H7 9801   2.335   0.266   2.114  0.5929  0.9900  0.8286
  439THF     C8 9802   2.261   0.128   1.961  0.1341  0.1566 -0.4091
  439THF     C9 9803   2.321   0.108   1.825 -0.3017  0.0693  0.5243
  439THF    H10 9804   2.179   0.199   1.937 -0.1592  0.2753 -1.8391
  439THF    H11 9805   2.224   0.039   2.003  0.0459 -1.0437 -3.8704
  439THF    H12 9806   2.315   0.007   1.784  0.0133  1.7044 -0.8818
  439THF    H13 9807   2.255   0.162   1.752 -0.2994 -0.2045 -2.1393
  440THF     O1 9808   3.382   1.055   2.931  0.3244  0.3018 -0.0027
  440THF     C2 9809   3.383   1.127   2.813  0.2404  0.4029  0.6310
  440THF     C3 9810   3.311   0.935   2.907 -0.7575 -0.6547  0.3210
  440THF     H4 9811   3.489   1.131   2.783 -0.3670 -0.2988  0.4106
  440THF     H5 9812   3.355   1.229   2.838 -0.2363 -3.1429  0.1538
  440THF     H6 9813   3.361   0.864   2.974  0.4974  1.3758  0.5099
  440THF     H7 9814   3.210   0.952   2.937 -1.4639 -1.0913  0.5562
  440THF     C8 9815   3.318   0.910   2.765  0.3636  0.1819  0.2655
  440THF     C9 9816   3.294   1.052   2.714 -0.7751  0.1243  0.0979
  440THF    H10 9817   3.229   0.857   2.726 -2.0605 -1.2580 -1.7318
  440THF    H11 9818   3.404   0.855   2.724 -2.8875  0.5282 -0.5114
  440THF    H12 9819   3.320   1.067   2.609  0.9145 -0.0296  0.1700
  440THF    H13 9820   3.193   1.090   2.739 -0.0802  1.3343 -0.5407
  441THF     O1 9821   4.661   2.635   0.836  0.2573 -0.2331 -0.1786
  441THF     C2 9822   4.641   2.502   0.798 -0.7151  0.7409 -0.2629
  441THF     C3 9823   4.574   2.666   0.945  0.5354  0.0756  0.1542
  441THF     H4 9824   4.740   2.460   0.766 -2.2631 -0.1586  5.4113
  441THF     H5 9825   4.566   2.512   0.718  1.7862  1.1121 -0.1148
  441THF     H6 9826   4.602   2.756   0.997  2.8052 -1.2166  1.3132
  441THF     H7 9827   4.484   2.689   0.890  1.1250 -1.2028 -0.2143
  441THF     C8 9828   4.568   2.539   1.031  0.7278 -0.3699  0.2004
  441THF     C9 9829   4.581   2.433   0.922 -0.1085 -0.0158  0.3635
  441THF    H10 9830   4.480   2.539   1.100 -0.0495  1.9433 -1.4497
  441THF    H11 9831   4.662   2.534   1.086 -1.8793  1.8141  0.5804
  441THF    H12 9832   4.644   2.349   0.957 -1.0094  0.8101 -0.7190
  441THF    H13 9833   4.488   2.387   0.895  1.8466  2.5851  0.1145
  442THF     O1 9834   2.509   3.970   4.299  0.0425  0.1322 -0.0111
  442THF     C2 9835   2.506   3.909   4.170 -0.3898  0.1038  0.3629
  442THF     C3 9836   2.644   4.015   4.335  0.4006  0.5154  0.6057
  442THF     H4 9837   2.412   3.916   4.116 -2.1520  2.6956 -0.6184
  442THF     H5 9838   2.533   3.805   4.181 -1.0225  0.3531  0.6717
  442THF     H6 9839   2.629   4.090   4.420 -0.8319  0.9606  0.0923
  442THF     H7 9840   2.708   3.926   4.364 -1.4145 -0.5443 -2.1515
  442THF     C8 9841   2.681   4.078   4.199 -0.4184 -0.3643  0.2803
  442THF     C9 9842   2.615   3.982   4.096  0.3839 -0.0700 -0.2238
  442THF    H10 9843   2.790   4.065   4.189  1.2205 -3.7511 -1.1075
  442THF    H11 9844   2.651   4.181   4.178  1.6381 -0.4890 -1.7268
  442THF    H12 9845   2.573   4.040   4.011 -1.6075 -0.9591 -0.3024
  442THF    H13 9846   2.692   3.919   4.047 -1.3225  0.8278 -2.0139
  443THF     O1 9847   0.506   2.042   0.222 -0.2748  1.0524  0.0636
  443THF     C2 9848   0.579   2.026   0.101 -0.1924 -0.5373  1.0173
  443THF     C3 9849   0.369   2.050   0.199 -0.1813  0.2017  0.2871
  443THF     H4 9850   0.662   1.956   0.099  0.8654 -2.2548  1.7527
  443THF     H5 9851   0.612   2.125   0.079 -0.0485  1.8289 -1.1065
  443THF     H6 9852   0.328   1.969   0.263 -0.6774  0.3661  0.3666
  443THF     H7 9853   0.338   2.145   0.235  0.7021  1.1012  0.1765
  443THF     C8 9854   0.345   2.039   0.047  0.0156 -0.3943 -0.8734
  443THF     C9 9855   0.474   1.995  -0.006  0.1397 -0.0694  0.0070
  443THF    H10 9856   0.323   2.141   0.002 -0.4966  0.6614  3.4644
  443THF    H11 9857   0.266   1.968   0.021 -1.4179 -0.3752  1.3517
  443THF    H12 9858   0.463   1.888  -0.018  1.2450  1.7785 -0.4964
  443THF    H13 9859   0.494   2.042  -0.105  3.2691 -0.8227  2.0229
  444THF     O1 9860   2.651   3.658   0.165  0.3155 -0.0450  0.0266
  444THF     C2 9861   2.594   3.565   0.074  0.2050  0.3288  0.5084
  444THF     C3 9862   2.563   3.669   0.276 -0.0123 -0.3329 -0.6562
  444THF     H4 9863   2.672   3.511   0.017  1.7798 -3.0491 -0.3849
  444THF     H5 9864   2.529   3.625   0.007 -0.6339  2.8624 -0.1158
  444THF     H6 9865   2.613   3.700   0.370 -0.4985  1.2714  1.0500
  444THF     H7 9866   2.486   3.749   0.252  0.8246  1.8838  0.0996
  444THF     C8 9867   2.483   3.539   0.278 -0.2732  0.3796  0.0695
  444THF     C9 9868   2.502   3.470   0.146  0.6957 -0.6863 -0.1997
  444THF    H10 9869   2.378   3.546   0.303  2.7339  1.0206  0.3921
  444THF    H11 9870   2.526   3.475   0.356 -0.5758 -0.5365  2.0281
  444THF    H12 9871   2.564   3.378   0.164  1.0253  0.3325 -0.2543
  444THF    H13 9872   2.413   3.431   0.096 -1.6052 -0.3517  0.7252
  445THF     O1 9873   1.579   2.168   4.604 -0.0633 -0.8873  0.2302
  445THF     C2 9874   1.700   2.157   4.530 -0.2249 -0.0722  0.1146
  445THF     C3 9875   1.480   2.224   4.516  0.7802  0.4996  0.6654
  445THF     H4 9876   1.698   2.055   4.489  1.0092  0.9481 -3.8073
  445THF     H5 9877   1.787   2.165   4.588  0.8198 -2.5793 -1.5166
  445THF     H6 9878   1.439   2.138   4.455  1.5507 -1.9369  0.6831
  445THF     H7 9879   1.404   2.260   4.578  1.1625 -0.9723  0.1353
  445THF     C8 9880   1.551   2.327   4.432  0.3090  0.8891  0.1542
  445THF     C9 9881   1.693   2.268   4.426 -0.2070  0.1262  0.1568
  445THF    H10 9882   1.551   2.415   4.491  2.8662  0.2009  0.5130
  445THF    H11 9883   1.504   2.341   4.337 -2.4332  1.8039  1.4282
  445THF    H12 9884   1.725   2.219   4.337  1.0271 -0.0314  1.0946
  445THF    H13 9885   1.768   2.340   4.455  0.9837 -0.9707 -1.2323
  446THF     O1 9886   3.198   1.174   2.002  0.3690  0.1946 -0.1097
  446THF     C2 9887   3.185   1.037   2.004 -0.4316 -0.0699  0.1336
  446THF     C3 9888   3.303   1.203   1.914  0.0434  0.2469  0.2042
  446THF     H4 9889   3.131   1.019   1.912 -0.0408 -0.1758  1.0542
  446THF     H5 9890   3.137   1.009   2.092  0.9751 -2.4632  0.0828
  446THF     H6 9891   3.269   1.210   1.810  0.5165  2.5412  1.0186
  446THF     H7 9892   3.332   1.304   1.943  0.1298  0.9964  1.0124
  446THF     C8 9893   3.404   1.096   1.937 -0.2959  0.2354 -0.4218
  446THF     C9 9894   3.320   0.974   1.971 -0.3082  0.2877 -0.3909
  446THF    H10 9895   3.479   1.123   2.017  2.1113  1.5431 -1.7772
  446THF    H11 9896   3.462   1.088   1.841 -1.8125 -1.0390  1.3070
  446THF    H12 9897   3.327   0.914   1.879  2.0882  2.5077 -0.4380
  446THF    H13 9898   3.362   0.910   2.051  4.0524  0.6841  2.0697
  447THF     O1 9899   4.708   0.043   4.271 -0.0031 -0.1850  0.6719
  447THF     C2 9900   4.677  -0.056   4.162 -0.0821 -0.2425 -0.6703
  447THF     C3 9901   4.727  -0.030   4.384 -0.0111 -0.7980 -0.0856
  447THF     H4 9902   4.719  -0.023   4.071  0.0682  1.1864  1.3764
  447THF     H5 9903   4.572  -0.055   4.160 -1.1555  0.2329  0.0863
  447THF     H6 9904   4.753   0.035   4.461  0.7442  1.3581 -0.4417
  447THF     H7 9905   4.638  -0.075   4.421  2.2556  1.0335  3.9615
  447THF     C8 9906   4.827  -0.136   4.333 -0.1542 -0.0862 -0.1864
  447THF     C9 9907   4.748  -0.186   4.212 -0.4196 -0.1964  0.0905
  447THF    H10 9908   4.842  -0.218   4.407 -0.8196 -1.5326  0.8895
  447THF    H11 9909   4.925  -0.094   4.303 -0.4569 -0.8722 -0.2673
  447THF    H12 9910   4.808  -0.213   4.129 -1.1001  1.9547  0.1239
  447THF    H13 9911   4.670  -0.268   4.228 -0.7078 -4.0920  0.4477
  448THF     O1 9912   1.742   4.209   0.541 -0.2124 -0.4228 -0.0295
  448THF     C2 9913   1.864   4.279   0.521  0.0926 -0.2886  1.3134
  448THF     C3 9914   1.705   4.234   0.677  0.1917  0.4182 -0.0186
  448THF     H4 9915   1.893   4.309   0.422 -0.6796 -0.2724 -1.5432
  448THF     H5 9916   1.941   4.218   0.562 -0.7464 -0.5050  1.8779
  448THF     H6 9917   1.602   4.254   0.689 -0.8391 -0.3316  0.8937
  448THF     H7 9918   1.700   4.138   0.729  2.0284 -0.4880  0.5388
  448THF     C8 9919   1.790   4.344   0.746 -0.1861  0.6951 -0.6014
  448THF     C9 9920   1.852   4.393   0.613 -0.4450 -0.4328 -0.3592
  448THF    H10 9921   1.862   4.306   0.820  1.5901 -2.2972  0.0645
  448THF    H11 9922   1.732   4.419   0.799  0.4193  1.0460  4.2570
  448THF    H12 9923   1.789   4.467   0.559 -1.5467  0.4554  2.7406
  448THF    H13 9924   1.948   4.431   0.623 -1.9092  0.4331 -3.3173
  449THF     O1 9925   3.668   0.667   3.892  0.1770 -0.1936 -0.0839
  449THF     C2 9926   3.719   0.551   3.814  0.9264  0.1428 -0.0690
  449THF     C3 9927   3.574   0.742   3.817 -0.2482  0.9382 -0.4027
  449THF     H4 9928   3.681   0.461   3.852 -0.8965  1.1679 -1.2780
  449THF     H5 9929   3.828   0.535   3.803  2.5437 -1.8615  0.5863
  449THF     H6 9930   3.486   0.773   3.873 -3.5083  0.7314 -0.5514
  449THF     H7 9931   3.623   0.834   3.786 -0.7324 -0.2772  1.2838
  449THF     C8 9932   3.531   0.651   3.699  0.0967 -0.4201 -0.1200
  449THF     C9 9933   3.665   0.580   3.675  1.1093  0.1654  0.3223
  449THF    H10 9934   3.499   0.712   3.617  2.0014  1.9205  1.7932
  449THF    H11 9935   3.453   0.582   3.721 -2.6237  0.3801 -1.0843
  449THF    H12 9936   3.641   0.484   3.630  0.0670 -0.9291  2.6601
  449THF    H13 9937   3.732   0.640   3.610 -0.0691  1.8077  0.5320
  450THF     O1 9938   3.008   0.922   1.521  0.0325 -0.3791 -0.9617
  450THF     C2 9939   3.055   1.050   1.492  0.5454  0.0061  0.1065
  450THF     C3 9940   3.068   0.831   1.432  0.9037  0.1119  0.7884
  450THF     H4 9941   3.160   1.056   1.524  2.6717 -1.0006 -1.3783
  450THF     H5 9942   2.986   1.124   1.531 -2.3686  0.4744 -0.1721
  450THF     H6 9943   3.171   0.804   1.466  1.2288 -2.7097  1.5293
  450THF     H7 9944   3.025   0.730   1.430  2.9701 -2.4638  1.5051
  450THF     C8 9945   3.057   0.903   1.293  0.0491  0.5752  0.6321
  450THF     C9 9946   3.043   1.052   1.337 -0.4621 -0.3057  0.5522
  450THF    H10 9947   2.969   0.869   1.244  1.2354 -0.8102  3.4129
  450THF    H11 9948   3.148   0.886   1.240 -2.3999 -2.0831 -1.4209
  450THF    H12 9949   3.112   1.118   1.277  2.5934 -0.4582 -0.0283
  450THF    H13 9950   2.941   1.099   1.321  2.1439  0.9423 -0.1428
  451THF     O1 9951   1.944   2.141   5.087 -0.7032 -0.1320 -0.0229
  451THF     C2 9952   1.948   2.035   4.993  0.0746 -0.7317  0.3282
  451THF     C3 9953   2.040   2.241   5.053 -0.0072 -0.0970  0.4009
  451THF     H4 9954   1.869   2.036   4.911 -0.6605 -2.5812 -1.1677
  451THF     H5 9955   1.944   1.941   5.042  0.0245  1.8873  0.1587
  451THF     H6 9956   2.009   2.291   4.964 -0.2118  2.2503  2.7258
  451THF     H7 9957   2.058   2.315   5.133 -0.1886 -1.5927 -1.2891
  451THF     C8 9958   2.157   2.149   5.020  0.3055  0.2334  0.0979
  451THF     C9 9959   2.088   2.041   4.932  0.3430 -0.0379 -0.8534
  451THF    H10 9960   2.206   2.111   5.106 -0.1803 -0.3049  2.9781
  451THF    H11 9961   2.230   2.204   4.954  1.2539 -4.0943 -2.2415
  451THF    H12 9962   2.074   2.092   4.843  2.2611 -1.7970 -0.4869
  451THF    H13 9963   2.137   1.944   4.914 -2.7044 -2.5749 -2.8554
  452THF     O1 9964   4.516   4.335   3.662 -0.2776 -0.3620 -0.1251
  452THF     C2 9965   4.373   4.358   3.654  0.5298 -0.1993 -0.1143
  452THF     C3 9966   4.547   4.271   3.785  0.0963 -0.4204  0.6072
  452THF     H4 9967   4.331   4.375   3.552 -1.1824  1.0687  1.9346
  452THF     H5 9968   4.343   4.441   3.722 -1.6167  1.4674  1.7114
  452THF     H6 9969   4.658   4.250   3.781  1.0553 -0.1963  1.2476
  452THF     H7 9970   4.528   4.348   3.858  2.5692  1.4295  0.9212
  452THF     C8 9971   4.449   4.157   3.770 -0.4413 -0.0225 -0.1074
  452THF     C9 9972   4.327   4.222   3.695  0.3924  0.4441  0.6442
  452THF    H10 9973   4.415   4.125   3.864  1.2374 -0.6970 -0.7691
  452THF    H11 9974   4.484   4.075   3.712 -1.5364  0.1278  1.8524
  452THF    H12 9975   4.311   4.161   3.610  1.7735  0.5591 -0.0726
  452THF    H13 9976   4.230   4.234   3.744 -2.0445  0.1682 -0.2359
  453THF     O1 9977   1.658   1.542   1.922 -0.1437  0.6720  0.6774
  453THF     C2 9978   1.699   1.408   1.949  0.2598  0.4373 -0.3736
  453THF     C3 9979   1.734   1.633   2.003 -0.0164  0.3387  0.4664
  453THF     H4 9980   1.682   1.343   1.864  0.1852 -0.6897 -0.9975
  453THF     H5 9981   1.647   1.368   2.047  1.0595 -0.4464 -0.5101
  453THF     H6 9982   1.754   1.726   1.952  2.0188 -1.1984 -1.5099
  453THF     H7 9983   1.689   1.655   2.099 -0.9345 -1.2260  1.6738
  453THF     C8 9984   1.869   1.552   2.031 -0.1051  0.3110  0.0776
  453THF     C9 9985   1.852   1.424   1.955  0.0625 -0.0364  0.1009
  453THF    H10 9986   1.885   1.540   2.143  1.6174  0.3511  4.1551
  453THF    H11 9987   1.969   1.596   2.013 -1.1359  1.0497 -2.3733
  453THF    H12 9988   1.896   1.425   1.856  1.8872  0.5606  1.3633
  453THF    H13 9989   1.901   1.332   1.996 -1.6965 -0.2474 -0.0121
  454THF     O1 9990   1.380   1.438   0.724  0.3155 -0.6999  0.4981
  454THF     C2 9991   1.368   1.554   0.800  0.8865 -0.2428 -0.5686
  454THF     C3 9992   1.440   1.470   0.597  0.2943 -0.1966  0.1751
  454THF     H4 9993   1.469   1.568   0.836  0.6830 -1.5250  0.0606
  454THF     H5 9994   1.296   1.541   0.880  0.9781  1.9840 -1.3686
  454THF     H6 9995   1.544   1.447   0.600  1.4395  0.6781 -1.0597
  454THF     H7 9996   1.419   1.404   0.508  1.0232 -2.6042  0.1265
  454THF     C8 9997   1.406   1.620   0.565  0.3858  0.5639 -0.4755
  454THF     C9 9998   1.337   1.665   0.696 -0.3667  0.4798 -0.7900
  454THF    H10 9999   1.337   1.625   0.475 -1.2229  1.3056  0.0476
  454THF    H1110000   1.498   1.679   0.541 -0.3709  0.8014 -1.7262
  454THF    H1210001   1.363   1.763   0.733  0.3583  1.7236 -0.4635
  454THF    H1310002   1.226   1.664   0.678 -1.2492 -0.3978  1.0345
  455THF     O110003   5.354   4.352   3.374  0.7177  0.3476 -0.3470
  455THF     C210004   5.428   4.446   3.290  0.1819 -0.0580  1.0496
  455THF     C310005   5.216   4.357   3.334  0.0526  0.0694  0.1161
  455THF     H410006   5.530   4.415   3.275 -0.4817 -0.8970 -0.7492
  455THF     H510007   5.410   4.548   3.311 -2.4803  0.8568  0.2694
  455THF     H610008   5.174   4.254   3.347 -1.8346 -0.6849 -1.1729
  455THF     H710009   5.158   4.420   3.404 -1.0385  0.0614 -0.9412
  455THF     C810010   5.215   4.410   3.192  0.2037  0.5603  0.2359
  455THF     C910011   5.369   4.416   3.156  0.4310  0.3104 -0.1579
  455THF    H1010012   5.166   4.509   3.192 -0.7617  0.4134 -1.5566
  455THF    H1110013   5.164   4.347   3.111 -0.4277 -1.5012  2.9033
  455THF    H1210014   5.390   4.316   3.122 -2.0220 -0.0247  0.4205
  455THF    H1310015   5.383   4.492   3.080 -1.3305  3.3736 -0.4548
  456THF     O110016   3.631   2.269   3.295  0.0782  0.0519 -0.5232
  456THF     C210017   3.715   2.157   3.285  0.0892 -0.1487 -0.7191
  456THF     C310018   3.666   2.365   3.189  0.1207 -0.5092 -0.1646
  456THF     H410019   3.674   2.066   3.327 -0.9383  2.1613  1.3279
  456THF     H510020   3.813   2.178   3.328  3.1523 -0.7573 -0.9829
  456THF     H610021   3.570   2.412   3.154  0.4837 -0.1196 -3.1424
  456THF     H710022   3.730   2.446   3.228 -1.3168 -1.9519 -1.0438
  456THF     C810023   3.730   2.287   3.076 -0.2356 -0.5940  0.4064
  456THF     C910024   3.720   2.141   3.132 -0.2380  0.3272  0.2817
  456THF    H1010025   3.836   2.314   3.057  0.9411  0.2810 -0.0191
  456THF    H1110026   3.682   2.295   2.975 -0.2811  1.2593 -1.9291
  456THF    H1210027   3.629   2.092   3.098  0.8266  0.4529 -0.3914
  456THF    H1310028   3.808   2.081   3.105  0.9469  0.1811  0.1285
  457THF     O110029   1.288   3.821   1.142 -0.1273  0.2246  0.2137
  457THF     C210030   1.150   3.854   1.158  0.2043 -0.2551  0.1767
  457THF     C310031   1.341   3.799   1.275  0.2187  0.3721  0.2764
  457THF     H410032   1.074   3.773   1.160 -6.6763  1.4758  1.2136
  457THF     H510033   1.117   3.935   1.085 -0.2073  0.0590  0.4354
  457THF     H610034   1.318   3.696   1.308 -0.4017 -0.5040  1.5298
  457THF     H710035   1.453   3.811   1.281 -0.2803  1.3158 -0.0253
  457THF     C810036   1.271   3.897   1.373 -0.1365 -0.1560  0.1584
  457THF     C910037   1.141   3.923   1.294 -0.2526  0.4966 -0.6096
  457THF    H1010038   1.331   3.988   1.379  1.8847  0.5675  0.1781
  457THF    H1110039   1.252   3.852   1.469  0.2488 -0.9393  0.5907
  457THF    H1210040   1.065   3.864   1.349  1.1224  0.9644  1.1510
  457THF    H1310041   1.118   4.036   1.300  0.2362 -0.0571 -0.7493
  458THF     O110042   5.501   3.621   4.529 -0.1408 -0.6618  0.1736
  458THF     C210043   5.577   3.638   4.651 -0.5905 -0.3584 -0.5758
  458THF     C310044   5.418   3.513   4.541  0.0719  0.0701  0.2484
  458THF     H410045   5.523   3.695   4.733  0.3789  0.8927 -1.7848
  458THF     H510046   5.672   3.696   4.631  1.9352 -1.3757  0.2403
  458THF     H610047   5.330   3.540   4.603  1.3738  0.5464  2.0410
  458THF     H710048   5.384   3.490   4.440  0.2242 -4.2097  0.7187
  458THF     C810049   5.514   3.412   4.608 -0.0411 -0.3648  0.0671
  458THF     C910050   5.615   3.491   4.686 -0.1031  0.1544  0.4577
  458THF    H1010051   5.572   3.362   4.528  1.0942  1.3132  1.1139
  458THF    H1110052   5.456   3.335   4.656  1.6509 -3.3350 -2.0888
  458THF    H1210053   5.605   3.480   4.787  3.6805  3.2148  0.1114
  458THF    H1310054   5.704   3.470   4.643 -4.4665 -0.0043  0.7229
  459THF     O110055   4.669   0.442   0.515  0.1029  0.5015 -0.0450
  459THF     C210056   4.708   0.571   0.470 -0.0545 -0.4209  0.1128
  459THF     C310057   4.717   0.421   0.649 -0.5418  0.1185 -0.6162
  459THF     H410058   4.652   0.588   0.379  0.0365 -0.1105 -0.7973
  459THF     H510059   4.813   0.587   0.453 -1.3801  1.3671  1.8994
  459THF     H610060   4.664   0.328   0.688 -1.1229  0.2461  0.5235
  459THF     H710061   4.824   0.400   0.656 -0.0706  2.9817  0.9210
  459THF     C810062   4.671   0.548   0.705  0.7460 -0.1707 -0.1462
  459THF     C910063   4.664   0.651   0.589  0.5932 -0.2610 -0.1866
  459THF    H1010064   4.744   0.579   0.787  4.6657  5.0747 -1.4081
  459THF    H1110065   4.573   0.541   0.752 -1.6799  1.8120  0.7059
  459THF    H1210066   4.556   0.671   0.573 -1.9410 -2.3824 -0.2707
  459THF    H1310067   4.718   0.741   0.612  2.0556 -0.4989 -0.6410
  460THF     O110068   3.370   0.704   4.162 -0.1597  0.2342 -0.1990
  460THF     C210069   3.325   0.780   4.273  0.7647 -0.3306  0.1767
  460THF     C310070   3.507   0.681   4.185 -0.2185  0.3887 -0.3868
  460THF     H410071   3.318   0.728   4.362 -1.8042 -0.2706 -0.6703
  460THF     H510072   3.234   0.827   4.241  0.4694 -0.5590 -1.6396
  460THF     H610073   3.496   0.585   4.248 -3.6557 -0.9219 -3.0078
  460THF     H710074   3.562   0.649   4.098 -0.9865  1.1400 -1.1648
  460THF     C810075   3.563   0.802   4.254  0.0363  0.4141  0.4776
  460THF     C910076   3.435   0.885   4.284 -0.2489 -0.1792  0.1848
  460THF    H1010077   3.629   0.848   4.186  1.3477 -5.0627  1.8250
  460THF    H1110078   3.624   0.775   4.341 -3.2268 -1.4770 -1.2130
  460THF    H1210079   3.436   0.947   4.373  1.0252  0.6020 -2.1720
  460THF    H1310080   3.427   0.967   4.209  1.4498 -0.2153 -2.3774
  461THF     O110081   0.982   3.534   1.364 -0.2712  0.8289  0.3953
  461THF     C210082   1.001   3.458   1.482 -0.0984  0.0108 -0.0599
  461THF     C310083   0.990   3.440   1.253 -0.2470 -0.0376  0.4591
  461THF     H410084   0.909   3.419   1.527 -0.1478 -1.1283  2.5708
  461THF     H510085   1.058   3.510   1.554  0.7770 -2.0481  2.8037
  461THF     H610086   0.908   3.370   1.248 -1.8308 -0.2742 -0.3147
  461THF     H710087   0.991   3.493   1.151  0.8751  2.1963 -1.4794
  461THF     C810088   1.110   3.360   1.289 -0.4744 -0.1884 -0.8640
  461THF     C910089   1.093   3.349   1.435  0.3502  0.1973  0.2458
  461THF    H1010090   1.210   3.405   1.275  1.8515 -0.6458 -1.5765
  461THF    H1110091   1.124   3.267   1.236 -3.0319  0.8872 -0.8908
  461THF    H1210092   1.051   3.251   1.448  0.8550 -0.3292  2.1622
  461THF    H1310093   1.184   3.349   1.495  1.5265  0.5203  0.0930
  462THF     O110094   0.345   1.911   2.720  0.1138 -0.0190  0.0203
  462THF     C210095   0.204   1.938   2.692  0.2700 -0.3137 -0.0527
  462THF     C310096   0.384   1.803   2.637 -1.1274 -0.2096 -0.5328
  462THF     H410097   0.194   2.039   2.664 -1.1468  0.9362  0.9112
  462THF     H510098   0.139   1.904   2.770 -2.2481 -0.2074  0.4629
  462THF     H610099   0.455   1.844   2.567  1.0015  2.0574  0.3523
  462THF     H710100   0.437   1.722   2.690  0.6763 -0.6499 -1.0031
  462THF     C810101   0.254   1.738   2.579 -0.5061 -0.1650 -0.8132
  462THF     C910102   0.167   1.854   2.568  0.4910 -0.5192 -0.3422
  462THF    H1010103   0.212   1.657   2.641  1.0974 -1.8448  1.2814
  462THF    H1110104   0.277   1.694   2.484 -0.3092 -2.6926  1.0768
  462THF    H1210105   0.207   1.918   2.490  1.2587  0.4885  1.3950
  462THF    H1310106   0.068   1.838   2.537  2.9479  2.7062 -0.8787
  463THF     O110107   1.671   4.368   4.461  0.6327  0.1458  0.3166
  463THF     C210108   1.629   4.477   4.546 -0.1256 -0.0219 -0.0479
  463THF     C310109   1.806   4.339   4.491  0.0048  0.3016 -0.1332
  463THF     H410110   1.538   4.454   4.588  0.2665  0.5092 -3.4421
  463THF     H510111   1.623   4.573   4.504 -1.0112 -1.0935  1.6599
  463THF     H610112   1.837   4.237   4.451 -0.1221 -2.4509  1.1966
  463THF     H710113   1.872   4.422   4.458  0.3594 -0.8965  3.6080
  463THF     C810114   1.807   4.353   4.642  0.4446  0.3071  0.3487
  463THF     C910115   1.731   4.482   4.658  0.6448 -0.7135  0.4852
  463THF    H1010116   1.901   4.346   4.696  1.5621 -0.6811  0.9163
  463THF    H1110117   1.757   4.267   4.686 -0.9380  0.0382  1.0403
  463THF    H1210118   1.690   4.480   4.760 -0.8035 -1.4931  0.1521
  463THF    H1310119   1.801   4.564   4.646  1.6843  2.9959 -1.5323
  464THF     O110120   3.868   4.192   2.755  0.2987 -0.5259  0.0703
  464THF     C210121   3.774   4.083   2.746 -0.0999  0.5080  0.1850
  464THF     C310122   3.852   4.255   2.626 -0.6446  0.1749  0.2635
  464THF     H410123   3.673   4.106   2.775  0.8941 -0.8924 -0.0006
  464THF     H510124   3.796   4.008   2.823 -0.1390  0.5546  1.7423
  464THF     H610125   3.770   4.325   2.634  3.3587 -0.8884 -0.0644
  464THF     H710126   3.946   4.314   2.613 -3.3218 -0.9348 -3.4946
  464THF     C810127   3.827   4.146   2.518  0.9360 -0.4812  0.2928
  464THF     C910128   3.815   4.025   2.610 -0.4506 -0.2712  0.4584
  464THF    H1010129   3.908   4.139   2.447 -1.3860  0.6308  1.5820
  464THF    H1110130   3.740   4.167   2.459  1.8339  0.2223  3.1700
  464THF    H1210131   3.743   3.959   2.566 -1.6016 -0.1361  0.3816
  464THF    H1310132   3.907   3.963   2.608  1.1914 -0.4770 -2.9934
  465THF     O110133   5.318   2.338   2.577  0.2384 -0.4688  0.4225
  465THF     C210134   5.176   2.339   2.622  0.7660 -0.1422 -0.0048
  465THF     C310135   5.358   2.470   2.544  0.5222  0.0431 -0.5286
  465THF     H410136   5.159   2.340   2.728  2.2276  1.2192 -0.6151
  465THF     H510137   5.152   2.230   2.596 -0.3616 -0.8218 -0.2536
  465THF     H610138   5.399   2.520   2.634  2.5307 -1.4489  1.5310
  465THF     H710139   5.443   2.449   2.480 -0.4787 -1.8348  0.3601
  465THF     C810140   5.234   2.518   2.463 -0.0484 -0.1172 -0.3971
  465THF     C910141   5.115   2.436   2.521  0.0948  1.3264 -0.9081
  465THF    H1010142   5.238   2.507   2.357  1.9503 -1.1154 -0.2511
  465THF    H1110143   5.213   2.619   2.504 -0.2647  0.0481  0.6259
  465THF    H1210144   5.048   2.503   2.579  0.6441 -2.1564  0.7553
  465THF    H1310145   5.061   2.381   2.447  1.9131 -1.2757  1.4879
  466THF     O110146   2.009   5.499   2.428 -0.2251 -0.1600 -0.1427
  466THF     C210147   1.998   5.488   2.286  0.1226  0.6105 -0.1026
  466THF     C310148   2.076   5.381   2.476  0.5067  0.1172  0.3185
  466THF     H410149   2.095   5.522   2.236 -1.5203 -1.9510 -0.2439
  466THF     H510150   1.910   5.540   2.256 -2.0681 -0.7511  1.2413
  466THF     H610151   2.184   5.384   2.463  0.3688 -1.2823  0.0135
  466THF     H710152   2.048   5.353   2.573  1.2051 -0.2571 -2.0386
  466THF     C810153   2.015   5.276   2.395 -0.0861 -0.4259  0.6217
  466THF     C910154   1.975   5.338   2.262 -0.5950 -0.9375 -0.3556
  466THF    H1010155   1.921   5.257   2.441 -2.2048  1.7620 -2.1815
  466THF    H1110156   2.077   5.186   2.390  0.3539  1.0814 -0.0098
  466THF    H1210157   2.034   5.287   2.192 -0.2382 -1.4184  1.8283
  466THF    H1310158   1.862   5.308   2.255 -0.7864  1.5061  0.5705
  467THF     O110159   4.217   3.995   1.120 -0.3010  0.4447  0.2063
  467THF     C210160   4.333   4.008   1.198 -0.0427  0.6734 -0.3628
  467THF     C310161   4.213   3.878   1.047  0.4944 -0.1717  0.3338
  467THF     H410162   4.326   4.080   1.272 -3.2835 -0.9560 -0.4299
  467THF     H510163   4.416   4.028   1.141  0.8738  0.9212 -2.8667
  467THF     H610164   4.119   3.841   1.009 -0.9677  1.9755  0.3389
  467THF     H710165   4.267   3.891   0.956  2.3210  0.2632  1.7832
  467THF     C810166   4.279   3.772   1.134  0.0419  0.8373 -0.2447
  467THF     C910167   4.331   3.858   1.249  0.4037  0.1846  0.9549
  467THF    H1010168   4.373   3.722   1.099  0.1426 -2.8427  1.5330
  467THF    H1110169   4.205   3.695   1.163  0.6530  1.3448 -1.0874
  467THF    H1210170   4.248   3.837   1.324  1.8881  0.3868  0.8640
  467THF    H1310171   4.435   3.822   1.274  2.9622  1.2460 -1.5062
  468THF     O110172   1.089   4.243   0.994 -0.4084 -0.3529  0.0061
  468THF     C210173   0.946   4.281   1.007 -0.3057 -0.1444  0.1707
  468THF     C310174   1.148   4.349   0.921 -0.1195  0.1106 -0.5080
  468THF     H410175   0.935   4.358   1.090  0.9387  2.2204 -0.3546
  468THF     H510176   0.887   4.192   1.031  2.9731  1.7300 -0.6694
  468THF     H610177   1.152   4.433   0.990  0.6220  0.6723 -0.4916
  468THF     H710178   1.247   4.320   0.891  1.2894 -1.1222  1.7084
  468THF     C810179   1.052   4.381   0.812  0.3020  0.6908  0.7229
  468THF     C910180   0.913   4.351   0.869  0.4011  0.4174 -0.5572
  468THF    H1010181   1.066   4.308   0.736 -2.9037 -0.3275 -0.5610
  468THF    H1110182   1.059   4.477   0.773  1.1336  0.0083  0.7318
  468THF    H1210183   0.842   4.433   0.876  0.8391 -0.1163  0.4321
  468THF    H1310184   0.870   4.271   0.806 -0.6696 -1.7830 -1.2936
  469THF     O110185   4.944   4.601   3.444  0.4245 -0.2262 -0.1265
  469THF     C210186   4.973   4.567   3.587 -0.0736  0.1090  0.2978
  469THF     C310187   5.020   4.712   3.414 -0.2028  0.7039 -0.2917
  469THF     H410188   4.968   4.458   3.591  0.6066 -1.3465  0.8844
  469THF     H510189   4.909   4.622   3.648 -0.1574  1.1809 -2.0008
  469THF     H610190   5.044   4.708   3.312  0.2982  1.7668 -0.1527
  469THF     H710191   4.965   4.798   3.416 -0.1590 -0.9414 -1.3956
  469THF     C810192   5.146   4.715   3.501  0.0961 -0.0505 -0.0079
  469THF     C910193   5.116   4.614   3.611  0.1798 -0.4446 -0.3473
  469THF    H1010194   5.172   4.810   3.553 -0.2960 -1.4083  1.9621
  469THF    H1110195   5.235   4.682   3.457 -0.5352  0.8404  0.3168
  469THF    H1210196   5.176   4.525   3.607 -1.1757 -1.2768  1.1396
  469THF    H1310197   5.120   4.644   3.714 -2.9443  1.3147 -0.4870
  470THF     O110198   4.858   2.862   4.310 -0.2681  0.0112  0.7656
  470THF     C210199   4.854   2.981   4.389  0.1812  0.4978 -0.1018
  470THF     C310200   4.832   2.748   4.393 -0.6350  0.8005  1.0112
  470THF     H410201   4.787   3.061   4.356 -0.4251  0.0760 -0.2941
  470THF     H510202   4.953   3.022   4.384  2.5034 -2.2621  0.9046
  470THF     H610203   4.783   2.670   4.329  0.0928 -6.0040 -2.3806
  470THF     H710204   4.920   2.706   4.443 -1.9579 -0.8387 -0.8957
  470THF     C810205   4.740   2.801   4.503  0.6104  0.4281 -0.3115
  470THF     C910206   4.800   2.942   4.531 -0.3698  0.1411  0.0486
  470THF    H1010207   4.741   2.735   4.594  1.3289 -2.5698  0.6666
  470THF    H1110208   4.641   2.810   4.463 -2.3051 -0.5001  0.3475
  470THF    H1210209   4.734   3.012   4.578  0.5415 -0.9120  0.3412
  470THF    H1310210   4.889   2.931   4.592  2.5216 -0.2792 -1.3399
  471THF     O110211   2.823   1.374   4.850  0.0340  0.3751  0.0107
  471THF     C210212   2.757   1.372   4.720 -0.4678  0.0673  0.0746
  471THF     C310213   2.743   1.318   4.948 -0.2525 -0.3031 -0.2294
  471THF     H410214   2.792   1.281   4.672  1.4804 -0.2237 -2.2799
  471THF     H510215   2.771   1.465   4.664 -0.5286  2.0943  1.9654
  471THF     H610216   2.738   1.211   4.943 -1.1702 -0.0791 -0.9162
  471THF     H710217   2.759   1.367   5.039  1.5708 -1.5714 -5.2540
  471THF     C810218   2.602   1.369   4.908  0.1001  0.0396  0.1328
  471THF     C910219   2.611   1.358   4.756  0.1969 -0.4389 -0.6317
  471THF    H1010220   2.590   1.472   4.936  1.6497  0.4835 -2.3524
  471THF    H1110221   2.514   1.309   4.939  0.9298 -1.6492  1.9899
  471THF    H1210222   2.581   1.255   4.728 -1.7833  1.7730 -1.3327
  471THF    H1310223   2.544   1.431   4.720  1.8350 -1.1157  0.4666
  472THF     O110224   1.722   1.570   2.342  0.5040 -0.3611  0.4108
  472THF     C210225   1.614   1.637   2.399 -0.3043 -0.0705  0.4062
  472THF     C310226   1.730   1.432   2.390 -0.1083  0.3678 -0.0230
  472THF     H410227   1.586   1.720   2.336  1.2642  2.3026  0.7069
  472THF     H510228   1.656   1.673   2.488  2.0255 -0.3802 -2.2762
  472THF     H610229   1.806   1.374   2.342 -0.9110  1.2697 -1.5527
  472THF     H710230   1.768   1.437   2.492  1.1348 -2.6293  3.3137
  472THF     C810231   1.582   1.394   2.391  1.0127 -0.5492 -0.3742
  472THF     C910232   1.504   1.530   2.410 -0.1363  0.6816  0.6400
  472THF    H1010233   1.548   1.312   2.452 -1.9306 -1.9579 -0.0758
  472THF    H1110234   1.563   1.353   2.292 -1.0287 -0.0430  0.8697
  472THF    H1210235   1.420   1.536   2.334 -0.3182  1.4743 -0.8625
  472THF    H1310236   1.467   1.537   2.514 -1.1998  0.5797  0.5808
  473THF     O110237   3.465   3.211   2.916  0.4848  0.1610 -0.6144
  473THF     C210238   3.430   3.217   3.054 -0.6470 -0.5217  0.2914
  473THF     C310239   3.377   3.299   2.850  0.1304 -0.5050  0.4419
  473THF     H410240   3.502   3.167   3.114 -0.5880  0.0765  0.4757
  473THF     H510241   3.337   3.169   3.074 -1.5613  1.0225  0.5918
  473THF     H610242   3.420   3.318   2.756  1.0217  2.3108 -0.6290
  473THF     H710243   3.278   3.251   2.839  0.4701 -1.9051 -1.6514
  473THF     C810244   3.365   3.422   2.942  1.0037  0.3106  0.2630
  473THF     C910245   3.421   3.369   3.071  0.1246  0.1433  0.8099
  473THF    H1010246   3.252   3.447   2.947 -4.1974 -0.1730 -0.3324
  473THF    H1110247   3.428   3.515   2.929 -2.5411 -1.3370  2.0636
  473THF    H1210248   3.523   3.403   3.082  0.1896  1.1750  1.3660
  473THF    H1310249   3.366   3.399   3.164  2.9012 -1.5784 -0.1494
  474THF     O110250   5.079   3.493   4.127 -0.6400 -0.1542 -1.1566
  474THF     C210251   4.951   3.452   4.093  0.3562  0.2756 -0.2347
  474THF     C310252   5.120   3.418   4.237  1.3397  1.0580 -0.3299
  474THF     H410253   4.924   3.479   3.995  1.2573 -0.1485  2.2296
  474THF     H510254   4.874   3.478   4.167  2.8708 -0.6483 -0.1487
  474THF     H610255   5.221   3.424   4.259 -3.4867  1.7290 -1.7617
  474THF     H710256   5.059   3.455   4.321  2.4993 -3.1491  0.2618
  474THF     C810257   5.082   3.277   4.189  1.4208 -0.3229 -0.4006
  474THF     C910258   4.967   3.299   4.089  0.0359 -1.1383 -0.9453
  474THF    H1010259   5.064   3.209   4.271 -3.1412  1.2512 -1.5948
  474THF    H1110260   5.160   3.233   4.137  1.3452  1.1118  0.2754
  474THF    H1210261   4.991   3.268   3.992  0.8223 -1.0967  1.0660
  474THF    H1310262   4.881   3.244   4.114 -0.2584 -1.5195 -0.2051
  475THF     O110263   2.085   4.477   2.372  0.5995 -0.1920  0.2895
  475THF     C210264   1.950   4.435   2.338  0.4689  0.7925 -0.2446
  475THF     C310265   2.181   4.420   2.283 -1.0115 -0.5307  0.0984
  475THF     H410266   1.883   4.514   2.368  1.5159 -0.5404  0.9358
  475THF     H510267   1.932   4.340   2.393 -1.6520 -1.7180  0.7336
  475THF     H610268   2.256   4.485   2.241 -1.3484  1.3197  3.0921
  475THF     H710269   2.245   4.336   2.326  1.9460 -1.2920  1.4271
  475THF     C810270   2.100   4.372   2.162  0.1864  0.3343 -0.5000
  475THF     C910271   1.956   4.420   2.185 -0.5223  0.4517  0.7325
  475THF    H1010272   2.087   4.264   2.169 -2.8882  0.7299 -0.3706
  475THF    H1110273   2.158   4.408   2.080  2.1451 -1.2062  0.9034
  475THF    H1210274   1.935   4.512   2.130 -2.1858  1.2102 -1.2127
  475THF    H1310275   1.878   4.349   2.146  1.2199 -2.4937 -3.2218
  476THF     O110276   4.226   4.168   2.002 -0.2246  0.4639 -0.0111
  476THF     C210277   4.108   4.243   2.017  0.5847 -0.3090  0.7071
  476THF     C310278   4.189   4.033   2.020 -0.2413  0.4650 -0.3697
  476THF     H410279   4.038   4.221   1.936  1.7293  0.0795  0.4910
  476THF     H510280   4.139   4.344   2.018 -1.2804  2.5681 -1.6343
  476THF     H610281   4.139   3.997   1.928 -0.1239  2.4308  1.3357
  476THF     H710282   4.271   3.955   2.033  0.3760 -1.8817 -0.5225
  476THF     C810283   4.091   4.039   2.138 -0.1587  0.5220 -0.5743
  476THF     C910284   4.065   4.187   2.152  0.1544  0.1352  0.1884
  476THF    H1010285   4.133   3.991   2.226 -0.6016 -0.1311  3.4342
  476THF    H1110286   3.995   3.977   2.120 -0.4855 -2.6423 -0.2602
  476THF    H1210287   3.964   4.201   2.174  1.2486  1.5111  2.4138
  476THF    H1310288   4.116   4.236   2.230 -2.2910 -0.5789 -3.2478
  477THF     O110289   4.554   4.254   4.652 -0.1323 -0.7435  0.8543
  477THF     C210290   4.455   4.356   4.622 -0.0471  0.6509  0.0738
  477THF     C310291   4.486   4.127   4.637  0.2183  0.3178  0.0986
  477THF     H410292   4.441   4.370   4.514  0.0599  0.0235  1.2776
  477THF     H510293   4.490   4.453   4.662  2.8506 -0.6825 -1.5621
  477THF     H610294   4.498   4.093   4.533  0.7479  2.2887 -1.8794
  477THF     H710295   4.529   4.056   4.702 -3.0187 -0.6930  0.5397
  477THF     C810296   4.343   4.155   4.683  0.4351  0.3936 -1.3518
  477THF     C910297   4.326   4.303   4.689  0.4831 -0.7858  0.3707
  477THF    H1010298   4.333   4.115   4.788  0.2384 -2.2767  2.6410
  477THF    H1110299   4.273   4.106   4.619 -3.6341  0.8031  0.8763
  477THF    H1210300   4.239   4.355   4.649  1.7895 -3.4505  0.5211
  477THF    H1310301   4.327   4.334   4.796  0.1068  1.1442  0.4144
  478THF     O110302   5.029   0.662   5.493  0.1566  0.3317  0.6969
  478THF     C210303   4.928   0.728   5.421 -0.3982  0.5688  0.2817
  478THF     C310304   4.985   0.533   5.516 -0.0508 -0.0255  0.3386
  478THF     H410305   4.918   0.693   5.309  0.4440 -2.7723 -5.0656
  478THF     H510306   4.938   0.837   5.409  0.5500  1.7975  1.6318
  478THF     H610307   4.983   0.454   5.434 -2.2052 -0.0331 -0.4415
  478THF     H710308   5.042   0.485   5.595 -1.7242 -1.1483  1.3041
  478THF     C810309   4.844   0.567   5.563 -0.1477  0.1169  1.5347
  478THF     C910310   4.796   0.688   5.491  0.0194 -0.3037  0.3745
  478THF    H1010311   4.843   0.592   5.664  1.0047 -2.2300 -3.0614
  478THF    H1110312   4.769   0.488   5.550 -2.7852 -1.3326 -1.5617
  478THF    H1210313   4.720   0.662   5.423  2.2993  2.5336 -0.6980
  478THF    H1310314   4.766   0.774   5.549 -2.8507  1.9936  1.5211
  479THF     O110315   1.082   0.183   3.529  0.2051  0.3805 -0.0268
  479THF     C210316   0.961   0.190   3.596  0.1171 -0.6601 -0.9273
  479THF     C310317   1.196   0.162   3.614 -0.0406  0.6147 -0.2715
  479THF     H410318   0.923   0.093   3.614  0.6101 -1.3245  2.3473
  479THF     H510319   0.899   0.254   3.536  1.6358 -3.2396 -1.7677
  479THF     H610320   1.196   0.051   3.641 -1.7202 -0.8589  1.1495
  479THF     H710321   1.287   0.193   3.556 -2.2676 -0.8985 -0.1647
  479THF     C810322   1.158   0.238   3.744  0.3339 -0.0566 -0.3163
  479THF     C910323   1.005   0.258   3.728  0.3991  0.2653 -0.9602
  479THF    H1010324   1.214   0.334   3.759  0.3504 -2.1772  0.1189
  479THF    H1110325   1.184   0.182   3.829 -1.3632  2.3504 -1.6711
  479THF    H1210326   0.956   0.229   3.816  1.0138  0.2046  1.5037
  479THF    H1310327   0.987   0.369   3.718 -1.6654 -1.2932 -2.3378
  480THF     O110328   3.869   3.059   3.416 -0.0929 -0.1302  0.1127
  480THF     C210329   3.863   3.127   3.288 -0.7594  0.6154 -0.0336
  480THF     C310330   3.924   3.142   3.515 -0.0521  0.3092  0.3046
  480THF     H410331   3.796   3.090   3.209 -2.2380  0.3102 -0.3046
  480THF     H510332   3.961   3.126   3.242 -3.3099  1.0488 -0.2152
  480THF     H610333   3.892   3.093   3.602 -2.5862  0.7215 -1.0548
  480THF     H710334   4.038   3.140   3.515  0.8659  1.9605  1.7248
  480THF     C810335   3.867   3.277   3.478 -0.7164 -0.4970  0.0754
  480THF     C910336   3.816   3.264   3.338  0.1966  0.3110  0.0242
  480THF    H1010337   3.935   3.363   3.485 -2.0667  0.3345 -2.4209
  480THF    H1110338   3.791   3.302   3.551  0.6724 -0.3937 -0.5189
  480THF    H1210339   3.712   3.292   3.326  1.0792  0.7528  0.2426
  480THF    H1310340   3.858   3.332   3.263  1.4310  0.3722 -1.7304
  481THF     O110341   5.069   4.466   2.642 -0.0534 -0.7533  0.4000
  481THF     C210342   5.195   4.455   2.586 -0.5370 -0.1185 -0.3230
  481THF     C310343   5.021   4.328   2.653 -0.4468  0.1230  0.1809
  481THF     H410344   5.252   4.431   2.671 -1.2714  1.2231 -0.9366
  481THF     H510345   5.234   4.545   2.539 -2.6808 -3.0017  0.0818
  481THF     H610346   5.062   4.286   2.748  0.3287  0.7115  0.3583
  481THF     H710347   4.914   4.325   2.659  1.2597  0.4470  0.7639
  481THF     C810348   5.079   4.260   2.536 -0.0179 -0.3823 -0.6329
  481THF     C910349   5.201   4.343   2.495  0.5693 -0.3404 -1.2189
  481THF    H1010350   5.014   4.266   2.452 -2.8264 -0.4652  0.4414
  481THF    H1110351   5.107   4.150   2.564  1.4693  2.3722 -0.0305
  481THF    H1210352   5.298   4.294   2.487  0.0165 -2.3130  0.5399
  481THF    H1310353   5.194   4.388   2.397  1.9766 -1.4063  3.0212
  482THF     O110354   0.551   1.315   4.236 -0.1716 -0.6556 -0.4856
  482THF     C210355   0.508   1.190   4.182 -0.2969  0.3484 -0.3978
  482THF     C310356   0.556   1.407   4.122  0.0056  0.0847  0.4340
  482THF     H410357   0.411   1.177   4.225 -1.0641 -3.2790 -2.1132
  482THF     H510358   0.560   1.097   4.218  0.2520  2.0405  0.5205
  482THF     H610359   0.537   1.511   4.148  1.2591  0.2384 -1.6430
  482THF     H710360   0.658   1.398   4.093 -0.3542 -0.7365  2.3185
  482THF     C810361   0.463   1.351   4.014 -0.1161  0.2493  0.0261
  482THF     C910362   0.489   1.201   4.031  0.5299  0.1769 -0.3026
  482THF    H1010363   0.482   1.381   3.909 -0.0737 -1.4023 -1.4017
  482THF    H1110364   0.357   1.367   4.038  1.4967 -0.6059  1.1170
  482THF    H1210365   0.408   1.137   4.005  0.4547 -1.6212 -1.4001
  482THF    H1310366   0.575   1.176   3.963 -1.2249 -0.3861 -2.1024
  483THF     O110367   5.384   4.723   0.628  0.3192  0.2087  0.0838
  483THF     C210368   5.254   4.672   0.654 -0.7966  0.2756  0.3607
  483THF     C310369   5.472   4.614   0.607 -0.3253  0.3278 -0.5535
  483THF     H410370   5.206   4.617   0.575  0.2638 -0.8226  0.1059
  483THF     H510371   5.179   4.743   0.686 -0.9833 -2.8299  0.1359
  483THF     H610372   5.460   4.564   0.511 -2.5819 -0.6161  1.9563
  483THF     H710373   5.581   4.632   0.607  2.9468  0.1405 -1.1876
  483THF     C810374   5.433   4.521   0.720  0.0689  0.3827  0.4498
  483THF     C910375   5.298   4.567   0.759  0.3501  0.3839  0.3261
  483THF    H1010376   5.485   4.544   0.813 -0.3756  0.6373  2.1953
  483THF    H1110377   5.447   4.413   0.704  2.3572 -0.4260  0.1352
  483THF    H1210378   5.212   4.497   0.769  1.5417  1.1703 -0.9826
  483THF    H1310379   5.300   4.628   0.846  3.2396  0.9170  0.9853
  484THF     O110380   1.709   2.974   3.443  0.3693  0.1422 -0.0801
  484THF     C210381   1.676   3.104   3.469 -0.7112 -0.0286 -0.7395
  484THF     C310382   1.804   2.926   3.534 -0.1956 -0.5889 -0.2482
  484THF     H410383   1.567   3.119   3.478 -0.1674  0.5176  1.7817
  484THF     H510384   1.719   3.171   3.396 -0.5563  0.0801  0.1205
  484THF     H610385   1.748   2.861   3.606 -0.2624  4.1508  2.0652
  484THF     H710386   1.889   2.873   3.483  0.2795  2.3239 -1.4756
  484THF     C810387   1.859   3.048   3.602  0.0686 -0.1842  0.3161
  484THF     C910388   1.737   3.139   3.593 -0.1708 -0.4595  0.3349
  484THF    H1010389   1.941   3.088   3.541  0.2804  2.1830  0.5905
  484THF    H1110390   1.899   3.027   3.700 -0.5041 -1.7011  0.0901
  484THF    H1210391   1.682   3.119   3.682 -0.4305  0.1166  0.1584
  484THF    H1310392   1.753   3.248   3.609  0.5802  0.3928  4.2926
  485THF     O110393   1.168   3.978   2.024  0.3765 -0.5562  0.3616
  485THF     C210394   1.267   4.049   1.956 -0.0128 -0.2887  0.2110
  485THF     C310395   1.044   4.014   1.957  0.2153 -0.3948 -0.3100
  485THF     H410396   1.372   4.006   1.959  1.2405  2.8531 -2.6407
  485THF     H510397   1.273   4.156   1.978 -0.3473  3.4899  0.9292
  485THF     H610398   0.954   3.957   1.982 -1.1704 -1.4150 -2.7234
  485THF     H710399   1.021   4.118   1.983  1.0569  0.9227 -0.3571
  485THF     C810400   1.084   3.995   1.813  0.2299 -0.4922  0.6094
  485THF     C910401   1.224   4.043   1.809 -0.9590  0.0804  0.4767
  485THF    H1010402   1.019   4.051   1.742 -3.4187  0.6153 -2.1994
  485THF    H1110403   1.080   3.887   1.781 -0.1250  0.4600 -0.9595
  485THF    H1210404   1.288   3.981   1.751 -2.3261  1.6261 -0.4520
  485THF    H1310405   1.235   4.142   1.767  0.1775  0.7259  1.3359
  486THF     O110406   4.122   2.934   0.699 -0.2727  0.3525 -0.3153
  486THF     C210407   4.223   2.838   0.697  0.0636  0.0374 -0.3701
  486THF     C310408   4.179   3.047   0.768  0.9407  0.4674 -0.2008
  486THF     H410409   4.217   2.753   0.628  0.3555  0.6652 -3.1963
  486THF     H510410   4.230   2.805   0.799  1.6439 -0.4131 -1.2935
  486THF     H610411   4.114   3.131   0.759 -0.4662  0.3658  0.6717
  486THF     H710412   4.182   3.018   0.874 -0.9983 -2.6129 -2.6912
  486THF     C810413   4.318   3.059   0.700  0.5786 -0.4904 -0.5403
  486THF     C910414   4.355   2.914   0.676 -0.0161  0.4665  0.3884
  486THF    H1010415   4.396   3.109   0.757  0.6651 -0.9957 -0.4243
  486THF    H1110416   4.307   3.122   0.621  2.9500 -2.4645  1.8989
  486THF    H1210417   4.393   2.904   0.576  1.1847 -0.9997 -2.0564
  486THF    H1310418   4.443   2.880   0.738 -0.2969  0.6406 -0.6645
  487THF     O110419   1.281   4.982   3.193  0.1852 -0.4330 -0.3042
  487THF     C210420   1.227   5.089   3.125 -0.4918 -0.2522 -0.8794
  487THF     C310421   1.296   4.866   3.113  0.4378 -0.1026 -0.5591
  487THF     H410422   1.292   5.168   3.126  0.5273 -0.8712 -0.6241
  487THF     H510423   1.133   5.112   3.181 -1.3190  0.4472 -4.1100
  487THF     H610424   1.389   4.802   3.130 -0.6885 -1.3653 -1.8179
  487THF     H710425   1.204   4.811   3.156 -0.4854  1.5220 -0.1220
  487THF     C810426   1.267   4.910   2.972 -0.1073 -0.1671  0.0237
  487THF     C910427   1.186   5.043   2.989 -0.0965  0.4106  0.1157
  487THF    H1010428   1.208   4.836   2.928  1.1995  1.3947  0.9780
  487THF    H1110429   1.357   4.924   2.909 -0.2422 -1.9668  2.7382
  487THF    H1210430   1.196   5.120   2.918  2.2514  2.0514  0.8950
  487THF    H1310431   1.082   5.016   2.988 -0.1923 -1.6434  1.2467
  488THF     O110432   3.841   4.638   3.007  0.2578  0.3325  0.2681
  488THF     C210433   3.709   4.677   2.976  0.1169  0.5250 -0.3895
  488THF     C310434   3.853   4.496   2.981 -0.6948  0.3401  0.2856
  488THF     H410435   3.709   4.707   2.873 -0.0575 -2.1616  1.3486
  488THF     H510436   3.680   4.767   3.028  1.1667 -1.2684  2.0178
  488THF     H610437   3.851   4.475   2.873 -1.4691 -1.3674  3.9443
  488THF     H710438   3.938   4.429   3.025  2.3517 -2.5349  0.4161
  488THF     C810439   3.720   4.441   3.029  0.2183  0.1414 -0.1779
  488THF     C910440   3.623   4.552   2.996  0.3112  0.1602  0.7308
  488THF    H1010441   3.730   4.428   3.137 -0.0884  2.3089 -1.8855
  488THF    H1110442   3.694   4.345   2.986  0.0322  0.5548  1.2339
  488THF    H1210443   3.562   4.517   2.902 -1.2754  0.0704  0.3207
  488THF    H1310444   3.560   4.570   3.075 -0.8521 -1.2192 -0.7542
  489THF     O110445   2.696   2.579   2.198 -0.5488 -0.4060 -0.0242
  489THF     C210446   2.814   2.547   2.127  0.8226  0.0611  0.2497
  489THF     C310447   2.576   2.570   2.118 -0.4238 -0.3230  0.2633
  489THF     H410448   2.870   2.465   2.173 -0.5728 -0.6497 -0.1805
  489THF     H510449   2.885   2.629   2.130 -0.5444 -1.6500  2.6432
  489THF     H610450   2.536   2.460   2.122 -2.1814 -1.1554 -3.2865
  489THF     H710451   2.496   2.629   2.151  2.6445 -0.5743  0.0476
  489THF     C810452   2.632   2.592   1.978  0.1996  0.6690 -0.0776
  489THF     C910453   2.768   2.517   1.980  0.1308 -0.5184 -1.2409
  489THF    H1010454   2.649   2.695   1.963 -1.6211 -0.2531 -0.6479
  489THF    H1110455   2.572   2.548   1.891  0.6218  0.5090 -1.3912
  489THF    H1210456   2.759   2.409   1.959  0.5787 -1.7309 -1.3536
  489THF    H1310457   2.842   2.560   1.909 -0.2185 -2.0568  0.7949
  490THF     O110458   3.815   0.103   0.381  0.5554 -0.5932 -0.0861
  490THF     C210459   3.829  -0.011   0.294 -0.0347 -1.0107 -0.0711
  490THF     C310460   3.688   0.088   0.448  0.1792  0.6364  0.4803
  490THF     H410461   3.937  -0.036   0.301 -0.1660 -0.5850 -4.3097
  490THF     H510462   3.797   0.020   0.191 -0.1304  0.8088  0.5430
  490THF     H610463   3.697   0.092   0.557 -3.2381 -0.3792  3.3734
  490THF     H710464   3.612   0.158   0.417  1.0070 -1.6436 -0.6609
  490THF     C810465   3.634  -0.051   0.415  0.4846  0.3448  0.1803
  490THF     C910466   3.748  -0.120   0.356 -0.2036 -0.0170 -0.5873
  490THF    H1010467   3.559  -0.043   0.332  0.1226  0.7885 -0.1051
  490THF    H1110468   3.582  -0.104   0.493  0.4279 -1.0662 -1.5578
  490THF    H1210469   3.800  -0.169   0.440 -1.3402 -1.3495  0.8484
  490THF    H1310470   3.713  -0.206   0.295 -1.3093  2.0841  1.0855
  491THF     O110471   5.249   4.915   5.160 -0.3473 -0.5086 -0.3243
  491THF     C210472   5.372   4.929   5.235 -0.4668 -0.6593 -0.1232
  491THF     C310473   5.269   5.007   5.056  0.6570  0.4252 -0.2355
  491THF     H410474   5.381   4.847   5.306 -2.0548  3.3368  0.0673
  491THF     H510475   5.373   5.014   5.297 -1.0442 -0.0012  0.7629
  491THF     H610476   5.199   4.975   4.981  2.4479  0.9534  0.4590
  491THF     H710477   5.252   5.112   5.066  0.5886  0.7468  1.5253
  491THF     C810478   5.413   4.980   5.004 -0.1029  0.5099  0.5474
  491THF     C910479   5.480   4.936   5.132  0.4162 -0.0571  0.3275
  491THF    H1010480   5.454   5.075   4.961  1.8188 -0.6052 -1.5848
  491THF    H1110481   5.421   4.904   4.923  2.8331  0.8849  0.8271
  491THF    H1210482   5.525   4.840   5.104 -1.5141 -0.0306  1.4538
  491THF    H1310483   5.552   5.003   5.165 -1.4254 -3.0830 -1.1871
  492THF     O110484   0.860   2.439   0.552 -0.1549  0.2528 -0.0992
  492THF     C210485   0.877   2.370   0.679 -0.3356  0.4930 -1.0259
  492THF     C310486   0.735   2.387   0.506 -0.1632  0.4247 -0.2668
  492THF     H410487   0.812   2.419   0.750 -0.1323  0.4473  1.1492
  492THF     H510488   0.984   2.388   0.710  1.3500  1.4998 -1.9619
  492THF     H610489   0.659   2.438   0.563 -3.5042  1.7441 -0.2846
  492THF     H710490   0.704   2.398   0.403 -1.4463 -1.6828  0.1294
  492THF     C810491   0.749   2.238   0.549 -0.3404 -0.0424 -0.0371
  492THF     C910492   0.846   2.220   0.660  0.2630 -0.4123 -0.4809
  492THF    H1010493   0.810   2.193   0.473 -2.0253  0.7853  0.1678
  492THF    H1110494   0.656   2.187   0.567 -4.0291 -0.8656 -0.7352
  492THF    H1210495   0.810   2.180   0.748 -0.4618  1.9150 -1.5527
  492THF    H1310496   0.934   2.167   0.633 -1.7980  0.0285  2.4371
  493THF     O110497   1.570   3.813   4.885  0.0343  0.6431 -0.5909
  493THF     C210498   1.581   3.951   4.848 -0.2846  0.5478 -0.0837
  493THF     C310499   1.690   3.771   4.945 -0.4982 -0.4692  0.7004
  493THF     H410500   1.549   4.011   4.934  0.4479 -0.3503 -0.3251
  493THF     H510501   1.525   3.976   4.767 -3.2627 -1.6132 -0.6630
  493THF     H610502   1.670   3.733   5.041 -1.1361  0.7444  0.1744
  493THF     H710503   1.736   3.696   4.879  3.2230  0.4053  1.8672
  493THF     C810504   1.795   3.886   4.946 -0.4336  0.3010  1.3046
  493THF     C910505   1.735   3.968   4.829  0.1305  0.6731 -0.1158
  493THF    H1010506   1.893   3.859   4.925 -1.8684  2.5824  0.4196
  493THF    H1110507   1.788   3.946   5.039  3.8173  0.1818 -1.9584
  493THF    H1210508   1.759   4.072   4.843 -0.3612 -2.3296  1.4749
  493THF    H1310509   1.756   3.929   4.731  0.0022 -1.0550  0.7918
  494THF     O110510   2.316   1.272   2.145 -0.0246  0.1478 -0.8031
  494THF     C210511   2.357   1.192   2.256 -0.1632 -0.8634 -0.1574
  494THF     C310512   2.239   1.377   2.196  0.6049 -0.6377  0.2075
  494THF     H410513   2.455   1.226   2.303 -0.0843  0.3159  2.0140
  494THF     H510514   2.367   1.089   2.226  0.7412 -1.4406 -2.1281
  494THF     H610515   2.292   1.448   2.258 -0.2944  0.0575 -1.7982
  494THF     H710516   2.179   1.423   2.122  2.1380 -0.7797 -0.2168
  494THF     C810517   2.151   1.295   2.291 -0.5209 -0.3833  0.2165
  494THF     C910518   2.248   1.204   2.367  0.1175 -0.4375 -0.3688
  494THF    H1010519   2.081   1.251   2.217  1.4399 -1.7654 -2.8195
  494THF    H1110520   2.105   1.374   2.348 -0.1203 -1.3917 -1.1767
  494THF    H1210521   2.289   1.252   2.452  2.0045 -2.8866  0.9764
  494THF    H1310522   2.205   1.105   2.394 -0.0822 -1.6684  1.1735
  495THF     O110523   0.738   5.252   4.764  0.3168  0.5356 -0.4456
  495THF     C210524   0.651   5.242   4.651 -0.0826 -0.6075  0.1876
  495THF     C310525   0.669   5.217   4.889  0.4759 -0.1557  0.4321
  495THF     H410526   0.708   5.225   4.556 -1.2402  1.7334  0.7242
  495THF     H510527   0.595   5.330   4.637 -0.8595  0.5156 -0.9650
  495THF     H610528   0.728   5.199   4.974 -3.0125 -1.2489  2.0342
  495THF     H710529   0.596   5.292   4.914  2.1999  1.3946  2.9447
  495THF     C810530   0.595   5.090   4.835  0.2386 -0.3092  0.6066
  495THF     C910531   0.557   5.121   4.684  0.3726  0.3267 -0.3729
  495THF    H1010532   0.516   5.046   4.905  0.3709 -0.1555  1.4044
  495THF    H1110533   0.666   5.010   4.833  0.6132 -1.0745 -1.0344
  495THF    H1210534   0.590   5.035   4.625 -0.6253 -0.7911  0.0828
  495THF    H1310535   0.454   5.144   4.664  0.7243  0.3436  1.1024
  496THF     O110536   5.271   3.412   2.954  0.0047 -0.6945 -0.3539
  496THF     C210537   5.260   3.438   2.819 -0.7144 -0.4531 -0.5969
  496THF     C310538   5.166   3.316   2.997  0.0988  0.5972  0.7078
  496THF     H410539   5.355   3.487   2.781  0.6521  0.6202  0.9555
  496THF     H510540   5.186   3.513   2.811  0.6192  0.8881  1.2493
  496THF     H610541   5.213   3.235   3.057 -0.8397 -1.0876  0.7880
  496THF     H710542   5.094   3.358   3.064 -1.2421 -1.9581 -1.3132
  496THF     C810543   5.112   3.262   2.862  1.3019 -0.0918 -0.6999
  496THF     C910544   5.211   3.312   2.755  0.6120  0.0281 -0.6126
  496THF    H1010545   5.015   3.296   2.834  0.9447 -0.0000  1.0999
  496THF    H1110546   5.107   3.153   2.849 -1.0413 -0.2493  1.8358
  496THF    H1210547   5.283   3.242   2.743 -0.3325  0.8477 -3.2814
  496THF    H1310548   5.170   3.332   2.652 -2.7386  0.5012  0.2381
  497THF     O110549   5.043   2.763   1.169  0.1682  0.6759  0.1775
  497THF     C210550   4.926   2.784   1.242  0.0641 -0.4052  0.2634
  497THF     C310551   5.081   2.628   1.182 -0.8571  0.0178  0.0588
  497THF     H410552   4.839   2.779   1.179  1.6927  0.2737  1.2756
  497THF     H510553   4.921   2.879   1.288  0.1174  1.8387 -0.9345
  497THF     H610554   5.075   2.587   1.076  1.4085 -0.7637 -0.1494
  497THF     H710555   5.179   2.621   1.235  2.8250  1.1638 -1.7760
  497THF     C810556   4.989   2.553   1.274  0.7582  0.1487 -0.1154
  497THF     C910557   4.930   2.672   1.337 -0.3509 -0.0564 -0.0454
  497THF    H1010558   5.035   2.486   1.349  0.3928 -1.2927  2.9219
  497THF    H1110559   4.907   2.501   1.220  0.8807 -0.6235  2.6581
  497THF    H1210560   4.840   2.659   1.396 -1.6710  2.3095  1.1056
  497THF    H1310561   5.001   2.696   1.419  3.6304 -0.0905  1.5980
  498THF     O110562   0.742   4.318   2.883 -0.0180  0.5263  0.1026
  498THF     C210563   0.838   4.295   2.777  0.6103 -0.3078  1.2516
  498THF     C310564   0.620   4.371   2.822  0.6670 -0.0923 -0.5348
  498THF     H410565   0.918   4.228   2.796  0.9905 -0.4039 -3.5280
  498THF     H510566   0.903   4.379   2.772 -1.1942  2.1326  2.0640
  498THF     H610567   0.529   4.315   2.860  0.6447  0.1794 -0.7076
  498THF     H710568   0.623   4.475   2.862 -0.4430  0.6073 -2.8546
  498THF     C810569   0.643   4.365   2.669  0.0046 -0.0172  0.3087
  498THF     C910570   0.756   4.270   2.649  0.2947  0.1294 -0.3066
  498THF    H1010571   0.673   4.459   2.620  0.9051  1.6840 -0.1534
  498THF    H1110572   0.564   4.332   2.610  1.9467 -0.7029  0.6026
  498THF    H1210573   0.712   4.172   2.641 -1.2749  2.4733  2.4377
  498THF    H1310574   0.812   4.282   2.553  2.3828 -0.9691 -1.2402
  499THF     O110575   0.531   4.677   0.848 -0.3286 -0.3257  0.3103
  499THF     C210576   0.561   4.631   0.976  0.0117  0.7911  0.1576
  499THF     C310577   0.599   4.597   0.757  0.5833 -0.3637  0.3692
  499THF     H410578   0.496   4.656   1.059  1.4056  1.2620 -1.1052
  499THF     H510579   0.659   4.661   1.002 -0.7355 -1.2416 -2.6818
  499THF     H610580   0.566   4.614   0.658 -1.3771 -0.8181  0.8249
  499THF     H710581   0.704   4.592   0.757  0.4493  0.3414 -0.2798
  499THF     C810582   0.552   4.461   0.813  0.0838 -0.3598  0.4548
  499THF     C910583   0.564   4.481   0.965  0.0941 -0.0789  0.4268
  499THF    H1010584   0.610   4.374   0.777 -0.3465  0.2118 -0.9606
  499THF    H1110585   0.447   4.453   0.780 -0.4096 -2.5396 -2.4146
  499THF    H1210586   0.481   4.441   1.018  0.9714  0.8506  3.2441
  499THF    H1310587   0.655   4.442   1.012  1.7652  0.7675  0.9231
  500THF     O110588   5.358   2.457   0.604  0.4408 -0.2708 -0.2457
  500THF     C210589   5.337   2.317   0.574  0.4052 -0.5578 -0.4358
  500THF     C310590   5.236   2.522   0.641 -0.4102  0.3985  0.2302
  500THF     H410591   5.428   2.269   0.608  0.6445  1.6274  0.9371
  500THF     H510592   5.316   2.308   0.469 -2.5229 -0.7361  0.4513
  500THF     H610593   5.267   2.597   0.709 -2.7123 -1.4195 -0.0190
  500THF     H710594   5.189   2.567   0.560 -1.1832  1.2865 -1.3868
  500THF     C810595   5.166   2.412   0.722  0.0741 -0.0200 -0.4303
  500THF     C910596   5.222   2.282   0.662 -0.4894 -0.0132 -0.0211
  500THF    H1010597   5.057   2.414   0.708 -1.5244 -1.9264  1.1336
  500THF    H1110598   5.185   2.425   0.831  1.2621 -0.3464  0.1060
  500THF    H1210599   5.251   2.216   0.743  0.7592  1.9498  3.9010
  500THF    H1310600   5.139   2.235   0.605  1.1892 -0.4345 -1.1974
  501THF     O110601   3.909   0.525   0.279 -0.3393 -0.5224 -0.0672
  501THF     C210602   4.024   0.561   0.202  0.2343 -0.2767 -0.1163
  501THF     C310603   3.879   0.386   0.263 -0.2677  0.3876  0.4542
  501THF     H410604   4.098   0.562   0.278 -0.1258  0.3507  0.6709
  501THF     H510605   4.029   0.663   0.172 -0.3641  0.9119  0.1800
  501THF     H610606   3.957   0.331   0.319 -0.4844 -0.1314  1.2659
  501THF     H710607   3.789   0.340   0.295  1.6404  0.3500  0.4244
  501THF     C810608   3.923   0.352   0.120 -0.0595  0.2939  0.9041
  501THF     C910609   4.042   0.449   0.092  0.1806  0.4690 -1.6522
  501THF    H1010610   3.843   0.374   0.046 -1.3320  0.9715  1.1891
  501THF    H1110611   3.945   0.240   0.095  1.0520  1.6305  0.7527
  501THF    H1210612   4.128   0.388   0.117 -2.3983  0.6944  2.9454
  501THF    H1310613   4.044   0.496  -0.002 -2.7854 -0.6749 -1.0074
  502THF     O110614   1.818   2.334   1.012 -0.4814  0.5443  0.6617
  502THF     C210615   1.688   2.293   1.057 -0.4430 -0.3469  0.0093
  502THF     C310616   1.909   2.292   1.113  0.2042  0.2936 -0.8743
  502THF     H410617   1.622   2.274   0.972 -0.6599  1.6760  2.3790
  502THF     H510618   1.650   2.380   1.113 -0.9110  1.6869 -0.8363
  502THF     H610619   2.018   2.294   1.092 -0.3800  1.2973  0.6863
  502THF     H710620   1.881   2.359   1.196 -2.5531  0.6357  0.8645
  502THF     C810621   1.869   2.158   1.150  0.9470 -0.2795  0.7684
  502THF     C910622   1.717   2.169   1.143 -0.0259 -0.6820  0.5279
  502THF    H1010623   1.897   2.134   1.254  0.9176  2.3641 -1.2795
  502THF    H1110624   1.903   2.075   1.090  0.8393  0.0417  3.0633
  502THF    H1210625   1.672   2.077   1.100 -1.5231  0.6424  0.5563
  502THF    H1310626   1.681   2.186   1.243 -2.3891  3.0800 -1.3606
  503THF     O110627   5.027   1.522   2.000 -0.1546  0.6008  0.3034
  503THF     C210628   4.968   1.565   1.881  0.0988  0.8193 -0.6305
  503THF     C310629   5.027   1.638   2.091 -0.0122  0.3846  0.7967
  503THF     H410630   4.947   1.488   1.803  1.8309 -1.9202 -3.8423
  503THF     H510631   5.018   1.643   1.824 -1.4864 -0.0406 -0.3929
  503THF     H610632   5.058   1.609   2.191  0.2197 -1.4466 -1.8620
  503THF     H710633   5.099   1.709   2.048  0.1946 -0.6789 -0.7336
  503THF     C810634   4.884   1.688   2.061  0.2008 -0.3134 -0.1081
  503THF     C910635   4.837   1.620   1.930 -0.5331 -0.9780 -0.9234
  503THF    H1010636   4.881   1.794   2.063 -1.5125  1.2190 -0.9903
  503THF    H1110637   4.819   1.650   2.139  0.0640  3.2239 -0.8303
  503THF    H1210638   4.763   1.547   1.957 -0.3168 -0.3027 -1.4755
  503THF    H1310639   4.800   1.698   1.865  0.7661  0.4549 -0.6609
  504THF     O110640   3.006   4.876   1.981 -0.6571 -0.1914 -0.2700
  504THF     C210641   3.100   4.981   1.966  0.1309  0.2901 -0.0655
  504THF     C310642   2.938   4.912   2.097  0.3629  0.5031  0.1600
  504THF     H410643   3.098   5.027   1.860  0.4811 -0.6360 -2.3673
  504THF     H510644   3.208   4.940   1.983  0.3182  1.6704 -0.2449
  504THF     H610645   2.844   4.946   2.058 -3.2127 -1.1840 -0.8123
  504THF     H710646   2.905   4.820   2.150  0.5792  1.4124  0.7831
  504THF     C810647   3.008   5.009   2.188 -0.3389 -0.9352  0.6351
  504THF     C910648   3.071   5.089   2.072 -0.6100  0.1847  0.9268
  504THF    H1010649   3.081   4.967   2.250 -0.7480  2.4727 -3.0846
  504THF    H1110650   2.941   5.066   2.246  0.3852 -1.1016 -1.1669
  504THF    H1210651   2.991   5.160   2.046 -1.7178  0.6044 -0.8423
  504THF    H1310652   3.157   5.146   2.105  0.8184  2.2401 -0.1148
  505THF     O110653   1.083   4.203   3.959 -0.5284  0.0961 -0.1347
  505THF     C210654   0.998   4.103   3.924 -0.0833 -0.9443  0.2430
  505THF     C310655   1.045   4.314   3.878 -0.8148 -0.1753 -0.1941
  505THF     H410656   0.899   4.111   3.967  0.1436 -0.0669 -0.9206
  505THF     H510657   1.029   4.008   3.957 -1.6051  2.2072 -1.2136
  505THF     H610658   0.948   4.366   3.927 -1.8671  0.1897 -3.7223
  505THF     H710659   1.113   4.400   3.891  0.4009 -1.2643 -1.4328
  505THF     C810660   1.029   4.258   3.739  0.9461  0.0401 -0.2031
  505THF     C910661   0.992   4.112   3.767  0.2655 -0.0486  0.1634
  505THF    H1010662   1.136   4.260   3.693  0.8218 -0.9571 -0.7366
  505THF    H1110663   0.960   4.322   3.679 -1.0335 -2.6488 -0.9284
  505THF    H1210664   0.892   4.078   3.734 -2.1619  0.5009  0.5165
  505THF    H1310665   1.065   4.039   3.734 -0.2623  2.9020 -0.2678
  506THF     O110666   4.519   5.319   3.005  0.8213  0.8679  0.1205
  506THF     C210667   4.446   5.250   2.902 -0.0041  0.0267  0.5524
  506THF     C310668   4.440   5.297   3.118  0.4365  0.0406 -0.7375
  506THF     H410669   4.490   5.230   2.804  0.5891 -1.2085  0.9048
  506THF     H510670   4.357   5.310   2.871 -3.1983  2.5324 -2.4925
  506THF     H610671   4.495   5.325   3.212  1.2843  0.3241 -1.3209
  506THF     H710672   4.349   5.348   3.111 -0.5739 -0.9443  1.1177
  506THF     C810673   4.400   5.147   3.114 -0.0617  0.6224  0.4897
  506THF     C910674   4.405   5.116   2.964  0.5040 -0.9441 -0.1165
  506THF    H1010675   4.308   5.131   3.172  0.4766 -0.0561  1.0741
  506THF    H1110676   4.473   5.093   3.172 -1.9244 -2.3356 -1.8006
  506THF    H1210677   4.490   5.045   2.950  1.8455 -3.6579  0.5638
  506THF    H1310678   4.321   5.065   2.921 -0.5516 -1.2819 -2.2230
  507THF     O110679   2.123   2.228   0.085 -0.2765  0.1765  0.0997
  507THF     C210680   2.204   2.195   0.202 -0.4380 -0.0571  0.1094
  507THF     C310681   2.199   2.193  -0.028 -0.3091  0.8242 -0.9486
  507THF     H410682   2.202   2.089   0.218  0.2304 -1.2499 -0.1719
  507THF     H510683   2.157   2.235   0.291 -0.2183 -0.4834  1.7986
  507THF     H610684   2.208   2.085  -0.050 -2.7047  2.4090 -1.7905
  507THF     H710685   2.155   2.229  -0.112  0.6649 -0.2140  0.8440
  507THF     C810686   2.337   2.255   0.012  0.3892 -0.1572  0.2656
  507THF     C910687   2.338   2.246   0.163  0.1439  0.0074  0.3887
  507THF    H1010688   2.334   2.359  -0.025 -0.4504  0.8583 -0.0860
  507THF    H1110689   2.413   2.198  -0.042  0.9991  0.9131 -2.2240
  507THF    H1210690   2.417   2.184   0.197  0.7408 -1.0893  1.6353
  507THF    H1310691   2.358   2.343   0.207  2.1610 -0.9443  2.1386
  508THF     O110692   3.727   0.954   4.850 -0.0071 -0.0739  0.4520
  508THF     C210693   3.836   0.952   4.933  0.3944 -0.2459 -0.3244
  508THF     C310694   3.749   1.034   4.732  0.3622 -0.0016 -0.2576
  508THF     H410695   3.843   0.857   4.992  0.4888  2.8458 -2.2227
  508THF     H510696   3.834   1.036   5.002 -0.9127 -0.9949  2.9760
  508THF     H610697   3.682   1.012   4.653 -1.1682 -1.4771  1.1045
  508THF     H710698   3.748   1.137   4.763  0.0273 -1.1560 -0.3010
  508THF     C810699   3.900   1.003   4.698 -0.0343 -0.1624 -0.2542
  508THF     C910700   3.956   0.962   4.842 -0.0201  0.6375 -0.5259
  508THF    H1010701   3.957   1.077   4.635 -0.2959  2.2182 -2.2522
  508THF    H1110702   3.894   0.916   4.631  0.7493 -1.0880 -2.6718
  508THF    H1210703   4.007   0.873   4.842 -2.0009 -1.3361  1.1381
  508THF    H1310704   4.032   1.033   4.869  0.3211 -2.1339  0.8877
  509THF     O110705   2.408   1.740   0.292  0.3179  0.0036  0.0103
  509THF     C210706   2.538   1.683   0.291  0.3932 -0.1886  0.0215
  509THF     C310707   2.417   1.877   0.319  0.2471  0.3452  0.0158
  509THF     H410708   2.528   1.591   0.236 -1.2976 -1.7285  0.4501
  509THF     H510709   2.569   1.659   0.391  3.0410  3.1387  0.6484
  509THF     H610710   2.327   1.939   0.292 -2.1143  0.6235  1.4714
  509THF     H710711   2.431   1.881   0.425  1.9349  0.5502  0.6499
  509THF     C810712   2.543   1.920   0.248 -0.1133 -1.1546  0.6179
  509THF     C910713   2.617   1.793   0.218 -0.1092 -0.1569 -0.1826
  509THF    H1010714   2.599   1.987   0.313  2.8276 -0.1770 -1.0229
  509THF    H1110715   2.536   1.988   0.165 -0.0009 -0.9169  0.6507
  509THF    H1210716   2.592   1.782   0.115  0.1302  1.0648  2.4302
  509THF    H1310717   2.723   1.782   0.223 -0.5663  0.1169  0.1831
  510THF     O110718   3.744   3.611   0.109  0.0245  0.2500  0.3378
  510THF     C210719   3.714   3.723   0.191 -0.1334 -0.2669  0.4590
  510THF     C310720   3.685   3.637  -0.017 -0.3181  0.1678 -0.2694
  510THF     H410721   3.767   3.729   0.293  3.2636 -2.7033  0.6875
  510THF     H510722   3.609   3.725   0.212 -1.6288 -2.3980  0.4595
  510THF     H610723   3.725   3.571  -0.092  1.2015 -0.0809  1.8800
  510THF     H710724   3.576   3.622  -0.013  0.1220 -2.0042  1.3718
  510THF     C810725   3.716   3.790  -0.036  0.0074  0.0585 -0.5146
  510THF     C910726   3.772   3.832   0.103 -0.7291 -0.6489  0.0004
  510THF    H1010727   3.625   3.847  -0.063 -0.5467  0.0381  1.0228
  510THF    H1110728   3.780   3.799  -0.121  1.0977 -0.1135 -0.4783
  510THF    H1210729   3.875   3.829   0.086 -2.6211  0.0956 -0.7997
  510THF    H1310730   3.743   3.936   0.134 -2.6126  1.5199 -1.0725
  511THF     O110731   1.782   4.205   2.897  0.3961 -0.5990 -0.0688
  511THF     C210732   1.914   4.196   2.843 -0.2804  0.1698 -0.1342
  511THF     C310733   1.745   4.342   2.901 -0.3208 -0.2585 -0.5308
  511THF     H410734   1.945   4.096   2.827  1.3141 -0.2608 -0.1797
  511THF     H510735   1.990   4.223   2.915 -2.4035  0.4625  1.9768
  511THF     H610736   1.633   4.362   2.904 -0.0373  0.5158 -2.4944
  511THF     H710737   1.787   4.378   2.994 -1.5828 -0.3694  0.9730
  511THF     C810738   1.819   4.404   2.785  0.1452 -0.1286 -0.0224
  511THF     C910739   1.914   4.302   2.733  0.1577  0.2206  0.5785
  511THF    H1010740   1.868   4.499   2.811  0.9610  0.2850  1.9344
  511THF    H1110741   1.748   4.437   2.704  0.5411  2.3441  0.3716
  511THF    H1210742   1.871   4.252   2.641  0.8084 -0.3041  0.9096
  511THF    H1310743   2.020   4.322   2.727 -0.5262  0.5955 -0.2099
  512THF     O110744   3.585   0.801   1.337  0.1765  0.0013  0.0491
  512THF     C210745   3.480   0.898   1.351  0.3119 -0.2637  0.7668
  512THF     C310746   3.692   0.841   1.418 -0.5791 -0.4352  1.1042
  512THF     H410747   3.385   0.860   1.321  0.0788 -0.4551 -0.0319
  512THF     H510748   3.520   0.983   1.295  1.8252  0.2545  0.6229
  512THF     H610749   3.749   0.754   1.459 -1.8507 -1.4929  0.3658
  512THF     H710750   3.759   0.907   1.355  1.9049  2.1277 -1.9609
  512THF     C810751   3.633   0.919   1.534 -1.0573  0.0147 -0.0868
  512THF     C910752   3.484   0.918   1.501  0.2923  0.5266  0.1555
  512THF    H1010753   3.668   1.017   1.540 -1.0202  0.4922 -1.5983
  512THF    H1110754   3.659   0.861   1.625 -0.7134  0.1529 -2.2559
  512THF    H1210755   3.442   0.833   1.547  0.5060 -0.9048  0.6241
  512THF    H1310756   3.436   1.006   1.519  0.4206 -0.5569 -1.2057
  513THF     O110757   4.498   1.330   0.001  0.1185 -0.1349  0.0533
  513THF     C210758   4.457   1.202  -0.058  0.2640 -0.4239  0.1770
  513THF     C310759   4.389   1.406   0.034 -0.5490 -0.2198  0.1397
  513THF     H410760   4.440   1.122   0.018 -0.8490  0.7504 -0.4829
  513THF     H510761   4.537   1.171  -0.128  0.7981  1.6102  0.7378
  513THF     H610762   4.374   1.421   0.139  0.6594  1.7644 -0.0512
  513THF     H710763   4.413   1.504  -0.010  2.7561 -0.6029 -1.3963
  513THF     C810764   4.266   1.332  -0.028 -0.7235  0.1911  0.2606
  513THF     C910765   4.325   1.238  -0.128 -0.1140  0.6477  0.0219
  513THF    H1010766   4.181   1.393  -0.065  0.1079  0.3842 -1.5859
  513THF    H1110767   4.223   1.277   0.057  0.2571 -0.2389  1.5087
  513THF    H1210768   4.260   1.159  -0.166 -1.5901  2.1804  3.3720
  513THF    H1310769   4.350   1.294  -0.216 -0.3213 -1.5495 -1.0823
  514THF     O110770   1.308   2.410   3.146  0.2243 -0.1971  0.1402
  514THF     C210771   1.284   2.278   3.092  0.2244 -0.3721  0.3357
  514THF     C310772   1.193   2.451   3.214  0.0868  0.1036  0.8197
  514THF     H410773   1.282   2.210   3.179  1.1301 -0.5544  0.4001
  514THF     H510774   1.357   2.240   3.016  0.0002 -3.9661  0.5958
  514THF     H610775   1.190   2.402   3.311 -0.3788  1.9644  3.1000
  514THF     H710776   1.197   2.559   3.226 -2.0394 -2.6517  0.2183
  514THF     C810777   1.082   2.406   3.123 -0.1635 -0.3060  0.8479
  514THF     C910778   1.141   2.295   3.030 -0.7153 -0.3588 -0.2698
  514THF    H1010779   1.059   2.490   3.061  0.7998 -1.1938  0.2689
  514THF    H1110780   0.993   2.376   3.173  2.6307 -0.2372 -1.3925
  514THF    H1210781   1.077   2.210   3.032  2.8142  1.8176 -1.3282
  514THF    H1310782   1.143   2.341   2.932 -2.5065  1.1383  4.1304
  515THF     O110783   3.362   0.509   0.353 -0.4144 -0.2698  0.0141
  515THF     C210784   3.258   0.521   0.448  0.6781 -0.1863 -0.1135
  515THF     C310785   3.490   0.500   0.418  0.5621  0.8370  0.5924
  515THF     H410786   3.235   0.430   0.496 -3.9974 -0.7267 -2.1058
  515THF     H510787   3.170   0.562   0.405 -0.3707  0.0993 -3.2731
  515THF     H610788   3.489   0.401   0.460  2.8123  0.3574  0.5296
  515THF     H710789   3.580   0.512   0.355  0.6121 -0.2193  1.1072
  515THF     C810790   3.463   0.605   0.528  0.3115 -0.2621  0.9700
  515THF     C910791   3.308   0.627   0.541 -0.6911 -0.9357  0.1212
  515THF    H1010792   3.520   0.695   0.496 -1.1349 -1.3890  0.6243
  515THF    H1110793   3.505   0.580   0.626 -0.3949 -0.8576  0.3531
  515THF    H1210794   3.271   0.630   0.638  0.5787  2.9641  0.0991
  515THF    H1310795   3.286   0.723   0.495  1.2313  0.8157 -1.1882
  516THF     O110796   2.558   5.008   4.663  0.3166 -0.0758  0.1884
  516THF     C210797   2.528   4.961   4.796  0.4024 -0.2995  0.0300
  516THF     C310798   2.444   5.000   4.588  0.2453  0.2190 -0.0855
  516THF     H410799   2.529   5.026   4.880  1.1406 -1.3782 -1.0003
  516THF     H510800   2.596   4.886   4.834 -0.5615 -2.9878  1.2369
  516THF     H610801   2.384   5.087   4.615 -1.7454  0.2303  2.0309
  516THF     H710802   2.466   4.997   4.479  1.7414  0.3976 -2.8787
  516THF     C810803   2.382   4.876   4.627  0.4530 -0.4160 -0.1006
  516THF     C910804   2.404   4.882   4.774 -0.2473 -0.7097  0.0683
  516THF    H1010805   2.435   4.790   4.583  2.2032  0.7282 -1.9547
  516THF    H1110806   2.275   4.869   4.615  0.9882 -3.2712  2.1865
  516THF    H1210807   2.322   4.935   4.820 -0.2057 -1.8600  0.8897
  516THF    H1310808   2.416   4.783   4.812  0.8190 -1.6037  0.3652
  517THF     O110809   0.694   3.669   1.643  0.2957  0.2915  0.1049
  517THF     C210810   0.758   3.794   1.599 -0.0028  0.9629 -0.4793
  517THF     C310811   0.558   3.702   1.676  0.6518 -0.0245 -0.9275
  517THF     H410812   0.729   3.813   1.495 -0.9211  1.0684 -0.6480
  517THF     H510813   0.868   3.780   1.599 -0.8606  1.1995  0.5664
  517THF     H610814   0.502   3.686   1.581  2.2087 -0.4868 -0.9237
  517THF     H710815   0.534   3.623   1.755  0.9241 -2.0050 -0.8103
  517THF     C810816   0.566   3.846   1.735 -0.5799  0.8436  0.5549
  517THF     C910817   0.704   3.892   1.702  0.9114 -0.1497  0.1304
  517THF    H1010818   0.542   3.842   1.839 -1.6595  0.8931  1.5476
  517THF    H1110819   0.486   3.902   1.680 -0.3676 -0.8275 -1.0054
  517THF    H1210820   0.720   4.000   1.686 -0.5107  0.0080 -0.5926
  517THF    H1310821   0.768   3.890   1.793  0.5077  0.2486  0.6921
  518THF     O110822   2.912   5.414   1.814 -0.3882  0.0888  0.0172
  518THF     C210823   2.880   5.446   1.945  0.9783 -0.2733 -0.0556
  518THF     C310824   2.887   5.532   1.734  0.1786 -0.0626  0.7089
  518THF     H410825   2.923   5.369   2.010  0.8098  0.0732  0.0952
  518THF     H510826   2.768   5.462   1.967 -3.4204 -0.8068 -0.5167
  518THF     H610827   2.929   5.526   1.636  0.8140  2.7829 -0.2703
  518THF     H710828   2.778   5.553   1.739 -0.2055 -0.3782  1.6610
  518THF     C810829   2.948   5.640   1.818  0.1915 -0.1400  0.1767
  518THF     C910830   2.962   5.570   1.953  1.1009 -0.1253  0.1788
  518THF    H1010831   2.891   5.737   1.833  0.0548 -0.2888 -0.2348
  518THF    H1110832   3.045   5.664   1.773 -1.0446 -1.8260 -0.5687
  518THF    H1210833   3.065   5.541   1.973 -0.3129 -0.5231  2.2348
  518THF    H1310834   2.929   5.633   2.036 -0.3748  3.6465  0.8903
  519THF     O110835   2.709   5.102   1.192 -0.3305 -0.0926 -0.0046
  519THF     C210836   2.614   5.208   1.209  0.1392  0.5429  0.5117
  519THF     C310837   2.752   5.112   1.053  0.0544  0.2651  0.1885
  519THF     H410838   2.591   5.231   1.314 -2.1140  0.2513  0.5728
  519THF     H510839   2.523   5.183   1.148 -2.6058  0.5456  1.3102
  519THF     H610840   2.862   5.102   1.039  0.9556  3.1923  1.2515
  519THF     H710841   2.695   5.035   0.996  0.6594 -0.4661  1.3600
  519THF     C810842   2.729   5.257   1.008 -0.0995 -0.3782 -0.1354
  519THF     C910843   2.700   5.319   1.145  0.5182  0.1068 -0.5531
  519THF    H1010844   2.646   5.260   0.935  1.2399 -0.1213 -3.9101
  519THF    H1110845   2.816   5.305   0.966  2.5781 -3.4237 -0.2843
  519THF    H1210846   2.800   5.337   1.188  1.8785  0.0505 -0.1907
  519THF    H1310847   2.648   5.417   1.142  1.0157 -0.6042  0.5796
  520THF     O110848   3.719   4.463   0.715 -0.0067  0.6682  0.3798
  520THF     C210849   3.680   4.331   0.732  0.8146 -0.1794  0.5131
  520THF     C310850   3.771   4.512   0.839 -0.5692 -0.6399  0.3946
  520THF     H410851   3.755   4.254   0.727 -1.5104 -0.1690 -0.6226
  520THF     H510852   3.606   4.314   0.654  1.9860 -2.2139 -2.7564
  520THF     H610853   3.878   4.507   0.853  0.5412 -1.9859 -2.3481
  520THF     H710854   3.737   4.615   0.835 -1.8634 -4.3734 -2.4134
  520THF     C810855   3.693   4.444   0.947 -0.4682  0.2268 -0.0253
  520THF     C910856   3.615   4.338   0.874 -0.1463 -0.8711  0.0431
  520THF    H1010857   3.642   4.510   1.013 -2.4149 -3.7220  1.4546
  520THF    H1110858   3.779   4.396   1.003  1.9673  3.3065 -0.3031
  520THF    H1210859   3.603   4.238   0.931 -0.2099 -0.4658 -1.6097
  520THF    H1310860   3.512   4.371   0.863  0.2930  1.5973 -0.2973
  521THF     O110861   4.474   4.244   2.639 -0.2518  0.4353  0.1148
  521THF     C210862   4.405   4.123   2.650 -0.3736 -0.7966  0.0781
  521THF     C310863   4.394   4.344   2.573 -0.7437 -0.1353 -0.2208
  521THF     H410864   4.423   4.082   2.747 -1.0318 -0.4464 -0.6747
  521THF     H510865   4.451   4.056   2.573  3.2795  0.7281 -2.7772
  521THF     H610866   4.364   4.423   2.633  0.4984 -0.9973 -1.3927
  521THF     H710867   4.449   4.391   2.495 -0.6905 -1.0004 -0.1453
  521THF     C810868   4.269   4.273   2.522 -0.1798  0.2540 -0.6613
  521THF     C910869   4.258   4.167   2.629 -0.2182 -0.4134  0.6785
  521THF    H1010870   4.294   4.232   2.428 -1.2245  0.1277 -2.3343
  521THF    H1110871   4.176   4.332   2.512  0.9687 -0.6950 -0.3732
  521THF    H1210872   4.215   4.217   2.718  2.2012 -0.8626  1.2757
  521THF    H1310873   4.187   4.084   2.602  0.7728  3.3617  1.9368
  522THF     O110874   4.758   0.072   3.662  0.0535  0.2008 -0.7131
  522THF     C210875   4.697   0.196   3.627  0.7098  0.0065  0.1470
  522THF     C310876   4.850   0.096   3.766  0.3247 -0.1181 -0.0901
  522THF     H410877   4.595   0.173   3.584 -0.7196 -0.1896 -0.3837
  522THF     H510878   4.757   0.251   3.560 -1.5311 -0.5555  0.8527
  522THF     H610879   4.872   0.020   3.842 -1.9388  3.8066  3.6703
  522THF     H710880   4.948   0.115   3.733 -0.4064 -0.3793  4.0187
  522THF     C810881   4.782   0.203   3.847 -0.4982  0.9999  0.7580
  522THF     C910882   4.682   0.277   3.761 -0.1194 -0.3868  0.0500
  522THF    H1010883   4.860   0.270   3.886  2.1448  1.5651 -2.8948
  522THF    H1110884   4.745   0.146   3.932 -1.4770 -1.7443 -1.8628
  522THF    H1210885   4.572   0.277   3.791 -0.3355  2.0017 -2.2085
  522THF    H1310886   4.709   0.383   3.750 -0.6162 -1.6652  1.6281
  523THF     O110887   0.516   2.938   2.085  0.4690  0.5326 -0.6410
  523THF     C210888   0.491   3.038   2.178  0.3569 -0.2366 -0.1052
  523THF     C310889   0.391   2.889   2.048 -0.0616 -0.1723  0.2275
  523THF     H410890   0.579   3.107   2.196  0.9344 -0.1012  0.8691
  523THF     H510891   0.474   2.986   2.273  0.8052 -3.6652  0.0907
  523THF     H610892   0.407   2.830   1.959 -0.3466  0.2990 -1.1743
  523THF     H710893   0.361   2.824   2.129  0.2402  0.2611 -0.2947
  523THF     C810894   0.299   3.013   2.047  0.0400  0.0257  0.1389
  523THF     C910895   0.367   3.114   2.136  0.1732  0.3096 -0.2338
  523THF    H1010896   0.196   2.989   2.089 -0.5330 -0.4786 -0.5830
  523THF    H1110897   0.282   3.058   1.948 -0.1798 -0.8841 -0.0561
  523THF    H1210898   0.404   3.197   2.081 -3.3401 -0.0023 -0.9935
  523THF    H1310899   0.306   3.141   2.222  1.2331  1.2143 -1.1346
  524THF     O110900   5.347   1.891   2.871  0.0037 -0.3495 -0.1607
  524THF     C210901   5.326   1.868   2.730  0.8187 -0.4731  0.5192
  524THF     C310902   5.266   1.796   2.937  0.7265 -0.4025 -0.1522
  524THF     H410903   5.379   1.774   2.703 -0.0400  1.9149 -3.4521
  524THF     H510904   5.359   1.947   2.663 -0.0937  2.4307  0.6905
  524THF     H610905   5.324   1.710   2.937  0.1094  0.1295  2.7084
  524THF     H710906   5.247   1.811   3.044 -1.3094 -0.4668  1.5069
  524THF     C810907   5.137   1.774   2.857 -0.6313  0.0552 -0.1252
  524THF     C910908   5.171   1.844   2.723  0.4953 -0.3931  0.0136
  524THF    H1010909   5.063   1.827   2.912  1.5788  1.3503 -0.6765
  524THF    H1110910   5.129   1.667   2.847  0.8588 -2.1879  0.4581
  524THF    H1210911   5.139   1.779   2.641  1.5876 -0.2764  1.4917
  524THF    H1310912   5.121   1.938   2.714  1.6448 -2.1672  0.3244
  525THF     O110913   3.138   1.537   3.623 -0.2800  0.4696 -0.1276
  525THF     C210914   3.004   1.540   3.656 -0.2576 -0.2766  0.0054
  525THF     C310915   3.197   1.413   3.664  0.6834  0.0171  0.3199
  525THF     H410916   2.938   1.486   3.588 -2.1292 -0.0884  0.6626
  525THF     H510917   2.958   1.644   3.663 -1.0212  1.4178 -1.3018
  525THF     H610918   3.153   1.326   3.604  1.5098 -0.3563 -1.9470
  525THF     H710919   3.307   1.420   3.673  0.7048  2.5344 -0.3137
  525THF     C810920   3.126   1.386   3.797 -0.0426 -0.3371  0.7436
  525THF     C910921   2.997   1.467   3.795 -0.0997  0.5131 -0.9417
  525THF    H1010922   3.185   1.420   3.882  1.0050 -0.9271 -3.1620
  525THF    H1110923   3.107   1.278   3.819  0.5096 -1.3248 -0.5720
  525THF    H1210924   2.900   1.412   3.806  0.9992 -0.1049  1.6127
  525THF    H1310925   2.996   1.537   3.882  0.3334  0.9790  0.1193
  526THF     O110926   2.113   2.106   0.596 -0.0335 -0.6238  0.7809
  526THF     C210927   1.995   2.185   0.619  0.8374  0.4386  0.0207
  526THF     C310928   2.133   2.028   0.712  0.1569 -0.2507  1.0162
  526THF     H410929   1.902   2.127   0.593  0.5085 -2.6612 -3.4255
  526THF     H510930   1.988   2.273   0.551 -3.3723  1.8438  0.8728
  526THF     H610931   2.059   1.945   0.714  1.1044 -1.6253 -0.0132
  526THF     H710932   2.239   1.994   0.723  2.1975 -0.5075 -0.7767
  526THF     C810933   2.084   2.113   0.827 -0.2153 -0.6575  0.2460
  526THF     C910934   1.993   2.217   0.771 -0.5864  0.1176  0.6475
  526THF    H1010935   2.172   2.153   0.868 -2.1842 -0.2216  0.0385
  526THF    H1110936   2.039   2.051   0.899 -1.3896  2.2374  2.5839
  526THF    H1210937   1.897   2.208   0.803 -0.2317  0.2811 -2.1035
  526THF    H1310938   2.039   2.314   0.791  1.3415 -1.0632 -1.8326
  527THF     O110939   3.101   1.070   3.115 -0.0468 -0.2980 -0.3298
  527THF     C210940   2.967   1.102   3.101  0.0194  0.6584  0.2919
  527THF     C310941   3.107   0.992   3.231 -0.2828  0.6013 -0.1093
  527THF     H410942   2.936   1.141   3.007 -0.6819 -1.9719 -1.3022
  527THF     H510943   2.938   1.181   3.172  1.4106 -1.1737  3.2879
  527THF     H610944   3.195   0.926   3.220 -0.1245  0.9553 -2.4155
  527THF     H710945   3.104   1.059   3.316 -1.0625 -2.6076 -0.0344
  527THF     C810946   2.982   0.902   3.235 -0.8361 -0.3881  0.6037
  527THF     C910947   2.895   0.968   3.134 -0.3065 -0.1526  0.3098
  527THF    H1010948   2.944   0.889   3.331  0.8094  0.8624  0.6796
  527THF    H1110949   3.010   0.804   3.200 -1.8599  1.2745  0.9981
  527THF    H1210950   2.890   0.909   3.042  1.0898  0.2475 -0.8180
  527THF    H1310951   2.794   0.999   3.171  3.0986  1.3228  0.3528
  528THF     O110952   3.501   2.820   1.327 -0.1264  0.3701  0.4421
  528THF     C210953   3.628   2.854   1.380 -0.3295 -0.3461  0.5494
  528THF     C310954   3.407   2.882   1.414 -0.1449  0.2251 -0.1949
  528THF     H410955   3.653   2.955   1.359  1.4841  0.9874 -0.6912
  528THF     H510956   3.702   2.785   1.339 -2.5274  0.0266 -0.5729
  528THF     H610957   3.392   2.985   1.382  0.2356  0.5654 -1.3607
  528THF     H710958   3.307   2.829   1.413 -1.5666  1.0842  0.3895
  528THF     C810959   3.469   2.857   1.553 -0.0108  0.0349  0.2450
  528THF     C910960   3.619   2.836   1.527  0.4364  0.8215  0.9782
  528THF    H1010961   3.416   2.769   1.595  0.5087  0.4495 -0.7488
  528THF    H1110962   3.447   2.945   1.611  1.4722 -2.3771 -2.3090
  528THF    H1210963   3.677   2.902   1.590 -0.5607 -0.2296 -0.1543
  528THF    H1310964   3.650   2.734   1.538 -1.2763  1.1944  0.7122
  529THF     O110965   3.164   0.305   3.898  0.4448 -0.2646  0.4287
  529THF     C210966   3.024   0.336   3.886  0.0628  1.1411 -0.5022
  529THF     C310967   3.237   0.424   3.852  0.3074  0.3944 -0.0057
  529THF     H410968   2.964   0.258   3.942 -0.1039 -0.8418  0.0246
  529THF     H510969   2.993   0.331   3.783  0.7605  0.6377  0.9043
  529THF     H610970   3.347   0.415   3.862  3.1263 -1.5583 -0.0839
  529THF     H710971   3.210   0.444   3.750 -1.4628  0.6069 -0.5419
  529THF     C810972   3.170   0.521   3.946 -0.5090  0.3394  0.1900
  529THF     C910973   3.024   0.478   3.947  0.0453 -0.2700  0.4386
  529THF    H1010974   3.193   0.622   3.915  1.8920 -2.0646 -0.3779
  529THF    H1110975   3.213   0.506   4.044 -3.0128 -0.1242 -0.2073
  529THF    H1210976   3.001   0.486   4.051  0.5924 -0.4311 -3.2725
  529THF    H1310977   2.967   0.553   3.888  0.6847  0.1260 -0.1810
  530THF     O110978   3.601   1.842   3.662 -0.0435 -0.1788 -0.3897
  530THF     C210979   3.725   1.777   3.674 -0.7047 -0.5686 -0.3718
  530THF     C310980   3.519   1.788   3.553 -0.6049 -0.8422  0.1345
  530THF     H410981   3.772   1.768   3.764  0.4401 -2.8659 -1.4564
  530THF     H510982   3.795   1.824   3.609 -0.2652 -0.6997 -1.5655
  530THF     H610983   3.410   1.796   3.565 -3.1762  1.1915  0.2437
  530THF     H710984   3.545   1.833   3.460 -0.7867  2.2644  1.4998
  530THF     C810985   3.561   1.637   3.556  0.2631 -0.2032  0.3563
  530THF     C910986   3.699   1.634   3.625 -0.1043  0.3563 -0.0763
  530THF    H1010987   3.551   1.597   3.453 -0.8642 -1.6940 -1.0128
  530THF    H1110988   3.488   1.571   3.608 -0.6656 -0.7630  0.8130
  530THF    H1210989   3.691   1.571   3.714 -0.3490 -0.0680 -1.0619
  530THF    H1310990   3.781   1.591   3.568  0.1213  0.2727  2.1107
  531THF     O110991   0.792   2.307   1.023 -0.4115  0.3908  0.3484
  531THF     C210992   0.711   2.196   1.056  0.0666 -0.1397 -0.2418
  531THF     C310993   0.929   2.271   1.063  0.0444 -0.3421 -0.1985
  531THF     H410994   0.728   2.109   0.990  0.3536  1.2435 -1.6837
  531THF     H510995   0.608   2.216   1.048 -1.5618  1.8514 -0.7758
  531THF     H610996   0.986   2.236   0.978  0.4063  1.2435  1.8818
  531THF     H710997   0.976   2.367   1.080  1.0227 -1.4390 -1.4588
  531THF     C810998   0.917   2.174   1.183 -0.8614  0.1292  0.3820
  531THF     C910999   0.764   2.164   1.196  0.4658 -0.2129  0.3205
  531THF    H1011000   0.956   2.204   1.284  1.0370  1.7672  1.0481
  531THF    H1111001   0.954   2.076   1.156 -1.2298  0.0543 -0.7586
  531THF    H1211002   0.718   2.074   1.229  0.9252  3.9188 -0.1039
  531THF    H1311003   0.734   2.247   1.264 -0.2785  0.8416  0.5102
  532THF     O111004   4.101   0.740   5.452  0.0588 -0.2659  0.1721
  532THF     C211005   3.984   0.761   5.370  0.0971  0.0295  0.0839
  532THF     C311006   4.188   0.845   5.436  0.1227 -0.2333 -0.6906
  532THF     H411007   3.907   0.820   5.412  0.0149  1.8045 -0.9032
  532THF     H511008   3.934   0.667   5.346  0.9769 -2.7931 -1.9207
  532THF     H611009   4.155   0.935   5.488  0.7447 -0.7434 -1.7085
  532THF     H711010   4.288   0.816   5.475 -2.5871  3.0808 -2.1852
  532THF     C811011   4.188   0.866   5.280 -0.0611 -0.3802 -0.1813
  532THF     C911012   4.037   0.835   5.247 -0.3888  0.1427  1.0325
  532THF    H1011013   4.259   0.800   5.227 -0.6171 -1.9605 -0.9221
  532THF    H1111014   4.197   0.973   5.257 -0.8304  4.0454 -1.0994
  532THF    H1211015   3.979   0.923   5.223  0.6887 -0.5704 -3.5167
  532THF    H1311016   4.037   0.764   5.164 -2.0294  0.4627  1.3485
  533THF     O111017   4.207   0.891   0.896 -0.1139 -0.1862 -0.2007
  533THF     C211018   4.254   0.971   0.794 -0.4278  0.6727  0.0300
  533THF     C311019   4.324   0.884   0.985  0.1078  0.7222 -0.3698
  533THF     H411020   4.259   1.081   0.819  0.8570  3.4761  1.1392
  533THF     H511021   4.181   0.964   0.711 -1.1213  1.5072 -2.7801
  533THF     H611022   4.328   0.983   1.036  1.2266 -0.8814 -4.2626
  533THF     H711023   4.304   0.804   1.058  0.3152 -0.6590 -0.0334
  533THF     C811024   4.448   0.880   0.896 -0.2946  0.0720 -0.2688
  533THF     C911025   4.390   0.903   0.762 -0.2612 -0.3369 -0.2776
  533THF    H1011026   4.511   0.793   0.899 -0.5935 -3.1213 -1.6143
  533THF    H1111027   4.509   0.961   0.930 -0.6519 -0.3952 -0.5384
  533THF    H1211028   4.453   0.953   0.696 -1.0031 -1.3758 -0.6065
  533THF    H1311029   4.360   0.812   0.714  0.3392  2.0632 -1.7952
  534THF     O111030   3.217   4.802   4.141 -1.1948 -0.2980 -0.3340
  534THF     C211031   3.262   4.720   4.035  0.2248  0.5471 -0.3218
  534THF     C311032   3.227   4.732   4.257  0.3903  0.2876 -0.5440
  534THF     H411033   3.292   4.776   3.946 -1.6789  0.7266  1.9027
  534THF     H511034   3.186   4.642   4.007 -0.3094  0.4304  0.1810
  534THF     H611035   3.223   4.809   4.343  0.2080  3.1763  0.3317
  534THF     H711036   3.149   4.655   4.271  0.5508 -0.0969 -1.0245
  534THF     C811037   3.365   4.666   4.251  0.4028  0.3320 -0.0120
  534THF     C911038   3.384   4.654   4.103  0.6849 -0.3023 -0.2545
  534THF    H1011039   3.373   4.573   4.299  0.4460  0.4289 -2.7546
  534THF    H1111040   3.437   4.721   4.308 -1.2200 -1.2862 -1.3159
  534THF    H1211041   3.482   4.686   4.070  1.4311  1.5612  0.5758
  534THF    H1311042   3.373   4.553   4.069  0.7223  4.7327  2.4289
  535THF     O111043   5.339   4.336   0.412  0.1980 -0.7352 -0.4010
  535THF     C211044   5.373   4.425   0.299  0.1354  0.3692  0.4943
  535THF     C311045   5.205   4.285   0.387  0.2497 -0.1645  0.4060
  535THF     H411046   5.477   4.432   0.279  0.4070  1.0455 -2.7318
  535THF     H511047   5.319   4.521   0.318  0.3171 -0.3642 -0.2383
  535THF     H611048   5.188   4.188   0.436 -1.8968  1.6103 -1.0275
  535THF     H711049   5.144   4.356   0.442  0.5830 -1.7011 -2.5277
  535THF     C811050   5.197   4.282   0.236 -0.4206  0.3235 -0.2928
  535THF     C911051   5.311   4.353   0.179 -0.6599  0.1421 -0.3809
  535THF    H1011052   5.110   4.339   0.220  0.2687  0.0972  2.5894
  535THF    H1111053   5.187   4.181   0.200 -0.4069  1.0100 -1.1107
  535THF    H1211054   5.386   4.285   0.147 -1.7491  1.5624 -0.1357
  535THF    H1311055   5.288   4.417   0.094  0.1275  0.2293  2.1948
  536THF     O111056   2.584   0.065   0.929 -0.0327 -0.2851  0.1129
  536THF     C211057   2.591   0.209   0.942 -0.4623  0.3261 -0.8424
  536THF     C311058   2.648   0.038   0.809  0.3173  0.1014  0.3836
  536THF     H411059   2.693   0.235   0.973  0.7257 -0.1215  0.9172
  536THF     H511060   2.522   0.256   1.020 -1.2977  0.8161  2.4324
  536THF     H611061   2.758   0.017   0.830  0.2568 -1.6754 -0.5296
  536THF     H711062   2.608  -0.054   0.761  1.2863  0.1632  2.2713
  536THF     C811063   2.624   0.160   0.716  0.1739 -0.7394  0.4878
  536THF     C911064   2.549   0.256   0.807  0.1853  0.3058  0.2942
  536THF    H1011065   2.558   0.132   0.629  0.9419  0.1296  1.1088
  536THF    H1111066   2.723   0.193   0.685 -0.8535 -1.8428 -1.5109
  536THF    H1211067   2.571   0.358   0.787 -0.1014  0.8756 -3.0080
  536THF    H1311068   2.438   0.228   0.797  2.5754 -2.7876  0.5337
  537THF     O111069   4.969   0.368   4.988  0.3885 -0.1724 -0.0854
  537THF     C211070   5.014   0.477   5.070 -0.4951 -0.2308 -0.2419
  537THF     C311071   4.826   0.387   4.978  0.1303 -0.1453  0.2007
  537THF     H411072   5.117   0.489   5.065 -1.4833 -0.6462  0.6389
  537THF     H511073   4.974   0.472   5.170  1.6578 -0.6483  1.3555
  537THF     H611074   4.787   0.320   4.902  1.9290 -6.0501  0.9391
  537THF     H711075   4.778   0.365   5.073  1.1545 -0.4525 -0.5576
  537THF     C811076   4.820   0.539   4.940  0.2430 -0.0862  1.0242
  537THF     C911077   4.945   0.601   5.008 -0.3035  0.4798  0.0540
  537THF    H1011078   4.729   0.585   4.988 -0.2572  0.8951  0.5968
  537THF    H1111079   4.828   0.528   4.829 -2.4581 -0.4839  0.6069
  537THF    H1211080   5.013   0.646   4.939 -0.0488  1.2054  0.9553
  537THF    H1311081   4.925   0.680   5.079  1.7401 -2.1443 -1.1015
  538THF     O111082   2.091   3.873   5.469  0.3203  0.1306  0.0821
  538THF     C211083   1.974   3.834   5.540 -0.1643 -0.3003  0.0873
  538THF     C311084   2.202   3.817   5.533 -0.2235  0.2760 -0.1825
  538THF     H411085   1.886   3.855   5.485 -1.1482 -1.7888 -0.5571
  538THF     H511086   1.957   3.901   5.627 -0.9045  0.9550 -1.4065
  538THF     H611087   2.274   3.815   5.457  0.5062 -1.8959  0.6561
  538THF     H711088   2.225   3.877   5.622 -0.9890 -0.0082  1.3280
  538THF     C811089   2.144   3.679   5.566 -0.4821  0.3583 -0.1280
  538THF     C911090   1.996   3.688   5.548  0.0537  0.0251  0.2856
  538THF    H1011091   2.164   3.670   5.671  0.9595 -0.1150 -3.8888
  538THF    H1111092   2.187   3.597   5.515  0.5066  0.1743 -1.5870
  538THF    H1211093   1.965   3.647   5.448 -0.9687 -2.7099 -1.9192
  538THF    H1311094   1.935   3.651   5.629 -0.8550  3.8199  1.0914
  539THF     O111095   1.466   0.899   4.582 -0.1360 -0.1381  0.0886
  539THF     C211096   1.563   0.889   4.478 -0.3176  0.5441 -0.1919
  539THF     C311097   1.340   0.859   4.526 -0.1889 -0.4806 -0.7361
  539THF     H411098   1.605   0.789   4.474  0.5904  1.0703  0.2907
  539THF     H511099   1.640   0.965   4.510  0.9822  1.1245 -0.9162
  539THF     H611100   1.319   0.758   4.562  0.6312 -3.9187 -0.8153
  539THF     H711101   1.264   0.921   4.560 -1.4964  1.1299 -1.5526
  539THF     C811102   1.351   0.860   4.375  0.4209 -0.4403 -0.4277
  539THF     C911103   1.488   0.924   4.351  0.2306 -0.5741  0.3369
  539THF    H1011104   1.265   0.903   4.336  1.4142 -0.7987  1.3721
  539THF    H1111105   1.352   0.767   4.322 -0.6693  2.3328  1.6181
  539THF    H1211106   1.538   0.894   4.259  2.8296 -0.2061  0.5970
  539THF    H1311107   1.467   1.033   4.345 -3.2704  0.4640  0.2953
  540THF     O111108   3.731   0.801   2.094  0.9401  0.0177 -0.3131
  540THF     C211109   3.688   0.804   1.953 -0.3044 -1.0666  0.5601
  540THF     C311110   3.674   0.681   2.145 -0.6032 -0.2101 -1.1885
  540THF     H411111   3.766   0.864   1.906  2.4503 -0.1068  1.9099
  540THF     H511112   3.585   0.843   1.933 -0.2436  0.5211  0.7570
  540THF     H611113   3.745   0.637   2.223 -0.8380  0.3885 -0.1733
  540THF     H711114   3.575   0.702   2.182  1.8772 -2.0306  1.5866
  540THF     C811115   3.687   0.583   2.026  1.1489 -0.1688 -0.0265
  540THF     C911116   3.726   0.664   1.902  0.4474  0.5660 -0.4249
  540THF    H1011117   3.586   0.532   2.007  2.4476 -0.2230  2.8185
  540THF    H1111118   3.754   0.499   2.047  1.4321  1.0737  2.1273
  540THF    H1211119   3.828   0.663   1.885  2.2371  1.6675  1.1587
  540THF    H1311120   3.667   0.639   1.808  1.7304 -1.0704 -2.5567
  541THF     O111121   2.995   2.419   2.599  0.3067 -0.2356 -0.0111
  541THF     C211122   3.005   2.528   2.514 -0.1471 -1.1096  0.2853
  541THF     C311123   2.958   2.475   2.725  0.2139 -0.1124 -0.4748
  541THF     H411124   2.913   2.568   2.473 -2.8747 -0.3368 -2.5800
  541THF     H511125   3.040   2.498   2.416 -0.4407 -1.0234 -0.6774
  541THF     H611126   2.853   2.500   2.702  0.3931 -1.9942 -1.0532
  541THF     H711127   2.971   2.407   2.808  1.2121 -1.7382 -0.5912
  541THF     C811128   3.041   2.605   2.735  0.1084 -0.1187  0.1653
  541THF     C911129   3.098   2.621   2.592  0.2223  0.5653 -0.8072
  541THF    H1011130   3.114   2.609   2.817 -1.1867  0.5921  1.3804
  541THF    H1111131   2.976   2.689   2.762 -0.8344  0.1359 -0.0505
  541THF    H1211132   3.118   2.718   2.560  3.0154  0.0658 -0.7827
  541THF    H1311133   3.192   2.569   2.587  2.5406  3.4185  0.7299
  542THF     O111134   3.270   5.256   1.548 -0.8341 -0.2150 -0.0381
  542THF     C211135   3.346   5.147   1.606  0.4315 -0.3591 -0.5890
  542THF     C311136   3.191   5.314   1.650  0.1642 -0.1040  0.6585
  542THF     H411137   3.437   5.134   1.546  0.3949  0.3565 -0.8133
  542THF     H511138   3.278   5.068   1.605 -0.3431  0.5061 -1.0491
  542THF     H611139   3.139   5.399   1.618  2.1903 -1.1724  3.4735
  542THF     H711140   3.121   5.244   1.695 -0.1587 -0.0874  0.8772
  542THF     C811141   3.301   5.332   1.753  0.2176 -0.2511  0.1588
  542THF     C911142   3.378   5.204   1.746  0.0263  0.6694  0.7580
  542THF    H1011143   3.252   5.348   1.851 -0.5608  0.7534 -0.7824
  542THF    H1111144   3.356   5.426   1.727  0.7410 -1.8879 -1.7126
  542THF    H1211145   3.487   5.229   1.754 -0.5314  0.1346 -1.0641
  542THF    H1311146   3.343   5.135   1.821 -2.5170 -2.3617 -1.7551
  543THF     O111147   3.636   1.420   2.524  0.1307 -0.0522  0.4010
  543THF     C211148   3.525   1.366   2.595  0.1738 -0.6427 -0.3587
  543THF     C311149   3.615   1.562   2.508 -0.6801  0.5048 -0.9438
  543THF     H411150   3.537   1.263   2.641 -0.4984 -2.0154  2.0530
  543THF     H511151   3.449   1.359   2.516  0.1049  0.9661  3.4911
  543THF     H611152   3.705   1.624   2.504  2.8877  0.4120  1.5299
  543THF     H711153   3.559   1.569   2.418  1.9412 -0.7793  0.6527
  543THF     C811154   3.527   1.597   2.627  0.5215 -0.5079 -0.2745
  543THF     C911155   3.499   1.474   2.704  0.0874 -0.0441  0.0668
  543THF    H1011156   3.435   1.652   2.597 -1.4433  0.3740  1.3368
  543THF    H1111157   3.580   1.673   2.689 -2.8023  1.2936 -3.0685
  543THF    H1211158   3.558   1.462   2.792  1.0167 -0.0690 -0.5520
  543THF    H1311159   3.405   1.476   2.751  0.6746 -1.1606  0.1611
  544THF     O111160   5.437   2.862   4.444  0.5332  0.2248 -0.1269
  544THF     C211161   5.365   2.874   4.566 -0.6557 -0.5769  0.5318
  544THF     C311162   5.352   2.812   4.340 -0.7793  0.1858  0.1827
  544THF     H411163   5.387   2.969   4.620  2.1394  1.4918  2.1695
  544THF     H511164   5.400   2.785   4.620  1.3373 -3.5164 -0.4548
  544THF     H611165   5.383   2.833   4.243  0.1609 -0.2007  0.5857
  544THF     H711166   5.343   2.703   4.354  2.2100  0.4804  0.7327
  544THF     C811167   5.224   2.881   4.375 -0.2332  0.4219  0.2441
  544THF     C911168   5.222   2.856   4.524  0.0638  0.2565  0.2370
  544THF    H1011169   5.133   2.842   4.322 -0.6428  0.6245  0.7897
  544THF    H1111170   5.235   2.980   4.338 -0.5520 -2.3331  0.0685
  544THF    H1211171   5.159   2.936   4.564 -1.0787 -0.1467  0.6695
  544THF    H1311172   5.182   2.761   4.557  0.4095  1.1718  3.5135
  545THF     O111173   5.357   1.560   4.094  0.0398 -0.7622  0.1143
  545THF     C211174   5.372   1.582   3.955  0.0772  0.1137 -0.8640
  545THF     C311175   5.399   1.432   4.123 -0.0284  0.2629  0.0641
  545THF     H411176   5.402   1.684   3.941  2.1314 -2.3084  0.6131
  545THF     H511177   5.286   1.576   3.887 -2.6695 -1.8813 -0.7059
  545THF     H611178   5.427   1.415   4.233  2.1504 -0.3829  1.4340
  545THF     H711179   5.321   1.361   4.096  1.6923 -0.6239 -0.6314
  545THF     C811180   5.517   1.416   4.030  0.2501  0.3240 -0.1679
  545THF     C911181   5.489   1.501   3.907  0.4148  0.1257 -0.0404
  545THF    H1011182   5.531   1.309   4.017 -0.0656 -0.4495  1.4910
  545THF    H1111183   5.610   1.451   4.084  0.9933 -1.3517  0.2612
  545THF    H1211184   5.573   1.562   3.880  0.1685 -0.7287 -0.0679
  545THF    H1311185   5.451   1.439   3.827 -1.8604  1.0247  0.1472
  546THF     O111186   3.595   3.198   0.813 -0.4437  0.2694  0.3701
  546THF     C211187   3.570   3.179   0.954  0.2167 -0.6309  0.2979
  546THF     C311188   3.725   3.261   0.807  0.0937 -0.8233 -0.1655
  546THF     H411189   3.488   3.109   0.974 -2.3241  2.2470 -1.5217
  546THF     H511190   3.542   3.272   0.987  0.4982  0.8466 -0.6758
  546THF     H611191   3.773   3.264   0.716  0.0838  0.3552 -1.1362
  546THF     H711192   3.707   3.364   0.838 -0.5436  0.3623  0.7241
  546THF     C811193   3.802   3.174   0.907  0.4993 -0.4569 -0.7424
  546THF     C911194   3.701   3.133   1.015  0.2505  0.2453 -0.0965
  546THF    H1011195   3.883   3.238   0.938 -2.4538  1.0169 -0.8556
  546THF    H1111196   3.837   3.094   0.853 -0.2304  0.8558 -1.9508
  546THF    H1211197   3.690   3.027   1.023  2.4399  1.1538  0.0825
  546THF    H1311198   3.721   3.167   1.106 -3.4444 -0.9696  0.0974
  547THF     O111199   3.379   1.580   1.729 -0.0992 -0.1372 -0.3231
  547THF     C211200   3.498   1.650   1.696 -0.7751 -0.0446  0.7098
  547THF     C311201   3.272   1.637   1.656  0.1013  0.2549 -0.1432
  547THF     H411202   3.541   1.600   1.610 -0.0044  3.2012 -1.2519
  547THF     H511203   3.570   1.642   1.779 -1.4912  3.2676  0.2858
  547THF     H611204   3.228   1.579   1.570  0.6868 -1.5068 -0.3509
  547THF     H711205   3.190   1.642   1.725  1.5449 -0.9693 -1.0748
  547THF     C811206   3.315   1.772   1.607  0.2766  0.7607  0.4938
  547THF     C911207   3.458   1.785   1.663 -0.2332  0.2026 -0.5648
  547THF    H1011208   3.254   1.851   1.642  3.6975  1.7750  2.2162
  547THF    H1111209   3.316   1.771   1.498 -0.3593  1.1130  0.8915
  547THF    H1211210   3.523   1.840   1.592 -2.1636  1.2269  0.7251
  547THF    H1311211   3.456   1.851   1.756 -2.2364  1.6080 -1.5585
  548THF     O111212   3.695   3.781   3.130 -0.5796  0.5764 -0.0054
  548THF     C211213   3.676   3.654   3.191  0.6255  0.0896 -0.5630
  548THF     C311214   3.834   3.796   3.142  0.5166 -0.1485 -0.1094
  548THF     H411215   3.725   3.584   3.123 -0.4264 -1.1329 -0.4285
  548THF     H511216   3.576   3.629   3.205  2.9028  1.5570  0.6978
  548THF     H611217   3.881   3.743   3.061  0.9425 -0.0009  1.0634
  548THF     H711218   3.861   3.903   3.140 -0.4178  0.7783  1.4613
  548THF     C811219   3.879   3.727   3.276 -0.1086 -1.0287  0.7468
  548THF     C911220   3.757   3.649   3.327 -0.2608 -0.1840  0.4165
  548THF    H1011221   3.904   3.807   3.345  1.7954 -0.4647  0.8661
  548THF    H1111222   3.963   3.664   3.254 -2.2332 -1.3266  2.5766
  548THF    H1211223   3.783   3.547   3.362  0.3936 -0.9149  0.0311
  548THF    H1311224   3.709   3.711   3.401  0.5753 -0.5231 -1.1716
  549THF     O111225   5.270   3.026   4.101 -0.8550  0.3688 -0.1193
  549THF     C211226   5.175   2.978   4.006  0.0965  0.4345  0.1701
  549THF     C311227   5.394   3.038   4.029  0.6269 -0.3062  0.0700
  549THF     H411228   5.078   2.997   4.056 -1.4228 -0.7943 -0.5642
  549THF     H511229   5.187   2.869   3.984 -1.0650 -1.1488  1.9598
  549THF     H611230   5.469   3.097   4.087 -0.0119  1.9611  3.2670
  549THF     H711231   5.429   2.941   4.006 -0.2948  0.1314  1.1336
  549THF     C811232   5.350   3.104   3.897  0.4996 -0.6853 -0.1226
  549THF     C911233   5.205   3.056   3.877  0.0125 -0.4234 -0.0362
  549THF    H1011234   5.425   3.090   3.819 -0.3675 -1.2440  0.9811
  549THF    H1111235   5.351   3.211   3.923  0.1929  1.2479 -0.5700
  549THF    H1211236   5.151   3.148   3.849 -2.4694  0.9179 -1.5016
  549THF    H1311237   5.191   2.993   3.786 -1.6790  0.2652 -2.4078
  550THF     O111238   2.758   3.478   4.474 -0.0514 -0.1748 -0.5270
  550THF     C211239   2.644   3.441   4.411  0.2735  0.1393 -0.3862
  550THF     C311240   2.798   3.611   4.435 -0.1562 -0.1105 -0.9771
  550THF     H411241   2.560   3.471   4.466 -1.0198  2.0663 -1.2199
  550THF     H511242   2.639   3.335   4.413 -1.8564 -0.2402 -0.2745
  550THF     H611243   2.738   3.698   4.483  0.4180 -3.0794 -2.2041
  550THF     H711244   2.900   3.624   4.465  0.2931 -0.1259 -1.0949
  550THF     C811245   2.772   3.605   4.284  0.7413 -0.6802 -0.2200
  550THF     C911246   2.643   3.517   4.276 -0.1105 -0.0853  0.5356
  550THF    H1011247   2.854   3.546   4.239  1.3638 -1.6062  2.8996
  550THF    H1111248   2.769   3.704   4.243  2.3361 -0.1020 -1.0846
  550THF    H1211249   2.551   3.577   4.267  0.4651 -1.1873 -1.4397
  550THF    H1311250   2.641   3.456   4.188  1.1447 -0.6228  0.5248
  551THF     O111251   0.510   1.600   0.007 -0.8515 -0.4394  0.4556
  551THF     C211252   0.553   1.563   0.134  0.4336 -0.1982 -0.4967
  551THF     C311253   0.383   1.547  -0.017 -0.7913  0.5579  0.2577
  551THF     H411254   0.507   1.618   0.217 -2.5729  0.3353 -1.8436
  551THF     H511255   0.660   1.579   0.142  1.2030 -1.1948 -0.1965
  551THF     H611256   0.301   1.610   0.007 -1.9604 -1.1835 -1.1277
  551THF     H711257   0.357   1.529  -0.122 -3.6410  0.3401 -2.1063
  551THF     C811258   0.388   1.410   0.057 -0.0698  0.5350 -0.7113
  551THF     C911259   0.518   1.420   0.135  0.3797  0.7142  0.0162
  551THF    H1011260   0.371   1.327  -0.012 -1.2407 -0.4211  0.2032
  551THF    H1111261   0.308   1.400   0.129 -0.4594  2.0477  0.1131
  551THF    H1211262   0.522   1.377   0.236 -0.8397  2.9949  0.5763
  551THF    H1311263   0.578   1.360   0.071  0.3251 -1.8610  2.2893
  552THF     O111264   0.572   0.245   2.570  0.0790  0.2884 -0.3701
  552THF     C211265   0.617   0.355   2.649  0.5176 -0.0453 -0.2097
  552THF     C311266   0.661   0.136   2.600  0.4188  0.0314  0.0348
  552THF     H411267   0.542   0.435   2.666 -1.6048  0.1810  1.4203
  552THF     H511268   0.703   0.404   2.612  0.4015 -3.3936  0.3330
  552THF     H611269   0.606   0.041   2.599  1.8699  1.4531  0.6488
  552THF     H711270   0.737   0.123   2.517  0.0429  1.8040  0.8369
  552THF     C811271   0.727   0.162   2.739 -0.0586  0.3824  0.1727
  552THF     C911272   0.650   0.284   2.784  0.3728 -0.3225  0.2109
  552THF    H1011273   0.830   0.185   2.736  1.5835  3.0529 -0.2491
  552THF    H1111274   0.726   0.077   2.801  1.6485  1.4464  2.2426
  552THF    H1211275   0.555   0.249   2.828 -0.0024 -0.8735 -2.6485
  552THF    H1311276   0.698   0.338   2.870  2.3212 -0.6155  2.1030
  553THF     O111277   5.407   1.462   1.419  0.7289 -0.9643 -0.6193
  553THF     C211278   5.409   1.522   1.291  0.1322  0.0261  0.4686
  553THF     C311279   5.476   1.549   1.505  0.8528  0.1361 -0.0185
  553THF     H411280   5.346   1.614   1.296  1.8144  1.1648 -0.5991
  553THF     H511281   5.372   1.456   1.215 -0.5460 -0.3800 -0.7770
  553THF     H611282   5.410   1.633   1.524 -0.7667  0.5256  0.1308
  553THF     H711283   5.502   1.505   1.605 -0.6968  2.9637  1.4264
  553THF     C811284   5.598   1.585   1.422  0.4176 -0.2140 -0.3693
  553THF     C911285   5.558   1.558   1.277 -0.6559 -0.7521 -0.4804
  553THF    H1011286   5.688   1.517   1.438 -2.0725  1.4504 -1.7301
  553THF    H1111287   5.643   1.687   1.442  0.0877  1.2831 -1.0102
  553THF    H1211288   5.574   1.641   1.215  1.5377 -1.0996 -0.1158
  553THF    H1311289   5.607   1.465   1.246 -0.2866  1.1109  1.7531
  554THF     O111290   1.709   5.376   0.016  0.2936 -0.0681  0.1353
  554THF     C211291   1.568   5.383  -0.011 -0.3898  0.7242 -0.0780
  554THF     C311292   1.721   5.269   0.110 -0.0032  0.1112 -0.2241
  554THF     H411293   1.552   5.457  -0.086 -0.5021 -2.0270 -0.3206
  554THF     H511294   1.498   5.413   0.069 -0.3586  1.7889 -2.5088
  554THF     H611295   1.824   5.243   0.139 -0.2228 -0.8212  1.1898
  554THF     H711296   1.684   5.321   0.200 -1.4088 -0.4581  1.5529
  554THF     C811297   1.641   5.165   0.037 -0.3178  1.3911  0.2921
  554THF     C911298   1.541   5.239  -0.045 -0.6195  0.3796 -0.2975
  554THF    H1011299   1.592   5.088   0.101 -1.9634  1.4402 -1.7215
  554THF    H1111300   1.712   5.102  -0.015  1.0049 -1.6542  0.1466
  554THF    H1211301   1.554   5.223  -0.150  0.2958 -2.3638 -0.1475
  554THF    H1311302   1.446   5.200  -0.019  1.3492 -0.3571 -0.3499
  555THF     O111303   1.842   1.950   1.779 -0.3753 -0.0553  0.2004
  555THF     C211304   1.919   1.945   1.663 -0.0163  0.2834 -0.1030
  555THF     C311305   1.773   2.077   1.784 -0.1802  0.3218 -0.5571
  555THF     H411306   1.910   1.868   1.594  1.1431  0.6703 -1.1016
  555THF     H511307   2.021   1.949   1.703 -0.1504  0.0539  1.0058
  555THF     H611308   1.674   2.080   1.833 -0.6269  0.9802 -1.4067
  555THF     H711309   1.831   2.143   1.843 -1.3806  1.9118  0.9057
  555THF     C811310   1.774   2.130   1.641  0.0783 -1.0315 -0.5516
  555THF     C911311   1.910   2.084   1.595 -0.0242  0.2827 -0.1701
  555THF    H1011312   1.775   2.241   1.632 -0.1024 -0.2714  0.5000
  555THF    H1111313   1.696   2.083   1.578 -1.4397 -1.8022 -0.1216
  555THF    H1211314   1.917   2.073   1.494  3.3256 -1.1517 -0.0287
  555THF    H1311315   1.985   2.158   1.629  2.7052 -2.5571 -2.5859
  556THF     O111316   2.964   4.268   0.024 -0.4912 -0.0970 -0.5363
  556THF     C211317   3.103   4.248   0.003 -0.1587 -0.5728 -0.3697
  556THF     C311318   2.951   4.361   0.130 -0.3281 -0.1797 -0.4534
  556THF     H411319   3.115   4.230  -0.098 -1.0574  0.3517  2.9426
  556THF     H511320   3.144   4.166   0.062  0.7319 -0.4239  1.2564
  556THF     H611321   2.856   4.420   0.141  1.8592 -0.3014 -1.4735
  556THF     H711322   2.942   4.294   0.210  0.7818  0.2462 -3.3268
  556THF     C811323   3.072   4.443   0.138  0.2485 -0.8760  0.8789
  556THF     C911324   3.174   4.369   0.056  0.7966 -0.0950  0.6838
  556THF    H1011325   3.100   4.455   0.241 -0.8135 -2.0859 -0.2401
  556THF    H1111326   3.054   4.538   0.084 -4.0745  0.9336 -0.2827
  556THF    H1211327   3.233   4.426  -0.020  2.2883  1.3578  2.0403
  556THF    H1311328   3.256   4.337   0.117 -4.2105  0.9769 -0.2956
  557THF     O111329   5.354   5.184   3.333 -0.1470 -0.2334 -0.4780
  557THF     C211330   5.266   5.121   3.428  0.4210 -0.8461  0.1766
  557THF     C311331   5.280   5.266   3.244 -0.1325 -0.7227  0.1403
  557THF     H411332   5.248   5.208   3.491  1.3630  0.1288 -0.5489
  557THF     H511333   5.316   5.036   3.486  0.7358 -2.8659  3.4499
  557THF     H611334   5.254   5.369   3.277  0.3080 -0.5790 -3.8116
  557THF     H711335   5.359   5.269   3.156  0.5107  3.0197 -4.5269
  557THF     C811336   5.150   5.178   3.217  0.5260 -0.5042 -0.3202
  557THF     C911337   5.142   5.085   3.344  0.0346  0.7313  0.4615
  557THF    H1011338   5.158   5.120   3.123  0.4536  1.1849  0.3069
  557THF    H1111339   5.060   5.237   3.206  1.0832  1.7928  1.0636
  557THF    H1211340   5.046   5.104   3.388 -1.3109 -1.1504 -2.1615
  557THF    H1311341   5.138   4.983   3.298 -1.1237  0.7354 -0.8235
  558THF     O111342   4.150   3.411   1.034  0.1190  0.0583 -0.0212
  558THF     C211343   4.303   3.417   1.029  0.8684 -0.6568 -0.4044
  558THF     C311344   4.117   3.311   1.126 -0.1916  0.1305  0.2974
  558THF     H411345   4.322   3.515   0.984  0.8659 -0.0628  1.9042
  558THF     H511346   4.339   3.340   0.961  0.1952 -2.5905  0.3790
  558THF     H611347   4.015   3.323   1.169 -0.3085  1.1076 -1.3262
  558THF     H711348   4.121   3.220   1.066  1.3243  2.4897 -1.8037
  558THF     C811349   4.226   3.314   1.233  0.2294 -0.2631 -0.3459
  558THF     C911350   4.343   3.392   1.177  0.8285 -0.7464 -0.0509
  558THF    H1011351   4.246   3.209   1.255  0.8177 -2.0682  0.8309
  558THF    H1111352   4.197   3.357   1.332  0.0586  1.3092  1.2847
  558THF    H1211353   4.356   3.490   1.227 -1.0416 -0.2332  2.9064
  558THF    H1311354   4.441   3.342   1.189  0.5613  2.4669  1.9971
  559THF     O111355   3.774   2.755   2.574  0.4989  0.2864 -0.2841
  559THF     C211356   3.723   2.785   2.442  0.0356 -0.2193 -0.4999
  559THF     C311357   3.680   2.668   2.640 -0.1451 -0.0481  0.3472
  559THF     H411358   3.805   2.830   2.385  1.1695  2.4176 -0.5734
  559THF     H511359   3.636   2.847   2.449  1.6869 -2.9929 -0.1968
  559THF     H611360   3.738   2.614   2.717  1.8205 -2.3391 -2.7398
  559THF     H711361   3.599   2.707   2.690  1.4555  1.3105  0.3459
  559THF     C811362   3.629   2.581   2.522 -0.4044  0.4436  0.4214
  559THF     C911363   3.679   2.647   2.397 -0.0273  0.0921  0.2713
  559THF    H1011364   3.518   2.581   2.534 -0.6930  2.6311  2.7873
  559THF    H1111365   3.651   2.472   2.520 -0.2676  1.3999 -1.9336
  559THF    H1211366   3.768   2.602   2.357  0.9426 -0.5211  0.1996
  559THF    H1311367   3.604   2.657   2.318 -1.8223 -2.8701  4.2429
  560THF     O111368   1.180   1.333   3.087 -0.2019  0.7359  0.2896
  560THF     C211369   1.250   1.455   3.099 -1.1072  0.3870 -0.0621
  560THF     C311370   1.067   1.350   3.168  0.8385  0.4001 -0.2765
  560THF     H411371   1.207   1.524   3.028 -0.0970  1.9937  0.3812
  560THF     H511372   1.349   1.448   3.058  1.6618  1.6917  0.5471
  560THF     H611373   0.977   1.356   3.098 -1.3212 -2.5599 -0.5167
  560THF     H711374   1.053   1.260   3.224  1.8898  0.3143  1.9897
  560THF     C811375   1.084   1.469   3.254  0.2716 -0.4228  0.6350
  560THF     C911376   1.232   1.492   3.245  0.1414 -0.7602 -0.4926
  560THF    H1011377   1.059   1.463   3.359  1.8663  1.5079  0.1373
  560THF    H1111378   1.027   1.563   3.222 -0.8014  1.7540 -0.1462
  560THF    H1211379   1.259   1.600   3.249 -0.1033  1.4818  2.3054
  560THF    H1311380   1.298   1.440   3.313  1.4161 -0.6363  0.7231
  561THF     O111381   2.844   4.603   3.943 -0.1759  0.3580 -0.0113
  561THF     C211382   2.810   4.744   3.975 -0.4900  0.3190  0.2676
  561THF     C311383   2.786   4.566   3.827 -0.5624  0.3270 -0.2256
  561THF     H411384   2.895   4.811   3.970  0.0670 -0.3275 -0.2860
  561THF     H511385   2.774   4.735   4.074  1.9679 -0.9993  0.3960
  561THF     H611386   2.856   4.589   3.747 -1.3972 -0.0119  2.4550
  561THF     H711387   2.765   4.468   3.816  0.9272  1.1984  0.5971
  561THF     C811388   2.651   4.651   3.831  0.0021  1.0491  0.2228
  561THF     C911389   2.704   4.781   3.876 -0.5867 -0.5196  0.2872
  561THF    H1011390   2.576   4.607   3.896  0.7590 -1.7910 -0.1884
  561THF    H1111391   2.611   4.676   3.732  1.0199  3.5701 -0.4942
  561THF    H1211392   2.739   4.829   3.782  1.0526  0.7663  0.6876
  561THF    H1311393   2.646   4.857   3.922 -0.9544  0.7431  0.6881
  562THF     O111394   1.783   2.657   2.727 -0.4846 -0.3209  0.3716
  562THF     C211395   1.722   2.770   2.669 -0.9185 -0.2265 -0.3451
  562THF     C311396   1.686   2.602   2.812 -0.5971  0.1714  0.3233
  562THF     H411397   1.782   2.811   2.589 -1.6384  1.3357  0.6435
  562THF     H511398   1.713   2.858   2.731  1.7625 -0.0096 -1.4938
  562THF     H611399   1.706   2.499   2.838 -1.8920 -0.3672  2.2034
  562THF     H711400   1.679   2.664   2.905 -3.7084 -0.5708 -0.1488
  562THF     C811401   1.554   2.627   2.735 -0.7889 -0.3530 -0.3273
  562THF     C911402   1.592   2.716   2.617  0.5512  0.4414  0.2223
  562THF    H1011403   1.473   2.679   2.799 -2.0144 -0.0214  0.3751
  562THF    H1111404   1.515   2.535   2.699 -0.7926  0.2159  1.2756
  562THF    H1211405   1.615   2.643   2.537  1.1874 -2.8633  0.7897
  562THF    H1311406   1.525   2.799   2.592 -1.4105  1.3980 -1.5737
  563THF     O111407   1.563   4.883   4.929  0.1528 -0.4182  0.8063
  563THF     C211408   1.576   4.774   4.839 -0.0854 -0.0035 -0.4875
  563THF     C311409   1.638   4.990   4.886  0.0653 -0.4589 -0.8133
  563THF     H411410   1.491   4.708   4.852 -0.9702  0.0932  0.4188
  563THF     H511411   1.664   4.716   4.860 -0.4504 -0.4231 -0.2892
  563THF     H611412   1.632   5.081   4.940  0.7092 -1.0874 -0.0391
  563THF     H711413   1.744   4.968   4.888 -0.0150  0.5161 -0.5622
  563THF     C811414   1.602   4.993   4.734  0.3452 -0.0096 -0.3350
  563THF     C911415   1.581   4.845   4.697 -0.4882  0.1184 -0.3365
  563THF    H1011416   1.680   5.041   4.679  0.1564 -1.0647  0.2391
  563THF    H1111417   1.505   5.045   4.713 -1.2343  2.3008  0.8050
  563THF    H1211418   1.481   4.842   4.653  0.0111 -0.7063 -0.1093
  563THF    H1311419   1.660   4.799   4.632  0.8515  1.6243 -0.7176
  564THF     O111420   4.182   0.432   2.147 -0.6229  0.2669 -0.2434
  564THF     C211421   4.193   0.286   2.156 -0.0897  0.5436 -0.2615
  564THF     C311422   4.046   0.461   2.110  0.2129  0.4255  0.0362
  564THF     H411423   4.271   0.263   2.227  2.1704  1.3916 -1.9696
  564THF     H511424   4.219   0.250   2.058 -0.0990  1.4114  0.3380
  564THF     H611425   4.024   0.554   2.164 -2.4373 -1.1863  1.5912
  564THF     H711426   4.046   0.473   2.001  1.0520  2.5085 -2.6081
  564THF     C811427   3.962   0.351   2.178  1.3845 -0.7182  0.1954
  564THF     C911428   4.054   0.236   2.205 -1.1998 -0.5950 -0.0909
  564THF    H1011429   3.886   0.325   2.108  0.6196 -2.8035  0.9421
  564THF    H1111430   3.905   0.391   2.267  1.3197  0.6759 -1.8346
  564THF    H1211431   4.053   0.211   2.314  1.6350 -0.8255 -2.1959
  564THF    H1311432   4.027   0.144   2.144 -3.0833 -0.8226 -1.0344
  565THF     O111433   5.433   5.095   3.829  0.1118 -0.5217 -0.0147
  565THF     C211434   5.398   4.970   3.772  0.3083  0.3296  0.7009
  565THF     C311435   5.545   5.083   3.903  0.1171 -0.4996  0.6974
  565THF     H411436   5.467   4.960   3.684 -0.2814  0.4272 -0.9392
  565THF     H511437   5.297   4.960   3.749  0.3394  2.2157 -0.7858
  565THF     H611438   5.630   5.058   3.839  1.1600 -1.1572 -0.4268
  565THF     H711439   5.581   5.174   3.959  2.0090  0.8958 -0.1988
  565THF     C811440   5.532   4.953   3.984  0.1085  0.9890  0.0309
  565THF     C911441   5.443   4.874   3.889 -0.6266  0.3787  0.8243
  565THF    H1011442   5.478   4.974   4.075 -1.8368  0.3639  1.6760
  565THF    H1111443   5.631   4.919   4.008  0.9560  0.4464  1.1872
  565THF    H1211444   5.502   4.785   3.861  1.5224 -1.1078  0.7990
  565THF    H1311445   5.353   4.836   3.936 -0.3608  1.0118  1.5237
  566THF     O111446   2.190   2.500   1.113  0.0662  0.3396 -0.4876
  566THF     C211447   2.308   2.550   1.165 -0.0709  0.0274  0.3070
  566THF     C311448   2.192   2.510   0.976  0.1944 -0.1210  0.1818
  566THF     H411449   2.331   2.515   1.267 -2.7684  0.4245 -1.4510
  566THF     H511450   2.300   2.659   1.160  1.6127 -0.5261  2.2288
  566THF     H611451   2.112   2.454   0.944  2.8402  0.5784  1.2100
  566THF     H711452   2.177   2.612   0.945 -1.6613  0.1212  0.7614
  566THF     C811453   2.330   2.455   0.941 -1.1944  0.1282 -0.4719
  566THF     C911454   2.410   2.488   1.072  0.3817 -0.6319 -0.4628
  566THF    H1011455   2.367   2.504   0.847  0.1045 -2.3733 -2.4589
  566THF    H1111456   2.318   2.347   0.920 -3.9371 -0.5992  0.3295
  566THF    H1211457   2.472   2.405   1.108  0.5771 -1.2542  0.8578
  566THF    H1311458   2.482   2.566   1.049 -0.4520 -0.0079 -0.4305
  567THF     O111459   3.098   2.841   0.065  0.7787  0.3568 -0.3029
  567THF     C211460   3.104   2.711   0.003  0.6943 -0.9163 -0.2397
  567THF     C311461   3.050   2.944  -0.024 -0.4996  0.7299  0.4264
  567THF     H411462   3.064   2.628   0.059 -0.6244 -0.6225 -0.7371
  567THF     H511463   3.203   2.694  -0.040  0.2332 -0.2349  1.0653
  567THF     H611464   2.952   2.983   0.013  1.3543 -0.0877  0.6800
  567THF     H711465   3.131   3.016  -0.040 -0.1590 -1.1263 -2.7844
  567THF     C811466   3.048   2.871  -0.160  0.4289 -0.0439  0.3744
  567THF     C911467   3.012   2.731  -0.115  0.5808 -0.5986 -0.7921
  567THF    H1011468   3.152   2.879  -0.202 -0.8805  0.0558  0.4849
  567THF    H1111469   2.983   2.909  -0.236  1.3506  0.3533 -0.2807
  567THF    H1211470   2.908   2.731  -0.083 -2.2400  2.2232 -0.3880
  567THF    H1311471   3.029   2.659  -0.199  1.8910 -0.4381  1.5116
  568THF     O111472   2.838   1.269   1.679  0.1093 -0.3191  0.6048
  568THF     C211473   2.825   1.379   1.594  0.7612 -0.4947  0.0620
  568THF     C311474   2.960   1.271   1.746  0.2457 -0.4123 -0.1697
  568THF     H411475   2.738   1.439   1.601  0.3865  5.0854 -0.0508
  568THF     H511476   2.829   1.359   1.487 -1.1538 -0.1334  1.6050
  568THF     H611477   2.945   1.279   1.856  2.4456 -0.4860  0.2211
  568THF     H711478   3.012   1.176   1.731 -3.7493  0.0218  0.7691
  568THF     C811479   3.041   1.378   1.689  0.5445 -0.5824  0.1772
  568THF     C911480   2.937   1.475   1.636  0.3413 -0.2009 -0.1719
  568THF    H1011481   3.103   1.336   1.615 -1.6022 -2.2577  0.3293
  568THF    H1111482   3.101   1.417   1.773  1.7454 -1.5611  2.3357
  568THF    H1211483   2.900   1.532   1.725 -3.1711  1.0586 -3.6300
  568THF    H1311484   2.978   1.543   1.571  1.4631 -0.3913  0.5830
  569THF     O111485   1.199   1.901   4.930 -0.3709  0.0808 -0.3609
  569THF     C211486   1.203   1.925   4.781 -0.8311 -0.3643  0.3898
  569THF     C311487   1.169   1.764   4.956 -0.1356 -0.0761 -0.2437
  569THF     H411488   1.283   1.983   4.742 -0.0366 -3.1272 -5.1115
  569THF     H511489   1.107   1.976   4.762 -0.4041  1.0505  1.9014
  569THF     H611490   1.251   1.701   4.978  1.7302  1.5393  0.0352
  569THF     H711491   1.108   1.759   5.046  1.2983  1.2400  1.6118
  569THF     C811492   1.098   1.722   4.822 -0.0637  0.1994  0.1462
  569THF     C911493   1.183   1.790   4.718 -0.2003  0.2724  0.3202
  569THF    H1011494   0.996   1.750   4.831 -0.5421 -2.4160  1.9397
  569THF    H1111495   1.119   1.622   4.786  0.8671  1.8182 -1.4004
  569THF    H1211496   1.277   1.734   4.701  0.1907  0.8955  1.4954
  569THF    H1311497   1.123   1.809   4.628  0.9820 -0.8154  0.2348
  570THF     O111498   1.882   4.961   3.523 -0.4853 -0.0235  0.4530
  570THF     C211499   1.759   4.872   3.528 -0.2665 -0.0684 -0.0827
  570THF     C311500   1.896   5.017   3.399 -0.1761 -0.1947  0.2327
  570THF     H411501   1.717   4.874   3.630  2.3803  1.9089  0.0100
  570THF     H511502   1.780   4.769   3.489 -2.7049 -0.6475 -2.1728
  570THF     H611503   1.958   5.105   3.409 -1.6459 -1.8269 -2.0749
  570THF     H711504   1.935   4.943   3.323 -0.2010 -0.6868  2.1978
  570THF     C811505   1.755   5.052   3.366 -0.3321 -0.8874 -0.2964
  570THF     C911506   1.664   4.952   3.429  1.0607 -0.6603 -0.6083
  570THF    H1011507   1.755   5.048   3.257  0.0594 -0.1256  0.9641
  570THF    H1111508   1.724   5.152   3.378  0.7688 -0.7648 -0.7545
  570THF    H1211509   1.573   5.002   3.472 -0.2051 -2.4474  2.5449
  570THF    H1311510   1.636   4.876   3.358  1.5781  0.2254  0.7288
  571THF     O111511   2.552   2.400   1.364 -0.0354  0.1207  0.5280
  571THF     C211512   2.532   2.459   1.491 -0.2406 -0.2246  0.5325
  571THF     C311513   2.692   2.348   1.360 -0.8000  0.1306 -0.2467
  571THF     H411514   2.459   2.403   1.554 -0.3398  1.3853  3.3028
  571THF     H511515   2.500   2.561   1.483 -0.8637  0.0806  2.4020
  571THF     H611516   2.693   2.237   1.374  0.9424 -1.2245  0.7340
  571THF     H711517   2.736   2.366   1.269  0.7388 -1.8954 -1.5527
  571THF     C811518   2.767   2.427   1.467  0.1256 -0.7909 -0.3882
  571THF     C911519   2.661   2.442   1.574  0.7411  0.9216  0.1969
  571THF    H1011520   2.795   2.525   1.436 -0.8865 -1.4618 -0.1246
  571THF    H1111521   2.855   2.363   1.489  0.6782 -0.2538 -0.4798
  571THF    H1211522   2.667   2.357   1.638  0.5148  0.9979 -2.0821
  571THF    H1311523   2.672   2.537   1.637 -1.6963  3.5302 -0.5598
  572THF     O111524   3.880   1.303   0.423  0.0964 -0.0810  0.2751
  572THF     C211525   4.020   1.308   0.392 -0.1119  0.3651 -0.2252
  572THF     C311526   3.866   1.323   0.566 -0.4042  0.1872 -0.1261
  572THF     H411527   4.030   1.391   0.322  0.2841 -0.9880 -0.3494
  572THF     H511528   4.061   1.220   0.344  0.1559  2.2418  0.5234
  572THF     H611529   3.773   1.381   0.590 -1.7334 -2.1663  1.8879
  572THF     H711530   3.852   1.226   0.611 -1.4211 -3.3852 -1.2359
  572THF     C811531   3.991   1.405   0.603  0.0701 -0.3224  0.5927
  572THF     C911532   4.095   1.333   0.522 -0.0320 -0.1840  0.3224
  572THF    H1011533   4.012   1.414   0.714  0.1131  1.0127  0.6228
  572THF    H1111534   3.983   1.504   0.571  1.9975 -2.4096  0.9642
  572THF    H1211535   4.170   1.408   0.502 -0.0766  0.8013 -0.8942
  572THF    H1311536   4.137   1.237   0.559  1.8955  0.7628 -3.5751
  573THF     O111537   4.142   3.070   2.188  0.0932 -0.3038  0.1325
  573THF     C211538   4.189   3.110   2.062  1.2034  0.2120  0.4508
  573THF     C311539   4.028   2.990   2.170  0.6993  0.1619 -0.4417
  573THF     H411540   4.288   3.154   2.062  1.0891 -0.9560 -1.0584
  573THF     H511541   4.117   3.187   2.038  1.6592  1.0920 -1.1733
  573THF     H611542   3.994   2.941   2.265  0.7127  0.6141  3.8216
  573THF     H711543   3.944   3.054   2.128 -0.3306  1.5616  0.0047
  573THF     C811544   4.076   2.898   2.061  0.0549  0.5914 -1.1147
  573THF     C911545   4.164   2.985   1.971 -0.3519 -0.0433  0.0306
  573THF    H1011546   3.996   2.861   1.998 -2.2520  0.7784  1.4076
  573THF    H1111547   4.129   2.818   2.111 -1.8511  1.7513 -1.0724
  573THF    H1211548   4.257   2.929   1.951 -2.5894  0.6952  0.0175
  573THF    H1311549   4.124   3.008   1.873 -1.5562 -0.5478  0.4770
  574THF     O111550   0.082   1.729   4.323 -0.3122  0.5126  0.1901
  574THF     C211551   0.131   1.596   4.351 -0.8966  0.2070  0.0168
  574THF     C311552   0.142   1.758   4.198  0.2470 -0.6481 -0.5295
  574THF     H411553   0.073   1.521   4.299  1.3837 -1.1364 -0.4220
  574THF     H511554   0.141   1.578   4.455  0.0192 -2.0546 -0.9547
  574THF     H611555   0.074   1.726   4.120  0.0720 -1.8559  2.5417
  574THF     H711556   0.128   1.861   4.194  1.2994  1.0554 -1.8040
  574THF     C811557   0.283   1.696   4.193  0.0759 -0.6527 -0.1258
  574THF     C911558   0.270   1.581   4.295 -0.4749 -0.0258  0.1879
  574THF    H1011559   0.357   1.776   4.227  2.2004  3.1489  0.5661
  574THF    H1111560   0.310   1.652   4.100  0.0718 -0.0593  0.6393
  574THF    H1211561   0.285   1.486   4.242  0.5943  1.9809 -0.3218
  574THF    H1311562   0.350   1.592   4.367 -1.6667  0.5403  2.7781
  575THF     O111563   1.720   4.766   1.851 -0.0060 -0.4528 -0.5958
  575THF     C211564   1.748   4.727   1.987 -0.2009 -0.4907  0.3517
  575THF     C311565   1.837   4.792   1.785 -0.4328 -0.6217  0.2680
  575THF     H411566   1.773   4.619   1.980 -0.1789 -2.1979 -1.4554
  575THF     H511567   1.655   4.745   2.043  2.4016 -0.7863 -1.0116
  575THF     H611568   1.896   4.700   1.776 -1.5447  2.0006  1.2493
  575THF     H711569   1.816   4.846   1.687 -2.8148  2.9333  0.5598
  575THF     C811570   1.910   4.886   1.888 -0.1305 -0.2382  0.5117
  575THF     C911571   1.868   4.821   2.021 -0.2794 -0.0149  0.8635
  575THF    H1011572   1.890   4.991   1.882  2.6706 -1.0779  0.4675
  575THF    H1111573   2.013   4.886   1.879 -0.1862 -0.9483  3.6588
  575THF    H1211574   1.953   4.758   2.057 -1.3783 -2.7893  0.5831
  575THF    H1311575   1.834   4.895   2.098  0.1602  0.4898 -0.3509
  576THF     O111576   3.595   4.579   3.823 -0.7867 -0.0989  0.2426
  576THF     C211577   3.557   4.450   3.778 -0.2222  0.7093  0.0729
  576THF     C311578   3.733   4.583   3.817  0.0691 -0.6740 -0.8634
  576THF     H411579   3.553   4.451   3.673 -0.6444  2.3153  2.5189
  576THF     H511580   3.456   4.426   3.814 -0.2250 -0.0255  0.6649
  576THF     H611581   3.775   4.607   3.717  0.9941 -0.5652  1.0898
  576THF     H711582   3.778   4.668   3.874 -1.8103 -0.1898 -1.5154
  576THF     C811583   3.779   4.442   3.856 -0.5386  0.0484 -0.2971
  576THF     C911584   3.660   4.352   3.826  1.0143  0.6000  0.3994
  576THF    H1011585   3.795   4.444   3.964 -1.3370  0.8741 -1.9676
  576THF    H1111586   3.874   4.408   3.801  0.2420 -1.8752  0.6308
  576THF    H1211587   3.672   4.266   3.762  2.5209  1.1926  0.1161
  576THF    H1311588   3.643   4.303   3.919 -1.1770  2.1739 -0.3483
  577THF     O111589   5.365   0.768   4.984 -0.0512 -0.0405  0.6494
  577THF     C211590   5.412   0.693   5.099 -0.0744  0.3806  0.3260
  577THF     C311591   5.292   0.884   5.044  0.5611 -0.6520  0.2347
  577THF     H411592   5.496   0.741   5.148  3.7931  0.4304  3.2953
  577THF     H511593   5.452   0.595   5.078 -2.3533 -1.5222 -0.4552
  577THF     H611594   5.371   0.953   5.076 -1.2530 -0.4975 -0.8994
  577THF     H711595   5.229   0.937   4.976  1.1566  1.0642  0.1736
  577THF     C811596   5.215   0.821   5.162  1.1669  0.0960  0.0448
  577THF     C911597   5.296   0.698   5.197 -0.7781  0.4029 -0.0432
  577THF    H1011598   5.111   0.791   5.136  0.6453  0.9155 -2.4261
  577THF    H1111599   5.185   0.890   5.235 -1.8117  1.5448  0.3220
  577THF    H1211600   5.350   0.733   5.285  1.7060  0.5880 -1.5768
  577THF    H1311601   5.252   0.598   5.222 -0.5747  1.8557 -2.1043
  578THF     O111602   1.932   4.343   4.054  0.2229  0.6886  1.0675
  578THF     C211603   1.826   4.255   4.054  0.3188  1.3389 -0.4591
  578THF     C311604   1.891   4.450   4.149 -0.9005 -0.0395  0.2935
  578THF     H411605   1.831   4.178   4.138 -2.2720  0.4203 -1.2668
  578THF     H511606   1.829   4.188   3.961  3.4250  1.9608  0.4278
  578THF     H611607   1.916   4.414   4.247 -0.8894  0.0650  1.2135
  578THF     H711608   1.940   4.544   4.119 -2.5199  0.6810 -1.4322
  578THF     C811609   1.737   4.466   4.133 -1.1047 -0.2750 -0.0886
  578THF     C911610   1.701   4.347   4.056 -0.0093  0.0089 -0.0198
  578THF    H1011611   1.706   4.557   4.080 -0.0378 -1.0078 -0.4472
  578THF    H1111612   1.701   4.476   4.234  0.2904 -3.3447 -0.6831
  578THF    H1211613   1.609   4.298   4.096  0.3150  0.6019  0.9745
  578THF    H1311614   1.698   4.385   3.956  1.2977  1.2149  0.6139
  579THF     O111615   5.038   1.296   0.338  0.2291  0.1325  0.4436
  579THF     C211616   5.097   1.300   0.465 -0.3561 -0.1762  0.0060
  579THF     C311617   4.912   1.238   0.358  0.4467 -0.2370 -0.7283
  579THF     H411618   5.061   1.387   0.533  1.2742  4.2829 -3.0580
  579THF     H511619   5.210   1.307   0.452  1.0958 -0.0706  0.0045
  579THF     H611620   4.854   1.319   0.397 -1.1666  0.5932 -1.0398
  579THF     H711621   4.861   1.188   0.275  1.3741  0.2719  2.1879
  579THF     C811622   4.921   1.142   0.478  0.0386 -0.5751 -0.1836
  579THF     C911623   5.063   1.165   0.528 -0.0731 -0.1179  0.6623
  579THF    H1011624   4.917   1.042   0.446 -0.5769 -0.6038  0.9360
  579THF    H1111625   4.849   1.161   0.558 -0.7920 -0.3281 -0.9523
  579THF    H1211626   5.065   1.183   0.636 -0.4739  0.7967 -1.1122
  579THF    H1311627   5.127   1.085   0.500 -1.2492 -0.5383  1.9546
  580THF     O111628   1.658   3.709   5.452  0.0738  0.1695  0.5752
  580THF     C211629   1.593   3.588   5.414 -0.7225 -0.2360  0.0188
  580THF     C311630   1.565   3.812   5.422  0.1936 -0.4702  0.2588
  580THF     H411631   1.649   3.498   5.440 -2.3272  0.1614  2.4252
  580THF     H511632   1.568   3.583   5.307 -3.5302 -0.1623 -0.9309
  580THF     H611633   1.596   3.905   5.459 -1.0864 -1.0739 -0.2928
  580THF     H711634   1.548   3.815   5.310 -0.0722 -2.3511 -0.4798
  580THF     C811635   1.430   3.755   5.475 -0.4878  0.0013 -0.4128
  580THF     C911636   1.465   3.608   5.493 -0.5951 -0.6941  0.2494
  580THF    H1011637   1.345   3.775   5.413 -2.0034  0.6381 -2.0289
  580THF    H1111638   1.400   3.795   5.569  0.3954  1.9013  1.0478
  580THF    H1211639   1.481   3.591   5.607  1.3008 -0.1232  2.8798
  580THF    H1311640   1.400   3.537   5.459  0.0014 -2.3018  0.2266
  581THF     O111641   4.726   3.658   1.491 -0.4209 -0.1542  0.4765
  581THF     C211642   4.773   3.555   1.403 -0.1849  0.5793  0.2371
  581THF     C311643   4.770   3.628   1.620  0.9232  0.0601  0.2065
  581THF     H411644   4.771   3.588   1.296  0.2194 -1.2400 -0.9188
  581THF     H511645   4.707   3.468   1.417  1.0097 -2.7592 -0.8088
  581THF     H611646   4.775   3.716   1.686 -0.5610 -1.1240 -0.7796
  581THF     H711647   4.710   3.554   1.667 -1.0242  3.2535 -1.8153
  581THF     C811648   4.905   3.563   1.600 -0.8695  0.3000 -0.1570
  581THF     C911649   4.914   3.528   1.441  0.2189  0.0808  0.4971
  581THF    H1011650   4.900   3.465   1.653  1.7831 -0.8800 -2.2903
  581THF    H1111651   4.996   3.615   1.640 -0.8715  1.7456  1.3461
  581THF    H1211652   4.983   3.613   1.407  4.4652 -1.2536  0.2169
  581THF    H1311653   4.954   3.436   1.414  1.8748 -1.0582 -1.4147
  582THF     O111654   4.886   1.024   5.173 -0.1190 -0.1647  0.2283
  582THF     C211655   4.771   0.947   5.134  0.1514 -0.6033 -0.1833
  582THF     C311656   4.953   1.069   5.052  0.4962  0.6796 -0.5681
  582THF     H411657   4.692   0.919   5.207 -1.3559  1.0528 -1.2578
  582THF     H511658   4.803   0.857   5.080 -0.5260 -0.0958  0.8053
  582THF     H611659   5.023   1.148   5.075  1.0921 -1.3808  1.9388
  582THF     H711660   5.004   0.979   5.020  0.0036  0.1010 -0.8811
  582THF     C811661   4.834   1.111   4.961  0.1918  0.0260  0.4556
  582THF     C911662   4.715   1.039   5.029 -0.2510 -0.5774  0.1289
  582THF    H1011663   4.844   1.075   4.857  0.8592  2.0543 -0.3245
  582THF    H1111664   4.822   1.217   4.965 -1.3473 -0.9240 -3.1641
  582THF    H1211665   4.638   1.107   5.062 -2.2986 -0.5281  2.1609
  582THF    H1311666   4.666   0.969   4.959 -1.2981  0.1838 -2.6959
  583THF     O111667   0.770   4.989   2.662 -0.1140  0.4968  0.6950
  583THF     C211668   0.713   5.107   2.611 -0.4419 -0.8001 -0.1547
  583THF     C311669   0.906   5.007   2.667 -0.1909 -0.6419  0.4706
  583THF     H411670   0.643   5.150   2.685 -1.6077  0.6170 -1.8423
  583THF     H511671   0.667   5.097   2.514  0.4392  0.0783 -0.3891
  583THF     H611672   0.925   5.039   2.767 -3.0302  0.0412 -1.5288
  583THF     H711673   0.966   4.912   2.642  0.1928 -0.5638  0.6484
  583THF     C811674   0.948   5.108   2.565  0.1469  0.0083  0.2131
  583THF     C911675   0.832   5.201   2.590 -0.0384 -0.2876 -0.8206
  583THF    H1011676   0.943   5.053   2.467 -0.7324  0.1081  0.5103
  583THF    H1111677   1.044   5.152   2.584 -2.3074  0.0176 -1.1426
  583THF    H1211678   0.857   5.263   2.668 -0.5366 -1.2988 -3.9135
  583THF    H1311679   0.827   5.286   2.521 -1.1498  0.8320  1.3025
  584THF     O111680   1.667   1.719   4.437  0.5514 -0.1211  0.3401
  584THF     C211681   1.643   1.718   4.574  0.6490  0.5363  0.1654
  584THF     C311682   1.539   1.721   4.375  0.0636 -0.2940 -0.2567
  584THF     H411683   1.738   1.755   4.614  1.3566  1.3463  1.3894
  584THF     H511684   1.620   1.622   4.626  0.8604  2.7720  1.2266
  584THF     H611685   1.532   1.737   4.265 -2.2352  0.2833 -1.5867
  584THF     H711686   1.494   1.627   4.389 -1.4117  1.0800  1.6729
  584THF     C811687   1.462   1.824   4.456 -0.0676  0.3275 -0.1793
  584THF     C911688   1.533   1.827   4.595 -0.9096 -0.4759 -0.2055
  584THF    H1011689   1.355   1.796   4.470  1.2096 -2.4498  0.3388
  584THF    H1111690   1.485   1.923   4.412 -0.3461 -1.5246  0.0795
  584THF    H1211691   1.584   1.922   4.610 -2.1950 -1.7330 -0.6144
  584THF    H1311692   1.469   1.801   4.680  0.6809 -2.2256 -0.3335
  585THF     O111693   5.309   2.500   5.154 -0.1482  0.5005  0.2802
  585THF     C211694   5.255   2.384   5.097 -0.1462 -0.9834 -0.2779
  585THF     C311695   5.242   2.510   5.277 -0.0181  0.6919 -0.5105
  585THF     H411696   5.332   2.333   5.037 -0.4443 -2.7715 -1.9800
  585THF     H511697   5.172   2.411   5.029 -0.9280 -0.9284  1.0571
  585THF     H611698   5.295   2.570   5.352 -1.2059 -2.3590 -0.8914
  585THF     H711699   5.144   2.550   5.260  1.6290 -0.2979  2.1144
  585THF     C811700   5.234   2.364   5.326  0.0024 -0.9988 -0.0948
  585THF     C911701   5.221   2.284   5.204  0.7814 -0.0645 -0.4589
  585THF    H1011702   5.151   2.349   5.394  0.0548  0.0464  1.4313
  585THF    H1111703   5.332   2.342   5.368 -0.4717  0.2422 -0.2175
  585THF    H1211704   5.287   2.203   5.198  1.3983 -0.0447 -0.3755
  585THF    H1311705   5.110   2.256   5.196  0.9565 -2.7230  1.3588
  586THF     O111706   1.036   3.630   2.089  0.5828 -0.1283 -0.6269
  586THF     C211707   0.993   3.610   2.222  0.2592  0.1196 -0.1428
  586THF     C311708   0.936   3.639   1.990 -0.0595  0.9430  0.3858
  586THF     H411709   0.993   3.700   2.287  0.0263 -0.2838 -2.4246
  586THF     H511710   1.052   3.534   2.263  0.3207 -0.1529  0.2651
  586THF     H611711   0.926   3.743   1.954  0.2622  0.9778 -0.3946
  586THF     H711712   0.958   3.581   1.903 -2.9462 -1.5488 -0.7785
  586THF     C811713   0.810   3.594   2.059 -0.1507 -0.2389  0.1700
  586THF     C911714   0.851   3.559   2.198  0.3020 -0.3293 -0.0246
  586THF    H1011715   0.763   3.506   2.010  3.9513  1.7008 -0.4264
  586THF    H1111716   0.734   3.670   2.058 -2.3210 -1.9244  0.6834
  586THF    H1211717   0.789   3.606   2.274  0.0533 -1.1293  0.4773
  586THF    H1311718   0.854   3.449   2.220 -0.7407  0.6534  2.0056
  587THF     O111719   0.543   2.399   5.491 -0.5471 -0.1973 -0.5434
  587THF     C211720   0.495   2.410   5.363  0.3505 -0.2392 -0.3021
  587THF     C311721   0.610   2.521   5.528  0.4126 -0.4789 -0.0899
  587THF     H411722   0.409   2.475   5.365 -0.9301  1.1749  3.3497
  587THF     H511723   0.472   2.306   5.345  1.5609 -3.2542 -1.1653
  587THF     H611724   0.549   2.602   5.546  1.6702 -0.3691  0.0705
  587THF     H711725   0.656   2.501   5.621  1.8224  2.8257 -0.5461
  587THF     C811726   0.693   2.533   5.404 -0.0487 -0.2129  0.4045
  587THF     C911727   0.617   2.456   5.292  0.5799  0.4540  0.1562
  587THF    H1011728   0.779   2.472   5.424 -0.7075 -3.2795  3.0163
  587THF    H1111729   0.730   2.638   5.394  0.5922 -1.5699  1.2274
  587THF    H1211730   0.606   2.520   5.208 -0.6350 -3.9785 -0.7846
  587THF    H1311731   0.675   2.367   5.277  0.6121  2.3564  1.4831
  588THF     O111732   3.674   4.185   0.012  0.2294  0.4212  0.2718
  588THF     C211733   3.739   4.194  -0.112  0.1075 -0.6266 -0.3870
  588THF     C311734   3.591   4.295   0.022 -0.0943  0.1796 -0.3465
  588THF     H411735   3.766   4.096  -0.132  1.9809  0.1942 -3.7441
  588THF     H511736   3.823   4.257  -0.104 -1.0740  1.5324 -0.1691
  588THF     H611737   3.503   4.271   0.073 -0.4052  1.8219 -1.0358
  588THF     H711738   3.640   4.377   0.083  0.0092  2.4726  0.4663
  588THF     C811739   3.551   4.340  -0.122 -0.2715  0.1045  0.1648
  588THF     C911740   3.634   4.252  -0.212 -0.0626 -0.0583 -0.5799
  588THF    H1011741   3.592   4.445  -0.131 -0.1151  1.2531 -1.7053
  588THF    H1111742   3.440   4.341  -0.141 -0.0911 -0.0472 -0.9323
  588THF    H1211743   3.572   4.171  -0.256 -0.1320  0.2754 -1.0606
  588THF    H1311744   3.676   4.309  -0.298  0.2287  0.6816 -0.7967
  589THF     O111745   3.849   2.295   0.693 -0.7509  0.2509  0.6549
  589THF     C211746   3.983   2.311   0.740 -0.2492 -0.2046  0.0557
  589THF     C311747   3.811   2.161   0.744  0.4457  0.0121  0.9890
  589THF     H411748   3.988   2.365   0.833  2.3935 -1.6140  2.0752
  589THF     H511749   4.023   2.382   0.672  1.4251  0.6406  0.6372
  589THF     H611750   3.792   2.152   0.850 -0.9232  0.8534  0.1839
  589THF     H711751   3.722   2.123   0.687  2.1296 -1.2199 -5.0719
  589THF     C811752   3.930   2.083   0.707 -0.0397 -0.2690 -0.2897
  589THF     C911753   4.053   2.179   0.740 -0.1412  0.4763 -0.9180
  589THF    H1011754   3.922   2.059   0.602 -0.8924 -1.9389 -1.4111
  589THF    H1111755   3.927   1.987   0.754  2.5911  1.2835 -0.3718
  589THF    H1211756   4.092   2.160   0.840  0.0974 -1.9042 -0.0375
  589THF    H1311757   4.134   2.173   0.672 -4.6289 -1.4533  1.8900
  590THF     O111758   4.762   4.126   0.052 -0.5617 -0.5458 -0.6524
  590THF     C211759   4.670   4.235   0.073 -0.2165 -0.4123  0.2011
  590THF     C311760   4.796   4.070   0.184  0.5271 -0.0852 -0.2646
  590THF     H411761   4.566   4.213   0.071 -0.3141 -0.4344 -0.0198
  590THF     H511762   4.674   4.311   0.004 -0.3991 -1.1418  0.5472
  590THF     H611763   4.736   3.985   0.203 -1.2864  0.3493 -1.5842
  590THF     H711764   4.900   4.035   0.195  1.4571 -3.2474 -1.6630
  590THF     C811765   4.763   4.175   0.287 -0.5681  0.1856 -0.5810
  590THF     C911766   4.718   4.294   0.202  0.0811  0.5530  0.6753
  590THF    H1011767   4.855   4.199   0.352  2.3785  0.6318 -2.8856
  590THF    H1111768   4.694   4.141   0.364  0.0255  0.0235  0.7509
  590THF    H1211769   4.648   4.360   0.245 -1.2721  0.5576 -2.2629
  590THF    H1311770   4.806   4.353   0.181 -2.3749  0.2971  0.5194
  591THF     O111771   3.330   2.942   3.910 -0.6685  0.5177  0.2376
  591THF     C211772   3.360   2.857   4.020  0.0692 -1.0704 -0.2247
  591THF     C311773   3.218   3.014   3.933 -0.5246 -0.1345  0.6073
  591THF     H411774   3.468   2.840   4.031 -0.1084  1.4970 -2.6867
  591THF     H511775   3.318   2.759   4.011  5.2424  3.7135 -0.6330
  591THF     H611776   3.230   3.101   3.862  0.4020 -0.5916 -1.4979
  591THF     H711777   3.130   2.954   3.900  1.1267 -0.1741 -1.4683
  591THF     C811778   3.238   3.052   4.079  0.3806 -0.0330  0.6409
  591THF     C911779   3.300   2.925   4.140  0.0275  0.2766 -0.0665
  591THF    H1011780   3.152   3.096   4.122  1.1087 -1.2796  1.8227
  591THF    H1111781   3.302   3.139   4.076 -0.3777 -2.7596  0.4463
  591THF    H1211782   3.377   2.966   4.211 -1.0607 -0.9339  0.1511
  591THF    H1311783   3.227   2.868   4.193  0.0457 -0.4472  0.0141
  592THF     O111784   5.335   1.938   2.322 -0.5272 -0.5044  0.0878
  592THF     C211785   5.441   2.027   2.306  0.5735 -0.5099  0.5384
  592THF     C311786   5.307   1.880   2.197 -0.3264 -0.3706  0.1112
  592THF     H411787   5.535   1.979   2.330  2.5656  1.8693 -1.6968
  592THF     H511788   5.414   2.097   2.383  1.2143 -1.4597 -0.3511
  592THF     H611789   5.327   1.777   2.201 -0.1868  2.8717 -0.6858
  592THF     H711790   5.200   1.895   2.175  1.3732 -0.9715  0.7094
  592THF     C811791   5.393   1.950   2.090  0.0982  0.2320 -0.0516
  592THF     C911792   5.439   2.077   2.161 -0.4243 -0.1144 -0.1888
  592THF    H1011793   5.349   1.981   1.996 -0.9718 -0.0860  2.7719
  592THF    H1111794   5.489   1.904   2.074 -0.2742  0.8357  0.9192
  592THF    H1211795   5.541   2.109   2.126  0.9225 -0.3994  0.2000
  592THF    H1311796   5.374   2.158   2.137  0.9025  1.3702  0.7408
  593THF     O111797   0.983   4.286   1.610 -0.0537 -0.0183 -0.3378
  593THF     C211798   0.866   4.217   1.559  0.0555  0.9296 -0.4448
  593THF     C311799   1.091   4.273   1.517 -0.1539 -0.1460 -1.1498
  593THF     H411800   0.774   4.267   1.587 -0.9239  0.4018  2.5393
  593THF     H511801   0.869   4.117   1.600  1.0108  0.0527  2.4943
  593THF     H611802   1.165   4.352   1.542 -0.0100 -1.6812  1.3900
  593THF     H711803   1.136   4.175   1.522 -1.4411 -1.7429 -0.8282
  593THF     C811804   1.012   4.282   1.385 -0.9136 -0.0260  0.2391
  593THF     C911805   0.890   4.201   1.403 -0.2737 -0.1243 -0.6308
  593THF    H1011806   1.066   4.237   1.301  1.7990 -0.7551  0.5782
  593THF    H1111807   0.989   4.383   1.355 -0.3259 -2.3571  1.7950
  593THF    H1211808   0.803   4.236   1.350 -0.7583  3.8763  0.0260
  593THF    H1311809   0.916   4.099   1.386 -2.0043  1.9889 -2.0185
  594THF     O111810   5.100   5.078   3.681  0.4427 -0.0553 -0.9804
  594THF     C211811   5.091   5.211   3.730 -0.1628  0.1339  0.5964
  594THF     C311812   4.971   5.018   3.704 -0.0829 -0.2778  0.2029
  594THF     H411813   5.131   5.282   3.658 -1.3691 -2.1530 -1.5281
  594THF     H511814   5.161   5.211   3.806 -0.3492 -0.2095 -2.5074
  594THF     H611815   4.896   5.043   3.629 -0.7222 -2.9401  3.5380
  594THF     H711816   4.980   4.913   3.701  0.2738  0.7178  1.2833
  594THF     C811817   4.911   5.090   3.827 -0.5290  0.0677 -0.4740
  594THF     C911818   4.949   5.234   3.797 -0.1097 -0.4902 -0.3804
  594THF    H1011819   4.963   5.053   3.914 -0.6261 -1.0898 -4.6146
  594THF    H1111820   4.805   5.084   3.846  1.8241  0.8322  0.0533
  594THF    H1211821   4.869   5.269   3.730  1.2560 -0.1505  2.0773
  594THF    H1311822   4.970   5.303   3.881 -1.9916  0.0011 -1.6065
  595THF     O111823   2.456   1.444   0.615 -0.2106 -0.0255 -0.1105
  595THF     C211824   2.395   1.552   0.672 -0.2379 -0.0494  0.1848
  595THF     C311825   2.550   1.395   0.712  0.2176 -0.3374  0.5110
  595THF     H411826   2.338   1.497   0.743  1.0186  0.4006 -0.5568
  595THF     H511827   2.335   1.620   0.611  0.8310 -3.6213 -1.7952
  595THF     H611828   2.498   1.342   0.790 -0.0514 -1.7704  0.8766
  595THF     H711829   2.628   1.332   0.661 -0.2886 -1.1085  0.7685
  595THF     C811830   2.618   1.521   0.763  0.3972  0.2378  0.0311
  595THF     C911831   2.516   1.631   0.728  0.5397 -0.7669  0.7925
  595THF    H1011832   2.712   1.525   0.703  1.2346 -0.7738 -4.2112
  595THF    H1111833   2.647   1.507   0.867  2.1241  1.8476  0.7409
  595THF    H1211834   2.480   1.696   0.810 -0.3717 -0.1638  1.8508
  595THF    H1311835   2.540   1.699   0.648 -2.7873  0.3221 -1.1157
  596THF     O111836   3.984   1.688   2.407  0.2394 -0.4824  0.4063
  596THF     C211837   3.953   1.663   2.273  0.1943  0.0346  0.4069
  596THF     C311838   3.959   1.825   2.429 -0.2250  0.0117 -0.4660
  596THF     H411839   3.844   1.650   2.265 -0.5004  0.4842 -0.4314
  596THF     H511840   4.008   1.579   2.224  0.0767  1.6066  1.7566
  596THF     H611841   3.849   1.823   2.443 -1.1074  0.1464 -0.2509
  596THF     H711842   3.998   1.851   2.527 -2.1035 -0.0158  0.4402
  596THF     C811843   4.018   1.898   2.302 -0.0934 -0.1745  0.1147
  596THF     C911844   3.995   1.792   2.195  0.1901 -0.5456 -0.0682
  596THF    H1011845   4.124   1.915   2.309 -1.0479 -2.5188  0.1422
  596THF    H1111846   3.973   1.992   2.278  2.2202 -3.4266 -3.8941
  596THF    H1211847   3.925   1.825   2.121 -1.5222  2.1111 -0.6698
  596THF    H1311848   4.084   1.761   2.150 -0.1205  0.6689  3.1067
  597THF     O111849   3.347   3.765   2.997  0.7171 -0.4927  0.0107
  597THF     C211850   3.336   3.778   3.137 -0.1274 -0.1910  0.0617
  597THF     C311851   3.433   3.867   2.944 -0.1650 -1.4513  0.2448
  597THF     H411852   3.388   3.697   3.184 -1.5569 -0.2023 -3.1917
  597THF     H511853   3.232   3.776   3.172 -0.5514 -1.0485 -0.5120
  597THF     H611854   3.540   3.841   2.933  2.5314 -2.2839 -0.1337
  597THF     H711855   3.396   3.903   2.850 -1.3335  1.3209  0.2653
  597THF     C811856   3.402   3.983   3.040  0.0157 -0.3828  0.1640
  597THF     C911857   3.400   3.911   3.170  0.8717 -0.5672  0.5390
  597THF    H1011858   3.306   4.028   3.022 -2.5882 -1.5585 -0.1506
  597THF    H1111859   3.473   4.069   3.031  2.3148 -1.4848 -0.8930
  597THF    H1211860   3.505   3.900   3.196 -1.3905  0.5156 -3.5058
  597THF    H1311861   3.355   3.963   3.248  0.1816 -1.2721  0.2645
  598THF     O111862   4.225   5.296   2.632  0.6278 -0.6409  0.2300
  598THF     C211863   4.138   5.208   2.563  0.5545 -0.2829 -0.1185
  598THF     C311864   4.161   5.419   2.641 -0.0749 -0.0809  0.2765
  598THF     H411865   4.060   5.185   2.633  0.7765 -0.0082 -0.2281
  598THF     H511866   4.189   5.121   2.521  0.3138 -2.0644 -1.4813
  598THF     H611867   4.079   5.406   2.714  0.1651 -0.1282 -0.5662
  598THF     H711868   4.227   5.500   2.672 -0.5915  1.9194  1.2885
  598THF     C811869   4.102   5.435   2.496 -0.0529  0.8094  1.3270
  598THF     C911870   4.098   5.293   2.441 -0.5153 -0.1654 -0.4248
  598THF    H1011871   4.167   5.488   2.435 -0.4712 -3.1422 -1.7467
  598THF    H1111872   4.012   5.494   2.497 -0.5468 -0.0376 -1.7314
  598THF    H1211873   3.997   5.260   2.413 -0.2765 -1.6656  1.0404
  598THF    H1311874   4.153   5.276   2.354  0.8190 -3.0233 -0.1544
  599THF     O111875   2.974   1.699   2.081 -0.0106 -0.3510 -0.2306
  599THF     C211876   2.922   1.568   2.096  0.0891 -0.0357  0.0693
  599THF     C311877   3.079   1.687   1.984  0.1984  0.3060  0.2881
  599THF     H411878   2.856   1.548   2.011  0.3405  2.1440 -0.6430
  599THF     H511879   2.862   1.562   2.191  1.6371  1.8695 -1.1807
  599THF     H611880   3.030   1.673   1.885 -0.2314 -0.7807  0.5585
  599THF     H711881   3.152   1.772   1.986  0.3162  3.3608  0.6561
  599THF     C811882   3.154   1.565   2.039  0.0232 -0.3443 -0.8639
  599THF     C911883   3.044   1.476   2.090  0.0547  0.5556 -0.5824
  599THF    H1011884   3.218   1.591   2.126 -2.7532  1.0681  0.8560
  599THF    H1111885   3.219   1.512   1.964 -0.4885 -2.7046 -0.9182
  599THF    H1211886   3.017   1.397   2.022 -1.6478  0.3594 -0.1743
  599THF    H1311887   3.063   1.430   2.185  1.3262 -0.9387 -0.2592
  600THF     O111888   0.979   5.172   3.440  0.1271  0.6718  0.3682
  600THF     C211889   1.077   5.268   3.447 -0.9713 -0.9697 -0.5813
  600THF     C311890   0.914   5.160   3.565  0.0675  1.1564 -0.1895
  600THF     H411891   1.041   5.370   3.452  0.3785  0.1232  3.2409
  600THF     H511892   1.151   5.260   3.368 -2.6975  1.1962  0.9338
  600THF     H611893   0.829   5.224   3.545  3.7845  0.3173 -1.4441
  600THF     H711894   0.880   5.064   3.597 -0.5898  3.1286  1.4748
  600THF     C811895   1.009   5.226   3.671 -0.9397  0.1814  0.6928
  600THF     C911896   1.139   5.247   3.585  0.4712  0.3282 -0.4192
  600THF    H1011897   1.018   5.179   3.764  0.0929  1.3778 -2.0799
  600THF    H1111898   0.968   5.328   3.688 -1.5000 -0.7559  1.4885
  600THF    H1211899   1.201   5.324   3.632  0.3878  1.8440  0.7573
  600THF    H1311900   1.193   5.153   3.587  1.2965 -1.1782  3.4832
  601THF     O111901   1.161   4.040   4.921  0.2422 -0.7427  0.3278
  601THF     C211902   1.232   3.950   5.003 -0.1174  0.1584  0.8572
  601THF     C311903   1.088   4.126   5.008 -0.2105  0.4353 -0.4128
  601THF     H411904   1.316   3.996   5.044  0.4315  1.7490 -1.8410
  601THF     H511905   1.271   3.857   4.951 -1.4149 -2.3948 -0.5316
  601THF     H611906   1.137   4.226   5.030 -1.1168 -0.1919 -0.4239
  601THF     H711907   0.986   4.139   4.969 -1.6179  1.4590  0.5983
  601THF     C811908   1.078   4.060   5.144  0.2369 -0.4331 -0.1424
  601THF     C911909   1.136   3.920   5.116  0.1130  0.7524 -0.1314
  601THF    H1011910   0.979   4.062   5.196 -0.6666 -0.1083  1.7856
  601THF    H1111911   1.146   4.116   5.207 -1.5373  1.7624 -1.8425
  601THF    H1211912   1.176   3.882   5.210 -1.8280 -0.4850  0.9044
  601THF    H1311913   1.058   3.851   5.072  0.2816 -1.4808  1.1157
  602THF     O111914   2.172   2.409   2.563 -0.1417  0.1668  0.0141
  602THF     C211915   2.304   2.454   2.570  0.1094 -0.5925  0.1792
  602THF     C311916   2.161   2.292   2.485  0.2217 -0.7391 -0.6738
  602THF     H411917   2.322   2.486   2.672  0.2757  1.5764  0.6073
  602THF     H511918   2.322   2.525   2.495 -2.2031  0.5434 -0.5620
  602THF     H611919   2.113   2.223   2.557 -1.2642 -2.0442 -1.3001
  602THF     H711920   2.104   2.302   2.397 -2.7865 -0.0483 -0.0846
  602THF     C811921   2.303   2.246   2.460  0.2025  0.4192  0.4676
  602THF     C911922   2.384   2.334   2.554  0.2223  0.1441  0.0051
  602THF    H1011923   2.326   2.267   2.360 -0.9756  0.5357  0.2284
  602THF    H1111924   2.324   2.140   2.471 -2.1469  1.3256  0.3139
  602THF    H1211925   2.394   2.278   2.637 -2.9250 -1.5889 -1.9720
  602THF    H1311926   2.484   2.353   2.513  0.9714 -2.6051 -0.2690
  603THF     O111927   5.101   3.136   2.258  0.0011  0.1094  0.1708
  603THF     C211928   5.073   3.070   2.137  0.2809  0.0308 -0.6880
  603THF     C311929   5.211   3.069   2.311 -0.5227  0.6986 -0.9307
  603THF     H411930   5.144   3.099   2.057 -0.2474  2.0995  1.2174
  603THF     H511931   4.982   3.104   2.084  0.0336 -0.2693 -2.4080
  603THF     H611932   5.289   3.109   2.252 -0.7122 -2.3864 -2.9419
  603THF     H711933   5.225   3.092   2.419 -1.3078  0.3815  1.1549
  603THF     C811934   5.183   2.923   2.282  0.0503  0.8514  0.3238
  603THF     C911935   5.097   2.916   2.158 -0.5055  0.0390 -0.0594
  603THF    H1011936   5.132   2.882   2.365  0.9872 -1.6443 -3.3069
  603THF    H1111937   5.279   2.869   2.271  0.6656 -3.1849 -1.1370
  603THF    H1211938   5.151   2.881   2.067 -1.8186  1.9357  0.5349
  603THF    H1311939   5.006   2.853   2.159  1.1647  1.0298  0.3626
  604THF     O111940   2.625   0.816   5.445 -0.2982  0.7434  0.0535
  604THF     C211941   2.599   0.683   5.501  0.6333 -0.1519 -0.8171
  604THF     C311942   2.719   0.877   5.531  0.1889 -0.1675  0.5601
  604THF     H411943   2.673   0.618   5.472 -2.4900  0.2493  0.4387
  604THF     H511944   2.509   0.626   5.460 -0.1783  0.8824  0.0630
  604THF     H611945   2.823   0.837   5.511 -0.5627 -1.5901 -1.0043
  604THF     H711946   2.723   0.982   5.515 -2.1804 -2.8496  0.3380
  604THF     C811947   2.664   0.845   5.670  0.0070  0.3464 -0.1395
  604THF     C911948   2.606   0.702   5.657  0.0998 -0.7154  0.1869
  604THF    H1011949   2.583   0.912   5.692 -3.0716  0.3225  0.3513
  604THF    H1111950   2.738   0.852   5.748  2.4358  0.0785  2.1276
  604THF    H1211951   2.674   0.633   5.702  2.1498  0.5751  1.8731
  604THF    H1311952   2.502   0.713   5.689 -0.0344  1.1253  2.1770
  605THF     O111953   0.487   1.805   3.957  0.3014 -0.3487  0.9110
  605THF     C211954   0.460   1.937   3.937 -0.0412  0.9318 -0.2749
  605THF     C311955   0.623   1.768   3.939  0.4775 -0.1108  0.8775
  605THF     H411956   0.413   1.966   4.030  0.3939  0.4866  1.3442
  605THF     H511957   0.385   1.963   3.857 -3.9739 -1.0469  1.2049
  605THF     H611958   0.638   1.698   4.018 -0.4979  3.6108  1.3570
  605THF     H711959   0.631   1.744   3.829 -1.4248  0.1769 -0.4414
  605THF     C811960   0.681   1.897   3.969 -1.0555 -0.0348  0.0475
  605THF     C911961   0.591   2.004   3.904  0.2896 -0.2776  0.1124
  605THF    H1011962   0.788   1.914   3.942 -1.5666  0.3651  1.3359
  605THF    H1111963   0.676   1.914   4.079  2.8632  0.4315  0.7508
  605THF    H1211964   0.604   2.092   3.953  2.2943 -1.8881 -2.9157
  605THF    H1311965   0.589   2.012   3.797 -1.4415  1.1362 -0.2766
  606THF     O111966   2.340   5.221   4.160  0.1768 -1.0179  0.5848
  606THF     C211967   2.214   5.266   4.119 -0.3006 -0.4140  0.1988
  606THF     C311968   2.323   5.118   4.253 -0.3201  0.6074 -0.7934
  606THF     H411969   2.213   5.282   4.009 -2.2050  1.9255  1.2311
  606THF     H511970   2.183   5.365   4.159  1.7753  1.9750  3.4131
  606THF     H611971   2.402   5.053   4.273  3.0308  0.9441  0.2109
  606THF     H711972   2.297   5.160   4.351 -0.8752 -0.8600  1.4340
  606THF     C811973   2.210   5.036   4.193  0.4112 -0.3943  0.4058
  606THF     C911974   2.115   5.155   4.155 -0.1065  0.3385  0.9412
  606THF    H1011975   2.153   4.962   4.257  0.8145 -0.8561 -0.8206
  606THF    H1111976   2.254   4.987   4.109 -0.4980 -2.8854 -0.4924
  606THF    H1211977   2.045   5.125   4.073 -0.4073 -1.2243  1.7935
  606THF    H1311978   2.052   5.197   4.240 -1.8999  2.6310 -1.1421
  607THF     O111979   4.753   1.042   1.647 -0.3090 -0.2925  0.4058
  607THF     C211980   4.790   1.164   1.711 -0.3308 -0.2363 -0.2560
  607THF     C311981   4.874   0.978   1.601 -0.0652 -0.0726  0.0177
  607THF     H411982   4.713   1.195   1.777 -0.9240  1.4759 -0.4467
  607THF     H511983   4.808   1.235   1.638  0.0748  0.7462 -1.0702
  607THF     H611984   4.867   0.871   1.600  1.2484 -0.4154  0.1750
  607THF     H711985   4.920   1.015   1.508  2.6226  1.8270 -1.1015
  607THF     C811986   4.982   1.015   1.699  0.6183 -0.2705 -0.6073
  607THF     C911987   4.919   1.121   1.785  0.6386 -0.8329  0.0550
  607THF    H1011988   5.062   1.067   1.631 -1.3602 -2.3717 -2.4690
  607THF    H1111989   5.031   0.931   1.752 -0.3447  1.3910  0.6725
  607THF    H1211990   4.890   1.091   1.885  0.1315 -1.5199  2.2390
  607THF    H1311991   4.981   1.207   1.805 -2.6246 -1.6573 -1.1008
  608THF     O111992   4.184   3.023   5.238  0.3346  0.4951  0.3701
  608THF     C211993   4.183   2.989   5.104 -0.1897  0.2175  0.1223
  608THF     C311994   4.052   3.015   5.284 -0.6611 -0.5456 -0.1784
  608THF     H411995   4.275   2.943   5.080 -4.4369  1.4300 -3.1685
  608THF     H511996   4.184   3.080   5.045 -0.4654 -0.9959 -0.7893
  608THF     H611997   4.049   2.953   5.373  1.7062  0.6819 -1.0414
  608THF     H711998   4.016   3.115   5.304  0.3963 -0.7551 -0.1997
  608THF     C811999   3.966   2.952   5.178  0.0527  1.3796 -0.0610
  608THF     C912000   4.065   2.894   5.077 -0.3313 -0.3776 -0.2610
  608THF    H1012001   3.907   3.032   5.130  1.8111  0.3421  1.2990
  608THF    H1112002   3.908   2.868   5.224  0.0605 -1.6773  2.3679
  608THF    H1212003   4.094   2.794   5.111 -0.7499 -1.6316  0.7827
  608THF    H1312004   4.036   2.875   4.975  1.4402  0.4299  1.6499
  609THF     O112005   4.530   3.386   3.045 -0.0993 -0.1585  0.2957
  609THF     C212006   4.568   3.521   3.040 -0.4421 -0.1413  0.6738
  609THF     C312007   4.608   3.316   2.946  0.6151  0.0362 -0.0524
  609THF     H412008   4.527   3.574   3.131  1.8996  0.4524  1.8457
  609THF     H512009   4.520   3.578   2.950 -3.2963  0.6546 -0.8607
  609THF     H612010   4.622   3.213   2.963  0.6380 -0.7383  1.4072
  609THF     H712011   4.548   3.343   2.853 -0.4809  1.2375 -1.4093
  609THF     C812012   4.750   3.380   2.961  0.6762  0.7706  0.4360
  609THF     C912013   4.721   3.520   3.029  0.2069 -0.3537  0.0719
  609THF    H1012014   4.810   3.399   2.871 -0.4813  1.5608 -0.5669
  609THF    H1112015   4.802   3.317   3.031  0.4938  0.2689  1.3653
  609THF    H1212016   4.753   3.516   3.135 -3.2146 -0.2268 -2.1962
  609THF    H1312017   4.770   3.610   2.996  0.1151  2.3355 -1.7577
  610THF     O112018   0.244   2.781   0.383  0.6291  0.0774  0.0159
  610THF     C212019   0.123   2.772   0.318 -1.3571 -0.7597 -0.2304
  610THF     C312020   0.261   2.909   0.444  0.4754 -0.2317  0.0200
  610THF     H412021   0.049   2.725   0.383 -0.8595  1.4913  1.4199
  610THF     H512022   0.141   2.713   0.222  1.0549 -2.2446 -1.0431
  610THF     H612023   0.199   2.928   0.532  0.1315 -1.5836 -0.6464
  610THF     H712024   0.369   2.932   0.465 -0.8717 -1.3940 -1.0649
  610THF     C812025   0.193   2.999   0.341  0.6510 -0.4715 -0.4964
  610THF     C912026   0.085   2.915   0.278 -0.0161 -0.2217  0.3370
  610THF    H1012027   0.269   3.004   0.259  0.2718 -2.4177 -1.8958
  610THF    H1112028   0.163   3.098   0.365  0.3477  0.7139 -1.0871
  610THF    H1212029  -0.012   2.936   0.328 -0.1922  1.7445  0.8186
  610THF    H1312030   0.074   2.937   0.177 -1.3363 -2.1749  1.8651
  611THF     O112031   0.576   4.002   1.225  0.2097 -0.5688  0.1258
  611THF     C212032   0.459   4.031   1.154  0.3914 -0.7966 -0.1716
  611THF     C312033   0.569   4.068   1.345  0.2168 -0.2449 -0.5069
  611THF     H412034   0.449   3.970   1.066 -2.7487  1.4797  1.1930
  611THF     H512035   0.467   4.132   1.111 -3.0683 -1.6078  0.6362
  611THF     H612036   0.634   4.033   1.422 -2.7566  1.0487 -0.8299
  611THF     H712037   0.579   4.168   1.319 -0.0511 -0.9217 -1.3981
  611THF     C812038   0.429   4.060   1.390 -0.1479  0.3552  0.1258
  611THF     C912039   0.350   4.030   1.260 -0.6599  0.5624  0.5712
  611THF    H1012040   0.397   4.160   1.419  0.2099  0.3915 -2.2341
  611THF    H1112041   0.406   3.976   1.458 -1.9180  0.3025 -0.8265
  611THF    H1212042   0.306   3.933   1.267 -0.8046 -1.4383  0.1503
  611THF    H1312043   0.277   4.113   1.247  4.0606  3.1350 -1.7526
  612THF     O112044   4.143   1.213   2.459 -0.0182  0.5723  0.2733
  612THF     C212045   4.112   1.209   2.319 -0.1639  1.0256 -0.3536
  612THF     C312046   4.202   1.344   2.479  0.0546 -0.2962 -0.3666
  612THF     H412047   4.026   1.273   2.303 -0.3426  0.0319  0.7666
  612THF     H512048   4.083   1.102   2.286  2.4995  0.1041  1.3113
  612THF     H612049   4.133   1.428   2.484  0.5639  0.3960  1.4591
  612THF     H712050   4.258   1.361   2.573  1.2064  2.1802 -0.9037
  612THF     C812051   4.302   1.352   2.359 -0.4720 -0.2754  0.0403
  612THF     C912052   4.239   1.266   2.250  0.4421 -0.0388 -0.3106
  612THF    H1012053   4.395   1.304   2.395 -1.5408  2.0864  1.4123
  612THF    H1112054   4.309   1.460   2.333  0.7178  0.7970  1.1541
  612THF    H1212055   4.215   1.322   2.158 -2.7133  0.2296  0.2272
  612THF    H1312056   4.308   1.184   2.223 -2.1838  1.1981  3.7033
  613THF     O112057   3.417   5.414   3.691  0.0127 -0.6597  0.6034
  613THF     C212058   3.292   5.493   3.694  0.2076 -0.1852  0.2075
  613THF     C312059   3.413   5.315   3.786 -0.4885  0.4363 -0.4779
  613THF     H412060   3.257   5.499   3.592  0.3770  0.8686  3.4934
  613THF     H512061   3.303   5.589   3.735 -3.0231 -0.4723 -0.2079
  613THF     H612062   3.478   5.243   3.740  5.1901 -0.5787  0.8554
  613THF     H712063   3.455   5.348   3.879 -1.6393 -1.2154 -2.0412
  613THF     C812064   3.264   5.272   3.792  0.5951  0.4422  0.0981
  613THF     C912065   3.201   5.411   3.775 -0.3959  0.4594  1.1429
  613THF    H1012066   3.246   5.218   3.885  2.1730  0.4012  0.8234
  613THF    H1112067   3.252   5.205   3.710  0.1122 -0.8607  0.9686
  613THF    H1212068   3.108   5.403   3.720 -0.6302  3.0009 -0.1028
  613THF    H1312069   3.172   5.455   3.874 -0.1565  0.9518 -0.7393
  614THF     O112070   0.639   3.287   0.486 -0.0640 -0.1162 -0.7390
  614THF     C212071   0.558   3.221   0.388 -0.2076 -0.4894  0.0555
  614THF     C312072   0.683   3.403   0.427 -0.0283  0.0476  0.0114
  614THF     H412073   0.456   3.268   0.394 -0.3992  2.2094 -1.5877
  614THF     H512074   0.562   3.116   0.418  1.6729  1.7224  1.4747
  614THF     H612075   0.602   3.479   0.425  1.2157  0.1351  1.4553
  614THF     H712076   0.773   3.442   0.478 -1.9493  1.8451 -0.3614
  614THF     C812077   0.725   3.363   0.287  0.0683  0.6921 -0.1310
  614THF     C912078   0.614   3.262   0.255 -0.0399  0.2763  0.3368
  614THF    H1012079   0.826   3.319   0.283  0.0256 -2.4218  0.7183
  614THF    H1112080   0.715   3.456   0.238 -0.4435 -0.5728  1.3229
  614THF    H1212081   0.535   3.311   0.190 -0.7894 -1.6957  0.0822
  614THF    H1312082   0.644   3.167   0.207 -4.6715 -0.4986  0.2485
  615THF     O112083   2.666   3.098   3.590  0.1627 -0.1830  0.4984
  615THF     C212084   2.779   3.090   3.507 -0.3290 -0.5342  0.6883
  615THF     C312085   2.552   3.108   3.505  0.3849 -0.0830 -0.2257
  615THF     H412086   2.851   3.018   3.545  0.2159 -1.4620  2.4144
  615THF     H512087   2.830   3.187   3.496  0.5846 -1.5605 -1.5901
  615THF     H612088   2.455   3.093   3.555 -2.0258  3.0155 -2.1152
  615THF     H712089   2.549   3.203   3.450 -0.5704 -1.4015 -1.4617
  615THF     C812090   2.591   3.012   3.391  0.8859 -0.2867 -0.3298
  615THF     C912091   2.735   3.042   3.368 -0.2297  0.3194  1.0026
  615THF    H1012092   2.536   3.033   3.304 -0.5710  1.0051  1.4482
  615THF    H1112093   2.576   2.903   3.415 -1.7697 -1.2087  1.9476
  615THF    H1212094   2.783   2.949   3.333  1.4626 -2.1336  0.1321
  615THF    H1312095   2.755   3.114   3.289 -1.9993 -0.3328  0.4951
  616THF     O112096   1.548   3.635   3.276 -0.5566  0.3787  0.6916
  616THF     C212097   1.582   3.626   3.138 -0.3646  0.3431 -0.1116
  616THF     C312098   1.521   3.503   3.325 -0.6585  0.7808 -0.1843
  616THF     H412099   1.695   3.611   3.130  2.1079  0.2028  1.3926
  616THF     H512100   1.561   3.706   3.075 -0.5744  1.6367 -0.0439
  616THF     H612101   1.588   3.485   3.405 -1.7771  2.3643 -2.1564
  616THF     H712102   1.416   3.500   3.352  0.1467  4.1778 -1.4511
  616THF     C812103   1.548   3.405   3.208  0.0271 -0.3766 -0.5346
  616THF     C912104   1.531   3.486   3.094  0.5502  0.1292  0.3190
  616THF    H1012105   1.492   3.316   3.206  0.6352 -0.5660 -0.7017
  616THF    H1112106   1.653   3.375   3.215  0.8328 -1.3731 -3.8837
  616THF    H1212107   1.586   3.445   3.008  1.0012 -1.1382 -1.6700
  616THF    H1312108   1.422   3.489   3.068 -3.5493 -2.0670 -0.9114
  617THF     O112109   1.297   0.270   5.310 -0.5597  0.7302  0.0791
  617THF     C212110   1.185   0.325   5.247  0.0914 -0.1931  0.2780
  617THF     C312111   1.262   0.218   5.432 -0.3430  0.3031 -0.2566
  617THF     H412112   1.140   0.261   5.174  1.5677  3.0150  2.0589
  617THF     H512113   1.210   0.419   5.199 -2.2235 -0.0128 -1.5168
  617THF     H612114   1.216   0.119   5.415 -0.3951  0.7239 -0.1656
  617THF     H712115   1.339   0.209   5.510  0.6983 -0.8714  1.4583
  617THF     C812116   1.167   0.323   5.486  0.4028 -0.7538 -0.0643
  617THF     C912117   1.094   0.365   5.367  0.3387 -0.8028  0.4017
  617THF    H1012118   1.224   0.412   5.517  0.3847 -3.3066  1.2154
  617THF    H1112119   1.109   0.280   5.574 -1.1565  1.6058 -0.4980
  617THF    H1212120   0.994   0.313   5.346 -0.9908 -0.6864 -0.8603
  617THF    H1312121   1.094   0.478   5.357  0.3289  2.8707 -0.3938
  618THF     O112122   0.861   0.170   3.243 -0.2264 -0.3035  0.0542
  618THF     C212123   0.899   0.191   3.108  0.5291  0.0967  0.3020
  618THF     C312124   0.877   0.033   3.283  0.2374  0.5736  1.2456
  618THF     H412125   0.993   0.235   3.112  0.2005 -0.7277  0.2306
  618THF     H512126   0.838   0.257   3.051  0.2369 -0.1179  0.4463
  618THF     H612127   0.930   0.016   3.377  1.0972  1.3240  1.4177
  618THF     H712128   0.780  -0.007   3.304 -0.3559 -0.6464 -1.7042
  618THF     C812129   0.943  -0.037   3.166  0.3028  0.3536  0.1362
  618THF     C912130   0.898   0.042   3.048  0.7730 -0.4577 -0.2708
  618THF    H1012131   0.924  -0.146   3.155 -1.4275 -0.0933 -0.7131
  618THF    H1112132   1.052  -0.023   3.173  2.4676 -0.2551  0.6703
  618THF    H1212133   0.957   0.028   2.958  0.0203 -1.8191  0.3955
  618THF    H1312134   0.798   0.014   3.021  0.6728  0.2943  0.8949
  619THF     O112135   4.138   0.880   1.365  0.5582 -0.0617 -0.1773
  619THF     C212136   4.234   0.779   1.363  0.0651  0.7533 -0.8171
  619THF     C312137   4.056   0.864   1.251  0.0414 -0.3115 -0.3312
  619THF     H412138   4.285   0.765   1.458 -1.9476 -2.2980 -0.3475
  619THF     H512139   4.317   0.800   1.292 -2.5195 -2.3022 -0.7106
  619THF     H612140   3.959   0.909   1.282  1.0307 -3.3493 -3.8079
  619THF     H712141   4.101   0.924   1.177  1.7889 -1.2693  0.2254
  619THF     C812142   4.050   0.719   1.225  0.1056  0.3619 -0.0176
  619THF     C912143   4.167   0.655   1.308 -0.4133 -0.7095  0.2507
  619THF    H1012144   4.065   0.687   1.126  0.9648  2.3303  3.4778
  619THF    H1112145   3.956   0.674   1.263 -0.7445 -0.4040 -0.2361
  619THF    H1212146   4.118   0.602   1.393 -1.0758  0.5951  0.2748
  619THF    H1312147   4.231   0.576   1.254  1.4008 -2.1797  1.8127
  620THF     O112148   3.178   1.913   2.565 -0.2350 -0.0291 -0.2470
  620THF     C212149   3.122   1.994   2.471 -0.4189 -0.2583 -0.2504
  620THF     C312150   3.113   1.780   2.569  0.6659  0.2526  0.5148
  620THF     H412151   3.183   2.058   2.405  0.0560  0.6047  2.2132
  620THF     H512152   3.072   2.066   2.529  0.5320 -1.8281  1.5420
  620THF     H612153   3.179   1.700   2.613  0.2005 -0.7847 -1.9969
  620THF     H712154   3.017   1.784   2.616  2.5722 -0.1753  2.0968
  620THF     C812155   3.092   1.759   2.418  0.1166 -0.2022 -0.7178
  620THF     C912156   3.042   1.896   2.383  0.0685  0.1883  0.2835
  620THF    H1012157   3.028   1.683   2.379 -3.0859  0.9020 -1.3802
  620THF    H1112158   3.195   1.751   2.371 -3.3353  0.2908  1.3281
  620THF    H1212159   3.046   1.933   2.277  1.4990  3.1175 -0.1972
  620THF    H1312160   2.941   1.922   2.406 -1.1807 -1.0567  1.1777
  621THF     O112161   2.255   1.938   1.373 -0.1465 -0.0278  0.7865
  621THF     C212162   2.221   2.064   1.312  0.9320  0.1768  0.3416
  621THF     C312163   2.327   1.963   1.491 -0.1401  0.0225 -0.1702
  621THF     H412164   2.134   2.099   1.348  1.0484 -0.7951  0.0962
  621THF     H512165   2.219   2.069   1.204  0.3154  0.2943  1.6718
  621THF     H612166   2.290   1.914   1.578  1.4536  2.3484 -0.9571
  621THF     H712167   2.421   1.915   1.455 -1.9985 -1.3304 -0.6943
  621THF     C812168   2.337   2.117   1.504 -0.0813 -0.4121 -0.5610
  621THF     C912169   2.323   2.158   1.362 -0.6490 -0.2181  0.5211
  621THF    H1012170   2.435   2.152   1.540 -1.9096  0.5301  0.5870
  621THF    H1112171   2.264   2.156   1.567  1.1230  0.6409  0.3928
  621THF    H1212172   2.298   2.263   1.352  0.9199  0.9764 -1.4049
  621THF    H1312173   2.419   2.151   1.311 -1.6648 -0.1350 -1.9174
  622THF     O112174   3.656   2.235   4.718  0.2289  0.6288 -0.1372
  622THF     C212175   3.652   2.096   4.739 -0.1871  0.1065  0.8561
  622THF     C312176   3.531   2.262   4.654 -0.1058  0.1820  0.8849
  622THF     H412177   3.597   2.071   4.826  2.8094  0.3376  1.2363
  622THF     H512178   3.755   2.072   4.757  0.5259  0.7726  1.8126
  622THF     H612179   3.449   2.244   4.722 -3.2392 -2.2659  2.0232
  622THF     H712180   3.527   2.358   4.606 -3.0861  1.2430 -2.6965
  622THF     C812181   3.529   2.158   4.548  0.3878 -0.1743  0.3745
  622THF     C912182   3.593   2.040   4.612 -0.2621 -0.5331  0.5342
  622THF    H1012183   3.588   2.197   4.466  0.2270 -2.1581 -1.7510
  622THF    H1112184   3.434   2.131   4.498 -1.0489  0.5214 -1.5889
  622THF    H1212185   3.526   1.958   4.636  1.5813  0.9996  0.3382
  622THF    H1312186   3.670   2.002   4.556 -1.2903  2.5977 -1.1042
  623THF     O112187   3.746   0.817   0.492 -0.5133 -0.7328 -0.0810
  623THF     C212188   3.776   0.800   0.626 -1.2122  0.2439 -0.3546
  623THF     C312189   3.846   0.912   0.449  0.0427 -0.4344  0.5798
  623THF     H412190   3.728   0.710   0.654  0.2952  0.8071 -0.4932
  623THF     H512191   3.730   0.880   0.681  0.3580  1.6495  0.9126
  623THF     H612192   3.852   0.937   0.345 -1.6909 -1.4289 -1.7641
  623THF     H712193   3.816   1.010   0.494  0.9131 -1.1310 -3.6476
  623THF     C812194   3.973   0.876   0.522 -0.3968 -0.9400  0.1226
  623THF     C912195   3.923   0.790   0.641 -0.1062 -0.4658  0.1752
  623THF    H1012196   4.032   0.969   0.546 -0.7479  1.1005  0.5921
  623THF    H1112197   4.036   0.821   0.451 -1.4134 -1.7239 -1.5024
  623THF    H1212198   3.960   0.690   0.625 -0.4847  0.4198  0.8716
  623THF    H1312199   3.950   0.824   0.742  0.3385  0.5285 -0.5071
  624THF     O112200   0.754   3.790   2.836 -0.2850 -0.3826  0.0179
  624THF     C212201   0.832   3.684   2.797  0.3588  0.2784  0.5252
  624THF     C312202   0.830   3.908   2.847 -0.6407  0.3260  0.1032
  624THF     H412203   0.772   3.598   2.763  1.2199  0.5915  2.3879
  624THF     H512204   0.884   3.649   2.884  0.4141  2.0884 -0.1832
  624THF     H612205   0.769   4.004   2.835  1.8114  2.2305  1.6802
  624THF     H712206   0.871   3.916   2.950  0.4522  0.0670 -2.3070
  624THF     C812207   0.935   3.893   2.743 -0.2264  1.0106  0.4434
  624THF     C912208   0.928   3.746   2.696 -0.5044  0.3845 -0.5033
  624THF    H1012209   1.026   3.894   2.804 -0.1073 -1.3164  2.0445
  624THF    H1112210   0.925   3.971   2.664 -1.2725 -0.5341  0.2662
  624THF    H1212211   0.887   3.738   2.595  1.6668 -0.1145 -0.7844
  624THF    H1312212   1.027   3.686   2.701  4.3556 -1.4282 -0.9148
  625THF     O112213   1.086   2.661   5.416 -0.1831 -0.2766 -0.7441
  625THF     C212214   1.027   2.712   5.297 -0.4849 -0.4208 -0.4042
  625THF     C312215   1.206   2.733   5.435  0.3695  0.2214  0.4760
  625THF     H412216   0.984   2.812   5.319 -0.2418  0.6212 -0.8530
  625THF     H512217   0.948   2.640   5.278  0.4218 -0.8451  0.9867
  625THF     H612218   1.178   2.831   5.473  2.5042 -2.6995 -0.1609
  625THF     H712219   1.266   2.686   5.509 -0.8944  1.7722  1.4231
  625THF     C812220   1.265   2.727   5.291 -0.2833  0.2986  0.2190
  625THF     C912221   1.144   2.718   5.196 -0.7479 -0.5103 -0.7003
  625THF    H1012222   1.312   2.629   5.277  1.6733  0.0493 -2.8941
  625THF    H1112223   1.333   2.808   5.269  2.2560  1.7691 -0.5220
  625THF    H1212224   1.123   2.814   5.145  1.6996  1.8737  2.4797
  625THF    H1312225   1.158   2.633   5.137 -0.6161 -0.3077  0.2427
  626THF     O112226   1.360   4.505   2.125 -0.2463  0.2597  0.6188
  626THF     C212227   1.482   4.483   2.187 -0.2087 -0.0792  0.3626
  626THF     C312228   1.367   4.505   1.982  0.1766 -0.9845 -0.2810
  626THF     H412229   1.469   4.438   2.286  0.4282 -1.5538 -0.1325
  626THF     H512230   1.549   4.572   2.196  0.5475 -1.7299 -0.0893
  626THF     H612231   1.283   4.451   1.942  1.2763  0.8871  0.0199
  626THF     H712232   1.373   4.606   1.943  0.1274  0.1698 -0.4370
  626THF     C812233   1.491   4.422   1.954 -0.3692 -0.7740 -0.5462
  626THF     C912234   1.552   4.388   2.089 -0.2024  0.8101 -0.2426
  626THF    H1012235   1.563   4.472   1.894  0.4206  1.3198 -0.0589
  626THF    H1112236   1.468   4.330   1.894 -0.3505  0.2923 -1.7877
  626THF    H1212237   1.529   4.289   2.125  3.3340 -0.2039 -0.7283
  626THF    H1312238   1.659   4.388   2.091  0.3776  2.6830  2.5932
  627THF     O112239   0.149   2.513   1.981 -0.7204 -0.0643 -0.0363
  627THF     C212240   0.220   2.490   2.105  0.2178 -0.6110 -0.1655
  627THF     C312241   0.046   2.612   2.014 -0.2401  0.2170 -0.0025
  627THF     H412242   0.283   2.576   2.116 -2.2114  0.3606  0.7119
  627THF     H512243   0.280   2.395   2.107 -1.1312  1.1780  1.3627
  627THF     H612244   0.091   2.708   2.023 -4.7746  0.3905  0.7105
  627THF     H712245  -0.022   2.614   1.935 -0.4120 -1.7951  2.3644
  627THF     C812246  -0.007   2.552   2.143  0.0154  0.4154  0.4461
  627THF     C912247   0.116   2.500   2.215 -0.4105  0.1334 -0.7033
  627THF    H1012248  -0.072   2.469   2.123  1.2105 -0.1410  0.4044
  627THF    H1112249  -0.067   2.629   2.193 -1.9726  1.5277  1.3367
  627THF    H1212250   0.158   2.559   2.292  1.6727  1.0336  1.6391
  627THF    H1312251   0.104   2.399   2.250  0.8699 -1.6063 -0.2518
  628THF     O112252   2.059   4.150   1.783  0.1569 -0.6930 -0.0166
  628THF     C212253   1.940   4.215   1.836 -0.0018 -0.0501  0.0463
  628THF     C312254   2.090   4.220   1.663 -0.4783  0.0939 -0.0676
  628THF     H412255   1.940   4.207   1.945  0.3277 -2.6861 -1.7518
  628THF     H512256   1.852   4.168   1.794  0.6941  0.9465  1.6538
  628THF     H612257   2.196   4.235   1.656 -2.0377 -2.3027  0.0559
  628THF     H712258   2.064   4.146   1.587  0.1197 -0.4148  0.3233
  628THF     C812259   2.005   4.349   1.651 -0.2885 -0.5839 -0.3145
  628THF     C912260   1.958   4.364   1.798  0.1918  0.1825  1.1227
  628THF    H1012261   1.926   4.318   1.588 -0.9504 -2.1943 -1.6190
  628THF    H1112262   2.065   4.432   1.615 -0.3614 -1.5221 -1.4287
  628THF    H1212263   2.035   4.416   1.860 -0.1476  2.5883  0.9876
  628THF    H1312264   1.859   4.415   1.798  0.5256  1.2956 -1.4551
  629THF     O112265   2.526   2.162   0.663 -0.0772  0.1190 -0.3725
  629THF     C212266   2.457   2.186   0.543  0.5881  0.1402 -0.4447
  629THF     C312267   2.584   2.286   0.697  0.5381  0.3115  0.0630
  629THF     H412268   2.353   2.221   0.556 -1.2871 -0.2203  0.3806
  629THF     H512269   2.435   2.096   0.490  2.5021  0.3039  0.6648
  629THF     H612270   2.518   2.363   0.748  0.1834  3.2932 -1.0070
  629THF     H712271   2.667   2.268   0.765 -0.6250  0.6932 -2.9914
  629THF     C812272   2.627   2.348   0.560 -0.0462 -0.0094 -0.6024
  629THF     C912273   2.538   2.275   0.458 -0.6678 -0.6474 -0.7185
  629THF    H1012274   2.738   2.344   0.546 -1.4855 -1.5022 -0.9214
  629THF    H1112275   2.601   2.455   0.568  0.9902  3.4644  1.7381
  629THF    H1212276   2.479   2.347   0.404  3.1886 -2.5241  1.7338
  629THF    H1312277   2.598   2.222   0.385  0.5087 -0.1641  0.7181
  630THF     O112278   4.210   3.666   4.466  0.3544 -0.9996  0.5251
  630THF     C212279   4.263   3.790   4.519  0.1513  0.0959 -0.2990
  630THF     C312280   4.284   3.647   4.340 -0.3774  0.7253 -0.8142
  630THF     H412281   4.365   3.767   4.556 -0.8245  0.0787  2.2637
  630THF     H512282   4.204   3.822   4.597 -0.4105  0.2740  0.2338
  630THF     H612283   4.377   3.586   4.346  2.9436 -2.9098 -1.3605
  630THF     H712284   4.217   3.580   4.279 -0.8289  2.8104  0.0479
  630THF     C812285   4.303   3.781   4.277  1.3538  0.1214 -0.0779
  630THF     C912286   4.267   3.882   4.392  0.2050 -0.4599 -0.4645
  630THF    H1012287   4.229   3.790   4.196 -1.0912 -0.8771  2.1375
  630THF    H1112288   4.404   3.785   4.243 -0.8862 -0.6470 -0.6829
  630THF    H1212289   4.346   3.960   4.411 -0.7633 -3.7371  2.2908
  630THF    H1312290   4.171   3.922   4.362 -1.2582 -1.0188 -1.6618
  631THF     O112291   0.222   2.528   1.564  0.2814  0.1624 -0.7115
  631THF     C212292   0.331   2.589   1.506 -0.7614 -0.2864  0.3727
  631THF     C312293   0.174   2.611   1.670  0.7294  0.1615  0.0617
  631THF     H412294   0.298   2.679   1.448 -0.7001  0.1576  1.6317
  631THF     H512295   0.382   2.520   1.440 -2.8587 -2.0431  0.4270
  631THF     H612296   0.110   2.683   1.620  0.4717 -2.6648 -0.2554
  631THF     H712297   0.106   2.551   1.730 -1.1530  1.2555 -3.0341
  631THF     C812298   0.308   2.661   1.731 -0.3382  0.3212 -0.9980
  631THF     C912299   0.412   2.643   1.619  0.0224  0.6946 -0.3867
  631THF    H1012300   0.355   2.615   1.820  1.9556 -0.1490  0.1803
  631THF    H1112301   0.297   2.767   1.749  0.6052 -1.9744  0.5182
  631THF    H1212302   0.473   2.733   1.592  1.1580 -1.3894  2.2144
  631THF    H1312303   0.494   2.575   1.647 -0.0772 -0.8919  0.3467
  632THF     O112304   2.282   0.819   0.728  0.1882  0.4145  0.0703
  632THF     C212305   2.400   0.873   0.680 -0.2695 -0.8901 -0.2594
  632THF     C312306   2.310   0.780   0.858 -0.0075 -0.2234  0.6631
  632THF     H412307   2.399   0.974   0.721  0.2093  1.5338 -0.9886
  632THF     H512308   2.405   0.871   0.574 -3.0417 -0.6669  0.0316
  632THF     H612309   2.307   0.870   0.925  1.2104  0.3407 -0.5774
  632THF     H712310   2.235   0.708   0.887  1.3020 -0.6077 -0.3158
  632THF     C812311   2.452   0.720   0.856  0.1173  0.0970 -0.5794
  632THF     C912312   2.512   0.780   0.735  0.0238  0.6232  0.1030
  632THF    H1012313   2.436   0.615   0.827  0.3491  0.7496 -0.3053
  632THF    H1112314   2.509   0.738   0.943 -0.1033  0.4943 -0.3447
  632THF    H1212315   2.592   0.847   0.763  1.2724 -0.9990  0.5635
  632THF    H1312316   2.540   0.713   0.662 -1.2092 -0.3289  2.3510
  633THF     O112317   3.564   4.634   5.145  0.4227  0.0202 -0.2589
  633THF     C212318   3.594   4.627   5.007  0.0879 -0.1830 -0.3065
  633THF     C312319   3.438   4.696   5.163 -0.5372 -0.1185 -1.0148
  633THF     H412320   3.682   4.575   4.988  0.2758 -0.6855 -4.1655
  633THF     H512321   3.612   4.727   4.967  0.1377  0.1773 -1.5839
  633THF     H612322   3.386   4.673   5.254 -3.9497  2.5777 -2.9412
  633THF     H712323   3.459   4.802   5.155 -0.0073 -0.5261 -1.2898
  633THF     C812324   3.361   4.639   5.043 -0.4446 -0.4402  0.3536
  633THF     C912325   3.461   4.577   4.946  0.0722  0.1255 -0.1546
  633THF    H1012326   3.309   4.726   4.999 -0.5758 -1.7302 -0.3799
  633THF    H1112327   3.273   4.579   5.064 -0.3297 -0.4471 -0.0452
  633THF    H1212328   3.456   4.470   4.958  1.8888 -0.7835  1.1186
  633THF    H1312329   3.447   4.599   4.844 -2.8036  1.2003  2.0708
  634THF     O112330   3.711   5.230   4.916 -0.0833 -0.2695 -0.0149
  634THF     C212331   3.575   5.229   4.946  0.5478 -0.3655  0.1296
  634THF     C312332   3.731   5.285   4.787 -0.9256  0.1692  0.3929
  634THF     H412333   3.554   5.239   5.046  1.5476  1.5829  0.2188
  634THF     H512334   3.524   5.149   4.902  2.4898  1.6596  0.4952
  634THF     H612335   3.831   5.318   4.760 -2.2546 -2.7521  1.2170
  634THF     H712336   3.723   5.205   4.712  2.4329  0.9502 -1.7721
  634THF     C812337   3.622   5.387   4.770 -0.1724  0.4620 -0.2559
  634THF     C912338   3.518   5.346   4.872  0.5079  0.3829  0.2507
  634THF    H1012339   3.587   5.388   4.664  0.3657  2.4602 -1.4818
  634THF    H1112340   3.652   5.490   4.785  1.4302  1.9786 -0.8864
  634THF    H1212341   3.493   5.429   4.946  1.3132  1.2299 -0.9115
  634THF    H1312342   3.430   5.317   4.816 -0.0471 -2.2153 -0.1704
  635THF     O112343   2.411   4.086   1.924  0.5125  0.7065  0.1154
  635THF     C212344   2.342   4.135   2.040 -0.6241  0.1729  0.5199
  635THF     C312345   2.544   4.064   1.948 -0.1759  0.4578 -0.4200
  635THF     H412346   2.236   4.103   2.052  2.5976  2.8533  1.7464
  635THF     H512347   2.351   4.243   2.027  1.9047 -0.0492  1.7327
  635THF     H612348   2.565   3.962   1.930 -0.1423  2.1252  0.4246
  635THF     H712349   2.605   4.127   1.879  0.1350  1.2345 -1.2905
  635THF     C812350   2.572   4.115   2.085  0.4103 -0.4315  0.5124
  635THF     C912351   2.442   4.095   2.155 -0.2253 -0.0749 -0.4134
  635THF    H1012352   2.582   4.224   2.094  0.6729 -0.7359  0.7676
  635THF    H1112353   2.668   4.077   2.130  1.9818 -2.9499 -0.2434
  635THF    H1212354   2.420   3.994   2.184 -1.5253 -0.4559  0.3648
  635THF    H1312355   2.423   4.167   2.237 -1.1681  0.9793  1.4674
  636THF     O112356   3.213   4.342   4.171 -0.2701  0.4192  0.0314
  636THF     C212357   3.081   4.389   4.197  0.3879 -0.4053  0.7281
  636THF     C312358   3.205   4.245   4.071 -0.7012  0.1818  0.2088
  636THF     H412359   3.062   4.481   4.136 -3.0774  0.9311 -3.8083
  636THF     H512360   3.071   4.431   4.299 -3.2187 -0.8140  0.3755
  636THF     H612361   3.244   4.276   3.969 -0.9319 -0.6731 -2.2590
  636THF     H712362   3.266   4.163   4.094 -1.9430 -1.4558  1.3462
  636THF     C812363   3.057   4.211   4.046 -0.4642 -0.3781 -0.2991
  636THF     C912364   2.989   4.270   4.170 -0.4218 -0.0219  0.2767
  636THF    H1012365   3.035   4.111   4.006 -1.2593 -3.2763 -2.1516
  636THF    H1112366   3.033   4.279   3.962  2.3039 -1.9610 -1.2573
  636THF    H1212367   2.891   4.315   4.151 -0.7397 -0.3561 -0.1070
  636THF    H1312368   2.994   4.196   4.252  1.6596 -1.6661 -0.5672
  637THF     O112369   3.773   2.905   3.803  1.0691  0.4303  0.2254
  637THF     C212370   3.837   2.786   3.853 -0.1933 -0.6172  0.4182
  637THF     C312371   3.712   2.867   3.678 -0.1792  0.4202  0.4615
  637THF     H412372   3.883   2.802   3.952 -0.2537  1.0165  0.1037
  637THF     H512373   3.927   2.779   3.795 -2.8714  0.2589 -0.5575
  637THF     H612374   3.636   2.928   3.640  1.5939  1.4835  1.2619
  637THF     H712375   3.791   2.852   3.601  2.8882  1.6352  1.5289
  637THF     C812376   3.650   2.735   3.709 -0.0999  0.5234 -0.6234
  637THF     C912377   3.748   2.670   3.807 -0.5354  0.1771 -0.1743
  637THF    H1012378   3.655   2.671   3.631 -2.0128  0.2339  1.4249
  637THF    H1112379   3.548   2.729   3.744 -2.3125  1.4631 -2.5904
  637THF    H1212380   3.695   2.616   3.889 -0.1945 -0.0983 -0.7928
  637THF    H1312381   3.808   2.587   3.771 -0.4028 -1.3171  0.6997
  638THF     O112382   4.334   5.260   1.531 -0.6851 -0.1865  0.0633
  638THF     C212383   4.403   5.360   1.460  0.2221  0.1953  0.4146
  638THF     C312384   4.242   5.191   1.443  0.4559 -0.5900  0.3523
  638THF     H412385   4.480   5.314   1.392  2.9802 -0.8921  1.2491
  638THF     H512386   4.458   5.437   1.520 -0.0030  1.3410 -0.7611
  638THF     H612387   4.298   5.108   1.398  0.4968 -0.4807  0.8473
  638THF     H712388   4.148   5.151   1.485  1.2331 -1.0741 -1.8145
  638THF     C812389   4.208   5.293   1.333  0.2822  0.6982 -0.7031
  638THF     C912390   4.296   5.418   1.362  0.2756 -1.2121 -0.0000
  638THF    H1012391   4.093   5.316   1.322 -4.3406 -1.0043  1.6457
  638THF    H1112392   4.237   5.252   1.237  2.0603 -3.5795  0.4088
  638THF    H1212393   4.346   5.465   1.275  1.1765 -0.6236  0.7720
  638THF    H1312394   4.245   5.497   1.422 -2.8286 -0.7353  0.3171
  639THF     O112395   1.216   3.378   0.754  0.2345 -0.4720 -0.1808
  639THF     C212396   1.321   3.415   0.840  0.0125  0.2830  0.0579
  639THF     C312397   1.178   3.248   0.753 -0.2166 -0.0161  0.6312
  639THF     H412398   1.274   3.455   0.926  0.3836 -1.2914 -0.6034
  639THF     H512399   1.388   3.486   0.798 -0.2622  2.4189  1.0355
  639THF     H612400   1.074   3.240   0.766  0.8031 -0.3161 -0.3711
  639THF     H712401   1.219   3.200   0.658 -0.0868  2.2014 -2.0022
  639THF     C812402   1.274   3.193   0.871  0.5524 -0.7365 -0.6193
  639THF     C912403   1.388   3.289   0.886 -0.4023  0.2103 -0.2089
  639THF    H1012404   1.311   3.093   0.839 -1.1809 -1.7872 -1.0448
  639THF    H1112405   1.222   3.189   0.965  1.3250 -3.9794 -0.7127
  639THF    H1212406   1.441   3.285   0.984  3.5861  0.4542 -1.1458
  639THF    H1312407   1.458   3.268   0.804 -0.4098 -1.1489 -1.4203
  640THF     O112408   4.261   0.986   0.449 -0.8431 -0.3081 -0.0669
  640THF     C212409   4.321   1.093   0.371 -0.7265  0.3152 -0.4351
  640THF     C312410   4.322   0.874   0.387  0.9300  0.0249 -0.3302
  640THF     H412411   4.330   1.186   0.427 -0.0742  0.3440 -2.2812
  640THF     H512412   4.262   1.106   0.280  1.1341  1.3533  3.1188
  640THF     H612413   4.299   0.786   0.449  2.1270 -0.9840  0.2898
  640THF     H712414   4.282   0.858   0.288 -1.9413 -0.4146  2.1653
  640THF     C812415   4.465   0.900   0.370  0.3575  0.5538 -0.1341
  640THF     C912416   4.461   1.050   0.350  0.6747 -0.5922  0.0830
  640THF    H1012417   4.512   0.842   0.285  0.6538  0.2617 -0.9469
  640THF    H1112418   4.509   0.880   0.466  1.1990  1.2794  0.4283
  640THF    H1212419   4.513   1.109   0.427 -2.7792  0.7794 -0.0073
  640THF    H1312420   4.503   1.081   0.250 -0.6933  2.3553  1.4337
  641THF     O112421   5.344   0.478   0.248 -0.3383  0.3891  0.3630
  641THF     C212422   5.337   0.604   0.169 -0.1453  0.1988 -0.4321
  641THF     C312423   5.449   0.397   0.200  0.4196  0.3295  1.4018
  641THF     H412424   5.314   0.691   0.231  2.1693 -0.8677 -0.8610
  641THF     H512425   5.258   0.602   0.096  2.7833  0.0560 -0.8540
  641THF     H612426   5.526   0.397   0.279 -0.8652 -1.6876 -0.6792
  641THF     H712427   5.414   0.299   0.167  2.0075  3.3758 -0.7374
  641THF     C812428   5.516   0.470   0.083 -0.0156  0.0061  1.0156
  641THF     C912429   5.482   0.615   0.111  0.1601 -0.1968 -0.4831
  641THF    H1012430   5.483   0.426  -0.006 -1.2144 -0.7497  1.5217
  641THF    H1112431   5.623   0.452   0.083  0.4894 -3.5729  1.1426
  641THF    H1212432   5.561   0.642   0.177 -0.3744  1.5846 -0.0104
  641THF    H1312433   5.488   0.697   0.039  0.5178  2.0305  1.0548
  642THF     O112434   5.192   3.550   2.371  0.2105  0.4679 -0.2753
  642THF     C212435   5.294   3.623   2.424 -0.2088  0.1559  0.2993
  642THF     C312436   5.239   3.429   2.314  0.6271 -0.6098  0.5206
  642THF     H412437   5.284   3.616   2.539 -0.8616 -0.5016  0.2159
  642THF     H512438   5.289   3.729   2.398  1.6727 -0.1994 -0.7509
  642THF     H612439   5.178   3.342   2.341 -0.1013  1.0602  1.4898
  642THF     H712440   5.246   3.432   2.205  1.8574  0.3153 -1.9192
  642THF     C812441   5.378   3.421   2.354 -0.5273  0.3499 -0.0377
  642THF     C912442   5.428   3.562   2.374  0.6968 -0.2205  0.0720
  642THF    H1012443   5.437   3.354   2.280 -0.8296  0.1351 -0.2216
  642THF    H1112444   5.391   3.363   2.441  0.7607  0.8453 -1.7543
  642THF    H1212445   5.518   3.588   2.427  2.7958  1.0161 -2.6072
  642THF    H1312446   5.440   3.601   2.279 -1.4397  0.0398 -1.7470
  643THF     O112447   3.632   1.944   2.078  0.3126  0.1352 -0.1484
  643THF     C212448   3.520   2.034   2.094  0.4306  0.6669  0.3846
  643THF     C312449   3.588   1.811   2.068  0.6432  0.2292 -0.0899
  643THF     H412450   3.503   2.086   1.999 -0.6397 -0.4826 -0.4731
  643THF     H512451   3.549   2.110   2.174 -0.6399 -0.0087  0.6745
  643THF     H612452   3.546   1.788   1.966 -2.5272  0.3538  0.1302
  643THF     H712453   3.665   1.737   2.084 -2.1088 -0.7712  0.4138
  643THF     C812454   3.475   1.806   2.175 -0.5296  0.2928 -0.0642
  643THF     C912455   3.407   1.942   2.146  0.8892  0.1217 -0.5015
  643THF    H1012456   3.514   1.822   2.271 -0.0505  0.4708 -2.1381
  643THF    H1112457   3.421   1.716   2.174  0.4516  1.8908  2.1625
  643THF    H1212458   3.316   1.941   2.079 -0.3778  3.2361 -2.3338
  643THF    H1312459   3.366   1.979   2.244  1.0140 -1.9042  1.8618
  644THF     O112460   2.789   1.143   0.344 -0.4535  0.2828  0.0532
  644THF     C212461   2.831   1.275   0.314 -0.0155  1.0768 -0.6204
  644THF     C312462   2.648   1.152   0.386 -0.1150 -0.1419  0.0788
  644THF     H412463   2.924   1.284   0.254  1.3697  0.0248 -4.4337
  644THF     H512464   2.846   1.316   0.417 -2.0421  2.7135 -0.6373
  644THF     H612465   2.597   1.078   0.331 -0.9371  2.9268 -0.2129
  644THF     H712466   2.634   1.120   0.492  1.0245  0.4302 -0.3533
  644THF     C812467   2.594   1.292   0.340  0.1737  0.2087 -0.0636
  644THF     C912468   2.714   1.349   0.257  0.4901 -0.2543 -0.6467
  644THF    H1012469   2.565   1.343   0.429  2.0952 -0.7449  0.9697
  644THF    H1112470   2.502   1.264   0.286  0.5637 -0.6729 -1.7981
  644THF    H1212471   2.704   1.333   0.151  1.1501  0.1428  1.5070
  644THF    H1312472   2.722   1.453   0.267 -0.6845  0.6956 -1.1485
  645THF     O112473   4.728   3.379   1.144 -0.1810  0.0552 -0.0325
  645THF     C212474   4.697   3.348   1.016  0.3533 -0.5069  0.5390
  645THF     C312475   4.799   3.276   1.208  0.0220 -0.6982 -0.1506
  645THF     H412476   4.764   3.377   0.931  2.5042 -0.5446 -2.0964
  645THF     H512477   4.601   3.395   0.998  0.4518  2.1947  2.8064
  645THF     H612478   4.902   3.303   1.240 -1.3839  1.4254 -1.3179
  645THF     H712479   4.735   3.253   1.288  2.7952  0.7469  1.2022
  645THF     C812480   4.822   3.166   1.095  0.4294 -0.2302 -0.4697
  645THF     C912481   4.694   3.191   1.014  0.2727  0.2334 -0.6978
  645THF    H1012482   4.827   3.067   1.143  0.8565  1.3349 -0.4895
  645THF    H1112483   4.907   3.184   1.037  0.3869  0.8077  2.9557
  645THF    H1212484   4.687   3.158   0.910 -0.3671 -0.5043  1.0932
  645THF    H1312485   4.602   3.150   1.066 -1.6337  0.7444  1.1171
  646THF     O112486   1.039   1.546   2.540 -0.0155  0.0177 -0.4069
  646THF     C212487   1.109   1.444   2.604 -0.6736 -0.0172  0.4479
  646THF     C312488   1.023   1.647   2.636 -0.4656 -0.1472 -0.0912
  646THF     H412489   1.205   1.423   2.548  0.9839  0.4630 -1.8922
  646THF     H512490   1.056   1.351   2.598  1.2614  3.8278 -3.5001
  646THF     H612491   1.085   1.734   2.625 -1.3407  2.0558  0.5499
  646THF     H712492   0.921   1.681   2.627 -1.0376 -3.5072 -1.8912
  646THF     C812493   1.027   1.578   2.770  0.1369  0.4114 -0.0458
  646THF     C912494   1.141   1.481   2.753  0.0840 -0.5698  0.3565
  646THF    H1012495   0.930   1.539   2.799 -0.5154  0.4815  2.0964
  646THF    H1112496   1.057   1.652   2.842  0.4497  0.3034 -2.1292
  646THF    H1212497   1.241   1.531   2.748  4.4408 -1.1859  0.8620
  646THF    H1312498   1.145   1.395   2.823 -0.4981 -1.1437 -0.3418
  647THF     O112499   4.255   5.225   0.753 -0.7741 -0.1287 -0.2814
  647THF     C212500   4.366   5.199   0.838 -0.1702 -0.0296  0.0869
  647THF     C312501   4.203   5.351   0.791 -0.7866  0.3361 -0.8649
  647THF     H412502   4.444   5.267   0.805  2.3229 -1.3753 -1.9008
  647THF     H512503   4.390   5.093   0.837 -0.5957  3.1612 -0.0876
  647THF     H612504   4.270   5.436   0.769 -0.5735 -0.9807  1.2053
  647THF     H712505   4.107   5.364   0.745 -2.5089  1.7855 -1.8352
  647THF     C812506   4.202   5.339   0.952 -0.9174  0.0311 -0.3852
  647THF     C912507   4.311   5.232   0.978 -0.3944  0.7565 -0.0887
  647THF    H1012508   4.106   5.315   0.986  1.1447  0.1380 -1.3740
  647THF    H1112509   4.237   5.435   0.995 -1.7541  0.5261 -1.6949
  647THF    H1212510   4.386   5.266   1.051 -2.8516  0.3511 -1.2877
  647THF    H1312511   4.253   5.148   1.021 -1.0983  1.0211  2.4032
  648THF     O112512   0.717   1.897   2.901  0.0827 -0.5132  0.6820
  648THF     C212513   0.694   1.967   2.778 -0.4201 -0.0560  0.7544
  648THF     C312514   0.856   1.909   2.926  0.2086 -0.3929 -0.8417
  648THF     H412515   0.585   1.995   2.774  0.1362  3.3918 -2.1919
  648THF     H512516   0.725   1.895   2.693  0.4172 -1.3595 -1.1226
  648THF     H612517   0.870   1.914   3.032 -2.1824 -1.0058 -1.2317
  648THF     H712518   0.908   1.818   2.890 -1.0226  2.0850 -3.4827
  648THF     C812519   0.899   2.033   2.855 -0.1856 -0.1585  0.8858
  648THF     C912520   0.775   2.095   2.785 -0.0682  0.3245 -0.1718
  648THF    H1012521   0.970   2.008   2.775 -0.8539  1.6156 -0.0260
  648THF    H1112522   0.948   2.102   2.918  1.5725 -1.7508 -1.5981
  648THF    H1212523   0.729   2.172   2.848 -0.3031  0.3997  1.7239
  648THF    H1312524   0.800   2.146   2.685 -2.3601  1.2971 -0.2450
  649THF     O112525   5.499   3.542   3.910 -0.0667 -0.1806  0.1656
  649THF     C212526   5.394   3.534   4.002 -0.5586 -0.8780 -0.6465
  649THF     C312527   5.604   3.625   3.966  0.1584 -1.3010  0.5432
  649THF     H412528   5.388   3.446   4.055 -1.4602 -0.5316  0.9289
  649THF     H512529   5.294   3.550   3.959  1.3006  0.7209 -2.8863
  649THF     H612530   5.703   3.567   3.961  1.2337 -0.7035  0.0605
  649THF     H712531   5.608   3.721   3.907 -1.6128  2.9326  1.0294
  649THF     C812532   5.555   3.654   4.111  0.7198  0.5224  0.0749
  649THF     C912533   5.405   3.656   4.090 -1.2585  0.4267  0.0771
  649THF    H1012534   5.593   3.753   4.136 -0.3116  0.6332 -1.1910
  649THF    H1112535   5.589   3.563   4.171  0.9791 -1.7985  0.1124
  649THF    H1212536   5.338   3.632   4.173 -1.7583 -2.3294  0.1736
  649THF    H1312537   5.368   3.740   4.038  0.7669  1.0564  1.4035
  650THF     O112538   1.986   0.905   2.115 -0.3306  0.5729  0.9820
  650THF     C212539   1.950   1.032   2.048  0.3213  0.3924 -0.0872
  650THF     C312540   2.129   0.903   2.114  0.5016  0.0141  1.1068
  650THF     H412541   1.976   1.116   2.110  0.2325 -1.8831 -0.2046
  650THF     H512542   1.843   1.041   2.016  2.9579 -0.4476  0.3469
  650THF     H612543   2.168   0.981   2.183 -0.7748  1.5739 -1.1453
  650THF     H712544   2.171   0.810   2.146 -1.8500 -0.0207 -1.3832
  650THF     C812545   2.159   0.948   1.972  0.0527 -0.3999  0.3585
  650THF     C912546   2.039   1.036   1.929 -1.0794 -0.0012 -0.2294
  650THF    H1012547   2.171   0.870   1.905  1.3338  5.3896 -1.6063
  650THF    H1112548   2.251   1.008   1.971 -2.1092 -1.2833  2.8722
  650THF    H1212549   2.075   1.135   1.897  0.6489 -2.2106 -0.7153
  650THF    H1312550   1.988   0.988   1.848  3.1651 -1.2164 -1.0561
  651THF     O112551   1.299   1.320   1.699  0.1971 -0.5572 -0.1159
  651THF     C212552   1.428   1.267   1.694  0.3821 -0.5034 -0.6235
  651THF     C312553   1.244   1.331   1.566  0.0931  0.2615  0.4376
  651THF     H412554   1.420   1.157   1.695  0.3917 -3.4109 -1.5213
  651THF     H512555   1.479   1.313   1.782  2.0543 -0.1385  1.2983
  651THF     H612556   1.190   1.244   1.525 -1.4306  1.1849 -0.5364
  651THF     H712557   1.169   1.408   1.567 -3.3201 -0.1886  2.8613
  651THF     C812558   1.368   1.354   1.480  0.1639 -0.3034 -0.3122
  651THF     C912559   1.488   1.322   1.569 -0.1688  0.3381  0.2905
  651THF    H1012560   1.364   1.463   1.456 -2.1216 -0.0084  1.2710
  651THF    H1112561   1.367   1.298   1.387  1.1898  0.0296 -0.2233
  651THF    H1212562   1.564   1.256   1.520 -0.2856  1.0637  0.5362
  651THF    H1312563   1.551   1.410   1.599  2.5588  0.9947 -0.4347
  652THF     O112564   2.083   4.884   1.489 -0.2352 -0.2987 -0.2662
  652THF     C212565   2.011   5.003   1.527  0.2971  0.1904 -0.4996
  652THF     C312566   2.215   4.899   1.537  0.0169  0.6311 -0.4587
  652THF     H412567   1.989   5.000   1.639 -0.8754  1.0878  0.6901
  652THF     H512568   1.926   5.010   1.460  2.6481 -2.0650 -1.0606
  652THF     H612569   2.208   4.903   1.645 -0.2309 -2.1242 -1.1655
  652THF     H712570   2.290   4.825   1.523  1.0886 -0.1111 -0.6143
  652THF     C812571   2.246   5.041   1.501  0.0471  0.1611  0.4176
  652THF     C912572   2.112   5.116   1.512  0.2415  0.3409 -0.3571
  652THF    H1012573   2.284   5.055   1.398  1.5836 -2.4759  2.3230
  652THF    H1112574   2.327   5.089   1.552 -0.2372  0.6998  1.5692
  652THF    H1212575   2.115   5.191   1.593 -0.4790  0.6587 -1.2632
  652THF    H1312576   2.094   5.172   1.417 -1.6090  2.4805 -2.7524
  653THF     O112577   2.836   2.794   3.021  0.1578  0.4109 -0.0951
  653THF     C212578   2.768   2.670   3.051 -0.0062  0.5165  0.1440
  653THF     C312579   2.968   2.785   3.086 -0.9983 -0.5194  0.6990
  653THF     H412580   2.779   2.596   2.962 -0.7762 -2.0745  0.7544
  653THF     H512581   2.660   2.687   3.075 -0.0866  0.4598  2.1722
  653THF     H612582   3.050   2.817   3.022  2.4065  0.8390  1.0442
  653THF     H712583   2.965   2.852   3.166 -1.5568 -2.2677 -0.2415
  653THF     C812584   2.980   2.635   3.127  0.2019  0.1063  0.2897
  653THF     C912585   2.837   2.605   3.168  0.2778 -0.5754  0.1187
  653THF    H1012586   3.053   2.625   3.210  1.8220 -0.3442 -1.7494
  653THF    H1112587   3.014   2.560   3.049 -1.0101  0.6216  0.7316
  653THF    H1212588   2.810   2.494   3.171 -0.3433 -0.0062 -0.2508
  653THF    H1312589   2.810   2.654   3.260 -0.4910  0.4240 -1.7662
  654THF     O112590   4.916   2.979   3.183  0.3997  0.0701 -0.0395
  654THF     C212591   4.920   2.847   3.242 -0.4765 -0.0855  0.4347
  654THF     C312592   4.893   2.954   3.047 -0.0946 -0.7182  0.4951
  654THF     H412593   4.899   2.840   3.355 -1.3699 -0.9698  2.6539
  654THF     H512594   5.004   2.788   3.229 -0.0072  0.0729  0.8474
  654THF     H612595   4.856   3.044   2.997  0.6378 -0.5945 -1.3746
  654THF     H712596   4.989   2.929   2.997 -0.0139 -0.7664  0.6326
  654THF     C812597   4.802   2.832   3.031 -0.4937 -0.2738  0.4255
  654THF     C912598   4.800   2.784   3.176  0.0930 -0.9260  1.1854
  654THF    H1012599   4.843   2.755   2.961 -1.0346 -3.0299 -0.5257
  654THF    H1112600   4.696   2.855   3.005  0.7282  0.1508 -1.2488
  654THF    H1212601   4.707   2.824   3.222  0.8438  0.2098 -1.5252
  654THF    H1312602   4.800   2.680   3.179 -2.6079 -0.0954  0.3452
  655THF     O112603   2.679   2.404   4.073  0.5217  0.1811  0.2248
  655THF     C212604   2.621   2.282   4.116 -0.5757  0.0757 -0.1650
  655THF     C312605   2.755   2.376   3.954  0.1129  0.1528  0.3087
  655THF     H412606   2.529   2.267   4.061  3.1093  0.6286 -0.9885
  655THF     H512607   2.607   2.282   4.227 -2.7619  0.0970 -0.0629
  655THF     H612608   2.706   2.414   3.869  1.1601 -1.0818  2.6966
  655THF     H712609   2.856   2.420   3.966  1.8115 -0.5866  1.8939
  655THF     C812610   2.766   2.228   3.931  0.6570 -0.4069  0.1695
  655THF     C912611   2.721   2.175   4.072  0.2958  0.3893 -0.0580
  655THF    H1012612   2.862   2.190   3.913 -3.5671  2.4781 -1.5573
  655THF    H1112613   2.705   2.194   3.856  1.1467  0.8338  0.4641
  655THF    H1212614   2.665   2.086   4.069 -3.1951  0.2329 -1.0452
  655THF    H1312615   2.806   2.177   4.143 -0.9019  0.2815 -0.1906
  656THF     O112616   0.614   4.018   5.423  0.1667 -0.1849 -0.4447
  656THF     C212617   0.631   3.923   5.317 -0.6247 -0.1314 -0.1948
  656THF     C312618   0.721   3.991   5.527  0.2539 -0.1251 -0.1414
  656THF     H412619   0.706   3.961   5.244  0.8453 -0.5482 -0.3723
  656THF     H512620   0.540   3.900   5.267  0.4957 -0.7803  1.0799
  656THF     H612621   0.821   4.035   5.497  0.2766 -1.5335 -0.7461
  656THF     H712622   0.688   4.042   5.621 -0.1971 -3.8594 -0.8436
  656THF     C812623   0.711   3.837   5.538  0.3827 -0.2773  0.2777
  656THF     C912624   0.677   3.797   5.393  0.2105  0.0860  0.2957
  656THF    H1012625   0.623   3.806   5.586  4.5621  0.5766  0.0409
  656THF    H1112626   0.793   3.778   5.582 -1.3995 -2.5604  2.8300
  656THF    H1212627   0.757   3.744   5.335 -0.3660 -2.6516 -0.7402
  656THF    H1312628   0.592   3.731   5.396  1.9762  2.3977  2.7839
  657THF     O112629   1.705   0.081   0.759 -0.0771  0.6440 -0.1601
  657THF     C212630   1.751  -0.016   0.856 -0.1671  0.7686 -0.1845
  657THF     C312631   1.572   0.119   0.791  0.8149 -0.4300  0.1227
  657THF     H412632   1.798   0.052   0.932 -1.0218 -0.3139 -0.7445
  657THF     H512633   1.812  -0.095   0.816  1.3872 -0.8539  1.6894
  657THF     H612634   1.566   0.224   0.801  1.3287  1.9457  2.9097
  657THF     H712635   1.506   0.088   0.707 -2.0115  0.7377  1.2297
  657THF     C812636   1.530   0.035   0.912 -0.9979  0.6671  0.2462
  657THF     C912637   1.625  -0.084   0.910 -0.2919 -1.0582 -0.3987
  657THF    H1012638   1.434  -0.009   0.918  1.3192 -1.7607  1.2792
  657THF    H1112639   1.542   0.092   1.005  1.7664 -1.7649  0.6650
  657THF    H1212640   1.648  -0.111   1.018 -0.3252  1.1981  0.6189
  657THF    H1312641   1.585  -0.163   0.851  0.1917  1.6267 -0.6903
  658THF     O112642   5.258   0.823   3.948 -0.2604  0.3952  0.7321
  658THF     C212643   5.169   0.738   3.872  0.3064  0.6437 -0.0851
  658THF     C312644   5.199   0.952   3.931 -0.0504 -0.5432 -0.0314
  658THF     H412645   5.093   0.697   3.933 -2.0050 -0.1704  3.7623
  658THF     H512646   5.223   0.648   3.838  1.0989  1.5437 -0.1851
  658THF     H612647   5.111   0.978   3.986  0.4404  1.3062  2.2504
  658THF     H712648   5.259   1.029   3.968 -1.6104  0.5157 -1.1517
  658THF     C812649   5.155   0.965   3.786  0.5811 -0.0996 -0.3555
  658THF     C912650   5.098   0.818   3.765 -0.3491 -0.6363 -0.5266
  658THF    H1012651   5.244   0.979   3.724  1.7411  1.0429 -0.5410
  658THF    H1112652   5.081   1.049   3.759  1.0793  0.6654 -0.5923
  658THF    H1212653   4.992   0.805   3.784  1.0128  1.5664  2.0860
  658THF    H1312654   5.115   0.793   3.661 -0.9744 -0.8540 -0.3864
  659THF     O112655   0.233   5.434   0.831 -0.8199  0.2497  0.1171
  659THF     C212656   0.290   5.369   0.720 -0.6531 -0.6863 -0.1349
  659THF     C312657   0.112   5.363   0.865  0.0529  0.4874  0.7188
  659THF     H412658   0.343   5.281   0.759 -1.4244 -2.2330  0.6600
  659THF     H512659   0.351   5.438   0.658  0.9257  1.8641 -0.0117
  659THF     H612660   0.140   5.270   0.921  1.0805  0.5849  1.1657
  659THF     H712661   0.059   5.426   0.933  0.6152 -1.0483 -1.5343
  659THF     C812662   0.051   5.332   0.725  0.2836 -0.2160 -0.8486
  659THF     C912663   0.173   5.312   0.639 -0.6351 -0.4063 -0.6427
  659THF    H1012664  -0.010   5.415   0.702 -2.0016 -2.2969  0.3425
  659THF    H1112665  -0.021   5.248   0.725  0.7977  0.4285  1.8789
  659THF    H1212666   0.191   5.213   0.615  0.8387  0.3310  0.7189
  659THF    H1312667   0.159   5.365   0.543  0.7394 -1.9025  1.4899
  660THF     O112668   2.392   4.568   5.139  0.2235 -0.0895  0.2937
  660THF     C212669   2.274   4.488   5.140  0.8092  0.2085 -0.2879
  660THF     C312670   2.364   4.687   5.213 -0.1926  0.1951 -1.0865
  660THF     H412671   2.292   4.385   5.118 -1.6008 -0.4361  1.2540
  660THF     H512672   2.194   4.512   5.068 -0.1275  0.1754 -2.1675
  660THF     H612673   2.455   4.708   5.277  0.8457 -0.1426  4.4389
  660THF     H712674   2.351   4.782   5.159 -3.2638 -1.6437  2.3766
  660THF     C812675   2.252   4.655   5.316 -0.2819  0.5185  0.5757
  660THF     C912676   2.240   4.504   5.294  0.1175 -0.0408  0.0004
  660THF    H1012677   2.154   4.703   5.294 -0.5804 -3.2201  0.5010
  660THF    H1112678   2.286   4.693   5.411 -0.3787 -2.3251  1.4077
  660THF    H1212679   2.308   4.447   5.357 -0.2466 -1.8406  1.3060
  660THF    H1312680   2.139   4.463   5.324  0.5577 -0.0623  1.2488
  661THF     O112681   2.544   4.445   4.245  0.7527  0.2302  0.2099
  661THF     C212682   2.654   4.526   4.196  0.5464 -0.5289 -0.2931
  661THF     C312683   2.566   4.418   4.382 -0.0850 -0.3163  0.3153
  661THF     H412684   2.617   4.619   4.136 -1.8422  3.8568  0.9908
  661THF     H512685   2.711   4.461   4.135  0.0867  2.2302  0.2370
  661THF     H612686   2.472   4.400   4.434  0.4431  4.7594  0.8872
  661THF     H712687   2.625   4.332   4.396 -0.3805 -0.0186 -0.8216
  661THF     C812688   2.633   4.543   4.436 -0.0286  0.0827  0.9162
  661THF     C912689   2.737   4.555   4.329 -0.1921  0.0578  0.1811
  661THF    H1012690   2.680   4.515   4.531  0.1364 -2.0306  3.0147
  661THF    H1112691   2.557   4.624   4.445  0.9959 -0.5568 -0.9643
  661THF    H1212692   2.786   4.652   4.319 -1.0500  0.6496 -1.1715
  661THF    H1312693   2.813   4.479   4.351 -1.6194 -2.4206 -2.7637
  662THF     O112694   3.413   1.035   0.833 -0.5522 -0.1021  0.1004
  662THF     C212695   3.280   1.083   0.821  0.5585  0.4525 -0.4968
  662THF     C312696   3.406   0.895   0.835 -0.7221  0.0811 -0.3022
  662THF     H412697   3.265   1.080   0.709  0.4015 -2.7535 -1.8749
  662THF     H512698   3.274   1.186   0.853 -0.6737 -0.5531 -0.3556
  662THF     H612699   3.438   0.862   0.736 -0.7696  0.7456 -3.1926
  662THF     H712700   3.480   0.860   0.908 -0.7216  0.8555 -0.3402
  662THF     C812701   3.263   0.851   0.863 -0.2253 -0.0225  0.8794
  662THF     C912702   3.203   0.983   0.901 -0.0624  0.2555 -0.3816
  662THF    H1012703   3.260   0.787   0.942  0.8221 -2.1718 -2.0743
  662THF    H1112704   3.218   0.807   0.771 -0.4560 -0.5554 -1.7415
  662THF    H1212705   3.103   1.008   0.872 -0.4734 -0.5226 -2.2178
  662THF    H1312706   3.215   1.013   1.007 -2.4882  2.2782 -0.7713
  663THF     O112707   1.054   4.176   2.479  0.0602 -0.3169  0.1435
  663THF     C212708   1.164   4.099   2.429  0.4346 -0.4019 -0.1057
  663THF     C312709   1.062   4.305   2.428  0.3034 -0.2954  0.1666
  663THF     H412710   1.140   4.046   2.336 -0.1529  2.0696  0.1525
  663THF     H512711   1.186   4.025   2.504  0.3203 -1.1604 -0.1652
  663THF     H612712   0.974   4.343   2.376  0.1175  0.5412  1.5278
  663THF     H712713   1.078   4.365   2.521 -1.7057  1.8225 -0.0405
  663THF     C812714   1.182   4.311   2.331  0.2400 -0.6384 -0.8892
  663THF     C912715   1.272   4.197   2.382 -0.3466 -0.6244 -0.2930
  663THF    H1012716   1.225   4.409   2.324  1.1256  0.7251  0.4652
  663THF    H1112717   1.147   4.296   2.223  0.2090 -0.1085  2.3500
  663THF    H1212718   1.329   4.148   2.298 -0.3890 -6.5446  1.2504
  663THF    H1312719   1.338   4.224   2.470  0.2186 -1.4223 -0.4306
  664THF     O112720   2.789   5.272   0.273 -0.9902  0.3755 -0.3414
  664THF     C212721   2.673   5.253   0.200 -0.1598 -0.4979 -0.8084
  664THF     C312722   2.772   5.393   0.348 -0.1267 -0.4277 -0.2312
  664THF     H412723   2.591   5.203   0.243  3.5773  2.3489 -0.4551
  664THF     H512724   2.695   5.193   0.109  1.7904  1.8654  2.9897
  664THF     H612725   2.735   5.378   0.448 -2.5069  0.7912  0.8848
  664THF     H712726   2.867   5.447   0.339 -2.6271 -0.6571  0.9748
  664THF     C812727   2.670   5.479   0.270  0.3031  0.2880 -0.5388
  664THF     C912728   2.639   5.396   0.149  0.3278  0.0064  0.2613
  664THF    H1012729   2.698   5.580   0.246 -0.9158  2.0140  0.6362
  664THF    H1112730   2.588   5.490   0.334  0.0552 -0.6625 -0.3588
  664THF    H1212731   2.532   5.400   0.118 -0.0581 -0.8802  0.0176
  664THF    H1312732   2.700   5.421   0.061 -2.4001 -0.0055 -1.0750
  665THF     O112733   2.091   0.418   1.299  0.1932 -0.0066  0.5012
  665THF     C212734   2.199   0.446   1.209 -0.5030  0.1916  0.5852
  665THF     C312735   1.974   0.383   1.220 -0.8731 -0.4622  0.3963
  665THF     H412736   2.299   0.415   1.253  3.3964 -2.8655  2.5806
  665THF     H512737   2.198   0.550   1.179  0.4747 -2.8648 -1.2887
  665THF     H612738   1.907   0.316   1.271 -1.1266 -1.1907 -1.3283
  665THF     H712739   1.913   0.462   1.202  0.9317  1.2573 -0.6231
  665THF     C812740   2.021   0.325   1.090 -0.3884  0.2910  0.7089
  665THF     C912741   2.168   0.375   1.076 -0.9209  0.1266  0.1384
  665THF    H1012742   1.961   0.353   1.004  0.2628 -1.1058  1.6654
  665THF    H1112743   2.017   0.216   1.090 -0.2980  1.9758 -0.9025
  665THF    H1212744   2.247   0.300   1.058  0.9750  0.0129 -1.6649
  665THF    H1312745   2.189   0.440   0.992 -1.5520 -2.0663 -0.5916
  666THF     O112746   0.641   2.559   3.490 -0.0724 -0.2115  0.9849
  666THF     C212747   0.569   2.562   3.610 -0.2271 -0.3515 -0.1831
  666THF     C312748   0.778   2.556   3.522 -0.1024  0.1342  0.5865
  666THF     H412749   0.562   2.468   3.655  1.0676  1.1568  0.2401
  666THF     H512750   0.469   2.590   3.591 -1.4624 -1.0852  0.6883
  666THF     H612751   0.809   2.456   3.564 -2.4680 -0.8093 -0.6228
  666THF     H712752   0.845   2.574   3.435  1.9354 -0.7928 -0.0444
  666THF     C812753   0.781   2.669   3.633  0.4528 -0.1394  0.5897
  666THF     C912754   0.644   2.661   3.704  1.0676  0.6516  0.4004
  666THF    H1012755   0.802   2.771   3.584  0.5589  2.4451  1.5655
  666THF    H1112756   0.852   2.652   3.714 -0.9297  1.4792 -1.9693
  666THF    H1212757   0.660   2.626   3.805 -1.6980 -0.8926  0.4540
  666THF    H1312758   0.594   2.754   3.716 -2.0476  0.1970 -0.0453
  667THF     O112759   4.375   2.856   4.239  0.0055 -0.0149 -0.1568
  667THF     C212760   4.351   2.982   4.291 -0.6420  0.5270  0.5777
  667THF     C312761   4.512   2.851   4.189  0.0712  0.8327  0.0897
  667THF     H412762   4.376   2.975   4.398  0.2427 -0.3042  0.3624
  667THF     H512763   4.246   3.002   4.278 -0.2084 -2.8589 -2.4007
  667THF     H612764   4.568   2.760   4.221  1.6718 -3.7787 -0.4195
  667THF     H712765   4.502   2.836   4.083  1.8449 -0.5221 -1.4645
  667THF     C812766   4.567   2.990   4.208  0.3512 -0.0490  0.3300
  667THF     C912767   4.441   3.073   4.204 -0.4993 -0.1197  0.4795
  667THF    H1012768   4.652   3.021   4.147 -1.6430  0.6164  0.9207
  667THF    H1112769   4.597   2.993   4.314 -0.2060  0.9140  1.8876
  667THF    H1212770   4.457   3.171   4.251  1.3497 -0.4744 -0.1800
  667THF    H1312771   4.411   3.092   4.104  1.2650  0.7457 -0.4797
  668THF     O112772   3.819   0.322   1.473  0.3244  0.1344 -0.0413
  668THF     C212773   3.782   0.293   1.615 -0.2009 -0.1673 -0.0715
  668THF     C312774   3.845   0.463   1.459 -0.2591  0.1950 -0.5505
  668THF     H412775   3.860   0.233   1.659 -0.1446 -0.0029  0.1807
  668THF     H512776   3.697   0.228   1.608 -0.1917  0.4088 -1.6559
  668THF     H612777   3.935   0.485   1.411  0.9546  0.0422 -0.0878
  668THF     H712778   3.764   0.506   1.400  1.9791 -3.0301 -0.4759
  668THF     C812779   3.842   0.521   1.606  0.1763  0.0965  0.2683
  668THF     C912780   3.757   0.425   1.686 -0.2459 -0.2629  0.0066
  668THF    H1012781   3.808   0.618   1.600 -4.0201 -3.6542 -0.6485
  668THF    H1112782   3.946   0.518   1.649  1.1008  0.6542  2.4141
  668THF    H1212783   3.802   0.400   1.785  1.3514 -2.7501  1.2359
  668THF    H1312784   3.658   0.455   1.683  0.4118  0.6253 -3.0520
  669THF     O112785   0.252   4.910   0.633 -0.0000 -0.2303 -0.1387
  669THF     C212786   0.365   4.851   0.584 -0.1730 -0.3600  0.0794
  669THF     C312787   0.269   4.938   0.776 -0.3777 -0.1515  0.3383
  669THF     H412788   0.364   4.854   0.477 -1.1686 -2.5123 -0.0420
  669THF     H512789   0.368   4.744   0.617 -0.6510 -0.7414 -1.0094
  669THF     H612790   0.215   5.037   0.800  1.9144 -4.2339  0.1753
  669THF     H712791   0.218   4.860   0.836  1.2765  3.1005  0.0626
  669THF     C812792   0.418   4.971   0.788 -0.2578  0.0386  0.2985
  669THF     C912793   0.477   4.932   0.647 -0.6762 -0.0583 -0.0382
  669THF    H1012794   0.471   4.912   0.864  0.8716 -1.6430  0.4876
  669THF    H1112795   0.431   5.075   0.812 -1.4823  2.2596  2.1789
  669THF    H1212796   0.517   5.023   0.589 -2.9733  0.4453  2.5516
  669THF    H1312797   0.563   4.863   0.666  3.0582 -0.0609 -1.5400
  670THF     O112798   5.001   1.566   0.846 -0.0696  0.3033  0.3761
  670THF     C212799   4.993   1.428   0.875 -0.0409 -0.2112  0.3952
  670THF     C312800   4.876   1.622   0.872  0.1786  0.1710 -0.0765
  670THF     H412801   5.009   1.398   0.975 -1.8319  2.4918 -4.4041
  670THF     H512802   5.062   1.373   0.812 -2.0074  0.7627 -1.5934
  670THF     H612803   4.851   1.619   0.975 -0.1784  0.1251  0.0021
  670THF     H712804   4.868   1.725   0.846 -0.6966 -3.8324  0.9721
  670THF     C812805   4.787   1.531   0.803  0.6360  0.0193  0.3814
  670THF     C912806   4.847   1.397   0.837  0.4704  0.1353 -0.0502
  670THF    H1012807   4.787   1.556   0.697  0.2790 -0.3400  1.3545
  670THF    H1112808   4.686   1.535   0.820 -0.2271 -2.6180 -1.1728
  670THF    H1212809   4.799   1.347   0.919 -1.6226 -0.9560  2.2138
  670THF    H1312810   4.845   1.340   0.749  2.1648  2.0115 -0.4121
  671THF     O112811   2.674   5.050   3.085  0.0674  0.0521  0.1291
  671THF     C212812   2.783   5.016   2.996 -0.4364 -0.2027  0.2119
  671THF     C312813   2.563   4.991   3.028  0.2334  0.2785 -0.3044
  671THF     H412814   2.882   5.019   3.041 -1.6897 -1.1434  2.2157
  671THF     H512815   2.766   5.064   2.902  0.0925 -0.4867  0.7956
  671THF     H612816   2.482   4.999   3.103  0.3147  2.6157  1.8735
  671THF     H712817   2.529   5.046   2.943  1.1406 -1.2209  2.5398
  671THF     C812818   2.608   4.842   2.996 -0.7460  1.0954 -0.0140
  671THF     C912819   2.760   4.867   2.979 -0.6954 -0.6275 -0.0933
  671THF    H1012820   2.564   4.796   2.908  2.8211  0.7418 -0.2786
  671THF    H1112821   2.595   4.766   3.071 -1.1823  1.3852 -0.1504
  671THF    H1212822   2.811   4.812   3.058 -0.9621 -0.9189  1.2852
  671THF    H1312823   2.796   4.822   2.882 -2.3942 -4.7087 -0.0409
  672THF     O112824   3.598   2.114   2.455 -0.0826  0.2150  0.1206
  672THF     C212825   3.540   2.041   2.560 -0.0634 -0.2040 -0.7363
  672THF     C312826   3.710   2.180   2.505 -0.2643  0.0455 -0.3345
  672THF     H412827   3.568   1.934   2.537  0.7308  0.4958 -1.8793
  672THF     H512828   3.428   2.050   2.554 -1.1908  0.9035 -1.9148
  672THF     H612829   3.790   2.108   2.507  0.5360  0.8037  0.5473
  672THF     H712830   3.748   2.257   2.437 -0.2804  3.9377 -0.8961
  672THF     C812831   3.667   2.226   2.645 -0.2404 -0.4794 -0.4029
  672THF     C912832   3.600   2.095   2.688  0.4894 -0.6150 -0.1111
  672THF    H1012833   3.590   2.306   2.642 -0.8623 -1.8612 -1.4777
  672THF    H1112834   3.758   2.251   2.695 -2.2224 -0.4022  1.6530
  672THF    H1212835   3.676   2.022   2.725 -1.0726  0.5329 -1.6316
  672THF    H1312836   3.516   2.121   2.758  0.8190  0.9282  1.9366
  673THF     O112837   4.460   4.614   1.732 -0.0463 -0.4356 -0.4761
  673THF     C212838   4.348   4.606   1.826 -0.7360  0.1531 -0.1777
  673THF     C312839   4.409   4.633   1.607 -0.0372  0.8696 -0.2680
  673THF     H412840   4.365   4.670   1.913  1.3270 -0.7972  0.9652
  673THF     H512841   4.328   4.508   1.870 -0.7468 -2.5300  2.4584
  673THF     H612842   4.470   4.704   1.540  0.9832  0.3143 -1.1093
  673THF     H712843   4.401   4.530   1.556  0.9695  0.3776  1.0034
  673THF     C812844   4.279   4.706   1.628 -0.4091 -0.4718  0.4302
  673THF     C912845   4.224   4.643   1.752  0.1008  0.6881  0.0167
  673THF    H1012846   4.220   4.691   1.539 -1.7445 -0.3710  0.1417
  673THF    H1112847   4.285   4.812   1.644 -0.4058 -0.6924  0.7508
  673THF    H1212848   4.161   4.725   1.800 -1.1004 -0.1758 -1.6707
  673THF    H1312849   4.171   4.552   1.736  0.1273  0.2709  1.6948
  674THF     O112850   4.016   2.009   4.706 -0.0360 -0.4119 -0.1389
  674THF     C212851   3.989   1.872   4.674 -0.2686 -0.7170  0.5475
  674THF     C312852   4.037   2.023   4.845 -0.7801  0.0967  0.2534
  674THF     H412853   4.076   1.818   4.655  2.7500  2.4968 -4.1129
  674THF     H512854   3.932   1.869   4.584 -1.7600 -0.9912  0.3374
  674THF     H612855   4.138   1.987   4.870  0.0236 -0.3645  2.4553
  674THF     H712856   4.029   2.125   4.886 -1.5593 -1.7432 -0.1601
  674THF     C812857   3.938   1.927   4.904 -0.2029  0.7329 -0.2868
  674THF     C912858   3.924   1.823   4.796 -0.0415  0.1511 -0.3528
  674THF    H1012859   3.846   1.978   4.927  2.8299  0.2401 -2.2452
  674THF    H1112860   3.966   1.884   4.997 -0.9279  1.3371 -4.5855
  674THF    H1212861   3.981   1.731   4.822 -1.5777 -1.6362 -1.2093
  674THF    H1312862   3.814   1.798   4.785 -2.2358 -1.6305  1.9391
  675THF     O112863   5.379   3.520   5.012 -0.1501  0.3026 -0.2602
  675THF     C212864   5.377   3.453   5.141 -0.3518 -0.5101  0.2329
  675THF     C312865   5.314   3.434   4.926  0.1828 -0.1992  0.1041
  675THF     H412866   5.274   3.474   5.179 -1.7638  0.6809 -2.9725
  675THF     H512867   5.446   3.498   5.212  0.1496  2.3424 -1.1531
  675THF     H612868   5.216   3.427   4.954 -0.0717 -1.2508  2.1795
  675THF     H712869   5.323   3.461   4.821 -1.2185 -0.1506  0.3003
  675THF     C812870   5.388   3.301   4.957 -0.3267 -0.7307  0.5753
  675THF     C912871   5.399   3.305   5.109 -0.1875  0.5837  0.0786
  675THF    H1012872   5.493   3.302   4.922 -1.0582 -0.5222  0.4306
  675THF    H1112873   5.342   3.205   4.924  4.2066  0.1901  0.0700
  675THF    H1212874   5.319   3.242   5.149  1.6456 -3.0959  1.1634
  675THF    H1312875   5.495   3.266   5.146  2.3869  1.2900  0.5811
  676THF     O112876   3.248   3.389   1.660 -0.0745  0.8826  0.1398
  676THF     C212877   3.115   3.421   1.706 -0.4015  0.1218 -0.0029
  676THF     C312878   3.245   3.269   1.580 -0.2396  0.6509  0.3697
  676THF     H412879   3.113   3.530   1.718  2.6578 -0.3477 -1.8439
  676THF     H512880   3.086   3.365   1.791 -2.4877  0.1649  0.0943
  676THF     H612881   3.324   3.264   1.504  0.6845 -0.3787 -1.9780
  676THF     H712882   3.257   3.189   1.655 -1.6607  1.6362  1.2303
  676THF     C812883   3.103   3.269   1.517 -0.1544  0.1579  0.1647
  676THF     C912884   3.024   3.379   1.588  0.2091 -0.0270 -0.5088
  676THF    H1012885   3.056   3.174   1.514  0.8556  0.5376 -0.1689
  676THF    H1112886   3.120   3.284   1.411  0.5741  2.2238 -0.0759
  676THF    H1212887   2.991   3.461   1.527 -0.0253 -0.4807 -1.5546
  676THF    H1312888   2.929   3.341   1.629  0.2984 -2.8741 -0.4142
  677THF     O112889   0.309   3.658   3.419  0.3613  0.0589  0.1723
  677THF     C212890   0.305   3.661   3.556 -0.3506  0.4687  0.0489
  677THF     C312891   0.257   3.529   3.379  0.1692 -0.0659 -0.3103
  677THF     H412892   0.201   3.676   3.590  0.5494  2.1614  0.9106
  677THF     H512893   0.360   3.746   3.595 -1.1970 -0.8365 -2.8929
  677THF     H612894   0.152   3.535   3.346  0.6065 -4.7365  0.5094
  677THF     H712895   0.312   3.502   3.289 -0.2637 -0.6030  0.3320
  677THF     C812896   0.293   3.434   3.493  0.2262 -0.1508 -0.1436
  677THF     C912897   0.352   3.522   3.597 -0.0014 -0.0397 -0.1226
  677THF    H1012898   0.345   3.348   3.457 -0.2876 -0.1582 -0.8069
  677THF    H1112899   0.201   3.380   3.535  0.4254  1.6672 -1.8022
  677THF    H1212900   0.326   3.489   3.695  1.4615  0.5595 -3.8408
  677THF    H1312901   0.458   3.516   3.571 -0.8069  1.0974 -1.3376
  678THF     O112902   2.396   2.356   3.023  0.1040 -1.0174  0.2295
  678THF     C212903   2.530   2.311   3.011  0.8241 -0.0654 -0.2880
  678THF     C312904   2.319   2.262   3.102 -0.1309 -0.4261  0.4389
  678THF     H412905   2.596   2.395   2.997 -1.4516 -1.4959  0.6215
  678THF     H512906   2.555   2.242   2.932 -1.2438  1.2050  0.7493
  678THF     H612907   2.266   2.322   3.178  0.7857  0.4569  2.4876
  678THF     H712908   2.257   2.223   3.022 -1.6578 -0.6815 -1.1856
  678THF     C812909   2.420   2.166   3.155 -0.2966 -0.1315 -0.5257
  678THF     C912910   2.557   2.229   3.135  0.2593  0.5559  0.3963
  678THF    H1012911   2.420   2.065   3.106  0.8757 -2.9404  2.1968
  678THF    H1112912   2.407   2.132   3.259 -1.5994  2.3908 -0.6834
  678THF    H1212913   2.577   2.295   3.222  0.2851  0.8376  0.5266
  678THF    H1312914   2.641   2.166   3.123  0.9017  0.1636  0.5536
  679THF     O112915   1.176   2.710   3.399 -0.3514  0.3161  0.2848
  679THF     C212916   1.268   2.819   3.397 -0.5010 -0.3287  0.3306
  679THF     C312917   1.171   2.657   3.533 -0.0416 -0.2107 -0.2607
  679THF     H412918   1.227   2.900   3.333 -1.8762 -1.8427 -2.1587
  679THF     H512919   1.367   2.783   3.357  1.9407  0.4380 -0.2686
  679THF     H612920   1.063   2.633   3.554 -1.8025 -0.6995 -0.7732
  679THF     H712921   1.224   2.568   3.540  0.1295  0.0332  2.3054
  679THF     C812922   1.242   2.759   3.629  0.1045  0.8435  0.1475
  679THF     C912923   1.277   2.878   3.535  0.8476 -0.4724 -0.3475
  679THF    H1012924   1.329   2.711   3.681  0.7315  1.9260  2.5523
  679THF    H1112925   1.174   2.784   3.705 -0.8848  0.0142 -2.4563
  679THF    H1212926   1.195   2.945   3.538  2.4956 -1.6628 -1.4013
  679THF    H1312927   1.365   2.928   3.559  0.8187  0.9331 -0.7976
  680THF     O112928   2.471   1.746   5.129  0.1218 -0.1657  0.6969
  680THF     C212929   2.465   1.620   5.193 -0.6434 -0.9732  0.1495
  680THF     C312930   2.351   1.818   5.158 -0.2513  0.2643  0.4600
  680THF     H412931   2.568   1.573   5.199  4.5778  0.3150 -0.7468
  680THF     H512932   2.395   1.555   5.140 -1.2516 -1.5079  0.6661
  680THF     H612933   2.362   1.925   5.167  1.8140 -1.0448 -0.0715
  680THF     H712934   2.291   1.802   5.073 -0.1076 -0.6275  1.4174
  680THF     C812935   2.297   1.752   5.286 -0.6059  0.0748 -1.4415
  680THF     C912936   2.413   1.661   5.325 -0.1623 -0.5102 -0.0780
  680THF    H1012937   2.198   1.701   5.279  0.2047 -1.7726  4.0268
  680THF    H1112938   2.287   1.834   5.368  0.5799  1.2441 -2.2148
  680THF    H1212939   2.489   1.713   5.371 -0.8401  1.7026 -0.1817
  680THF    H1312940   2.381   1.586   5.395 -2.3240 -0.9964 -0.5450
  681THF     O112941   4.620   4.260   5.232  0.1989  0.0910 -0.1858
  681THF     C212942   4.597   4.129   5.195  0.5479  0.4412 -0.0465
  681THF     C312943   4.495   4.327   5.210  0.6878 -0.2632  0.0691
  681THF     H412944   4.568   4.080   5.287  0.4842  1.3425 -0.3826
  681THF     H512945   4.697   4.083   5.175 -0.6782 -1.4982 -0.0964
  681THF     H612946   4.416   4.291   5.277  0.6357  0.6427  1.1677
  681THF     H712947   4.494   4.436   5.216 -0.8047  0.8116 -2.2583
  681THF     C812948   4.450   4.278   5.074 -0.7453  0.6992  0.4192
  681THF     C912949   4.488   4.127   5.080  0.1478 -0.0350 -0.2051
  681THF    H1012950   4.507   4.330   4.997  1.2593 -1.8764  0.8196
  681THF    H1112951   4.347   4.301   5.057  2.3602 -0.4051  3.0220
  681THF    H1212952   4.404   4.066   5.108 -1.4020  1.9994  0.7515
  681THF    H1312953   4.528   4.089   4.981  0.8495  1.5978 -1.4683
  682THF     O112954   5.168   3.805   2.017 -0.2543  0.2528 -0.5317
  682THF     C212955   5.037   3.827   2.074  0.5392  0.2217 -0.1714
  682THF     C312956   5.199   3.670   1.999  0.3274  1.0206  0.1920
  682THF     H412957   4.985   3.849   1.980 -2.2277  0.5407 -0.4293
  682THF     H512958   5.025   3.909   2.149 -2.1652  0.3993 -1.1164
  682THF     H612959   5.248   3.640   1.904  0.0239  0.4003  0.9776
  682THF     H712960   5.275   3.649   2.071  0.5430  0.2533  0.2327
  682THF     C812961   5.065   3.600   2.039  0.3163  0.3630  0.4277
  682THF     C912962   4.994   3.693   2.125  0.2405  0.0679 -0.7181
  682THF    H1012963   5.088   3.516   2.098 -0.1041  0.1890 -1.1335
  682THF    H1112964   5.005   3.583   1.956 -0.0126  1.1711  2.1011
  682THF    H1212965   4.890   3.668   2.122  0.7145  2.3663 -1.6718
  682THF    H1312966   5.039   3.671   2.220 -1.2647  1.8208  0.9607
  683THF     O112967   4.729   0.749   3.748  0.2210  0.3458  0.8987
  683THF     C212968   4.639   0.698   3.648 -0.1442  0.3566 -0.2448
  683THF     C312969   4.733   0.891   3.732 -0.5910  0.5097  1.3160
  683THF     H412970   4.577   0.618   3.686  0.1327 -2.2693  1.9116
  683THF     H512971   4.697   0.663   3.565 -0.1648 -1.5036  0.5346
  683THF     H612972   4.768   0.949   3.816 -2.5889  0.6346 -0.2804
  683THF     H712973   4.792   0.916   3.644  1.2672 -0.7163 -0.2872
  683THF     C812974   4.589   0.921   3.699 -0.2891  0.3003  0.9739
  683THF     C912975   4.548   0.812   3.608  0.5791 -0.1525  0.8078
  683THF    H1012976   4.578   1.018   3.656 -0.3599 -4.1373  2.5720
  683THF    H1112977   4.538   0.920   3.791  2.3962 -2.1852 -2.2847
  683THF    H1212978   4.442   0.782   3.617 -0.0259  0.5670 -0.5975
  683THF    H1312979   4.567   0.828   3.500 -0.9225  0.2257 -1.3050
  684THF     O112980   4.084   2.871   4.520  0.1207  0.1208  0.0708
  684THF     C212981   4.056   2.852   4.661 -0.6301  0.0800 -0.0854
  684THF     C312982   3.970   2.851   4.438 -0.4805 -0.2889 -0.3104
  684THF     H412983   4.061   2.950   4.724 -0.7532  3.9081  0.4987
  684THF     H512984   4.128   2.776   4.715  0.8103 -0.3291 -0.0581
  684THF     H612985   3.963   2.911   4.359  1.0814  1.8334  2.5206
  684THF     H712986   3.973   2.747   4.397 -2.2910 -2.6134  0.1666
  684THF     C812987   3.860   2.878   4.540 -0.8944 -0.2666 -0.4211
  684THF     C912988   3.915   2.807   4.664 -0.0321  0.0471 -0.6682
  684THF    H1012989   3.775   2.829   4.508  1.6330 -0.7408  1.7165
  684THF    H1112990   3.849   2.979   4.565  1.1869 -0.1564 -1.5783
  684THF    H1212991   3.870   2.839   4.755  0.7599  1.8112 -2.6972
  684THF    H1312992   3.907   2.699   4.657  2.1714 -0.3658  1.5469
  685THF     O112993   3.862   3.602   2.629  0.2887 -0.0417 -0.5384
  685THF     C212994   3.733   3.628   2.568  0.4993 -0.4234 -0.8144
  685THF     C312995   3.855   3.638   2.768  0.4333  0.8338 -0.3657
  685THF     H412996   3.709   3.571   2.477  0.5125 -1.8673 -0.8383
  685THF     H512997   3.728   3.736   2.547  0.5208  1.7144 -2.2126
  685THF     H612998   3.911   3.568   2.835 -0.7099  2.2466  0.9746
  685THF     H712999   3.897   3.744   2.776  0.1743  1.9144 -1.4684
  685THF     C813000   3.705   3.660   2.807 -0.2291 -0.0623 -0.1699
  685THF     C913001   3.637   3.602   2.683  0.4541  0.1997 -0.6174
  685THF    H1013002   3.697   3.772   2.800 -1.1983  0.1169 -1.5545
  685THF    H1113003   3.675   3.618   2.903  1.7270  0.5787 -0.3305
  685THF    H1213004   3.611   3.497   2.685  0.1247 -0.0529 -2.8371
  685THF    H1313005   3.535   3.643   2.659 -1.3686 -1.7583  0.2550
  686THF     O113006   5.068   2.013   5.444 -0.2947 -0.3447  0.9713
  686THF     C213007   4.959   1.926   5.424 -0.7192  0.4479  0.4743
  686THF     C313008   5.167   1.971   5.353  0.5916 -0.2066  0.3398
  686THF     H413009   4.901   1.956   5.338  0.0217  1.6499 -0.3626
  686THF     H513010   4.896   1.925   5.509  2.6907  0.2070 -0.6766
  686THF     H613011   5.132   2.014   5.258  1.9355 -3.1113 -1.3910
  686THF     H713012   5.266   2.007   5.379  2.1962  0.3134  1.3558
  686THF     C813013   5.156   1.821   5.346  0.4479  0.1614 -0.0224
  686THF     C913014   5.017   1.785   5.399 -0.0740  0.0443  0.8894
  686THF    H1013015   5.229   1.778   5.414 -0.7476  1.3921  2.8096
  686THF    H1113016   5.159   1.774   5.245 -2.0072 -1.8809 -0.8803
  686THF    H1213017   4.961   1.727   5.330 -1.2417  1.9285 -0.3825
  686THF    H1313018   5.022   1.728   5.492  0.7951 -0.8795 -1.6774
  687THF     O113019   0.680   1.109   5.131 -0.2437 -0.1910 -0.2218
  687THF     C213020   0.707   1.047   5.256  0.1589 -0.2273 -0.0815
  687THF     C313021   0.692   1.246   5.147  0.3005 -0.2069  0.7628
  687THF     H413022   0.810   1.015   5.265 -0.8206  0.1701  1.9658
  687THF     H513023   0.630   0.970   5.278 -3.0950  0.0914  0.2425
  687THF     H613024   0.807   1.254   5.141  1.3401 -1.2388 -1.0700
  687THF     H713025   0.648   1.307   5.065 -0.8717 -2.1145 -1.3500
  687THF     C813026   0.647   1.278   5.289 -0.4665  0.6464 -0.0727
  687THF     C913027   0.704   1.158   5.364 -0.0561  0.3297  0.1889
  687THF    H1013028   0.540   1.277   5.288  2.3991 -1.9293  0.9901
  687THF    H1113029   0.678   1.381   5.336 -0.4041  1.2508  2.3597
  687THF    H1213030   0.807   1.183   5.392 -0.3179  0.3400  1.0319
  687THF    H1313031   0.645   1.134   5.449 -0.4433  3.5618 -0.8655
  688THF     O113032   5.458   4.900   0.041 -0.4289  0.4226 -0.1291
  688THF     C213033   5.579   4.838   0.099  0.7487 -0.6053 -0.2047
  688THF     C313034   5.349   4.869   0.140 -0.3895  0.7712 -0.7034
  688THF     H413035   5.666   4.905   0.092 -0.2125  1.3812 -0.1566
  688THF     H513036   5.607   4.753   0.038  1.3463 -0.5856  3.1862
  688THF     H613037   5.271   4.947   0.150  0.7462  1.2519  2.5963
  688THF     H713038   5.316   4.770   0.103 -0.9183 -0.2496 -0.3959
  688THF     C813039   5.420   4.855   0.272 -0.6129  0.1427 -0.7676
  688THF     C913040   5.554   4.784   0.238  0.4281 -0.6804 -0.1307
  688THF    H1013041   5.369   4.789   0.346  0.6972 -0.8959 -1.5863
  688THF    H1113042   5.442   4.948   0.325  3.2835 -1.1293  3.3991
  688THF    H1213043   5.644   4.806   0.304  3.0222 -1.8995 -2.3878
  688THF    H1313044   5.535   4.678   0.243 -0.1605  0.3148  0.4131
  689THF     O113045   3.151   2.026   4.595 -0.4481 -0.0242  0.0283
  689THF     C213046   3.135   2.159   4.535 -0.9509  0.7775 -0.3067
  689THF     C313047   3.188   1.931   4.493 -0.1238 -0.4332 -0.3076
  689THF     H413048   3.232   2.217   4.533  0.3599  0.2579  0.4211
  689THF     H513049   3.061   2.208   4.600 -1.2818 -3.3769  1.1829
  689THF     H613050   3.295   1.922   4.483  1.5848 -1.7816  1.3835
  689THF     H713051   3.148   1.834   4.520 -1.7115  0.1444  0.6253
  689THF     C813052   3.129   1.983   4.366  0.8035  0.0190 -0.6750
  689THF     C913053   3.080   2.119   4.402 -0.3750 -0.5442  0.1112
  689THF    H1013054   3.051   1.927   4.321 -0.4745 -0.5275  1.4620
  689THF    H1113055   3.204   1.991   4.295 -0.8428 -0.0572  0.1621
  689THF    H1213056   3.109   2.193   4.329 -0.8082 -2.7269  1.3505
  689THF    H1313057   2.967   2.119   4.407 -1.7502  1.3548 -0.8858
  690THF     O113058   2.793   2.084   1.585  0.0904  0.3395  0.2695
  690THF     C213059   2.921   2.089   1.648  0.0794  0.3938 -0.4424
  690THF     C313060   2.710   1.990   1.653 -0.0470  0.3371  0.4935
  690THF     H413061   2.923   2.166   1.721 -0.6583  0.2546 -0.8044
  690THF     H513062   2.998   2.109   1.577 -0.5234  0.1826 -2.0791
  690THF     H613063   2.671   2.029   1.747 -0.0353  0.5668 -1.7712
  690THF     H713064   2.625   1.970   1.589  0.9868  1.4437  0.0152
  690THF     C813065   2.806   1.872   1.671  0.7161 -0.0525 -0.1037
  690THF     C913066   2.937   1.941   1.695 -0.0725 -0.0589  0.0955
  690THF    H1013067   2.809   1.795   1.587  0.1725 -0.7556  2.0154
  690THF    H1113068   2.773   1.801   1.756  0.5195 -0.0264  1.6806
  690THF    H1213069   2.945   1.937   1.804 -2.5828 -1.8209 -0.1398
  690THF    H1313070   3.028   1.899   1.656  0.2237  0.2811 -0.8147
  691THF     O113071   4.912   3.088   1.510 -0.3909  0.2653 -0.1733
  691THF     C213072   5.045   3.045   1.522  0.9042  0.0216 -0.1470
  691THF     C313073   4.883   3.163   1.628 -0.3478 -0.3547 -0.1682
  691THF     H413074   5.083   3.031   1.416 -3.0871  0.8801  0.3045
  691THF     H513075   5.049   2.953   1.582 -0.2126  0.6966 -1.2034
  691THF     H613076   4.810   3.241   1.624 -3.0361  0.9807  1.7554
  691THF     H713077   4.829   3.093   1.698  1.5766  0.4850  2.3929
  691THF     C813078   5.018   3.203   1.688  0.7076  0.0283  0.4803
  691THF     C913079   5.121   3.143   1.597  0.1881  0.1910  0.3129
  691THF    H1013080   5.032   3.155   1.784 -2.9602 -1.5772 -2.0757
  691THF    H1113081   5.033   3.312   1.703 -2.0987 -0.1064 -1.8776
  691THF    H1213082   5.145   3.222   1.524  3.4795 -1.1856 -3.1401
  691THF    H1313083   5.212   3.111   1.637 -0.3212  0.1438  0.3959
  692THF     O113084   2.048   4.231   3.281 -0.6784 -0.1814 -0.1458
  692THF     C213085   2.187   4.218   3.257  0.9295  0.6484 -0.1384
  692THF     C313086   2.002   4.345   3.213  0.2579 -0.0307 -0.3405
  692THF     H413087   2.206   4.142   3.186  0.8533  0.8708 -1.4785
  692THF     H513088   2.228   4.202   3.356 -2.6934 -1.5709 -2.0126
  692THF     H613089   1.986   4.311   3.117  2.0681 -0.1554  0.1956
  692THF     H713090   1.908   4.383   3.251 -3.0949 -0.1415 -1.4347
  692THF     C813091   2.113   4.450   3.207  0.3572  0.2616  0.7178
  692THF     C913092   2.233   4.355   3.204 -0.2102  0.4456 -0.2248
  692THF    H1013093   2.118   4.513   3.298  0.5527  1.3805 -0.4493
  692THF    H1113094   2.117   4.519   3.116 -1.0801  0.4982  1.4947
  692THF    H1213095   2.270   4.349   3.108 -0.3620  1.9397  1.7149
  692THF    H1313096   2.315   4.382   3.264  0.2563 -0.2684 -0.4521
  693THF     O113097   0.621   1.926   0.627 -0.3686 -0.3355  0.4942
  693THF     C213098   0.630   1.819   0.717 -0.3915  0.1943  0.0605
  693THF     C313099   0.520   1.916   0.531 -0.1509  0.4237 -0.4280
  693THF     H413100   0.667   1.845   0.819  1.2199 -0.6688  0.0396
  693THF     H513101   0.708   1.750   0.695  0.3459  0.2090 -2.1061
  693THF     H613102   0.449   1.998   0.532 -1.6383  2.7398  2.6812
  693THF     H713103   0.550   1.906   0.425  0.2483  0.2575 -0.1913
  693THF     C813104   0.455   1.781   0.573  0.8419  0.1126 -0.2356
  693THF     C913105   0.488   1.773   0.722 -0.0181 -0.3159 -0.0800
  693THF    H1013106   0.500   1.697   0.515  1.6335  0.4468 -0.0526
  693THF    H1113107   0.351   1.782   0.541 -0.6811  0.8407 -3.2510
  693THF    H1213108   0.433   1.842   0.788  0.5499 -1.1385 -0.8339
  693THF    H1313109   0.471   1.669   0.762 -0.4710 -0.5454 -1.2027
  694THF     O113110   1.334   2.887   4.989  0.5099  0.6481  0.6311
  694THF     C213111   1.274   2.820   4.879 -0.3683  0.2588 -0.3601
  694THF     C313112   1.455   2.940   4.934  0.2867  0.0418 -0.0054
  694THF     H413113   1.242   2.893   4.800 -2.5850  1.1414 -0.7156
  694THF     H513114   1.188   2.762   4.915 -2.7129  1.8245  0.8260
  694THF     H613115   1.441   3.047   4.886 -1.1635 -2.1897  2.4155
  694THF     H713116   1.529   2.945   5.016 -0.0943 -0.1413 -1.2208
  694THF     C813117   1.507   2.822   4.845 -0.5656 -0.1098 -0.2299
  694THF     C913118   1.386   2.733   4.821 -0.6360  0.5285 -0.3471
  694THF    H1013119   1.591   2.776   4.905  0.7932  0.7047 -4.5031
  694THF    H1113120   1.558   2.859   4.757  0.5324  0.0178  0.0428
  694THF    H1213121   1.368   2.718   4.718  1.3202  1.1733 -0.7298
  694THF    H1313122   1.399   2.643   4.875  0.4096 -0.6840 -1.1768
  695THF     O113123   3.288   2.381   2.355 -0.0724  0.1990 -0.6562
  695THF     C213124   3.409   2.307   2.361 -0.0367 -0.0599  0.8389
  695THF     C313125   3.261   2.407   2.216 -0.0075 -0.3592 -0.3037
  695THF     H413126   3.395   2.204   2.334  3.7050  2.2057 -1.0311
  695THF     H513127   3.436   2.310   2.463  0.6329 -0.3528 -3.0106
  695THF     H613128   3.185   2.335   2.183  1.7177 -0.2641  0.6544
  695THF     H713129   3.229   2.509   2.205 -0.6235 -1.7524 -1.5814
  695THF     C813130   3.394   2.390   2.140 -0.4266 -0.0788  0.3802
  695THF     C913131   3.496   2.380   2.258 -0.0473  1.0579  0.7260
  695THF    H1013132   3.407   2.470   2.069 -1.0415 -0.5694  1.6378
  695THF    H1113133   3.408   2.302   2.078  3.5818 -0.6727  1.1808
  695THF    H1213134   3.588   2.327   2.235  0.4191 -1.2280  0.9027
  695THF    H1313135   3.503   2.477   2.295 -3.3212 -2.4534 -1.5047
  696THF     O113136   3.624   4.265   3.466  0.1859  0.3101  0.2047
  696THF     C213137   3.755   4.321   3.472 -0.3047  0.3042 -0.3902
  696THF     C313138   3.624   4.183   3.346 -0.0179  1.2166  0.1180
  696THF     H413139   3.776   4.351   3.570 -0.7972  0.4378 -2.5028
  696THF     H513140   3.765   4.405   3.404  2.4459 -0.1746 -1.9437
  696THF     H613141   3.562   4.092   3.349  1.7820  0.9956 -2.9023
  696THF     H713142   3.593   4.231   3.253 -0.0122  1.7847  0.3079
  696THF     C813143   3.762   4.125   3.325 -0.2990 -0.0313  0.5134
  696THF     C913144   3.849   4.210   3.421  0.1351 -0.1946 -0.2642
  696THF    H1013145   3.784   4.137   3.221  0.5897 -0.5836  1.7556
  696THF    H1113146   3.761   4.023   3.357 -0.1227  1.3902 -2.4337
  696THF    H1213147   3.870   4.144   3.509  0.9513 -1.1155  2.1992
  696THF    H1313148   3.935   4.243   3.368 -2.5357  0.6143 -1.2765
  697THF     O113149   1.601   4.281   5.101  0.2359  0.7634 -0.2016
  697THF     C213150   1.518   4.384   5.142 -0.5497  1.1860 -0.0613
  697THF     C313151   1.615   4.188   5.208  0.1019  0.4333 -0.4416
  697THF     H413152   1.481   4.433   5.053  1.0774  0.7190 -2.3276
  697THF     H513153   1.574   4.448   5.216 -1.2843 -0.2465  1.4115
  697THF     H613154   1.624   4.082   5.173  0.3083 -0.1650  0.6520
  697THF     H713155   1.705   4.227   5.263  1.2999 -2.0808  1.5782
  697THF     C813156   1.487   4.214   5.292 -0.1117 -0.6140 -1.6075
  697THF     C913157   1.409   4.313   5.212  0.3804 -0.0318  0.7507
  697THF    H1013158   1.498   4.235   5.403  2.1407  1.5036  0.5465
  697THF    H1113159   1.432   4.124   5.292  2.9035  3.2080 -0.8853
  697THF    H1213160   1.350   4.260   5.143  1.9303 -1.1728 -0.1463
  697THF    H1313161   1.363   4.379   5.281  1.0513 -1.2440  1.6087
  698THF     O113162   4.473   2.981   1.561  0.1379  0.0242 -0.5826
  698THF     C213163   4.599   2.979   1.486  0.2189  0.1483  0.2492
  698THF     C313164   4.388   2.887   1.507 -0.9174 -0.0396 -0.1011
  698THF     H413165   4.669   2.906   1.528 -2.5843  0.6532 -2.8549
  698THF     H513166   4.635   3.075   1.502 -2.3169 -1.4666  0.3223
  698THF     H613167   4.405   2.784   1.538 -4.0557 -3.1958  0.7776
  698THF     H713168   4.288   2.897   1.535 -0.5425 -0.2865  0.9303
  698THF     C813169   4.399   2.909   1.361 -0.0014  0.4010  0.4449
  698THF     C913170   4.546   2.946   1.350  0.9117 -0.2902  0.7004
  698THF    H1013171   4.351   2.999   1.343  2.8185 -0.9890  0.3489
  698THF    H1113172   4.366   2.831   1.294 -1.6571  2.5559  0.7134
  698THF    H1213173   4.583   2.853   1.310 -2.9191 -0.7109  0.7900
  698THF    H1313174   4.576   3.030   1.285 -2.3575  0.1955  2.4382
  699THF     O113175   0.350   4.128   0.848 -0.2473  0.2873  0.2240
  699THF     C213176   0.227   4.061   0.866  0.4923  0.0407 -0.4232
  699THF     C313177   0.404   4.089   0.722  0.1152  0.1176 -0.2035
  699THF     H413178   0.175   4.091   0.957 -0.1481 -0.7764  1.6788
  699THF     H513179   0.236   3.955   0.862  0.5671  2.2528 -2.6989
  699THF     H613180   0.493   4.146   0.684 -0.5725 -1.3333  2.1134
  699THF     H713181   0.446   3.985   0.710  0.5006 -3.3691  0.2062
  699THF     C813182   0.279   4.099   0.635  0.2509 -0.6073  0.9048
  699THF     C913183   0.165   4.109   0.738  0.2171 -0.4989  0.0317
  699THF    H1013184   0.269   4.017   0.573 -0.7990  1.1445  0.3938
  699THF    H1113185   0.295   4.187   0.566 -0.9041  1.3535 -0.5370
  699THF    H1213186   0.147   4.212   0.754  0.4283 -0.1530  0.0445
  699THF    H1313187   0.071   4.056   0.706 -0.9768  0.1378  1.5624
  700THF     O113188   3.821   3.372   4.770  0.5927  0.0462  0.3408
  700THF     C213189   3.887   3.264   4.701 -0.5308  0.1367 -0.3511
  700THF     C313190   3.896   3.492   4.738  0.1012 -0.1603 -0.7147
  700THF     H413191   3.847   3.228   4.610  0.9218  0.1891  3.4760
  700THF     H513192   3.894   3.175   4.780 -0.9014  1.0439  3.2613
  700THF     H613193   3.872   3.539   4.648  0.6779 -0.2762  2.6677
  700THF     H713194   3.881   3.563   4.819  0.2365 -0.2727 -2.9641
  700THF     C813195   4.042   3.452   4.726 -0.1899 -0.8750 -0.6496
  700THF     C913196   4.032   3.307   4.665  0.3932  0.0799 -0.6431
  700THF    H1013197   4.095   3.448   4.819  0.7546  2.2815  0.1343
  700THF    H1113198   4.088   3.518   4.654 -0.9200 -0.2857  0.8082
  700THF    H1213199   4.047   3.308   4.556 -0.0355 -1.0470 -0.0753
  700THF    H1313200   4.102   3.240   4.714  0.3784 -0.0874 -2.4427
  701THF     O113201   0.415   2.057   4.313 -0.6119 -0.5863  0.7738
  701THF     C213202   0.335   2.108   4.412 -0.3670 -0.7764  0.0379
  701THF     C313203   0.545   2.109   4.336 -0.0930 -0.0420 -0.3217
  701THF     H413204   0.360   2.060   4.513 -0.6418  1.2595  0.8489
  701THF     H513205   0.235   2.105   4.373  1.8136  1.5284 -0.0719
  701THF     H613206   0.598   2.057   4.421 -1.4473  0.1588  2.2570
  701THF     H713207   0.604   2.096   4.244 -0.7203  1.7571  1.3143
  701THF     C813208   0.521   2.252   4.374  0.1563 -0.7621  0.1245
  701THF     C913209   0.375   2.254   4.427  0.7824 -0.1115  0.0203
  701THF    H1013210   0.527   2.314   4.285 -1.5599 -1.2843 -0.1978
  701THF    H1113211   0.587   2.291   4.448 -1.1930  1.0589  1.7958
  701THF    H1213212   0.371   2.295   4.530  1.0098 -0.9799 -0.9252
  701THF    H1313213   0.319   2.322   4.359 -0.6529 -0.7011 -1.5069
  702THF     O113214   4.924   1.792   2.390  0.2504  0.4380  0.7120
  702THF     C213215   4.786   1.817   2.375 -0.2067 -0.1910 -0.1205
  702THF     C313216   4.993   1.909   2.411  0.0773  0.6681 -0.0464
  702THF     H413217   4.733   1.842   2.467 -0.8680  0.0956  0.9638
  702THF     H513218   4.722   1.738   2.334  0.2407 -0.9899 -1.8615
  702THF     H613219   4.990   1.957   2.512 -1.0494 -2.2430  1.5981
  702THF     H713220   5.099   1.904   2.389 -2.3589 -0.1382  0.0645
  702THF     C813221   4.931   1.996   2.305  0.2196 -0.5213 -0.3790
  702THF     C913222   4.790   1.947   2.287 -0.1602 -0.2707 -0.6755
  702THF    H1013223   4.985   1.976   2.213  1.5789  0.2074  0.1583
  702THF    H1113224   4.937   2.101   2.318 -0.8318 -0.1312 -0.8831
  702THF    H1213225   4.721   2.022   2.321 -0.2738 -0.3776 -0.0594
  702THF    H1313226   4.765   1.935   2.178 -3.0292  0.8090 -3.2777
  703THF     O113227   3.509   1.138   3.487 -0.4666  1.0452  0.0143
  703THF     C213228   3.468   1.233   3.388  0.5429 -0.3792  0.7479
  703THF     C313229   3.497   1.009   3.433 -0.0366  0.8002  0.1315
  703THF     H413230   3.546   1.308   3.383 -1.2468 -0.4948  1.6189
  703THF     H513231   3.379   1.284   3.428 -0.1016 -1.3967 -1.5583
  703THF     H613232   3.592   0.959   3.460  0.1727 -1.9772  0.9680
  703THF     H713233   3.407   0.962   3.472 -0.1153 -2.8598 -0.7789
  703THF     C813234   3.491   1.026   3.284 -0.4881  0.0912  0.1204
  703THF     C913235   3.436   1.163   3.260 -0.2525 -0.5853  0.3750
  703THF    H1013236   3.442   0.947   3.219  0.3489 -1.6876  0.8029
  703THF    H1113237   3.591   1.029   3.235  0.9145 -2.1375 -3.9709
  703THF    H1213238   3.491   1.213   3.173  0.8146 -0.4222 -3.0457
  703THF    H1313239   3.329   1.147   3.236  0.1929 -0.1158 -0.3921
  704THF     O113240   0.734   1.646   4.921  0.1265  0.4511 -0.5542
  704THF     C213241   0.628   1.746   4.912  0.2708  0.0677 -0.4114
  704THF     C313242   0.756   1.624   5.061 -0.4881  0.3944 -0.0332
  704THF     H413243   0.581   1.766   4.817 -0.0564 -1.1237 -1.1811
  704THF     H513244   0.673   1.841   4.938 -1.9527 -0.4146 -0.3642
  704THF     H613245   0.794   1.520   5.078  2.7699  2.2695 -0.1727
  704THF     H713246   0.831   1.689   5.102  0.3662  2.4673  0.8603
  704THF     C813247   0.624   1.653   5.136  0.0592 -0.6426 -0.0152
  704THF     C913248   0.532   1.705   5.022 -0.3441 -0.4106 -0.3185
  704THF    H1013249   0.630   1.729   5.213  0.4906  0.1033  0.9833
  704THF    H1113250   0.579   1.565   5.183  1.0845 -1.1651  0.9128
  704THF    H1213251   0.473   1.614   4.982  0.6104  0.4946  0.9854
  704THF    H1313252   0.470   1.780   5.063 -1.3273 -4.7366  0.2805
  705THF     O113253   2.837   4.500   2.978 -0.8114  0.2075 -0.1872
  705THF     C213254   2.765   4.486   2.852 -0.2245 -0.1444  0.5768
  705THF     C313255   2.761   4.439   3.083  0.0363 -0.5475  0.6923
  705THF     H413256   2.797   4.394   2.804 -1.5059 -0.7997 -2.4507
  705THF     H513257   2.785   4.560   2.777  0.6507 -1.9147 -0.6290
  705THF     H613258   2.807   4.339   3.087  1.8724  1.8347 -1.1035
  705THF     H713259   2.773   4.499   3.180 -0.9346 -1.1575  2.0646
  705THF     C813260   2.618   4.439   3.039 -0.7559  0.3204  0.1854
  705THF     C913261   2.614   4.481   2.897 -1.2585  0.4470  0.0535
  705THF    H1013262   2.548   4.492   3.106 -1.3958  0.7238 -1.8448
  705THF    H1113263   2.591   4.328   3.049  0.4081 -0.2013 -0.7947
  705THF    H1213264   2.545   4.412   2.835 -1.4554 -1.0602 -0.5724
  705THF    H1313265   2.563   4.575   2.899  0.8948 -1.8523 -1.0930
  706THF     O113266   0.965   2.241   3.958  0.3737  0.0125  0.1489
  706THF     C213267   0.843   2.311   3.990  0.1927  0.7194 -0.2489
  706THF     C313268   0.998   2.245   3.818 -0.3876 -0.2264 -0.4721
  706THF     H413269   0.852   2.410   4.039 -1.6153 -1.8034  0.9433
  706THF     H513270   0.787   2.238   4.053 -0.3461  0.7987  3.5688
  706THF     H613271   1.043   2.342   3.801  0.0634  3.4864 -2.6986
  706THF     H713272   1.070   2.171   3.798  1.8469 -0.1851 -2.6714
  706THF     C813273   0.865   2.239   3.758 -0.3439  0.4378  0.0877
  706THF     C913274   0.779   2.318   3.848  0.4653 -0.4983  0.0367
  706THF    H1013275   0.834   2.140   3.764  2.5821  0.1693 -1.6661
  706THF    H1113276   0.855   2.273   3.654  0.2927  1.1892  0.9378
  706THF    H1213277   0.786   2.423   3.813  0.2414 -2.4303  0.1612
  706THF    H1313278   0.677   2.282   3.856  0.3748  2.3338  0.2678
  707THF     O113279   0.820   1.033   2.751  0.2982 -0.6294 -0.2188
  707THF     C213280   0.894   0.921   2.754  1.3861 -0.7196  0.0763
  707THF     C313281   0.898   1.139   2.808 -0.0709 -0.0044 -0.0927
  707THF     H413282   0.957   0.932   2.660  2.1450 -0.5925 -0.0212
  707THF     H513283   0.828   0.833   2.753  0.4957 -0.4621  1.8753
  707THF     H613284   0.967   1.186   2.738 -2.1128 -0.0958 -2.0014
  707THF     H713285   0.831   1.213   2.835 -1.4291 -1.4889  0.0857
  707THF     C813286   0.974   1.068   2.924 -0.4964  0.4580 -0.7374
  707THF     C913287   0.984   0.924   2.877 -0.2689 -0.3454  0.0390
  707THF    H1013288   0.923   1.081   3.014  0.4447  0.8201  0.5166
  707THF    H1113289   1.072   1.115   2.944 -1.3300  0.2904 -1.4888
  707THF    H1213290   1.086   0.901   2.845 -1.5343  1.8476 -1.0579
  707THF    H1313291   0.939   0.848   2.949  2.1964 -0.8775  2.3944
  708THF     O113292   0.663   1.819   1.596 -0.3765  0.3960  0.3220
  708THF     C213293   0.524   1.857   1.579  0.3084 -0.2928  0.4727
  708THF     C313294   0.673   1.750   1.725 -0.2313  0.2722  0.0944
  708THF     H413295   0.493   1.874   1.467 -0.3037  1.1100 -0.7851
  708THF     H513296   0.497   1.942   1.640 -0.1450  0.6895 -1.6619
  708THF     H613297   0.759   1.680   1.724 -0.3613 -2.5785 -0.9553
  708THF     H713298   0.698   1.826   1.809 -1.0052  3.3393 -0.5904
  708THF     C813299   0.540   1.681   1.740  0.4360  0.0190  0.1603
  708THF     C913300   0.450   1.735   1.626 -0.3029  0.3067  0.0063
  708THF    H1013301   0.495   1.689   1.842  3.5002  0.5371  1.0893
  708THF    H1113302   0.554   1.574   1.726 -1.4406  1.6772  3.2195
  708THF    H1213303   0.442   1.651   1.554  1.0002 -0.9754 -0.3976
  708THF    H1313304   0.356   1.760   1.656  1.8195 -1.6479  0.4879
  709THF     O113305   0.452   4.139   5.113  0.3269  0.4226 -0.4515
  709THF     C213306   0.335   4.083   5.175  0.5341  0.3426 -0.3299
  709THF     C313307   0.402   4.181   4.985  0.4179  0.2401  0.5099
  709THF     H413308   0.264   4.158   5.205 -2.7757  0.2447 -1.0206
  709THF     H513309   0.333   4.015   5.261 -1.8576  0.5393 -1.3549
  709THF     H613310   0.350   4.285   4.987  1.7597  3.2008 -2.5160
  709THF     H713311   0.481   4.208   4.910  3.0773  0.1593  0.0309
  709THF     C813312   0.307   4.072   4.941  0.2770  0.1640 -0.0793
  709THF     C913313   0.285   3.993   5.067  0.0068  0.3100 -0.4766
  709THF    H1013314   0.321   4.022   4.845  0.4453  0.0353 -0.1748
  709THF    H1113315   0.210   4.116   4.926  1.3771 -1.9070 -1.5213
  709THF    H1213316   0.174   3.983   5.085  0.6225  1.0966 -3.1302
  709THF    H1313317   0.332   3.895   5.071  0.1779 -0.5382 -0.4383
  710THF     O113318   5.099   2.516   2.037 -0.1331  0.2163 -0.5535
  710THF     C213319   5.111   2.380   2.057  0.0310 -0.3222  0.2377
  710THF     C313320   4.994   2.562   2.118 -0.0907 -0.6677 -0.5467
  710THF     H413321   5.145   2.368   2.159 -0.2080 -1.3980  2.0747
  710THF     H513322   5.169   2.324   1.983  2.8171  0.2185  0.2978
  710THF     H613323   5.034   2.605   2.212 -2.6906 -0.9542  0.6519
  710THF     H713324   4.943   2.651   2.068 -1.4000  1.3301 -2.6939
  710THF     C813325   4.894   2.446   2.124  0.2872  0.7581  0.0821
  710THF     C913326   4.963   2.340   2.044  0.3573  0.2206  0.5476
  710THF    H1013327   4.804   2.478   2.073  0.0652  1.0507 -2.0123
  710THF    H1113328   4.878   2.419   2.233  0.8529 -1.0684 -0.3130
  710THF    H1213329   4.950   2.244   2.086 -1.7593  1.1624  0.9690
  710THF    H1313330   4.932   2.347   1.940  0.6064  0.5683 -0.7981
  711THF     O113331   0.686   0.020   1.155  0.4211 -0.6173  0.2361
  711THF     C213332   0.787   0.116   1.174 -0.1568  0.0886  0.1134
  711THF     C313333   0.691  -0.073   1.271  0.5015 -1.0848  0.2277
  711THF     H413334   0.746   0.202   1.129  0.6514  0.5341  0.1446
  711THF     H513335   0.884   0.072   1.134  3.7737  0.4339 -2.1976
  711THF     H613336   0.600  -0.136   1.285 -1.2799  1.2140 -0.0974
  711THF     H713337   0.791  -0.128   1.260  3.1490  1.6077 -2.1821
  711THF     C813338   0.714   0.020   1.388  0.1237 -0.2338 -0.3780
  711THF     C913339   0.791   0.140   1.331 -0.2547 -0.0769  0.3616
  711THF    H1013340   0.762  -0.031   1.472 -0.4537 -1.7123 -0.4980
  711THF    H1113341   0.612   0.051   1.417  0.6023 -0.4647  1.1619
  711THF    H1213342   0.730   0.227   1.351  1.1457 -1.5360 -0.5980
  711THF    H1313343   0.891   0.152   1.375  1.2823 -1.2338  0.8170
  712THF     O113344   0.870   1.652   0.286 -0.0515  1.0475 -0.0230
  712THF     C213345   0.994   1.720   0.262  0.1157  0.0285  0.3987
  712THF     C313346   0.782   1.720   0.375 -0.0283 -0.2203  0.1916
  712THF     H413347   1.040   1.702   0.164  0.0256 -2.5429  0.4973
  712THF     H513348   1.074   1.702   0.332 -0.0481 -0.8640 -2.2976
  712THF     H613349   0.687   1.742   0.324  2.1690  1.1515  0.4168
  712THF     H713350   0.765   1.673   0.468 -0.6937  0.3545  2.2136
  712THF     C813351   0.857   1.855   0.400 -0.0012 -0.2523 -0.2932
  712THF     C913352   0.959   1.863   0.286 -0.0102 -0.0019 -0.6897
  712THF    H1013353   0.913   1.845   0.495 -0.4335 -0.4397  0.4924
  712THF    H1113354   0.782   1.936   0.400 -0.2243 -2.8601  0.0133
  712THF    H1213355   0.919   1.911   0.203  0.2019 -4.2258 -3.5833
  712THF    H1313356   1.046   1.924   0.311 -2.1193 -0.1155  1.1888
  713THF     O113357   5.451   2.916   2.480  0.5349 -0.1684 -0.0326
  713THF     C213358   5.517   2.833   2.581 -0.0081 -0.4323  0.4172
  713THF     C313359   5.536   3.025   2.472 -0.0633  0.3740 -0.0488
  713THF     H413360   5.474   2.734   2.589 -0.7972 -0.9019 -0.1795
  713THF     H513361   5.511   2.866   2.687  1.0736 -0.5699  0.2017
  713THF     H613362   5.522   3.082   2.377 -4.0697  0.6743 -4.1339
  713THF     H713363   5.517   3.100   2.552 -2.4329  0.8499  1.7381
  713THF     C813364   5.682   2.976   2.485 -0.8895 -0.4538 -0.1835
  713THF     C913365   5.663   2.838   2.529  0.3511  0.6216  0.3135
  713THF    H1013366   5.736   3.041   2.556 -1.7111  1.0478  0.7694
  713THF    H1113367   5.740   2.984   2.388  0.3709 -0.4575 -2.4827
  713THF    H1213368   5.676   2.764   2.451  1.0982  2.7017 -1.3318
  713THF    H1313369   5.734   2.818   2.608 -1.2783 -1.0451  0.6455
  714THF     O113370   0.591   4.385   4.163 -0.1682  0.7279  0.1413
  714THF     C213371   0.628   4.298   4.055  0.2452 -0.1043  0.4661
  714THF     C313372   0.509   4.305   4.255 -0.3909 -0.4523  0.5261
  714THF     H413373   0.723   4.315   4.007 -1.4548 -2.4701 -1.6543
  714THF     H513374   0.553   4.306   3.984  1.0582  1.0309  0.6451
  714THF     H613375   0.542   4.300   4.357 -0.0342 -0.3859  1.5112
  714THF     H713376   0.400   4.323   4.247  3.8538  0.2328 -1.2805
  714THF     C813377   0.526   4.160   4.214 -0.7421  0.0819  1.1801
  714THF     C913378   0.640   4.160   4.121  0.2174 -0.3365  0.0546
  714THF    H1013379   0.434   4.132   4.173 -0.3931  0.2249 -0.2641
  714THF    H1113380   0.537   4.089   4.293 -1.1007 -0.9186  1.7515
  714THF    H1213381   0.733   4.144   4.174 -1.8393  1.6824  1.1954
  714THF    H1313382   0.640   4.083   4.042  0.4809  0.5108  2.4246
  715THF     O113383   0.344   0.835   0.848  0.7204  0.0783 -0.2103
  715THF     C213384   0.246   0.729   0.847 -0.5267  0.2132 -1.0507
  715THF     C313385   0.299   0.941   0.767 -0.2467 -0.1623  0.1885
  715THF     H413386   0.218   0.703   0.953  0.8791  4.4259  2.0811
  715THF     H513387   0.281   0.641   0.795 -0.3282 -2.9471 -0.9444
  715THF     H613388   0.331   1.046   0.787 -0.9736 -2.2758  1.6593
  715THF     H713389   0.331   0.922   0.661  1.1458 -1.6303 -1.0685
  715THF     C813390   0.151   0.936   0.783 -0.3637  0.1024 -0.4951
  715THF     C913391   0.126   0.788   0.779 -0.6085  0.9128  0.4815
  715THF    H1013392   0.108   0.995   0.707 -1.8602 -0.7043 -0.1699
  715THF    H1113393   0.127   0.984   0.877 -0.1203 -0.7983 -0.1320
  715THF    H1213394   0.040   0.763   0.833 -1.4983  3.3725  1.0704
  715THF    H1313395   0.109   0.757   0.681 -0.8966 -0.2359  2.4806
  716THF     O113396   1.166   0.833   1.402 -0.9708 -0.1201 -0.6831
  716THF     C213397   1.168   0.970   1.427 -0.4576 -0.2951 -0.5068
  716THF     C313398   1.153   0.757   1.528  0.4081 -0.1377  1.2100
  716THF     H413399   1.144   1.042   1.343  1.5035 -1.0696 -2.3949
  716THF     H513400   1.253   1.016   1.478 -0.6391  0.3724 -0.6472
  716THF     H613401   1.104   0.663   1.503 -0.6560 -0.3197 -0.7344
  716THF     H713402   1.260   0.743   1.568  1.1587  1.4405  0.2825
  716THF     C813403   1.063   0.848   1.610 -0.3200 -0.5251  0.1957
  716THF     C913404   1.061   0.976   1.527 -0.0321  0.0112 -0.1132
  716THF    H1013405   1.101   0.854   1.711  0.3026 -2.9450  0.6920
  716THF    H1113406   0.966   0.805   1.613  0.0778 -0.2449 -1.3653
  716THF    H1213407   0.964   0.991   1.479 -0.3561  0.3887 -1.0582
  716THF    H1313408   1.068   1.060   1.590 -0.5622 -2.2400  1.7234
  717THF     O113409   1.436   5.133   1.912 -0.2959  0.0250  0.2482
  717THF     C213410   1.314   5.127   1.846 -0.6653  0.0439  0.2439
  717THF     C313411   1.488   5.002   1.942  0.3221  0.0995  0.3652
  717THF     H413412   1.316   5.081   1.742  1.6319  1.3505 -0.7415
  717THF     H513413   1.254   5.221   1.852  0.5056  2.3261  1.8006
  717THF     H613414   1.551   4.954   1.866 -1.1393  0.3244 -0.7653
  717THF     H713415   1.546   5.016   2.025 -0.0327  0.0551 -1.3820
  717THF     C813416   1.361   4.926   1.974  0.0549  0.0534  0.3491
  717THF     C913417   1.254   5.031   1.944  0.3083  0.7069 -0.2808
  717THF    H1013418   1.359   4.899   2.080  0.4564  2.5503  0.3096
  717THF    H1113419   1.360   4.833   1.918  0.7696  2.4946  0.0870
  717THF    H1213420   1.159   4.992   1.902  3.4806  1.5617 -1.4819
  717THF    H1313421   1.222   5.088   2.036 -1.1822 -1.7389  0.7544
  718THF     O113422   0.035   1.928   5.393  0.0592 -0.2302  0.0545
  718THF     C213423   0.096   1.919   5.263 -1.0911  0.3209  0.0391
  718THF     C313424   0.021   1.800   5.450  0.1699 -0.2185  0.1260
  718THF     H413425   0.169   1.999   5.260  0.1917  0.7244  0.1609
  718THF     H513426   0.028   1.951   5.191  1.2250  2.7177 -0.1424
  718THF     H613427   0.088   1.801   5.541  0.3643  2.4422  2.5014
  718THF     H713428  -0.073   1.779   5.496  3.0714  0.2669 -1.1628
  718THF     C813429   0.057   1.699   5.348 -0.2297 -0.1215 -0.4682
  718THF     C913430   0.148   1.777   5.254  0.0473  0.7908  0.2783
  718THF    H1013431  -0.025   1.654   5.299 -1.6958  0.4309  1.0797
  718THF    H1113432   0.105   1.614   5.405  2.7494 -0.4262  1.5991
  718THF    H1213433   0.254   1.759   5.286 -0.1139  1.7467 -0.0767
  718THF    H1313434   0.140   1.755   5.145  0.7297 -2.9270 -0.7412
  719THF     O113435   0.412   4.766   4.410  0.8664 -0.3463 -0.0228
  719THF     C213436   0.328   4.665   4.360 -0.2219  0.0129  0.5794
  719THF     C313437   0.431   4.867   4.308 -0.1741 -0.3519  0.1311
  719THF     H413438   0.280   4.600   4.436  1.6465  3.1420 -0.6952
  719THF     H513439   0.377   4.601   4.283  0.9026  1.8363 -2.5921
  719THF     H613440   0.457   4.963   4.344  0.3739  0.1492  0.2825
  719THF     H713441   0.508   4.831   4.242  1.5687  1.2808 -0.1762
  719THF     C813442   0.297   4.867   4.239 -0.0485 -0.2467  1.0237
  719THF     C913443   0.223   4.753   4.294  0.1462 -0.4950 -1.0155
  719THF    H1013444   0.322   4.844   4.133 -0.7281  1.8287  2.8137
  719THF    H1113445   0.242   4.959   4.241 -0.1149  0.8184  2.0376
  719THF    H1213446   0.144   4.799   4.359 -1.9244  0.6265 -1.1903
  719THF    H1313447   0.158   4.696   4.219 -1.8643  1.2394  1.4715
  720THF     O113448   1.544   2.725   3.203 -0.5596  0.2783  0.8569
  720THF     C213449   1.632   2.832   3.152  0.0168  0.0365  0.0477
  720THF     C313450   1.600   2.686   3.326  0.8607  0.2092  0.1265
  720THF     H413451   1.599   2.917   3.214 -1.3071 -0.8249  2.0037
  720THF     H513452   1.617   2.871   3.047 -0.1443 -0.4458  0.4177
  720THF     H613453   1.579   2.762   3.410 -2.1427  1.3347  1.0026
  720THF     H713454   1.552   2.591   3.344 -2.5976 -2.8756 -2.6708
  720THF     C813455   1.742   2.673   3.290  0.2304  0.3689 -0.2276
  720THF     C913456   1.768   2.776   3.177  0.2445 -0.5527  0.5094
  720THF    H1013457   1.762   2.576   3.254  1.9579  2.3063 -1.1273
  720THF    H1113458   1.806   2.698   3.375  4.4917  2.4837 -2.8265
  720THF    H1213459   1.842   2.844   3.206 -1.6665  0.0754 -0.6662
  720THF    H1313460   1.805   2.713   3.091 -2.6750 -0.2067 -0.1076
  721THF     O113461   3.648   0.495   0.872  0.4993 -0.0108 -0.1383
  721THF     C213462   3.752   0.547   0.951  0.2548 -0.3590  0.1321
  721THF     C313463   3.696   0.380   0.800 -0.3868  0.2907 -0.4201
  721THF     H413464   3.714   0.543   1.054  0.1987  0.6134 -0.2698
  721THF     H513465   3.761   0.652   0.929 -3.8492 -1.2020 -1.3037
  721THF     H613466   3.635   0.291   0.803  1.0382 -1.8708  1.8221
  721THF     H713467   3.701   0.410   0.693  0.1809 -3.9904  0.7546
  721THF     C813468   3.828   0.340   0.869  0.2360  0.6711  0.0356
  721THF     C913469   3.878   0.466   0.934  0.8642 -0.0840  0.3376
  721THF    H1013470   3.906   0.302   0.794 -2.0421 -1.9217 -0.3884
  721THF    H1113471   3.800   0.270   0.947 -1.0506 -1.7583 -0.3013
  721THF    H1213472   3.927   0.452   1.035  2.5220  0.7391  0.7156
  721THF    H1313473   3.945   0.515   0.859 -0.4633  1.7138  1.6151
  722THF     O113474   2.249   1.061   5.365  0.0051 -0.1946  0.0199
  722THF     C213475   2.235   1.149   5.254 -0.0626  0.0162  0.2671
  722THF     C313476   2.388   1.063   5.386  0.1677  0.1011  0.1857
  722THF     H413477   2.129   1.168   5.224 -1.9992  0.6783  2.3497
  722THF     H513478   2.280   1.101   5.169 -1.8222  0.1984 -2.3556
  722THF     H613479   2.409   1.031   5.487  0.4019  0.5319  0.2717
  722THF     H713480   2.430   0.999   5.302 -0.2541 -0.6001  0.5783
  722THF     C813481   2.433   1.215   5.372 -1.2159  0.4615 -0.0930
  722THF     C913482   2.316   1.270   5.291 -0.3393 -0.4617 -0.0367
  722THF    H1013483   2.525   1.220   5.315  1.2644 -0.7846 -2.1775
  722THF    H1113484   2.454   1.271   5.465  1.6346 -1.3700 -0.4852
  722THF    H1213485   2.262   1.329   5.368 -2.9298  0.2434  2.3262
  722THF    H1313486   2.332   1.329   5.200 -1.4619  1.3967  0.1459
  723THF     O113487   0.691   3.412   3.178  0.1449 -0.0463  0.0985
  723THF     C213488   0.663   3.551   3.211  0.6035  0.5193 -0.0582
  723THF     C313489   0.583   3.356   3.102 -0.7900  0.6469 -0.3400
  723THF     H413490   0.753   3.607   3.227  1.3427  2.2290 -0.9484
  723THF     H513491   0.604   3.550   3.299 -0.5237  0.7126  0.8435
  723THF     H613492   0.612   3.261   3.052  0.4173 -0.3084 -0.5347
  723THF     H713493   0.504   3.333   3.171 -2.2006 -1.4968  0.4643
  723THF     C813494   0.535   3.473   3.020 -0.3484  0.2659  1.1474
  723THF     C913495   0.562   3.599   3.102 -0.5428 -0.2912 -0.0577
  723THF    H1013496   0.428   3.456   3.001  2.4226 -0.5044 -2.1617
  723THF    H1113497   0.599   3.468   2.930  2.4635  0.2992  1.2781
  723THF    H1213498   0.606   3.674   3.036  4.1052 -1.4578 -0.6030
  723THF    H1313499   0.468   3.634   3.144  0.2029  0.9443  2.0596
  724THF     O113500   4.068   1.567   4.509  0.2475  0.8730  0.4845
  724THF     C213501   4.109   1.528   4.638  0.1996  0.0589  0.4620
  724THF     C313502   3.999   1.462   4.443 -1.4649 -0.3449  0.0166
  724THF     H413503   4.028   1.533   4.713  1.3976 -2.1141 -0.0444
  724THF     H513504   4.194   1.585   4.673  1.6394  0.4371 -0.1044
  724THF     H613505   3.900   1.462   4.478  2.9923 -0.2630 -0.1193
  724THF     H713506   3.992   1.478   4.336 -3.2478  2.4038  0.5593
  724THF     C813507   4.070   1.339   4.488 -0.0220 -0.0443 -0.0847
  724THF     C913508   4.150   1.382   4.610 -0.0310  0.2813  0.3511
  724THF    H1013509   4.131   1.315   4.403 -0.1721  1.3182 -0.3678
  724THF    H1113510   4.009   1.250   4.502  3.1975 -0.7076  1.2252
  724THF    H1213511   4.148   1.325   4.706 -0.7765 -1.2874  0.7824
  724THF    H1313512   4.254   1.370   4.581  0.3720  0.8439  2.2500
  725THF     O113513   3.916   4.352   1.713 -0.4525  0.6127  0.1323
  725THF     C213514   3.892   4.372   1.574 -0.4079  0.1128  0.0007
  725THF     C313515   3.872   4.466   1.783  0.0904  0.2905  0.5263
  725THF     H413516   3.906   4.279   1.520  1.1953 -1.2104 -1.6803
  725THF     H513517   3.960   4.447   1.541  0.0800  0.9258  0.8788
  725THF     H613518   3.856   4.435   1.887  2.2821 -2.2733  3.0297
  725THF     H713519   3.938   4.547   1.771 -2.0402 -1.5258  0.8076
  725THF     C813520   3.750   4.513   1.707 -0.3048 -0.5144  0.0376
  725THF     C913521   3.754   4.433   1.580 -0.2174 -0.6461  0.0852
  725THF    H1013522   3.761   4.620   1.688  0.6452 -0.6197 -0.8823
  725THF    H1113523   3.663   4.517   1.771 -2.0213 -0.1978  2.1170
  725THF    H1213524   3.671   4.367   1.583 -0.8011 -2.0142 -0.8426
  725THF    H1313525   3.734   4.495   1.489 -2.7126  2.2043 -0.3817
  726THF     O113526   4.540   1.012   3.087  0.1177  0.2717 -0.3285
  726THF     C213527   4.649   1.107   3.069 -0.0640  0.6836 -0.6735
  726THF     C313528   4.563   0.935   3.208 -0.4278 -0.1940  0.2770
  726THF     H413529   4.644   1.193   3.136 -1.1916 -1.1859 -0.2580
  726THF     H513530   4.663   1.142   2.967  0.5166  1.0867 -0.0202
  726THF     H613531   4.542   0.991   3.299  3.0892  0.8782 -1.5430
  726THF     H713532   4.517   0.833   3.207  0.6924 -0.7151  0.0008
  726THF     C813533   4.716   0.912   3.208 -0.0152 -0.0147  0.6117
  726THF     C913534   4.761   1.003   3.095 -0.5157 -0.8068 -0.1058
  726THF    H1013535   4.750   0.807   3.181  1.4979 -2.5572  1.4756
  726THF    H1113536   4.769   0.944   3.299  2.1273 -0.4271  0.6594
  726THF    H1213537   4.855   1.055   3.107  0.0019 -1.0595 -0.6997
  726THF    H1313538   4.777   0.924   3.021  1.5108  0.4974  1.5620
  727THF     O113539   4.646   5.054   2.473 -0.8538 -0.2912  0.1510
  727THF     C213540   4.617   5.183   2.532  0.0316 -0.2305 -0.4861
  727THF     C313541   4.524   4.997   2.428  0.2296  0.1768 -0.3746
  727THF     H413542   4.711   5.237   2.520 -2.3412 -1.7453 -2.8333
  727THF     H513543   4.584   5.154   2.627  0.9369 -0.4286 -1.0465
  727THF     H613544   4.560   4.935   2.349  1.4731  2.0779  0.2775
  727THF     H713545   4.463   4.945   2.508  1.0157  0.4372 -2.3611
  727THF     C813546   4.455   5.116   2.373 -0.7397  0.4618 -0.1796
  727THF     C913547   4.513   5.239   2.437  0.1237 -0.1591  0.2237
  727THF    H1013548   4.345   5.092   2.387  0.8123  0.8749  1.9386
  727THF    H1113549   4.478   5.108   2.268  0.9023  1.9854 -1.4424
  727THF    H1213550   4.560   5.296   2.350 -0.4392  0.4813 -0.1327
  727THF    H1313551   4.430   5.300   2.482 -0.8312 -0.2730 -1.5838
  728THF     O113552   3.878   2.884   2.940 -0.0653  0.4749 -0.0657
  728THF     C213553   3.886   2.747   2.988  0.4265 -0.2508 -0.1456
  728THF     C313554   3.749   2.920   2.931  0.3475  0.0390  0.4495
  728THF     H413555   3.972   2.725   3.048 -0.4033  0.9386 -2.6016
  728THF     H513556   3.883   2.678   2.907  1.8561  2.7106  1.4056
  728THF     H613557   3.725   3.003   2.994 -1.5871 -2.0126 -0.1415
  728THF     H713558   3.712   2.953   2.834 -1.0245  0.2041 -2.1639
  728THF     C813559   3.657   2.809   2.986 -0.2169  0.3609  0.8993
  728THF     C913560   3.758   2.738   3.080  0.5520  0.0204  0.2314
  728THF    H1013561   3.622   2.737   2.910 -2.2516  0.2577 -1.1723
  728THF    H1113562   3.567   2.856   3.034  0.6362  1.7067  3.0861
  728THF    H1213563   3.765   2.805   3.167 -1.6947 -0.5472  2.7911
  728THF    H1313564   3.738   2.637   3.118  0.4566  1.0951  0.8133
  729THF     O113565   2.899   1.334   2.359  0.2629  0.3156 -0.6618
  729THF     C213566   2.758   1.334   2.369 -0.4633 -0.2151  0.1320
  729THF     C313567   2.948   1.215   2.313  0.4814 -0.2262  0.6104
  729THF     H413568   2.713   1.399   2.286 -2.7905 -0.9287 -2.8133
  729THF     H513569   2.722   1.363   2.468 -0.6513  3.1293  1.3977
  729THF     H613570   2.956   1.230   2.201  0.7226  0.9487  1.4668
  729THF     H713571   3.044   1.193   2.354 -1.0242  0.1455  0.3323
  729THF     C813572   2.840   1.111   2.343 -0.1870  0.2570  0.2330
  729THF     C913573   2.710   1.196   2.336  0.0396 -0.3191 -0.4116
  729THF    H1013574   2.870   1.076   2.443  0.5925  1.3149 -0.7584
  729THF    H1113575   2.823   1.033   2.268 -0.4536  2.2545  0.5340
  729THF    H1213576   2.672   1.190   2.234  1.1811 -0.2507 -1.0110
  729THF    H1313577   2.643   1.150   2.410  0.9881  2.3634 -0.7793
  730THF     O113578   2.361   5.035   1.845  0.4734  0.3153 -0.0379
  730THF     C213579   2.340   5.177   1.831 -0.0152 -1.1349 -0.0342
  730THF     C313580   2.392   5.013   1.978 -0.0663 -0.2506  0.1575
  730THF     H413581   2.284   5.215   1.743 -0.7059 -0.5067 -2.8727
  730THF     H513582   2.436   5.233   1.829  1.5711 -0.5177 -2.1440
  730THF     H613583   2.402   4.911   2.010  3.3777  0.4511  0.8137
  730THF     H713584   2.487   5.052   2.007  2.0168 -0.5656 -1.0425
  730THF     C813585   2.288   5.095   2.053  0.2093  0.3283  0.4381
  730THF     C913586   2.273   5.218   1.967  0.2811  0.5992 -0.2348
  730THF    H1013587   2.326   5.129   2.153 -0.3634  0.2754 -2.1618
  730THF    H1113588   2.192   5.051   2.054  1.7663 -2.1295 -2.4213
  730THF    H1213589   2.163   5.243   1.955 -1.7305 -1.1414 -0.2333
  730THF    H1313590   2.325   5.308   2.001 -1.9803 -1.3534  0.0168
  731THF     O113591   4.171   0.687   2.551  0.3552 -0.3392 -0.0652
  731THF     C213592   4.066   0.743   2.623  0.2282 -0.2422  0.3623
  731THF     C313593   4.119   0.616   2.443 -0.5355 -0.8260  0.2710
  731THF     H413594   4.104   0.824   2.693  0.7874  3.1134  0.4473
  731THF     H513595   4.006   0.674   2.682  1.7422  0.5796  0.2762
  731THF     H613596   4.198   0.599   2.367 -2.8243  0.1299  0.1430
  731THF     H713597   4.059   0.518   2.471 -1.2910  1.9347  0.4519
  731THF     C813598   4.015   0.714   2.382 -0.1725  0.7723 -0.1534
  731THF     C913599   3.992   0.810   2.495 -0.1588 -0.3847 -0.2143
  731THF    H1013600   3.925   0.663   2.348  1.1846 -1.4982  0.7543
  731THF    H1113601   4.064   0.777   2.305  1.3534  1.7899 -0.4733
  731THF    H1213602   4.034   0.909   2.475  0.7374  1.4832  3.4375
  731THF    H1313603   3.888   0.830   2.502 -1.2536  0.1386 -0.7826
  732THF     O113604   5.368   3.919   4.786 -0.0398  0.0622 -0.4303
  732THF     C213605   5.409   4.035   4.857 -0.3339  0.2906 -0.1983
  732THF     C313606   5.301   3.824   4.873 -0.5124 -0.7046  1.2733
  732THF     H413607   5.351   4.125   4.829  1.8542  0.3558  0.0784
  732THF     H513608   5.519   4.040   4.846  2.5287 -0.5413 -1.1498
  732THF     H613609   5.198   3.866   4.869 -0.1015 -1.0567 -2.1349
  732THF     H713610   5.314   3.719   4.838 -5.1355 -2.3995 -0.7889
  732THF     C813611   5.362   3.862   5.004  0.1277 -0.5647 -0.6533
  732THF     C913612   5.368   4.008   4.998  0.6844 -0.5867 -0.5378
  732THF    H1013613   5.461   3.825   5.006 -1.0109 -0.7496  2.4497
  732THF    H1113614   5.288   3.831   5.075  1.1933  0.3562  3.4007
  732THF    H1213615   5.274   4.061   5.023  2.9274  1.5571  1.6131
  732THF    H1313616   5.452   4.038   5.062  2.5498  1.3383  1.8061
  733THF     O113617   3.170   0.591   3.557  0.6205  0.2862  0.4079
  733THF     C213618   3.036   0.587   3.497  0.3116 -0.5474 -0.5717
  733THF     C313619   3.209   0.729   3.583 -0.9169 -0.4120 -0.3222
  733THF     H413620   2.980   0.506   3.543 -2.2382  0.1044 -2.5872
  733THF     H513621   3.022   0.587   3.388 -1.8297 -0.8820  0.1692
  733THF     H613622   3.227   0.734   3.691 -0.0510  0.3966 -0.1093
  733THF     H713623   3.302   0.755   3.526  0.5495  1.1828 -1.7508
  733THF     C813624   3.088   0.820   3.544 -0.4414  1.0399 -0.5899
  733THF     C913625   2.979   0.719   3.557  0.1538  0.8897 -0.5539
  733THF    H1013626   3.116   0.847   3.447 -3.0062 -0.8480  1.5213
  733THF    H1113627   3.067   0.903   3.602 -1.7821  1.0229 -0.6239
  733THF    H1213628   2.937   0.704   3.656 -0.0736  2.4158  0.7614
  733THF    H1313629   2.895   0.728   3.492 -0.5064  0.3238  1.0081
  734THF     O113630   4.239   4.031   1.524 -0.5456 -0.0535 -0.3787
  734THF     C213631   4.355   4.003   1.605  0.1705  0.2036 -0.1257
  734THF     C313632   4.173   4.130   1.591  0.1138  0.3790  0.0670
  734THF     H413633   4.443   3.961   1.548  2.3880 -1.0837 -1.2545
  734THF     H513634   4.317   3.931   1.679  2.4017  2.7804 -1.5297
  734THF     H613635   4.108   4.190   1.524  1.1341 -0.2336 -2.9940
  734THF     H713636   4.111   4.084   1.673  0.9704  1.3602 -0.8413
  734THF     C813637   4.278   4.221   1.650 -0.4129  0.7568  0.2797
  734THF     C913638   4.402   4.133   1.669  0.6764  0.2763  0.0300
  734THF    H1013639   4.233   4.275   1.736  0.1440 -0.6229 -1.7067
  734THF    H1113640   4.311   4.294   1.579  0.1183 -1.1360  0.4403
  734THF    H1213641   4.479   4.187   1.612 -0.5893 -3.2672  0.6198
  734THF    H1313642   4.448   4.115   1.768  1.1798  1.1822 -1.5512
  735THF     O113643   4.557   1.285   3.920 -0.1504  0.1905  0.3171
  735THF     C213644   4.631   1.201   4.011 -0.1295  0.2742 -0.0429
  735THF     C313645   4.428   1.224   3.882  0.0871  0.9697  0.1450
  735THF     H413646   4.683   1.260   4.074 -2.7514 -0.3209  0.0255
  735THF     H513647   4.690   1.126   3.953 -2.1386 -0.0742 -0.4284
  735THF     H613648   4.354   1.306   3.870  1.1256  1.6584  2.9823
  735THF     H713649   4.428   1.165   3.790 -1.0337 -1.1451 -0.5933
  735THF     C813650   4.398   1.136   4.001  0.0327  0.4991 -0.2897
  735THF     C913651   4.515   1.133   4.093  0.3505 -0.2472  0.6915
  735THF    H1013652   4.384   1.034   3.954  2.3128 -0.1883 -1.1041
  735THF    H1113653   4.311   1.174   4.045  1.8101  0.8282 -1.7249
  735THF    H1213654   4.493   1.198   4.182 -1.7913  0.7852  0.5048
  735THF    H1313655   4.536   1.028   4.120 -0.7530 -0.8230  0.9496
  736THF     O113656   4.633   3.259   0.337  0.1339  0.0329 -0.2688
  736THF     C213657   4.684   3.131   0.378 -0.3184  0.0001 -0.5985
  736THF     C313658   4.658   3.354   0.440  0.2204  0.2062 -0.1037
  736THF     H413659   4.788   3.116   0.368 -2.1250 -1.2435 -0.0012
  736THF     H513660   4.654   3.052   0.315  1.4912  1.8893  1.3425
  736THF     H613661   4.760   3.390   0.429 -1.8491 -1.3057 -0.7935
  736THF     H713662   4.583   3.429   0.430  1.3687 -3.9834 -1.6610
  736THF     C813663   4.627   3.269   0.565 -0.2507 -0.1629  0.2284
  736THF     C913664   4.636   3.123   0.521 -0.5194 -0.4395 -0.2989
  736THF    H1013665   4.521   3.286   0.603 -2.2063 -2.3817 -0.0462
  736THF    H1113666   4.697   3.284   0.641 -2.8904 -0.7877 -0.7764
  736THF    H1213667   4.696   3.061   0.581 -2.5887 -1.8628 -1.7417
  736THF    H1313668   4.539   3.081   0.534 -1.2920 -0.5714  2.6786
  737THF     O113669   3.666   5.316   1.317 -0.3661  0.3772 -0.1732
  737THF     C213670   3.589   5.388   1.401 -0.0785 -0.5987  0.7391
  737THF     C313671   3.801   5.308   1.355 -0.3047 -0.9603  0.4390
  737THF     H413672   3.545   5.310   1.458  0.7861 -0.4820 -0.5052
  737THF     H513673   3.509   5.441   1.350 -1.0743  1.7564  1.4160
  737THF     H613674   3.827   5.210   1.395  0.5278  0.8760  2.1614
  737THF     H713675   3.865   5.334   1.278 -1.9098  1.2311 -0.6082
  737THF     C813676   3.818   5.418   1.465 -1.0942  0.1894 -1.2119
  737THF     C913677   3.686   5.487   1.468  0.5635 -0.7880  1.1038
  737THF    H1013678   3.890   5.493   1.439 -2.6626  0.1938  0.5731
  737THF    H1113679   3.841   5.379   1.571  0.3038  1.7904  0.1062
  737THF    H1213680   3.647   5.513   1.568  3.9051  1.5868 -0.0569
  737THF    H1313681   3.699   5.577   1.406  1.0327 -1.5024  2.6108
  738THF     O113682   4.921   3.284   4.559  0.4159  0.5907 -0.6352
  738THF     C213683   4.997   3.280   4.679  0.6529 -0.4409  0.2166
  738THF     C313684   4.853   3.408   4.541 -0.2540  0.1464 -0.1884
  738THF     H413685   5.080   3.209   4.685 -0.8734 -0.1561  0.0770
  738THF     H513686   4.941   3.249   4.770 -1.0866 -0.3353  0.8809
  738THF     H613687   4.824   3.425   4.439 -0.2224 -2.2126  2.3316
  738THF     H713688   4.762   3.403   4.598 -1.8003 -3.1173 -2.3817
  738THF     C813689   4.958   3.508   4.594  0.4153 -0.3370  0.0302
  738THF     C913690   5.043   3.426   4.693 -0.1999 -0.2847  0.9339
  738THF    H1013691   4.915   3.599   4.633  2.3611 -1.7631 -0.1664
  738THF    H1113692   5.026   3.532   4.516 -1.3520 -2.3791 -2.3711
  738THF    H1213693   5.156   3.430   4.676 -0.3245  2.2214 -1.3232
  738THF    H1313694   5.020   3.450   4.800 -1.8016 -1.9050  1.8385
  739THF     O113695   3.890   1.190   1.075 -0.0765 -0.1261  0.1297
  739THF     C213696   3.926   1.167   0.943  0.1053  0.3108  0.4975
  739THF     C313697   3.755   1.140   1.096  0.3708 -0.0137  0.6883
  739THF     H413698   4.036   1.167   0.930  0.6069 -1.4971 -1.4311
  739THF     H513699   3.889   1.260   0.901 -1.8428  2.5911 -0.1110
  739THF     H613700   3.745   1.086   1.188  0.4538  1.5780 -2.1117
  739THF     H713701   3.672   1.210   1.105  1.6314 -0.5518  1.8269
  739THF     C813702   3.732   1.046   0.979 -0.7553  0.1173  0.6001
  739THF     C913703   3.866   1.032   0.907 -0.0826  0.0081  0.1436
  739THF    H1013704   3.661   1.093   0.911  0.3170  2.6116 -1.6986
  739THF    H1113705   3.689   0.952   1.010  0.5532 -0.0249  0.9112
  739THF    H1213706   3.927   0.961   0.962 -0.4907  0.0580 -1.6603
  739THF    H1313707   3.859   1.022   0.793  1.7023 -0.5095  0.4678
  740THF     O113708   4.537   4.794   1.074 -0.0989 -0.0421 -0.1231
  740THF     C213709   4.431   4.878   1.095  0.1432 -0.4920  0.3982
  740THF     C313710   4.628   4.825   1.192  0.2267  0.2644  0.0191
  740THF     H413711   4.350   4.832   1.155 -0.4589 -0.8493 -3.6852
  740THF     H513712   4.398   4.896   0.996  0.9772 -0.0358 -2.4056
  740THF     H613713   4.622   4.752   1.275 -0.8515  1.5613 -0.0771
  740THF     H713714   4.732   4.834   1.155  2.7755  0.8966 -0.7142
  740THF     C813715   4.593   4.954   1.257 -0.3922 -0.3855  0.1652
  740THF     C913716   4.481   4.999   1.169 -1.5615  0.0253 -0.2499
  740THF    H1013717   4.672   5.031   1.264 -1.2206  0.0285 -0.2129
  740THF    H1113718   4.539   4.937   1.350  0.4549 -1.1349 -0.7096
  740THF    H1213719   4.405   5.051   1.221  3.5100 -0.8946  1.2974
  740THF    H1313720   4.537   5.064   1.099  0.8386 -1.6382 -1.4664
  741THF     O113721   1.862   2.401   1.981 -0.0814 -0.2054 -0.0663
  741THF     C213722   1.907   2.497   1.888  0.5429 -0.8807  0.1926
  741THF     C313723   1.718   2.401   1.976 -0.2495 -0.5263  0.3479
  741THF     H413724   1.902   2.445   1.795 -1.3327  1.4668  0.0145
  741THF     H513725   2.013   2.528   1.902 -0.1764  0.1143  1.7245
  741THF     H613726   1.673   2.333   1.901  0.3344  1.6621 -1.3063
  741THF     H713727   1.674   2.373   2.069  5.8498  0.5905 -1.7767
  741THF     C813728   1.684   2.541   1.947  0.0035  0.2009  0.0536
  741THF     C913729   1.806   2.608   1.886  0.9401  0.3304  0.4012
  741THF    H1013730   1.669   2.588   2.044 -0.1098 -1.9367  1.1467
  741THF    H1113731   1.594   2.555   1.881 -0.5042 -0.8211  0.9707
  741THF    H1213732   1.794   2.644   1.786 -0.3675  1.5077  1.8856
  741THF    H1313733   1.845   2.694   1.942 -0.5489 -2.2003  1.0661
  742THF     O113734   1.149   2.290   4.412 -0.1001 -0.3921 -0.3524
  742THF     C213735   1.047   2.392   4.411  0.7781 -0.3325  0.7086
  742THF     C313736   1.109   2.174   4.339 -0.2387 -0.0899  0.0867
  742THF     H413737   1.066   2.454   4.324  1.1902 -0.6352  3.0685
  742THF     H513738   1.046   2.447   4.504 -1.0161 -1.2307 -1.1548
  742THF     H613739   1.125   2.191   4.230 -0.1749 -2.8557 -1.0114
  742THF     H713740   1.175   2.089   4.373 -0.4294  0.0286  1.5976
  742THF     C813741   0.961   2.163   4.370 -0.1404  0.4820 -0.3482
  742THF     C913742   0.917   2.308   4.397 -0.8806 -0.4528  0.9887
  742THF    H1013743   0.952   2.103   4.459 -1.2110 -1.0382 -3.1740
  742THF    H1113744   0.909   2.126   4.278 -0.5628  2.0305  1.8819
  742THF    H1213745   0.873   2.327   4.300 -1.1667 -1.4689  0.3151
  742THF    H1313746   0.853   2.320   4.486 -0.0182  0.0481 -0.6481
  743THF     O113747   4.277   1.723   0.845 -0.2485 -0.2934  0.2244
  743THF     C213748   4.364   1.682   0.739 -0.8225  0.5808  0.1471
  743THF     C313749   4.229   1.854   0.812 -0.3453  0.2166 -0.3157
  743THF     H413750   4.303   1.645   0.654  1.0854  0.6761 -1.8729
  743THF     H513751   4.424   1.601   0.764 -2.9254 -0.4593  0.7567
  743THF     H613752   4.154   1.846   0.738  2.3247  1.9787  1.2443
  743THF     H713753   4.179   1.915   0.882  2.1930 -0.0011  1.0381
  743THF     C813754   4.343   1.924   0.742 -0.3207 -0.1921  1.0133
  743THF     C913755   4.444   1.809   0.718  0.3372 -0.1512  0.4245
  743THF    H1013756   4.386   1.998   0.808  1.5029  1.0611  0.9703
  743THF    H1113757   4.311   1.971   0.649 -0.9666 -1.4836 -0.6688
  743THF    H1213758   4.481   1.813   0.616 -0.9022 -1.1772  2.0441
  743THF    H1313759   4.526   1.823   0.791  1.4789 -1.0033  1.7622
  744THF     O113760   2.320   5.440   1.290  0.1092 -0.3050 -0.1218
  744THF     C213761   2.430   5.490   1.368 -0.4433 -0.3103  0.6892
  744THF     C313762   2.205   5.503   1.347 -0.0195  0.4551 -0.4171
  744THF     H413763   2.530   5.492   1.325  0.1000 -0.6368  1.0258
  744THF     H513764   2.435   5.438   1.456 -0.4342 -0.5037  2.1607
  744THF     H613765   2.158   5.558   1.256  2.9640 -2.1882 -1.2433
  744THF     H713766   2.144   5.423   1.391  0.8796 -2.1410  1.4731
  744THF     C813767   2.250   5.616   1.448 -0.6290  0.4551  0.7552
  744THF     C913768   2.392   5.632   1.420 -0.1261 -0.0326  0.6947
  744THF    H1013769   2.239   5.570   1.543  2.0412 -1.9087 -4.8559
  744THF    H1113770   2.193   5.712   1.447  3.3679  0.2514 -0.1409
  744THF    H1213771   2.418   5.703   1.336 -1.0117  0.3453 -0.4921
  744THF    H1313772   2.445   5.664   1.512 -0.8031 -0.2770 -1.1863
  745THF     O113773   1.446   5.252   3.922 -1.0601  0.0621  0.4599
  745THF     C213774   1.406   5.213   3.793  0.0384  0.0215  0.2684
  745THF     C313775   1.484   5.133   3.988  0.2382 -0.4474 -0.9681
  745THF     H413776   1.410   5.304   3.742  0.9926 -0.7367 -0.2280
  745THF     H513777   1.305   5.172   3.799 -0.4191  0.6533 -0.5235
  745THF     H613778   1.540   5.147   4.083  2.1471 -0.6944  1.2959
  745THF     H713779   1.401   5.075   4.033  0.4247 -1.4043  1.3596
  745THF     C813780   1.570   5.067   3.885 -0.2018  0.3093  0.5101
  745THF     C913781   1.510   5.112   3.752 -0.2354  0.0023 -0.6020
  745THF    H1013782   1.567   4.964   3.895 -0.6454 -0.2328  0.5596
  745THF    H1113783   1.669   5.096   3.910 -1.9728  0.1698  0.5084
  745THF    H1213784   1.576   5.157   3.683  2.5376 -1.1628  1.5775
  745THF    H1313785   1.473   5.015   3.703  2.7062 -2.4208 -0.7044
  746THF     O113786   3.472   4.443   0.277 -0.2280  0.4383  0.1068
  746THF     C213787   3.375   4.522   0.349  0.0379 -0.8386  0.0604
  746THF     C313788   3.587   4.430   0.367  0.4161 -0.9237  0.2219
  746THF     H413789   3.316   4.453   0.400  0.6299 -0.9564 -0.5590
  746THF     H513790   3.316   4.581   0.284 -1.6432  0.9761 -1.5089
  746THF     H613791   3.558   4.366   0.449 -1.3480 -1.2418 -1.3292
  746THF     H713792   3.668   4.379   0.318  0.0074 -2.0707  0.6278
  746THF     C813793   3.600   4.573   0.419 -0.1796 -0.4161  0.1217
  746THF     C913794   3.458   4.604   0.446  0.1472  0.5961  0.8105
  746THF    H1013795   3.638   4.631   0.338  2.2147  0.2766  1.9716
  746THF    H1113796   3.664   4.573   0.504 -3.4577  1.7573  0.1519
  746THF    H1213797   3.419   4.566   0.541 -3.9874 -2.5609 -2.3549
  746THF    H1313798   3.437   4.706   0.421  0.0172  1.0134  0.8116
  747THF     O113799   2.649   3.649   2.524  0.2408 -0.0455 -0.1523
  747THF     C213800   2.635   3.784   2.553  0.1620  0.6609  0.3237
  747THF     C313801   2.531   3.607   2.449 -0.0887  0.1898 -0.9733
  747THF     H413802   2.728   3.822   2.587 -0.7286 -0.2052 -2.3595
  747THF     H513803   2.561   3.785   2.642  2.0159 -0.8942  1.4249
  747THF     H613804   2.560   3.546   2.361 -1.0193 -3.9356  0.4817
  747THF     H713805   2.471   3.548   2.510  3.1917 -2.1945 -1.3824
  747THF     C813806   2.461   3.743   2.403 -0.1697 -0.7618 -0.4198
  747THF     C913807   2.572   3.845   2.432  0.0359 -0.5072  0.4228
  747THF    H1013808   2.375   3.760   2.475 -2.5837 -0.4304  2.6326
  747THF    H1113809   2.429   3.743   2.295  1.6807 -2.3127 -3.5809
  747THF    H1213810   2.637   3.839   2.350 -2.6469  1.1458  1.2223
  747THF    H1313811   2.533   3.951   2.445  0.3550  2.0336  1.5795
  748THF     O113812   3.318   0.661   4.648 -0.4323  0.0907 -0.0212
  748THF     C213813   3.228   0.544   4.635 -0.6084  0.1982  0.5049
  748THF     C313814   3.451   0.603   4.675  0.1548  0.2388  0.5366
  748THF     H413815   3.143   0.569   4.575 -1.2167 -1.3632  0.7612
  748THF     H513816   3.187   0.506   4.729 -0.6111 -1.8055 -0.2063
  748THF     H613817   3.530   0.673   4.664 -2.4542  2.6967  2.5951
  748THF     H713818   3.448   0.570   4.773 -1.5795 -1.1303  0.9359
  748THF     C813819   3.451   0.492   4.571  0.1973 -0.1283 -0.1311
  748THF     C913820   3.310   0.435   4.572  0.2740 -0.4123  0.7815
  748THF    H1013821   3.533   0.417   4.592 -0.4455 -0.6604  2.1510
  748THF    H1113822   3.468   0.526   4.471  0.9197 -1.7719 -1.0427
  748THF    H1213823   3.279   0.410   4.475 -0.9211 -2.7412 -0.5088
  748THF    H1313824   3.319   0.344   4.632  0.9295  1.2420  1.0913
  749THF     O113825   2.357   4.804   1.226  0.6745  0.2855 -0.0727
  749THF     C213826   2.239   4.726   1.227 -0.5775 -0.2342 -0.4802
  749THF     C313827   2.360   4.872   1.103 -0.3613  0.1039  0.3174
  749THF     H413828   2.163   4.798   1.236 -0.3143 -3.0801  0.6537
  749THF     H513829   2.231   4.650   1.302  1.6776 -1.8569 -1.1874
  749THF     H613830   2.289   4.953   1.102  0.9984 -0.2727  2.2442
  749THF     H713831   2.459   4.915   1.078 -0.7889 -2.6483 -1.1484
  749THF     C813832   2.334   4.754   1.006 -0.0977 -0.2859  0.5443
  749THF     C913833   2.240   4.667   1.087 -1.0591  0.2874  1.3456
  749THF    H1013834   2.431   4.713   0.996  1.2656  3.1396  2.8801
  749THF    H1113835   2.289   4.780   0.911  0.2388 -2.3447 -0.2285
  749THF    H1213836   2.139   4.659   1.053  2.1883 -0.7651 -0.0468
  749THF    H1313837   2.279   4.568   1.091  1.0036  2.1834 -0.4735
  750THF     O113838   2.288   0.452   5.045 -0.3148  0.0643 -0.6157
  750THF     C213839   2.424   0.493   5.011 -0.1872 -0.0891 -0.2136
  750THF     C313840   2.279   0.489   5.181  0.6433  0.0739 -0.2123
  750THF     H413841   2.430   0.498   4.899  2.8672  2.3690  1.7746
  750THF     H513842   2.513   0.449   5.064  1.3708  0.0995 -1.2306
  750THF     H613843   2.175   0.504   5.203  0.6528 -0.8737 -1.3341
  750THF     H713844   2.320   0.402   5.235 -1.5627  1.7350 -1.5457
  750THF     C813845   2.356   0.610   5.212  0.2827 -0.5340  0.6754
  750THF     C913846   2.414   0.637   5.074 -0.4596  0.4346  0.3163
  750THF    H1013847   2.426   0.592   5.291  0.2115  0.2932 -1.3638
  750THF    H1113848   2.284   0.691   5.240 -2.4209 -2.7577  0.0831
  750THF    H1213849   2.353   0.689   5.006 -2.1610 -3.0049 -2.2683
  750THF    H1313850   2.515   0.694   5.086  0.0306  2.2213  0.0466
  751THF     O113851   0.813   1.829   1.032 -0.5507  0.1095  0.5908
  751THF     C213852   0.794   1.692   1.028 -0.9192  0.0460 -0.4365
  751THF     C313853   0.928   1.864   0.958  0.3581 -0.0393 -0.0060
  751THF     H413854   0.741   1.663   0.940  0.4418  1.9666  1.1210
  751THF     H513855   0.733   1.653   1.113 -1.0136  0.2731  1.6316
  751THF     H613856   0.910   1.848   0.850  0.0720  0.3759 -4.0022
  751THF     H713857   0.958   1.966   0.978 -2.6311 -0.0140 -2.3551
  751THF     C813858   1.024   1.753   1.005  0.2797  0.4494  0.1472
  751THF     C913859   0.932   1.634   1.018 -0.9507  0.2312  0.4987
  751THF    H1013860   1.079   1.784   1.099 -1.0716  1.6971 -0.6821
  751THF    H1113861   1.099   1.729   0.931  1.1738 -0.4462 -1.2533
  751THF    H1213862   0.952   1.572   0.931  1.6686 -0.7426 -1.3284
  751THF    H1313863   0.954   1.583   1.111  3.0487 -2.6862  0.7637
  752THF     O113864   3.265   1.059   3.834  0.2068 -0.2650  0.3976
  752THF     C213865   3.333   1.051   3.960 -0.6103  0.1294 -0.3187
  752THF     C313866   3.354   1.044   3.734  0.2486  0.0813  0.7317
  752THF     H413867   3.319   0.950   4.001  1.6022 -1.9270 -0.8024
  752THF     H513868   3.285   1.124   4.031 -2.2104  1.5171  0.2701
  752THF     H613869   3.363   0.938   3.715 -2.3531 -0.6414 -0.6282
  752THF     H713870   3.321   1.104   3.650 -3.4051  2.8928  3.5526
  752THF     C813871   3.480   1.113   3.784  0.1499  0.1476 -0.5401
  752THF     C913872   3.481   1.092   3.937 -0.4717 -0.4443  0.2437
  752THF    H1013873   3.477   1.229   3.774 -0.2204  0.6672  0.3580
  752THF    H1113874   3.573   1.079   3.736  1.1126  1.2302  0.2481
  752THF    H1213875   3.550   1.015   3.960  0.2191  1.0173 -3.8067
  752THF    H1313876   3.500   1.191   3.978  4.1086 -1.0214  0.7481
  753THF     O113877   3.569   3.974   4.644 -0.1905  0.0412 -0.3122
  753THF     C213878   3.569   3.908   4.770 -0.1413 -0.0694  0.4520
  753THF     C313879   3.521   3.882   4.548 -0.3761 -0.2092  0.0969
  753THF     H413880   3.466   3.887   4.795 -0.0535 -0.5056  0.6307
  753THF     H513881   3.616   3.973   4.839  0.1811 -1.0432  0.9606
  753THF     H613882   3.417   3.872   4.567 -0.8445  2.0000  2.4119
  753THF     H713883   3.544   3.916   4.438 -0.3882  2.5069 -0.0526
  753THF     C813884   3.606   3.759   4.586  0.1287  0.6104 -0.1906
  753THF     C913885   3.638   3.777   4.734 -0.3247  0.1581 -0.0793
  753THF    H1013886   3.692   3.760   4.519 -0.9370  1.3173  0.5506
  753THF    H1113887   3.560   3.661   4.561 -0.2046  1.7914  0.9259
  753THF    H1213888   3.588   3.704   4.796 -0.6376  1.9300 -2.0935
  753THF    H1313889   3.742   3.773   4.761  1.7972 -0.8762  0.7998
  754THF     O113890   0.833   0.142   4.668 -0.3394  0.3251  0.1364
  754THF     C213891   0.735   0.118   4.578 -0.1911 -0.1806  0.2343
  754THF     C313892   0.790   0.204   4.787 -0.5333  0.7484 -0.5306
  754THF     H413893   0.745   0.026   4.519  1.3277 -1.7272  1.5097
  754THF     H513894   0.747   0.209   4.519  0.5318  1.0394 -0.0324
  754THF     H613895   0.813   0.152   4.883 -1.2347 -0.9273  0.6751
  754THF     H713896   0.848   0.296   4.797 -0.8624  0.4951  0.2844
  754THF     C813897   0.642   0.239   4.756 -0.5040  0.5482  0.0286
  754THF     C913898   0.608   0.128   4.655  1.0094 -0.4619 -0.2879
  754THF    H1013899   0.632   0.336   4.706  0.2422  2.0581 -1.8593
  754THF    H1113900   0.582   0.231   4.844 -0.7940  1.8123 -0.5784
  754THF    H1213901   0.584   0.033   4.702  0.1414 -0.6148  0.9939
  754THF    H1313902   0.523   0.159   4.597 -0.5852  2.5684  1.8872
  755THF     O113903   5.419   3.451   1.065  0.0205 -0.1379  0.3411
  755THF     C213904   5.309   3.354   1.054 -0.1260  0.1797 -0.9057
  755THF     C313905   5.386   3.561   1.148  0.4215 -0.5524 -0.0538
  755THF     H413906   5.332   3.267   1.121  1.4918 -1.5904 -1.8464
  755THF     H513907   5.276   3.331   0.951 -0.9230  0.3768 -1.4340
  755THF     H613908   5.401   3.533   1.252  2.5136 -0.4684  0.5638
  755THF     H713909   5.438   3.660   1.122  0.9959  1.1973  0.1677
  755THF     C813910   5.233   3.569   1.144 -0.3574  0.6614  0.5844
  755THF     C913911   5.195   3.418   1.137  0.5184  0.3568  0.1000
  755THF    H1013912   5.191   3.619   1.058  0.7054 -0.7366  2.3574
  755THF    H1113913   5.184   3.622   1.230 -1.4266 -2.1853 -1.7871
  755THF    H1213914   5.185   3.377   1.234  1.3914  1.6941 -0.1757
  755THF    H1313915   5.100   3.404   1.080  0.5475  1.1458 -0.8969
  756THF     O113916   4.350   1.723   4.167  0.4008 -0.1459  0.2265
  756THF     C213917   4.435   1.749   4.056  0.2598 -0.3339 -0.1009
  756THF     C313918   4.333   1.586   4.193 -0.1032 -0.1756 -0.4447
  756THF     H413919   4.521   1.819   4.081  4.5292  0.7858 -0.5497
  756THF     H513920   4.377   1.807   3.982 -1.2873  2.2431 -1.0333
  756THF     H613921   4.330   1.571   4.299 -1.2663 -2.4979  1.7094
  756THF     H713922   4.250   1.553   4.145  1.4156  1.9941 -2.0683
  756THF     C813923   4.461   1.523   4.133  0.2667 -0.2238 -0.0765
  756THF     C913924   4.484   1.615   4.011 -0.4612  0.3525 -0.2388
  756THF    H1013925   4.445   1.420   4.104 -1.2750  1.1224 -3.1315
  756THF    H1113926   4.544   1.537   4.194 -1.9175  0.9990 -0.3686
  756THF    H1213927   4.595   1.616   3.998  0.6408 -0.3430  1.1707
  756THF    H1313928   4.452   1.582   3.905 -1.7805 -0.6279 -1.2510
  757THF     O113929   0.475   0.390   0.967  0.1649 -0.2195  0.0402
  757THF     C213930   0.488   0.247   0.973 -0.1790 -0.1185  0.6465
  757THF     C313931   0.527   0.435   0.845  0.6267 -0.0095  0.5836
  757THF     H413932   0.423   0.190   1.039 -1.2457 -0.3504 -0.2826
  757THF     H513933   0.591   0.213   0.988  1.4535  1.2477 -1.3980
  757THF     H613934   0.498   0.533   0.818 -0.8130 -0.7446 -1.9844
  757THF     H713935   0.633   0.427   0.841  1.9470 -1.4131  0.0706
  757THF     C813936   0.457   0.345   0.748 -0.6138  0.4433 -0.5537
  757THF     C913937   0.439   0.218   0.830 -0.6689  0.1087  0.0693
  757THF    H1013938   0.509   0.334   0.653  0.8934  0.9600  2.0127
  757THF    H1113939   0.364   0.386   0.733  1.5162 -1.4814  0.4705
  757THF    H1213940   0.331   0.191   0.830 -0.7620  2.1035 -1.0678
  757THF    H1313941   0.485   0.137   0.782  0.5401 -0.0620 -2.1865
  758THF     O113942   1.751   0.768   0.857 -0.6428  0.1554  0.2988
  758THF     C213943   1.887   0.752   0.889 -0.3906  0.3663  0.4207
  758THF     C313944   1.755   0.771   0.712  0.5060  0.0416 -0.5402
  758THF     H413945   1.899   0.718   0.990  0.4724  1.1245 -1.3916
  758THF     H513946   1.941   0.844   0.891 -2.0144 -1.6549 -0.1144
  758THF     H613947   1.654   0.771   0.670  1.1692 -1.3930 -2.8797
  758THF     H713948   1.806   0.867   0.688  1.5078  0.4418  1.3542
  758THF     C813949   1.823   0.641   0.686 -0.0783 -0.4299  0.3042
  758THF     C913950   1.936   0.642   0.785  0.1271  0.2392  0.3753
  758THF    H1013951   1.849   0.634   0.580  1.0312 -0.4613 -1.4757
  758THF    H1113952   1.752   0.568   0.707  2.1203 -0.3818 -0.3069
  758THF    H1213953   1.947   0.543   0.826 -1.1751 -1.5380 -1.4067
  758THF    H1313954   2.022   0.667   0.735 -1.7460 -0.7206  3.5838
  759THF     O113955   1.022   5.312   2.252  0.2753  0.3034  0.4825
  759THF     C213956   1.078   5.415   2.320  0.6871 -0.3214  0.9417
  759THF     C313957   1.049   5.330   2.111  0.4093 -0.3278 -0.2712
  759THF     H413958   1.182   5.398   2.335 -1.4660  3.1360 -0.8239
  759THF     H513959   1.042   5.414   2.428 -1.0450 -1.2168 -2.8211
  759THF     H613960   1.158   5.299   2.098 -0.0639  1.5600 -1.4383
  759THF     H713961   0.991   5.272   2.042 -0.0915  0.4512 -3.2523
  759THF     C813962   1.016   5.478   2.096  0.0758 -0.2471  0.2006
  759THF     C913963   1.028   5.534   2.239 -0.3757 -0.0529 -0.2640
  759THF    H1013964   0.919   5.497   2.048 -0.5694  1.5828 -1.2342
  759THF    H1113965   1.098   5.519   2.034  1.5489 -2.7476 -2.0217
  759THF    H1213966   1.073   5.630   2.235  0.2080  0.4221  0.4512
  759THF    H1313967   0.932   5.555   2.282  3.7087 -1.8965  0.0295
  760THF     O113968   2.784   4.847   1.618 -0.3116  0.4900 -0.0322
  760THF     C213969   2.733   4.967   1.659 -0.7767 -0.2448 -0.3524
  760THF     C313970   2.862   4.876   1.500  0.5944  0.0206 -0.5218
  760THF     H413971   2.690   4.962   1.761  1.5693  0.3656  0.0787
  760THF     H513972   2.658   4.993   1.587 -1.8700 -1.9612 -0.3137
  760THF     H613973   2.948   4.811   1.482 -1.9272 -2.2248 -1.2323
  760THF     H713974   2.793   4.875   1.415  1.4955 -2.1133 -1.8163
  760THF     C813975   2.920   5.018   1.518 -0.8759  0.2562 -0.2124
  760THF     C913976   2.851   5.064   1.649  0.3209  0.3565  0.2968
  760THF    H1013977   2.899   5.084   1.436  1.2590 -0.9670  0.2483
  760THF    H1113978   3.032   5.009   1.535 -0.3162 -0.7084 -1.2622
  760THF    H1213979   2.922   5.050   1.722 -0.3490 -0.0086  1.9309
  760THF    H1313980   2.808   5.167   1.642  0.0144 -1.2283  0.1156
  761THF     O113981   0.864   2.647   1.932 -0.0795  0.9903 -0.6061
  761THF     C213982   0.844   2.511   1.932 -0.1282 -0.2141  0.0259
  761THF     C313983   0.741   2.707   1.956  0.1841 -0.5927 -0.6771
  761THF     H413984   0.939   2.458   1.919 -0.7797  0.5587 -2.7560
  761THF     H513985   0.781   2.489   1.852  1.0635 -2.5481  3.1771
  761THF     H613986   0.757   2.811   1.984 -0.4464 -2.3218  1.5225
  761THF     H713987   0.683   2.718   1.865 -0.9849 -0.7836 -2.2910
  761THF     C813988   0.671   2.611   2.052 -0.1145  0.2391 -0.4117
  761THF     C913989   0.757   2.488   2.059  0.5827 -0.6442  0.1287
  761THF    H1013990   0.568   2.583   2.032  0.0355 -0.8387 -0.8588
  761THF    H1113991   0.676   2.664   2.145 -0.2253  1.4785 -0.2595
  761THF    H1213992   0.818   2.486   2.147  0.8612 -0.6139  1.4492
  761THF    H1313993   0.692   2.400   2.045 -0.5906  1.3771 -1.0107
  762THF     O113994   4.634   2.081   1.205  0.2225 -0.3209 -0.2282
  762THF     C213995   4.511   2.149   1.180  0.5460  0.7918 -0.1189
  762THF     C313996   4.730   2.191   1.202 -0.0921 -0.2708 -0.1706
  762THF     H413997   4.422   2.090   1.210 -0.7636  1.2236  0.9514
  762THF     H513998   4.503   2.178   1.075  1.0356  2.1621 -0.3936
  762THF     H613999   4.836   2.163   1.224  1.0785 -0.3267 -0.6301
  762THF     H714000   4.731   2.226   1.100 -3.0103 -3.7686  0.7310
  762THF     C814001   4.674   2.296   1.298 -0.0957 -0.0242  0.4760
  762THF     C914002   4.527   2.273   1.272 -0.1497  0.3086  0.3793
  762THF    H1014003   4.701   2.394   1.259 -1.5167 -0.3739 -0.2409
  762THF    H1114004   4.699   2.281   1.397  1.4041 -1.1704 -0.3111
  762THF    H1214005   4.481   2.246   1.364 -2.3044 -1.2253  1.3229
  762THF    H1314006   4.484   2.364   1.236 -2.2427 -1.8022  1.8970
  763THF     O114007   1.306   0.142   0.342 -0.7279 -0.1935  0.6908
  763THF     C214008   1.255   0.233   0.442  0.5905 -0.1840  1.0120
  763THF     C314009   1.443   0.152   0.372 -0.0227 -0.4729 -0.2642
  763THF     H414010   1.257   0.203   0.552 -1.2711  0.8979  1.1967
  763THF     H514011   1.161   0.276   0.421  3.4651 -1.5132 -0.9160
  763THF     H614012   1.473   0.099   0.466  0.7941 -0.0145  0.3747
  763THF     H714013   1.506   0.102   0.299  1.6350 -0.7010  1.3351
  763THF     C814014   1.472   0.303   0.381 -0.1883  0.3789 -0.1257
  763THF     C914015   1.348   0.357   0.434  0.1685  0.4002  0.0902
  763THF    H1014016   1.481   0.336   0.275 -1.4074 -1.0422 -2.7858
  763THF    H1114017   1.564   0.317   0.438  1.4174 -0.8690  0.5289
  763THF    H1214018   1.361   0.403   0.537  0.2434  1.2065  2.5582
  763THF    H1314019   1.311   0.440   0.380 -1.0980 -2.5642  1.2947
  764THF     O114020   0.989   5.475   5.201 -0.0564 -0.7020 -0.6543
  764THF     C214021   0.933   5.405   5.089  0.0377 -0.2779  0.5131
  764THF     C314022   1.024   5.378   5.299 -0.7081 -0.8423 -0.1076
  764THF     H414023   0.931   5.468   4.998  1.0654 -0.1667 -1.6257
  764THF     H514024   0.820   5.385   5.097 -1.9253 -0.4534 -2.2009
  764THF     H614025   1.116   5.393   5.346  1.1488 -1.2887 -2.3164
  764THF     H714026   0.948   5.381   5.378 -1.7790 -0.9320  1.1813
  764THF     C814027   1.021   5.246   5.226  0.0136  0.3857  0.1627
  764THF     C914028   1.005   5.270   5.081  0.9629 -0.0644 -0.3202
  764THF    H1014029   0.933   5.190   5.250 -0.6609 -1.6120 -1.4177
  764THF    H1114030   1.104   5.179   5.242 -1.1885  0.6755 -0.0017
  764THF    H1214031   1.094   5.270   5.023 -1.4761 -3.4073  0.3201
  764THF    H1314032   0.939   5.192   5.036 -0.0178 -0.9037 -1.7404
  765THF     O114033   0.444   0.947   0.079 -0.1134  0.5863  0.0838
  765THF     C214034   0.348   0.972   0.181  0.0265 -0.4902 -0.2905
  765THF     C314035   0.382   0.957  -0.047 -0.1078 -0.1507 -0.7369
  765THF     H414036   0.365   1.065   0.236  1.5110  0.3664  1.3891
  765THF     H514037   0.350   0.894   0.254  0.5337  0.0491 -1.3988
  765THF     H614038   0.444   1.011  -0.116 -0.5225 -0.8693 -0.2267
  765THF     H714039   0.365   0.855  -0.076 -2.0125  0.5560 -2.6643
  765THF     C814040   0.244   1.019  -0.028 -0.2142 -0.7924  0.0126
  765THF     C914041   0.215   0.963   0.105 -0.0976  0.8465 -0.2174
  765THF    H1014042   0.167   0.992  -0.097 -0.4302 -0.6347  1.9754
  765THF    H1114043   0.257   1.128  -0.026  1.2885  1.6721  1.7715
  765THF    H1214044   0.128   1.014   0.156 -0.6406 -0.2759  1.0197
  765THF    H1314045   0.177   0.858   0.099  3.3875  0.2251  1.9347
  766THF     O114046   5.294   1.871   1.221 -0.3993  0.2025 -0.0521
  766THF     C214047   5.156   1.860   1.257  0.2944 -0.2875  0.2413
  766THF     C314048   5.299   1.823   1.085  1.2067 -1.2767 -0.1046
  766THF     H414049   5.110   1.953   1.219  1.7205  1.7827  0.5460
  766THF     H514050   5.124   1.849   1.362  1.3937 -1.1410 -2.0637
  766THF     H614051   5.265   1.907   1.023 -2.0844 -2.0279 -0.6350
  766THF     H714052   5.401   1.793   1.055  0.1112  1.1511 -0.8227
  766THF     C814053   5.197   1.709   1.068 -0.4156  0.2019  0.2709
  766THF     C914054   5.093   1.738   1.181 -0.7810  0.2242  0.2890
  766THF    H1014055   5.251   1.613   1.079  0.3293  0.6241  2.1922
  766THF    H1114056   5.160   1.730   0.964 -0.6687  0.4788  0.0556
  766THF    H1214057   4.998   1.772   1.139 -0.3888  0.1357 -0.6668
  766THF    H1314058   5.082   1.658   1.249  1.5307 -0.5290 -0.4734
  767THF     O114059   2.416   1.886   1.046 -0.2914  0.3643  0.9339
  767THF     C214060   2.536   1.836   1.110 -0.6732  0.1240  0.1541
  767THF     C314061   2.454   1.990   0.961  0.1546 -0.3159 -0.6728
  767THF     H414062   2.591   1.789   1.022  1.2907 -2.0523 -0.6461
  767THF     H514063   2.522   1.767   1.197  0.2623 -2.5729  0.0318
  767THF     H614064   2.486   1.936   0.875  1.8409 -1.3428  1.1311
  767THF     H714065   2.374   2.058   0.948  0.7984 -2.0849 -1.2479
  767THF     C814066   2.583   2.049   1.026  0.8897  1.0664 -0.1553
  767THF     C914067   2.613   1.960   1.145  1.1724  0.1315 -0.5020
  767THF    H1014068   2.554   2.149   1.067  1.0152  1.6744  1.2870
  767THF    H1114069   2.670   2.054   0.957  0.5734  0.4123 -0.5750
  767THF    H1214070   2.716   1.943   1.161 -2.4172  1.3579 -2.7960
  767THF    H1314071   2.570   2.013   1.232  1.5266  1.0429  0.0815
  768THF     O114072   1.795   2.889   0.645 -0.2326 -0.3797 -0.0409
  768THF     C214073   1.914   2.848   0.714 -0.5012  0.0504  0.2103
  768THF     C314074   1.712   2.952   0.740  0.0648 -0.2932 -0.2303
  768THF     H414075   1.992   2.807   0.654  2.1679  2.1946 -0.0928
  768THF     H514076   1.885   2.759   0.778  0.3195  0.7937 -0.0260
  768THF     H614077   1.631   3.015   0.696  0.8492  0.4878  1.2398
  768THF     H714078   1.652   2.880   0.791 -0.8281  3.7831  1.3911
  768THF     C814079   1.812   3.025   0.831 -0.5360 -1.0106  0.4632
  768THF     C914080   1.952   2.969   0.802  0.1788  0.3636  0.9975
  768THF    H1014081   1.797   3.005   0.941 -2.1053 -0.3893  1.1633
  768THF    H1114082   1.809   3.134   0.817  1.2387  0.2318  0.8609
  768THF    H1214083   2.005   3.043   0.745 -1.3766  2.2277 -0.1830
  768THF    H1314084   2.004   2.943   0.902  1.2080 -0.2778 -1.4168
  769THF     O114085   3.151   0.508   1.895 -0.0487 -0.4053  0.5850
  769THF     C214086   3.048   0.535   1.799 -0.1684  0.9635  0.4450
  769THF     C314087   3.234   0.621   1.884 -0.1148  0.1229 -0.3907
  769THF     H414088   2.974   0.600   1.832  1.1018  2.1989  0.2079
  769THF     H514089   3.002   0.441   1.767 -0.0843  2.1055 -1.0118
  769THF     H614090   3.187   0.695   1.950 -1.6602 -0.6058  2.6463
  769THF     H714091   3.335   0.587   1.915 -4.3152 -1.8745  0.3899
  769THF     C814092   3.240   0.661   1.736  0.0409  0.3823  0.2131
  769THF     C914093   3.117   0.594   1.676  0.2704  0.5422  0.2688
  769THF    H1014094   3.330   0.626   1.682  1.1057 -1.9981  0.7127
  769THF    H1114095   3.245   0.773   1.729  0.2951  1.7696  1.4881
  769THF    H1214096   3.054   0.671   1.631 -1.0625  1.3450  1.7202
  769THF    H1314097   3.138   0.513   1.606 -0.6393  1.3974  0.4544
  770THF     O114098   4.698   4.733   2.845 -0.5932  0.3086  0.2370
  770THF     C214099   4.832   4.686   2.815  0.0116  0.1478  0.1079
  770THF     C314100   4.646   4.757   2.711 -0.7931 -0.2547  0.0074
  770THF     H414101   4.825   4.583   2.773 -0.5011  1.0462  0.1199
  770THF     H514102   4.894   4.675   2.900  0.8641  0.2225  0.3284
  770THF     H614103   4.629   4.671   2.646 -0.3025 -0.1157 -2.5702
  770THF     H714104   4.558   4.822   2.714  0.4220  0.2348  0.1138
  770THF     C814105   4.769   4.824   2.649  0.3881 -0.7956  0.5053
  770THF     C914106   4.892   4.781   2.720  0.2796 -0.4054 -0.9523
  770THF    H1014107   4.765   4.929   2.662  3.1374 -3.3583  2.7255
  770THF    H1114108   4.781   4.808   2.546  1.4800 -2.0530 -2.1349
  770THF    H1214109   4.968   4.725   2.663  2.0471  2.4632  2.7787
  770THF    H1314110   4.947   4.860   2.776  1.3999 -3.1730  1.1016
  771THF     O114111   4.442   1.725   4.673 -0.5010  0.2515  0.2545
  771THF     C214112   4.407   1.764   4.538 -0.7715  0.0611 -0.0607
  771THF     C314113   4.573   1.772   4.702  0.1275 -1.2570 -0.1108
  771THF     H414114   4.388   1.866   4.562  2.3164  0.2157  1.1153
  771THF     H514115   4.321   1.715   4.492 -0.2780  0.3698  1.1347
  771THF     H614116   4.559   1.861   4.762 -1.6585  1.5310 -0.6463
  771THF     H714117   4.614   1.686   4.755 -0.3656  0.5153  1.2676
  771THF     C814118   4.638   1.800   4.566 -1.7261 -0.7331 -0.0802
  771THF     C914119   4.536   1.744   4.465 -0.4980 -0.0285 -0.4774
  771THF    H1014120   4.739   1.760   4.559 -0.2831  1.8288  1.4936
  771THF    H1114121   4.656   1.908   4.556  0.7237  0.2379  1.2393
  771THF    H1214122   4.537   1.801   4.370 -1.9943  1.1066 -3.8728
  771THF    H1314123   4.554   1.638   4.444 -0.5332 -2.0024 -1.1539
  772THF     O114124   4.372   0.341   5.476  0.4824  0.3894  0.2100
  772THF     C214125   4.393   0.467   5.534 -0.4269  0.7045 -1.1876
  772THF     C314126   4.365   0.351   5.335  0.6789  0.0109 -0.2266
  772THF     H414127   4.434   0.459   5.633 -0.8078 -1.3566 -0.3819
  772THF     H514128   4.307   0.534   5.532  0.9569  1.9034  0.8446
  772THF     H614129   4.435   0.274   5.296  0.8906  1.2858 -1.1520
  772THF     H714130   4.263   0.353   5.316 -0.3511  2.9684  1.9977
  772THF     C814131   4.426   0.489   5.306 -0.3220 -0.0262  0.5052
  772THF     C914132   4.495   0.521   5.441  0.2199  0.6306  0.6784
  772THF    H1014133   4.348   0.561   5.290 -1.3845 -0.9176 -1.5433
  772THF    H1114134   4.498   0.483   5.227  0.4308 -0.2689 -0.4000
  772THF    H1214135   4.598   0.472   5.454  1.5822  0.9195 -2.6330
  772THF    H1314136   4.509   0.630   5.453  1.5127  4.3872 -0.5775
  773THF     O114137   0.123   3.453   1.979 -0.1431 -0.1391  0.0495
  773THF     C214138   0.219   3.469   2.081 -0.3431 -0.5182 -0.0445
  773THF     C314139   0.118   3.578   1.905 -0.9902  0.2609  0.2961
  773THF     H414140   0.272   3.374   2.102  2.3121 -2.2924 -0.5620
  773THF     H514141   0.166   3.509   2.170 -2.6736  3.1351 -0.4111
  773THF     H614142   0.081   3.563   1.801  1.0706  1.2918 -0.9488
  773THF     H714143   0.053   3.651   1.953 -2.3093  1.1845 -0.1618
  773THF     C814144   0.266   3.609   1.895  0.7355  0.3187 -0.0644
  773THF     C914145   0.321   3.574   2.031  0.8055 -0.1795 -0.5326
  773THF    H1014146   0.281   3.712   1.869 -0.3371  0.0598 -0.7686
  773THF    H1114147   0.316   3.546   1.821 -1.5485  1.4535 -0.8959
  773THF    H1214148   0.421   3.526   2.041  0.2339  2.6067  1.4160
  773THF    H1314149   0.317   3.661   2.103 -0.1289  1.7493  0.0053
  774THF     O114150   3.182   3.564   1.000 -0.3914  0.1198 -0.2121
  774THF     C214151   3.259   3.456   0.940 -0.4098  0.0350  0.9183
  774THF     C314152   3.256   3.687   0.990 -0.5702 -0.2854  0.0028
  774THF     H414153   3.189   3.378   0.889 -1.1350  0.1731  1.9065
  774THF     H514154   3.316   3.395   1.018  0.7999 -0.7330 -2.7290
  774THF     H614155   3.191   3.774   0.992  1.4384  0.4573 -0.5883
  774THF     H714156   3.322   3.686   1.078 -1.4273  3.1183 -3.1480
  774THF     C814157   3.323   3.662   0.857  0.4253 -1.2100  0.0142
  774THF     C914158   3.363   3.518   0.846  0.8537 -0.1215  0.4701
  774THF    H1014159   3.419   3.716   0.846  1.1102 -1.5843 -0.7591
  774THF    H1114160   3.262   3.696   0.773 -2.3201  1.0448  2.0509
  774THF    H1214161   3.359   3.477   0.748 -2.8389 -2.3463  1.4595
  774THF    H1314162   3.464   3.503   0.889 -0.5216 -3.5548  2.3681
  775THF     O114163   4.941   1.816   4.195  0.0317 -0.4720  0.2665
  775THF     C214164   4.839   1.715   4.204 -0.2417  0.1390 -0.3587
  775THF     C314165   4.995   1.812   4.061  0.2707 -0.2598 -0.7220
  775THF     H414166   4.754   1.747   4.148 -0.0451  1.5390 -0.2797
  775THF     H514167   4.812   1.685   4.302  1.7755  1.2057 -0.1601
  775THF     H614168   4.943   1.900   4.007  3.3657  1.8897 -2.3680
  775THF     H714169   5.097   1.846   4.056 -0.3177  2.5710 -0.5599
  775THF     C814170   4.970   1.676   4.007  0.7783  0.5028 -0.5788
  775THF     C914171   4.904   1.604   4.123 -0.9409 -0.8788 -0.3899
  775THF    H1014172   5.063   1.629   3.961 -0.5139 -2.4303 -1.9308
  775THF    H1114173   4.882   1.670   3.927  0.1957 -1.3750  0.7640
  775THF    H1214174   4.828   1.527   4.087  1.4996 -1.0501 -2.0086
  775THF    H1314175   4.966   1.547   4.195 -0.5910 -2.7516 -2.6759
  776THF     O114176   3.699   3.311   1.310 -0.0499  0.7121 -0.4585
  776THF     C214177   3.565   3.285   1.326  0.6098 -0.0107 -0.1296
  776THF     C314178   3.706   3.428   1.232 -0.2156  0.3525 -0.2007
  776THF     H414179   3.544   3.220   1.411  1.8980  1.8096 -2.4953
  776THF     H514180   3.530   3.224   1.244  0.1238 -0.6228  0.7384
  776THF     H614181   3.803   3.469   1.233  0.4122 -1.6964 -0.2895
  776THF     H714182   3.700   3.394   1.127 -0.3901  1.7772 -3.7849
  776THF     C814183   3.593   3.519   1.273  0.1910  0.2141 -0.0495
  776THF     C914184   3.490   3.417   1.323 -0.1670 -0.2328  0.2259
  776THF    H1014185   3.548   3.578   1.197  0.7560 -2.7963 -0.4171
  776THF    H1114186   3.624   3.590   1.350  1.4519  1.2901  1.9670
  776THF    H1214187   3.467   3.450   1.418  1.8962 -0.3859  0.7348
  776THF    H1314188   3.408   3.406   1.253  1.6689 -0.4696 -1.9284
  777THF     O114189   1.584   2.162   3.116  0.6439  0.4855  0.1095
  777THF     C214190   1.635   2.280   3.172 -0.0887  0.0786 -0.0436
  777THF     C314191   1.603   2.067   3.221 -0.0656  0.2584 -0.2571
  777THF     H414192   1.563   2.326   3.240 -1.3217 -1.9065 -1.8268
  777THF     H514193   1.643   2.347   3.085 -1.8311 -0.5099 -1.9332
  777THF     H614194   1.516   2.069   3.281 -0.4284  0.1563 -2.3546
  777THF     H714195   1.609   1.967   3.174 -0.9682 -1.3898  1.7265
  777THF     C814196   1.732   2.104   3.297 -0.8507  0.2846 -0.3010
  777THF     C914197   1.764   2.249   3.245 -0.3221  0.3630 -0.0484
  777THF    H1014198   1.807   2.028   3.291  1.6696 -0.4604 -1.5761
  777THF    H1114199   1.704   2.107   3.404  0.6190 -0.2567  1.9096
  777THF    H1214200   1.796   2.319   3.327  1.3973  0.7595 -2.7319
  777THF    H1314201   1.853   2.233   3.183 -0.4097  1.2575 -1.3887
  778THF     O114202   2.112   0.133   4.807  0.1252 -0.5089  0.2139
  778THF     C214203   2.141   0.258   4.872 -0.0528 -0.0846 -0.0703
  778THF     C314204   2.084   0.156   4.672 -0.0048  0.0456  0.0020
  778THF     H414205   2.188   0.249   4.967  2.3272  3.3469  1.8738
  778THF     H514206   2.051   0.313   4.889  0.6217 -0.9288  0.5275
  778THF     H614207   2.127   0.069   4.611 -1.5694  0.4551 -1.8483
  778THF     H714208   1.978   0.145   4.644  2.0867  0.4791  2.5033
  778THF     C814209   2.147   0.289   4.635 -0.3017 -0.3796  0.1133
  778THF     C914210   2.215   0.333   4.764 -0.2997 -0.6544 -0.2228
  778THF    H1014211   2.069   0.366   4.622 -1.1206  0.9440  3.2464
  778THF    H1114212   2.222   0.276   4.555  1.9815  0.0457 -0.8332
  778THF    H1214213   2.317   0.294   4.763  1.3631  0.7498 -0.5190
  778THF    H1314214   2.211   0.444   4.770  2.5256  1.3716  0.8505
  779THF     O114215   2.873   5.233   4.988  0.7648 -0.0299  0.1929
  779THF     C214216   2.762   5.230   4.896 -0.4329 -0.3036 -0.2907
  779THF     C314217   2.955   5.341   4.950 -0.3272  0.6095 -0.3659
  779THF     H414218   2.668   5.266   4.940  2.7020 -1.6903  0.2388
  779THF     H514219   2.741   5.127   4.867 -1.5684  1.0969 -0.1398
  779THF     H614220   2.915   5.437   4.992  1.5413  1.3811  2.5189
  779THF     H714221   3.055   5.321   5.002  0.3683 -0.3005  1.1040
  779THF     C814222   2.960   5.338   4.800 -0.1378  0.1352  0.1722
  779THF     C914223   2.806   5.300   4.769 -0.8270 -0.1091  0.1746
  779THF    H1014224   3.020   5.258   4.760  0.4994  3.6513 -0.0462
  779THF    H1114225   2.987   5.430   4.749 -0.6551  0.8563  1.3152
  779THF    H1214226   2.739   5.382   4.759  0.6120  1.9129 -1.0523
  779THF    H1314227   2.799   5.235   4.675  1.0613  0.2049  0.8553
  780THF     O114228   3.229   1.912   3.106  0.7618 -0.0446  0.6185
  780THF     C214229   3.368   1.924   3.085 -0.0705  1.0192  0.2553
  780THF     C314230   3.177   1.831   2.999 -0.3125 -0.2040  0.5568
  780THF     H414231   3.430   1.837   3.110  1.5285  1.5388 -0.6735
  780THF     H514232   3.410   2.010   3.139  2.4610 -0.3773  0.2448
  780THF     H614233   3.200   1.729   3.022  3.7935 -1.0044 -1.9505
  780THF     H714234   3.070   1.850   2.978  0.5841 -0.9893 -0.0985
  780THF     C814235   3.260   1.871   2.880  0.2283  0.2666 -0.4325
  780THF     C914236   3.370   1.955   2.934  0.8349  0.5205  0.1313
  780THF    H1014237   3.198   1.932   2.807 -1.9450  1.7202  1.8634
  780THF    H1114238   3.295   1.774   2.840 -0.4495 -1.3811  2.2463
  780THF    H1214239   3.465   1.937   2.884 -1.8236  3.3365  0.3361
  780THF    H1314240   3.339   2.061   2.937  1.0758  2.1882 -0.1227
  781THF     O114241   4.569   4.373   3.125  0.4293  0.1428  0.0190
  781THF     C214242   4.650   4.373   3.015  0.2977 -0.3862 -0.0081
  781THF     C314243   4.629   4.451   3.228  0.7798  0.0257  0.5131
  781THF     H414244   4.627   4.467   2.954 -2.1885  1.1806 -1.2151
  781THF     H514245   4.644   4.288   2.949  1.4980 -1.5472 -0.9542
  781THF     H614246   4.581   4.552   3.232 -0.1358  1.9985 -0.8236
  781THF     H714247   4.623   4.406   3.322 -2.2649  0.6463  1.0127
  781THF     C814248   4.773   4.469   3.199  0.2956 -0.0350  0.3223
  781THF     C914249   4.790   4.379   3.073  0.6040  0.7084  0.1364
  781THF    H1014250   4.834   4.437   3.292  0.5172 -2.3222  2.5581
  781THF    H1114251   4.785   4.574   3.186 -0.1836  2.7483  1.0685
  781THF    H1214252   4.862   4.419   3.006 -0.6142 -2.1533  0.4399
  781THF    H1314253   4.830   4.286   3.112 -0.0372 -1.0763  1.2650
  782THF     O114254   2.274   2.207   1.842 -0.0447  0.0155  0.2139
  782THF     C214255   2.163   2.174   1.927 -0.2455 -0.1823 -0.7325
  782THF     C314256   2.387   2.159   1.900  0.0371  1.5042  0.1413
  782THF     H414257   2.125   2.074   1.903  2.1025  1.2195  0.9141
  782THF     H514258   2.082   2.240   1.889 -1.1635 -1.0450 -2.9683
  782THF     H614259   2.404   2.053   1.881 -0.2779 -1.9083 -0.5374
  782THF     H714260   2.490   2.213   1.874 -0.0734  1.2744  0.3374
  782THF     C814261   2.368   2.192   2.047 -0.5975 -0.7264  0.2260
  782THF     C914262   2.214   2.198   2.069 -0.5564 -0.1363 -0.0368
  782THF    H1014263   2.406   2.292   2.063  1.5539  1.2126 -0.6132
  782THF    H1114264   2.430   2.122   2.101  3.8610 -3.1694 -1.0757
  782THF    H1214265   2.180   2.116   2.134 -0.3896 -0.8488  0.8407
  782THF    H1314266   2.188   2.283   2.130  1.8485 -1.2867  0.7080
  783THF     O114267   0.193   3.086   2.880 -0.1993 -0.5337 -0.4271
  783THF     C214268   0.061   3.094   2.922  0.2347 -0.5811 -0.6217
  783THF     C314269   0.266   3.177   2.956  0.3971  0.4782 -0.1114
  783THF     H414270  -0.000   3.013   2.882 -2.0757 -0.3097  3.9361
  783THF     H514271   0.015   3.183   2.873 -1.2775  1.7471 -1.3959
  783THF     H614272   0.374   3.148   2.963 -0.6176  2.3465 -2.2779
  783THF     H714273   0.275   3.278   2.911 -1.8864  2.4505  3.4888
  783THF     C814274   0.194   3.183   3.089 -0.4053 -0.3813 -0.7770
  783THF     C914275   0.062   3.105   3.075 -0.6320  0.6233  0.0392
  783THF    H1014276   0.168   3.282   3.126  0.4367 -2.3856 -0.5024
  783THF    H1114277   0.254   3.148   3.162 -2.6458  1.0675 -0.8644
  783THF    H1214278   0.076   3.007   3.125 -2.0653 -0.3698  0.3963
  783THF    H1314279  -0.022   3.158   3.107  1.2166  3.8809 -1.6499
  784THF     O114280   2.225   4.288   1.120  0.4470  0.1441  0.6606
  784THF     C214281   2.199   4.282   1.260  0.2352  0.1921 -0.4474
  784THF     C314282   2.338   4.208   1.098 -0.0744 -0.5939  0.2796
  784THF     H414283   2.155   4.189   1.289 -2.0163  3.0616  1.2164
  784THF     H514284   2.125   4.359   1.284  0.1394 -0.6497  0.9058
  784THF     H614285   2.312   4.105   1.116  0.5641 -1.1823  1.1949
  784THF     H714286   2.385   4.235   0.998  0.9887  1.2366  1.1032
  784THF     C814287   2.426   4.241   1.221 -0.0691  0.5731 -0.1492
  784THF     C914288   2.340   4.315   1.313 -0.7147  0.1269  0.0759
  784THF    H1014289   2.508   4.302   1.187 -1.6319 -0.1073  1.2382
  784THF    H1114290   2.466   4.151   1.279 -0.3428 -0.7720 -0.2654
  784THF    H1214291   2.353   4.290   1.415  0.5114 -0.1527  1.0534
  784THF    H1314292   2.365   4.423   1.309  0.4553 -2.4378  0.8453
  785THF     O114293   5.006   4.022   3.499  0.1333  0.0604  0.1738
  785THF     C214294   5.048   4.099   3.600 -0.7317  0.0807 -0.6532
  785THF     C314295   4.873   4.045   3.459 -0.7288  0.7235 -1.1502
  785THF     H414296   5.088   4.195   3.572 -3.5918  3.4269 -1.6399
  785THF     H514297   5.122   4.043   3.652 -0.7830  0.1946  1.3235
  785THF     H614298   4.879   4.137   3.402 -0.7952  2.4163 -1.2966
  785THF     H714299   4.838   3.957   3.409  0.2001 -0.2853  0.6146
  785THF     C814300   4.805   4.063   3.591 -0.8097  1.0744 -0.2858
  785THF     C914301   4.919   4.112   3.681  0.3998  0.3417  0.3607
  785THF    H1014302   4.758   3.975   3.632  0.0235  0.8170 -1.7886
  785THF    H1114303   4.721   4.129   3.594 -0.3372 -3.0480  0.8802
  785THF    H1214304   4.906   4.214   3.718  1.4977  2.1255  1.9774
  785THF    H1314305   4.930   4.050   3.769  3.2582  2.1282 -3.7651
  786THF     O114306   3.140   3.058   2.651  0.2491 -0.1204  0.2754
  786THF     C214307   3.175   2.986   2.760  0.1269 -0.0862 -0.7234
  786THF     C314308   3.251   3.099   2.575 -0.6742  0.3548 -0.0635
  786THF     H414309   3.099   2.917   2.796 -1.7878  0.8094  0.7265
  786THF     H514310   3.212   3.049   2.846  0.0040 -3.0697  2.5634
  786THF     H614311   3.238   3.080   2.473  0.6636 -0.6581  1.2498
  786THF     H714312   3.271   3.205   2.589 -0.2570  1.4721 -1.0775
  786THF     C814313   3.375   3.017   2.620  0.3633  0.1345 -1.2245
  786THF     C914314   3.298   2.918   2.709  0.0262 -0.1098  0.4967
  786THF    H1014315   3.446   3.082   2.672 -1.0839  2.3634 -1.2596
  786THF    H1114316   3.438   2.964   2.540  3.0793  1.3107 -0.3112
  786THF    H1214317   3.282   2.823   2.659  0.1138 -0.4769 -1.1864
  786THF    H1314318   3.362   2.888   2.801  0.6396 -1.4181  0.3994
  787THF     O114319   1.340   4.570   0.740  0.3790 -0.4119  0.2777
  787THF     C214320   1.445   4.484   0.690 -0.2544  0.0293  0.0833
  787THF     C314321   1.280   4.634   0.634 -0.0445  0.6522  0.3669
  787THF     H414322   1.399   4.396   0.643  0.0845 -0.3803  0.0673
  787THF     H514323   1.513   4.448   0.767 -3.1203 -0.4662 -1.3087
  787THF     H614324   1.207   4.562   0.590  3.5330  0.0465  0.9273
  787THF     H714325   1.243   4.728   0.670 -1.7865  1.6488 -0.0966
  787THF     C814326   1.401   4.674   0.551  0.0817 -0.6118  0.5639
  787THF     C914327   1.507   4.569   0.582 -0.6482  0.4693  0.0500
  787THF    H1014328   1.444   4.773   0.585  3.0895  0.5143 -1.5685
  787THF    H1114329   1.372   4.691   0.449 -0.0230  1.0529  0.9865
  787THF    H1214330   1.535   4.506   0.496 -1.5044  0.8593  0.3164
  787THF    H1314331   1.596   4.610   0.619  0.0527  0.4793 -1.3455
  788THF     O114332   1.921   3.802   4.243 -0.1968 -0.8530  0.3994
  788THF     C214333   2.011   3.799   4.129  0.2322  0.8352 -0.2630
  788THF     C314334   1.962   3.706   4.343 -0.0143  0.7614 -0.0626
  788THF     H414335   2.027   3.897   4.086  0.8171  0.0426 -0.3692
  788THF     H514336   1.967   3.737   4.043 -0.4731 -0.9152 -1.9582
  788THF     H614337   1.979   3.765   4.438  1.3509 -0.0802  0.2007
  788THF     H714338   1.889   3.630   4.360  0.8932  0.5146  0.4238
  788THF     C814339   2.082   3.637   4.277 -0.1709  0.5137 -0.2358
  788THF     C914340   2.137   3.735   4.178  0.4776 -0.0896 -0.1960
  788THF    H1014341   2.067   3.546   4.225  1.5544  3.1311  0.5723
  788THF    H1114342   2.152   3.602   4.351  0.6395 -0.1600 -1.6162
  788THF    H1214343   2.198   3.801   4.244  0.4098  1.0432 -0.0968
  788THF    H1314344   2.204   3.690   4.101  1.0834  1.5029  0.2250
  789THF     O114345   3.658   2.098   3.798  0.3490  0.4311  0.6209
  789THF     C214346   3.590   2.207   3.853  0.1992  0.3232  0.1427
  789THF     C314347   3.719   2.123   3.670  0.3841  0.5321 -0.1042
  789THF     H414348   3.648   2.252   3.931 -0.9219  1.8590 -0.9575
  789THF     H514349   3.492   2.170   3.890  0.5795 -2.1616  0.2612
  789THF     H614350   3.824   2.099   3.687  3.5391 -0.8817 -1.6346
  789THF     H714351   3.675   2.059   3.591  2.5838 -1.9563 -1.7557
  789THF     C814352   3.698   2.271   3.647  0.1000  0.2274 -0.0332
  789THF     C914353   3.585   2.302   3.740  0.4166 -0.0207 -0.0697
  789THF    H1014354   3.675   2.302   3.541 -0.6273 -0.1590  0.9395
  789THF    H1114355   3.784   2.317   3.679 -0.1808 -0.6248  1.4667
  789THF    H1214356   3.579   2.407   3.768 -3.5443  0.0611 -1.0503
  789THF    H1314357   3.487   2.289   3.691 -0.3875  1.0448 -0.5300
  790THF     O114358   3.269   3.919   3.691 -0.3477 -0.2667  0.8854
  790THF     C214359   3.313   4.015   3.787 -0.6999  0.3954 -0.0660
  790THF     C314360   3.386   3.845   3.648  0.7670  0.7545 -0.2115
  790THF     H414361   3.341   3.967   3.875  1.0935  0.7618 -2.5883
  790THF     H514362   3.233   4.085   3.796  1.7940  1.3519 -0.5591
  790THF     H614363   3.419   3.762   3.714  3.7472 -1.1654 -0.8155
  790THF     H714364   3.361   3.804   3.543  0.4352 -1.7674 -0.4908
  790THF     C814365   3.498   3.953   3.642 -0.2329 -0.2964 -0.1107
  790THF     C914366   3.443   4.067   3.723 -0.0239 -0.5396 -0.0048
  790THF    H1014367   3.519   3.976   3.536 -0.1727 -0.5802  3.1377
  790THF    H1114368   3.588   3.923   3.678 -3.8888  4.3150  1.5297
  790THF    H1214369   3.516   4.089   3.803  0.6313 -5.9315 -2.8837
  790THF    H1314370   3.427   4.146   3.650 -1.0635 -0.3051 -1.0843
  791THF     O114371   2.668   3.032   2.482  0.6593 -0.3862 -0.1950
  791THF     C214372   2.725   2.945   2.571  0.4310  0.1030 -0.1616
  791THF     C314373   2.683   2.976   2.345 -0.1273 -0.1580 -0.5357
  791THF     H414374   2.665   2.856   2.570 -0.6103 -0.9581 -2.4413
  791THF     H514375   2.725   2.992   2.670 -1.2821 -2.2902 -0.8388
  791THF     H614376   2.604   2.903   2.327 -1.2438  0.8477 -3.5517
  791THF     H714377   2.679   3.054   2.270  0.5420  2.3976 -0.0058
  791THF     C814378   2.825   2.905   2.359 -0.2785  0.3061  0.1641
  791THF     C914379   2.859   2.911   2.512  0.3402  0.4805  0.0121
  791THF    H1014380   2.912   2.938   2.305  4.2102 -0.3601  0.2859
  791THF    H1114381   2.825   2.804   2.318  0.8643 -1.6427  1.9817
  791THF    H1214382   2.894   2.813   2.556  1.0500 -1.2587  0.0612
  791THF    H1314383   2.932   2.993   2.538  2.8437  1.5710  0.9406
  792THF     O114384   3.640   1.445   4.901 -0.4655  0.4730 -0.2435
  792THF     C214385   3.771   1.417   4.941  0.0010  0.1533  0.1982
  792THF     C314386   3.573   1.523   5.006  0.5489  0.3581 -0.2846
  792THF     H414387   3.841   1.409   4.854  1.9415  1.4554  0.1969
  792THF     H514388   3.760   1.317   4.984 -1.8908  0.4030  0.5204
  792THF     H614389   3.497   1.579   4.958 -1.9909  0.0120  0.1297
  792THF     H714390   3.550   1.456   5.085 -3.3257 -1.1245  0.9172
  792THF     C814391   3.680   1.609   5.055  0.3072  0.3502 -0.3120
  792THF     C914392   3.807   1.534   5.041 -0.5812  0.2927 -0.4660
  792THF    H1014393   3.664   1.648   5.160  0.1458  1.2488 -0.3938
  792THF    H1114394   3.687   1.689   4.981  0.6362 -0.5607 -0.8603
  792THF    H1214395   3.894   1.585   5.001 -0.5138 -2.9937 -0.2740
  792THF    H1314396   3.824   1.508   5.148 -1.1249  1.6391 -1.4420
  793THF     O114397   0.177   3.971   4.225  0.1738 -0.0004  0.0033
  793THF     C214398   0.077   4.068   4.195  0.4056  0.5886  0.3549
  793THF     C314399   0.153   3.907   4.347  0.3196 -0.3535  0.8148
  793THF     H414400   0.073   4.078   4.083 -1.5190 -2.3030  1.1675
  793THF     H514401   0.111   4.162   4.242 -0.0679  0.4729 -0.0332
  793THF     H614402   0.199   3.815   4.354  1.0211  3.5122 -0.2523
  793THF     H714403   0.188   3.977   4.424 -1.1509  1.4398  0.6077
  793THF     C814404  -0.005   3.900   4.350 -0.0765  0.3895 -0.2680
  793THF     C914405  -0.051   3.993   4.241  0.1868  0.0433 -0.3250
  793THF    H1014406  -0.048   3.919   4.449  1.6954  1.3974  0.5065
  793THF    H1114407  -0.043   3.799   4.328 -0.7425  2.2876  1.5004
  793THF    H1214408  -0.090   3.942   4.156 -2.5855  0.9600 -0.3204
  793THF    H1314409  -0.128   4.068   4.263 -0.6644  0.1802 -0.7227
  794THF     O114410   0.585   4.792   1.359  0.4968  0.5444 -0.7051
  794THF     C214411   0.715   4.788   1.305  0.5614  0.7292 -0.0540
  794THF     C314412   0.546   4.924   1.360 -0.0071  0.1109  0.1104
  794THF     H414413   0.745   4.691   1.274  0.0711 -0.4976  0.1690
  794THF     H514414   0.787   4.815   1.382  1.2843  0.2427 -0.6539
  794THF     H614415   0.439   4.933   1.388  2.0449  3.2240  1.0575
  794THF     H714416   0.607   4.978   1.438 -4.2752  3.1234  0.6940
  794THF     C814417   0.583   4.969   1.217  0.5321 -0.6199 -0.3429
  794THF     C914418   0.711   4.894   1.187 -0.7133 -0.4492  0.1658
  794THF    H1014419   0.609   5.076   1.223  0.0056 -0.2220 -0.3589
  794THF    H1114420   0.500   4.939   1.154 -1.1419  0.7650  0.4637
  794THF    H1214421   0.722   4.846   1.089 -0.8619 -4.7669 -1.7412
  794THF    H1314422   0.791   4.963   1.203  0.7053 -0.6359  2.0363
  795THF     O114423   3.147   3.926   5.119 -0.1621 -0.0171  0.5314
  795THF     C214424   3.246   4.029   5.130  0.8331  0.3725 -0.5089
  795THF     C314425   3.198   3.822   5.042  0.0818 -0.7953 -0.0574
  795THF     H414426   3.235   4.097   5.221 -0.4443 -0.4074  2.1879
  795THF     H514427   3.250   4.093   5.040 -2.3764  1.8425 -0.9321
  795THF     H614428   3.141   3.734   5.046  1.1359  2.6076 -0.3995
  795THF     H714429   3.192   3.843   4.934 -2.4449 -1.4636  2.5763
  795THF     C814430   3.335   3.812   5.094 -0.6660  0.1902 -0.3813
  795THF     C914431   3.377   3.952   5.136 -0.2917 -0.0502  0.4559
  795THF    H1014432   3.391   3.749   5.027  0.5969  0.1282 -1.6735
  795THF    H1114433   3.320   3.748   5.187  0.1156  0.8693 -0.2609
  795THF    H1214434   3.406   3.956   5.233  0.3397  1.0790  0.2982
  795THF    H1314435   3.461   3.988   5.073  1.2729 -1.5199 -2.9233
  796THF     O114436   2.945   1.662   4.306  0.5636 -0.2049  0.5094
  796THF     C214437   2.976   1.610   4.435  0.0961  0.0333 -0.7070
  796THF     C314438   3.006   1.579   4.206  0.7258 -0.1205  0.1096
  796THF     H414439   2.902   1.636   4.512  0.5359 -1.7385 -2.7105
  796THF     H514440   3.077   1.633   4.469 -1.5456 -2.6075  0.5321
  796THF     H614441   2.944   1.541   4.127 -0.0347  0.4765 -1.3295
  796THF     H714442   3.097   1.628   4.166  0.9850 -0.4225 -0.9739
  796THF     C814443   3.059   1.459   4.279  0.8785  1.1491  0.0776
  796THF     C914444   2.980   1.459   4.408 -0.5142 -0.5527  0.5404
  796THF    H1014445   3.166   1.471   4.303 -1.3435  0.2356 -1.2991
  796THF    H1114446   3.061   1.357   4.228  0.1030  0.5123 -1.0802
  796THF    H1214447   2.882   1.422   4.400  2.3421 -1.3366  2.2738
  796THF    H1314448   3.028   1.400   4.486  2.5895 -2.4241  0.7854
  797THF     O114449   0.493   3.074   1.759  0.1421  0.1106 -0.4437
  797THF     C214450   0.489   3.209   1.793  0.1755  0.1988  0.6588
  797THF     C314451   0.586   3.059   1.656 -0.2963  0.4419 -0.0892
  797THF     H414452   0.583   3.228   1.850  2.7805 -2.0256 -0.1868
  797THF     H514453   0.397   3.248   1.847  1.4649  0.7873 -2.9310
  797THF     H614454   0.689   3.086   1.682 -1.6502  2.2022  1.1640
  797THF     H714455   0.582   2.955   1.605  0.5036 -0.9994 -1.6633
  797THF     C814456   0.530   3.164   1.561 -0.1324 -0.1898  0.0138
  797THF     C914457   0.488   3.275   1.657 -0.1619  0.2819 -0.3256
  797THF    H1014458   0.450   3.132   1.498 -1.7921  2.8077  2.6278
  797THF    H1114459   0.597   3.212   1.496 -2.9378  1.7495  1.6344
  797THF    H1214460   0.545   3.376   1.649 -1.9467  2.2648  0.0172
  797THF    H1314461   0.391   3.304   1.623  0.5006  0.9992 -1.0383
  798THF     O114462   2.655   1.209   0.956  0.3642 -0.2576  0.1952
  798THF     C214463   2.739   1.096   0.960 -1.1929 -0.2076  0.2772
  798THF     C314464   2.599   1.238   1.084 -0.0792 -0.7475 -0.6773
  798THF     H414465   2.845   1.127   0.962  0.4853 -0.8801  0.0423
  798THF     H514466   2.728   1.043   0.862  1.5471 -4.0038 -0.8040
  798THF     H614467   2.635   1.339   1.121  1.4085 -0.6696  2.2047
  798THF     H714468   2.493   1.241   1.059 -0.9145 -0.5251  0.4345
  798THF     C814469   2.660   1.130   1.172  0.1619  0.4808  0.1600
  798THF     C914470   2.708   1.013   1.083 -0.2584  0.1872 -0.4290
  798THF    H1014471   2.579   1.095   1.238 -0.5510 -0.4378  1.2417
  798THF    H1114472   2.743   1.182   1.227  1.1215 -0.4876  1.3170
  798THF    H1214473   2.795   0.958   1.133 -1.5427 -2.1451  0.6142
  798THF    H1314474   2.632   0.939   1.066 -0.3853  0.3684 -1.2205
  799THF     O114475   0.932   0.672   3.899  0.0831  0.2841 -0.2217
  799THF     C214476   0.977   0.741   3.787 -0.5225 -0.2364 -0.1087
  799THF     C314477   1.037   0.685   3.994 -0.1655  0.1071 -0.3187
  799THF     H414478   0.994   0.850   3.799 -0.7914 -1.5718 -0.5726
  799THF     H514479   0.925   0.724   3.691 -1.7485 -0.1955 -0.0439
  799THF     H614480   1.061   0.789   4.021 -4.3591  2.9324 -0.4889
  799THF     H714481   1.002   0.625   4.079 -0.6541  1.9139  0.2925
  799THF     C814482   1.150   0.621   3.911 -0.2015  0.2156 -0.0330
  799THF     C914483   1.117   0.681   3.782 -0.5342 -0.0816 -0.7570
  799THF    H1014484   1.122   0.518   3.902  1.3331  1.4643 -1.2947
  799THF    H1114485   1.247   0.647   3.946  0.4085 -0.8723  0.4798
  799THF    H1214486   1.183   0.764   3.747  1.3839  1.1263  0.1055
  799THF    H1314487   1.126   0.605   3.703 -0.1554  0.2676  3.3526
  800THF     O114488   1.103   5.215   0.107  0.1353  0.0994 -0.2162
  800THF     C214489   1.184   5.304   0.182 -0.2974 -0.0068  0.2542
  800THF     C314490   0.973   5.195   0.167  0.1244 -0.0423 -0.8659
  800THF     H414491   1.257   5.359   0.119  2.3587  2.4424 -3.7011
  800THF     H514492   1.242   5.238   0.253  2.2014  0.4521 -0.8844
  800THF     H614493   0.906   5.196   0.082  2.3277  0.0864  0.7737
  800THF     H714494   0.985   5.095   0.219 -0.4232 -0.3494 -1.4712
  800THF     C814495   0.956   5.314   0.267 -0.0697  0.8676 -0.6043
  800THF     C914496   1.080   5.397   0.252 -0.1325 -0.2343 -0.3268
  800THF    H1014497   0.968   5.263   0.368 -1.8341  1.5912  0.6854
  800THF    H1114498   0.867   5.372   0.252  0.1323 -0.4631  3.2098
  800THF    H1214499   1.066   5.485   0.185 -0.2852  1.1399 -3.0067
  800THF    H1314500   1.126   5.436   0.340  0.4658  0.3909  0.5920
  801THF     O114501   1.206   2.205   2.701 -0.0840  0.0744  0.1565
  801THF     C214502   1.263   2.320   2.640  0.9146  0.4532  0.6608
  801THF     C314503   1.305   2.111   2.731 -0.4707 -0.4108  0.4105
  801THF     H414504   1.281   2.383   2.731  0.1082  1.1663  2.1621
  801THF     H514505   1.210   2.372   2.563  2.1359  0.6766  3.1277
  801THF     H614506   1.306   2.076   2.835 -0.5319  0.3867 -1.5018
  801THF     H714507   1.276   2.019   2.674  0.6900  0.4515 -0.2831
  801THF     C814508   1.440   2.167   2.680  0.4529 -0.2090  0.2247
  801THF     C914509   1.394   2.269   2.578 -0.1799  0.4961  0.0280
  801THF    H1014510   1.517   2.089   2.664 -2.1592 -2.0652 -0.2464
  801THF    H1114511   1.475   2.223   2.766  1.7717  0.8045  0.6456
  801THF    H1214512   1.475   2.339   2.558  0.0740 -0.8471 -1.4941
  801THF    H1314513   1.371   2.216   2.486 -0.0208  0.3831  1.8841
  802THF     O114514   2.441   4.099   0.542 -0.1302 -0.3403  0.0908
  802THF     C214515   2.579   4.126   0.527 -0.0195 -0.3390 -0.8287
  802THF     C314516   2.370   4.165   0.446 -0.1766 -0.4354 -0.2025
  802THF     H414517   2.645   4.058   0.571 -3.6818 -0.2809 -2.4759
  802THF     H514518   2.603   4.225   0.572 -1.7148 -0.3658 -0.1407
  802THF     H614519   2.293   4.111   0.399 -0.2868 -0.3096 -0.5268
  802THF     H714520   2.329   4.256   0.484  0.1432  0.8854  2.9537
  802THF     C814521   2.471   4.203   0.330 -0.8114  0.0531  0.2728
  802THF     C914522   2.597   4.140   0.378 -0.3550  0.3676 -0.7513
  802THF    H1014523   2.483   4.307   0.334 -0.0379 -0.5624  1.4144
  802THF    H1114524   2.452   4.182   0.227 -2.4650 -2.5995 -0.5955
  802THF    H1214525   2.594   4.036   0.338  0.3496 -0.2431  2.9078
  802THF    H1314526   2.693   4.187   0.365 -2.6957  1.9275 -0.2771
  803THF     O114527   3.438   1.681   4.547 -0.3425  0.7884 -0.2833
  803THF     C214528   3.520   1.709   4.438  0.0210 -0.2739 -0.4832
  803THF     C314529   3.498   1.570   4.625  1.2279  0.3026  0.1178
  803THF     H414530   3.535   1.810   4.423 -0.0788  0.6727  0.5601
  803THF     H514531   3.468   1.662   4.353  0.5116 -2.2981  2.0164
  803THF     H614532   3.467   1.585   4.727 -0.4417  0.4653 -0.6247
  803THF     H714533   3.453   1.477   4.588 -0.8515  1.5001 -0.0496
  803THF     C814534   3.645   1.586   4.608  0.5713 -0.7455 -0.6953
  803THF     C914535   3.661   1.655   4.474 -0.3312 -0.2789 -0.1648
  803THF    H1014536   3.686   1.486   4.620 -0.8522  1.7227  0.8050
  803THF    H1114537   3.681   1.640   4.695  0.0306 -0.7838  2.6485
  803THF    H1214538   3.737   1.736   4.469  0.4262 -1.3022 -1.5162
  803THF    H1314539   3.675   1.592   4.392 -1.1362 -0.1846  0.1571
  804THF     O114540   4.736   4.531   3.943 -0.4760  0.3174 -0.3713
  804THF     C214541   4.725   4.666   3.970  0.2654 -0.5783 -0.6298
  804THF     C314542   4.870   4.482   3.970 -0.3323  0.2175 -0.5094
  804THF     H414543   4.703   4.674   4.078 -1.7334  1.4469 -0.5204
  804THF     H514544   4.642   4.718   3.928 -0.6678 -3.0029 -0.3660
  804THF     H614545   4.876   4.403   4.053 -1.1865 -0.0590 -2.8921
  804THF     H714546   4.911   4.438   3.884  0.2350 -1.9680  2.1263
  804THF     C814547   4.945   4.604   4.006  0.0991  0.2159 -1.0036
  804THF     C914548   4.862   4.720   3.956 -0.2177 -1.0106  0.2955
  804THF    H1014549   5.050   4.614   3.987  0.2442  0.5719 -0.2352
  804THF    H1114550   4.941   4.604   4.116 -1.1259 -0.4975  2.5861
  804THF    H1214551   4.863   4.811   4.007  2.2490 -2.4370 -0.1676
  804THF    H1314552   4.875   4.746   3.850 -0.1477 -1.1964  1.8755
  805THF     O114553   0.842   5.270   4.098 -0.2806  0.3079  0.0479
  805THF     C214554   0.878   5.125   4.092  0.1287  0.3317  0.4726
  805THF     C314555   0.713   5.279   4.144 -0.8544 -0.1824 -0.7615
  805THF     H414556   0.934   5.096   4.181  2.0413 -0.4924  0.1115
  805THF     H514557   0.926   5.098   3.996 -2.4078 -0.5796 -0.0547
  805THF     H614558   0.718   5.340   4.231 -1.5002 -0.2782 -2.0469
  805THF     H714559   0.651   5.334   4.074 -0.2779  1.8509 -0.5232
  805THF     C814560   0.652   5.149   4.187 -0.1730  0.8017 -0.4261
  805THF     C914561   0.742   5.053   4.110 -0.0581  0.5173 -0.2169
  805THF    H1014562   0.546   5.144   4.164 -1.7847  1.3262  0.7332
  805THF    H1114563   0.663   5.141   4.294 -0.1974  0.8993  1.1227
  805THF    H1214564   0.747   4.949   4.157 -0.9379  1.5465  1.5153
  805THF    H1314565   0.710   5.045   4.004 -0.4328 -1.3098 -1.7063
  806THF     O114566   0.362   3.956   3.817  0.1080 -0.7663 -0.1291
  806THF     C214567   0.271   4.042   3.883  0.1704 -0.2149  1.1042
  806THF     C314568   0.474   4.034   3.770  0.4533  0.2486  0.4700
  806THF     H414569   0.309   4.068   3.979  0.0447 -2.8469  1.4307
  806THF     H514570   0.169   3.998   3.896 -2.8005  0.7952 -1.5365
  806THF     H614571   0.552   4.051   3.839 -1.2831  4.6027  4.6339
  806THF     H714572   0.519   4.005   3.675 -0.3769  2.2863  0.8667
  806THF     C814573   0.409   4.168   3.748  0.4938 -0.4150 -0.4337
  806THF     C914574   0.262   4.159   3.785  0.5072  0.0177  0.9025
  806THF    H1014575   0.413   4.202   3.645 -1.6636  1.9838  0.6331
  806THF    H1114576   0.452   4.244   3.810 -0.0161 -0.2683  1.9662
  806THF    H1214577   0.234   4.255   3.832 -0.4261  0.1078  0.4245
  806THF    H1314578   0.195   4.127   3.708  0.0732  1.8584  1.4692
  807THF     O114579   3.584   1.719   0.473 -0.3188  0.3854  0.8135
  807THF     C214580   3.638   1.681   0.594  0.5350 -0.5174 -0.4447
  807THF     C314581   3.679   1.808   0.403 -0.4188  0.3785  0.3715
  807THF     H414582   3.707   1.598   0.596  0.4130 -1.7668  0.6229
  807THF     H514583   3.553   1.649   0.654  0.2592  1.0050 -1.0066
  807THF     H614584   3.740   1.739   0.350 -0.1244  1.2355  0.3504
  807THF     H714585   3.629   1.872   0.331 -0.0848 -1.5110  2.3718
  807THF     C814586   3.737   1.885   0.525 -0.5992 -0.3342  1.9317
  807THF     C914587   3.691   1.815   0.651  0.5352 -0.6009  0.0912
  807THF    H1014588   3.700   1.991   0.512  0.9954 -0.4335  1.3741
  807THF    H1114589   3.846   1.891   0.524 -1.0119 -0.5194 -2.9161
  807THF    H1214590   3.771   1.805   0.731 -0.3105  1.5511 -0.5751
  807THF    H1314591   3.607   1.859   0.708 -0.7841  1.3004  0.5996
  808THF     O114592   4.448   3.873   0.629  0.1132 -0.0053 -0.0074
  808THF     C214593   4.355   3.771   0.655  0.3792  0.4643 -0.0455
  808THF     C314594   4.563   3.811   0.565 -0.0818  0.3022 -0.0926
  808THF     H414595   4.299   3.744   0.563 -1.4314  0.4112 -0.7129
  808THF     H514596   4.292   3.813   0.728 -0.8348  0.8105 -0.1431
  808THF     H614597   4.526   3.792   0.467  1.4501 -2.6303  2.7394
  808THF     H714598   4.655   3.866   0.553  0.8444 -0.7923 -1.2939
  808THF     C814599   4.576   3.679   0.636 -0.5021  0.7805 -0.2487
  808THF     C914600   4.448   3.669   0.722  0.0383  0.7753  0.0193
  808THF    H1014601   4.657   3.679   0.707 -0.3494 -0.6859  0.1840
  808THF    H1114602   4.589   3.592   0.569 -1.5751 -2.7807  2.2420
  808THF    H1214603   4.407   3.567   0.736 -0.7288 -2.1264  0.2034
  808THF    H1314604   4.471   3.700   0.819  0.2144 -0.1728 -0.9709
  809THF     O114605   2.818   2.627   0.159 -0.1302  0.4818  0.2061
  809THF     C214606   2.692   2.639   0.092  0.3886  0.2981  0.0317
  809THF     C314607   2.825   2.491   0.199 -0.3369  0.3036  0.3115
  809THF     H414608   2.683   2.734   0.037  0.8276  1.5623 -1.5684
  809THF     H514609   2.617   2.657   0.169  1.2627  1.3909  0.1281
  809THF     H614610   2.929   2.455   0.220  0.1565 -3.5341  0.4811
  809THF     H714611   2.762   2.481   0.286  1.6130  0.6197 -1.2672
  809THF     C814612   2.759   2.408   0.088  0.2034  0.3849  0.8175
  809THF     C914613   2.665   2.508   0.020 -0.5972  0.4028  0.7059
  809THF    H1014614   2.709   2.320   0.130  0.2260 -1.4692  1.0629
  809THF    H1114615   2.831   2.381   0.016 -2.1153 -0.8465  0.6349
  809THF    H1214616   2.691   2.529  -0.089 -0.4950  0.1966 -4.2312
  809THF    H1314617   2.563   2.474   0.025  2.6014 -0.0289  0.8596
  810THF     O114618   2.957   4.906   0.717  0.0974  0.4983  0.2380
  810THF     C214619   2.857   4.849   0.632 -0.2545 -1.0565 -0.3598
  810THF     C314620   2.981   5.045   0.686 -1.2770  0.2939 -0.9843
  810THF     H414621   2.828   4.755   0.686  0.9766 -0.9485 -0.5433
  810THF     H514622   2.885   4.826   0.534  0.7336  1.2431  0.5471
  810THF     H614623   3.017   5.084   0.778  1.2486  0.0605  2.6666
  810THF     H714624   3.056   5.058   0.607  0.9267  0.7336  0.2878
  810THF     C814625   2.839   5.098   0.647 -1.0070 -0.5080 -0.1569
  810THF     C914626   2.754   4.962   0.634 -0.1952  0.8279 -0.0197
  810THF    H1014627   2.859   5.141   0.552 -0.2892 -0.3096 -2.8815
  810THF    H1114628   2.795   5.167   0.719 -0.6981  0.8616  2.0019
  810THF    H1214629   2.688   4.959   0.714  1.9221  1.9366 -1.0992
  810THF    H1314630   2.695   4.962   0.546 -1.8753  2.5803  1.9045
  811THF     O114631   4.829   2.387   0.185  0.3528  0.0192 -0.0503
  811THF     C214632   4.762   2.309   0.281  0.7693 -0.1502 -0.3086
  811THF     C314633   4.970   2.366   0.204  0.1772  0.1872 -0.3679
  811THF     H414634   4.756   2.208   0.241  0.2572 -1.9841 -0.4011
  811THF     H514635   4.661   2.342   0.301  1.0738 -1.1392 -1.6550
  811THF     H614636   5.013   2.272   0.180 -0.2249 -0.4993  0.5382
  811THF     H714637   5.025   2.431   0.134 -0.7169 -2.0315  0.0880
  811THF     C814638   4.966   2.390   0.356  1.4695 -0.7802  0.0311
  811THF     C914639   4.831   2.329   0.410 -0.6106  0.8071 -0.6976
  811THF    H1014640   4.968   2.497   0.381 -0.2033  0.3792  2.6817
  811THF    H1114641   5.052   2.350   0.403  1.2470 -2.1413  2.0277
  811THF    H1214642   4.839   2.240   0.466  3.2433 -1.2251 -1.6418
  811THF    H1314643   4.779   2.395   0.476  1.4681 -2.0949  0.7925
  812THF     O114644   2.761   2.986   1.409  0.1959  0.9172 -0.8094
  812THF     C214645   2.718   2.970   1.536  0.1556 -0.4408 -0.0544
  812THF     C314646   2.696   2.886   1.327  0.1560  0.2757 -0.6460
  812THF     H414647   2.713   3.057   1.609  0.7098  2.3767  1.5714
  812THF     H514648   2.783   2.898   1.592  2.0287 -1.1232  3.1107
  812THF     H614649   2.628   2.945   1.260  1.4225  2.1976  2.2272
  812THF     H714650   2.771   2.829   1.266 -0.4753 -1.9472 -2.3165
  812THF     C814651   2.610   2.808   1.424  0.1176 -0.7637  0.0886
  812THF     C914652   2.581   2.903   1.537  0.4530 -0.1215 -0.0020
  812THF    H1014653   2.671   2.722   1.471 -0.2758 -1.3730  0.5537
  812THF    H1114654   2.515   2.782   1.382 -0.8887  0.0612 -0.5202
  812THF    H1214655   2.501   2.978   1.512 -1.4449  2.4802  0.9715
  812THF    H1314656   2.568   2.859   1.634 -0.1308  1.5071 -0.1138
  813THF     O114657   1.759   0.637   2.732 -0.5526 -0.4945 -0.8457
  813THF     C214658   1.825   0.581   2.838 -0.2792  0.2255 -0.0782
  813THF     C314659   1.732   0.777   2.767 -0.0920  0.1893  0.5101
  813THF     H414660   1.855   0.479   2.821  1.4258  0.2078  0.0039
  813THF     H514661   1.764   0.595   2.931  0.6900  0.7416  0.7208
  813THF     H614662   1.695   0.833   2.678 -0.6108 -1.7933 -2.5455
  813THF     H714663   1.665   0.784   2.852 -1.0954 -1.2289  1.1772
  813THF     C814664   1.872   0.813   2.813 -0.4599 -0.2541 -0.2591
  813THF     C914665   1.934   0.683   2.854  0.3969  0.0589  0.2380
  813THF    H1014666   1.851   0.879   2.899 -0.9859 -0.6110 -1.5641
  813THF    H1114667   1.938   0.872   2.748 -0.3134  0.7614 -0.7362
  813THF    H1214668   2.011   0.667   2.785 -0.6303 -2.9245 -0.0915
  813THF    H1314669   1.985   0.685   2.948 -4.0966 -0.7806  0.2209
  814THF     O114670   0.098   4.284   4.758  0.2779 -0.5241 -0.0351
  814THF     C214671   0.166   4.409   4.781  0.4383  0.4979  0.1596
  814THF     C314672   0.130   4.239   4.625 -0.1258 -0.4239 -0.2891
  814THF     H414673   0.205   4.431   4.883  2.5941 -0.7993 -0.2142
  814THF     H514674   0.085   4.486   4.770 -0.9660 -3.7738 -0.2362
  814THF     H614675   0.177   4.153   4.652 -2.3459 -0.5714  1.1431
  814THF     H714676   0.029   4.222   4.591 -1.7787 -1.4321  2.2050
  814THF     C814677   0.204   4.355   4.557  0.1949 -0.0977  0.1759
  814THF     C914678   0.271   4.418   4.672 -0.0347  0.5286  0.5803
  814THF    H1014679   0.134   4.423   4.506  0.9020  0.1205  1.8249
  814THF    H1114680   0.278   4.315   4.490  2.6004  1.6584  1.7339
  814THF    H1214681   0.362   4.362   4.699  0.2492 -0.6694  0.0883
  814THF    H1314682   0.292   4.525   4.649  1.8984  1.8799 -1.0639
  815THF     O114683   3.085   4.759   0.203 -0.4403 -0.0235 -0.2963
  815THF     C214684   2.948   4.776   0.225 -0.0831  0.1732 -0.4124
  815THF     C314685   3.157   4.860   0.272 -0.1517  0.0177 -0.8955
  815THF     H414686   2.910   4.740   0.322  1.7167  3.5084  0.2314
  815THF     H514687   2.887   4.725   0.147 -1.7868 -2.7717 -0.5072
  815THF     H614688   3.184   4.829   0.377  0.9537  1.7777  0.9876
  815THF     H714689   3.249   4.878   0.220 -1.8302  0.5632 -1.1774
  815THF     C814690   3.063   4.984   0.265  0.9022  0.0220 -0.0568
  815THF     C914691   2.929   4.928   0.223  0.2092  0.1811 -0.5876
  815THF    H1014692   3.104   5.064   0.196  0.5280 -1.4052  2.0028
  815THF    H1114693   3.046   5.029   0.363 -0.7132  0.4302  0.0699
  815THF    H1214694   2.844   4.957   0.284 -0.1215 -2.3175  0.3524
  815THF    H1314695   2.910   4.965   0.128  2.3143  1.9982  2.8289
  816THF     O114696   2.329   3.349   2.377 -0.3501  0.7450 -0.0793
  816THF     C214697   2.419   3.250   2.329  0.1946  0.2110  0.7421
  816THF     C314698   2.198   3.292   2.371  0.1998 -0.6116  0.1564
  816THF     H414699   2.421   3.167   2.400 -1.6548 -0.5760 -2.3542
  816THF     H514700   2.525   3.293   2.313  2.3056 -0.5077 -0.1743
  816THF     H614701   2.173   3.244   2.471 -2.5807 -1.8130 -1.8745
  816THF     H714702   2.123   3.368   2.345 -0.0748  0.0756 -3.2115
  816THF     C814703   2.205   3.181   2.262 -0.2382  0.6888  0.5683
  816THF     C914704   2.342   3.208   2.198 -0.4285  0.2152 -0.5853
  816THF    H1014705   2.127   3.184   2.187 -0.4856  1.1468 -2.4510
  816THF    H1114706   2.196   3.079   2.304  0.5223  0.2531  0.1980
  816THF    H1214707   2.391   3.117   2.149 -1.5764 -1.3054  1.1262
  816THF    H1314708   2.346   3.284   2.124  1.6283 -0.2282 -1.6212
  817THF     O114709   4.996   2.058   4.903 -0.2241  0.3164 -0.0011
  817THF     C214710   4.940   2.188   4.875 -0.2095  0.9221 -0.3472
  817THF     C314711   4.907   1.966   4.959 -0.0906 -0.1948  0.2753
  817THF     H414712   4.959   2.218   4.772 -1.2893 -1.6130 -0.4775
  817THF     H514713   4.982   2.266   4.933  1.1835  0.8912  0.3933
  817THF     H614714   4.880   1.880   4.897  0.7436 -2.1417 -2.2622
  817THF     H714715   4.948   1.935   5.052  0.2173 -0.4706  0.0548
  817THF     C814716   4.791   2.049   4.994  0.3085  0.2821 -0.4224
  817THF     C914717   4.792   2.170   4.903  0.1220 -0.9948  0.1656
  817THF    H1014718   4.804   2.075   5.100 -1.9520  1.4055 -0.6720
  817THF    H1114719   4.696   2.000   4.994 -1.9878  0.1735  1.5363
  817THF    H1214720   4.729   2.150   4.813  1.9375 -1.1654  0.8976
  817THF    H1314721   4.749   2.262   4.948  1.9944  1.6474 -4.5898
  818THF     O114722   1.460   3.070   4.432 -0.0596 -0.4279 -0.3956
  818THF     C214723   1.470   3.128   4.560  0.1018  0.7457  0.1747
  818THF     C314724   1.326   3.107   4.383  1.0496  0.6413  0.7482
  818THF     H414725   1.523   3.221   4.549 -1.6231  1.3906 -0.0388
  818THF     H514726   1.519   3.060   4.625  0.0772 -3.6314 -0.7210
  818THF     H614727   1.320   3.209   4.346  2.2303  0.3955  2.6548
  818THF     H714728   1.299   3.050   4.294  1.8079 -0.2059  2.2115
  818THF     C814729   1.242   3.094   4.502  0.0172 -0.1577 -0.5638
  818THF     C914730   1.329   3.155   4.610  0.1678  0.0411 -0.3272
  818THF    H1014731   1.231   2.987   4.520 -0.8074  0.8717  1.2460
  818THF    H1114732   1.140   3.128   4.487  1.2556  0.2520 -1.4575
  818THF    H1214733   1.309   3.269   4.616  0.9889  0.4322 -1.3606
  818THF    H1314734   1.296   3.094   4.691  3.2437 -0.9967  0.1933
  819THF     O114735   5.050   5.398   4.903 -0.1211  0.2176  0.2063
  819THF     C214736   4.957   5.376   5.007 -0.3076  0.0924  0.0439
  819THF     C314737   4.983   5.453   4.794  0.9662 -0.5712 -0.0039
  819THF     H414738   4.994   5.368   5.111  1.9765 -0.0016  1.3267
  819THF     H514739   4.904   5.285   4.980  0.8785 -0.2435  0.6493
  819THF     H614740   5.042   5.509   4.729 -1.6906  1.5839 -1.4333
  819THF     H714741   4.934   5.382   4.727 -0.2503  3.5632 -1.0224
  819THF     C814742   4.894   5.560   4.860  0.1854  0.2852 -0.3426
  819THF     C914743   4.873   5.505   4.999 -0.2305 -0.5563 -0.3355
  819THF    H1014744   4.806   5.576   4.801 -0.9867  1.2644 -1.5523
  819THF    H1114745   4.955   5.651   4.881  0.7200  1.1402  1.3762
  819THF    H1214746   4.908   5.571   5.075  0.4775  0.2875  3.2128
  819THF    H1314747   4.766   5.476   5.011  0.8943  1.9056  1.0692
  820THF     O114748   0.774   1.580   4.477  0.4739 -0.1741  0.4306
  820THF     C214749   0.841   1.639   4.592 -0.4732  0.2438 -0.1767
  820THF     C314750   0.640   1.637   4.483  0.2628  0.1504  0.3744
  820THF     H414751   0.954   1.629   4.591 -0.7175 -0.1931  0.6604
  820THF     H514752   0.805   1.583   4.676  1.1625  2.2678  1.1004
  820THF     H614753   0.590   1.632   4.388 -1.5042  3.0086 -2.0064
  820THF     H714754   0.579   1.583   4.548 -0.3503  0.2828 -2.5575
  820THF     C814755   0.663   1.784   4.523  0.1041  0.8731 -0.6105
  820THF     C914756   0.795   1.784   4.600  0.4532  0.9340 -0.1554
  820THF    H1014757   0.579   1.825   4.577  2.7679 -3.8232  0.4152
  820THF    H1114758   0.673   1.842   4.435  0.5242  3.5439  1.8728
  820THF    H1214759   0.863   1.855   4.556 -2.1434  2.3703  0.1288
  820THF    H1314760   0.784   1.802   4.707 -1.3597  2.0646 -0.0785
  821PF6-    P114761   5.264   4.290   3.961  0.2519 -0.5326  0.0149
  821PF6-    F214762   5.134   4.278   3.863 -0.0514  0.1799  0.2138
  821PF6-    F314763   5.387   4.321   4.059  0.7240  0.0173  0.3146
  821PF6-    F414764   5.362   4.265   3.841 -0.2840  0.2928  0.3379
  821PF6-    F514765   5.165   4.321   4.086  0.6118  0.3644  0.2631
  821PF6-    F614766   5.264   4.136   4.002  0.0363  0.6302  0.1635
  821PF6-    F714767   5.263   4.447   3.922  0.7085  0.8222 -0.2525
  822PF6-    P114768   2.667   2.268   5.163  0.4171 -0.2648  0.1253
  822PF6-    F214769   2.534   2.356   5.124 -0.2444 -0.3252  0.1630
  822PF6-    F314770   2.795   2.179   5.203  0.2902  0.2402 -0.4562
  822PF6-    F414771   2.702   2.255   5.006  0.2257 -0.1597 -0.3943
  822PF6-    F514772   2.637   2.285   5.317 -0.3735  0.1949 -0.4240
  822PF6-    F614773   2.581   2.130   5.155 -0.3400 -0.6362  1.0793
  822PF6-    F714774   2.762   2.399   5.169 -0.2727  0.0449 -0.0342
  823PF6-    P114775   2.105   5.120   3.040  0.0874  0.1796 -0.0747
  823PF6-    F214776   2.100   5.273   3.013  0.4571  0.2382  0.3700
  823PF6-    F314777   2.119   4.961   3.071  0.0092  0.1888 -0.2581
  823PF6-    F414778   2.262   5.133   3.019 -0.0494  0.1610  0.1264
  823PF6-    F514779   1.952   5.110   3.071 -0.3560  0.1078 -0.1078
  823PF6-    F614780   2.078   5.095   2.882 -0.4222 -0.5855  0.3210
  823PF6-    F714781   2.128   5.159   3.193 -0.2807 -0.0406  0.0291
  824PF6-    P114782   0.314   1.331   0.497 -0.7466 -0.1594  0.3998
  824PF6-    F214783   0.416   1.454   0.479 -0.1208  0.0738  0.6166
  824PF6-    F314784   0.207   1.214   0.517 -0.6860 -0.1083 -0.5299
  824PF6-    F414785   0.195   1.438   0.484 -0.1616  0.5934 -0.1470
  824PF6-    F514786   0.435   1.228   0.507  0.2014  0.0098 -0.0974
  824PF6-    F614787   0.315   1.359   0.655 -0.2855 -0.2704  0.6659
  824PF6-    F714788   0.303   1.306   0.344 -0.3989 -0.3967  0.5008
  825PF6-    P114789   4.062   3.516   0.521 -0.0499 -0.1425  0.0701
  825PF6-    F214790   3.977   3.450   0.642  0.1184  0.3566 -0.3515
  825PF6-    F314791   4.136   3.592   0.400  0.5076  0.3868  0.1004
  825PF6-    F414792   4.039   3.663   0.592  0.0881  0.0315 -0.0115
  825PF6-    F514793   4.087   3.377   0.453  0.2790  0.1908 -0.2634
  825PF6-    F614794   3.928   3.524   0.440 -0.4873  0.0926  0.0244
  825PF6-    F714795   4.200   3.503   0.601 -0.5202  0.2440 -0.6365
  826PF6-    P114796   2.433   0.328   0.165  0.0105 -0.3353 -0.0471
  826PF6-    F214797   2.489   0.181   0.155 -0.0891 -0.7337 -0.1778
  826PF6-    F314798   2.370   0.476   0.169 -0.0369  0.2640 -0.4479
  826PF6-    F414799   2.579   0.381   0.178  0.3663  0.2654  0.7555
  826PF6-    F514800   2.285   0.272   0.148  0.0611  0.2703  0.1981
  826PF6-    F614801   2.415   0.314   0.318  0.1510 -0.1863  0.2357
  826PF6-    F714802   2.451   0.348   0.002  0.1943 -0.1057 -0.3918
  827PF6-    P114803   0.943   0.596   4.969  0.2010 -0.1141 -0.0517
  827PF6-    F214804   1.018   0.466   4.920  0.4691 -0.2565  0.0389
  827PF6-    F314805   0.858   0.728   5.024  0.1775 -0.4170  0.1453
  827PF6-    F414806   1.080   0.667   4.997 -0.2486  0.1257  0.1018
  827PF6-    F514807   0.797   0.527   4.948 -1.0817 -0.3208 -0.2573
  827PF6-    F614808   0.940   0.545   5.124  0.8837 -0.2791  0.3040
  827PF6-    F714809   0.932   0.650   4.815 -0.6079  0.3930 -0.0683
  828PF6-    P114810   3.383   3.373   3.506  0.1522 -0.2852  0.0868
  828PF6-    F214811   3.407   3.472   3.623  0.1910 -0.0686 -0.1883
  828PF6-    F314812   3.360   3.276   3.382 -0.6500  0.2152  0.1577
  828PF6-    F414813   3.226   3.419   3.485 -0.0278 -0.3361  0.3770
  828PF6-    F514814   3.536   3.325   3.513  0.3781 -0.1044  0.2104
  828PF6-    F614815   3.338   3.258   3.613 -0.1797  0.1189  0.3419
  828PF6-    F714816   3.426   3.492   3.408  0.0011  0.1661  0.4818
  829PF6-    P114817   4.452   0.709   4.896  0.3349 -0.1734 -0.3497
  829PF6-    F214818   4.543   0.744   5.023  0.1419  0.1859 -0.1200
  829PF6-    F314819   4.355   0.676   4.775  0.3634  0.0506  0.7357
  829PF6-    F414820   4.319   0.746   4.978 -0.4297  0.1093 -0.4160
  829PF6-    F514821   4.580   0.667   4.815  0.7352  0.2941  0.5303
  829PF6-    F614822   4.434   0.560   4.946 -0.8600  0.1030  0.1387
  829PF6-    F714823   4.466   0.867   4.849  0.0711  0.7074 -0.4302
  830PF6-    P114824   5.186   1.058   4.434 -0.0832  0.0427 -0.0170
  830PF6-    F214825   5.268   1.139   4.317 -0.0082 -0.3831 -0.0551
  830PF6-    F314826   5.104   0.974   4.545  0.0144 -0.1808  0.6921
  830PF6-    F414827   5.286   0.933   4.415 -0.0687 -0.0465  0.1547
  830PF6-    F514828   5.088   1.193   4.457 -0.3989  0.1608 -0.2425
  830PF6-    F614829   5.081   1.000   4.320 -0.6626 -0.4384 -0.2553
  830PF6-    F714830   5.284   1.117   4.540 -0.6678  0.1128  0.1579
  831PF6-    P114831   3.423   0.471   2.701 -0.0795 -0.1622 -0.1509
  831PF6-    F214832   3.303   0.534   2.614  0.3863 -0.1597  0.5618
  831PF6-    F314833   3.545   0.414   2.788  0.3322  0.3041  0.0059
  831PF6-    F414834   3.317   0.419   2.815  0.2084 -0.0963  0.4382
  831PF6-    F514835   3.527   0.531   2.597 -0.2924 -0.4651 -0.4524
  831PF6-    F614836   3.431   0.615   2.775  0.1538 -0.1219  0.4210
  831PF6-    F714837   3.405   0.335   2.614  0.0029  0.2813 -0.4075
  832PF6-    P114838   2.298   5.021   0.026 -0.1792 -0.4411 -0.2168
  832PF6-    F214839   2.279   4.979  -0.127 -0.3032 -0.0463  0.1506
  832PF6-    F314840   2.327   5.069   0.174  0.2679 -0.6663 -0.0356
  832PF6-    F414841   2.377   5.150  -0.029 -0.6790  0.3317  0.2651
  832PF6-    F514842   2.230   4.886   0.071  0.0182  0.0483 -0.2581
  832PF6-    F614843   2.439   4.946   0.032 -0.0414  0.2143  0.1150
  832PF6-    F714844   2.162   5.101   0.029  0.4010 -0.1077  0.1577
  833PF6-    P114845   1.927   3.440   4.649  0.1597 -0.1055  0.1182
  833PF6-    F214846   2.064   3.492   4.591 -0.0863  0.9485  0.3347
  833PF6-    F314847   1.787   3.398   4.714  0.2251 -0.2193  0.0078
  833PF6-    F414848   1.989   3.456   4.794 -0.1997 -0.4805 -0.0250
  833PF6-    F514849   1.856   3.428   4.501 -0.3060 -0.4181  0.0965
  833PF6-    F614850   1.979   3.286   4.641  0.5337  0.2397  0.6934
  833PF6-    F714851   1.881   3.594   4.658 -0.1191  0.0780  0.1147
  834PF6-    P114852   0.246   2.251   3.669  0.2513  0.1550  0.2223
  834PF6-    F214853   0.159   2.312   3.542  0.2934 -0.4727 -0.1286
  834PF6-    F314854   0.333   2.184   3.787  0.6958 -0.1405 -0.0349
  834PF6-    F414855   0.281   2.399   3.721  0.1728 -0.3828 -0.6877
  834PF6-    F514856   0.219   2.100   3.616  0.4249 -0.2738 -0.8238
  834PF6-    F614857   0.374   2.248   3.578  0.1922  0.7138 -0.3599
  834PF6-    F714858   0.114   2.241   3.764  0.3201 -0.4404 -0.0204
  835PF6-    P114859   3.782   1.718   3.118 -0.1099 -0.1123 -0.4091
  835PF6-    F214860   3.884   1.807   3.036 -0.3071 -0.3780 -0.1747
  835PF6-    F314861   3.684   1.625   3.205  0.4060 -0.3996  0.1932
  835PF6-    F414862   3.902   1.666   3.216  0.3653 -0.0189 -0.2655
  835PF6-    F514863   3.659   1.769   3.029 -0.4202 -0.4881  0.2145
  835PF6-    F614864   3.816   1.603   3.017  0.4436  0.2340 -0.3262
  835PF6-    F714865   3.743   1.839   3.222 -0.5286  0.0089 -0.1292
  836PF6-    P114866   1.576   0.846   1.771 -0.3252  0.0625 -0.2237
  836PF6-    F214867   1.463   0.741   1.797  0.8293  0.7258 -0.6492
  836PF6-    F314868   1.699   0.943   1.737 -0.0131 -0.5000  0.1385
  836PF6-    F414869   1.673   0.720   1.730  0.2277  0.0977  0.1829
  836PF6-    F514870   1.485   0.971   1.811 -0.2143 -0.5546  0.3549
  836PF6-    F614871   1.625   0.828   1.922  0.5042 -1.0594 -0.1310
  836PF6-    F714872   1.537   0.855   1.614  0.3527  0.1954 -0.1615
  837PF6-    P114873   1.423   1.724   0.131  0.2233 -0.1208  0.1217
  837PF6-    F214874   1.266   1.777   0.133 -0.8404  0.1134 -0.8988
  837PF6-    F314875   1.574   1.667   0.124 -0.3864 -0.7376 -0.2509
  837PF6-    F414876   1.382   1.597   0.219  0.1290 -0.0046  0.0158
  837PF6-    F514877   1.462   1.842   0.034  0.0682  0.1987 -1.0677
  837PF6-    F614878   1.461   1.804   0.263  0.0655  0.2683  0.1865
  837PF6-    F714879   1.392   1.642  -0.007  0.4491  0.1154 -0.3236
  838PF6-    P114880   3.457   2.505   4.284  0.2020 -0.3111  0.4906
  838PF6-    F214881   3.382   2.379   4.216  0.1243 -0.3648  0.4952
  838PF6-    F314882   3.537   2.630   4.355  0.1299  0.0773  0.3375
  838PF6-    F414883   3.374   2.482   4.418 -0.4285  0.6372  0.7669
  838PF6-    F514884   3.545   2.533   4.154 -0.0198 -0.4047  0.1596
  838PF6-    F614885   3.345   2.604   4.239 -0.1810  0.2508 -0.1883
  838PF6-    F714886   3.571   2.405   4.335  0.5165  0.1012  0.3953
  839PF6-    P114887   4.430   0.479   3.356 -0.2544 -0.2023  0.3014
  839PF6-    F214888   4.520   0.609   3.372  0.1539  0.1234  0.0583
  839PF6-    F314889   4.354   0.342   3.337 -1.0348  0.0671  0.2288
  839PF6-    F414890   4.388   0.525   3.208  0.1538 -0.1622 -0.4000
  839PF6-    F514891   4.468   0.427   3.504 -0.2252 -0.1374  0.0376
  839PF6-    F614892   4.300   0.557   3.404  0.1450 -0.1759 -0.7264
  839PF6-    F714893   4.559   0.406   3.292  0.1120 -0.2295 -0.0329
  840PF6-    P114894   0.771   3.945   0.457  0.2162  0.2142  0.2289
  840PF6-    F214895   0.913   3.872   0.454 -0.1187  0.0751 -0.4991
  840PF6-    F314896   0.628   4.012   0.460 -0.0908  0.4997 -0.5380
  840PF6-    F414897   0.809   4.009   0.600  0.5390 -0.0840 -0.8044
  840PF6-    F514898   0.734   3.869   0.320  0.6146  0.1225  0.0575
  840PF6-    F614899   0.713   3.823   0.541 -0.0640 -0.3010  0.3587
  840PF6-    F714900   0.831   4.069   0.373  0.0978  0.1481 -0.1942
  841PF6-    P114901   2.075   1.503   4.957 -0.1427 -0.1813 -0.0488
  841PF6-    F214902   2.023   1.468   4.811 -0.1919 -0.1758 -0.0406
  841PF6-    F314903   2.116   1.535   5.113 -0.5995  0.5296  0.0544
  841PF6-    F414904   2.225   1.490   4.901 -0.3137  0.2189 -0.3524
  841PF6-    F514905   1.918   1.530   5.004  0.0846 -0.1663  0.1671
  841PF6-    F614906   2.069   1.345   4.997 -0.2975  0.0908  0.4695
  841PF6-    F714907   2.084   1.660   4.920  0.5009  0.1374 -0.2573
  842PF6-    P114908   4.983   3.100   5.110  0.3636 -0.5925 -0.1614
  842PF6-    F214909   4.993   3.067   4.951 -0.1870  0.1673  0.0725
  842PF6-    F314910   4.978   3.140   5.267  0.0225  0.0217 -0.7355
  842PF6-    F414911   5.093   2.992   5.142  0.1291 -0.0296 -0.4038
  842PF6-    F514912   4.861   3.197   5.082  0.4598  0.0145 -0.3890
  842PF6-    F614913   4.880   2.983   5.142 -0.5194  0.1231 -0.2369
  842PF6-    F714914   5.096   3.210   5.089  0.4509  0.1371  0.5307
  843PF6-    P114915   4.141   2.385   1.109  0.1300  0.0390 -0.4789
  843PF6-    F214916   4.069   2.428   1.243 -0.0458  0.2113  0.2701
  843PF6-    F314917   4.215   2.332   0.973  0.0616  0.2842  0.1145
  843PF6-    F414918   4.008   2.311   1.062  0.8923  0.3968 -0.2521
  843PF6-    F514919   4.269   2.462   1.162  0.4318 -0.4037 -0.1520
  843PF6-    F614920   4.190   2.251   1.184 -0.1651 -0.5935  0.2517
  843PF6-    F714921   4.089   2.514   1.034 -0.1109 -0.1488 -0.4955
  844PF6-    P114922   4.584   2.459   2.571 -0.1050  0.1466 -0.2358
  844PF6-    F214923   4.581   2.518   2.416  0.5748 -0.7447  0.1758
  844PF6-    F314924   4.587   2.391   2.719  0.0283 -0.6125 -0.0546
  844PF6-    F414925   4.605   2.306   2.512 -0.0416 -0.2830 -0.5837
  844PF6-    F514926   4.571   2.608   2.633 -0.4655  0.3151  0.3045
  844PF6-    F614927   4.425   2.436   2.574 -0.3514 -0.7814 -0.1544
  844PF6-    F714928   4.741   2.478   2.583  0.2722 -0.3718  0.2149
  845PF6-    P114929   2.432   2.428   3.561  0.4513 -0.0537 -0.2685
  845PF6-    F214930   2.588   2.443   3.524 -0.3706 -0.4653  0.5671
  845PF6-    F314931   2.276   2.404   3.611 -0.4081 -0.2860 -0.0084
  845PF6-    F414932   2.444   2.273   3.550 -0.0741  0.4239 -0.1418
  845PF6-    F514933   2.423   2.591   3.574  0.0353  0.3142 -0.2272
  845PF6-    F614934   2.384   2.441   3.402  0.2611 -0.4014 -0.1155
  845PF6-    F714935   2.474   2.419   3.717  0.5575  0.6614 -0.6322
  846PF6-    P114936   1.613   0.270   4.529  0.1252 -0.3365  0.1632
  846PF6-    F214937   1.522   0.304   4.402  0.3746 -0.0031 -0.1400
  846PF6-    F314938   1.707   0.236   4.652  0.2089  0.2740 -0.3614
  846PF6-    F414939   1.682   0.418   4.513 -0.3730  0.0270  0.2297
  846PF6-    F514940   1.549   0.127   4.545 -0.0562 -0.3017 -0.6300
  846PF6-    F614941   1.721   0.209   4.427 -0.0039 -0.6818  0.0111
  846PF6-    F714942   1.505   0.329   4.625 -0.0647 -0.6329 -0.3020
  847PF6-    P114943   4.149   1.822   0.296  0.1057  0.1101 -0.2491
  847PF6-    F214944   4.165   1.940   0.394 -0.1014  0.2491 -0.4739
  847PF6-    F314945   4.127   1.698   0.203  0.2181  0.1943  0.0459
  847PF6-    F414946   4.208   1.911   0.175 -0.5532 -0.1797  0.0879
  847PF6-    F514947   4.086   1.730   0.402 -0.0777  0.1944 -0.6187
  847PF6-    F614948   3.998   1.874   0.254  0.1806  0.3126 -0.1978
  847PF6-    F714949   4.291   1.763   0.336  0.0134  0.0744 -0.3264
  848PF6-    P114950   2.849   2.560   0.880 -0.6946  0.0006 -0.7026
  848PF6-    F214951   2.843   2.662   0.761 -0.4367 -0.2008  0.1969
  848PF6-    F314952   2.850   2.452   1.001  0.3486 -0.1498 -0.0553
  848PF6-    F414953   2.861   2.676   0.993  0.1577  0.1006 -0.0902
  848PF6-    F514954   2.835   2.444   0.771 -0.8488 -0.2107 -0.7180
  848PF6-    F614955   3.010   2.553   0.873 -0.5028  0.1177 -0.0076
  848PF6-    F714956   2.690   2.574   0.894 -0.0153 -0.3529  0.0629
  849PF6-    P114957   2.621   5.305   2.217  0.1660 -0.0170 -0.1747
  849PF6-    F214958   2.586   5.297   2.062 -0.0593  0.4185 -0.2466
  849PF6-    F314959   2.664   5.316   2.375 -0.3814 -0.2929  0.0533
  849PF6-    F414960   2.602   5.144   2.231 -0.1784  0.1484 -0.6372
  849PF6-    F514961   2.643   5.464   2.200  0.6311  0.0158  0.2281
  849PF6-    F614962   2.466   5.330   2.258 -0.0953  0.2687 -0.6995
  849PF6-    F714963   2.779   5.286   2.176 -0.2367 -0.0469 -0.6942
  850PF6-    P114964   5.414   0.902   1.579 -0.2309  0.0508  0.0305
  850PF6-    F214965   5.296   0.864   1.686 -0.6777 -0.2707  0.6409
  850PF6-    F314966   5.525   0.939   1.470 -0.1136 -0.3684  0.4330
  850PF6-    F414967   5.420   0.751   1.528 -0.2371  0.6258 -0.1422
  850PF6-    F514968   5.411   1.055   1.629 -0.6846  0.1212 -0.2710
  850PF6-    F614969   5.525   0.871   1.690 -0.4080  0.4125  0.3823
  850PF6-    F714970   5.296   0.942   1.469 -0.0590  0.3807  0.1105
  851PF6-    P114971   4.219   2.551   3.822 -0.1695  0.1383  0.0316
  851PF6-    F214972   4.064   2.508   3.794 -0.2511 -0.0483  0.6050
  851PF6-    F314973   4.372   2.592   3.852  0.2775 -0.4489 -0.2647
  851PF6-    F414974   4.237   2.599   3.672  0.0883  0.0377  0.1971
  851PF6-    F514975   4.200   2.495   3.969 -0.0037  0.4697  0.1495
  851PF6-    F614976   4.267   2.401   3.782  0.5316  0.6544 -0.0072
  851PF6-    F714977   4.173   2.700   3.859  0.2810  0.3935 -0.0684
  852PF6-    P114978   3.331   4.178   2.529  0.0805 -0.3145  0.0780
  852PF6-    F214979   3.459   4.140   2.451  0.1967 -0.0199 -0.0851
  852PF6-    F314980   3.199   4.217   2.605  0.2395 -0.2301 -0.2609
  852PF6-    F414981   3.271   4.030   2.495 -0.5451 -0.3291 -0.0720
  852PF6-    F514982   3.383   4.318   2.558  0.2741 -0.4314  0.0311
  852PF6-    F614983   3.264   4.224   2.392 -0.4559 -0.2582  0.4293
  852PF6-    F714984   3.396   4.115   2.662  0.0293 -0.0945  0.1114
  853PF6-    P114985   1.504   0.979   0.235 -0.0687  0.1167  0.2771
  853PF6-    F214986   1.503   1.093   0.126  0.2533  0.0245  0.2384
  853PF6-    F314987   1.501   0.859   0.346 -0.6359 -0.4915 -0.0533
  853PF6-    F414988   1.355   1.016   0.275  0.5337  0.0671  0.9298
  853PF6-    F514989   1.663   0.944   0.193 -0.2330  0.1019 -0.6563
  853PF6-    F614990   1.561   1.079   0.342  0.2769  0.2286  0.1517
  853PF6-    F714991   1.457   0.884   0.118 -0.1775  0.0387 -0.1405
  854PF6-    P114992   1.554   1.163   2.818 -0.1174 -0.0514  0.0690
  854PF6-    F214993   1.522   1.187   2.664  0.0103  0.5279 -0.2850
  854PF6-    F314994   1.600   1.131   2.970 -0.0573  0.2449 -0.2760
  854PF6-    F414995   1.606   1.312   2.825 -0.1791 -0.0777 -0.3760
  854PF6-    F514996   1.498   1.015   2.800  0.1733 -0.0521 -0.2143
  854PF6-    F614997   1.698   1.109   2.770 -0.0460 -0.0428 -0.3535
  854PF6-    F714998   1.406   1.206   2.865  0.0616 -0.3043  0.0587
  855PF6-    P114999   5.328   2.629   2.965  0.0645 -0.3571  0.6662
  855PF6-    F215000   5.186   2.681   2.906  0.0669  0.5635 -0.0156
  855PF6-    F315001   5.473   2.582   3.022  0.5078 -0.3453  0.4421
  855PF6-    F415002   5.356   2.771   3.049 -0.4268 -0.1706 -0.3159
  855PF6-    F515003   5.308   2.492   2.887  0.5185  0.0478 -0.5139
  855PF6-    F615004   5.402   2.696   2.836  0.1814  0.0936  0.1392
  855PF6-    F715005   5.254   2.572   3.092 -0.5394 -0.1781 -0.5549
  856PF6-    P115006   1.865   0.219   3.138  0.6204 -0.0636 -0.1260
  856PF6-    F215007   1.815   0.076   3.087 -0.4621 -0.8605 -0.0500
  856PF6-    F315008   1.906   0.364   3.188 -0.0997 -0.5229  0.3605
  856PF6-    F415009   1.757   0.283   3.038  0.4346  0.0327 -0.6378
  856PF6-    F515010   1.961   0.147   3.244 -0.0202 -0.5033  0.0043
  856PF6-    F615011   1.983   0.226   3.029 -0.1639  0.1902  0.3017
  856PF6-    F715012   1.744   0.215   3.248  0.8140  0.0181  0.3076
  857PF6-    P115013   0.574   5.277   5.313  0.2160  0.1568 -0.4254
  857PF6-    F215014   0.486   5.149   5.279  0.3359  0.3202  0.0724
  857PF6-    F315015   0.668   5.401   5.348 -0.3604  0.6854 -0.0101
  857PF6-    F415016   0.701   5.190   5.270  0.5490  0.0774  0.1471
  857PF6-    F515017   0.447   5.363   5.360 -0.0225  0.1787  0.1210
  857PF6-    F615018   0.586   5.224   5.464 -0.7495 -0.4043 -0.6418
  857PF6-    F715019   0.554   5.326   5.161  0.1018  0.6145  0.2351
  858PF6-    P115020   3.443   5.025   2.925  0.2198  0.0748  0.1410
  858PF6-    F215021   3.452   4.867   2.930 -0.0740 -0.3205  0.1520
  858PF6-    F315022   3.417   5.185   2.925  0.4325 -0.0198  0.1738
  858PF6-    F415023   3.361   5.010   2.791 -0.1270 -0.0851  0.8340
  858PF6-    F515024   3.531   5.034   3.056 -0.0595 -0.0344 -0.2824
  858PF6-    F615025   3.573   5.042   2.842  0.5967  0.3514  0.3905
  858PF6-    F715026   3.303   5.005   3.004 -0.1073 -0.4805  0.0609
  859PF6-    P115027   0.345   0.147   3.988  0.0923 -0.1556  0.3315
  859PF6-    F215028   0.339   0.310   4.001 -0.0504 -0.2454  0.0775
  859PF6-    F315029   0.349  -0.016   3.968  0.1974 -0.6865  0.1244
  859PF6-    F415030   0.504   0.152   3.982  0.0545 -0.3891 -0.6473
  859PF6-    F515031   0.185   0.148   3.990 -0.6182 -0.2150  0.0496
  859PF6-    F615032   0.344   0.160   3.826  0.3243  0.0818  0.1288
  859PF6-    F715033   0.340   0.130   4.145 -0.0330  0.2315  0.0042
  860PF6-    P115034   3.561   3.199   2.217  0.1227  0.2260 -0.0065
  860PF6-    F215035   3.410   3.184   2.265  0.1634  0.2211 -0.5294
  860PF6-    F315036   3.715   3.218   2.174 -0.2938  0.0019  0.6016
  860PF6-    F415037   3.593   3.052   2.271 -0.8644 -0.0036  0.1198
  860PF6-    F515038   3.535   3.343   2.155 -0.5419 -0.0832  0.1013
  860PF6-    F615039   3.586   3.258   2.364 -0.1449 -0.0914  0.2873
  860PF6-    F715040   3.522   3.135   2.074  0.3770  0.3096 -0.4999
  861PF6-    P115041   0.820   5.142   1.646 -0.1124 -0.6540  0.0480
  861PF6-    F215042   0.728   5.230   1.548 -0.1810  0.2003 -0.4098
  861PF6-    F315043   0.905   5.060   1.747  0.5508 -0.2689  0.3259
  861PF6-    F415044   0.820   5.264   1.755  0.0252  0.0467 -0.7872
  861PF6-    F515045   0.814   5.023   1.542  0.0149 -0.2462  0.6097
  861PF6-    F615046   0.951   5.201   1.568 -0.2539 -0.7291  0.2356
  861PF6-    F715047   0.687   5.076   1.713 -0.6256  0.2764  0.1479
  862PF6-    P115048   0.556   3.405   2.540 -0.5077 -0.0803  0.0906
  862PF6-    F215049   0.411   3.338   2.529  0.0037  0.0603  0.2493
  862PF6-    F315050   0.699   3.473   2.554 -0.5378  0.1669  0.2058
  862PF6-    F415051   0.576   3.327   2.689 -0.1463  0.0490 -0.7037
  862PF6-    F515052   0.533   3.490   2.405  0.3678  0.3023  0.3612
  862PF6-    F615053   0.497   3.527   2.620  0.0606 -0.5870  0.8730
  862PF6-    F715054   0.620   3.280   2.467 -0.0476 -0.4893 -0.7383
  863PF6-    P115055   4.799   0.254   2.441  0.0010  0.3186 -0.0651
  863PF6-    F215056   4.900   0.200   2.557  0.1636 -0.2708  0.4051
  863PF6-    F315057   4.710   0.317   2.329 -0.0778 -0.3828  0.1561
  863PF6-    F415058   4.907   0.201   2.337 -0.5775 -0.3294 -0.2506
  863PF6-    F515059   4.712   0.312   2.556 -0.6369 -0.1076  0.0195
  863PF6-    F615060   4.879   0.386   2.453  0.1819  1.0891 -0.1727
  863PF6-    F715061   4.718   0.119   2.435  0.2623 -0.4052  0.2022
  864PF6-    P115062   2.759   4.118   3.717  0.0201 -0.1660  0.2098
  864PF6-    F215063   2.839   4.006   3.796  0.1019  0.6959  0.1213
  864PF6-    F315064   2.670   4.231   3.638  0.3557  0.8869  0.2403
  864PF6-    F415065   2.629   4.028   3.727 -0.1599  0.4438 -0.3045
  864PF6-    F515066   2.891   4.210   3.709  0.3312 -0.2243 -0.6132
  864PF6-    F615067   2.792   4.048   3.571 -0.2603 -0.5025  0.2546
  864PF6-    F715068   2.720   4.189   3.858  0.5284 -0.4159 -0.3952
  865PF6-    P115069   2.212   3.298   0.868 -0.0333 -0.0832  0.0082
  865PF6-    F215070   2.307   3.284   1.003 -0.5060 -0.4905 -0.3489
  865PF6-    F315071   2.119   3.300   0.737 -0.0139  0.3349 -0.0610
  865PF6-    F415072   2.337   3.344   0.776 -0.5373  0.0049  0.6961
  865PF6-    F515073   2.088   3.247   0.954  0.0133  0.0391 -0.3105
  865PF6-    F615074   2.183   3.446   0.904  0.0893  0.7231 -0.2268
  865PF6-    F715075   2.243   3.144   0.836  0.1716 -0.5006  0.5221
  866PF6-    P115076   2.534   1.432   3.715  0.2081  0.2228  0.1654
  866PF6-    F215077   2.393   1.509   3.684 -0.1135 -0.2374 -0.2844
  866PF6-    F315078   2.675   1.354   3.740  0.2876 -0.5432  0.0134
  866PF6-    F415079   2.545   1.385   3.562  0.2795  0.3210 -0.4078
  866PF6-    F515080   2.530   1.480   3.871 -0.2204  0.4864 -0.3478
  866PF6-    F615081   2.459   1.298   3.747  0.0364  0.3102  0.1421
  866PF6-    F715082   2.606   1.567   3.673  0.4345  0.0697  0.1051
  867PF6-    P115083   2.389   4.086   2.844  0.2004  0.0773 -0.2483
  867PF6-    F215084   2.378   3.932   2.825 -0.4670  0.0831 -0.5183
  867PF6-    F315085   2.398   4.244   2.868 -0.7498 -0.4146  0.4243
  867PF6-    F415086   2.230   4.093   2.848 -0.4008 -0.1271 -0.4944
  867PF6-    F515087   2.550   4.077   2.837  0.2367 -0.0366  0.0391
  867PF6-    F615088   2.383   4.106   2.686  0.3298 -0.1492 -0.3333
  867PF6-    F715089   2.387   4.063   3.002  0.4869  0.0448 -0.1575
  868PF6-    P115090   1.236   3.151   0.066 -0.0858  0.2695  0.5026
  868PF6-    F215091   1.317   3.014   0.094 -0.1367 -0.0260 -0.1326
  868PF6-    F315092   1.154   3.294   0.039  0.5059  0.1650  0.1433
  868PF6-    F415093   1.278   3.199   0.211  0.6399  0.7692  0.2626
  868PF6-    F515094   1.211   3.101  -0.084 -0.0809 -0.0878 -0.2680
  868PF6-    F615095   1.100   3.080   0.113 -0.2816 -0.1415 -0.3789
  868PF6-    F715096   1.366   3.230   0.017 -0.1871 -0.1136 -0.3593
  869PF6-    P115097   1.664   0.095   1.360 -0.2334  0.1397  0.1199
  869PF6-    F215098   1.601   0.215   1.283 -0.2258  0.0559  0.5516
  869PF6-    F315099   1.721  -0.034   1.435  0.1900 -0.1957  0.0595
  869PF6-    F415100   1.551   0.104   1.484 -0.2511 -0.0181  0.1582
  869PF6-    F515101   1.774   0.081   1.236  0.2573 -0.4676 -0.1292
  869PF6-    F615102   1.760   0.195   1.443 -0.1468  0.2664  0.0884
  869PF6-    F715103   1.557  -0.011   1.287 -0.2681  0.0073 -0.2797
  870PF6-    P115104   2.844   0.009   3.485 -0.2067 -0.0372 -0.0159
  870PF6-    F215105   2.804  -0.145   3.457 -0.2254 -0.4617 -0.3135
  870PF6-    F315106   2.863   0.169   3.509  0.2474  0.3126  0.2020
  870PF6-    F415107   2.840  -0.022   3.641 -0.4721  0.3697  0.3116
  870PF6-    F515108   2.848   0.032   3.326 -0.2526 -0.5277 -0.5413
  870PF6-    F615109   2.684   0.042   3.493 -0.1664  0.2635  0.2676
  870PF6-    F715110   3.002  -0.021   3.489  0.2963 -0.5322 -0.6684
  871PF6-    P115111   0.961   1.667   3.649 -0.4681 -0.4904 -0.4482
  871PF6-    F215112   0.850   1.583   3.562 -0.4894  0.1986  0.4274
  871PF6-    F315113   1.067   1.750   3.736 -0.2050  0.6522  0.6939
  871PF6-    F415114   0.863   1.790   3.642 -0.4608  0.4370 -0.0441
  871PF6-    F515115   1.056   1.540   3.647 -0.4170 -0.6154  0.5936
  871PF6-    F615116   1.045   1.719   3.513 -0.2450  0.4870 -0.3628
  871PF6-    F715117   0.900   1.612   3.788 -0.2673 -0.1133  0.5572
  872PF6-    P115118   1.759   4.875   4.231 -0.1373 -0.3877  0.0496
  872PF6-    F215119   1.815   5.012   4.170  0.3883  0.3921 -0.0991
  872PF6-    F315120   1.701   4.736   4.294 -0.0937 -0.1724 -0.1557
  872PF6-    F415121   1.771   4.811   4.086 -0.6375  0.1902 -0.0742
  872PF6-    F515122   1.737   4.950   4.366 -0.2826 -0.1175  0.4839
  872PF6-    F615123   1.608   4.913   4.193 -0.3209 -0.0156 -0.2203
  872PF6-    F715124   1.905   4.827   4.272 -0.0348  0.4088  0.5228
  873PF6-    P115125   1.828   3.027   2.167  0.2556 -0.3631  0.5766
  873PF6-    F215126   1.894   3.145   2.249  0.0941 -0.3199 -0.1110
  873PF6-    F315127   1.770   2.901   2.078  0.1915 -0.7213  0.0044
  873PF6-    F415128   1.831   3.124   2.037 -0.5456  0.6418  0.0743
  873PF6-    F515129   1.826   2.930   2.295 -0.2488 -0.3838  0.3521
  873PF6-    F615130   1.675   3.071   2.199 -0.1433  0.2817  0.2961
  873PF6-    F715131   1.980   2.979   2.129 -0.0300  0.1976 -0.1714
  874PF6-    P115132   2.042   3.499   3.740  0.5079 -0.0507 -0.4061
  874PF6-    F215133   2.149   3.505   3.622 -0.2979 -0.2081 -0.4346
  874PF6-    F315134   1.944   3.476   3.867  0.3341 -0.2316 -0.3525
  874PF6-    F415135   2.101   3.629   3.805 -0.0116  0.2410 -0.4260
  874PF6-    F515136   1.978   3.360   3.669  0.4338 -0.4111 -0.1530
  874PF6-    F615137   2.149   3.402   3.821 -0.3341  0.2599 -0.3717
  874PF6-    F715138   1.933   3.584   3.663 -0.1264 -0.5434  0.8741
  875PF6-    P115139   4.726   5.479   1.061 -0.0770 -0.1638 -0.1223
  875PF6-    F215140   4.597   5.452   0.970 -1.7556 -0.4950  0.4069
  875PF6-    F315141   4.855   5.515   1.154 -0.0634  0.1655 -0.3117
  875PF6-    F415142   4.765   5.603   0.970  0.5426  0.1804  0.0433
  875PF6-    F515143   4.685   5.356   1.152 -0.2312 -0.6128  0.2465
  875PF6-    F615144   4.813   5.380   0.972  0.4408 -0.0427  0.1269
  875PF6-    F715145   4.635   5.573   1.152  0.6347  0.5357 -0.2173
  876PF6-    P115146   1.256   2.364   2.153  0.1192 -0.0351  0.1919
  876PF6-    F215147   1.349   2.468   2.223 -0.2389 -0.0018  0.1272
  876PF6-    F315148   1.166   2.252   2.079 -0.1470  0.3792 -0.0782
  876PF6-    F415149   1.389   2.299   2.091 -0.0499  0.4724 -0.4453
  876PF6-    F515150   1.123   2.428   2.213  0.2949  0.8736 -0.1390
  876PF6-    F615151   1.248   2.457   2.019  0.0163 -0.1717  0.6273
  876PF6-    F715152   1.274   2.271   2.287  0.4602  0.0207 -0.0249
  877PF6-    P115153   2.989   1.531   1.203  0.3936 -0.4088 -0.2234
  877PF6-    F215154   2.898   1.404   1.169  0.2284  0.4563 -0.0696
  877PF6-    F315155   3.078   1.663   1.234  0.3821 -0.6597  0.0605
  877PF6-    F415156   2.869   1.577   1.305 -0.5541 -0.1301 -0.0289
  877PF6-    F515157   3.094   1.475   1.097 -0.4338 -0.1518  0.5585
  877PF6-    F615158   2.921   1.608   1.078  0.2896 -0.1171 -0.5559
  877PF6-    F715159   3.056   1.445   1.317  0.0078 -0.4485 -0.9609
  878PF6-    P115160   2.400   0.832   2.542  0.1647 -0.0810 -0.1173
  878PF6-    F215161   2.491   0.795   2.410 -0.0384 -0.5812 -0.8613
  878PF6-    F315162   2.312   0.865   2.671  0.3443 -0.3864 -0.7404
  878PF6-    F415163   2.294   0.901   2.446 -0.0911 -0.2454  0.6279
  878PF6-    F515164   2.510   0.759   2.638  0.3475 -0.4695 -0.4598
  878PF6-    F615165   2.477   0.970   2.545  0.2699 -0.0748 -0.3345
  878PF6-    F715166   2.320   0.689   2.531  0.5933  0.5054 -0.5819
  879PF6-    P115167   4.100   4.461   5.321 -0.0579  0.0670  0.3717
  879PF6-    F215168   4.085   4.346   5.435  0.2739  0.4443 -0.5757
  879PF6-    F315169   4.120   4.571   5.204  0.0638  0.0152 -1.0558
  879PF6-    F415170   3.955   4.419   5.254 -0.4959  0.1000 -0.1434
  879PF6-    F515171   4.234   4.508   5.389 -0.2583 -0.3336 -0.0330
  879PF6-    F615172   4.173   4.353   5.226 -0.3910  0.3678 -0.1102
  879PF6-    F715173   4.020   4.566   5.420 -0.5323  0.0426  0.1622
  880PF6-    P115174   2.388   0.229   4.229  0.1361 -0.0278 -0.3322
  880PF6-    F215175   2.327   0.352   4.317  0.2420  0.0015  0.2457
  880PF6-    F315176   2.453   0.108   4.143  0.3197  0.0310  0.1452
  880PF6-    F415177   2.524   0.316   4.192 -0.2433  0.3307 -0.4043
  880PF6-    F515178   2.256   0.146   4.256 -0.1589  0.5340 -0.2918
  880PF6-    F615179   2.326   0.289   4.096 -0.1505 -0.3113  0.4160
  880PF6-    F715180   2.459   0.171   4.362 -0.5068 -0.0767 -0.0090
  881PF6-    P115181   4.175   4.537   1.188 -0.1952 -0.1678 -0.6841
  881PF6-    F215182   4.161   4.426   1.066 -0.1209  0.0630 -0.0605
  881PF6-    F315183   4.177   4.650   1.302  0.4570  0.0497  0.0429
  881PF6-    F415184   4.252   4.431   1.282 -0.1442 -0.3549  0.2417
  881PF6-    F515185   4.107   4.644   1.097  0.3342  0.1047 -0.0250
  881PF6-    F615186   4.036   4.486   1.243 -0.1503 -0.3231  0.0848
  881PF6-    F715187   4.318   4.588   1.131  0.5473 -0.2364  0.1142
  882PF6-    P115188   0.037   5.012   1.841 -0.2452 -0.0716  0.1935
  882PF6-    F215189   0.104   5.108   1.733 -0.0911 -0.0980 -0.1999
  882PF6-    F315190  -0.027   4.910   1.948 -0.3233 -0.5876  0.4066
  882PF6-    F415191  -0.078   4.966   1.741 -0.2406  0.8067  0.6240
  882PF6-    F515192   0.150   5.056   1.945  0.2134  0.4505  0.3777
  882PF6-    F615193  -0.057   5.133   1.892 -0.1146  0.4960 -0.0009
  882PF6-    F715194   0.130   4.888   1.791  0.3087 -0.0360  1.0444
  883PF6-    P115195   4.813   1.540   3.094 -0.0440  0.3937  0.2189
  883PF6-    F215196   4.949   1.481   3.028 -0.2137  0.3773 -0.1491
  883PF6-    F315197   4.676   1.604   3.160 -0.2469  0.8160  0.5137
  883PF6-    F415198   4.849   1.481   3.241  0.1307  0.5918 -0.4374
  883PF6-    F515199   4.769   1.598   2.954 -0.0535 -0.5399  0.0039
  883PF6-    F615200   4.739   1.399   3.059  0.0039 -0.7249 -0.5699
  883PF6-    F715201   4.883   1.677   3.132  0.2516 -0.2904  0.3552
  884PF6-    P115202   0.119   0.636   2.676 -0.3249  0.1908 -0.2848
  884PF6-    F215203   0.002   0.737   2.728  0.1076  0.2548  0.1917
  884PF6-    F315204   0.228   0.540   2.621 -0.4720  0.0850 -0.0685
  884PF6-    F415205   0.194   0.640   2.817 -0.4052 -0.7146  0.0929
  884PF6-    F515206   0.052   0.640   2.528 -0.0506 -0.1642  0.5054
  884PF6-    F615207   0.201   0.759   2.629 -0.7029  0.3470 -0.3621
  884PF6-    F715208   0.027   0.514   2.727 -0.2551  0.6521 -0.1332
  885PF6-    P115209   2.600   3.172   5.353  0.0669  0.5623 -0.5766
  885PF6-    F215210   2.627   3.336   5.352  0.0856  0.4731 -0.4010
  885PF6-    F315211   2.560   3.013   5.352 -0.2204  0.4380 -0.5589
  885PF6-    F415212   2.508   3.189   5.221 -0.0387 -0.0135  0.2902
  885PF6-    F515213   2.683   3.149   5.489 -0.2634 -0.1327 -0.2393
  885PF6-    F615214   2.471   3.201   5.447 -0.4409  0.4947 -0.1090
  885PF6-    F715215   2.725   3.135   5.261 -0.4616  0.0177 -0.4029
  886PF6-    P115216   5.373   4.047   2.807  0.4154 -0.2335 -0.4670
  886PF6-    F215217   5.512   4.070   2.734  0.6419  0.0887  0.4247
  886PF6-    F315218   5.235   4.019   2.889 -0.2412 -0.2448 -0.1787
  886PF6-    F415219   5.380   3.890   2.779  0.0331 -0.6389  0.4728
  886PF6-    F515220   5.360   4.205   2.840 -0.5276 -0.2094  0.3144
  886PF6-    F615221   5.297   4.063   2.671  0.3886  0.0487 -0.0445
  886PF6-    F715222   5.451   4.027   2.946  0.3583  0.2807  0.4604
  887PF6-    P115223   1.168   0.333   2.538 -0.1053 -0.2199 -0.0918
  887PF6-    F215224   1.120   0.186   2.497 -0.0687  0.2552  0.4072
  887PF6-    F315225   1.222   0.476   2.579 -0.0743  0.3928 -0.0121
  887PF6-    F415226   1.209   0.276   2.684  0.4536  0.0253  0.0432
  887PF6-    F515227   1.137   0.389   2.390 -0.2149 -0.0477 -0.4645
  887PF6-    F615228   1.014   0.366   2.586 -0.5482 -0.4480  0.0422
  887PF6-    F715229   1.319   0.301   2.488  0.7457 -0.0271  0.1561
  888PF6-    P115230   4.206   4.622   2.281  0.1152 -0.2063 -0.0916
  888PF6-    F215231   4.248   4.681   2.422 -0.1445 -0.2981 -0.4502
  888PF6-    F315232   4.160   4.575   2.132 -0.6860  0.1323  0.3572
  888PF6-    F415233   4.067   4.560   2.344  0.1913 -0.6815  0.4907
  888PF6-    F515234   4.341   4.676   2.216 -0.2092  0.0112  0.1089
  888PF6-    F615235   4.278   4.480   2.310  0.1395  0.2824  0.0956
  888PF6-    F715236   4.128   4.757   2.250  0.1994 -0.0119 -0.2458
  889PF6-    P115237   4.334   1.618   1.971  0.1181  0.3866 -0.2739
  889PF6-    F215238   4.403   1.517   2.077 -0.3669  0.1616  0.2193
  889PF6-    F315239   4.262   1.715   1.861 -0.3145  0.5795 -0.2639
  889PF6-    F415240   4.482   1.664   1.919 -0.4651  0.2684  0.0986
  889PF6-    F515241   4.192   1.570   2.028  0.0838  0.2841  0.3274
  889PF6-    F615242   4.336   1.734   2.078 -0.2810 -0.0909  0.5829
  889PF6-    F715243   4.338   1.492   1.872  0.2359 -0.6340  0.3216
  890PF6-    P115244   5.077   2.001   1.683 -0.2977  0.1131 -0.1394
  890PF6-    F215245   5.210   1.914   1.651 -1.0181  0.3249  0.7177
  890PF6-    F315246   4.944   2.088   1.719 -0.1723  0.6269 -0.3145
  890PF6-    F415247   5.075   1.946   1.830  0.1816 -0.6119  0.3569
  890PF6-    F515248   5.083   2.067   1.542 -0.6988 -0.2092 -0.1564
  890PF6-    F615249   4.983   1.885   1.623  0.6899  0.1495  0.0863
  890PF6-    F715250   5.172   2.119   1.738  0.0683 -0.1366  0.0653
  891PF6-    P115251   3.664   0.028   1.967 -0.3515  0.0326 -0.2320
  891PF6-    F215252   3.531   0.113   1.949  0.3012 -0.3435 -0.0845
  891PF6-    F315253   3.797  -0.053   1.985 -0.2389  0.2336  0.2539
  891PF6-    F415254   3.670   0.008   1.811  0.0892  0.2306  0.2347
  891PF6-    F515255   3.655   0.044   2.128 -0.4486  0.9167 -0.0021
  891PF6-    F615256   3.583  -0.106   1.968 -0.6510 -0.3767  0.0902
  891PF6-    F715257   3.750   0.167   1.961  0.0827 -0.4966  0.2816
  892PF6-    P115258   0.161   1.347   5.121  0.0233 -0.4889 -0.1964
  892PF6-    F215259   0.145   1.351   5.277 -0.1989  0.3364 -0.0695
  892PF6-    F315260   0.177   1.339   4.958  0.2916 -0.6547 -0.1785
  892PF6-    F415261   0.076   1.213   5.117  0.1297 -0.1675  0.0176
  892PF6-    F515262   0.247   1.484   5.133 -0.1475  0.0931  0.4015
  892PF6-    F615263   0.292   1.267   5.149 -0.0857 -0.1562 -0.0417
  892PF6-    F715264   0.031   1.436   5.096 -0.6238  0.0148 -0.4741
  893PF6-    P115265   4.939   4.206   0.739  0.2835  0.0088 -0.0653
  893PF6-    F215266   5.034   4.113   0.652 -0.1568 -0.2422  0.4535
  893PF6-    F315267   4.839   4.298   0.826 -0.3015  0.7265 -0.0495
  893PF6-    F415268   5.066   4.309   0.761  0.8838  0.2776  0.1127
  893PF6-    F515269   4.824   4.095   0.720 -0.1916  0.2031 -0.4472
  893PF6-    F615270   4.984   4.134   0.874  0.1956  1.2043  0.2368
  893PF6-    F715271   4.893   4.278   0.603 -0.3745  0.2539 -0.0575
  894PF6-    P115272   1.341   3.656   2.604 -0.2511 -0.0472  0.0312
  894PF6-    F215273   1.392   3.755   2.486  0.1208  0.6089 -0.0853
  894PF6-    F315274   1.303   3.554   2.719 -0.1749  0.6895  0.0828
  894PF6-    F415275   1.300   3.784   2.699 -0.2370 -0.6381  0.1907
  894PF6-    F515276   1.379   3.533   2.513  0.3360 -0.5128 -0.6351
  894PF6-    F615277   1.492   3.663   2.659 -0.2052 -0.5663 -0.2957
  894PF6-    F715278   1.193   3.657   2.543 -0.6283  0.1285 -0.0969
  895PF6-    P115279   1.024   0.461   0.779  0.0076 -0.0394  0.0171
  895PF6-    F215280   0.877   0.493   0.828 -0.2810  0.4499  0.3553
  895PF6-    F315281   1.172   0.431   0.735  0.0189  0.2967 -0.1422
  895PF6-    F415282   1.071   0.421   0.926 -0.0919  0.2910 -0.0360
  895PF6-    F515283   0.985   0.512   0.629  0.1670  0.0069 -0.0561
  895PF6-    F615284   1.066   0.609   0.814  0.1268  0.1867 -0.4945
  895PF6-    F715285   0.986   0.314   0.746 -0.1362  0.1380  0.0517
  896PF6-    P115286   0.824   1.239   1.772  0.1392 -0.3095 -0.1389
  896PF6-    F215287   0.789   1.292   1.922 -0.0872  0.0852 -0.3539
  896PF6-    F315288   0.842   1.183   1.622  0.0411  0.0782  0.3746
  896PF6-    F415289   0.962   1.316   1.766 -0.3528  0.1793  0.3239
  896PF6-    F515290   0.687   1.156   1.775  0.6122  0.1121 -0.6272
  896PF6-    F615291   0.748   1.369   1.714 -0.3459  0.0253 -0.1802
  896PF6-    F715292   0.905   1.118   1.840  0.5483 -0.7282 -0.2232
  897PF6-    P115293   4.868   0.950   0.893  0.2964 -0.2543  0.4864
  897PF6-    F215294   4.810   1.011   1.032 -0.2006 -0.2834  0.0097
  897PF6-    F315295   4.925   0.881   0.763  0.0465 -0.7862  0.5406
  897PF6-    F415296   4.990   0.892   0.973 -0.4453  0.6679 -0.4731
  897PF6-    F515297   4.747   1.016   0.813 -0.1837  0.1222  0.2665
  897PF6-    F615298   4.952   1.085   0.868 -0.4258  0.4501 -0.1094
  897PF6-    F715299   4.788   0.813   0.917 -0.3910 -0.4669 -0.4564
  898PF6-    P115300   3.094   3.918   4.499  0.2702  0.1638 -0.2749
  898PF6-    F215301   2.982   4.029   4.504 -0.2889  0.1314  0.2321
  898PF6-    F315302   3.206   3.802   4.486 -0.3971  0.2076 -0.0335
  898PF6-    F415303   3.165   4.002   4.384  0.4882 -0.1712 -0.0699
  898PF6-    F515304   3.030   3.840   4.627 -0.0667  0.3810  0.1621
  898PF6-    F615305   3.000   3.834   4.404  0.3067  0.2665  0.2566
  898PF6-    F715306   3.187   3.997   4.607 -0.5947  0.1197 -0.0661
  899PF6-    P115307   4.688   5.125   4.739 -0.1776  0.3187  0.0237
  899PF6-    F215308   4.823   5.045   4.771 -0.5474 -0.6722  0.1860
  899PF6-    F315309   4.559   5.211   4.708 -0.4501  0.4537  0.1127
  899PF6-    F415310   4.671   5.040   4.601 -0.0574 -0.1556  0.3426
  899PF6-    F515311   4.710   5.217   4.873  0.4344  0.3374  0.0645
  899PF6-    F615312   4.779   5.226   4.658  0.0295  0.1338 -0.0018
  899PF6-    F715313   4.604   5.016   4.818  0.2000  0.9371 -0.3879
  900PF6-    P115314   4.105   4.807   3.884  0.1432 -0.0043  0.3444
  900PF6-    F215315   4.038   4.741   4.017  0.0012 -0.3998 -0.2975
  900PF6-    F315316   4.173   4.875   3.757  0.2066  0.5119  0.1334
  900PF6-    F415317   4.191   4.676   3.864 -0.2309 -1.0836  0.5131
  900PF6-    F515318   4.019   4.938   3.913  0.5055 -0.0102 -0.2813
  900PF6-    F615319   4.222   4.873   3.974  0.1654  0.2573 -0.6587
  900PF6-    F715320   3.983   4.746   3.798  0.3253 -0.1330 -0.0958
  901PF6-    P115321   0.470   2.139   4.953 -0.4409 -0.4146 -0.0354
  901PF6-    F215322   0.597   2.087   5.037 -0.6752 -0.6076  0.2608
  901PF6-    F315323   0.347   2.195   4.872 -0.8618  0.0014 -0.2464
  901PF6-    F415324   0.429   2.223   5.076  0.0264 -0.0163 -0.7069
  901PF6-    F515325   0.505   2.047   4.827  0.2910 -0.3870  0.2623
  901PF6-    F615326   0.383   2.020   5.012  0.0608  0.2792 -0.8342
  901PF6-    F715327   0.561   2.262   4.899  0.0993 -0.2715  0.8863
  902PF6-    P115328   1.546   0.931   3.860  0.2785  0.2354  0.2159
  902PF6-    F215329   1.480   0.985   3.727  0.0745  0.0920 -0.0381
  902PF6-    F315330   1.616   0.874   3.992  0.0530  0.0459 -0.7284
  902PF6-    F415331   1.678   1.006   3.822  0.3157  0.1000  0.7016
  902PF6-    F515332   1.412   0.845   3.893  0.4448 -0.0719  0.3444
  902PF6-    F615333   1.603   0.807   3.780 -0.6862  0.0263 -0.3556
  902PF6-    F715334   1.494   1.056   3.941  0.2086 -0.4142  0.4584
  903PF6-    P115335   2.925   3.846   1.803 -0.4299  0.4757  0.0867
  903PF6-    F215336   2.965   3.996   1.835 -0.3752  0.2737  0.0732
  903PF6-    F315337   2.889   3.689   1.778 -0.0646 -0.2023  0.1679
  903PF6-    F415338   2.933   3.874   1.645  0.5359  0.1887  0.8490
  903PF6-    F515339   2.918   3.826   1.956 -0.5255  0.3297 -0.2849
  903PF6-    F615340   2.765   3.887   1.801 -0.3144  0.2789 -0.1712
  903PF6-    F715341   3.083   3.808   1.795  0.0262  0.1922 -0.0369
  904PF6-    P115342   3.261   2.373   0.400  0.0995  0.0292 -0.2347
  904PF6-    F215343   3.314   2.525   0.376 -0.1401  0.4966 -0.3253
  904PF6-    F315344   3.206   2.227   0.424 -0.3467  0.4679 -0.4521
  904PF6-    F415345   3.176   2.372   0.261  0.3833  0.2073 -0.2848
  904PF6-    F515346   3.341   2.367   0.542  0.1679  0.2283 -0.0229
  904PF6-    F615347   3.137   2.431   0.472  0.1335 -0.3415 -0.0939
  904PF6-    F715348   3.394   2.310   0.330  0.0240 -0.0779  0.7206
  905PF6-    P115349   3.482   4.923   4.651  0.1952  0.1392 -0.0479
  905PF6-    F215350   3.511   5.081   4.666 -0.2155  0.3008  0.1879
  905PF6-    F315351   3.443   4.768   4.633 -0.2304  0.2388 -0.0723
  905PF6-    F415352   3.537   4.936   4.499 -0.0294  0.1381  0.4778
  905PF6-    F515353   3.419   4.922   4.800  0.0345 -0.0374  0.3641
  905PF6-    F615354   3.334   4.948   4.593  0.0094  0.3324 -0.2434
  905PF6-    F715355   3.627   4.888   4.700 -0.3578  0.4242 -0.0365
  906PF6-    P115356   0.065   3.328   0.043 -0.3684 -0.3535 -0.3523
  906PF6-    F215357  -0.052   3.438   0.067 -0.0956  0.3693 -0.3722
  906PF6-    F315358   0.183   3.221   0.023 -0.2967  0.5954 -0.5112
  906PF6-    F415359   0.172   3.443   0.056  0.0218 -0.6317 -0.3799
  906PF6-    F515360  -0.039   3.208   0.023  0.4304 -0.4175  0.1444
  906PF6-    F615361   0.055   3.364  -0.114 -0.4525 -0.6576  0.0352
  906PF6-    F715362   0.076   3.306   0.204  0.2759 -0.8012 -0.4109
  907PF6-    P115363   0.415   1.886   2.141  0.0484 -0.0569  0.0422
  907PF6-    F215364   0.534   1.965   2.071  0.0041 -0.2854 -0.0557
  907PF6-    F315365   0.291   1.805   2.208  0.3250 -0.4434  0.6569
  907PF6-    F415366   0.501   1.748   2.125 -0.1832 -0.4773  0.5658
  907PF6-    F515367   0.324   2.019   2.150 -0.4340  0.4386 -0.0361
  907PF6-    F615368   0.350   1.852   1.998  0.2516  0.3014 -0.1353
  907PF6-    F715369   0.478   1.914   2.291 -0.5882  0.6057  0.0127
  908PF6-    P115370   1.595   4.139   1.583  0.0450 -0.5954 -0.1132
  908PF6-    F215371   1.750   4.119   1.556  0.2555  0.2950 -0.2196
  908PF6-    F315372   1.441   4.155   1.607 -0.5384  0.5604 -0.2512
  908PF6-    F415373   1.581   4.228   1.451 -0.2521  0.3349  0.1173
  908PF6-    F515374   1.607   4.048   1.713 -0.1055 -0.1986  0.2344
  908PF6-    F615375   1.624   4.265   1.668 -0.0092 -0.4849  0.1537
  908PF6-    F715376   1.563   4.011   1.502  0.2564 -0.2105  0.3528
  909PF6-    P115377   3.191   4.059   0.761 -0.0222 -0.3439 -0.1281
  909PF6-    F215378   3.245   4.129   0.623  0.8403 -0.0766 -0.0679
  909PF6-    F315379   3.140   3.990   0.894  0.4509  0.2664 -0.1709
  909PF6-    F415380   3.210   3.914   0.692  0.2930  0.2175 -1.4110
  909PF6-    F515381   3.181   4.204   0.819 -0.1871 -0.1669 -0.2600
  909PF6-    F615382   3.036   4.067   0.712  0.3830  0.5139 -0.1973
  909PF6-    F715383   3.347   4.059   0.809 -0.1206  0.6730 -0.2054
  910PF6-    P115384   0.041   3.871   1.560 -0.5101  0.2116  0.4793
  910PF6-    F215385   0.041   3.973   1.685  0.0300 -0.4297 -0.3478
  910PF6-    F315386   0.034   3.763   1.442 -0.0334  0.4784 -0.1747
  910PF6-    F415387  -0.116   3.903   1.534 -0.3430  0.0495 -0.1640
  910PF6-    F515388   0.193   3.839   1.587 -0.1080 -0.9048  0.0352
  910PF6-    F615389   0.009   3.754   1.656 -0.5427  0.1722 -0.2526
  910PF6-    F715390   0.081   3.991   1.461 -0.0147 -0.4311  0.0368
  911PF6-    P115391   0.902   2.771   4.446 -0.0706  0.3710 -0.2919
  911PF6-    F215392   0.989   2.900   4.427  0.8455 -0.3364 -0.1955
  911PF6-    F315393   0.815   2.641   4.479  0.3230 -0.0288  0.3655
  911PF6-    F415394   0.981   2.700   4.325 -0.2101 -0.3660 -0.3141
  911PF6-    F515395   0.831   2.842   4.573 -0.3715  0.0775 -0.4948
  911PF6-    F615396   0.789   2.822   4.353  0.1994 -0.0140  0.0406
  911PF6-    F715397   1.009   2.714   4.549 -0.2951 -0.2842  0.5805
  912PF6-    P115398   2.918   0.265   4.815 -0.2946 -0.4288 -0.2312
  912PF6-    F215399   3.026   0.319   4.924 -0.4904 -0.3025 -0.2068
  912PF6-    F315400   2.808   0.212   4.700 -0.1091 -0.2459 -0.2258
  912PF6-    F415401   3.018   0.148   4.774  0.0699  0.2557  0.3325
  912PF6-    F515402   2.817   0.382   4.863 -0.1255  0.3672 -0.2163
  912PF6-    F615403   2.982   0.369   4.709 -0.2630  0.6220  0.5657
  912PF6-    F715404   2.855   0.167   4.928  0.3544  0.3198 -0.3515
  913PF6-    P115405   3.216   5.376   0.674 -0.3409 -0.1677 -0.3649
  913PF6-    F215406   3.192   5.524   0.620  0.3224 -0.1164 -0.0626
  913PF6-    F315407   3.242   5.230   0.732 -0.2737  0.0814  0.3938
  913PF6-    F415408   3.115   5.316   0.566  0.1797 -0.0573  0.5717
  913PF6-    F515409   3.318   5.436   0.786 -0.4400  0.2025 -0.5625
  913PF6-    F615410   3.100   5.389   0.782 -0.3050 -0.5090 -0.5136
  913PF6-    F715411   3.332   5.362   0.573  0.0154 -0.1014 -0.3401
  914PF6-    P115412   2.926   0.531   1.074  0.2597  0.0878 -0.0422
  914PF6-    F215413   2.951   0.478   0.922  0.4209  0.5611  0.6935
  914PF6-    F315414   2.901   0.570   1.229  0.1731  0.2630  0.0026
  914PF6-    F415415   2.797   0.439   1.081  0.3320 -0.2630  0.5049
  914PF6-    F515416   3.053   0.626   1.069  0.2731  0.3280  0.7198
  914PF6-    F615417   2.835   0.651   1.028  0.7201  0.0561  0.0980
  914PF6-    F715418   3.013   0.412   1.124 -0.6493 -0.5430  0.1139
  915PF6-    P115419   3.711   5.345   5.383  0.2467 -0.1839  0.5097
  915PF6-    F215420   3.858   5.321   5.459  0.0483 -0.2865 -0.9845
  915PF6-    F315421   3.571   5.373   5.306  0.0983 -0.3241  0.5966
  915PF6-    F415422   3.640   5.345   5.524  0.5369  0.3029  0.3179
  915PF6-    F515423   3.788   5.340   5.240 -0.3212  0.0650 -0.0063
  915PF6-    F615424   3.687   5.192   5.379 -0.4078 -0.3105 -0.3973
  915PF6-    F715425   3.734   5.500   5.389 -0.0195  0.0721 -0.0296
  916PF6-    P115426   2.110   2.609   4.499  0.2139 -0.2568 -0.3867
  916PF6-    F215427   2.173   2.510   4.382  0.3179 -0.4866 -0.2652
  916PF6-    F315428   2.046   2.704   4.616 -0.2695 -0.1220 -0.3430
  916PF6-    F415429   1.965   2.573   4.441 -0.0193 -0.3121 -0.1316
  916PF6-    F515430   2.257   2.638   4.555  0.1068 -0.0927  0.4101
  916PF6-    F615431   2.116   2.735   4.402 -0.1277 -0.1267  0.1033
  916PF6-    F715432   2.108   2.482   4.601 -0.1019 -0.0251  0.2226
  917PF6-    P115433   3.500   3.273   5.191 -0.1432 -0.1876  0.0559
  917PF6-    F215434   3.574   3.184   5.082 -0.5593 -0.5701  0.2811
  917PF6-    F315435   3.425   3.373   5.300 -0.7134 -0.1643  0.0618
  917PF6-    F415436   3.371   3.292   5.091  0.5719  0.2986 -0.5235
  917PF6-    F515437   3.618   3.253   5.290 -0.1844 -0.4526  0.7014
  917PF6-    F615438   3.572   3.399   5.122  0.9565 -0.0513  0.3280
  917PF6-    F715439   3.424   3.143   5.247 -0.7470 -0.4436  0.0983
  918PF6-    P115440   3.315   4.682   1.763  0.1272 -0.3333  0.1666
  918PF6-    F215441   3.381   4.769   1.875  0.1449 -0.4100  0.0604
  918PF6-    F315442   3.260   4.586   1.643 -0.1682  0.3735  0.6613
  918PF6-    F415443   3.446   4.700   1.675  0.2288 -0.0683 -0.0707
  918PF6-    F515444   3.185   4.661   1.849 -0.6280  0.2149  0.6941
  918PF6-    F615445   3.249   4.815   1.699  0.5777 -0.0103 -0.0114
  918PF6-    F715446   3.377   4.550   1.827 -0.0813  0.6682  0.0601
  919PF6-    P115447   4.178   3.833   3.851 -0.1216 -0.2813 -0.0015
  919PF6-    F215448   4.198   3.993   3.818 -0.3453 -0.0884  0.1909
  919PF6-    F315449   4.162   3.677   3.885  0.3495  0.2177  0.2612
  919PF6-    F415450   4.309   3.837   3.947 -0.0674 -0.0610 -0.5236
  919PF6-    F515451   4.045   3.830   3.767  0.0890 -0.9915 -0.3682
  919PF6-    F615452   4.264   3.799   3.725  0.0765  0.1922 -0.2422
  919PF6-    F715453   4.090   3.866   3.976 -0.4774 -0.2528 -0.1307
  920PF6-    P115454   1.271   2.908   1.263  0.4197 -0.0999  0.0775
  920PF6-    F215455   1.181   3.010   1.177  0.0509 -0.0592  0.5912
  920PF6-    F315456   1.361   2.805   1.352  0.5352 -0.3278  0.0102
  920PF6-    F415457   1.394   3.010   1.264  0.3787 -0.3939  0.0699
  920PF6-    F515458   1.150   2.804   1.266  0.0040 -0.0440  0.0224
  920PF6-    F615459   1.330   2.847   1.121 -0.0751  0.3034 -0.6097
  920PF6-    F715460   1.217   2.983   1.397 -0.0718  0.0984 -0.1149
  921Na+     N115461   1.834   0.715   2.237  0.3339  0.8141  0.5158
  922Na+     N115462   5.124   3.824   3.490 -0.0797  0.1515  0.4033
  923Na+     N115463   1.817   1.643   0.138 -0.2244  0.4477 -0.2079
  924Na+     N115464   3.223   0.268   1.262  0.1195 -0.3381 -0.2640
  925Na+     N115465   2.709   2.660   4.152  0.2092  0.1602 -0.3744
  926Na+     N115466   2.448   0.806   1.676  0.6020  0.9402 -0.3457
  927Na+     N115467   2.477   3.654   4.900  0.1447 -0.1179  0.1603
  928Na+     N115468   4.867   0.273   1.327 -0.0876 -0.2026 -0.3722
  929Na+     N115469   0.398   1.584   3.317  0.2605 -0.2750  0.5505
  930Na+     N115470   2.656   3.812   3.600  0.7649 -0.1210 -0.0512
  931Na+     N115471   4.262   2.684   3.439 -0.2806 -0.0205  0.5440
  932Na+     N115472   3.546   4.798   2.310  0.6972  0.3258 -0.4128
  933Na+     N115473   1.498   0.878   0.918 -0.1874 -0.0851  0.1663
  934Na+     N115474   4.427   0.008   0.116  0.0972 -0.2064 -0.3639
  935Na+     N115475   0.925   2.696   0.591  0.4110 -0.5212  0.1049
  936Na+     N115476   1.861   3.143   5.246 -0.2622  0.2678  0.4509
  937Na+     N115477   4.290   2.250   1.914  0.4785 -0.2422 -0.0194
  938Na+     N115478   3.818   4.326   4.382 -0.0604  0.1580  0.2710
  939Na+     N115479   1.460   3.850   3.262  0.1696 -0.0677 -0.0514
  940Na+     N115480   5.281   0.387   4.441  0.2402  0.3455 -0.1601
  941Na+     N115481   0.034   2.601   5.091  0.1160  0.0141  0.3271
  942Na+     N115482   4.365   5.270   1.823  0.3336  0.0568 -0.0290
  943Na+     N115483   0.388   3.774   2.663 -0.0543 -0.1103  0.2810
  944Na+     N115484   2.023   2.648   2.648  0.7994  0.2927  0.0411
  945Na+     N115485   3.215   3.128   4.700  0.2061  0.2655  0.1332
  946Na+     N115486   2.124   3.708   0.992  0.2306 -0.0436 -0.1795
  947Na+     N115487   1.612   0.008   2.951  0.0739  0.1262  0.0531
  948Na+     N115488   4.837   2.110   3.061  0.3968  0.3177 -0.6445
  949Na+     N115489   3.138   0.255   0.050 -0.2128  0.2401  0.0036
  950Na+     N115490   1.243   3.046   2.061 -0.3599  0.1383  0.0020
  951Na+     N115491   1.263   2.037   5.115 -0.1367  0.0875  0.4911
  952Na+     N115492   0.733   2.898   4.797 -0.3445  0.1680 -0.1419
  953Na+     N115493   5.484   0.154   2.323 -0.6047 -0.4107  0.3839
  954Na+     N115494   3.893   3.891   0.643  0.0707 -0.2747  0.3032
  955Na+     N115495   2.995   5.381   4.312  0.1797  0.2702 -0.0152
  956Na+     N115496   1.100   0.938   2.248  0.0888 -0.2805  0.0527
  957Na+     N115497   0.196   2.270   1.599 -0.0748 -0.1302  0.3695
  958Na+     N115498   0.662   4.694   2.049 -0.4403  0.2867 -0.4659
  959Na+     N115499   1.023   1.013   0.187  0.7590 -0.4559  0.1043
  960Na+     N115500   4.530   1.481   1.318  0.0398  0.0448  0.0455
  961Na+     N115501   2.965   5.089   5.205  0.1050  0.0649 -0.0372
  962Na+     N115502   4.828   4.190   1.053 -0.3371 -0.0663 -0.3301
  963Na+     N115503   4.301   4.573   0.423 -0.1759 -0.1963 -0.1279
  964Na+     N115504   0.032   3.660   0.204 -0.1919 -0.0823  0.1325
  965Na+     N115505   1.183   3.831   0.439 -0.6260 -0.0833  0.1391
  966Na+     N115506   0.746   0.514   3.410 -0.3384 -0.2016  0.3179
  967Na+     N115507   2.447   0.151   2.727  0.0844  0.3575 -0.1941
  968Na+     N115508   1.616   3.038   4.238  0.0175  0.2464  0.5313
  969Na+     N115509   4.297   3.279   5.400  0.1340  0.3791  0.1639
  970Na+     N115510   0.071   1.220   2.131 -0.7040  0.0661  0.2165
  971Na+     N115511   3.883   5.157   5.052 -0.1045  0.2816 -0.1060
  972Na+     N115512   5.385   1.198   1.424 -0.2905 -0.4722  0.2835
  973Na+     N115513   2.458   0.117   3.520  0.1149  0.5558 -0.7074
  974Na+     N115514   3.689   3.421   4.081  0.1093 -0.4754 -0.3808
  975Na+     N115515   4.022   4.758   3.078 -0.2040 -0.3629 -0.3073
  976Na+     N115516   2.207   0.011   5.041 -0.1641 -0.1517 -0.0563
  977Na+     N115517   2.400   1.964   4.531 -0.3500  0.5528 -0.3917
  978Na+     N115518   0.406   3.418   1.039  0.0239  0.4069 -0.5032
  979Na+     N115519   3.420   0.031   3.267  0.0987 -0.3020  0.1175
  980Na+     N115520   2.900   3.644   0.158  0.0338  0.0641 -0.0870
  981Na+     N115521   0.373   1.006   4.715 -0.0680 -0.4445 -0.3618
  982Na+     N115522   1.778   3.874   2.412 -0.2208 -0.3227  0.1612
  983Na+     N115523   5.043   4.463   4.661 -0.3593  0.3295 -0.2224
  984Na+     N115524   0.424   0.358   5.347  0.2842  0.0989 -0.4995
  985Na+     N115525   2.161   0.269   0.376 -0.0373 -0.0323  0.3438
  986Na+     N115526   3.079   4.402   3.186  0.5649  0.3971  0.7896
  987Na+     N115527   4.151   3.095   2.417  0.1048  0.5487  0.0302
  988Na+     N115528   5.437   1.768   4.562  0.1552 -0.2663 -0.4796
  989Na+     N115529   5.166   1.295   0.125 -0.3485  0.3445 -0.2271
  990Na+     N115530   2.112   3.137   1.533  0.1657 -0.3496  0.3957
  991Na+     N115531   3.594   2.989   0.323 -0.1241 -0.0860  0.0930
  992Na+     N115532   1.724   1.609   3.790  0.0957  0.0097 -0.0362
  993Na+     N115533   0.213   2.429   3.032 -0.0825  0.2398 -0.3087
  994Na+     N115534   3.254   0.138   2.479 -0.0416  0.0840 -0.7132
  995Na+     N115535   1.697   0.298   4.136 -0.6952 -0.7562  0.2905
  996Na+     N115536   4.763   5.355   3.073  0.1632 -0.2836  0.1816
  997Na+     N115537   3.311   1.594   0.445  0.0813 -0.2066  0.3859
  998Na+     N115538   2.758   2.882   0.611 -0.0640 -0.3625  0.1422
  999Na+     N115539   0.340   0.414   1.157 -0.0490  0.1743 -0.8299
 1000Na+     N115540   3.324   3.869   1.790  0.1372  0.4911  0.2268
 1001Na+     N115541   1.154   1.892   2.130  0.1927 -0.2694 -0.0897
 1002Na+     N115542   2.890   3.588   2.586  0.5619 -0.1310 -0.1696
 1003Na+     N115543   2.027   0.986   3.232  0.2375 -0.3593 -0.2484
 1004Na+     N115544   3.340   2.247   1.127  0.1119  0.4630 -0.2994
 1005Na+     N115545   1.726   0.858   5.065  0.4386 -0.3085 -0.3993
 1006Na+     N115546   1.318   0.243   1.456  0.2308  0.1749 -0.2299
 1007Na+     N115547   3.003   2.015   5.103  0.1552 -0.4795 -0.2202
 1008Na+     N115548   2.937   4.681   1.844  0.3696  0.0535 -0.5139
 1009Na+     N115549   1.457   4.918   1.256  0.2764 -0.1498 -0.4656
 1010Na+     N115550   1.348   5.438   4.664 -0.2038  0.0107 -0.0751
 1011Na+     N115551   3.319   4.773   1.118 -0.4318  0.2221  0.3111
 1012Na+     N115552   4.051   1.438   2.997 -0.3190  0.1586  0.5411
 1013Na+     N115553   3.081   2.004   3.307 -0.2526 -0.3003  0.1902
 1014Na+     N115554   4.403   0.673   2.648 -0.4903 -0.1373 -0.0735
 1015Na+     N115555   2.298   1.065   4.387 -0.1596 -0.1570  0.3641
 1016Na+     N115556   2.086   4.430   3.881 -0.0371  0.3276 -0.0128
 1017Na+     N115557   4.887   4.534   1.989 -0.3526 -0.1601  0.3774
 1018Na+     N115558   4.139   2.330   4.286 -0.1674  0.0048 -0.4481
 1019Na+     N115559   1.008   3.025   2.986 -0.1427 -0.5394 -0.4737
 1020Na+     N115560   4.195   0.478   4.172  0.1547  0.7539  0.5111
   5.50134   5.50134   5.50134
